Protein in INSANE! Membrane UpperLeaflet>POPC=1.0 LowerLeaflet>POPC=1.0
248712
    1AU     AUC    1  28.023  27.073   7.535
    1AU     AUC    2  28.275  27.078   7.369
    1AU     AUC    3  28.264  27.065   7.699
    1AU     AUC    4  27.753  27.081   7.380
    1AU     AUC    5  27.779  27.110   7.705
    1AU     AUC    6  27.862  27.326   7.513
    1AU     AUC    7  28.209  27.338   7.516
    1AU     AUC    8  27.844  26.819   7.543
    1AU     AUC    9  28.175  26.797   7.545
    1AU     AUC   10  28.017  26.913   7.798
    1AU     AUC   11  28.036  27.253   7.779
    1AU     AUC   12  28.010  26.900   7.287
    1AU     AUC   13  28.030  27.206   7.271
    1AU     AUC   14  28.578  27.069   7.204
    1AU     AUC   15  28.586  27.049   7.545
    1AU     AUC   16  28.544  27.036   7.899
    1AU     AUC   17  27.451  27.055   7.228
    1AU     AUC   18  27.450  27.114   7.556
    1AU     AUC   19  27.479  27.153   7.888
    1AU     AUC   20  27.697  27.639   7.474
    1AU     AUC   21  28.057  27.613   7.457
    1AU     AUC   22  28.423  27.601   7.487
    1AU     AUC   23  27.640  26.530   7.548
    1AU     AUC   24  27.991  26.506   7.529
    1AU     AUC   25  28.347  26.495   7.546
    1AU     AUC   26  27.976  26.747   8.101
    1AU     AUC   27  28.013  27.089   8.101
    1AU     AUC   28  28.070  27.453   8.062
    1AU     AUC   29  28.041  26.710   6.997
    1AU     AUC   30  27.989  27.051   6.973
    1AU     AUC   31  27.986  27.374   6.957
    1AU     AUC   32  28.258  26.851   8.012
    1AU     AUC   33  28.314  27.227   7.987
    1AU     AUC   34  28.313  26.913   7.072
    1AU     AUC   35  28.278  27.225   7.079
    1AU     AUC   36  27.724  26.971   8.000
    1AU     AUC   37  27.771  27.321   7.971
    1AU     AUC   38  27.735  26.870   7.103
    1AU     AUC   39  27.689  27.198   7.083
    1AU     AUC   40  28.516  27.341   7.346
    1AU     AUC   41  28.482  27.338   7.705
    1AU     AUC   42  27.557  27.353   7.383
    1AU     AUC   43  27.602  27.419   7.713
    1AU     AUC   44  28.479  26.790   7.407
    1AU     AUC   45  28.427  26.744   7.739
    1AU     AUC   46  27.558  26.767   7.373
    1AU     AUC   47  27.584  26.841   7.716
    1AU     AUC   48  27.922  27.571   7.782
    1AU     AUC   49  28.261  27.526   7.793
    1AU     AUC   50  27.809  26.638   7.817
    1AU     AUC   51  28.127  26.585   7.809
    1AU     AUC   52  27.832  27.504   7.215
    1AU     AUC   53  28.197  27.520   7.226
    1AU     AUC   54  27.863  26.606   7.258
    1AU     AUC   55  28.223  26.651   7.274
    1AU    AUSL   56  28.522  26.941   8.316
    1AU    AUSL   57  28.272  26.568   8.222
    1AU     AUL   58  28.579  26.569   8.389
    1AU    AUSL   59  28.107  26.883   8.460
    1AU    AUSL   60  27.869  27.292   8.451
    1AU     AUL   61  28.105  27.167   8.710
    1AU    AUSL   62  28.206  27.240   8.204
    1AU    AUSL   63  28.657  27.299   8.126
    1AU     AUL   64  28.475  27.264   8.435
    1AU    AUSL   65  28.430  27.101   6.840
    1AU    AUSL   66  28.291  27.497   6.981
    1AU     AUL   67  28.505  27.429   6.681
    1AU    AUSL   68  28.242  26.779   6.612
    1AU    AUSL   69  28.749  26.849   6.982
    1AU     AUL   70  28.617  26.923   6.665
    1AU    AUSL   71  28.074  27.283   6.670
    1AU    AUSL   72  27.896  26.897   6.829
    1AU     AUL   73  28.027  26.976   6.524
    1AU    AUSL   74  27.485  27.254   8.243
    1AU    AUSL   75  27.848  27.563   8.111
    1AU     AUL   76  27.685  27.531   8.412
    1AU    AUSL   77  27.786  26.941   8.191
    1AU    AUSL   78  27.337  26.864   8.105
    1AU     AUL   79  27.394  26.953   8.341
    1AU    AUSL   80  27.460  26.879   6.795
    1AU    AUSL   81  27.709  26.529   6.947
    1AU     AUL   82  27.733  26.615   6.641
    1AU    AUSL   83  27.646  27.247   6.675
    1AU    AUSL   84  27.366  27.228   7.050
    1AU     AUL   85  27.249  27.109   6.776
    1AU    AUSL   86  28.814  27.536   7.476
    1AU    AUSL   87  28.689  27.326   7.096
    1AU     AUL   88  28.984  27.531   7.128
    1AU    AUSL   89  28.979  27.140   7.367
    1AU    AUSL   90  28.928  26.842   7.768
    1AU     AUL   91  29.190  26.926   7.571
    1AU    AUSL   92  28.701  27.195   7.718
    1AU    AUSL   93  28.659  27.639   7.853
    1AU     AUL   94  28.907  27.379   7.878
    1AU    AUSL   95  27.448  27.716   7.522
    1AU    AUSL   96  27.485  27.468   7.878
    1AU     AUL   97  27.176  27.713   7.745
    1AU    AUSL   98  27.247  27.337   7.444
    1AU    AUSL   99  27.400  27.653   7.106
    1AU     AUL  100  27.164  27.578   7.263
    1AU    AUSL  101  27.120  27.259   7.888
    1AU    AUSL  102  27.087  26.953   7.349
    1AU     AUL  103  26.965  27.270   7.590
    1AU    AUSL  104  28.706  26.493   7.615
    1AU    AUSL  105  28.532  26.776   7.925
    1AU     AUL  106  28.839  26.682   8.001
    1AU    AUSL  107  28.664  26.863   7.397
    1AU    AUSL  108  28.654  26.461   7.188
    1AU     AUL  109  28.898  26.671   7.250
    1AU    AUSL  110  27.240  26.574   7.553
    1AU    AUSL  111  27.451  26.784   7.205
    1AU     AUL  112  27.101  26.677   7.213
    1AU    AUSL  113  27.357  26.975   7.694
    1AU    AUSL  114  27.547  26.591   7.849
    1AU     AUL  115  27.166  26.744   7.848
    1AU    AUSL  116  28.089  27.899   7.966
    1AU    AUSL  117  27.634  27.878   7.878
    1AU     AUL  118  27.856  27.923   8.194
    1AU    AUSL  119  27.921  27.754   7.591
    1AU    AUSL  120  28.172  27.887   7.247
    1AU     AUL  121  27.941  28.094   7.554
    1AU    AUSL  122  28.359  27.830   7.623
    1AU    AUSL  123  28.353  27.629   8.153
    1AU     AUL  124  28.472  27.919   7.941
    1AU    AUSL  125  27.947  26.433   7.970
    1AU    AUSL  126  28.371  26.374   7.849
    1AU     AUL  127  28.132  26.312   8.223
    1AU    AUSL  128  27.639  26.211   7.699
    1AU    AUSL  129  27.667  26.548   8.274
    1AU     AUL  130  27.675  26.250   8.050
    1AU    AUSL  131  28.071  26.136   7.667
    1AU    AUSL  132  27.864  26.381   7.362
    1AU     AUL  133  27.747  26.036   7.487
    1AU    AUSL  134  27.999  27.772   6.843
    1AU    AUSL  135  28.571  27.750   7.199
    1AU     AUL  136  28.315  27.860   6.936
    1AU    AUSL  137  27.750  27.866   7.210
    1AU    AUSL  138  27.773  27.455   7.014
    1AU     AUL  139  27.680  27.761   6.856
    1AU    AUSL  140  28.089  26.329   6.981
    1AU    AUSL  141  27.456  26.343   7.258
    1AU     AUL  142  27.752  26.195   7.043
    1AU    AUSL  143  28.296  26.353   7.381
    1AU    AUSL  144  28.319  26.686   7.018
    1AU     AUL  145  28.413  26.313   7.050
    1AU       S  146  28.544  26.118   8.227
    1AU     LIG  147  28.591  25.884   8.352
    1AU     LIG  148  28.713  25.724   8.479
    1AU     LIG  149  28.871  25.547   8.590
    1AU       S  150  28.578  26.908   8.719
    1AU     LIG  151  28.741  26.966   8.921
    1AU     LIG  152  28.831  27.022   9.146
    1AU     LIG  153  28.937  26.989   9.383
    1AU       S  154  28.256  26.715   8.725
    1AU     LIG  155  28.312  26.621   9.005
    1AU     LIG  156  28.478  26.637   9.203
    1AU     LIG  157  28.612  26.592   9.419
    1AU       S  158  27.631  27.205   8.757
    1AU     LIG  159  27.594  27.229   9.059
    1AU     LIG  160  27.476  27.214   9.261
    1AU     LIG  161  27.328  27.191   9.479
    1AU       S  162  28.156  27.639   8.566
    1AU     LIG  163  28.273  27.776   8.771
    1AU     LIG  164  28.486  27.696   8.933
    1AU     LIG  165  28.709  27.570   8.947
    1AU       S  166  28.848  27.531   8.334
    1AU     LIG  167  29.031  27.571   8.555
    1AU     LIG  168  29.171  27.728   8.669
    1AU     LIG  169  29.347  27.904   8.744
    1AU       S  170  28.449  27.160   6.306
    1AU     LIG  171  28.664  27.215   6.093
    1AU     LIG  172  28.798  27.049   5.955
    1AU     LIG  173  28.858  26.858   5.795
    1AU       S  174  28.664  27.860   6.652
    1AU     LIG  175  28.710  28.053   6.462
    1AU     LIG  176  28.873  28.143   6.288
    1AU     LIG  177  29.038  28.234   6.123
    1AU       S  178  28.924  26.571   6.768
    1AU     LIG  179  29.086  26.484   6.527
    1AU     LIG  180  29.100  26.265   6.388
    1AU     LIG  181  29.116  26.010   6.348
    1AU       S  182  28.370  26.865   6.240
    1AU     LIG  183  28.392  26.741   6.011
    1AU     LIG  184  28.379  26.668   5.771
    1AU     LIG  185  28.450  26.648   5.521
    1AU       S  186  27.636  26.925   6.303
    1AU     LIG  187  27.691  26.892   6.024
    1AU     LIG  188  27.697  26.838   5.795
    1AU     LIG  189  27.621  26.797   5.540
    1AU       S  190  28.206  27.306   6.264
    1AU     LIG  191  28.107  27.240   5.973
    1AU     LIG  192  28.249  27.165   5.780
    1AU     LIG  193  28.442  27.157   5.607
    1AU       S  194  27.355  27.293   8.643
    1AU     LIG  195  27.144  27.268   8.819
    1AU     LIG  196  27.090  27.052   8.977
    1AU     LIG  197  27.020  26.920   9.166
    1AU       S  198  27.386  27.851   8.268
    1AU     LIG  199  27.300  28.006   8.501
    1AU     LIG  200  27.159  28.017   8.694
    1AU     LIG  201  26.990  28.106   8.877
    1AU       S  202  27.109  26.585   8.284
    1AU     LIG  203  26.863  26.516   8.381
    1AU     LIG  204  26.718  26.324   8.457
    1AU     LIG  205  26.591  26.142   8.575
    1AU       S  206  27.680  26.913   8.684
    1AU     LIG  207  27.603  26.737   8.887
    1AU     LIG  208  27.490  26.717   9.105
    1AU     LIG  209  27.445  26.703   9.361
    1AU       S  210  27.374  26.837   6.418
    1AU     LIG  211  27.195  26.767   6.208
    1AU     LIG  212  27.184  26.838   5.957
    1AU     LIG  213  27.172  26.948   5.737
    1AU       S  214  27.408  26.289   6.745
    1AU     LIG  215  27.334  26.102   6.540
    1AU     LIG  216  27.176  26.060   6.354
    1AU     LIG  217  26.992  26.011   6.184
    1AU       S  218  27.038  27.515   6.798
    1AU     LIG  219  26.831  27.684   6.744
    1AU     LIG  220  26.779  27.883   6.588
    1AU     LIG  221  26.755  28.006   6.367
    1AU       S  222  27.536  27.193   6.393
    1AU     LIG  223  27.369  27.294   6.139
    1AU     LIG  224  27.452  27.331   5.913
    1AU     LIG  225  27.560  27.311   5.679
    1AU       S  226  28.895  27.674   6.708
    1AU     LIG  227  29.110  27.720   6.537
    1AU     LIG  228  29.267  27.832   6.389
    1AU     LIG  229  29.448  27.951   6.245
    1AU       S  230  29.147  27.650   7.556
    1AU     LIG  231  29.360  27.854   7.540
    1AU     LIG  232  29.604  27.898   7.511
    1AU     LIG  233  29.857  27.961   7.532
    1AU       S  234  29.323  27.351   7.388
    1AU     LIG  235  29.592  27.422   7.293
    1AU     LIG  236  29.832  27.488   7.306
    1AU     LIG  237  30.054  27.602   7.226
    1AU       S  238  29.187  26.472   7.790
    1AU     LIG  239  29.422  26.370   7.920
    1AU     LIG  240  29.675  26.365   7.859
    1AU     LIG  241  29.924  26.333   7.780
    1AU       S  242  28.884  27.779   8.127
    1AU     LIG  243  29.079  27.956   8.210
    1AU     LIG  244  29.124  28.155   8.357
    1AU     LIG  245  29.143  28.334   8.540
    1AU       S  246  29.294  27.383   7.663
    1AU     LIG  247  29.532  27.454   7.814
    1AU     LIG  248  29.769  27.521   7.811
    1AU     LIG  249  29.999  27.611   7.878
    1AU       S  250  27.220  27.628   8.203
    1AU     LIG  251  26.981  27.620   8.380
    1AU     LIG  252  26.795  27.759   8.444
    1AU     LIG  253  26.619  27.878   8.594
    1AU       S  254  27.387  28.052   7.463
    1AU     LIG  255  27.227  28.260   7.335
    1AU     LIG  256  26.981  28.240   7.239
    1AU     LIG  257  26.793  28.083   7.123
    1AU       S  258  26.823  27.271   7.139
    1AU     LIG  259  26.585  27.276   7.071
    1AU     LIG  260  26.330  27.352   7.141
    1AU     LIG  261  26.185  27.565   7.163
    1AU       S  262  27.253  27.925   6.929
    1AU     LIG  263  27.180  28.133   6.787
    1AU     LIG  264  27.038  28.312   6.702
    1AU     LIG  265  26.907  28.467   6.537
    1AU       S  266  26.734  26.867   7.449
    1AU     LIG  267  26.457  26.857   7.337
    1AU     LIG  268  26.214  26.839   7.332
    1AU     LIG  269  25.980  26.718   7.284
    1AU       S  270  26.925  27.186   8.097
    1AU     LIG  271  26.612  27.290   8.182
    1AU     LIG  272  26.495  27.502   8.094
    1AU     LIG  273  26.315  27.649   7.968
    1AU       S  274  28.917  26.302   7.606
    1AU     LIG  275  29.051  26.000   7.622
    1AU     LIG  276  29.279  25.934   7.697
    1AU     LIG  277  29.550  25.920   7.655
    1AU       S  278  28.761  26.241   8.066
    1AU     LIG  279  29.008  26.105   8.105
    1AU     LIG  280  29.138  26.017   8.287
    1AU     LIG  281  29.185  25.947   8.537
    1AU       S  282  29.174  26.452   7.519
    1AU     LIG  283  29.397  26.330   7.383
    1AU     LIG  284  29.638  26.331   7.343
    1AU     LIG  285  29.879  26.259   7.280
    1AU       S  286  28.866  26.309   6.925
    1AU     LIG  287  28.931  26.049   6.822
    1AU     LIG  288  28.804  25.826   6.774
    1AU     LIG  289  28.763  25.607   6.659
    1AU       S  290  27.231  26.484   6.817
    1AU     LIG  291  26.998  26.494   6.620
    1AU     LIG  292  26.821  26.377   6.527
    1AU     LIG  293  26.615  26.219   6.465
    1AU       S  294  26.816  26.576   7.583
    1AU     LIG  295  26.599  26.410   7.588
    1AU     LIG  296  26.372  26.362   7.482
    1AU     LIG  297  26.139  26.258   7.441
    1AU       S  298  27.228  26.355   8.082
    1AU     LIG  299  27.052  26.147   8.068
    1AU     LIG  300  26.932  25.961   8.174
    1AU     LIG  301  26.799  25.775   8.287
    1AU       S  302  26.758  26.871   7.713
    1AU     LIG  303  26.524  26.843   7.888
    1AU     LIG  304  26.285  26.751   7.835
    1AU     LIG  305  26.076  26.616   7.809
    1AU       S  306  27.427  28.070   7.989
    1AU     LIG  307  27.192  28.259   8.062
    1AU     LIG  308  26.967  28.222   8.206
    1AU     LIG  309  26.835  28.299   8.412
    1AU       S  310  28.170  28.256   8.053
    1AU     LIG  311  28.281  28.443   8.255
    1AU     LIG  312  28.169  28.633   8.380
    1AU     LIG  313  28.024  28.834   8.444
    1AU       S  314  27.932  28.391   7.925
    1AU     LIG  315  27.843  28.616   7.968
    1AU     LIG  316  27.817  28.875   7.984
    1AU     LIG  317  27.826  29.126   8.012
    1AU       S  318  28.097  28.234   7.131
    1AU     LIG  319  28.163  28.503   7.146
    1AU     LIG  320  28.197  28.735   7.130
    1AU     LIG  321  28.260  28.978   7.042
    1AU       S  322  28.607  27.746   8.364
    1AU     LIG  323  28.682  27.965   8.543
    1AU     LIG  324  28.783  28.046   8.736
    1AU     LIG  325  28.909  28.064   8.967
    1AU       S  326  28.309  28.307   7.734
    1AU     LIG  327  28.341  28.580   7.718
    1AU     LIG  328  28.316  28.790   7.875
    1AU     LIG  329  28.328  28.974   8.040
    1AU       S  330  28.030  25.897   8.062
    1AU     LIG  331  28.149  25.691   8.213
    1AU     LIG  332  28.137  25.484   8.334
    1AU     LIG  333  28.118  25.247   8.434
    1AU       S  334  28.513  26.130   7.902
    1AU     LIG  335  28.617  25.826   7.827
    1AU     LIG  336  28.777  25.692   7.925
    1AU     LIG  337  28.989  25.592   8.057
    1AU       S  338  27.778  25.811   7.896
    1AU     LIG  339  27.729  25.544   7.918
    1AU     LIG  340  27.751  25.326   8.033
    1AU     LIG  341  27.741  25.088   8.129
    1AU       S  342  27.372  26.437   8.386
    1AU     LIG  343  27.245  26.219   8.570
    1AU     LIG  344  27.108  26.045   8.640
    1AU     LIG  345  26.971  25.851   8.762
    1AU       S  346  28.096  25.907   7.221
    1AU     LIG  347  28.035  25.579   7.210
    1AU     LIG  348  28.020  25.383   7.090
    1AU     LIG  349  28.020  25.116   7.027
    1AU       S  350  28.110  25.860   7.758
    1AU     LIG  351  28.210  25.558   7.712
    1AU     LIG  352  28.223  25.361   7.838
    1AU     LIG  353  28.217  25.115   7.941
    1AU       S  354  27.949  28.154   6.835
    1AU     LIG  355  27.955  28.383   6.681
    1AU     LIG  356  28.078  28.599   6.641
    1AU     LIG  357  28.144  28.833   6.564
    1AU       S  358  28.788  27.930   6.958
    1AU     LIG  359  28.986  28.134   6.901
    1AU     LIG  360  29.145  28.208   6.721
    1AU     LIG  361  29.293  28.330   6.558
    1AU       S  362  27.746  28.175   7.112
    1AU     LIG  363  27.634  28.453   7.085
    1AU     LIG  364  27.691  28.679   6.998
    1AU     LIG  365  27.765  28.904   6.907
    1AU       S  366  27.308  27.585   6.654
    1AU     LIG  367  27.248  27.720   6.415
    1AU     LIG  368  27.258  27.950   6.319
    1AU     LIG  369  27.231  28.189   6.239
    1AU       S  370  27.253  26.253   7.029
    1AU     LIG  371  26.996  26.080   6.950
    1AU     LIG  372  26.909  25.938   6.784
    1AU     LIG  373  26.823  25.765   6.606
    1AU       S  374  28.166  25.946   6.941
    1AU     LIG  375  28.283  25.767   6.769
    1AU     LIG  376  28.256  25.557   6.646
    1AU     LIG  377  28.180  25.319   6.582
    1AU       S  378  28.359  25.947   7.324
    1AU     LIG  379  28.523  25.706   7.293
    1AU     LIG  380  28.530  25.500   7.128
    1AU     LIG  381  28.515  25.283   6.984
    1AU       S  382  28.620  26.456   6.673
    1AU     LIG  383  28.606  26.278   6.470
    1AU     LIG  384  28.596  26.050   6.376
    1AU     LIG  385  28.647  25.847   6.221
    2AU     AUC  386  12.453  25.730   7.535
    2AU     AUC  387  12.705  25.735   7.369
    2AU     AUC  388  12.694  25.722   7.699
    2AU     AUC  389  12.183  25.738   7.380
    2AU     AUC  390  12.209  25.767   7.705
    2AU     AUC  391  12.292  25.983   7.513
    2AU     AUC  392  12.639  25.995   7.516
    2AU     AUC  393  12.274  25.476   7.543
    2AU     AUC  394  12.605  25.454   7.545
    2AU     AUC  395  12.447  25.570   7.798
    2AU     AUC  396  12.466  25.910   7.779
    2AU     AUC  397  12.440  25.557   7.287
    2AU     AUC  398  12.460  25.863   7.271
    2AU     AUC  399  13.008  25.726   7.204
    2AU     AUC  400  13.016  25.706   7.545
    2AU     AUC  401  12.974  25.693   7.899
    2AU     AUC  402  11.881  25.712   7.228
    2AU     AUC  403  11.880  25.771   7.556
    2AU     AUC  404  11.909  25.810   7.888
    2AU     AUC  405  12.127  26.296   7.474
    2AU     AUC  406  12.487  26.270   7.457
    2AU     AUC  407  12.853  26.258   7.487
    2AU     AUC  408  12.070  25.187   7.548
    2AU     AUC  409  12.421  25.163   7.529
    2AU     AUC  410  12.777  25.152   7.546
    2AU     AUC  411  12.406  25.404   8.101
    2AU     AUC  412  12.443  25.746   8.101
    2AU     AUC  413  12.500  26.110   8.062
    2AU     AUC  414  12.471  25.367   6.997
    2AU     AUC  415  12.419  25.708   6.973
    2AU     AUC  416  12.416  26.031   6.957
    2AU     AUC  417  12.688  25.508   8.012
    2AU     AUC  418  12.744  25.884   7.987
    2AU     AUC  419  12.743  25.570   7.072
    2AU     AUC  420  12.708  25.882   7.079
    2AU     AUC  421  12.154  25.628   8.000
    2AU     AUC  422  12.201  25.978   7.971
    2AU     AUC  423  12.165  25.527   7.103
    2AU     AUC  424  12.119  25.855   7.083
    2AU     AUC  425  12.946  25.998   7.346
    2AU     AUC  426  12.912  25.995   7.705
    2AU     AUC  427  11.987  26.010   7.383
    2AU     AUC  428  12.032  26.076   7.713
    2AU     AUC  429  12.909  25.447   7.407
    2AU     AUC  430  12.857  25.401   7.739
    2AU     AUC  431  11.988  25.424   7.373
    2AU     AUC  432  12.014  25.498   7.716
    2AU     AUC  433  12.352  26.228   7.782
    2AU     AUC  434  12.691  26.183   7.793
    2AU     AUC  435  12.239  25.295   7.817
    2AU     AUC  436  12.557  25.242   7.809
    2AU     AUC  437  12.262  26.161   7.215
    2AU     AUC  438  12.627  26.177   7.226
    2AU     AUC  439  12.293  25.263   7.258
    2AU     AUC  440  12.653  25.308   7.274
    2AU    AUSL  441  12.952  25.598   8.316
    2AU    AUSL  442  12.702  25.225   8.222
    2AU     AUL  443  13.009  25.226   8.389
    2AU    AUSL  444  12.537  25.540   8.460
    2AU    AUSL  445  12.299  25.949   8.451
    2AU     AUL  446  12.535  25.824   8.710
    2AU    AUSL  447  12.636  25.897   8.204
    2AU    AUSL  448  13.087  25.956   8.126
    2AU     AUL  449  12.905  25.921   8.435
    2AU    AUSL  450  12.860  25.758   6.840
    2AU    AUSL  451  12.721  26.154   6.981
    2AU     AUL  452  12.935  26.086   6.681
    2AU    AUSL  453  12.672  25.436   6.612
    2AU    AUSL  454  13.179  25.506   6.982
    2AU     AUL  455  13.047  25.580   6.665
    2AU    AUSL  456  12.504  25.940   6.670
    2AU    AUSL  457  12.326  25.554   6.829
    2AU     AUL  458  12.457  25.633   6.524
    2AU    AUSL  459  11.915  25.911   8.243
    2AU    AUSL  460  12.278  26.220   8.111
    2AU     AUL  461  12.115  26.188   8.412
    2AU    AUSL  462  12.216  25.598   8.191
    2AU    AUSL  463  11.767  25.521   8.105
    2AU     AUL  464  11.824  25.610   8.341
    2AU    AUSL  465  11.890  25.536   6.795
    2AU    AUSL  466  12.139  25.186   6.947
    2AU     AUL  467  12.163  25.272   6.641
    2AU    AUSL  468  12.076  25.904   6.675
    2AU    AUSL  469  11.796  25.885   7.050
    2AU     AUL  470  11.679  25.766   6.776
    2AU    AUSL  471  13.244  26.193   7.476
    2AU    AUSL  472  13.119  25.983   7.096
    2AU     AUL  473  13.414  26.188   7.128
    2AU    AUSL  474  13.409  25.797   7.367
    2AU    AUSL  475  13.358  25.499   7.768
    2AU     AUL  476  13.620  25.583   7.571
    2AU    AUSL  477  13.131  25.852   7.718
    2AU    AUSL  478  13.089  26.296   7.853
    2AU     AUL  479  13.337  26.036   7.878
    2AU    AUSL  480  11.878  26.373   7.522
    2AU    AUSL  481  11.915  26.125   7.878
    2AU     AUL  482  11.606  26.370   7.745
    2AU    AUSL  483  11.677  25.994   7.444
    2AU    AUSL  484  11.830  26.310   7.106
    2AU     AUL  485  11.594  26.235   7.263
    2AU    AUSL  486  11.550  25.916   7.888
    2AU    AUSL  487  11.517  25.610   7.349
    2AU     AUL  488  11.395  25.927   7.590
    2AU    AUSL  489  13.136  25.150   7.615
    2AU    AUSL  490  12.962  25.433   7.925
    2AU     AUL  491  13.269  25.339   8.001
    2AU    AUSL  492  13.094  25.520   7.397
    2AU    AUSL  493  13.084  25.118   7.188
    2AU     AUL  494  13.328  25.328   7.250
    2AU    AUSL  495  11.670  25.231   7.553
    2AU    AUSL  496  11.881  25.441   7.205
    2AU     AUL  497  11.531  25.334   7.213
    2AU    AUSL  498  11.787  25.632   7.694
    2AU    AUSL  499  11.977  25.248   7.849
    2AU     AUL  500  11.596  25.401   7.848
    2AU    AUSL  501  12.519  26.556   7.966
    2AU    AUSL  502  12.064  26.535   7.878
    2AU     AUL  503  12.286  26.580   8.194
    2AU    AUSL  504  12.351  26.411   7.591
    2AU    AUSL  505  12.602  26.544   7.247
    2AU     AUL  506  12.371  26.751   7.554
    2AU    AUSL  507  12.789  26.487   7.623
    2AU    AUSL  508  12.783  26.286   8.153
    2AU     AUL  509  12.902  26.576   7.941
    2AU    AUSL  510  12.377  25.090   7.970
    2AU    AUSL  511  12.801  25.031   7.849
    2AU     AUL  512  12.562  24.969   8.223
    2AU    AUSL  513  12.069  24.868   7.699
    2AU    AUSL  514  12.097  25.205   8.274
    2AU     AUL  515  12.105  24.907   8.050
    2AU    AUSL  516  12.501  24.793   7.667
    2AU    AUSL  517  12.294  25.038   7.362
    2AU     AUL  518  12.177  24.693   7.487
    2AU    AUSL  519  12.429  26.429   6.843
    2AU    AUSL  520  13.001  26.407   7.199
    2AU     AUL  521  12.745  26.517   6.936
    2AU    AUSL  522  12.180  26.523   7.210
    2AU    AUSL  523  12.203  26.112   7.014
    2AU     AUL  524  12.110  26.418   6.856
    2AU    AUSL  525  12.519  24.986   6.981
    2AU    AUSL  526  11.886  25.000   7.258
    2AU     AUL  527  12.182  24.852   7.043
    2AU    AUSL  528  12.726  25.010   7.381
    2AU    AUSL  529  12.749  25.343   7.018
    2AU     AUL  530  12.843  24.970   7.050
    2AU       S  531  12.974  24.775   8.227
    2AU     LIG  532  13.021  24.541   8.352
    2AU     LIG  533  13.143  24.381   8.479
    2AU     LIG  534  13.301  24.204   8.590
    2AU       S  535  13.008  25.565   8.719
    2AU     LIG  536  13.171  25.623   8.921
    2AU     LIG  537  13.261  25.679   9.146
    2AU     LIG  538  13.367  25.646   9.383
    2AU       S  539  12.686  25.372   8.725
    2AU     LIG  540  12.742  25.278   9.005
    2AU     LIG  541  12.908  25.294   9.203
    2AU     LIG  542  13.042  25.249   9.419
    2AU       S  543  12.061  25.862   8.757
    2AU     LIG  544  12.024  25.886   9.059
    2AU     LIG  545  11.906  25.871   9.261
    2AU     LIG  546  11.758  25.848   9.479
    2AU       S  547  12.586  26.296   8.566
    2AU     LIG  548  12.703  26.433   8.771
    2AU     LIG  549  12.916  26.353   8.933
    2AU     LIG  550  13.139  26.227   8.947
    2AU       S  551  13.278  26.188   8.334
    2AU     LIG  552  13.461  26.228   8.555
    2AU     LIG  553  13.601  26.385   8.669
    2AU     LIG  554  13.777  26.561   8.744
    2AU       S  555  12.879  25.817   6.306
    2AU     LIG  556  13.094  25.872   6.093
    2AU     LIG  557  13.228  25.706   5.955
    2AU     LIG  558  13.288  25.515   5.795
    2AU       S  559  13.094  26.517   6.652
    2AU     LIG  560  13.140  26.710   6.462
    2AU     LIG  561  13.303  26.800   6.288
    2AU     LIG  562  13.468  26.891   6.123
    2AU       S  563  13.354  25.228   6.768
    2AU     LIG  564  13.516  25.141   6.527
    2AU     LIG  565  13.530  24.922   6.388
    2AU     LIG  566  13.546  24.667   6.348
    2AU       S  567  12.800  25.522   6.240
    2AU     LIG  568  12.822  25.398   6.011
    2AU     LIG  569  12.809  25.325   5.771
    2AU     LIG  570  12.880  25.305   5.521
    2AU       S  571  12.066  25.582   6.303
    2AU     LIG  572  12.121  25.549   6.024
    2AU     LIG  573  12.127  25.495   5.795
    2AU     LIG  574  12.051  25.454   5.540
    2AU       S  575  12.636  25.963   6.264
    2AU     LIG  576  12.537  25.897   5.973
    2AU     LIG  577  12.679  25.822   5.780
    2AU     LIG  578  12.872  25.814   5.607
    2AU       S  579  11.785  25.950   8.643
    2AU     LIG  580  11.574  25.925   8.819
    2AU     LIG  581  11.520  25.709   8.977
    2AU     LIG  582  11.450  25.577   9.166
    2AU       S  583  11.816  26.508   8.268
    2AU     LIG  584  11.730  26.663   8.501
    2AU     LIG  585  11.589  26.674   8.694
    2AU     LIG  586  11.420  26.763   8.877
    2AU       S  587  11.539  25.242   8.284
    2AU     LIG  588  11.293  25.173   8.381
    2AU     LIG  589  11.148  24.981   8.457
    2AU     LIG  590  11.021  24.799   8.575
    2AU       S  591  12.110  25.570   8.684
    2AU     LIG  592  12.033  25.394   8.887
    2AU     LIG  593  11.920  25.374   9.105
    2AU     LIG  594  11.875  25.360   9.361
    2AU       S  595  11.804  25.494   6.418
    2AU     LIG  596  11.625  25.424   6.208
    2AU     LIG  597  11.614  25.495   5.957
    2AU     LIG  598  11.602  25.605   5.737
    2AU       S  599  11.838  24.946   6.745
    2AU     LIG  600  11.764  24.759   6.540
    2AU     LIG  601  11.606  24.717   6.354
    2AU     LIG  602  11.422  24.668   6.184
    2AU       S  603  11.468  26.172   6.798
    2AU     LIG  604  11.261  26.341   6.744
    2AU     LIG  605  11.209  26.540   6.588
    2AU     LIG  606  11.185  26.663   6.367
    2AU       S  607  11.966  25.850   6.393
    2AU     LIG  608  11.799  25.951   6.139
    2AU     LIG  609  11.882  25.988   5.913
    2AU     LIG  610  11.990  25.968   5.679
    2AU       S  611  13.325  26.331   6.708
    2AU     LIG  612  13.540  26.377   6.537
    2AU     LIG  613  13.697  26.489   6.389
    2AU     LIG  614  13.878  26.608   6.245
    2AU       S  615  13.577  26.307   7.556
    2AU     LIG  616  13.790  26.511   7.540
    2AU     LIG  617  14.034  26.555   7.511
    2AU     LIG  618  14.287  26.618   7.532
    2AU       S  619  13.753  26.008   7.388
    2AU     LIG  620  14.022  26.079   7.293
    2AU     LIG  621  14.262  26.145   7.306
    2AU     LIG  622  14.484  26.259   7.226
    2AU       S  623  13.617  25.129   7.790
    2AU     LIG  624  13.852  25.027   7.920
    2AU     LIG  625  14.105  25.022   7.859
    2AU     LIG  626  14.354  24.990   7.780
    2AU       S  627  13.314  26.436   8.127
    2AU     LIG  628  13.509  26.613   8.210
    2AU     LIG  629  13.554  26.812   8.357
    2AU     LIG  630  13.573  26.991   8.540
    2AU       S  631  13.724  26.040   7.663
    2AU     LIG  632  13.962  26.111   7.814
    2AU     LIG  633  14.199  26.178   7.811
    2AU     LIG  634  14.429  26.268   7.878
    2AU       S  635  11.650  26.285   8.203
    2AU     LIG  636  11.411  26.277   8.380
    2AU     LIG  637  11.225  26.416   8.444
    2AU     LIG  638  11.049  26.535   8.594
    2AU       S  639  11.817  26.709   7.463
    2AU     LIG  640  11.657  26.917   7.335
    2AU     LIG  641  11.411  26.897   7.239
    2AU     LIG  642  11.223  26.740   7.123
    2AU       S  643  11.253  25.928   7.139
    2AU     LIG  644  11.015  25.933   7.071
    2AU     LIG  645  10.760  26.009   7.141
    2AU     LIG  646  10.615  26.222   7.163
    2AU       S  647  11.683  26.582   6.929
    2AU     LIG  648  11.610  26.790   6.787
    2AU     LIG  649  11.468  26.969   6.702
    2AU     LIG  650  11.337  27.124   6.537
    2AU       S  651  11.164  25.524   7.449
    2AU     LIG  652  10.887  25.514   7.337
    2AU     LIG  653  10.644  25.496   7.332
    2AU     LIG  654  10.410  25.375   7.284
    2AU       S  655  11.355  25.843   8.097
    2AU     LIG  656  11.042  25.947   8.182
    2AU     LIG  657  10.925  26.159   8.094
    2AU     LIG  658  10.745  26.306   7.968
    2AU       S  659  13.347  24.959   7.606
    2AU     LIG  660  13.481  24.657   7.622
    2AU     LIG  661  13.709  24.591   7.697
    2AU     LIG  662  13.980  24.577   7.655
    2AU       S  663  13.191  24.898   8.066
    2AU     LIG  664  13.438  24.762   8.105
    2AU     LIG  665  13.568  24.674   8.287
    2AU     LIG  666  13.615  24.604   8.537
    2AU       S  667  13.604  25.109   7.519
    2AU     LIG  668  13.827  24.987   7.383
    2AU     LIG  669  14.068  24.988   7.343
    2AU     LIG  670  14.309  24.916   7.280
    2AU       S  671  13.296  24.966   6.925
    2AU     LIG  672  13.361  24.706   6.822
    2AU     LIG  673  13.234  24.483   6.774
    2AU     LIG  674  13.193  24.264   6.659
    2AU       S  675  11.661  25.141   6.817
    2AU     LIG  676  11.428  25.151   6.620
    2AU     LIG  677  11.251  25.034   6.527
    2AU     LIG  678  11.045  24.876   6.465
    2AU       S  679  11.246  25.233   7.583
    2AU     LIG  680  11.029  25.067   7.588
    2AU     LIG  681  10.802  25.019   7.482
    2AU     LIG  682  10.569  24.915   7.441
    2AU       S  683  11.658  25.012   8.082
    2AU     LIG  684  11.482  24.804   8.068
    2AU     LIG  685  11.362  24.618   8.174
    2AU     LIG  686  11.229  24.432   8.287
    2AU       S  687  11.188  25.528   7.713
    2AU     LIG  688  10.954  25.500   7.888
    2AU     LIG  689  10.715  25.408   7.835
    2AU     LIG  690  10.506  25.273   7.809
    2AU       S  691  11.857  26.727   7.989
    2AU     LIG  692  11.622  26.916   8.062
    2AU     LIG  693  11.397  26.879   8.206
    2AU     LIG  694  11.265  26.956   8.412
    2AU       S  695  12.600  26.913   8.053
    2AU     LIG  696  12.711  27.100   8.255
    2AU     LIG  697  12.599  27.290   8.380
    2AU     LIG  698  12.454  27.491   8.444
    2AU       S  699  12.362  27.048   7.925
    2AU     LIG  700  12.273  27.273   7.968
    2AU     LIG  701  12.247  27.532   7.984
    2AU     LIG  702  12.256  27.783   8.012
    2AU       S  703  12.527  26.891   7.131
    2AU     LIG  704  12.593  27.160   7.146
    2AU     LIG  705  12.627  27.392   7.130
    2AU     LIG  706  12.690  27.635   7.042
    2AU       S  707  13.037  26.403   8.364
    2AU     LIG  708  13.112  26.622   8.543
    2AU     LIG  709  13.213  26.703   8.736
    2AU     LIG  710  13.339  26.721   8.967
    2AU       S  711  12.739  26.964   7.734
    2AU     LIG  712  12.771  27.237   7.718
    2AU     LIG  713  12.746  27.447   7.875
    2AU     LIG  714  12.758  27.631   8.040
    2AU       S  715  12.460  24.554   8.062
    2AU     LIG  716  12.579  24.348   8.213
    2AU     LIG  717  12.567  24.141   8.334
    2AU     LIG  718  12.548  23.904   8.434
    2AU       S  719  12.943  24.787   7.902
    2AU     LIG  720  13.047  24.483   7.827
    2AU     LIG  721  13.207  24.349   7.925
    2AU     LIG  722  13.419  24.249   8.057
    2AU       S  723  12.208  24.468   7.896
    2AU     LIG  724  12.159  24.201   7.918
    2AU     LIG  725  12.181  23.983   8.033
    2AU     LIG  726  12.171  23.745   8.129
    2AU       S  727  11.802  25.094   8.386
    2AU     LIG  728  11.675  24.876   8.570
    2AU     LIG  729  11.538  24.702   8.640
    2AU     LIG  730  11.401  24.508   8.762
    2AU       S  731  12.526  24.564   7.221
    2AU     LIG  732  12.465  24.236   7.210
    2AU     LIG  733  12.450  24.040   7.090
    2AU     LIG  734  12.450  23.773   7.027
    2AU       S  735  12.540  24.517   7.758
    2AU     LIG  736  12.640  24.215   7.712
    2AU     LIG  737  12.653  24.018   7.838
    2AU     LIG  738  12.647  23.772   7.941
    2AU       S  739  12.379  26.811   6.835
    2AU     LIG  740  12.385  27.040   6.681
    2AU     LIG  741  12.508  27.256   6.641
    2AU     LIG  742  12.574  27.490   6.564
    2AU       S  743  13.218  26.587   6.958
    2AU     LIG  744  13.416  26.791   6.901
    2AU     LIG  745  13.575  26.865   6.721
    2AU     LIG  746  13.723  26.987   6.558
    2AU       S  747  12.176  26.832   7.112
    2AU     LIG  748  12.064  27.110   7.085
    2AU     LIG  749  12.121  27.336   6.998
    2AU     LIG  750  12.195  27.561   6.907
    2AU       S  751  11.738  26.242   6.654
    2AU     LIG  752  11.678  26.377   6.415
    2AU     LIG  753  11.688  26.607   6.319
    2AU     LIG  754  11.661  26.846   6.239
    2AU       S  755  11.683  24.910   7.029
    2AU     LIG  756  11.426  24.737   6.950
    2AU     LIG  757  11.339  24.595   6.784
    2AU     LIG  758  11.253  24.422   6.606
    2AU       S  759  12.596  24.603   6.941
    2AU     LIG  760  12.713  24.424   6.769
    2AU     LIG  761  12.686  24.214   6.646
    2AU     LIG  762  12.610  23.976   6.582
    2AU       S  763  12.789  24.604   7.324
    2AU     LIG  764  12.953  24.363   7.293
    2AU     LIG  765  12.960  24.157   7.128
    2AU     LIG  766  12.945  23.940   6.984
    2AU       S  767  13.050  25.113   6.673
    2AU     LIG  768  13.036  24.935   6.470
    2AU     LIG  769  13.026  24.707   6.376
    2AU     LIG  770  13.077  24.504   6.221
    3AU     AUC  771  22.892  38.492   7.535
    3AU     AUC  772  23.144  38.497   7.369
    3AU     AUC  773  23.133  38.484   7.699
    3AU     AUC  774  22.622  38.500   7.380
    3AU     AUC  775  22.648  38.529   7.705
    3AU     AUC  776  22.731  38.745   7.513
    3AU     AUC  777  23.078  38.757   7.516
    3AU     AUC  778  22.713  38.238   7.543
    3AU     AUC  779  23.044  38.216   7.545
    3AU     AUC  780  22.886  38.332   7.798
    3AU     AUC  781  22.905  38.672   7.779
    3AU     AUC  782  22.879  38.319   7.287
    3AU     AUC  783  22.899  38.625   7.271
    3AU     AUC  784  23.447  38.488   7.204
    3AU     AUC  785  23.455  38.468   7.545
    3AU     AUC  786  23.413  38.455   7.899
    3AU     AUC  787  22.320  38.474   7.228
    3AU     AUC  788  22.319  38.533   7.556
    3AU     AUC  789  22.348  38.572   7.888
    3AU     AUC  790  22.566  39.058   7.474
    3AU     AUC  791  22.926  39.032   7.457
    3AU     AUC  792  23.292  39.020   7.487
    3AU     AUC  793  22.509  37.949   7.548
    3AU     AUC  794  22.860  37.925   7.529
    3AU     AUC  795  23.216  37.914   7.546
    3AU     AUC  796  22.845  38.166   8.101
    3AU     AUC  797  22.882  38.508   8.101
    3AU     AUC  798  22.939  38.872   8.062
    3AU     AUC  799  22.910  38.129   6.997
    3AU     AUC  800  22.858  38.470   6.973
    3AU     AUC  801  22.855  38.793   6.957
    3AU     AUC  802  23.127  38.270   8.012
    3AU     AUC  803  23.183  38.646   7.987
    3AU     AUC  804  23.182  38.332   7.072
    3AU     AUC  805  23.147  38.644   7.079
    3AU     AUC  806  22.593  38.390   8.000
    3AU     AUC  807  22.640  38.740   7.971
    3AU     AUC  808  22.604  38.289   7.103
    3AU     AUC  809  22.558  38.617   7.083
    3AU     AUC  810  23.385  38.760   7.346
    3AU     AUC  811  23.351  38.757   7.705
    3AU     AUC  812  22.426  38.772   7.383
    3AU     AUC  813  22.471  38.838   7.713
    3AU     AUC  814  23.348  38.209   7.407
    3AU     AUC  815  23.296  38.163   7.739
    3AU     AUC  816  22.427  38.186   7.373
    3AU     AUC  817  22.453  38.260   7.716
    3AU     AUC  818  22.791  38.990   7.782
    3AU     AUC  819  23.130  38.945   7.793
    3AU     AUC  820  22.678  38.057   7.817
    3AU     AUC  821  22.996  38.004   7.809
    3AU     AUC  822  22.701  38.923   7.215
    3AU     AUC  823  23.066  38.939   7.226
    3AU     AUC  824  22.732  38.025   7.258
    3AU     AUC  825  23.092  38.070   7.274
    3AU    AUSL  826  23.391  38.360   8.316
    3AU    AUSL  827  23.141  37.987   8.222
    3AU     AUL  828  23.448  37.988   8.389
    3AU    AUSL  829  22.976  38.302   8.460
    3AU    AUSL  830  22.738  38.711   8.451
    3AU     AUL  831  22.974  38.586   8.710
    3AU    AUSL  832  23.075  38.659   8.204
    3AU    AUSL  833  23.526  38.718   8.126
    3AU     AUL  834  23.344  38.683   8.435
    3AU    AUSL  835  23.299  38.520   6.840
    3AU    AUSL  836  23.160  38.916   6.981
    3AU     AUL  837  23.374  38.848   6.681
    3AU    AUSL  838  23.111  38.198   6.612
    3AU    AUSL  839  23.618  38.268   6.982
    3AU     AUL  840  23.486  38.342   6.665
    3AU    AUSL  841  22.943  38.702   6.670
    3AU    AUSL  842  22.765  38.316   6.829
    3AU     AUL  843  22.896  38.395   6.524
    3AU    AUSL  844  22.354  38.673   8.243
    3AU    AUSL  845  22.717  38.982   8.111
    3AU     AUL  846  22.554  38.950   8.412
    3AU    AUSL  847  22.655  38.360   8.191
    3AU    AUSL  848  22.206  38.283   8.105
    3AU     AUL  849  22.263  38.372   8.341
    3AU    AUSL  850  22.329  38.298   6.795
    3AU    AUSL  851  22.578  37.948   6.947
    3AU     AUL  852  22.602  38.034   6.641
    3AU    AUSL  853  22.515  38.666   6.675
    3AU    AUSL  854  22.235  38.647   7.050
    3AU     AUL  855  22.118  38.528   6.776
    3AU    AUSL  856  23.683  38.955   7.476
    3AU    AUSL  857  23.558  38.745   7.096
    3AU     AUL  858  23.853  38.950   7.128
    3AU    AUSL  859  23.848  38.559   7.367
    3AU    AUSL  860  23.797  38.261   7.768
    3AU     AUL  861  24.059  38.345   7.571
    3AU    AUSL  862  23.570  38.614   7.718
    3AU    AUSL  863  23.528  39.058   7.853
    3AU     AUL  864  23.776  38.798   7.878
    3AU    AUSL  865  22.317  39.135   7.522
    3AU    AUSL  866  22.354  38.887   7.878
    3AU     AUL  867  22.045  39.132   7.745
    3AU    AUSL  868  22.116  38.756   7.444
    3AU    AUSL  869  22.269  39.072   7.106
    3AU     AUL  870  22.033  38.997   7.263
    3AU    AUSL  871  21.989  38.678   7.888
    3AU    AUSL  872  21.956  38.372   7.349
    3AU     AUL  873  21.834  38.689   7.590
    3AU    AUSL  874  23.575  37.912   7.615
    3AU    AUSL  875  23.401  38.195   7.925
    3AU     AUL  876  23.708  38.101   8.001
    3AU    AUSL  877  23.533  38.282   7.397
    3AU    AUSL  878  23.523  37.880   7.188
    3AU     AUL  879  23.767  38.090   7.250
    3AU    AUSL  880  22.109  37.993   7.553
    3AU    AUSL  881  22.320  38.203   7.205
    3AU     AUL  882  21.970  38.096   7.213
    3AU    AUSL  883  22.226  38.394   7.694
    3AU    AUSL  884  22.416  38.010   7.849
    3AU     AUL  885  22.035  38.163   7.848
    3AU    AUSL  886  22.958  39.318   7.966
    3AU    AUSL  887  22.503  39.297   7.878
    3AU     AUL  888  22.725  39.342   8.194
    3AU    AUSL  889  22.790  39.173   7.591
    3AU    AUSL  890  23.041  39.306   7.247
    3AU     AUL  891  22.810  39.513   7.554
    3AU    AUSL  892  23.228  39.249   7.623
    3AU    AUSL  893  23.222  39.048   8.153
    3AU     AUL  894  23.341  39.338   7.941
    3AU    AUSL  895  22.816  37.852   7.970
    3AU    AUSL  896  23.240  37.793   7.849
    3AU     AUL  897  23.001  37.731   8.223
    3AU    AUSL  898  22.508  37.630   7.699
    3AU    AUSL  899  22.536  37.967   8.274
    3AU     AUL  900  22.544  37.669   8.050
    3AU    AUSL  901  22.940  37.555   7.667
    3AU    AUSL  902  22.733  37.800   7.362
    3AU     AUL  903  22.616  37.455   7.487
    3AU    AUSL  904  22.868  39.191   6.843
    3AU    AUSL  905  23.440  39.169   7.199
    3AU     AUL  906  23.184  39.279   6.936
    3AU    AUSL  907  22.619  39.285   7.210
    3AU    AUSL  908  22.642  38.874   7.014
    3AU     AUL  909  22.549  39.180   6.856
    3AU    AUSL  910  22.958  37.748   6.981
    3AU    AUSL  911  22.325  37.762   7.258
    3AU     AUL  912  22.621  37.614   7.043
    3AU    AUSL  913  23.165  37.772   7.381
    3AU    AUSL  914  23.188  38.105   7.018
    3AU     AUL  915  23.282  37.732   7.050
    3AU       S  916  23.413  37.537   8.227
    3AU     LIG  917  23.460  37.303   8.352
    3AU     LIG  918  23.582  37.143   8.479
    3AU     LIG  919  23.740  36.966   8.590
    3AU       S  920  23.447  38.327   8.719
    3AU     LIG  921  23.610  38.385   8.921
    3AU     LIG  922  23.700  38.441   9.146
    3AU     LIG  923  23.806  38.408   9.383
    3AU       S  924  23.125  38.134   8.725
    3AU     LIG  925  23.181  38.040   9.005
    3AU     LIG  926  23.347  38.056   9.203
    3AU     LIG  927  23.481  38.011   9.419
    3AU       S  928  22.500  38.624   8.757
    3AU     LIG  929  22.463  38.648   9.059
    3AU     LIG  930  22.345  38.633   9.261
    3AU     LIG  931  22.197  38.610   9.479
    3AU       S  932  23.025  39.058   8.566
    3AU     LIG  933  23.142  39.195   8.771
    3AU     LIG  934  23.355  39.115   8.933
    3AU     LIG  935  23.578  38.989   8.947
    3AU       S  936  23.717  38.950   8.334
    3AU     LIG  937  23.900  38.990   8.555
    3AU     LIG  938  24.040  39.147   8.669
    3AU     LIG  939  24.216  39.323   8.744
    3AU       S  940  23.318  38.579   6.306
    3AU     LIG  941  23.533  38.634   6.093
    3AU     LIG  942  23.667  38.468   5.955
    3AU     LIG  943  23.727  38.277   5.795
    3AU       S  944  23.533  39.279   6.652
    3AU     LIG  945  23.579  39.472   6.462
    3AU     LIG  946  23.742  39.562   6.288
    3AU     LIG  947  23.907  39.653   6.123
    3AU       S  948  23.793  37.990   6.768
    3AU     LIG  949  23.955  37.903   6.527
    3AU     LIG  950  23.969  37.684   6.388
    3AU     LIG  951  23.985  37.429   6.348
    3AU       S  952  23.239  38.284   6.240
    3AU     LIG  953  23.261  38.160   6.011
    3AU     LIG  954  23.248  38.087   5.771
    3AU     LIG  955  23.319  38.067   5.521
    3AU       S  956  22.505  38.344   6.303
    3AU     LIG  957  22.560  38.311   6.024
    3AU     LIG  958  22.566  38.257   5.795
    3AU     LIG  959  22.490  38.216   5.540
    3AU       S  960  23.075  38.725   6.264
    3AU     LIG  961  22.976  38.659   5.973
    3AU     LIG  962  23.118  38.584   5.780
    3AU     LIG  963  23.311  38.576   5.607
    3AU       S  964  22.224  38.712   8.643
    3AU     LIG  965  22.013  38.687   8.819
    3AU     LIG  966  21.959  38.471   8.977
    3AU     LIG  967  21.889  38.339   9.166
    3AU       S  968  22.255  39.270   8.268
    3AU     LIG  969  22.169  39.425   8.501
    3AU     LIG  970  22.028  39.436   8.694
    3AU     LIG  971  21.859  39.525   8.877
    3AU       S  972  21.978  38.004   8.284
    3AU     LIG  973  21.732  37.935   8.381
    3AU     LIG  974  21.587  37.743   8.457
    3AU     LIG  975  21.460  37.561   8.575
    3AU       S  976  22.549  38.332   8.684
    3AU     LIG  977  22.472  38.156   8.887
    3AU     LIG  978  22.359  38.136   9.105
    3AU     LIG  979  22.314  38.122   9.361
    3AU       S  980  22.243  38.256   6.418
    3AU     LIG  981  22.064  38.186   6.208
    3AU     LIG  982  22.053  38.257   5.957
    3AU     LIG  983  22.041  38.367   5.737
    3AU       S  984  22.277  37.708   6.745
    3AU     LIG  985  22.203  37.521   6.540
    3AU     LIG  986  22.045  37.479   6.354
    3AU     LIG  987  21.861  37.430   6.184
    3AU       S  988  21.907  38.934   6.798
    3AU     LIG  989  21.700  39.103   6.744
    3AU     LIG  990  21.648  39.302   6.588
    3AU     LIG  991  21.624  39.425   6.367
    3AU       S  992  22.405  38.612   6.393
    3AU     LIG  993  22.238  38.713   6.139
    3AU     LIG  994  22.321  38.750   5.913
    3AU     LIG  995  22.429  38.730   5.679
    3AU       S  996  23.764  39.093   6.708
    3AU     LIG  997  23.979  39.139   6.537
    3AU     LIG  998  24.136  39.251   6.389
    3AU     LIG  999  24.317  39.370   6.245
    3AU       S 1000  24.016  39.069   7.556
    3AU     LIG 1001  24.229  39.273   7.540
    3AU     LIG 1002  24.473  39.317   7.511
    3AU     LIG 1003  24.726  39.380   7.532
    3AU       S 1004  24.192  38.770   7.388
    3AU     LIG 1005  24.461  38.841   7.293
    3AU     LIG 1006  24.701  38.907   7.306
    3AU     LIG 1007  24.923  39.021   7.226
    3AU       S 1008  24.056  37.891   7.790
    3AU     LIG 1009  24.291  37.789   7.920
    3AU     LIG 1010  24.544  37.784   7.859
    3AU     LIG 1011  24.793  37.752   7.780
    3AU       S 1012  23.753  39.198   8.127
    3AU     LIG 1013  23.948  39.375   8.210
    3AU     LIG 1014  23.993  39.574   8.357
    3AU     LIG 1015  24.012  39.753   8.540
    3AU       S 1016  24.163  38.802   7.663
    3AU     LIG 1017  24.401  38.873   7.814
    3AU     LIG 1018  24.638  38.940   7.811
    3AU     LIG 1019  24.868  39.030   7.878
    3AU       S 1020  22.089  39.047   8.203
    3AU     LIG 1021  21.850  39.039   8.380
    3AU     LIG 1022  21.664  39.178   8.444
    3AU     LIG 1023  21.488  39.297   8.594
    3AU       S 1024  22.256  39.471   7.463
    3AU     LIG 1025  22.096  39.679   7.335
    3AU     LIG 1026  21.850  39.659   7.239
    3AU     LIG 1027  21.662  39.502   7.123
    3AU       S 1028  21.692  38.690   7.139
    3AU     LIG 1029  21.454  38.695   7.071
    3AU     LIG 1030  21.199  38.771   7.141
    3AU     LIG 1031  21.054  38.984   7.163
    3AU       S 1032  22.122  39.344   6.929
    3AU     LIG 1033  22.049  39.552   6.787
    3AU     LIG 1034  21.907  39.731   6.702
    3AU     LIG 1035  21.776  39.886   6.537
    3AU       S 1036  21.603  38.286   7.449
    3AU     LIG 1037  21.326  38.276   7.337
    3AU     LIG 1038  21.083  38.258   7.332
    3AU     LIG 1039  20.849  38.137   7.284
    3AU       S 1040  21.794  38.605   8.097
    3AU     LIG 1041  21.481  38.709   8.182
    3AU     LIG 1042  21.364  38.921   8.094
    3AU     LIG 1043  21.184  39.068   7.968
    3AU       S 1044  23.786  37.721   7.606
    3AU     LIG 1045  23.920  37.419   7.622
    3AU     LIG 1046  24.148  37.353   7.697
    3AU     LIG 1047  24.419  37.339   7.655
    3AU       S 1048  23.630  37.660   8.066
    3AU     LIG 1049  23.877  37.524   8.105
    3AU     LIG 1050  24.007  37.436   8.287
    3AU     LIG 1051  24.054  37.366   8.537
    3AU       S 1052  24.043  37.871   7.519
    3AU     LIG 1053  24.266  37.749   7.383
    3AU     LIG 1054  24.507  37.750   7.343
    3AU     LIG 1055  24.748  37.678   7.280
    3AU       S 1056  23.735  37.728   6.925
    3AU     LIG 1057  23.800  37.468   6.822
    3AU     LIG 1058  23.673  37.245   6.774
    3AU     LIG 1059  23.632  37.026   6.659
    3AU       S 1060  22.100  37.903   6.817
    3AU     LIG 1061  21.867  37.913   6.620
    3AU     LIG 1062  21.690  37.796   6.527
    3AU     LIG 1063  21.484  37.638   6.465
    3AU       S 1064  21.685  37.995   7.583
    3AU     LIG 1065  21.468  37.829   7.588
    3AU     LIG 1066  21.241  37.781   7.482
    3AU     LIG 1067  21.008  37.677   7.441
    3AU       S 1068  22.097  37.774   8.082
    3AU     LIG 1069  21.921  37.566   8.068
    3AU     LIG 1070  21.801  37.380   8.174
    3AU     LIG 1071  21.668  37.194   8.287
    3AU       S 1072  21.627  38.290   7.713
    3AU     LIG 1073  21.393  38.262   7.888
    3AU     LIG 1074  21.154  38.170   7.835
    3AU     LIG 1075  20.945  38.035   7.809
    3AU       S 1076  22.296  39.489   7.989
    3AU     LIG 1077  22.061  39.678   8.062
    3AU     LIG 1078  21.836  39.641   8.206
    3AU     LIG 1079  21.704  39.718   8.412
    3AU       S 1080  23.039  39.675   8.053
    3AU     LIG 1081  23.150  39.862   8.255
    3AU     LIG 1082  23.038  40.052   8.380
    3AU     LIG 1083  22.893  40.253   8.444
    3AU       S 1084  22.801  39.810   7.925
    3AU     LIG 1085  22.712  40.035   7.968
    3AU     LIG 1086  22.686  40.294   7.984
    3AU     LIG 1087  22.695  40.545   8.012
    3AU       S 1088  22.966  39.653   7.131
    3AU     LIG 1089  23.032  39.922   7.146
    3AU     LIG 1090  23.066  40.154   7.130
    3AU     LIG 1091  23.129  40.397   7.042
    3AU       S 1092  23.476  39.165   8.364
    3AU     LIG 1093  23.551  39.384   8.543
    3AU     LIG 1094  23.652  39.465   8.736
    3AU     LIG 1095  23.778  39.483   8.967
    3AU       S 1096  23.178  39.726   7.734
    3AU     LIG 1097  23.210  39.999   7.718
    3AU     LIG 1098  23.185  40.209   7.875
    3AU     LIG 1099  23.197  40.393   8.040
    3AU       S 1100  22.899  37.316   8.062
    3AU     LIG 1101  23.018  37.110   8.213
    3AU     LIG 1102  23.006  36.903   8.334
    3AU     LIG 1103  22.987  36.666   8.434
    3AU       S 1104  23.382  37.549   7.902
    3AU     LIG 1105  23.486  37.245   7.827
    3AU     LIG 1106  23.646  37.111   7.925
    3AU     LIG 1107  23.858  37.011   8.057
    3AU       S 1108  22.647  37.230   7.896
    3AU     LIG 1109  22.598  36.963   7.918
    3AU     LIG 1110  22.620  36.745   8.033
    3AU     LIG 1111  22.610  36.507   8.129
    3AU       S 1112  22.241  37.856   8.386
    3AU     LIG 1113  22.114  37.638   8.570
    3AU     LIG 1114  21.977  37.464   8.640
    3AU     LIG 1115  21.840  37.270   8.762
    3AU       S 1116  22.965  37.326   7.221
    3AU     LIG 1117  22.904  36.998   7.210
    3AU     LIG 1118  22.889  36.802   7.090
    3AU     LIG 1119  22.889  36.535   7.027
    3AU       S 1120  22.979  37.279   7.758
    3AU     LIG 1121  23.079  36.977   7.712
    3AU     LIG 1122  23.092  36.780   7.838
    3AU     LIG 1123  23.086  36.534   7.941
    3AU       S 1124  22.818  39.573   6.835
    3AU     LIG 1125  22.824  39.802   6.681
    3AU     LIG 1126  22.947  40.018   6.641
    3AU     LIG 1127  23.013  40.252   6.564
    3AU       S 1128  23.657  39.349   6.958
    3AU     LIG 1129  23.855  39.553   6.901
    3AU     LIG 1130  24.014  39.627   6.721
    3AU     LIG 1131  24.162  39.749   6.558
    3AU       S 1132  22.615  39.594   7.112
    3AU     LIG 1133  22.503  39.872   7.085
    3AU     LIG 1134  22.560  40.098   6.998
    3AU     LIG 1135  22.634  40.323   6.907
    3AU       S 1136  22.177  39.004   6.654
    3AU     LIG 1137  22.117  39.139   6.415
    3AU     LIG 1138  22.127  39.369   6.319
    3AU     LIG 1139  22.100  39.608   6.239
    3AU       S 1140  22.122  37.672   7.029
    3AU     LIG 1141  21.865  37.499   6.950
    3AU     LIG 1142  21.778  37.357   6.784
    3AU     LIG 1143  21.692  37.184   6.606
    3AU       S 1144  23.035  37.365   6.941
    3AU     LIG 1145  23.152  37.186   6.769
    3AU     LIG 1146  23.125  36.976   6.646
    3AU     LIG 1147  23.049  36.738   6.582
    3AU       S 1148  23.228  37.366   7.324
    3AU     LIG 1149  23.392  37.125   7.293
    3AU     LIG 1150  23.399  36.919   7.128
    3AU     LIG 1151  23.384  36.702   6.984
    3AU       S 1152  23.489  37.875   6.673
    3AU     LIG 1153  23.475  37.697   6.470
    3AU     LIG 1154  23.465  37.469   6.376
    3AU     LIG 1155  23.516  37.266   6.221
    4AU     AUC 1156  34.814  34.543   7.535
    4AU     AUC 1157  35.066  34.548   7.369
    4AU     AUC 1158  35.055  34.535   7.699
    4AU     AUC 1159  34.544  34.551   7.380
    4AU     AUC 1160  34.570  34.580   7.705
    4AU     AUC 1161  34.653  34.796   7.513
    4AU     AUC 1162  35.000  34.808   7.516
    4AU     AUC 1163  34.635  34.289   7.543
    4AU     AUC 1164  34.966  34.267   7.545
    4AU     AUC 1165  34.808  34.383   7.798
    4AU     AUC 1166  34.827  34.723   7.779
    4AU     AUC 1167  34.801  34.370   7.287
    4AU     AUC 1168  34.821  34.676   7.271
    4AU     AUC 1169  35.369  34.539   7.204
    4AU     AUC 1170  35.377  34.519   7.545
    4AU     AUC 1171  35.335  34.506   7.899
    4AU     AUC 1172  34.242  34.525   7.228
    4AU     AUC 1173  34.241  34.584   7.556
    4AU     AUC 1174  34.270  34.623   7.888
    4AU     AUC 1175  34.488  35.109   7.474
    4AU     AUC 1176  34.848  35.083   7.457
    4AU     AUC 1177  35.214  35.071   7.487
    4AU     AUC 1178  34.431  34.000   7.548
    4AU     AUC 1179  34.782  33.976   7.529
    4AU     AUC 1180  35.138  33.965   7.546
    4AU     AUC 1181  34.767  34.217   8.101
    4AU     AUC 1182  34.804  34.559   8.101
    4AU     AUC 1183  34.861  34.923   8.062
    4AU     AUC 1184  34.832  34.180   6.997
    4AU     AUC 1185  34.780  34.521   6.973
    4AU     AUC 1186  34.777  34.844   6.957
    4AU     AUC 1187  35.049  34.321   8.012
    4AU     AUC 1188  35.105  34.697   7.987
    4AU     AUC 1189  35.104  34.383   7.072
    4AU     AUC 1190  35.069  34.695   7.079
    4AU     AUC 1191  34.515  34.441   8.000
    4AU     AUC 1192  34.562  34.791   7.971
    4AU     AUC 1193  34.526  34.340   7.103
    4AU     AUC 1194  34.480  34.668   7.083
    4AU     AUC 1195  35.307  34.811   7.346
    4AU     AUC 1196  35.273  34.808   7.705
    4AU     AUC 1197  34.348  34.823   7.383
    4AU     AUC 1198  34.393  34.889   7.713
    4AU     AUC 1199  35.270  34.260   7.407
    4AU     AUC 1200  35.218  34.214   7.739
    4AU     AUC 1201  34.349  34.237   7.373
    4AU     AUC 1202  34.375  34.311   7.716
    4AU     AUC 1203  34.713  35.041   7.782
    4AU     AUC 1204  35.052  34.996   7.793
    4AU     AUC 1205  34.600  34.108   7.817
    4AU     AUC 1206  34.918  34.055   7.809
    4AU     AUC 1207  34.623  34.974   7.215
    4AU     AUC 1208  34.988  34.990   7.226
    4AU     AUC 1209  34.654  34.076   7.258
    4AU     AUC 1210  35.014  34.121   7.274
    4AU    AUSL 1211  35.313  34.411   8.316
    4AU    AUSL 1212  35.063  34.038   8.222
    4AU     AUL 1213  35.370  34.039   8.389
    4AU    AUSL 1214  34.898  34.353   8.460
    4AU    AUSL 1215  34.660  34.762   8.451
    4AU     AUL 1216  34.896  34.637   8.710
    4AU    AUSL 1217  34.997  34.710   8.204
    4AU    AUSL 1218  35.448  34.769   8.126
    4AU     AUL 1219  35.266  34.734   8.435
    4AU    AUSL 1220  35.221  34.571   6.840
    4AU    AUSL 1221  35.082  34.967   6.981
    4AU     AUL 1222  35.296  34.899   6.681
    4AU    AUSL 1223  35.033  34.249   6.612
    4AU    AUSL 1224  35.540  34.319   6.982
    4AU     AUL 1225  35.408  34.393   6.665
    4AU    AUSL 1226  34.865  34.753   6.670
    4AU    AUSL 1227  34.687  34.367   6.829
    4AU     AUL 1228  34.818  34.446   6.524
    4AU    AUSL 1229  34.276  34.724   8.243
    4AU    AUSL 1230  34.639  35.033   8.111
    4AU     AUL 1231  34.476  35.001   8.412
    4AU    AUSL 1232  34.577  34.411   8.191
    4AU    AUSL 1233  34.128  34.334   8.105
    4AU     AUL 1234  34.185  34.423   8.341
    4AU    AUSL 1235  34.251  34.349   6.795
    4AU    AUSL 1236  34.500  33.999   6.947
    4AU     AUL 1237  34.524  34.085   6.641
    4AU    AUSL 1238  34.437  34.717   6.675
    4AU    AUSL 1239  34.157  34.698   7.050
    4AU     AUL 1240  34.040  34.579   6.776
    4AU    AUSL 1241  35.605  35.006   7.476
    4AU    AUSL 1242  35.480  34.796   7.096
    4AU     AUL 1243  35.775  35.001   7.128
    4AU    AUSL 1244  35.770  34.610   7.367
    4AU    AUSL 1245  35.719  34.312   7.768
    4AU     AUL 1246  35.981  34.396   7.571
    4AU    AUSL 1247  35.492  34.665   7.718
    4AU    AUSL 1248  35.450  35.109   7.853
    4AU     AUL 1249  35.698  34.849   7.878
    4AU    AUSL 1250  34.239  35.186   7.522
    4AU    AUSL 1251  34.276  34.938   7.878
    4AU     AUL 1252  33.967  35.183   7.745
    4AU    AUSL 1253  34.038  34.807   7.444
    4AU    AUSL 1254  34.191  35.123   7.106
    4AU     AUL 1255  33.955  35.048   7.263
    4AU    AUSL 1256  33.911  34.729   7.888
    4AU    AUSL 1257  33.878  34.423   7.349
    4AU     AUL 1258  33.756  34.740   7.590
    4AU    AUSL 1259  35.497  33.963   7.615
    4AU    AUSL 1260  35.323  34.246   7.925
    4AU     AUL 1261  35.630  34.152   8.001
    4AU    AUSL 1262  35.455  34.333   7.397
    4AU    AUSL 1263  35.445  33.931   7.188
    4AU     AUL 1264  35.689  34.141   7.250
    4AU    AUSL 1265  34.031  34.044   7.553
    4AU    AUSL 1266  34.242  34.254   7.205
    4AU     AUL 1267  33.892  34.147   7.213
    4AU    AUSL 1268  34.148  34.445   7.694
    4AU    AUSL 1269  34.338  34.061   7.849
    4AU     AUL 1270  33.957  34.214   7.848
    4AU    AUSL 1271  34.880  35.369   7.966
    4AU    AUSL 1272  34.425  35.348   7.878
    4AU     AUL 1273  34.647  35.393   8.194
    4AU    AUSL 1274  34.712  35.224   7.591
    4AU    AUSL 1275  34.963  35.357   7.247
    4AU     AUL 1276  34.732  35.564   7.554
    4AU    AUSL 1277  35.150  35.300   7.623
    4AU    AUSL 1278  35.144  35.099   8.153
    4AU     AUL 1279  35.263  35.389   7.941
    4AU    AUSL 1280  34.738  33.903   7.970
    4AU    AUSL 1281  35.162  33.844   7.849
    4AU     AUL 1282  34.923  33.782   8.223
    4AU    AUSL 1283  34.430  33.681   7.699
    4AU    AUSL 1284  34.458  34.018   8.274
    4AU     AUL 1285  34.466  33.720   8.050
    4AU    AUSL 1286  34.862  33.606   7.667
    4AU    AUSL 1287  34.655  33.851   7.362
    4AU     AUL 1288  34.538  33.506   7.487
    4AU    AUSL 1289  34.790  35.242   6.843
    4AU    AUSL 1290  35.362  35.220   7.199
    4AU     AUL 1291  35.106  35.330   6.936
    4AU    AUSL 1292  34.541  35.336   7.210
    4AU    AUSL 1293  34.564  34.925   7.014
    4AU     AUL 1294  34.471  35.231   6.856
    4AU    AUSL 1295  34.880  33.799   6.981
    4AU    AUSL 1296  34.247  33.813   7.258
    4AU     AUL 1297  34.543  33.665   7.043
    4AU    AUSL 1298  35.087  33.823   7.381
    4AU    AUSL 1299  35.110  34.156   7.018
    4AU     AUL 1300  35.204  33.783   7.050
    4AU       S 1301  35.335  33.588   8.227
    4AU     LIG 1302  35.382  33.354   8.352
    4AU     LIG 1303  35.504  33.194   8.479
    4AU     LIG 1304  35.662  33.017   8.590
    4AU       S 1305  35.369  34.378   8.719
    4AU     LIG 1306  35.532  34.436   8.921
    4AU     LIG 1307  35.622  34.492   9.146
    4AU     LIG 1308  35.728  34.459   9.383
    4AU       S 1309  35.047  34.185   8.725
    4AU     LIG 1310  35.103  34.091   9.005
    4AU     LIG 1311  35.269  34.107   9.203
    4AU     LIG 1312  35.403  34.062   9.419
    4AU       S 1313  34.422  34.675   8.757
    4AU     LIG 1314  34.385  34.699   9.059
    4AU     LIG 1315  34.267  34.684   9.261
    4AU     LIG 1316  34.119  34.661   9.479
    4AU       S 1317  34.947  35.109   8.566
    4AU     LIG 1318  35.064  35.246   8.771
    4AU     LIG 1319  35.277  35.166   8.933
    4AU     LIG 1320  35.500  35.040   8.947
    4AU       S 1321  35.639  35.001   8.334
    4AU     LIG 1322  35.822  35.041   8.555
    4AU     LIG 1323  35.962  35.198   8.669
    4AU     LIG 1324  36.138  35.374   8.744
    4AU       S 1325  35.240  34.630   6.306
    4AU     LIG 1326  35.455  34.685   6.093
    4AU     LIG 1327  35.589  34.519   5.955
    4AU     LIG 1328  35.649  34.328   5.795
    4AU       S 1329  35.455  35.330   6.652
    4AU     LIG 1330  35.501  35.523   6.462
    4AU     LIG 1331  35.664  35.613   6.288
    4AU     LIG 1332  35.829  35.704   6.123
    4AU       S 1333  35.715  34.041   6.768
    4AU     LIG 1334  35.877  33.954   6.527
    4AU     LIG 1335  35.891  33.735   6.388
    4AU     LIG 1336  35.907  33.480   6.348
    4AU       S 1337  35.161  34.335   6.240
    4AU     LIG 1338  35.183  34.211   6.011
    4AU     LIG 1339  35.170  34.138   5.771
    4AU     LIG 1340  35.241  34.118   5.521
    4AU       S 1341  34.427  34.395   6.303
    4AU     LIG 1342  34.482  34.362   6.024
    4AU     LIG 1343  34.488  34.308   5.795
    4AU     LIG 1344  34.412  34.267   5.540
    4AU       S 1345  34.997  34.776   6.264
    4AU     LIG 1346  34.898  34.710   5.973
    4AU     LIG 1347  35.040  34.635   5.780
    4AU     LIG 1348  35.233  34.627   5.607
    4AU       S 1349  34.146  34.763   8.643
    4AU     LIG 1350  33.935  34.738   8.819
    4AU     LIG 1351  33.881  34.522   8.977
    4AU     LIG 1352  33.811  34.390   9.166
    4AU       S 1353  34.177  35.321   8.268
    4AU     LIG 1354  34.091  35.476   8.501
    4AU     LIG 1355  33.950  35.487   8.694
    4AU     LIG 1356  33.781  35.576   8.877
    4AU       S 1357  33.900  34.055   8.284
    4AU     LIG 1358  33.654  33.986   8.381
    4AU     LIG 1359  33.509  33.794   8.457
    4AU     LIG 1360  33.382  33.612   8.575
    4AU       S 1361  34.471  34.383   8.684
    4AU     LIG 1362  34.394  34.207   8.887
    4AU     LIG 1363  34.281  34.187   9.105
    4AU     LIG 1364  34.236  34.173   9.361
    4AU       S 1365  34.165  34.307   6.418
    4AU     LIG 1366  33.986  34.237   6.208
    4AU     LIG 1367  33.975  34.308   5.957
    4AU     LIG 1368  33.963  34.418   5.737
    4AU       S 1369  34.199  33.759   6.745
    4AU     LIG 1370  34.125  33.572   6.540
    4AU     LIG 1371  33.967  33.530   6.354
    4AU     LIG 1372  33.783  33.481   6.184
    4AU       S 1373  33.829  34.985   6.798
    4AU     LIG 1374  33.622  35.154   6.744
    4AU     LIG 1375  33.570  35.353   6.588
    4AU     LIG 1376  33.546  35.476   6.367
    4AU       S 1377  34.327  34.663   6.393
    4AU     LIG 1378  34.160  34.764   6.139
    4AU     LIG 1379  34.243  34.801   5.913
    4AU     LIG 1380  34.351  34.781   5.679
    4AU       S 1381  35.686  35.144   6.708
    4AU     LIG 1382  35.901  35.190   6.537
    4AU     LIG 1383  36.058  35.302   6.389
    4AU     LIG 1384  36.239  35.421   6.245
    4AU       S 1385  35.938  35.120   7.556
    4AU     LIG 1386  36.151  35.324   7.540
    4AU     LIG 1387  36.395  35.368   7.511
    4AU     LIG 1388  36.648  35.431   7.532
    4AU       S 1389  36.114  34.821   7.388
    4AU     LIG 1390  36.383  34.892   7.293
    4AU     LIG 1391  36.623  34.958   7.306
    4AU     LIG 1392  36.845  35.072   7.226
    4AU       S 1393  35.978  33.942   7.790
    4AU     LIG 1394  36.213  33.840   7.920
    4AU     LIG 1395  36.466  33.835   7.859
    4AU     LIG 1396  36.715  33.803   7.780
    4AU       S 1397  35.675  35.249   8.127
    4AU     LIG 1398  35.870  35.426   8.210
    4AU     LIG 1399  35.915  35.625   8.357
    4AU     LIG 1400  35.934  35.804   8.540
    4AU       S 1401  36.085  34.853   7.663
    4AU     LIG 1402  36.323  34.924   7.814
    4AU     LIG 1403  36.560  34.991   7.811
    4AU     LIG 1404  36.790  35.081   7.878
    4AU       S 1405  34.011  35.098   8.203
    4AU     LIG 1406  33.772  35.090   8.380
    4AU     LIG 1407  33.586  35.229   8.444
    4AU     LIG 1408  33.410  35.348   8.594
    4AU       S 1409  34.178  35.522   7.463
    4AU     LIG 1410  34.018  35.730   7.335
    4AU     LIG 1411  33.772  35.710   7.239
    4AU     LIG 1412  33.584  35.553   7.123
    4AU       S 1413  33.614  34.741   7.139
    4AU     LIG 1414  33.376  34.746   7.071
    4AU     LIG 1415  33.121  34.822   7.141
    4AU     LIG 1416  32.976  35.035   7.163
    4AU       S 1417  34.044  35.395   6.929
    4AU     LIG 1418  33.971  35.603   6.787
    4AU     LIG 1419  33.829  35.782   6.702
    4AU     LIG 1420  33.698  35.937   6.537
    4AU       S 1421  33.525  34.337   7.449
    4AU     LIG 1422  33.248  34.327   7.337
    4AU     LIG 1423  33.005  34.309   7.332
    4AU     LIG 1424  32.771  34.188   7.284
    4AU       S 1425  33.716  34.656   8.097
    4AU     LIG 1426  33.403  34.760   8.182
    4AU     LIG 1427  33.286  34.972   8.094
    4AU     LIG 1428  33.106  35.119   7.968
    4AU       S 1429  35.708  33.772   7.606
    4AU     LIG 1430  35.842  33.470   7.622
    4AU     LIG 1431  36.070  33.404   7.697
    4AU     LIG 1432  36.341  33.390   7.655
    4AU       S 1433  35.552  33.711   8.066
    4AU     LIG 1434  35.799  33.575   8.105
    4AU     LIG 1435  35.929  33.487   8.287
    4AU     LIG 1436  35.976  33.417   8.537
    4AU       S 1437  35.965  33.922   7.519
    4AU     LIG 1438  36.188  33.800   7.383
    4AU     LIG 1439  36.429  33.801   7.343
    4AU     LIG 1440  36.670  33.729   7.280
    4AU       S 1441  35.657  33.779   6.925
    4AU     LIG 1442  35.722  33.519   6.822
    4AU     LIG 1443  35.595  33.296   6.774
    4AU     LIG 1444  35.554  33.077   6.659
    4AU       S 1445  34.022  33.954   6.817
    4AU     LIG 1446  33.789  33.964   6.620
    4AU     LIG 1447  33.612  33.847   6.527
    4AU     LIG 1448  33.406  33.689   6.465
    4AU       S 1449  33.607  34.046   7.583
    4AU     LIG 1450  33.390  33.880   7.588
    4AU     LIG 1451  33.163  33.832   7.482
    4AU     LIG 1452  32.930  33.728   7.441
    4AU       S 1453  34.019  33.825   8.082
    4AU     LIG 1454  33.843  33.617   8.068
    4AU     LIG 1455  33.723  33.431   8.174
    4AU     LIG 1456  33.590  33.245   8.287
    4AU       S 1457  33.549  34.341   7.713
    4AU     LIG 1458  33.315  34.313   7.888
    4AU     LIG 1459  33.076  34.221   7.835
    4AU     LIG 1460  32.867  34.086   7.809
    4AU       S 1461  34.218  35.540   7.989
    4AU     LIG 1462  33.983  35.729   8.062
    4AU     LIG 1463  33.758  35.692   8.206
    4AU     LIG 1464  33.626  35.769   8.412
    4AU       S 1465  34.961  35.726   8.053
    4AU     LIG 1466  35.072  35.913   8.255
    4AU     LIG 1467  34.960  36.103   8.380
    4AU     LIG 1468  34.815  36.304   8.444
    4AU       S 1469  34.723  35.861   7.925
    4AU     LIG 1470  34.634  36.086   7.968
    4AU     LIG 1471  34.608  36.345   7.984
    4AU     LIG 1472  34.617  36.596   8.012
    4AU       S 1473  34.888  35.704   7.131
    4AU     LIG 1474  34.954  35.973   7.146
    4AU     LIG 1475  34.988  36.205   7.130
    4AU     LIG 1476  35.051  36.448   7.042
    4AU       S 1477  35.398  35.216   8.364
    4AU     LIG 1478  35.473  35.435   8.543
    4AU     LIG 1479  35.574  35.516   8.736
    4AU     LIG 1480  35.700  35.534   8.967
    4AU       S 1481  35.100  35.777   7.734
    4AU     LIG 1482  35.132  36.050   7.718
    4AU     LIG 1483  35.107  36.260   7.875
    4AU     LIG 1484  35.119  36.444   8.040
    4AU       S 1485  34.821  33.367   8.062
    4AU     LIG 1486  34.940  33.161   8.213
    4AU     LIG 1487  34.928  32.954   8.334
    4AU     LIG 1488  34.909  32.717   8.434
    4AU       S 1489  35.304  33.600   7.902
    4AU     LIG 1490  35.408  33.296   7.827
    4AU     LIG 1491  35.568  33.162   7.925
    4AU     LIG 1492  35.780  33.062   8.057
    4AU       S 1493  34.569  33.281   7.896
    4AU     LIG 1494  34.520  33.014   7.918
    4AU     LIG 1495  34.542  32.796   8.033
    4AU     LIG 1496  34.532  32.558   8.129
    4AU       S 1497  34.163  33.907   8.386
    4AU     LIG 1498  34.036  33.689   8.570
    4AU     LIG 1499  33.899  33.515   8.640
    4AU     LIG 1500  33.762  33.321   8.762
    4AU       S 1501  34.887  33.377   7.221
    4AU     LIG 1502  34.826  33.049   7.210
    4AU     LIG 1503  34.811  32.853   7.090
    4AU     LIG 1504  34.811  32.586   7.027
    4AU       S 1505  34.901  33.330   7.758
    4AU     LIG 1506  35.001  33.028   7.712
    4AU     LIG 1507  35.014  32.831   7.838
    4AU     LIG 1508  35.008  32.585   7.941
    4AU       S 1509  34.740  35.624   6.835
    4AU     LIG 1510  34.746  35.853   6.681
    4AU     LIG 1511  34.869  36.069   6.641
    4AU     LIG 1512  34.935  36.303   6.564
    4AU       S 1513  35.579  35.400   6.958
    4AU     LIG 1514  35.777  35.604   6.901
    4AU     LIG 1515  35.936  35.678   6.721
    4AU     LIG 1516  36.084  35.800   6.558
    4AU       S 1517  34.537  35.645   7.112
    4AU     LIG 1518  34.425  35.923   7.085
    4AU     LIG 1519  34.482  36.149   6.998
    4AU     LIG 1520  34.556  36.374   6.907
    4AU       S 1521  34.099  35.055   6.654
    4AU     LIG 1522  34.039  35.190   6.415
    4AU     LIG 1523  34.049  35.420   6.319
    4AU     LIG 1524  34.022  35.659   6.239
    4AU       S 1525  34.044  33.723   7.029
    4AU     LIG 1526  33.787  33.550   6.950
    4AU     LIG 1527  33.700  33.408   6.784
    4AU     LIG 1528  33.614  33.235   6.606
    4AU       S 1529  34.957  33.416   6.941
    4AU     LIG 1530  35.074  33.237   6.769
    4AU     LIG 1531  35.047  33.027   6.646
    4AU     LIG 1532  34.971  32.789   6.582
    4AU       S 1533  35.150  33.417   7.324
    4AU     LIG 1534  35.314  33.176   7.293
    4AU     LIG 1535  35.321  32.970   7.128
    4AU     LIG 1536  35.306  32.753   6.984
    4AU       S 1537  35.411  33.926   6.673
    4AU     LIG 1538  35.397  33.748   6.470
    4AU     LIG 1539  35.387  33.520   6.376
    4AU     LIG 1540  35.438  33.317   6.221
    5AU     AUC 1541  24.117  16.273   7.535
    5AU     AUC 1542  24.369  16.278   7.369
    5AU     AUC 1543  24.358  16.265   7.699
    5AU     AUC 1544  23.847  16.281   7.380
    5AU     AUC 1545  23.873  16.310   7.705
    5AU     AUC 1546  23.956  16.526   7.513
    5AU     AUC 1547  24.303  16.538   7.516
    5AU     AUC 1548  23.938  16.019   7.543
    5AU     AUC 1549  24.269  15.997   7.545
    5AU     AUC 1550  24.111  16.113   7.798
    5AU     AUC 1551  24.130  16.453   7.779
    5AU     AUC 1552  24.104  16.100   7.287
    5AU     AUC 1553  24.124  16.406   7.271
    5AU     AUC 1554  24.672  16.269   7.204
    5AU     AUC 1555  24.680  16.249   7.545
    5AU     AUC 1556  24.638  16.236   7.899
    5AU     AUC 1557  23.545  16.255   7.228
    5AU     AUC 1558  23.544  16.314   7.556
    5AU     AUC 1559  23.573  16.353   7.888
    5AU     AUC 1560  23.791  16.839   7.474
    5AU     AUC 1561  24.151  16.813   7.457
    5AU     AUC 1562  24.517  16.801   7.487
    5AU     AUC 1563  23.734  15.730   7.548
    5AU     AUC 1564  24.085  15.706   7.529
    5AU     AUC 1565  24.441  15.695   7.546
    5AU     AUC 1566  24.070  15.947   8.101
    5AU     AUC 1567  24.107  16.289   8.101
    5AU     AUC 1568  24.164  16.653   8.062
    5AU     AUC 1569  24.135  15.910   6.997
    5AU     AUC 1570  24.083  16.251   6.973
    5AU     AUC 1571  24.080  16.574   6.957
    5AU     AUC 1572  24.352  16.051   8.012
    5AU     AUC 1573  24.408  16.427   7.987
    5AU     AUC 1574  24.407  16.113   7.072
    5AU     AUC 1575  24.372  16.425   7.079
    5AU     AUC 1576  23.818  16.171   8.000
    5AU     AUC 1577  23.865  16.521   7.971
    5AU     AUC 1578  23.829  16.070   7.103
    5AU     AUC 1579  23.783  16.398   7.083
    5AU     AUC 1580  24.610  16.541   7.346
    5AU     AUC 1581  24.576  16.538   7.705
    5AU     AUC 1582  23.651  16.553   7.383
    5AU     AUC 1583  23.696  16.619   7.713
    5AU     AUC 1584  24.573  15.990   7.407
    5AU     AUC 1585  24.521  15.944   7.739
    5AU     AUC 1586  23.652  15.967   7.373
    5AU     AUC 1587  23.678  16.041   7.716
    5AU     AUC 1588  24.016  16.771   7.782
    5AU     AUC 1589  24.355  16.726   7.793
    5AU     AUC 1590  23.903  15.838   7.817
    5AU     AUC 1591  24.221  15.785   7.809
    5AU     AUC 1592  23.926  16.704   7.215
    5AU     AUC 1593  24.291  16.720   7.226
    5AU     AUC 1594  23.957  15.806   7.258
    5AU     AUC 1595  24.317  15.851   7.274
    5AU    AUSL 1596  24.616  16.141   8.316
    5AU    AUSL 1597  24.366  15.768   8.222
    5AU     AUL 1598  24.673  15.769   8.389
    5AU    AUSL 1599  24.201  16.083   8.460
    5AU    AUSL 1600  23.963  16.492   8.451
    5AU     AUL 1601  24.199  16.367   8.710
    5AU    AUSL 1602  24.300  16.440   8.204
    5AU    AUSL 1603  24.751  16.499   8.126
    5AU     AUL 1604  24.569  16.464   8.435
    5AU    AUSL 1605  24.524  16.301   6.840
    5AU    AUSL 1606  24.385  16.697   6.981
    5AU     AUL 1607  24.599  16.629   6.681
    5AU    AUSL 1608  24.336  15.979   6.612
    5AU    AUSL 1609  24.843  16.049   6.982
    5AU     AUL 1610  24.711  16.123   6.665
    5AU    AUSL 1611  24.168  16.483   6.670
    5AU    AUSL 1612  23.990  16.097   6.829
    5AU     AUL 1613  24.121  16.176   6.524
    5AU    AUSL 1614  23.579  16.454   8.243
    5AU    AUSL 1615  23.942  16.763   8.111
    5AU     AUL 1616  23.779  16.731   8.412
    5AU    AUSL 1617  23.880  16.141   8.191
    5AU    AUSL 1618  23.431  16.064   8.105
    5AU     AUL 1619  23.488  16.153   8.341
    5AU    AUSL 1620  23.554  16.079   6.795
    5AU    AUSL 1621  23.803  15.729   6.947
    5AU     AUL 1622  23.827  15.815   6.641
    5AU    AUSL 1623  23.740  16.447   6.675
    5AU    AUSL 1624  23.460  16.428   7.050
    5AU     AUL 1625  23.343  16.309   6.776
    5AU    AUSL 1626  24.908  16.736   7.476
    5AU    AUSL 1627  24.783  16.526   7.096
    5AU     AUL 1628  25.078  16.731   7.128
    5AU    AUSL 1629  25.073  16.340   7.367
    5AU    AUSL 1630  25.022  16.042   7.768
    5AU     AUL 1631  25.284  16.126   7.571
    5AU    AUSL 1632  24.795  16.395   7.718
    5AU    AUSL 1633  24.753  16.839   7.853
    5AU     AUL 1634  25.001  16.579   7.878
    5AU    AUSL 1635  23.542  16.916   7.522
    5AU    AUSL 1636  23.579  16.668   7.878
    5AU     AUL 1637  23.270  16.913   7.745
    5AU    AUSL 1638  23.341  16.537   7.444
    5AU    AUSL 1639  23.494  16.853   7.106
    5AU     AUL 1640  23.258  16.778   7.263
    5AU    AUSL 1641  23.214  16.459   7.888
    5AU    AUSL 1642  23.181  16.153   7.349
    5AU     AUL 1643  23.059  16.470   7.590
    5AU    AUSL 1644  24.800  15.693   7.615
    5AU    AUSL 1645  24.626  15.976   7.925
    5AU     AUL 1646  24.933  15.882   8.001
    5AU    AUSL 1647  24.758  16.063   7.397
    5AU    AUSL 1648  24.748  15.661   7.188
    5AU     AUL 1649  24.992  15.871   7.250
    5AU    AUSL 1650  23.334  15.774   7.553
    5AU    AUSL 1651  23.545  15.984   7.205
    5AU     AUL 1652  23.195  15.877   7.213
    5AU    AUSL 1653  23.451  16.175   7.694
    5AU    AUSL 1654  23.641  15.791   7.849
    5AU     AUL 1655  23.260  15.944   7.848
    5AU    AUSL 1656  24.183  17.099   7.966
    5AU    AUSL 1657  23.728  17.078   7.878
    5AU     AUL 1658  23.950  17.123   8.194
    5AU    AUSL 1659  24.015  16.954   7.591
    5AU    AUSL 1660  24.266  17.087   7.247
    5AU     AUL 1661  24.035  17.294   7.554
    5AU    AUSL 1662  24.453  17.030   7.623
    5AU    AUSL 1663  24.447  16.829   8.153
    5AU     AUL 1664  24.566  17.119   7.941
    5AU    AUSL 1665  24.041  15.633   7.970
    5AU    AUSL 1666  24.465  15.574   7.849
    5AU     AUL 1667  24.226  15.512   8.223
    5AU    AUSL 1668  23.733  15.411   7.699
    5AU    AUSL 1669  23.761  15.748   8.274
    5AU     AUL 1670  23.769  15.450   8.050
    5AU    AUSL 1671  24.165  15.336   7.667
    5AU    AUSL 1672  23.958  15.581   7.362
    5AU     AUL 1673  23.841  15.236   7.487
    5AU    AUSL 1674  24.093  16.972   6.843
    5AU    AUSL 1675  24.665  16.950   7.199
    5AU     AUL 1676  24.409  17.060   6.936
    5AU    AUSL 1677  23.844  17.066   7.210
    5AU    AUSL 1678  23.867  16.655   7.014
    5AU     AUL 1679  23.774  16.961   6.856
    5AU    AUSL 1680  24.183  15.529   6.981
    5AU    AUSL 1681  23.550  15.543   7.258
    5AU     AUL 1682  23.846  15.395   7.043
    5AU    AUSL 1683  24.390  15.553   7.381
    5AU    AUSL 1684  24.413  15.886   7.018
    5AU     AUL 1685  24.507  15.513   7.050
    5AU       S 1686  24.638  15.318   8.227
    5AU     LIG 1687  24.685  15.084   8.352
    5AU     LIG 1688  24.807  14.924   8.479
    5AU     LIG 1689  24.965  14.747   8.590
    5AU       S 1690  24.672  16.108   8.719
    5AU     LIG 1691  24.835  16.166   8.921
    5AU     LIG 1692  24.925  16.222   9.146
    5AU     LIG 1693  25.031  16.189   9.383
    5AU       S 1694  24.350  15.915   8.725
    5AU     LIG 1695  24.406  15.821   9.005
    5AU     LIG 1696  24.572  15.837   9.203
    5AU     LIG 1697  24.706  15.792   9.419
    5AU       S 1698  23.725  16.405   8.757
    5AU     LIG 1699  23.688  16.429   9.059
    5AU     LIG 1700  23.570  16.414   9.261
    5AU     LIG 1701  23.422  16.391   9.479
    5AU       S 1702  24.250  16.839   8.566
    5AU     LIG 1703  24.367  16.976   8.771
    5AU     LIG 1704  24.580  16.896   8.933
    5AU     LIG 1705  24.803  16.770   8.947
    5AU       S 1706  24.942  16.731   8.334
    5AU     LIG 1707  25.125  16.771   8.555
    5AU     LIG 1708  25.265  16.928   8.669
    5AU     LIG 1709  25.441  17.104   8.744
    5AU       S 1710  24.543  16.360   6.306
    5AU     LIG 1711  24.758  16.415   6.093
    5AU     LIG 1712  24.892  16.249   5.955
    5AU     LIG 1713  24.952  16.058   5.795
    5AU       S 1714  24.758  17.060   6.652
    5AU     LIG 1715  24.804  17.253   6.462
    5AU     LIG 1716  24.967  17.343   6.288
    5AU     LIG 1717  25.132  17.434   6.123
    5AU       S 1718  25.018  15.771   6.768
    5AU     LIG 1719  25.180  15.684   6.527
    5AU     LIG 1720  25.194  15.465   6.388
    5AU     LIG 1721  25.210  15.210   6.348
    5AU       S 1722  24.464  16.065   6.240
    5AU     LIG 1723  24.486  15.941   6.011
    5AU     LIG 1724  24.473  15.868   5.771
    5AU     LIG 1725  24.544  15.848   5.521
    5AU       S 1726  23.730  16.125   6.303
    5AU     LIG 1727  23.785  16.092   6.024
    5AU     LIG 1728  23.791  16.038   5.795
    5AU     LIG 1729  23.715  15.997   5.540
    5AU       S 1730  24.300  16.506   6.264
    5AU     LIG 1731  24.201  16.440   5.973
    5AU     LIG 1732  24.343  16.365   5.780
    5AU     LIG 1733  24.536  16.357   5.607
    5AU       S 1734  23.449  16.493   8.643
    5AU     LIG 1735  23.238  16.468   8.819
    5AU     LIG 1736  23.184  16.252   8.977
    5AU     LIG 1737  23.114  16.120   9.166
    5AU       S 1738  23.480  17.051   8.268
    5AU     LIG 1739  23.394  17.206   8.501
    5AU     LIG 1740  23.253  17.217   8.694
    5AU     LIG 1741  23.084  17.306   8.877
    5AU       S 1742  23.203  15.785   8.284
    5AU     LIG 1743  22.957  15.716   8.381
    5AU     LIG 1744  22.812  15.524   8.457
    5AU     LIG 1745  22.685  15.342   8.575
    5AU       S 1746  23.774  16.113   8.684
    5AU     LIG 1747  23.697  15.937   8.887
    5AU     LIG 1748  23.584  15.917   9.105
    5AU     LIG 1749  23.539  15.903   9.361
    5AU       S 1750  23.468  16.037   6.418
    5AU     LIG 1751  23.289  15.967   6.208
    5AU     LIG 1752  23.278  16.038   5.957
    5AU     LIG 1753  23.266  16.148   5.737
    5AU       S 1754  23.502  15.489   6.745
    5AU     LIG 1755  23.428  15.302   6.540
    5AU     LIG 1756  23.270  15.260   6.354
    5AU     LIG 1757  23.086  15.211   6.184
    5AU       S 1758  23.132  16.715   6.798
    5AU     LIG 1759  22.925  16.884   6.744
    5AU     LIG 1760  22.873  17.083   6.588
    5AU     LIG 1761  22.849  17.206   6.367
    5AU       S 1762  23.630  16.393   6.393
    5AU     LIG 1763  23.463  16.494   6.139
    5AU     LIG 1764  23.546  16.531   5.913
    5AU     LIG 1765  23.654  16.511   5.679
    5AU       S 1766  24.989  16.874   6.708
    5AU     LIG 1767  25.204  16.920   6.537
    5AU     LIG 1768  25.361  17.032   6.389
    5AU     LIG 1769  25.542  17.151   6.245
    5AU       S 1770  25.241  16.850   7.556
    5AU     LIG 1771  25.454  17.054   7.540
    5AU     LIG 1772  25.698  17.098   7.511
    5AU     LIG 1773  25.951  17.161   7.532
    5AU       S 1774  25.417  16.551   7.388
    5AU     LIG 1775  25.686  16.622   7.293
    5AU     LIG 1776  25.926  16.688   7.306
    5AU     LIG 1777  26.148  16.802   7.226
    5AU       S 1778  25.281  15.672   7.790
    5AU     LIG 1779  25.516  15.570   7.920
    5AU     LIG 1780  25.769  15.565   7.859
    5AU     LIG 1781  26.018  15.533   7.780
    5AU       S 1782  24.978  16.979   8.127
    5AU     LIG 1783  25.173  17.156   8.210
    5AU     LIG 1784  25.218  17.355   8.357
    5AU     LIG 1785  25.237  17.534   8.540
    5AU       S 1786  25.388  16.583   7.663
    5AU     LIG 1787  25.626  16.654   7.814
    5AU     LIG 1788  25.863  16.721   7.811
    5AU     LIG 1789  26.093  16.811   7.878
    5AU       S 1790  23.314  16.828   8.203
    5AU     LIG 1791  23.075  16.820   8.380
    5AU     LIG 1792  22.889  16.959   8.444
    5AU     LIG 1793  22.713  17.078   8.594
    5AU       S 1794  23.481  17.252   7.463
    5AU     LIG 1795  23.321  17.460   7.335
    5AU     LIG 1796  23.075  17.440   7.239
    5AU     LIG 1797  22.887  17.283   7.123
    5AU       S 1798  22.917  16.471   7.139
    5AU     LIG 1799  22.679  16.476   7.071
    5AU     LIG 1800  22.424  16.552   7.141
    5AU     LIG 1801  22.279  16.765   7.163
    5AU       S 1802  23.347  17.125   6.929
    5AU     LIG 1803  23.274  17.333   6.787
    5AU     LIG 1804  23.132  17.512   6.702
    5AU     LIG 1805  23.001  17.667   6.537
    5AU       S 1806  22.828  16.067   7.449
    5AU     LIG 1807  22.551  16.057   7.337
    5AU     LIG 1808  22.308  16.039   7.332
    5AU     LIG 1809  22.074  15.918   7.284
    5AU       S 1810  23.019  16.386   8.097
    5AU     LIG 1811  22.706  16.490   8.182
    5AU     LIG 1812  22.589  16.702   8.094
    5AU     LIG 1813  22.409  16.849   7.968
    5AU       S 1814  25.011  15.502   7.606
    5AU     LIG 1815  25.145  15.200   7.622
    5AU     LIG 1816  25.373  15.134   7.697
    5AU     LIG 1817  25.644  15.120   7.655
    5AU       S 1818  24.855  15.441   8.066
    5AU     LIG 1819  25.102  15.305   8.105
    5AU     LIG 1820  25.232  15.217   8.287
    5AU     LIG 1821  25.279  15.147   8.537
    5AU       S 1822  25.268  15.652   7.519
    5AU     LIG 1823  25.491  15.530   7.383
    5AU     LIG 1824  25.732  15.531   7.343
    5AU     LIG 1825  25.973  15.459   7.280
    5AU       S 1826  24.960  15.509   6.925
    5AU     LIG 1827  25.025  15.249   6.822
    5AU     LIG 1828  24.898  15.026   6.774
    5AU     LIG 1829  24.857  14.807   6.659
    5AU       S 1830  23.325  15.684   6.817
    5AU     LIG 1831  23.092  15.694   6.620
    5AU     LIG 1832  22.915  15.577   6.527
    5AU     LIG 1833  22.709  15.419   6.465
    5AU       S 1834  22.910  15.776   7.583
    5AU     LIG 1835  22.693  15.610   7.588
    5AU     LIG 1836  22.466  15.562   7.482
    5AU     LIG 1837  22.233  15.458   7.441
    5AU       S 1838  23.322  15.555   8.082
    5AU     LIG 1839  23.146  15.347   8.068
    5AU     LIG 1840  23.026  15.161   8.174
    5AU     LIG 1841  22.893  14.975   8.287
    5AU       S 1842  22.852  16.071   7.713
    5AU     LIG 1843  22.618  16.043   7.888
    5AU     LIG 1844  22.379  15.951   7.835
    5AU     LIG 1845  22.170  15.816   7.809
    5AU       S 1846  23.521  17.270   7.989
    5AU     LIG 1847  23.286  17.459   8.062
    5AU     LIG 1848  23.061  17.422   8.206
    5AU     LIG 1849  22.929  17.499   8.412
    5AU       S 1850  24.264  17.456   8.053
    5AU     LIG 1851  24.375  17.643   8.255
    5AU     LIG 1852  24.263  17.833   8.380
    5AU     LIG 1853  24.118  18.034   8.444
    5AU       S 1854  24.026  17.591   7.925
    5AU     LIG 1855  23.937  17.816   7.968
    5AU     LIG 1856  23.911  18.075   7.984
    5AU     LIG 1857  23.920  18.326   8.012
    5AU       S 1858  24.191  17.434   7.131
    5AU     LIG 1859  24.257  17.703   7.146
    5AU     LIG 1860  24.291  17.935   7.130
    5AU     LIG 1861  24.354  18.178   7.042
    5AU       S 1862  24.701  16.946   8.364
    5AU     LIG 1863  24.776  17.165   8.543
    5AU     LIG 1864  24.877  17.246   8.736
    5AU     LIG 1865  25.003  17.264   8.967
    5AU       S 1866  24.403  17.507   7.734
    5AU     LIG 1867  24.435  17.780   7.718
    5AU     LIG 1868  24.410  17.990   7.875
    5AU     LIG 1869  24.422  18.174   8.040
    5AU       S 1870  24.124  15.097   8.062
    5AU     LIG 1871  24.243  14.891   8.213
    5AU     LIG 1872  24.231  14.684   8.334
    5AU     LIG 1873  24.212  14.447   8.434
    5AU       S 1874  24.607  15.330   7.902
    5AU     LIG 1875  24.711  15.026   7.827
    5AU     LIG 1876  24.871  14.892   7.925
    5AU     LIG 1877  25.083  14.792   8.057
    5AU       S 1878  23.872  15.011   7.896
    5AU     LIG 1879  23.823  14.744   7.918
    5AU     LIG 1880  23.845  14.526   8.033
    5AU     LIG 1881  23.835  14.288   8.129
    5AU       S 1882  23.466  15.637   8.386
    5AU     LIG 1883  23.339  15.419   8.570
    5AU     LIG 1884  23.202  15.245   8.640
    5AU     LIG 1885  23.065  15.051   8.762
    5AU       S 1886  24.190  15.107   7.221
    5AU     LIG 1887  24.129  14.779   7.210
    5AU     LIG 1888  24.114  14.583   7.090
    5AU     LIG 1889  24.114  14.316   7.027
    5AU       S 1890  24.204  15.060   7.758
    5AU     LIG 1891  24.304  14.758   7.712
    5AU     LIG 1892  24.317  14.561   7.838
    5AU     LIG 1893  24.311  14.315   7.941
    5AU       S 1894  24.043  17.354   6.835
    5AU     LIG 1895  24.049  17.583   6.681
    5AU     LIG 1896  24.172  17.799   6.641
    5AU     LIG 1897  24.238  18.033   6.564
    5AU       S 1898  24.882  17.130   6.958
    5AU     LIG 1899  25.080  17.334   6.901
    5AU     LIG 1900  25.239  17.408   6.721
    5AU     LIG 1901  25.387  17.530   6.558
    5AU       S 1902  23.840  17.375   7.112
    5AU     LIG 1903  23.728  17.653   7.085
    5AU     LIG 1904  23.785  17.879   6.998
    5AU     LIG 1905  23.859  18.104   6.907
    5AU       S 1906  23.402  16.785   6.654
    5AU     LIG 1907  23.342  16.920   6.415
    5AU     LIG 1908  23.352  17.150   6.319
    5AU     LIG 1909  23.325  17.389   6.239
    5AU       S 1910  23.347  15.453   7.029
    5AU     LIG 1911  23.090  15.280   6.950
    5AU     LIG 1912  23.003  15.138   6.784
    5AU     LIG 1913  22.917  14.965   6.606
    5AU       S 1914  24.260  15.146   6.941
    5AU     LIG 1915  24.377  14.967   6.769
    5AU     LIG 1916  24.350  14.757   6.646
    5AU     LIG 1917  24.274  14.519   6.582
    5AU       S 1918  24.453  15.147   7.324
    5AU     LIG 1919  24.617  14.906   7.293
    5AU     LIG 1920  24.624  14.700   7.128
    5AU     LIG 1921  24.609  14.483   6.984
    5AU       S 1922  24.714  15.656   6.673
    5AU     LIG 1923  24.700  15.478   6.470
    5AU     LIG 1924  24.690  15.250   6.376
    5AU     LIG 1925  24.741  15.047   6.221
    6AU     AUC 1926   2.246  22.590   7.535
    6AU     AUC 1927   2.498  22.595   7.369
    6AU     AUC 1928   2.487  22.582   7.699
    6AU     AUC 1929   1.976  22.598   7.380
    6AU     AUC 1930   2.002  22.627   7.705
    6AU     AUC 1931   2.085  22.843   7.513
    6AU     AUC 1932   2.432  22.855   7.516
    6AU     AUC 1933   2.067  22.336   7.543
    6AU     AUC 1934   2.398  22.314   7.545
    6AU     AUC 1935   2.240  22.430   7.798
    6AU     AUC 1936   2.259  22.770   7.779
    6AU     AUC 1937   2.233  22.417   7.287
    6AU     AUC 1938   2.253  22.723   7.271
    6AU     AUC 1939   2.801  22.586   7.204
    6AU     AUC 1940   2.809  22.566   7.545
    6AU     AUC 1941   2.767  22.553   7.899
    6AU     AUC 1942   1.674  22.572   7.228
    6AU     AUC 1943   1.673  22.631   7.556
    6AU     AUC 1944   1.702  22.670   7.888
    6AU     AUC 1945   1.920  23.156   7.474
    6AU     AUC 1946   2.280  23.130   7.457
    6AU     AUC 1947   2.646  23.118   7.487
    6AU     AUC 1948   1.863  22.047   7.548
    6AU     AUC 1949   2.214  22.023   7.529
    6AU     AUC 1950   2.570  22.012   7.546
    6AU     AUC 1951   2.199  22.264   8.101
    6AU     AUC 1952   2.236  22.606   8.101
    6AU     AUC 1953   2.293  22.970   8.062
    6AU     AUC 1954   2.264  22.227   6.997
    6AU     AUC 1955   2.212  22.568   6.973
    6AU     AUC 1956   2.209  22.891   6.957
    6AU     AUC 1957   2.481  22.368   8.012
    6AU     AUC 1958   2.537  22.744   7.987
    6AU     AUC 1959   2.536  22.430   7.072
    6AU     AUC 1960   2.501  22.742   7.079
    6AU     AUC 1961   1.947  22.488   8.000
    6AU     AUC 1962   1.994  22.838   7.971
    6AU     AUC 1963   1.958  22.387   7.103
    6AU     AUC 1964   1.912  22.715   7.083
    6AU     AUC 1965   2.739  22.858   7.346
    6AU     AUC 1966   2.705  22.855   7.705
    6AU     AUC 1967   1.780  22.870   7.383
    6AU     AUC 1968   1.825  22.936   7.713
    6AU     AUC 1969   2.702  22.307   7.407
    6AU     AUC 1970   2.650  22.261   7.739
    6AU     AUC 1971   1.781  22.284   7.373
    6AU     AUC 1972   1.807  22.358   7.716
    6AU     AUC 1973   2.145  23.088   7.782
    6AU     AUC 1974   2.484  23.043   7.793
    6AU     AUC 1975   2.032  22.155   7.817
    6AU     AUC 1976   2.350  22.102   7.809
    6AU     AUC 1977   2.055  23.021   7.215
    6AU     AUC 1978   2.420  23.037   7.226
    6AU     AUC 1979   2.086  22.123   7.258
    6AU     AUC 1980   2.446  22.168   7.274
    6AU    AUSL 1981   2.745  22.458   8.316
    6AU    AUSL 1982   2.495  22.085   8.222
    6AU     AUL 1983   2.802  22.086   8.389
    6AU    AUSL 1984   2.330  22.400   8.460
    6AU    AUSL 1985   2.092  22.809   8.451
    6AU     AUL 1986   2.328  22.684   8.710
    6AU    AUSL 1987   2.429  22.757   8.204
    6AU    AUSL 1988   2.880  22.816   8.126
    6AU     AUL 1989   2.698  22.781   8.435
    6AU    AUSL 1990   2.653  22.618   6.840
    6AU    AUSL 1991   2.514  23.014   6.981
    6AU     AUL 1992   2.728  22.946   6.681
    6AU    AUSL 1993   2.465  22.296   6.612
    6AU    AUSL 1994   2.972  22.366   6.982
    6AU     AUL 1995   2.840  22.440   6.665
    6AU    AUSL 1996   2.297  22.800   6.670
    6AU    AUSL 1997   2.119  22.414   6.829
    6AU     AUL 1998   2.250  22.493   6.524
    6AU    AUSL 1999   1.708  22.771   8.243
    6AU    AUSL 2000   2.071  23.080   8.111
    6AU     AUL 2001   1.908  23.048   8.412
    6AU    AUSL 2002   2.009  22.458   8.191
    6AU    AUSL 2003   1.560  22.381   8.105
    6AU     AUL 2004   1.617  22.470   8.341
    6AU    AUSL 2005   1.683  22.396   6.795
    6AU    AUSL 2006   1.932  22.046   6.947
    6AU     AUL 2007   1.956  22.132   6.641
    6AU    AUSL 2008   1.869  22.764   6.675
    6AU    AUSL 2009   1.589  22.745   7.050
    6AU     AUL 2010   1.472  22.626   6.776
    6AU    AUSL 2011   3.037  23.053   7.476
    6AU    AUSL 2012   2.912  22.843   7.096
    6AU     AUL 2013   3.207  23.048   7.128
    6AU    AUSL 2014   3.202  22.657   7.367
    6AU    AUSL 2015   3.151  22.359   7.768
    6AU     AUL 2016   3.413  22.443   7.571
    6AU    AUSL 2017   2.924  22.712   7.718
    6AU    AUSL 2018   2.882  23.156   7.853
    6AU     AUL 2019   3.130  22.896   7.878
    6AU    AUSL 2020   1.671  23.233   7.522
    6AU    AUSL 2021   1.708  22.985   7.878
    6AU     AUL 2022   1.399  23.230   7.745
    6AU    AUSL 2023   1.470  22.854   7.444
    6AU    AUSL 2024   1.623  23.170   7.106
    6AU     AUL 2025   1.387  23.095   7.263
    6AU    AUSL 2026   1.343  22.776   7.888
    6AU    AUSL 2027   1.310  22.470   7.349
    6AU     AUL 2028   1.188  22.787   7.590
    6AU    AUSL 2029   2.929  22.010   7.615
    6AU    AUSL 2030   2.755  22.293   7.925
    6AU     AUL 2031   3.062  22.199   8.001
    6AU    AUSL 2032   2.887  22.380   7.397
    6AU    AUSL 2033   2.877  21.978   7.188
    6AU     AUL 2034   3.121  22.188   7.250
    6AU    AUSL 2035   1.463  22.091   7.553
    6AU    AUSL 2036   1.674  22.301   7.205
    6AU     AUL 2037   1.324  22.194   7.213
    6AU    AUSL 2038   1.580  22.492   7.694
    6AU    AUSL 2039   1.770  22.108   7.849
    6AU     AUL 2040   1.389  22.261   7.848
    6AU    AUSL 2041   2.312  23.416   7.966
    6AU    AUSL 2042   1.857  23.395   7.878
    6AU     AUL 2043   2.079  23.440   8.194
    6AU    AUSL 2044   2.144  23.271   7.591
    6AU    AUSL 2045   2.395  23.404   7.247
    6AU     AUL 2046   2.164  23.611   7.554
    6AU    AUSL 2047   2.582  23.347   7.623
    6AU    AUSL 2048   2.576  23.146   8.153
    6AU     AUL 2049   2.695  23.436   7.941
    6AU    AUSL 2050   2.170  21.950   7.970
    6AU    AUSL 2051   2.594  21.891   7.849
    6AU     AUL 2052   2.355  21.829   8.223
    6AU    AUSL 2053   1.862  21.728   7.699
    6AU    AUSL 2054   1.890  22.065   8.274
    6AU     AUL 2055   1.898  21.767   8.050
    6AU    AUSL 2056   2.294  21.653   7.667
    6AU    AUSL 2057   2.087  21.898   7.362
    6AU     AUL 2058   1.970  21.553   7.487
    6AU    AUSL 2059   2.222  23.289   6.843
    6AU    AUSL 2060   2.794  23.267   7.199
    6AU     AUL 2061   2.538  23.377   6.936
    6AU    AUSL 2062   1.973  23.383   7.210
    6AU    AUSL 2063   1.996  22.972   7.014
    6AU     AUL 2064   1.903  23.278   6.856
    6AU    AUSL 2065   2.312  21.846   6.981
    6AU    AUSL 2066   1.679  21.860   7.258
    6AU     AUL 2067   1.975  21.712   7.043
    6AU    AUSL 2068   2.519  21.870   7.381
    6AU    AUSL 2069   2.542  22.203   7.018
    6AU     AUL 2070   2.636  21.830   7.050
    6AU       S 2071   2.767  21.635   8.227
    6AU     LIG 2072   2.814  21.401   8.352
    6AU     LIG 2073   2.936  21.241   8.479
    6AU     LIG 2074   3.094  21.064   8.590
    6AU       S 2075   2.801  22.425   8.719
    6AU     LIG 2076   2.964  22.483   8.921
    6AU     LIG 2077   3.054  22.539   9.146
    6AU     LIG 2078   3.160  22.506   9.383
    6AU       S 2079   2.479  22.232   8.725
    6AU     LIG 2080   2.535  22.138   9.005
    6AU     LIG 2081   2.701  22.154   9.203
    6AU     LIG 2082   2.835  22.109   9.419
    6AU       S 2083   1.854  22.722   8.757
    6AU     LIG 2084   1.817  22.746   9.059
    6AU     LIG 2085   1.699  22.731   9.261
    6AU     LIG 2086   1.551  22.708   9.479
    6AU       S 2087   2.379  23.156   8.566
    6AU     LIG 2088   2.496  23.293   8.771
    6AU     LIG 2089   2.709  23.213   8.933
    6AU     LIG 2090   2.932  23.087   8.947
    6AU       S 2091   3.071  23.048   8.334
    6AU     LIG 2092   3.254  23.088   8.555
    6AU     LIG 2093   3.394  23.245   8.669
    6AU     LIG 2094   3.570  23.421   8.744
    6AU       S 2095   2.672  22.677   6.306
    6AU     LIG 2096   2.887  22.732   6.093
    6AU     LIG 2097   3.021  22.566   5.955
    6AU     LIG 2098   3.081  22.375   5.795
    6AU       S 2099   2.887  23.377   6.652
    6AU     LIG 2100   2.933  23.570   6.462
    6AU     LIG 2101   3.096  23.660   6.288
    6AU     LIG 2102   3.261  23.751   6.123
    6AU       S 2103   3.147  22.088   6.768
    6AU     LIG 2104   3.309  22.001   6.527
    6AU     LIG 2105   3.323  21.782   6.388
    6AU     LIG 2106   3.339  21.527   6.348
    6AU       S 2107   2.593  22.382   6.240
    6AU     LIG 2108   2.615  22.258   6.011
    6AU     LIG 2109   2.602  22.185   5.771
    6AU     LIG 2110   2.673  22.165   5.521
    6AU       S 2111   1.859  22.442   6.303
    6AU     LIG 2112   1.914  22.409   6.024
    6AU     LIG 2113   1.920  22.355   5.795
    6AU     LIG 2114   1.844  22.314   5.540
    6AU       S 2115   2.429  22.823   6.264
    6AU     LIG 2116   2.330  22.757   5.973
    6AU     LIG 2117   2.472  22.682   5.780
    6AU     LIG 2118   2.665  22.674   5.607
    6AU       S 2119   1.578  22.810   8.643
    6AU     LIG 2120   1.367  22.785   8.819
    6AU     LIG 2121   1.313  22.569   8.977
    6AU     LIG 2122   1.243  22.437   9.166
    6AU       S 2123   1.609  23.368   8.268
    6AU     LIG 2124   1.523  23.523   8.501
    6AU     LIG 2125   1.382  23.534   8.694
    6AU     LIG 2126   1.213  23.623   8.877
    6AU       S 2127   1.332  22.102   8.284
    6AU     LIG 2128   1.086  22.033   8.381
    6AU     LIG 2129   0.941  21.841   8.457
    6AU     LIG 2130   0.814  21.659   8.575
    6AU       S 2131   1.903  22.430   8.684
    6AU     LIG 2132   1.826  22.254   8.887
    6AU     LIG 2133   1.713  22.234   9.105
    6AU     LIG 2134   1.668  22.220   9.361
    6AU       S 2135   1.597  22.354   6.418
    6AU     LIG 2136   1.418  22.284   6.208
    6AU     LIG 2137   1.407  22.355   5.957
    6AU     LIG 2138   1.395  22.465   5.737
    6AU       S 2139   1.631  21.806   6.745
    6AU     LIG 2140   1.557  21.619   6.540
    6AU     LIG 2141   1.399  21.577   6.354
    6AU     LIG 2142   1.215  21.528   6.184
    6AU       S 2143   1.261  23.032   6.798
    6AU     LIG 2144   1.054  23.201   6.744
    6AU     LIG 2145   1.002  23.400   6.588
    6AU     LIG 2146   0.978  23.523   6.367
    6AU       S 2147   1.759  22.710   6.393
    6AU     LIG 2148   1.592  22.811   6.139
    6AU     LIG 2149   1.675  22.848   5.913
    6AU     LIG 2150   1.783  22.828   5.679
    6AU       S 2151   3.118  23.191   6.708
    6AU     LIG 2152   3.333  23.237   6.537
    6AU     LIG 2153   3.490  23.349   6.389
    6AU     LIG 2154   3.671  23.468   6.245
    6AU       S 2155   3.370  23.167   7.556
    6AU     LIG 2156   3.583  23.371   7.540
    6AU     LIG 2157   3.827  23.415   7.511
    6AU     LIG 2158   4.080  23.478   7.532
    6AU       S 2159   3.546  22.868   7.388
    6AU     LIG 2160   3.815  22.939   7.293
    6AU     LIG 2161   4.055  23.005   7.306
    6AU     LIG 2162   4.277  23.119   7.226
    6AU       S 2163   3.410  21.989   7.790
    6AU     LIG 2164   3.645  21.887   7.920
    6AU     LIG 2165   3.898  21.882   7.859
    6AU     LIG 2166   4.147  21.850   7.780
    6AU       S 2167   3.107  23.296   8.127
    6AU     LIG 2168   3.302  23.473   8.210
    6AU     LIG 2169   3.347  23.672   8.357
    6AU     LIG 2170   3.366  23.851   8.540
    6AU       S 2171   3.517  22.900   7.663
    6AU     LIG 2172   3.755  22.971   7.814
    6AU     LIG 2173   3.992  23.038   7.811
    6AU     LIG 2174   4.222  23.128   7.878
    6AU       S 2175   1.443  23.145   8.203
    6AU     LIG 2176   1.204  23.137   8.380
    6AU     LIG 2177   1.018  23.276   8.444
    6AU     LIG 2178   0.842  23.395   8.594
    6AU       S 2179   1.610  23.569   7.463
    6AU     LIG 2180   1.450  23.777   7.335
    6AU     LIG 2181   1.204  23.757   7.239
    6AU     LIG 2182   1.016  23.600   7.123
    6AU       S 2183   1.046  22.788   7.139
    6AU     LIG 2184   0.808  22.793   7.071
    6AU     LIG 2185   0.553  22.869   7.141
    6AU     LIG 2186   0.408  23.082   7.163
    6AU       S 2187   1.476  23.442   6.929
    6AU     LIG 2188   1.403  23.650   6.787
    6AU     LIG 2189   1.261  23.829   6.702
    6AU     LIG 2190   1.130  23.984   6.537
    6AU       S 2191   0.957  22.384   7.449
    6AU     LIG 2192   0.680  22.374   7.337
    6AU     LIG 2193   0.437  22.356   7.332
    6AU     LIG 2194   0.203  22.235   7.284
    6AU       S 2195   1.148  22.703   8.097
    6AU     LIG 2196   0.835  22.807   8.182
    6AU     LIG 2197   0.718  23.019   8.094
    6AU     LIG 2198   0.538  23.166   7.968
    6AU       S 2199   3.140  21.819   7.606
    6AU     LIG 2200   3.274  21.517   7.622
    6AU     LIG 2201   3.502  21.451   7.697
    6AU     LIG 2202   3.773  21.437   7.655
    6AU       S 2203   2.984  21.758   8.066
    6AU     LIG 2204   3.231  21.622   8.105
    6AU     LIG 2205   3.361  21.534   8.287
    6AU     LIG 2206   3.408  21.464   8.537
    6AU       S 2207   3.397  21.969   7.519
    6AU     LIG 2208   3.620  21.847   7.383
    6AU     LIG 2209   3.861  21.848   7.343
    6AU     LIG 2210   4.102  21.776   7.280
    6AU       S 2211   3.089  21.826   6.925
    6AU     LIG 2212   3.154  21.566   6.822
    6AU     LIG 2213   3.027  21.343   6.774
    6AU     LIG 2214   2.986  21.124   6.659
    6AU       S 2215   1.454  22.001   6.817
    6AU     LIG 2216   1.221  22.011   6.620
    6AU     LIG 2217   1.044  21.894   6.527
    6AU     LIG 2218   0.838  21.736   6.465
    6AU       S 2219   1.039  22.093   7.583
    6AU     LIG 2220   0.822  21.927   7.588
    6AU     LIG 2221   0.595  21.879   7.482
    6AU     LIG 2222   0.362  21.775   7.441
    6AU       S 2223   1.451  21.872   8.082
    6AU     LIG 2224   1.275  21.664   8.068
    6AU     LIG 2225   1.155  21.478   8.174
    6AU     LIG 2226   1.022  21.292   8.287
    6AU       S 2227   0.981  22.388   7.713
    6AU     LIG 2228   0.747  22.360   7.888
    6AU     LIG 2229   0.508  22.268   7.835
    6AU     LIG 2230   0.299  22.133   7.809
    6AU       S 2231   1.650  23.587   7.989
    6AU     LIG 2232   1.415  23.776   8.062
    6AU     LIG 2233   1.190  23.739   8.206
    6AU     LIG 2234   1.058  23.816   8.412
    6AU       S 2235   2.393  23.773   8.053
    6AU     LIG 2236   2.504  23.960   8.255
    6AU     LIG 2237   2.392  24.150   8.380
    6AU     LIG 2238   2.247  24.351   8.444
    6AU       S 2239   2.155  23.908   7.925
    6AU     LIG 2240   2.066  24.133   7.968
    6AU     LIG 2241   2.040  24.392   7.984
    6AU     LIG 2242   2.049  24.643   8.012
    6AU       S 2243   2.320  23.751   7.131
    6AU     LIG 2244   2.386  24.020   7.146
    6AU     LIG 2245   2.420  24.252   7.130
    6AU     LIG 2246   2.483  24.495   7.042
    6AU       S 2247   2.830  23.263   8.364
    6AU     LIG 2248   2.905  23.482   8.543
    6AU     LIG 2249   3.006  23.563   8.736
    6AU     LIG 2250   3.132  23.581   8.967
    6AU       S 2251   2.532  23.824   7.734
    6AU     LIG 2252   2.564  24.097   7.718
    6AU     LIG 2253   2.539  24.307   7.875
    6AU     LIG 2254   2.551  24.491   8.040
    6AU       S 2255   2.253  21.414   8.062
    6AU     LIG 2256   2.372  21.208   8.213
    6AU     LIG 2257   2.360  21.001   8.334
    6AU     LIG 2258   2.341  20.764   8.434
    6AU       S 2259   2.736  21.647   7.902
    6AU     LIG 2260   2.840  21.343   7.827
    6AU     LIG 2261   3.000  21.209   7.925
    6AU     LIG 2262   3.212  21.109   8.057
    6AU       S 2263   2.001  21.328   7.896
    6AU     LIG 2264   1.952  21.061   7.918
    6AU     LIG 2265   1.974  20.843   8.033
    6AU     LIG 2266   1.964  20.605   8.129
    6AU       S 2267   1.595  21.954   8.386
    6AU     LIG 2268   1.468  21.736   8.570
    6AU     LIG 2269   1.331  21.562   8.640
    6AU     LIG 2270   1.194  21.368   8.762
    6AU       S 2271   2.319  21.424   7.221
    6AU     LIG 2272   2.258  21.096   7.210
    6AU     LIG 2273   2.243  20.900   7.090
    6AU     LIG 2274   2.243  20.633   7.027
    6AU       S 2275   2.333  21.377   7.758
    6AU     LIG 2276   2.433  21.075   7.712
    6AU     LIG 2277   2.446  20.878   7.838
    6AU     LIG 2278   2.440  20.632   7.941
    6AU       S 2279   2.172  23.671   6.835
    6AU     LIG 2280   2.178  23.900   6.681
    6AU     LIG 2281   2.301  24.116   6.641
    6AU     LIG 2282   2.367  24.350   6.564
    6AU       S 2283   3.011  23.447   6.958
    6AU     LIG 2284   3.209  23.651   6.901
    6AU     LIG 2285   3.368  23.725   6.721
    6AU     LIG 2286   3.516  23.847   6.558
    6AU       S 2287   1.969  23.692   7.112
    6AU     LIG 2288   1.857  23.970   7.085
    6AU     LIG 2289   1.914  24.196   6.998
    6AU     LIG 2290   1.988  24.421   6.907
    6AU       S 2291   1.531  23.102   6.654
    6AU     LIG 2292   1.471  23.237   6.415
    6AU     LIG 2293   1.481  23.467   6.319
    6AU     LIG 2294   1.454  23.706   6.239
    6AU       S 2295   1.476  21.770   7.029
    6AU     LIG 2296   1.219  21.597   6.950
    6AU     LIG 2297   1.132  21.455   6.784
    6AU     LIG 2298   1.046  21.282   6.606
    6AU       S 2299   2.389  21.463   6.941
    6AU     LIG 2300   2.506  21.284   6.769
    6AU     LIG 2301   2.479  21.074   6.646
    6AU     LIG 2302   2.403  20.836   6.582
    6AU       S 2303   2.582  21.464   7.324
    6AU     LIG 2304   2.746  21.223   7.293
    6AU     LIG 2305   2.753  21.017   7.128
    6AU     LIG 2306   2.738  20.800   6.984
    6AU       S 2307   2.843  21.973   6.673
    6AU     LIG 2308   2.829  21.795   6.470
    6AU     LIG 2309   2.819  21.567   6.376
    6AU     LIG 2310   2.870  21.364   6.221
    7AU     AUC 2311   2.604   3.135   7.535
    7AU     AUC 2312   2.856   3.140   7.369
    7AU     AUC 2313   2.845   3.127   7.699
    7AU     AUC 2314   2.334   3.143   7.380
    7AU     AUC 2315   2.360   3.172   7.705
    7AU     AUC 2316   2.443   3.388   7.513
    7AU     AUC 2317   2.790   3.400   7.516
    7AU     AUC 2318   2.425   2.881   7.543
    7AU     AUC 2319   2.756   2.859   7.545
    7AU     AUC 2320   2.598   2.975   7.798
    7AU     AUC 2321   2.617   3.315   7.779
    7AU     AUC 2322   2.591   2.962   7.287
    7AU     AUC 2323   2.611   3.268   7.271
    7AU     AUC 2324   3.159   3.131   7.204
    7AU     AUC 2325   3.167   3.111   7.545
    7AU     AUC 2326   3.125   3.098   7.899
    7AU     AUC 2327   2.032   3.117   7.228
    7AU     AUC 2328   2.031   3.176   7.556
    7AU     AUC 2329   2.060   3.215   7.888
    7AU     AUC 2330   2.278   3.701   7.474
    7AU     AUC 2331   2.638   3.675   7.457
    7AU     AUC 2332   3.004   3.663   7.487
    7AU     AUC 2333   2.221   2.592   7.548
    7AU     AUC 2334   2.572   2.568   7.529
    7AU     AUC 2335   2.928   2.557   7.546
    7AU     AUC 2336   2.557   2.809   8.101
    7AU     AUC 2337   2.594   3.151   8.101
    7AU     AUC 2338   2.651   3.515   8.062
    7AU     AUC 2339   2.622   2.772   6.997
    7AU     AUC 2340   2.570   3.113   6.973
    7AU     AUC 2341   2.567   3.436   6.957
    7AU     AUC 2342   2.839   2.913   8.012
    7AU     AUC 2343   2.895   3.289   7.987
    7AU     AUC 2344   2.894   2.975   7.072
    7AU     AUC 2345   2.859   3.287   7.079
    7AU     AUC 2346   2.305   3.033   8.000
    7AU     AUC 2347   2.352   3.383   7.971
    7AU     AUC 2348   2.316   2.932   7.103
    7AU     AUC 2349   2.270   3.260   7.083
    7AU     AUC 2350   3.097   3.403   7.346
    7AU     AUC 2351   3.063   3.400   7.705
    7AU     AUC 2352   2.138   3.415   7.383
    7AU     AUC 2353   2.183   3.481   7.713
    7AU     AUC 2354   3.060   2.852   7.407
    7AU     AUC 2355   3.008   2.806   7.739
    7AU     AUC 2356   2.139   2.829   7.373
    7AU     AUC 2357   2.165   2.903   7.716
    7AU     AUC 2358   2.503   3.633   7.782
    7AU     AUC 2359   2.842   3.588   7.793
    7AU     AUC 2360   2.390   2.700   7.817
    7AU     AUC 2361   2.708   2.647   7.809
    7AU     AUC 2362   2.413   3.566   7.215
    7AU     AUC 2363   2.778   3.582   7.226
    7AU     AUC 2364   2.444   2.668   7.258
    7AU     AUC 2365   2.804   2.713   7.274
    7AU    AUSL 2366   3.103   3.003   8.316
    7AU    AUSL 2367   2.853   2.630   8.222
    7AU     AUL 2368   3.160   2.631   8.389
    7AU    AUSL 2369   2.688   2.945   8.460
    7AU    AUSL 2370   2.450   3.354   8.451
    7AU     AUL 2371   2.686   3.229   8.710
    7AU    AUSL 2372   2.787   3.302   8.204
    7AU    AUSL 2373   3.238   3.361   8.126
    7AU     AUL 2374   3.056   3.326   8.435
    7AU    AUSL 2375   3.011   3.163   6.840
    7AU    AUSL 2376   2.872   3.559   6.981
    7AU     AUL 2377   3.086   3.491   6.681
    7AU    AUSL 2378   2.823   2.841   6.612
    7AU    AUSL 2379   3.330   2.911   6.982
    7AU     AUL 2380   3.198   2.985   6.665
    7AU    AUSL 2381   2.655   3.345   6.670
    7AU    AUSL 2382   2.477   2.959   6.829
    7AU     AUL 2383   2.608   3.038   6.524
    7AU    AUSL 2384   2.066   3.316   8.243
    7AU    AUSL 2385   2.429   3.625   8.111
    7AU     AUL 2386   2.266   3.593   8.412
    7AU    AUSL 2387   2.367   3.003   8.191
    7AU    AUSL 2388   1.918   2.926   8.105
    7AU     AUL 2389   1.975   3.015   8.341
    7AU    AUSL 2390   2.041   2.941   6.795
    7AU    AUSL 2391   2.290   2.591   6.947
    7AU     AUL 2392   2.314   2.677   6.641
    7AU    AUSL 2393   2.227   3.309   6.675
    7AU    AUSL 2394   1.947   3.290   7.050
    7AU     AUL 2395   1.830   3.171   6.776
    7AU    AUSL 2396   3.395   3.598   7.476
    7AU    AUSL 2397   3.270   3.388   7.096
    7AU     AUL 2398   3.565   3.593   7.128
    7AU    AUSL 2399   3.560   3.202   7.367
    7AU    AUSL 2400   3.509   2.904   7.768
    7AU     AUL 2401   3.771   2.988   7.571
    7AU    AUSL 2402   3.282   3.257   7.718
    7AU    AUSL 2403   3.240   3.701   7.853
    7AU     AUL 2404   3.488   3.441   7.878
    7AU    AUSL 2405   2.029   3.778   7.522
    7AU    AUSL 2406   2.066   3.530   7.878
    7AU     AUL 2407   1.757   3.775   7.745
    7AU    AUSL 2408   1.828   3.399   7.444
    7AU    AUSL 2409   1.981   3.715   7.106
    7AU     AUL 2410   1.745   3.640   7.263
    7AU    AUSL 2411   1.701   3.321   7.888
    7AU    AUSL 2412   1.668   3.015   7.349
    7AU     AUL 2413   1.546   3.332   7.590
    7AU    AUSL 2414   3.287   2.555   7.615
    7AU    AUSL 2415   3.113   2.838   7.925
    7AU     AUL 2416   3.420   2.744   8.001
    7AU    AUSL 2417   3.245   2.925   7.397
    7AU    AUSL 2418   3.235   2.523   7.188
    7AU     AUL 2419   3.479   2.733   7.250
    7AU    AUSL 2420   1.821   2.636   7.553
    7AU    AUSL 2421   2.032   2.846   7.205
    7AU     AUL 2422   1.682   2.739   7.213
    7AU    AUSL 2423   1.938   3.037   7.694
    7AU    AUSL 2424   2.128   2.653   7.849
    7AU     AUL 2425   1.747   2.806   7.848
    7AU    AUSL 2426   2.670   3.961   7.966
    7AU    AUSL 2427   2.215   3.940   7.878
    7AU     AUL 2428   2.437   3.985   8.194
    7AU    AUSL 2429   2.502   3.816   7.591
    7AU    AUSL 2430   2.753   3.949   7.247
    7AU     AUL 2431   2.522   4.156   7.554
    7AU    AUSL 2432   2.940   3.892   7.623
    7AU    AUSL 2433   2.934   3.691   8.153
    7AU     AUL 2434   3.053   3.981   7.941
    7AU    AUSL 2435   2.528   2.495   7.970
    7AU    AUSL 2436   2.952   2.436   7.849
    7AU     AUL 2437   2.713   2.374   8.223
    7AU    AUSL 2438   2.220   2.273   7.699
    7AU    AUSL 2439   2.248   2.610   8.274
    7AU     AUL 2440   2.256   2.312   8.050
    7AU    AUSL 2441   2.652   2.198   7.667
    7AU    AUSL 2442   2.445   2.443   7.362
    7AU     AUL 2443   2.328   2.098   7.487
    7AU    AUSL 2444   2.580   3.834   6.843
    7AU    AUSL 2445   3.152   3.812   7.199
    7AU     AUL 2446   2.896   3.922   6.936
    7AU    AUSL 2447   2.331   3.928   7.210
    7AU    AUSL 2448   2.354   3.517   7.014
    7AU     AUL 2449   2.261   3.823   6.856
    7AU    AUSL 2450   2.670   2.391   6.981
    7AU    AUSL 2451   2.037   2.405   7.258
    7AU     AUL 2452   2.333   2.257   7.043
    7AU    AUSL 2453   2.877   2.415   7.381
    7AU    AUSL 2454   2.900   2.748   7.018
    7AU     AUL 2455   2.994   2.375   7.050
    7AU       S 2456   3.125   2.180   8.227
    7AU     LIG 2457   3.172   1.946   8.352
    7AU     LIG 2458   3.294   1.786   8.479
    7AU     LIG 2459   3.452   1.609   8.590
    7AU       S 2460   3.159   2.970   8.719
    7AU     LIG 2461   3.322   3.028   8.921
    7AU     LIG 2462   3.412   3.084   9.146
    7AU     LIG 2463   3.518   3.051   9.383
    7AU       S 2464   2.837   2.777   8.725
    7AU     LIG 2465   2.893   2.683   9.005
    7AU     LIG 2466   3.059   2.699   9.203
    7AU     LIG 2467   3.193   2.654   9.419
    7AU       S 2468   2.212   3.267   8.757
    7AU     LIG 2469   2.175   3.291   9.059
    7AU     LIG 2470   2.057   3.276   9.261
    7AU     LIG 2471   1.909   3.253   9.479
    7AU       S 2472   2.737   3.701   8.566
    7AU     LIG 2473   2.854   3.838   8.771
    7AU     LIG 2474   3.067   3.758   8.933
    7AU     LIG 2475   3.290   3.632   8.947
    7AU       S 2476   3.429   3.593   8.334
    7AU     LIG 2477   3.612   3.633   8.555
    7AU     LIG 2478   3.752   3.790   8.669
    7AU     LIG 2479   3.928   3.966   8.744
    7AU       S 2480   3.030   3.222   6.306
    7AU     LIG 2481   3.245   3.277   6.093
    7AU     LIG 2482   3.379   3.111   5.955
    7AU     LIG 2483   3.439   2.920   5.795
    7AU       S 2484   3.245   3.922   6.652
    7AU     LIG 2485   3.291   4.115   6.462
    7AU     LIG 2486   3.454   4.205   6.288
    7AU     LIG 2487   3.619   4.296   6.123
    7AU       S 2488   3.505   2.633   6.768
    7AU     LIG 2489   3.667   2.546   6.527
    7AU     LIG 2490   3.681   2.327   6.388
    7AU     LIG 2491   3.697   2.072   6.348
    7AU       S 2492   2.951   2.927   6.240
    7AU     LIG 2493   2.973   2.803   6.011
    7AU     LIG 2494   2.960   2.730   5.771
    7AU     LIG 2495   3.031   2.710   5.521
    7AU       S 2496   2.217   2.987   6.303
    7AU     LIG 2497   2.272   2.954   6.024
    7AU     LIG 2498   2.278   2.900   5.795
    7AU     LIG 2499   2.202   2.859   5.540
    7AU       S 2500   2.787   3.368   6.264
    7AU     LIG 2501   2.688   3.302   5.973
    7AU     LIG 2502   2.830   3.227   5.780
    7AU     LIG 2503   3.023   3.219   5.607
    7AU       S 2504   1.936   3.355   8.643
    7AU     LIG 2505   1.725   3.330   8.819
    7AU     LIG 2506   1.671   3.114   8.977
    7AU     LIG 2507   1.601   2.982   9.166
    7AU       S 2508   1.967   3.913   8.268
    7AU     LIG 2509   1.881   4.068   8.501
    7AU     LIG 2510   1.740   4.079   8.694
    7AU     LIG 2511   1.571   4.168   8.877
    7AU       S 2512   1.690   2.647   8.284
    7AU     LIG 2513   1.444   2.578   8.381
    7AU     LIG 2514   1.299   2.386   8.457
    7AU     LIG 2515   1.172   2.204   8.575
    7AU       S 2516   2.261   2.975   8.684
    7AU     LIG 2517   2.184   2.799   8.887
    7AU     LIG 2518   2.071   2.779   9.105
    7AU     LIG 2519   2.026   2.765   9.361
    7AU       S 2520   1.955   2.899   6.418
    7AU     LIG 2521   1.776   2.829   6.208
    7AU     LIG 2522   1.765   2.900   5.957
    7AU     LIG 2523   1.753   3.010   5.737
    7AU       S 2524   1.989   2.351   6.745
    7AU     LIG 2525   1.915   2.164   6.540
    7AU     LIG 2526   1.757   2.122   6.354
    7AU     LIG 2527   1.573   2.073   6.184
    7AU       S 2528   1.619   3.577   6.798
    7AU     LIG 2529   1.412   3.746   6.744
    7AU     LIG 2530   1.360   3.945   6.588
    7AU     LIG 2531   1.336   4.068   6.367
    7AU       S 2532   2.117   3.255   6.393
    7AU     LIG 2533   1.950   3.356   6.139
    7AU     LIG 2534   2.033   3.393   5.913
    7AU     LIG 2535   2.141   3.373   5.679
    7AU       S 2536   3.476   3.736   6.708
    7AU     LIG 2537   3.691   3.782   6.537
    7AU     LIG 2538   3.848   3.894   6.389
    7AU     LIG 2539   4.029   4.013   6.245
    7AU       S 2540   3.728   3.712   7.556
    7AU     LIG 2541   3.941   3.916   7.540
    7AU     LIG 2542   4.185   3.960   7.511
    7AU     LIG 2543   4.438   4.023   7.532
    7AU       S 2544   3.904   3.413   7.388
    7AU     LIG 2545   4.173   3.484   7.293
    7AU     LIG 2546   4.413   3.550   7.306
    7AU     LIG 2547   4.635   3.664   7.226
    7AU       S 2548   3.768   2.534   7.790
    7AU     LIG 2549   4.003   2.432   7.920
    7AU     LIG 2550   4.256   2.427   7.859
    7AU     LIG 2551   4.505   2.395   7.780
    7AU       S 2552   3.465   3.841   8.127
    7AU     LIG 2553   3.660   4.018   8.210
    7AU     LIG 2554   3.705   4.217   8.357
    7AU     LIG 2555   3.724   4.396   8.540
    7AU       S 2556   3.875   3.445   7.663
    7AU     LIG 2557   4.113   3.516   7.814
    7AU     LIG 2558   4.350   3.583   7.811
    7AU     LIG 2559   4.580   3.673   7.878
    7AU       S 2560   1.801   3.690   8.203
    7AU     LIG 2561   1.562   3.682   8.380
    7AU     LIG 2562   1.376   3.821   8.444
    7AU     LIG 2563   1.200   3.940   8.594
    7AU       S 2564   1.968   4.114   7.463
    7AU     LIG 2565   1.808   4.322   7.335
    7AU     LIG 2566   1.562   4.302   7.239
    7AU     LIG 2567   1.374   4.145   7.123
    7AU       S 2568   1.404   3.333   7.139
    7AU     LIG 2569   1.166   3.338   7.071
    7AU     LIG 2570   0.911   3.414   7.141
    7AU     LIG 2571   0.766   3.627   7.163
    7AU       S 2572   1.834   3.987   6.929
    7AU     LIG 2573   1.761   4.195   6.787
    7AU     LIG 2574   1.619   4.374   6.702
    7AU     LIG 2575   1.488   4.529   6.537
    7AU       S 2576   1.315   2.929   7.449
    7AU     LIG 2577   1.038   2.919   7.337
    7AU     LIG 2578   0.795   2.901   7.332
    7AU     LIG 2579   0.561   2.780   7.284
    7AU       S 2580   1.506   3.248   8.097
    7AU     LIG 2581   1.193   3.352   8.182
    7AU     LIG 2582   1.076   3.564   8.094
    7AU     LIG 2583   0.896   3.711   7.968
    7AU       S 2584   3.498   2.364   7.606
    7AU     LIG 2585   3.632   2.062   7.622
    7AU     LIG 2586   3.860   1.996   7.697
    7AU     LIG 2587   4.131   1.982   7.655
    7AU       S 2588   3.342   2.303   8.066
    7AU     LIG 2589   3.589   2.167   8.105
    7AU     LIG 2590   3.719   2.079   8.287
    7AU     LIG 2591   3.766   2.009   8.537
    7AU       S 2592   3.755   2.514   7.519
    7AU     LIG 2593   3.978   2.392   7.383
    7AU     LIG 2594   4.219   2.393   7.343
    7AU     LIG 2595   4.460   2.321   7.280
    7AU       S 2596   3.447   2.371   6.925
    7AU     LIG 2597   3.512   2.111   6.822
    7AU     LIG 2598   3.385   1.888   6.774
    7AU     LIG 2599   3.344   1.669   6.659
    7AU       S 2600   1.812   2.546   6.817
    7AU     LIG 2601   1.579   2.556   6.620
    7AU     LIG 2602   1.402   2.439   6.527
    7AU     LIG 2603   1.196   2.281   6.465
    7AU       S 2604   1.397   2.638   7.583
    7AU     LIG 2605   1.180   2.472   7.588
    7AU     LIG 2606   0.953   2.424   7.482
    7AU     LIG 2607   0.720   2.320   7.441
    7AU       S 2608   1.809   2.417   8.082
    7AU     LIG 2609   1.633   2.209   8.068
    7AU     LIG 2610   1.513   2.023   8.174
    7AU     LIG 2611   1.380   1.837   8.287
    7AU       S 2612   1.339   2.933   7.713
    7AU     LIG 2613   1.105   2.905   7.888
    7AU     LIG 2614   0.866   2.813   7.835
    7AU     LIG 2615   0.657   2.678   7.809
    7AU       S 2616   2.008   4.132   7.989
    7AU     LIG 2617   1.773   4.321   8.062
    7AU     LIG 2618   1.548   4.284   8.206
    7AU     LIG 2619   1.416   4.361   8.412
    7AU       S 2620   2.751   4.318   8.053
    7AU     LIG 2621   2.862   4.505   8.255
    7AU     LIG 2622   2.750   4.695   8.380
    7AU     LIG 2623   2.605   4.896   8.444
    7AU       S 2624   2.513   4.453   7.925
    7AU     LIG 2625   2.424   4.678   7.968
    7AU     LIG 2626   2.398   4.937   7.984
    7AU     LIG 2627   2.407   5.188   8.012
    7AU       S 2628   2.678   4.296   7.131
    7AU     LIG 2629   2.744   4.565   7.146
    7AU     LIG 2630   2.778   4.797   7.130
    7AU     LIG 2631   2.841   5.040   7.042
    7AU       S 2632   3.188   3.808   8.364
    7AU     LIG 2633   3.263   4.027   8.543
    7AU     LIG 2634   3.364   4.108   8.736
    7AU     LIG 2635   3.490   4.126   8.967
    7AU       S 2636   2.890   4.369   7.734
    7AU     LIG 2637   2.922   4.642   7.718
    7AU     LIG 2638   2.897   4.852   7.875
    7AU     LIG 2639   2.909   5.036   8.040
    7AU       S 2640   2.611   1.959   8.062
    7AU     LIG 2641   2.730   1.753   8.213
    7AU     LIG 2642   2.718   1.546   8.334
    7AU     LIG 2643   2.699   1.309   8.434
    7AU       S 2644   3.094   2.192   7.902
    7AU     LIG 2645   3.198   1.888   7.827
    7AU     LIG 2646   3.358   1.754   7.925
    7AU     LIG 2647   3.570   1.654   8.057
    7AU       S 2648   2.359   1.873   7.896
    7AU     LIG 2649   2.310   1.606   7.918
    7AU     LIG 2650   2.332   1.388   8.033
    7AU     LIG 2651   2.322   1.150   8.129
    7AU       S 2652   1.953   2.499   8.386
    7AU     LIG 2653   1.826   2.281   8.570
    7AU     LIG 2654   1.689   2.107   8.640
    7AU     LIG 2655   1.552   1.913   8.762
    7AU       S 2656   2.677   1.969   7.221
    7AU     LIG 2657   2.616   1.641   7.210
    7AU     LIG 2658   2.601   1.445   7.090
    7AU     LIG 2659   2.601   1.178   7.027
    7AU       S 2660   2.691   1.922   7.758
    7AU     LIG 2661   2.791   1.620   7.712
    7AU     LIG 2662   2.804   1.423   7.838
    7AU     LIG 2663   2.798   1.177   7.941
    7AU       S 2664   2.530   4.216   6.835
    7AU     LIG 2665   2.536   4.445   6.681
    7AU     LIG 2666   2.659   4.661   6.641
    7AU     LIG 2667   2.725   4.895   6.564
    7AU       S 2668   3.369   3.992   6.958
    7AU     LIG 2669   3.567   4.196   6.901
    7AU     LIG 2670   3.726   4.270   6.721
    7AU     LIG 2671   3.874   4.392   6.558
    7AU       S 2672   2.327   4.237   7.112
    7AU     LIG 2673   2.215   4.515   7.085
    7AU     LIG 2674   2.272   4.741   6.998
    7AU     LIG 2675   2.346   4.966   6.907
    7AU       S 2676   1.889   3.647   6.654
    7AU     LIG 2677   1.829   3.782   6.415
    7AU     LIG 2678   1.839   4.012   6.319
    7AU     LIG 2679   1.812   4.251   6.239
    7AU       S 2680   1.834   2.315   7.029
    7AU     LIG 2681   1.577   2.142   6.950
    7AU     LIG 2682   1.490   2.000   6.784
    7AU     LIG 2683   1.404   1.827   6.606
    7AU       S 2684   2.747   2.008   6.941
    7AU     LIG 2685   2.864   1.829   6.769
    7AU     LIG 2686   2.837   1.619   6.646
    7AU     LIG 2687   2.761   1.381   6.582
    7AU       S 2688   2.940   2.009   7.324
    7AU     LIG 2689   3.104   1.768   7.293
    7AU     LIG 2690   3.111   1.562   7.128
    7AU     LIG 2691   3.096   1.345   6.984
    7AU       S 2692   3.201   2.518   6.673
    7AU     LIG 2693   3.187   2.340   6.470
    7AU     LIG 2694   3.177   2.112   6.376
    7AU     LIG 2695   3.228   1.909   6.221
    8AU     AUC 2696  37.145  11.515   7.535
    8AU     AUC 2697  37.397  11.520   7.369
    8AU     AUC 2698  37.386  11.507   7.699
    8AU     AUC 2699  36.875  11.523   7.380
    8AU     AUC 2700  36.901  11.552   7.705
    8AU     AUC 2701  36.984  11.768   7.513
    8AU     AUC 2702  37.331  11.780   7.516
    8AU     AUC 2703  36.966  11.261   7.543
    8AU     AUC 2704  37.297  11.239   7.545
    8AU     AUC 2705  37.139  11.355   7.798
    8AU     AUC 2706  37.158  11.695   7.779
    8AU     AUC 2707  37.132  11.342   7.287
    8AU     AUC 2708  37.152  11.648   7.271
    8AU     AUC 2709  37.700  11.511   7.204
    8AU     AUC 2710  37.708  11.491   7.545
    8AU     AUC 2711  37.666  11.478   7.899
    8AU     AUC 2712  36.573  11.497   7.228
    8AU     AUC 2713  36.572  11.556   7.556
    8AU     AUC 2714  36.601  11.595   7.888
    8AU     AUC 2715  36.819  12.081   7.474
    8AU     AUC 2716  37.179  12.055   7.457
    8AU     AUC 2717  37.545  12.043   7.487
    8AU     AUC 2718  36.762  10.972   7.548
    8AU     AUC 2719  37.113  10.948   7.529
    8AU     AUC 2720  37.469  10.937   7.546
    8AU     AUC 2721  37.098  11.189   8.101
    8AU     AUC 2722  37.135  11.531   8.101
    8AU     AUC 2723  37.192  11.895   8.062
    8AU     AUC 2724  37.163  11.152   6.997
    8AU     AUC 2725  37.111  11.493   6.973
    8AU     AUC 2726  37.108  11.816   6.957
    8AU     AUC 2727  37.380  11.293   8.012
    8AU     AUC 2728  37.436  11.669   7.987
    8AU     AUC 2729  37.435  11.355   7.072
    8AU     AUC 2730  37.400  11.667   7.079
    8AU     AUC 2731  36.846  11.413   8.000
    8AU     AUC 2732  36.893  11.763   7.971
    8AU     AUC 2733  36.857  11.312   7.103
    8AU     AUC 2734  36.811  11.640   7.083
    8AU     AUC 2735  37.638  11.783   7.346
    8AU     AUC 2736  37.604  11.780   7.705
    8AU     AUC 2737  36.679  11.795   7.383
    8AU     AUC 2738  36.724  11.861   7.713
    8AU     AUC 2739  37.601  11.232   7.407
    8AU     AUC 2740  37.549  11.186   7.739
    8AU     AUC 2741  36.680  11.209   7.373
    8AU     AUC 2742  36.706  11.283   7.716
    8AU     AUC 2743  37.044  12.013   7.782
    8AU     AUC 2744  37.383  11.968   7.793
    8AU     AUC 2745  36.931  11.080   7.817
    8AU     AUC 2746  37.249  11.027   7.809
    8AU     AUC 2747  36.954  11.946   7.215
    8AU     AUC 2748  37.319  11.962   7.226
    8AU     AUC 2749  36.985  11.048   7.258
    8AU     AUC 2750  37.345  11.093   7.274
    8AU    AUSL 2751  37.644  11.383   8.316
    8AU    AUSL 2752  37.394  11.010   8.222
    8AU     AUL 2753  37.701  11.011   8.389
    8AU    AUSL 2754  37.229  11.325   8.460
    8AU    AUSL 2755  36.991  11.734   8.451
    8AU     AUL 2756  37.227  11.609   8.710
    8AU    AUSL 2757  37.328  11.682   8.204
    8AU    AUSL 2758  37.779  11.741   8.126
    8AU     AUL 2759  37.597  11.706   8.435
    8AU    AUSL 2760  37.552  11.543   6.840
    8AU    AUSL 2761  37.413  11.939   6.981
    8AU     AUL 2762  37.627  11.871   6.681
    8AU    AUSL 2763  37.364  11.221   6.612
    8AU    AUSL 2764  37.871  11.291   6.982
    8AU     AUL 2765  37.739  11.365   6.665
    8AU    AUSL 2766  37.196  11.725   6.670
    8AU    AUSL 2767  37.018  11.339   6.829
    8AU     AUL 2768  37.149  11.418   6.524
    8AU    AUSL 2769  36.607  11.696   8.243
    8AU    AUSL 2770  36.970  12.005   8.111
    8AU     AUL 2771  36.807  11.973   8.412
    8AU    AUSL 2772  36.908  11.383   8.191
    8AU    AUSL 2773  36.459  11.306   8.105
    8AU     AUL 2774  36.516  11.395   8.341
    8AU    AUSL 2775  36.582  11.321   6.795
    8AU    AUSL 2776  36.831  10.971   6.947
    8AU     AUL 2777  36.855  11.057   6.641
    8AU    AUSL 2778  36.768  11.689   6.675
    8AU    AUSL 2779  36.488  11.670   7.050
    8AU     AUL 2780  36.371  11.551   6.776
    8AU    AUSL 2781  37.936  11.978   7.476
    8AU    AUSL 2782  37.811  11.768   7.096
    8AU     AUL 2783  38.106  11.973   7.128
    8AU    AUSL 2784  38.101  11.582   7.367
    8AU    AUSL 2785  38.050  11.284   7.768
    8AU     AUL 2786  38.312  11.368   7.571
    8AU    AUSL 2787  37.823  11.637   7.718
    8AU    AUSL 2788  37.781  12.081   7.853
    8AU     AUL 2789  38.029  11.821   7.878
    8AU    AUSL 2790  36.570  12.158   7.522
    8AU    AUSL 2791  36.607  11.910   7.878
    8AU     AUL 2792  36.298  12.155   7.745
    8AU    AUSL 2793  36.369  11.779   7.444
    8AU    AUSL 2794  36.522  12.095   7.106
    8AU     AUL 2795  36.286  12.020   7.263
    8AU    AUSL 2796  36.242  11.701   7.888
    8AU    AUSL 2797  36.209  11.395   7.349
    8AU     AUL 2798  36.087  11.712   7.590
    8AU    AUSL 2799  37.828  10.935   7.615
    8AU    AUSL 2800  37.654  11.218   7.925
    8AU     AUL 2801  37.961  11.124   8.001
    8AU    AUSL 2802  37.786  11.305   7.397
    8AU    AUSL 2803  37.776  10.903   7.188
    8AU     AUL 2804  38.020  11.113   7.250
    8AU    AUSL 2805  36.362  11.016   7.553
    8AU    AUSL 2806  36.573  11.226   7.205
    8AU     AUL 2807  36.223  11.119   7.213
    8AU    AUSL 2808  36.479  11.417   7.694
    8AU    AUSL 2809  36.669  11.033   7.849
    8AU     AUL 2810  36.288  11.186   7.848
    8AU    AUSL 2811  37.211  12.341   7.966
    8AU    AUSL 2812  36.756  12.320   7.878
    8AU     AUL 2813  36.978  12.365   8.194
    8AU    AUSL 2814  37.043  12.196   7.591
    8AU    AUSL 2815  37.294  12.329   7.247
    8AU     AUL 2816  37.063  12.536   7.554
    8AU    AUSL 2817  37.481  12.272   7.623
    8AU    AUSL 2818  37.475  12.071   8.153
    8AU     AUL 2819  37.594  12.361   7.941
    8AU    AUSL 2820  37.069  10.875   7.970
    8AU    AUSL 2821  37.493  10.816   7.849
    8AU     AUL 2822  37.254  10.754   8.223
    8AU    AUSL 2823  36.761  10.653   7.699
    8AU    AUSL 2824  36.789  10.990   8.274
    8AU     AUL 2825  36.797  10.692   8.050
    8AU    AUSL 2826  37.193  10.578   7.667
    8AU    AUSL 2827  36.986  10.823   7.362
    8AU     AUL 2828  36.869  10.478   7.487
    8AU    AUSL 2829  37.121  12.214   6.843
    8AU    AUSL 2830  37.693  12.192   7.199
    8AU     AUL 2831  37.437  12.302   6.936
    8AU    AUSL 2832  36.872  12.308   7.210
    8AU    AUSL 2833  36.895  11.897   7.014
    8AU     AUL 2834  36.802  12.203   6.856
    8AU    AUSL 2835  37.211  10.771   6.981
    8AU    AUSL 2836  36.578  10.785   7.258
    8AU     AUL 2837  36.874  10.637   7.043
    8AU    AUSL 2838  37.418  10.795   7.381
    8AU    AUSL 2839  37.441  11.128   7.018
    8AU     AUL 2840  37.535  10.755   7.050
    8AU       S 2841  37.666  10.560   8.227
    8AU     LIG 2842  37.713  10.326   8.352
    8AU     LIG 2843  37.835  10.166   8.479
    8AU     LIG 2844  37.993   9.989   8.590
    8AU       S 2845  37.700  11.350   8.719
    8AU     LIG 2846  37.863  11.408   8.921
    8AU     LIG 2847  37.953  11.464   9.146
    8AU     LIG 2848  38.059  11.431   9.383
    8AU       S 2849  37.378  11.157   8.725
    8AU     LIG 2850  37.434  11.063   9.005
    8AU     LIG 2851  37.600  11.079   9.203
    8AU     LIG 2852  37.734  11.034   9.419
    8AU       S 2853  36.753  11.647   8.757
    8AU     LIG 2854  36.716  11.671   9.059
    8AU     LIG 2855  36.598  11.656   9.261
    8AU     LIG 2856  36.450  11.633   9.479
    8AU       S 2857  37.278  12.081   8.566
    8AU     LIG 2858  37.395  12.218   8.771
    8AU     LIG 2859  37.608  12.138   8.933
    8AU     LIG 2860  37.831  12.012   8.947
    8AU       S 2861  37.970  11.973   8.334
    8AU     LIG 2862  38.153  12.013   8.555
    8AU     LIG 2863  38.293  12.170   8.669
    8AU     LIG 2864  38.469  12.346   8.744
    8AU       S 2865  37.571  11.602   6.306
    8AU     LIG 2866  37.786  11.657   6.093
    8AU     LIG 2867  37.920  11.491   5.955
    8AU     LIG 2868  37.980  11.300   5.795
    8AU       S 2869  37.786  12.302   6.652
    8AU     LIG 2870  37.832  12.495   6.462
    8AU     LIG 2871  37.995  12.585   6.288
    8AU     LIG 2872  38.160  12.676   6.123
    8AU       S 2873  38.046  11.013   6.768
    8AU     LIG 2874  38.208  10.926   6.527
    8AU     LIG 2875  38.222  10.707   6.388
    8AU     LIG 2876  38.238  10.452   6.348
    8AU       S 2877  37.492  11.307   6.240
    8AU     LIG 2878  37.514  11.183   6.011
    8AU     LIG 2879  37.501  11.110   5.771
    8AU     LIG 2880  37.572  11.090   5.521
    8AU       S 2881  36.758  11.367   6.303
    8AU     LIG 2882  36.813  11.334   6.024
    8AU     LIG 2883  36.819  11.280   5.795
    8AU     LIG 2884  36.743  11.239   5.540
    8AU       S 2885  37.328  11.748   6.264
    8AU     LIG 2886  37.229  11.682   5.973
    8AU     LIG 2887  37.371  11.607   5.780
    8AU     LIG 2888  37.564  11.599   5.607
    8AU       S 2889  36.477  11.735   8.643
    8AU     LIG 2890  36.266  11.710   8.819
    8AU     LIG 2891  36.212  11.494   8.977
    8AU     LIG 2892  36.142  11.362   9.166
    8AU       S 2893  36.508  12.293   8.268
    8AU     LIG 2894  36.422  12.448   8.501
    8AU     LIG 2895  36.281  12.459   8.694
    8AU     LIG 2896  36.112  12.548   8.877
    8AU       S 2897  36.231  11.027   8.284
    8AU     LIG 2898  35.985  10.958   8.381
    8AU     LIG 2899  35.840  10.766   8.457
    8AU     LIG 2900  35.713  10.584   8.575
    8AU       S 2901  36.802  11.355   8.684
    8AU     LIG 2902  36.725  11.179   8.887
    8AU     LIG 2903  36.612  11.159   9.105
    8AU     LIG 2904  36.567  11.145   9.361
    8AU       S 2905  36.496  11.279   6.418
    8AU     LIG 2906  36.317  11.209   6.208
    8AU     LIG 2907  36.306  11.280   5.957
    8AU     LIG 2908  36.294  11.390   5.737
    8AU       S 2909  36.530  10.731   6.745
    8AU     LIG 2910  36.456  10.544   6.540
    8AU     LIG 2911  36.298  10.502   6.354
    8AU     LIG 2912  36.114  10.453   6.184
    8AU       S 2913  36.160  11.957   6.798
    8AU     LIG 2914  35.953  12.126   6.744
    8AU     LIG 2915  35.901  12.325   6.588
    8AU     LIG 2916  35.877  12.448   6.367
    8AU       S 2917  36.658  11.635   6.393
    8AU     LIG 2918  36.491  11.736   6.139
    8AU     LIG 2919  36.574  11.773   5.913
    8AU     LIG 2920  36.682  11.753   5.679
    8AU       S 2921  38.017  12.116   6.708
    8AU     LIG 2922  38.232  12.162   6.537
    8AU     LIG 2923  38.389  12.274   6.389
    8AU     LIG 2924  38.570  12.393   6.245
    8AU       S 2925  38.269  12.092   7.556
    8AU     LIG 2926  38.482  12.296   7.540
    8AU     LIG 2927  38.726  12.340   7.511
    8AU     LIG 2928  38.979  12.403   7.532
    8AU       S 2929  38.445  11.793   7.388
    8AU     LIG 2930  38.714  11.864   7.293
    8AU     LIG 2931  38.954  11.930   7.306
    8AU     LIG 2932  39.176  12.044   7.226
    8AU       S 2933  38.309  10.914   7.790
    8AU     LIG 2934  38.544  10.812   7.920
    8AU     LIG 2935  38.797  10.807   7.859
    8AU     LIG 2936  39.046  10.775   7.780
    8AU       S 2937  38.006  12.221   8.127
    8AU     LIG 2938  38.201  12.398   8.210
    8AU     LIG 2939  38.246  12.597   8.357
    8AU     LIG 2940  38.265  12.776   8.540
    8AU       S 2941  38.416  11.825   7.663
    8AU     LIG 2942  38.654  11.896   7.814
    8AU     LIG 2943  38.891  11.963   7.811
    8AU     LIG 2944  39.121  12.053   7.878
    8AU       S 2945  36.342  12.070   8.203
    8AU     LIG 2946  36.103  12.062   8.380
    8AU     LIG 2947  35.917  12.201   8.444
    8AU     LIG 2948  35.741  12.320   8.594
    8AU       S 2949  36.509  12.494   7.463
    8AU     LIG 2950  36.349  12.702   7.335
    8AU     LIG 2951  36.103  12.682   7.239
    8AU     LIG 2952  35.915  12.525   7.123
    8AU       S 2953  35.945  11.713   7.139
    8AU     LIG 2954  35.707  11.718   7.071
    8AU     LIG 2955  35.452  11.794   7.141
    8AU     LIG 2956  35.307  12.007   7.163
    8AU       S 2957  36.375  12.367   6.929
    8AU     LIG 2958  36.302  12.575   6.787
    8AU     LIG 2959  36.160  12.754   6.702
    8AU     LIG 2960  36.029  12.909   6.537
    8AU       S 2961  35.856  11.309   7.449
    8AU     LIG 2962  35.579  11.299   7.337
    8AU     LIG 2963  35.336  11.281   7.332
    8AU     LIG 2964  35.102  11.160   7.284
    8AU       S 2965  36.047  11.628   8.097
    8AU     LIG 2966  35.734  11.732   8.182
    8AU     LIG 2967  35.617  11.944   8.094
    8AU     LIG 2968  35.437  12.091   7.968
    8AU       S 2969  38.039  10.744   7.606
    8AU     LIG 2970  38.173  10.442   7.622
    8AU     LIG 2971  38.401  10.376   7.697
    8AU     LIG 2972  38.672  10.362   7.655
    8AU       S 2973  37.883  10.683   8.066
    8AU     LIG 2974  38.130  10.547   8.105
    8AU     LIG 2975  38.260  10.459   8.287
    8AU     LIG 2976  38.307  10.389   8.537
    8AU       S 2977  38.296  10.894   7.519
    8AU     LIG 2978  38.519  10.772   7.383
    8AU     LIG 2979  38.760  10.773   7.343
    8AU     LIG 2980  39.001  10.701   7.280
    8AU       S 2981  37.988  10.751   6.925
    8AU     LIG 2982  38.053  10.491   6.822
    8AU     LIG 2983  37.926  10.268   6.774
    8AU     LIG 2984  37.885  10.049   6.659
    8AU       S 2985  36.353  10.926   6.817
    8AU     LIG 2986  36.120  10.936   6.620
    8AU     LIG 2987  35.943  10.819   6.527
    8AU     LIG 2988  35.737  10.661   6.465
    8AU       S 2989  35.938  11.018   7.583
    8AU     LIG 2990  35.721  10.852   7.588
    8AU     LIG 2991  35.494  10.804   7.482
    8AU     LIG 2992  35.261  10.700   7.441
    8AU       S 2993  36.350  10.797   8.082
    8AU     LIG 2994  36.174  10.589   8.068
    8AU     LIG 2995  36.054  10.403   8.174
    8AU     LIG 2996  35.921  10.217   8.287
    8AU       S 2997  35.880  11.313   7.713
    8AU     LIG 2998  35.646  11.285   7.888
    8AU     LIG 2999  35.407  11.193   7.835
    8AU     LIG 3000  35.198  11.058   7.809
    8AU       S 3001  36.549  12.512   7.989
    8AU     LIG 3002  36.314  12.701   8.062
    8AU     LIG 3003  36.089  12.664   8.206
    8AU     LIG 3004  35.957  12.741   8.412
    8AU       S 3005  37.292  12.698   8.053
    8AU     LIG 3006  37.403  12.885   8.255
    8AU     LIG 3007  37.291  13.075   8.380
    8AU     LIG 3008  37.146  13.276   8.444
    8AU       S 3009  37.054  12.833   7.925
    8AU     LIG 3010  36.965  13.058   7.968
    8AU     LIG 3011  36.939  13.317   7.984
    8AU     LIG 3012  36.948  13.568   8.012
    8AU       S 3013  37.219  12.676   7.131
    8AU     LIG 3014  37.285  12.945   7.146
    8AU     LIG 3015  37.319  13.177   7.130
    8AU     LIG 3016  37.382  13.420   7.042
    8AU       S 3017  37.729  12.188   8.364
    8AU     LIG 3018  37.804  12.407   8.543
    8AU     LIG 3019  37.905  12.488   8.736
    8AU     LIG 3020  38.031  12.506   8.967
    8AU       S 3021  37.431  12.749   7.734
    8AU     LIG 3022  37.463  13.022   7.718
    8AU     LIG 3023  37.438  13.232   7.875
    8AU     LIG 3024  37.450  13.416   8.040
    8AU       S 3025  37.152  10.339   8.062
    8AU     LIG 3026  37.271  10.133   8.213
    8AU     LIG 3027  37.259   9.926   8.334
    8AU     LIG 3028  37.240   9.689   8.434
    8AU       S 3029  37.635  10.572   7.902
    8AU     LIG 3030  37.739  10.268   7.827
    8AU     LIG 3031  37.899  10.134   7.925
    8AU     LIG 3032  38.111  10.034   8.057
    8AU       S 3033  36.900  10.253   7.896
    8AU     LIG 3034  36.851   9.986   7.918
    8AU     LIG 3035  36.873   9.768   8.033
    8AU     LIG 3036  36.863   9.530   8.129
    8AU       S 3037  36.494  10.879   8.386
    8AU     LIG 3038  36.367  10.661   8.570
    8AU     LIG 3039  36.230  10.487   8.640
    8AU     LIG 3040  36.093  10.293   8.762
    8AU       S 3041  37.218  10.349   7.221
    8AU     LIG 3042  37.157  10.021   7.210
    8AU     LIG 3043  37.142   9.825   7.090
    8AU     LIG 3044  37.142   9.558   7.027
    8AU       S 3045  37.232  10.302   7.758
    8AU     LIG 3046  37.332  10.000   7.712
    8AU     LIG 3047  37.345   9.803   7.838
    8AU     LIG 3048  37.339   9.557   7.941
    8AU       S 3049  37.071  12.596   6.835
    8AU     LIG 3050  37.077  12.825   6.681
    8AU     LIG 3051  37.200  13.041   6.641
    8AU     LIG 3052  37.266  13.275   6.564
    8AU       S 3053  37.910  12.372   6.958
    8AU     LIG 3054  38.108  12.576   6.901
    8AU     LIG 3055  38.267  12.650   6.721
    8AU     LIG 3056  38.415  12.772   6.558
    8AU       S 3057  36.868  12.617   7.112
    8AU     LIG 3058  36.756  12.895   7.085
    8AU     LIG 3059  36.813  13.121   6.998
    8AU     LIG 3060  36.887  13.346   6.907
    8AU       S 3061  36.430  12.027   6.654
    8AU     LIG 3062  36.370  12.162   6.415
    8AU     LIG 3063  36.380  12.392   6.319
    8AU     LIG 3064  36.353  12.631   6.239
    8AU       S 3065  36.375  10.695   7.029
    8AU     LIG 3066  36.118  10.522   6.950
    8AU     LIG 3067  36.031  10.380   6.784
    8AU     LIG 3068  35.945  10.207   6.606
    8AU       S 3069  37.288  10.388   6.941
    8AU     LIG 3070  37.405  10.209   6.769
    8AU     LIG 3071  37.378   9.999   6.646
    8AU     LIG 3072  37.302   9.761   6.582
    8AU       S 3073  37.481  10.389   7.324
    8AU     LIG 3074  37.645  10.148   7.293
    8AU     LIG 3075  37.652   9.942   7.128
    8AU     LIG 3076  37.637   9.725   6.984
    8AU       S 3077  37.742  10.898   6.673
    8AU     LIG 3078  37.728  10.720   6.470
    8AU     LIG 3079  37.718  10.492   6.376
    8AU     LIG 3080  37.769  10.289   6.221
    9AU     AUC 3081  13.153  35.086   7.535
    9AU     AUC 3082  13.405  35.091   7.369
    9AU     AUC 3083  13.394  35.078   7.699
    9AU     AUC 3084  12.883  35.094   7.380
    9AU     AUC 3085  12.909  35.123   7.705
    9AU     AUC 3086  12.992  35.339   7.513
    9AU     AUC 3087  13.339  35.351   7.516
    9AU     AUC 3088  12.974  34.832   7.543
    9AU     AUC 3089  13.305  34.810   7.545
    9AU     AUC 3090  13.147  34.926   7.798
    9AU     AUC 3091  13.166  35.266   7.779
    9AU     AUC 3092  13.140  34.913   7.287
    9AU     AUC 3093  13.160  35.219   7.271
    9AU     AUC 3094  13.708  35.082   7.204
    9AU     AUC 3095  13.716  35.062   7.545
    9AU     AUC 3096  13.674  35.049   7.899
    9AU     AUC 3097  12.581  35.068   7.228
    9AU     AUC 3098  12.580  35.127   7.556
    9AU     AUC 3099  12.609  35.166   7.888
    9AU     AUC 3100  12.827  35.652   7.474
    9AU     AUC 3101  13.187  35.626   7.457
    9AU     AUC 3102  13.553  35.614   7.487
    9AU     AUC 3103  12.770  34.543   7.548
    9AU     AUC 3104  13.121  34.519   7.529
    9AU     AUC 3105  13.477  34.508   7.546
    9AU     AUC 3106  13.106  34.760   8.101
    9AU     AUC 3107  13.143  35.102   8.101
    9AU     AUC 3108  13.200  35.466   8.062
    9AU     AUC 3109  13.171  34.723   6.997
    9AU     AUC 3110  13.119  35.064   6.973
    9AU     AUC 3111  13.116  35.387   6.957
    9AU     AUC 3112  13.388  34.864   8.012
    9AU     AUC 3113  13.444  35.240   7.987
    9AU     AUC 3114  13.443  34.926   7.072
    9AU     AUC 3115  13.408  35.238   7.079
    9AU     AUC 3116  12.854  34.984   8.000
    9AU     AUC 3117  12.901  35.334   7.971
    9AU     AUC 3118  12.865  34.883   7.103
    9AU     AUC 3119  12.819  35.211   7.083
    9AU     AUC 3120  13.646  35.354   7.346
    9AU     AUC 3121  13.612  35.351   7.705
    9AU     AUC 3122  12.687  35.366   7.383
    9AU     AUC 3123  12.732  35.432   7.713
    9AU     AUC 3124  13.609  34.803   7.407
    9AU     AUC 3125  13.557  34.757   7.739
    9AU     AUC 3126  12.688  34.780   7.373
    9AU     AUC 3127  12.714  34.854   7.716
    9AU     AUC 3128  13.052  35.584   7.782
    9AU     AUC 3129  13.391  35.539   7.793
    9AU     AUC 3130  12.939  34.651   7.817
    9AU     AUC 3131  13.257  34.598   7.809
    9AU     AUC 3132  12.962  35.517   7.215
    9AU     AUC 3133  13.327  35.533   7.226
    9AU     AUC 3134  12.993  34.619   7.258
    9AU     AUC 3135  13.353  34.664   7.274
    9AU    AUSL 3136  13.652  34.954   8.316
    9AU    AUSL 3137  13.402  34.581   8.222
    9AU     AUL 3138  13.709  34.582   8.389
    9AU    AUSL 3139  13.237  34.896   8.460
    9AU    AUSL 3140  12.999  35.305   8.451
    9AU     AUL 3141  13.235  35.180   8.710
    9AU    AUSL 3142  13.336  35.253   8.204
    9AU    AUSL 3143  13.787  35.312   8.126
    9AU     AUL 3144  13.605  35.277   8.435
    9AU    AUSL 3145  13.560  35.114   6.840
    9AU    AUSL 3146  13.421  35.510   6.981
    9AU     AUL 3147  13.635  35.442   6.681
    9AU    AUSL 3148  13.372  34.792   6.612
    9AU    AUSL 3149  13.879  34.862   6.982
    9AU     AUL 3150  13.747  34.936   6.665
    9AU    AUSL 3151  13.204  35.296   6.670
    9AU    AUSL 3152  13.026  34.910   6.829
    9AU     AUL 3153  13.157  34.989   6.524
    9AU    AUSL 3154  12.615  35.267   8.243
    9AU    AUSL 3155  12.978  35.576   8.111
    9AU     AUL 3156  12.815  35.544   8.412
    9AU    AUSL 3157  12.916  34.954   8.191
    9AU    AUSL 3158  12.467  34.877   8.105
    9AU     AUL 3159  12.524  34.966   8.341
    9AU    AUSL 3160  12.590  34.892   6.795
    9AU    AUSL 3161  12.839  34.542   6.947
    9AU     AUL 3162  12.863  34.628   6.641
    9AU    AUSL 3163  12.776  35.260   6.675
    9AU    AUSL 3164  12.496  35.241   7.050
    9AU     AUL 3165  12.379  35.122   6.776
    9AU    AUSL 3166  13.944  35.549   7.476
    9AU    AUSL 3167  13.819  35.339   7.096
    9AU     AUL 3168  14.114  35.544   7.128
    9AU    AUSL 3169  14.109  35.153   7.367
    9AU    AUSL 3170  14.058  34.855   7.768
    9AU     AUL 3171  14.320  34.939   7.571
    9AU    AUSL 3172  13.831  35.208   7.718
    9AU    AUSL 3173  13.789  35.652   7.853
    9AU     AUL 3174  14.037  35.392   7.878
    9AU    AUSL 3175  12.578  35.729   7.522
    9AU    AUSL 3176  12.615  35.481   7.878
    9AU     AUL 3177  12.306  35.726   7.745
    9AU    AUSL 3178  12.377  35.350   7.444
    9AU    AUSL 3179  12.530  35.666   7.106
    9AU     AUL 3180  12.294  35.591   7.263
    9AU    AUSL 3181  12.250  35.272   7.888
    9AU    AUSL 3182  12.217  34.966   7.349
    9AU     AUL 3183  12.095  35.283   7.590
    9AU    AUSL 3184  13.836  34.506   7.615
    9AU    AUSL 3185  13.662  34.789   7.925
    9AU     AUL 3186  13.969  34.695   8.001
    9AU    AUSL 3187  13.794  34.876   7.397
    9AU    AUSL 3188  13.784  34.474   7.188
    9AU     AUL 3189  14.028  34.684   7.250
    9AU    AUSL 3190  12.370  34.587   7.553
    9AU    AUSL 3191  12.581  34.797   7.205
    9AU     AUL 3192  12.231  34.690   7.213
    9AU    AUSL 3193  12.487  34.988   7.694
    9AU    AUSL 3194  12.677  34.604   7.849
    9AU     AUL 3195  12.296  34.757   7.848
    9AU    AUSL 3196  13.219  35.912   7.966
    9AU    AUSL 3197  12.764  35.891   7.878
    9AU     AUL 3198  12.986  35.936   8.194
    9AU    AUSL 3199  13.051  35.767   7.591
    9AU    AUSL 3200  13.302  35.900   7.247
    9AU     AUL 3201  13.071  36.107   7.554
    9AU    AUSL 3202  13.489  35.843   7.623
    9AU    AUSL 3203  13.483  35.642   8.153
    9AU     AUL 3204  13.602  35.932   7.941
    9AU    AUSL 3205  13.077  34.446   7.970
    9AU    AUSL 3206  13.501  34.387   7.849
    9AU     AUL 3207  13.262  34.325   8.223
    9AU    AUSL 3208  12.769  34.224   7.699
    9AU    AUSL 3209  12.797  34.561   8.274
    9AU     AUL 3210  12.805  34.263   8.050
    9AU    AUSL 3211  13.201  34.149   7.667
    9AU    AUSL 3212  12.994  34.394   7.362
    9AU     AUL 3213  12.877  34.049   7.487
    9AU    AUSL 3214  13.129  35.785   6.843
    9AU    AUSL 3215  13.701  35.763   7.199
    9AU     AUL 3216  13.445  35.873   6.936
    9AU    AUSL 3217  12.880  35.879   7.210
    9AU    AUSL 3218  12.903  35.468   7.014
    9AU     AUL 3219  12.810  35.774   6.856
    9AU    AUSL 3220  13.219  34.342   6.981
    9AU    AUSL 3221  12.586  34.356   7.258
    9AU     AUL 3222  12.882  34.208   7.043
    9AU    AUSL 3223  13.426  34.366   7.381
    9AU    AUSL 3224  13.449  34.699   7.018
    9AU     AUL 3225  13.543  34.326   7.050
    9AU       S 3226  13.674  34.131   8.227
    9AU     LIG 3227  13.721  33.897   8.352
    9AU     LIG 3228  13.843  33.737   8.479
    9AU     LIG 3229  14.001  33.560   8.590
    9AU       S 3230  13.708  34.921   8.719
    9AU     LIG 3231  13.871  34.979   8.921
    9AU     LIG 3232  13.961  35.035   9.146
    9AU     LIG 3233  14.067  35.002   9.383
    9AU       S 3234  13.386  34.728   8.725
    9AU     LIG 3235  13.442  34.634   9.005
    9AU     LIG 3236  13.608  34.650   9.203
    9AU     LIG 3237  13.742  34.605   9.419
    9AU       S 3238  12.761  35.218   8.757
    9AU     LIG 3239  12.724  35.242   9.059
    9AU     LIG 3240  12.606  35.227   9.261
    9AU     LIG 3241  12.458  35.204   9.479
    9AU       S 3242  13.286  35.652   8.566
    9AU     LIG 3243  13.403  35.789   8.771
    9AU     LIG 3244  13.616  35.709   8.933
    9AU     LIG 3245  13.839  35.583   8.947
    9AU       S 3246  13.978  35.544   8.334
    9AU     LIG 3247  14.161  35.584   8.555
    9AU     LIG 3248  14.301  35.741   8.669
    9AU     LIG 3249  14.477  35.917   8.744
    9AU       S 3250  13.579  35.173   6.306
    9AU     LIG 3251  13.794  35.228   6.093
    9AU     LIG 3252  13.928  35.062   5.955
    9AU     LIG 3253  13.988  34.871   5.795
    9AU       S 3254  13.794  35.873   6.652
    9AU     LIG 3255  13.840  36.066   6.462
    9AU     LIG 3256  14.003  36.156   6.288
    9AU     LIG 3257  14.168  36.247   6.123
    9AU       S 3258  14.054  34.584   6.768
    9AU     LIG 3259  14.216  34.497   6.527
    9AU     LIG 3260  14.230  34.278   6.388
    9AU     LIG 3261  14.246  34.023   6.348
    9AU       S 3262  13.500  34.878   6.240
    9AU     LIG 3263  13.522  34.754   6.011
    9AU     LIG 3264  13.509  34.681   5.771
    9AU     LIG 3265  13.580  34.661   5.521
    9AU       S 3266  12.766  34.938   6.303
    9AU     LIG 3267  12.821  34.905   6.024
    9AU     LIG 3268  12.827  34.851   5.795
    9AU     LIG 3269  12.751  34.810   5.540
    9AU       S 3270  13.336  35.319   6.264
    9AU     LIG 3271  13.237  35.253   5.973
    9AU     LIG 3272  13.379  35.178   5.780
    9AU     LIG 3273  13.572  35.170   5.607
    9AU       S 3274  12.485  35.306   8.643
    9AU     LIG 3275  12.274  35.281   8.819
    9AU     LIG 3276  12.220  35.065   8.977
    9AU     LIG 3277  12.150  34.933   9.166
    9AU       S 3278  12.516  35.864   8.268
    9AU     LIG 3279  12.430  36.019   8.501
    9AU     LIG 3280  12.289  36.030   8.694
    9AU     LIG 3281  12.120  36.119   8.877
    9AU       S 3282  12.239  34.598   8.284
    9AU     LIG 3283  11.993  34.529   8.381
    9AU     LIG 3284  11.848  34.337   8.457
    9AU     LIG 3285  11.721  34.155   8.575
    9AU       S 3286  12.810  34.926   8.684
    9AU     LIG 3287  12.733  34.750   8.887
    9AU     LIG 3288  12.620  34.730   9.105
    9AU     LIG 3289  12.575  34.716   9.361
    9AU       S 3290  12.504  34.850   6.418
    9AU     LIG 3291  12.325  34.780   6.208
    9AU     LIG 3292  12.314  34.851   5.957
    9AU     LIG 3293  12.302  34.961   5.737
    9AU       S 3294  12.538  34.302   6.745
    9AU     LIG 3295  12.464  34.115   6.540
    9AU     LIG 3296  12.306  34.073   6.354
    9AU     LIG 3297  12.122  34.024   6.184
    9AU       S 3298  12.168  35.528   6.798
    9AU     LIG 3299  11.961  35.697   6.744
    9AU     LIG 3300  11.909  35.896   6.588
    9AU     LIG 3301  11.885  36.019   6.367
    9AU       S 3302  12.666  35.206   6.393
    9AU     LIG 3303  12.499  35.307   6.139
    9AU     LIG 3304  12.582  35.344   5.913
    9AU     LIG 3305  12.690  35.324   5.679
    9AU       S 3306  14.025  35.687   6.708
    9AU     LIG 3307  14.240  35.733   6.537
    9AU     LIG 3308  14.397  35.845   6.389
    9AU     LIG 3309  14.578  35.964   6.245
    9AU       S 3310  14.277  35.663   7.556
    9AU     LIG 3311  14.490  35.867   7.540
    9AU     LIG 3312  14.734  35.911   7.511
    9AU     LIG 3313  14.987  35.974   7.532
    9AU       S 3314  14.453  35.364   7.388
    9AU     LIG 3315  14.722  35.435   7.293
    9AU     LIG 3316  14.962  35.501   7.306
    9AU     LIG 3317  15.184  35.615   7.226
    9AU       S 3318  14.317  34.485   7.790
    9AU     LIG 3319  14.552  34.383   7.920
    9AU     LIG 3320  14.805  34.378   7.859
    9AU     LIG 3321  15.054  34.346   7.780
    9AU       S 3322  14.014  35.792   8.127
    9AU     LIG 3323  14.209  35.969   8.210
    9AU     LIG 3324  14.254  36.168   8.357
    9AU     LIG 3325  14.273  36.347   8.540
    9AU       S 3326  14.424  35.396   7.663
    9AU     LIG 3327  14.662  35.467   7.814
    9AU     LIG 3328  14.899  35.534   7.811
    9AU     LIG 3329  15.129  35.624   7.878
    9AU       S 3330  12.350  35.641   8.203
    9AU     LIG 3331  12.111  35.633   8.380
    9AU     LIG 3332  11.925  35.772   8.444
    9AU     LIG 3333  11.749  35.891   8.594
    9AU       S 3334  12.517  36.065   7.463
    9AU     LIG 3335  12.357  36.273   7.335
    9AU     LIG 3336  12.111  36.253   7.239
    9AU     LIG 3337  11.923  36.096   7.123
    9AU       S 3338  11.953  35.284   7.139
    9AU     LIG 3339  11.715  35.289   7.071
    9AU     LIG 3340  11.460  35.365   7.141
    9AU     LIG 3341  11.315  35.578   7.163
    9AU       S 3342  12.383  35.938   6.929
    9AU     LIG 3343  12.310  36.146   6.787
    9AU     LIG 3344  12.168  36.325   6.702
    9AU     LIG 3345  12.037  36.480   6.537
    9AU       S 3346  11.864  34.880   7.449
    9AU     LIG 3347  11.587  34.870   7.337
    9AU     LIG 3348  11.344  34.852   7.332
    9AU     LIG 3349  11.110  34.731   7.284
    9AU       S 3350  12.055  35.199   8.097
    9AU     LIG 3351  11.742  35.303   8.182
    9AU     LIG 3352  11.625  35.515   8.094
    9AU     LIG 3353  11.445  35.662   7.968
    9AU       S 3354  14.047  34.315   7.606
    9AU     LIG 3355  14.181  34.013   7.622
    9AU     LIG 3356  14.409  33.947   7.697
    9AU     LIG 3357  14.680  33.933   7.655
    9AU       S 3358  13.891  34.254   8.066
    9AU     LIG 3359  14.138  34.118   8.105
    9AU     LIG 3360  14.268  34.030   8.287
    9AU     LIG 3361  14.315  33.960   8.537
    9AU       S 3362  14.304  34.465   7.519
    9AU     LIG 3363  14.527  34.343   7.383
    9AU     LIG 3364  14.768  34.344   7.343
    9AU     LIG 3365  15.009  34.272   7.280
    9AU       S 3366  13.996  34.322   6.925
    9AU     LIG 3367  14.061  34.062   6.822
    9AU     LIG 3368  13.934  33.839   6.774
    9AU     LIG 3369  13.893  33.620   6.659
    9AU       S 3370  12.361  34.497   6.817
    9AU     LIG 3371  12.128  34.507   6.620
    9AU     LIG 3372  11.951  34.390   6.527
    9AU     LIG 3373  11.745  34.232   6.465
    9AU       S 3374  11.946  34.589   7.583
    9AU     LIG 3375  11.729  34.423   7.588
    9AU     LIG 3376  11.502  34.375   7.482
    9AU     LIG 3377  11.269  34.271   7.441
    9AU       S 3378  12.358  34.368   8.082
    9AU     LIG 3379  12.182  34.160   8.068
    9AU     LIG 3380  12.062  33.974   8.174
    9AU     LIG 3381  11.929  33.788   8.287
    9AU       S 3382  11.888  34.884   7.713
    9AU     LIG 3383  11.654  34.856   7.888
    9AU     LIG 3384  11.415  34.764   7.835
    9AU     LIG 3385  11.206  34.629   7.809
    9AU       S 3386  12.557  36.083   7.989
    9AU     LIG 3387  12.322  36.272   8.062
    9AU     LIG 3388  12.097  36.235   8.206
    9AU     LIG 3389  11.965  36.312   8.412
    9AU       S 3390  13.300  36.269   8.053
    9AU     LIG 3391  13.411  36.456   8.255
    9AU     LIG 3392  13.299  36.646   8.380
    9AU     LIG 3393  13.154  36.847   8.444
    9AU       S 3394  13.062  36.404   7.925
    9AU     LIG 3395  12.973  36.629   7.968
    9AU     LIG 3396  12.947  36.888   7.984
    9AU     LIG 3397  12.956  37.139   8.012
    9AU       S 3398  13.227  36.247   7.131
    9AU     LIG 3399  13.293  36.516   7.146
    9AU     LIG 3400  13.327  36.748   7.130
    9AU     LIG 3401  13.390  36.991   7.042
    9AU       S 3402  13.737  35.759   8.364
    9AU     LIG 3403  13.812  35.978   8.543
    9AU     LIG 3404  13.913  36.059   8.736
    9AU     LIG 3405  14.039  36.077   8.967
    9AU       S 3406  13.439  36.320   7.734
    9AU     LIG 3407  13.471  36.593   7.718
    9AU     LIG 3408  13.446  36.803   7.875
    9AU     LIG 3409  13.458  36.987   8.040
    9AU       S 3410  13.160  33.910   8.062
    9AU     LIG 3411  13.279  33.704   8.213
    9AU     LIG 3412  13.267  33.497   8.334
    9AU     LIG 3413  13.248  33.260   8.434
    9AU       S 3414  13.643  34.143   7.902
    9AU     LIG 3415  13.747  33.839   7.827
    9AU     LIG 3416  13.907  33.705   7.925
    9AU     LIG 3417  14.119  33.605   8.057
    9AU       S 3418  12.908  33.824   7.896
    9AU     LIG 3419  12.859  33.557   7.918
    9AU     LIG 3420  12.881  33.339   8.033
    9AU     LIG 3421  12.871  33.101   8.129
    9AU       S 3422  12.502  34.450   8.386
    9AU     LIG 3423  12.375  34.232   8.570
    9AU     LIG 3424  12.238  34.058   8.640
    9AU     LIG 3425  12.101  33.864   8.762
    9AU       S 3426  13.226  33.920   7.221
    9AU     LIG 3427  13.165  33.592   7.210
    9AU     LIG 3428  13.150  33.396   7.090
    9AU     LIG 3429  13.150  33.129   7.027
    9AU       S 3430  13.240  33.873   7.758
    9AU     LIG 3431  13.340  33.571   7.712
    9AU     LIG 3432  13.353  33.374   7.838
    9AU     LIG 3433  13.347  33.128   7.941
    9AU       S 3434  13.079  36.167   6.835
    9AU     LIG 3435  13.085  36.396   6.681
    9AU     LIG 3436  13.208  36.612   6.641
    9AU     LIG 3437  13.274  36.846   6.564
    9AU       S 3438  13.918  35.943   6.958
    9AU     LIG 3439  14.116  36.147   6.901
    9AU     LIG 3440  14.275  36.221   6.721
    9AU     LIG 3441  14.423  36.343   6.558
    9AU       S 3442  12.876  36.188   7.112
    9AU     LIG 3443  12.764  36.466   7.085
    9AU     LIG 3444  12.821  36.692   6.998
    9AU     LIG 3445  12.895  36.917   6.907
    9AU       S 3446  12.438  35.598   6.654
    9AU     LIG 3447  12.378  35.733   6.415
    9AU     LIG 3448  12.388  35.963   6.319
    9AU     LIG 3449  12.361  36.202   6.239
    9AU       S 3450  12.383  34.266   7.029
    9AU     LIG 3451  12.126  34.093   6.950
    9AU     LIG 3452  12.039  33.951   6.784
    9AU     LIG 3453  11.953  33.778   6.606
    9AU       S 3454  13.296  33.959   6.941
    9AU     LIG 3455  13.413  33.780   6.769
    9AU     LIG 3456  13.386  33.570   6.646
    9AU     LIG 3457  13.310  33.332   6.582
    9AU       S 3458  13.489  33.960   7.324
    9AU     LIG 3459  13.653  33.719   7.293
    9AU     LIG 3460  13.660  33.513   7.128
    9AU     LIG 3461  13.645  33.296   6.984
    9AU       S 3462  13.750  34.469   6.673
    9AU     LIG 3463  13.736  34.291   6.470
    9AU     LIG 3464  13.726  34.063   6.376
    9AU     LIG 3465  13.777  33.860   6.221
   10AU     AUC 3466  47.656  10.761   7.535
   10AU     AUC 3467  47.908  10.766   7.369
   10AU     AUC 3468  47.897  10.753   7.699
   10AU     AUC 3469  47.386  10.769   7.380
   10AU     AUC 3470  47.412  10.798   7.705
   10AU     AUC 3471  47.495  11.014   7.513
   10AU     AUC 3472  47.842  11.026   7.516
   10AU     AUC 3473  47.477  10.507   7.543
   10AU     AUC 3474  47.808  10.485   7.545
   10AU     AUC 3475  47.650  10.601   7.798
   10AU     AUC 3476  47.669  10.941   7.779
   10AU     AUC 3477  47.643  10.588   7.287
   10AU     AUC 3478  47.663  10.894   7.271
   10AU     AUC 3479  48.211  10.757   7.204
   10AU     AUC 3480  48.219  10.737   7.545
   10AU     AUC 3481  48.177  10.724   7.899
   10AU     AUC 3482  47.084  10.743   7.228
   10AU     AUC 3483  47.083  10.802   7.556
   10AU     AUC 3484  47.112  10.841   7.888
   10AU     AUC 3485  47.330  11.327   7.474
   10AU     AUC 3486  47.690  11.301   7.457
   10AU     AUC 3487  48.056  11.289   7.487
   10AU     AUC 3488  47.273  10.218   7.548
   10AU     AUC 3489  47.624  10.194   7.529
   10AU     AUC 3490  47.980  10.183   7.546
   10AU     AUC 3491  47.609  10.435   8.101
   10AU     AUC 3492  47.646  10.777   8.101
   10AU     AUC 3493  47.703  11.141   8.062
   10AU     AUC 3494  47.674  10.398   6.997
   10AU     AUC 3495  47.622  10.739   6.973
   10AU     AUC 3496  47.619  11.062   6.957
   10AU     AUC 3497  47.891  10.539   8.012
   10AU     AUC 3498  47.947  10.915   7.987
   10AU     AUC 3499  47.946  10.601   7.072
   10AU     AUC 3500  47.911  10.913   7.079
   10AU     AUC 3501  47.357  10.659   8.000
   10AU     AUC 3502  47.404  11.009   7.971
   10AU     AUC 3503  47.368  10.558   7.103
   10AU     AUC 3504  47.322  10.886   7.083
   10AU     AUC 3505  48.149  11.029   7.346
   10AU     AUC 3506  48.115  11.026   7.705
   10AU     AUC 3507  47.190  11.041   7.383
   10AU     AUC 3508  47.235  11.107   7.713
   10AU     AUC 3509  48.112  10.478   7.407
   10AU     AUC 3510  48.060  10.432   7.739
   10AU     AUC 3511  47.191  10.455   7.373
   10AU     AUC 3512  47.217  10.529   7.716
   10AU     AUC 3513  47.555  11.259   7.782
   10AU     AUC 3514  47.894  11.214   7.793
   10AU     AUC 3515  47.442  10.326   7.817
   10AU     AUC 3516  47.760  10.273   7.809
   10AU     AUC 3517  47.465  11.192   7.215
   10AU     AUC 3518  47.830  11.208   7.226
   10AU     AUC 3519  47.496  10.294   7.258
   10AU     AUC 3520  47.856  10.339   7.274
   10AU    AUSL 3521  48.155  10.629   8.316
   10AU    AUSL 3522  47.905  10.256   8.222
   10AU     AUL 3523  48.212  10.257   8.389
   10AU    AUSL 3524  47.740  10.571   8.460
   10AU    AUSL 3525  47.502  10.980   8.451
   10AU     AUL 3526  47.738  10.855   8.710
   10AU    AUSL 3527  47.839  10.928   8.204
   10AU    AUSL 3528  48.290  10.987   8.126
   10AU     AUL 3529  48.108  10.952   8.435
   10AU    AUSL 3530  48.063  10.789   6.840
   10AU    AUSL 3531  47.924  11.185   6.981
   10AU     AUL 3532  48.138  11.117   6.681
   10AU    AUSL 3533  47.875  10.467   6.612
   10AU    AUSL 3534  48.382  10.537   6.982
   10AU     AUL 3535  48.250  10.611   6.665
   10AU    AUSL 3536  47.707  10.971   6.670
   10AU    AUSL 3537  47.529  10.585   6.829
   10AU     AUL 3538  47.660  10.664   6.524
   10AU    AUSL 3539  47.118  10.942   8.243
   10AU    AUSL 3540  47.481  11.251   8.111
   10AU     AUL 3541  47.318  11.219   8.412
   10AU    AUSL 3542  47.419  10.629   8.191
   10AU    AUSL 3543  46.970  10.552   8.105
   10AU     AUL 3544  47.027  10.641   8.341
   10AU    AUSL 3545  47.093  10.567   6.795
   10AU    AUSL 3546  47.342  10.217   6.947
   10AU     AUL 3547  47.366  10.303   6.641
   10AU    AUSL 3548  47.279  10.935   6.675
   10AU    AUSL 3549  46.999  10.916   7.050
   10AU     AUL 3550  46.882  10.797   6.776
   10AU    AUSL 3551  48.447  11.224   7.476
   10AU    AUSL 3552  48.322  11.014   7.096
   10AU     AUL 3553  48.617  11.219   7.128
   10AU    AUSL 3554  48.612  10.828   7.367
   10AU    AUSL 3555  48.561  10.530   7.768
   10AU     AUL 3556  48.823  10.614   7.571
   10AU    AUSL 3557  48.334  10.883   7.718
   10AU    AUSL 3558  48.292  11.327   7.853
   10AU     AUL 3559  48.540  11.067   7.878
   10AU    AUSL 3560  47.081  11.404   7.522
   10AU    AUSL 3561  47.118  11.156   7.878
   10AU     AUL 3562  46.809  11.401   7.745
   10AU    AUSL 3563  46.880  11.025   7.444
   10AU    AUSL 3564  47.033  11.341   7.106
   10AU     AUL 3565  46.797  11.266   7.263
   10AU    AUSL 3566  46.753  10.947   7.888
   10AU    AUSL 3567  46.720  10.641   7.349
   10AU     AUL 3568  46.598  10.958   7.590
   10AU    AUSL 3569  48.339  10.181   7.615
   10AU    AUSL 3570  48.165  10.464   7.925
   10AU     AUL 3571  48.472  10.370   8.001
   10AU    AUSL 3572  48.297  10.551   7.397
   10AU    AUSL 3573  48.287  10.149   7.188
   10AU     AUL 3574  48.531  10.359   7.250
   10AU    AUSL 3575  46.873  10.262   7.553
   10AU    AUSL 3576  47.084  10.472   7.205
   10AU     AUL 3577  46.734  10.365   7.213
   10AU    AUSL 3578  46.990  10.663   7.694
   10AU    AUSL 3579  47.180  10.279   7.849
   10AU     AUL 3580  46.799  10.432   7.848
   10AU    AUSL 3581  47.722  11.587   7.966
   10AU    AUSL 3582  47.267  11.566   7.878
   10AU     AUL 3583  47.489  11.611   8.194
   10AU    AUSL 3584  47.554  11.442   7.591
   10AU    AUSL 3585  47.805  11.575   7.247
   10AU     AUL 3586  47.574  11.782   7.554
   10AU    AUSL 3587  47.992  11.518   7.623
   10AU    AUSL 3588  47.986  11.317   8.153
   10AU     AUL 3589  48.105  11.607   7.941
   10AU    AUSL 3590  47.580  10.121   7.970
   10AU    AUSL 3591  48.004  10.062   7.849
   10AU     AUL 3592  47.765  10.000   8.223
   10AU    AUSL 3593  47.272   9.899   7.699
   10AU    AUSL 3594  47.300  10.236   8.274
   10AU     AUL 3595  47.308   9.938   8.050
   10AU    AUSL 3596  47.704   9.824   7.667
   10AU    AUSL 3597  47.497  10.069   7.362
   10AU     AUL 3598  47.380   9.724   7.487
   10AU    AUSL 3599  47.632  11.460   6.843
   10AU    AUSL 3600  48.204  11.438   7.199
   10AU     AUL 3601  47.948  11.548   6.936
   10AU    AUSL 3602  47.383  11.554   7.210
   10AU    AUSL 3603  47.406  11.143   7.014
   10AU     AUL 3604  47.313  11.449   6.856
   10AU    AUSL 3605  47.722  10.017   6.981
   10AU    AUSL 3606  47.089  10.031   7.258
   10AU     AUL 3607  47.385   9.883   7.043
   10AU    AUSL 3608  47.929  10.041   7.381
   10AU    AUSL 3609  47.952  10.374   7.018
   10AU     AUL 3610  48.046  10.001   7.050
   10AU       S 3611  48.177   9.806   8.227
   10AU     LIG 3612  48.224   9.572   8.352
   10AU     LIG 3613  48.346   9.412   8.479
   10AU     LIG 3614  48.504   9.235   8.590
   10AU       S 3615  48.211  10.596   8.719
   10AU     LIG 3616  48.374  10.654   8.921
   10AU     LIG 3617  48.464  10.710   9.146
   10AU     LIG 3618  48.570  10.677   9.383
   10AU       S 3619  47.889  10.403   8.725
   10AU     LIG 3620  47.945  10.309   9.005
   10AU     LIG 3621  48.111  10.325   9.203
   10AU     LIG 3622  48.245  10.280   9.419
   10AU       S 3623  47.264  10.893   8.757
   10AU     LIG 3624  47.227  10.917   9.059
   10AU     LIG 3625  47.109  10.902   9.261
   10AU     LIG 3626  46.961  10.879   9.479
   10AU       S 3627  47.789  11.327   8.566
   10AU     LIG 3628  47.906  11.464   8.771
   10AU     LIG 3629  48.119  11.384   8.933
   10AU     LIG 3630  48.342  11.258   8.947
   10AU       S 3631  48.481  11.219   8.334
   10AU     LIG 3632  48.664  11.259   8.555
   10AU     LIG 3633  48.804  11.416   8.669
   10AU     LIG 3634  48.980  11.592   8.744
   10AU       S 3635  48.082  10.848   6.306
   10AU     LIG 3636  48.297  10.903   6.093
   10AU     LIG 3637  48.431  10.737   5.955
   10AU     LIG 3638  48.491  10.546   5.795
   10AU       S 3639  48.297  11.548   6.652
   10AU     LIG 3640  48.343  11.741   6.462
   10AU     LIG 3641  48.506  11.831   6.288
   10AU     LIG 3642  48.671  11.922   6.123
   10AU       S 3643  48.557  10.259   6.768
   10AU     LIG 3644  48.719  10.172   6.527
   10AU     LIG 3645  48.733   9.953   6.388
   10AU     LIG 3646  48.749   9.698   6.348
   10AU       S 3647  48.003  10.553   6.240
   10AU     LIG 3648  48.025  10.429   6.011
   10AU     LIG 3649  48.012  10.356   5.771
   10AU     LIG 3650  48.083  10.336   5.521
   10AU       S 3651  47.269  10.613   6.303
   10AU     LIG 3652  47.324  10.580   6.024
   10AU     LIG 3653  47.330  10.526   5.795
   10AU     LIG 3654  47.254  10.485   5.540
   10AU       S 3655  47.839  10.994   6.264
   10AU     LIG 3656  47.740  10.928   5.973
   10AU     LIG 3657  47.882  10.853   5.780
   10AU     LIG 3658  48.075  10.845   5.607
   10AU       S 3659  46.988  10.981   8.643
   10AU     LIG 3660  46.777  10.956   8.819
   10AU     LIG 3661  46.723  10.740   8.977
   10AU     LIG 3662  46.653  10.608   9.166
   10AU       S 3663  47.019  11.539   8.268
   10AU     LIG 3664  46.933  11.694   8.501
   10AU     LIG 3665  46.792  11.705   8.694
   10AU     LIG 3666  46.623  11.794   8.877
   10AU       S 3667  46.742  10.273   8.284
   10AU     LIG 3668  46.496  10.204   8.381
   10AU     LIG 3669  46.351  10.012   8.457
   10AU     LIG 3670  46.224   9.830   8.575
   10AU       S 3671  47.313  10.601   8.684
   10AU     LIG 3672  47.236  10.425   8.887
   10AU     LIG 3673  47.123  10.405   9.105
   10AU     LIG 3674  47.078  10.391   9.361
   10AU       S 3675  47.007  10.525   6.418
   10AU     LIG 3676  46.828  10.455   6.208
   10AU     LIG 3677  46.817  10.526   5.957
   10AU     LIG 3678  46.805  10.636   5.737
   10AU       S 3679  47.041   9.977   6.745
   10AU     LIG 3680  46.967   9.790   6.540
   10AU     LIG 3681  46.809   9.748   6.354
   10AU     LIG 3682  46.625   9.699   6.184
   10AU       S 3683  46.671  11.203   6.798
   10AU     LIG 3684  46.464  11.372   6.744
   10AU     LIG 3685  46.412  11.571   6.588
   10AU     LIG 3686  46.388  11.694   6.367
   10AU       S 3687  47.169  10.881   6.393
   10AU     LIG 3688  47.002  10.982   6.139
   10AU     LIG 3689  47.085  11.019   5.913
   10AU     LIG 3690  47.193  10.999   5.679
   10AU       S 3691  48.528  11.362   6.708
   10AU     LIG 3692  48.743  11.408   6.537
   10AU     LIG 3693  48.900  11.520   6.389
   10AU     LIG 3694  49.081  11.639   6.245
   10AU       S 3695  48.780  11.338   7.556
   10AU     LIG 3696  48.993  11.542   7.540
   10AU     LIG 3697  49.237  11.586   7.511
   10AU     LIG 3698  49.490  11.649   7.532
   10AU       S 3699  48.956  11.039   7.388
   10AU     LIG 3700  49.225  11.110   7.293
   10AU     LIG 3701  49.465  11.176   7.306
   10AU     LIG 3702  49.687  11.290   7.226
   10AU       S 3703  48.820  10.160   7.790
   10AU     LIG 3704  49.055  10.058   7.920
   10AU     LIG 3705  49.308  10.053   7.859
   10AU     LIG 3706  49.557  10.021   7.780
   10AU       S 3707  48.517  11.467   8.127
   10AU     LIG 3708  48.712  11.644   8.210
   10AU     LIG 3709  48.757  11.843   8.357
   10AU     LIG 3710  48.776  12.022   8.540
   10AU       S 3711  48.927  11.071   7.663
   10AU     LIG 3712  49.165  11.142   7.814
   10AU     LIG 3713  49.402  11.209   7.811
   10AU     LIG 3714  49.632  11.299   7.878
   10AU       S 3715  46.853  11.316   8.203
   10AU     LIG 3716  46.614  11.308   8.380
   10AU     LIG 3717  46.428  11.447   8.444
   10AU     LIG 3718  46.252  11.566   8.594
   10AU       S 3719  47.020  11.740   7.463
   10AU     LIG 3720  46.860  11.948   7.335
   10AU     LIG 3721  46.614  11.928   7.239
   10AU     LIG 3722  46.426  11.771   7.123
   10AU       S 3723  46.456  10.959   7.139
   10AU     LIG 3724  46.218  10.964   7.071
   10AU     LIG 3725  45.963  11.040   7.141
   10AU     LIG 3726  45.818  11.253   7.163
   10AU       S 3727  46.886  11.613   6.929
   10AU     LIG 3728  46.813  11.821   6.787
   10AU     LIG 3729  46.671  12.000   6.702
   10AU     LIG 3730  46.540  12.155   6.537
   10AU       S 3731  46.367  10.555   7.449
   10AU     LIG 3732  46.090  10.545   7.337
   10AU     LIG 3733  45.847  10.527   7.332
   10AU     LIG 3734  45.613  10.406   7.284
   10AU       S 3735  46.558  10.874   8.097
   10AU     LIG 3736  46.245  10.978   8.182
   10AU     LIG 3737  46.128  11.190   8.094
   10AU     LIG 3738  45.948  11.337   7.968
   10AU       S 3739  48.550   9.990   7.606
   10AU     LIG 3740  48.684   9.688   7.622
   10AU     LIG 3741  48.912   9.622   7.697
   10AU     LIG 3742  49.183   9.608   7.655
   10AU       S 3743  48.394   9.929   8.066
   10AU     LIG 3744  48.641   9.793   8.105
   10AU     LIG 3745  48.771   9.705   8.287
   10AU     LIG 3746  48.818   9.635   8.537
   10AU       S 3747  48.807  10.140   7.519
   10AU     LIG 3748  49.030  10.018   7.383
   10AU     LIG 3749  49.271  10.019   7.343
   10AU     LIG 3750  49.512   9.947   7.280
   10AU       S 3751  48.499   9.997   6.925
   10AU     LIG 3752  48.564   9.737   6.822
   10AU     LIG 3753  48.437   9.514   6.774
   10AU     LIG 3754  48.396   9.295   6.659
   10AU       S 3755  46.864  10.172   6.817
   10AU     LIG 3756  46.631  10.182   6.620
   10AU     LIG 3757  46.454  10.065   6.527
   10AU     LIG 3758  46.248   9.907   6.465
   10AU       S 3759  46.449  10.264   7.583
   10AU     LIG 3760  46.232  10.098   7.588
   10AU     LIG 3761  46.005  10.050   7.482
   10AU     LIG 3762  45.772   9.946   7.441
   10AU       S 3763  46.861  10.043   8.082
   10AU     LIG 3764  46.685   9.835   8.068
   10AU     LIG 3765  46.565   9.649   8.174
   10AU     LIG 3766  46.432   9.463   8.287
   10AU       S 3767  46.391  10.559   7.713
   10AU     LIG 3768  46.157  10.531   7.888
   10AU     LIG 3769  45.918  10.439   7.835
   10AU     LIG 3770  45.709  10.304   7.809
   10AU       S 3771  47.060  11.758   7.989
   10AU     LIG 3772  46.825  11.947   8.062
   10AU     LIG 3773  46.600  11.910   8.206
   10AU     LIG 3774  46.468  11.987   8.412
   10AU       S 3775  47.803  11.944   8.053
   10AU     LIG 3776  47.914  12.131   8.255
   10AU     LIG 3777  47.802  12.321   8.380
   10AU     LIG 3778  47.657  12.522   8.444
   10AU       S 3779  47.565  12.079   7.925
   10AU     LIG 3780  47.476  12.304   7.968
   10AU     LIG 3781  47.450  12.563   7.984
   10AU     LIG 3782  47.459  12.814   8.012
   10AU       S 3783  47.730  11.922   7.131
   10AU     LIG 3784  47.796  12.191   7.146
   10AU     LIG 3785  47.830  12.423   7.130
   10AU     LIG 3786  47.893  12.666   7.042
   10AU       S 3787  48.240  11.434   8.364
   10AU     LIG 3788  48.315  11.653   8.543
   10AU     LIG 3789  48.416  11.734   8.736
   10AU     LIG 3790  48.542  11.752   8.967
   10AU       S 3791  47.942  11.995   7.734
   10AU     LIG 3792  47.974  12.268   7.718
   10AU     LIG 3793  47.949  12.478   7.875
   10AU     LIG 3794  47.961  12.662   8.040
   10AU       S 3795  47.663   9.585   8.062
   10AU     LIG 3796  47.782   9.379   8.213
   10AU     LIG 3797  47.770   9.172   8.334
   10AU     LIG 3798  47.751   8.935   8.434
   10AU       S 3799  48.146   9.818   7.902
   10AU     LIG 3800  48.250   9.514   7.827
   10AU     LIG 3801  48.410   9.380   7.925
   10AU     LIG 3802  48.622   9.280   8.057
   10AU       S 3803  47.411   9.499   7.896
   10AU     LIG 3804  47.362   9.232   7.918
   10AU     LIG 3805  47.384   9.014   8.033
   10AU     LIG 3806  47.374   8.776   8.129
   10AU       S 3807  47.005  10.125   8.386
   10AU     LIG 3808  46.878   9.907   8.570
   10AU     LIG 3809  46.741   9.733   8.640
   10AU     LIG 3810  46.604   9.539   8.762
   10AU       S 3811  47.729   9.595   7.221
   10AU     LIG 3812  47.668   9.267   7.210
   10AU     LIG 3813  47.653   9.071   7.090
   10AU     LIG 3814  47.653   8.804   7.027
   10AU       S 3815  47.743   9.548   7.758
   10AU     LIG 3816  47.843   9.246   7.712
   10AU     LIG 3817  47.856   9.049   7.838
   10AU     LIG 3818  47.850   8.803   7.941
   10AU       S 3819  47.582  11.842   6.835
   10AU     LIG 3820  47.588  12.071   6.681
   10AU     LIG 3821  47.711  12.287   6.641
   10AU     LIG 3822  47.777  12.521   6.564
   10AU       S 3823  48.421  11.618   6.958
   10AU     LIG 3824  48.619  11.822   6.901
   10AU     LIG 3825  48.778  11.896   6.721
   10AU     LIG 3826  48.926  12.018   6.558
   10AU       S 3827  47.379  11.863   7.112
   10AU     LIG 3828  47.267  12.141   7.085
   10AU     LIG 3829  47.324  12.367   6.998
   10AU     LIG 3830  47.398  12.592   6.907
   10AU       S 3831  46.941  11.273   6.654
   10AU     LIG 3832  46.881  11.408   6.415
   10AU     LIG 3833  46.891  11.638   6.319
   10AU     LIG 3834  46.864  11.877   6.239
   10AU       S 3835  46.886   9.941   7.029
   10AU     LIG 3836  46.629   9.768   6.950
   10AU     LIG 3837  46.542   9.626   6.784
   10AU     LIG 3838  46.456   9.453   6.606
   10AU       S 3839  47.799   9.634   6.941
   10AU     LIG 3840  47.916   9.455   6.769
   10AU     LIG 3841  47.889   9.245   6.646
   10AU     LIG 3842  47.813   9.007   6.582
   10AU       S 3843  47.992   9.635   7.324
   10AU     LIG 3844  48.156   9.394   7.293
   10AU     LIG 3845  48.163   9.188   7.128
   10AU     LIG 3846  48.148   8.971   6.984
   10AU       S 3847  48.253  10.144   6.673
   10AU     LIG 3848  48.239   9.966   6.470
   10AU     LIG 3849  48.229   9.738   6.376
   10AU     LIG 3850  48.280   9.535   6.221
   11POPC   NC3 3851  28.332  21.356   9.464
   11POPC   PO4 3852  28.322  21.343   9.164
   11POPC   GL1 3853  28.346  21.374   8.864
   11POPC   GL2 3854  28.294  21.443   8.864
   11POPC   C1A 3855  28.338  21.405   8.564
   11POPC   D2A 3856  28.353  21.414   8.264
   11POPC   C3A 3857  28.335  21.432   7.964
   11POPC   C4A 3858  28.353  21.352   7.664
   11POPC   C1B 3859  28.167  21.493   8.564
   11POPC   C2B 3860  28.148  21.506   8.264
   11POPC   C3B 3861  28.192  21.483   7.964
   11POPC   C4B 3862  28.193  21.489   7.664
   12POPC   NC3 3863   5.906  26.788   9.464
   12POPC   PO4 3864   5.903  26.811   9.164
   12POPC   GL1 3865   5.913  26.806   8.864
   12POPC   GL2 3866   5.925  26.937   8.864
   12POPC   C1A 3867   5.874  26.861   8.564
   12POPC   D2A 3868   5.887  26.807   8.264
   12POPC   C3A 3869   5.859  26.789   7.964
   12POPC   C4A 3870   5.846  26.855   7.664
   12POPC   C1B 3871   6.021  27.002   8.564
   12POPC   C2B 3872   6.039  26.965   8.264
   12POPC   C3B 3873   5.989  27.035   7.964
   12POPC   C4B 3874   6.040  26.985   7.664
   13POPC   NC3 3875   2.730  36.892   9.464
   13POPC   PO4 3876   2.722  36.888   9.164
   13POPC   GL1 3877   2.774  36.873   8.864
   13POPC   GL2 3878   2.662  36.868   8.864
   13POPC   C1A 3879   2.761  36.952   8.564
   13POPC   D2A 3880   2.741  36.926   8.264
   13POPC   C3A 3881   2.745  36.953   7.964
   13POPC   C4A 3882   2.794  36.939   7.664
   13POPC   C1B 3883   2.599  36.723   8.564
   13POPC   C2B 3884   2.516  36.739   8.264
   13POPC   C3B 3885   2.561  36.799   7.964
   13POPC   C4B 3886   2.536  36.806   7.664
   14POPC   NC3 3887   9.017   8.926   9.464
   14POPC   PO4 3888   8.934   8.945   9.164
   14POPC   GL1 3889   8.994   8.942   8.864
   14POPC   GL2 3890   9.101   8.944   8.864
   14POPC   C1A 3891   8.943   9.018   8.564
   14POPC   D2A 3892   9.011   8.967   8.264
   14POPC   C3A 3893   8.973   9.022   7.964
   14POPC   C4A 3894   8.997   8.934   7.664
   14POPC   C1B 3895   9.160   8.848   8.564
   14POPC   C2B 3896   9.209   8.851   8.264
   14POPC   C3B 3897   9.240   8.811   7.964
   14POPC   C4B 3898   9.236   8.830   7.664
   15POPC   NC3 3899  35.342   5.131   9.464
   15POPC   PO4 3900  35.348   5.056   9.164
   15POPC   GL1 3901  35.325   5.122   8.864
   15POPC   GL2 3902  35.439   5.222   8.864
   15POPC   C1A 3903  35.392   5.080   8.564
   15POPC   D2A 3904  35.378   5.070   8.264
   15POPC   C3A 3905  35.364   5.142   7.964
   15POPC   C4A 3906  35.354   5.079   7.664
   15POPC   C1B 3907  35.568   5.302   8.564
   15POPC   C2B 3908  35.520   5.211   8.264
   15POPC   C3B 3909  35.521   5.290   7.964
   15POPC   C4B 3910  35.502   5.234   7.664
   16POPC   NC3 3911  10.519   5.071   9.464
   16POPC   PO4 3912  10.556   5.052   9.164
   16POPC   GL1 3913  10.550   5.139   8.864
   16POPC   GL2 3914  10.510   5.194   8.864
   16POPC   C1A 3915  10.531   5.097   8.564
   16POPC   D2A 3916  10.503   5.114   8.264
   16POPC   C3A 3917  10.554   5.079   7.964
   16POPC   C4A 3918  10.479   5.089   7.664
   16POPC   C1B 3919  10.631   5.384   8.564
   16POPC   C2B 3920  10.547   5.359   8.264
   16POPC   C3B 3921  10.627   5.363   7.964
   16POPC   C4B 3922  10.598   5.290   7.664
   17POPC   NC3 3923  27.566  33.016   9.464
   17POPC   PO4 3924  27.545  33.007   9.164
   17POPC   GL1 3925  27.591  33.055   8.864
   17POPC   GL2 3926  27.682  33.055   8.864
   17POPC   C1A 3927  27.599  32.981   8.564
   17POPC   D2A 3928  27.546  33.070   8.264
   17POPC   C3A 3929  27.590  33.042   7.964
   17POPC   C4A 3930  27.596  33.037   7.664
   17POPC   C1B 3931  27.844  32.973   8.564
   17POPC   C2B 3932  27.846  32.975   8.264
   17POPC   C3B 3933  27.885  32.981   7.964
   17POPC   C4B 3934  27.792  33.016   7.664
   18POPC   NC3 3935  27.588   5.828   9.464
   18POPC   PO4 3936  27.628   5.909   9.164
   18POPC   GL1 3937  27.564   5.850   8.864
   18POPC   GL2 3938  27.464   5.854   8.864
   18POPC   C1A 3939  27.608   5.849   8.564
   18POPC   D2A 3940  27.615   5.848   8.264
   18POPC   C3A 3941  27.546   5.885   7.964
   18POPC   C4A 3942  27.582   5.880   7.664
   18POPC   C1B 3943  27.331   5.764   8.564
   18POPC   C2B 3944  27.329   5.775   8.264
   18POPC   C3B 3945  27.314   5.783   7.964
   18POPC   C4B 3946  27.357   5.812   7.664
   19POPC   NC3 3947  31.430  38.478   9.464
   19POPC   PO4 3948  31.479  38.475   9.164
   19POPC   GL1 3949  31.483  38.488   8.864
   19POPC   GL2 3950  31.460  38.286   8.864
   19POPC   C1A 3951  31.478  38.466   8.564
   19POPC   D2A 3952  31.495  38.474   8.264
   19POPC   C3A 3953  31.499  38.426   7.964
   19POPC   C4A 3954  31.482  38.462   7.664
   19POPC   C1B 3955  31.540  38.205   8.564
   19POPC   C2B 3956  31.472  38.196   8.264
   19POPC   C3B 3957  31.446  38.164   7.964
   19POPC   C4B 3958  31.474  38.255   7.664
   20POPC   NC3 3959  31.466  32.285   9.464
   20POPC   PO4 3960  31.477  32.226   9.164
   20POPC   GL1 3961  31.504  32.284   8.864
   20POPC   GL2 3962  31.346  32.324   8.864
   20POPC   C1A 3963  31.428  32.220   8.564
   20POPC   D2A 3964  31.432  32.298   8.264
   20POPC   C3A 3965  31.451  32.222   7.964
   20POPC   C4A 3966  31.497  32.205   7.664
   20POPC   C1B 3967  31.361  32.429   8.564
   20POPC   C2B 3968  31.355  32.419   8.264
   20POPC   C3B 3969  31.362  32.476   7.964
   20POPC   C4B 3970  31.361  32.440   7.664
   21POPC   NC3 3971  25.275  29.954   9.464
   21POPC   PO4 3972  25.309  29.942   9.164
   21POPC   GL1 3973  25.239  29.914   8.864
   21POPC   GL2 3974  25.324  29.758   8.864
   21POPC   C1A 3975  25.311  29.922   8.564
   21POPC   D2A 3976  25.264  29.916   8.264
   21POPC   C3A 3977  25.308  29.910   7.964
   21POPC   C4A 3978  25.229  29.902   7.664
   21POPC   C1B 3979  25.312  29.718   8.564
   21POPC   C2B 3980  25.243  29.665   8.264
   21POPC   C3B 3981  25.256  29.720   7.964
   21POPC   C4B 3982  25.329  29.662   7.664
   22POPC   NC3 3983  14.403   3.510   9.464
   22POPC   PO4 3984  14.431   3.580   9.164
   22POPC   GL1 3985  14.386   3.585   8.864
   22POPC   GL2 3986  14.245   3.529   8.864
   22POPC   C1A 3987  14.386   3.577   8.564
   22POPC   D2A 3988  14.403   3.500   8.264
   22POPC   C3A 3989  14.387   3.561   7.964
   22POPC   C4A 3990  14.382   3.567   7.664
   22POPC   C1B 3991  14.201   3.383   8.564
   22POPC   C2B 3992  14.190   3.471   8.264
   22POPC   C3B 3993  14.197   3.411   7.964
   22POPC   C4B 3994  14.229   3.444   7.664
   23POPC   NC3 3995   2.799  14.419   9.464
   23POPC   PO4 3996   2.743  14.356   9.164
   23POPC   GL1 3997   2.786  14.401   8.864
   23POPC   GL2 3998   2.667  14.470   8.864
   23POPC   C1A 3999   2.747  14.422   8.564
   23POPC   D2A 4000   2.756  14.388   8.264
   23POPC   C3A 4001   2.755  14.449   7.964
   23POPC   C4A 4002   2.813  14.440   7.664
   23POPC   C1B 4003   2.552  14.467   8.564
   23POPC   C2B 4004   2.534  14.424   8.264
   23POPC   C3B 4005   2.558  14.499   7.964
   23POPC   C4B 4006   2.543  14.443   7.664
   24POPC   NC3 4007  27.627  29.919   9.464
   24POPC   PO4 4008  27.563  29.920   9.164
   24POPC   GL1 4009  27.612  29.885   8.864
   24POPC   GL2 4010  27.726  29.781   8.864
   24POPC   C1A 4011  27.581  29.905   8.564
   24POPC   D2A 4012  27.590  29.943   8.264
   24POPC   C3A 4013  27.642  29.932   7.964
   24POPC   C4A 4014  27.568  29.963   7.664
   24POPC   C1B 4015  27.737  29.758   8.564
   24POPC   C2B 4016  27.730  29.776   8.264
   24POPC   C3B 4017  27.790  29.764   7.964
   24POPC   C4B 4018  27.746  29.723   7.664
   25POPC   NC3 4019  31.463  37.713   9.464
   25POPC   PO4 4020  31.512  37.720   9.164
   25POPC   GL1 4021  31.501  37.670   8.864
   25POPC   GL2 4022  31.554  37.819   8.864
   25POPC   C1A 4023  31.469  37.664   8.564
   25POPC   D2A 4024  31.450  37.676   8.264
   25POPC   C3A 4025  31.435  37.728   7.964
   25POPC   C4A 4026  31.437  37.631   7.664
   25POPC   C1B 4027  31.533  37.934   8.564
   25POPC   C2B 4028  31.535  37.912   8.264
   25POPC   C3B 4029  31.524  37.875   7.964
   25POPC   C4B 4030  31.613  37.924   7.664
   26POPC   NC3 4031  39.958  36.109   9.464
   26POPC   PO4 4032  39.980  36.168   9.164
   26POPC   GL1 4033  40.056  36.125   8.864
   26POPC   GL2 4034  39.923  36.137   8.864
   26POPC   C1A 4035  40.037  36.113   8.564
   26POPC   D2A 4036  40.051  36.177   8.264
   26POPC   C3A 4037  39.981  36.159   7.964
   26POPC   C4A 4038  40.004  36.101   7.664
   26POPC   C1B 4039  39.807  36.197   8.564
   26POPC   C2B 4040  39.807  36.122   8.264
   26POPC   C3B 4041  39.718  36.214   7.964
   26POPC   C4B 4042  39.776  36.128   7.664
   27POPC   NC3 4043  10.499  12.828   9.464
   27POPC   PO4 4044  10.517  12.810   9.164
   27POPC   GL1 4045  10.486  12.885   8.864
   27POPC   GL2 4046  10.599  12.814   8.864
   27POPC   C1A 4047  10.558  12.831   8.564
   27POPC   D2A 4048  10.507  12.834   8.264
   27POPC   C3A 4049  10.540  12.821   7.964
   27POPC   C4A 4050  10.548  12.803   7.664
   27POPC   C1B 4051  10.726  12.864   8.564
   27POPC   C2B 4052  10.762  12.867   8.264
   27POPC   C3B 4053  10.819  12.882   7.964
   27POPC   C4B 4054  10.736  12.801   7.664
   28POPC   NC3 4055  38.475  33.763   9.464
   28POPC   PO4 4056  38.446  33.778   9.164
   28POPC   GL1 4057  38.441  33.807   8.864
   28POPC   GL2 4058  38.341  33.813   8.864
   28POPC   C1A 4059  38.437  33.754   8.564
   28POPC   D2A 4060  38.435  33.843   8.264
   28POPC   C3A 4061  38.491  33.782   7.964
   28POPC   C4A 4062  38.444  33.797   7.664
   28POPC   C1B 4063  38.186  33.895   8.564
   28POPC   C2B 4064  38.218  33.925   8.264
   28POPC   C3B 4065  38.220  33.886   7.964
   28POPC   C4B 4066  38.205  33.937   7.664
   29POPC   NC3 4067   4.352  26.007   9.464
   29POPC   PO4 4068   4.299  26.029   9.164
   29POPC   GL1 4069   4.317  26.016   8.864
   29POPC   GL2 4070   4.386  26.117   8.864
   29POPC   C1A 4071   4.303  26.083   8.564
   29POPC   D2A 4072   4.311  26.053   8.264
   29POPC   C3A 4073   4.331  25.995   7.964
   29POPC   C4A 4074   4.339  26.064   7.664
   29POPC   C1B 4075   4.499  26.106   8.564
   29POPC   C2B 4076   4.560  26.101   8.264
   29POPC   C3B 4077   4.561  26.144   7.964
   29POPC   C4B 4078   4.563  26.120   7.664
   30POPC   NC3 4079   7.409   8.946   9.464
   30POPC   PO4 4080   7.385   8.954   9.164
   30POPC   GL1 4081   7.462   8.954   8.864
   30POPC   GL2 4082   7.528   8.919   8.864
   30POPC   C1A 4083   7.414   8.993   8.564
   30POPC   D2A 4084   7.386   8.962   8.264
   30POPC   C3A 4085   7.428   8.949   7.964
   30POPC   C4A 4086   7.424   8.986   7.664
   30POPC   C1B 4087   7.609   8.742   8.564
   30POPC   C2B 4088   7.585   8.754   8.264
   30POPC   C3B 4089   7.581   8.798   7.964
   30POPC   C4B 4090   7.611   8.770   7.664
   31POPC   NC3 4091  37.664  43.132   9.464
   31POPC   PO4 4092  37.641  43.078   9.164
   31POPC   GL1 4093  37.658  43.100   8.864
   31POPC   GL2 4094  37.677  42.992   8.864
   31POPC   C1A 4095  37.722  43.104   8.564
   31POPC   D2A 4096  37.705  43.108   8.264
   31POPC   C3A 4097  37.654  43.117   7.964
   31POPC   C4A 4098  37.638  43.106   7.664
   31POPC   C1B 4099  37.555  42.888   8.564
   31POPC   C2B 4100  37.568  42.909   8.264
   31POPC   C3B 4101  37.608  42.908   7.964
   31POPC   C4B 4102  37.601  42.870   7.664
   32POPC   NC3 4103  23.698  43.103   9.464
   32POPC   PO4 4104  23.677  43.078   9.164
   32POPC   GL1 4105  23.704  43.075   8.864
   32POPC   GL2 4106  23.617  43.178   8.864
   32POPC   C1A 4107  23.731  43.088   8.564
   32POPC   D2A 4108  23.702  43.128   8.264
   32POPC   C3A 4109  23.728  43.155   7.964
   32POPC   C4A 4110  23.732  43.155   7.664
   32POPC   C1B 4111  23.481  43.247   8.564
   32POPC   C2B 4112  23.467  43.176   8.264
   32POPC   C3B 4113  23.531  43.240   7.964
   32POPC   C4B 4114  23.446  43.179   7.664
   33POPC   NC3 4115  23.724   7.452   9.464
   33POPC   PO4 4116  23.681   7.380   9.164
   33POPC   GL1 4117  23.763   7.438   8.864
   33POPC   GL2 4118  23.748   7.328   8.864
   33POPC   C1A 4119  23.722   7.465   8.564
   33POPC   D2A 4120  23.701   7.387   8.264
   33POPC   C3A 4121  23.744   7.441   7.964
   33POPC   C4A 4122  23.695   7.463   7.664
   33POPC   C1B 4123  23.869   7.210   8.564
   33POPC   C2B 4124  23.924   7.276   8.264
   33POPC   C3B 4125  23.875   7.221   7.964
   33POPC   C4B 4126  23.906   7.195   7.664
   34POPC   NC3 4127  39.960   1.965   9.464
   34POPC   PO4 4128  39.980   2.002   9.164
   34POPC   GL1 4129  39.990   1.976   8.864
   34POPC   GL2 4130  39.986   2.123   8.864
   34POPC   C1A 4131  39.972   2.040   8.564
   34POPC   D2A 4132  40.005   1.967   8.264
   34POPC   C3A 4133  39.963   1.969   7.964
   34POPC   C4A 4134  39.967   1.941   7.664
   34POPC   C1B 4135  39.927   2.239   8.564
   34POPC   C2B 4136  40.004   2.277   8.264
   34POPC   C3B 4137  40.013   2.198   7.964
   34POPC   C4B 4138  39.939   2.225   7.664
   35POPC   NC3 4139  16.772  36.080   9.464
   35POPC   PO4 4140  16.776  36.105   9.164
   35POPC   GL1 4141  16.705  36.097   8.864
   35POPC   GL2 4142  16.654  36.236   8.864
   35POPC   C1A 4143  16.693  36.164   8.564
   35POPC   D2A 4144  16.747  36.102   8.264
   35POPC   C3A 4145  16.753  36.115   7.964
   35POPC   C4A 4146  16.754  36.091   7.664
   35POPC   C1B 4147  16.623  36.322   8.564
   35POPC   C2B 4148  16.658  36.386   8.264
   35POPC   C3B 4149  16.575  36.326   7.964
   35POPC   C4B 4150  16.596  36.338   7.664
   36POPC   NC3 4151  16.769  25.233   9.464
   36POPC   PO4 4152  16.710  25.227   9.164
   36POPC   GL1 4153  16.733  25.294   8.864
   36POPC   GL2 4154  16.680  25.114   8.864
   36POPC   C1A 4155  16.698  25.268   8.564
   36POPC   D2A 4156  16.744  25.291   8.264
   36POPC   C3A 4157  16.687  25.284   7.964
   36POPC   C4A 4158  16.705  25.271   7.664
   36POPC   C1B 4159  16.639  25.023   8.564
   36POPC   C2B 4160  16.568  25.045   8.264
   36POPC   C3B 4161  16.568  25.071   7.964
   36POPC   C4B 4162  16.601  25.006   7.664
   37POPC   NC3 4163   0.409  35.373   9.464
   37POPC   PO4 4164   0.481  35.350   9.164
   37POPC   GL1 4165   0.410  35.307   8.864
   37POPC   GL2 4166   0.482  35.188   8.864
   37POPC   C1A 4167   0.487  35.374   8.564
   37POPC   D2A 4168   0.477  35.389   8.264
   37POPC   C3A 4169   0.418  35.310   7.964
   37POPC   C4A 4170   0.400  35.349   7.664
   37POPC   C1B 4171   0.534  35.132   8.564
   37POPC   C2B 4172   0.500  35.089   8.264
   37POPC   C3B 4173   0.490  35.100   7.964
   37POPC   C4B 4174   0.462  35.086   7.664
   38POPC   NC3 4175  31.488   9.779   9.464
   38POPC   PO4 4176  31.482   9.725   9.164
   38POPC   GL1 4177  31.506   9.710   8.864
   38POPC   GL2 4178  31.546   9.854   8.864
   38POPC   C1A 4179  31.449   9.764   8.564
   38POPC   D2A 4180  31.473   9.713   8.264
   38POPC   C3A 4181  31.438   9.709   7.964
   38POPC   C4A 4182  31.488   9.788   7.664
   38POPC   C1B 4183  31.618   9.930   8.564
   38POPC   C2B 4184  31.607   9.907   8.264
   38POPC   C3B 4185  31.618   9.907   7.964
   38POPC   C4B 4186  31.637   9.965   7.664
   39POPC   NC3 4187  12.123  12.107   9.464
   39POPC   PO4 4188  12.077  12.034   9.164
   39POPC   GL1 4189  12.056  12.060   8.864
   39POPC   GL2 4190  12.147  11.982   8.864
   39POPC   C1A 4191  12.115  12.050   8.564
   39POPC   D2A 4192  12.119  12.091   8.264
   39POPC   C3A 4193  12.047  12.050   7.964
   39POPC   C4A 4194  12.106  12.118   7.664
   39POPC   C1B 4195  12.250  11.911   8.564
   39POPC   C2B 4196  12.241  11.948   8.264
   39POPC   C3B 4197  12.297  11.964   7.964
   39POPC   C4B 4198  12.241  11.939   7.664
   40POPC   NC3 4199  13.608  28.355   9.464
   40POPC   PO4 4200  13.615  28.390   9.164
   40POPC   GL1 4201  13.614  28.340   8.864
   40POPC   GL2 4202  13.458  28.380   8.864
   40POPC   C1A 4203  13.622  28.380   8.564
   40POPC   D2A 4204  13.586  28.372   8.264
   40POPC   C3A 4205  13.643  28.337   7.964
   40POPC   C4A 4206  13.634  28.379   7.664
   40POPC   C1B 4207  13.392  28.271   8.564
   40POPC   C2B 4208  13.390  28.254   8.264
   40POPC   C3B 4209  13.350  28.343   7.964
   40POPC   C4B 4210  13.415  28.310   7.664
   41POPC   NC3 4211   5.913   2.760   9.464
   41POPC   PO4 4212   5.822   2.729   9.164
   41POPC   GL1 4213   5.876   2.785   8.864
   41POPC   GL2 4214   5.773   2.771   8.864
   41POPC   C1A 4215   5.864   2.783   8.564
   41POPC   D2A 4216   5.863   2.743   8.264
   41POPC   C3A 4217   5.837   2.777   7.964
   41POPC   C4A 4218   5.865   2.793   7.664
   41POPC   C1B 4219   5.664   2.683   8.564
   41POPC   C2B 4220   5.620   2.776   8.264
   41POPC   C3B 4221   5.602   2.763   7.964
   41POPC   C4B 4222   5.639   2.728   7.664
   42POPC   NC3 4223  42.374   1.968   9.464
   42POPC   PO4 4224  42.349   2.001   9.164
   42POPC   GL1 4225  42.357   1.967   8.864
   42POPC   GL2 4226  42.387   2.100   8.864
   42POPC   C1A 4227  42.370   2.002   8.564
   42POPC   D2A 4228  42.311   2.009   8.264
   42POPC   C3A 4229  42.337   2.015   7.964
   42POPC   C4A 4230  42.309   2.030   7.664
   42POPC   C1B 4231  42.463   2.233   8.564
   42POPC   C2B 4232  42.428   2.252   8.264
   42POPC   C3B 4233  42.481   2.251   7.964
   42POPC   C4B 4234  42.478   2.256   7.664
   43POPC   NC3 4235  38.490  27.605   9.464
   43POPC   PO4 4236  38.467  27.620   9.164
   43POPC   GL1 4237  38.437  27.578   8.864
   43POPC   GL2 4238  38.344  27.704   8.864
   43POPC   C1A 4239  38.439  27.603   8.564
   43POPC   D2A 4240  38.439  27.566   8.264
   43POPC   C3A 4241  38.504  27.582   7.964
   43POPC   C4A 4242  38.490  27.620   7.664
   43POPC   C1B 4243  38.204  27.677   8.564
   43POPC   C2B 4244  38.248  27.716   8.264
   43POPC   C3B 4245  38.212  27.706   7.964
   43POPC   C4B 4246  38.211  27.730   7.664
   44POPC   NC3 4247  43.105  19.861   9.464
   44POPC   PO4 4248  43.074  19.797   9.164
   44POPC   GL1 4249  43.150  19.807   8.864
   44POPC   GL2 4250  43.056  20.004   8.864
   44POPC   C1A 4251  43.142  19.836   8.564
   44POPC   D2A 4252  43.089  19.835   8.264
   44POPC   C3A 4253  43.153  19.871   7.964
   44POPC   C4A 4254  43.146  19.858   7.664
   44POPC   C1B 4255  43.064  20.100   8.564
   44POPC   C2B 4256  43.064  20.057   8.264
   44POPC   C3B 4257  43.081  20.049   7.964
   44POPC   C4B 4258  43.057  20.036   7.664
   45POPC   NC3 4259  20.597  33.060   9.464
   45POPC   PO4 4260  20.611  33.014   9.164
   45POPC   GL1 4261  20.562  33.019   8.864
   45POPC   GL2 4262  20.582  33.176   8.864
   45POPC   C1A 4263  20.567  33.020   8.564
   45POPC   D2A 4264  20.630  33.069   8.264
   45POPC   C3A 4265  20.596  32.995   7.964
   45POPC   C4A 4266  20.566  33.037   7.664
   45POPC   C1B 4267  20.473  33.242   8.564
   45POPC   C2B 4268  20.456  33.215   8.264
   45POPC   C3B 4269  20.449  33.219   7.964
   45POPC   C4B 4270  20.498  33.268   7.664
   46POPC   NC3 4271   4.317  32.987   9.464
   46POPC   PO4 4272   4.289  33.038   9.164
   46POPC   GL1 4273   4.297  33.002   8.864
   46POPC   GL2 4274   4.390  32.952   8.864
   46POPC   C1A 4275   4.322  33.020   8.564
   46POPC   D2A 4276   4.331  33.044   8.264
   46POPC   C3A 4277   4.286  32.995   7.964
   46POPC   C4A 4278   4.275  32.993   7.664
   46POPC   C1B 4279   4.344  32.756   8.564
   46POPC   C2B 4280   4.410  32.812   8.264
   46POPC   C3B 4281   4.325  32.739   7.964
   46POPC   C4B 4282   4.373  32.788   7.664
   47POPC   NC3 4283  31.447  14.408   9.464
   47POPC   PO4 4284  31.473  14.378   9.164
   47POPC   GL1 4285  31.508  14.360   8.864
   47POPC   GL2 4286  31.372  14.400   8.864
   47POPC   C1A 4287  31.513  14.378   8.564
   47POPC   D2A 4288  31.504  14.395   8.264
   47POPC   C3A 4289  31.515  14.410   7.964
   47POPC   C4A 4290  31.438  14.388   7.664
   47POPC   C1B 4291  31.231  14.342   8.564
   47POPC   C2B 4292  31.258  14.363   8.264
   47POPC   C3B 4293  31.179  14.333   7.964
   47POPC   C4B 4294  31.215  14.391   7.664
   48POPC   NC3 4295  33.000  16.744   9.464
   48POPC   PO4 4296  33.060  16.775   9.164
   48POPC   GL1 4297  33.074  16.704   8.864
   48POPC   GL2 4298  33.019  16.864   8.864
   48POPC   C1A 4299  32.997  16.692   8.564
   48POPC   D2A 4300  33.038  16.712   8.264
   48POPC   C3A 4301  33.056  16.757   7.964
   48POPC   C4A 4302  33.040  16.682   7.664
   48POPC   C1B 4303  33.039  16.955   8.564
   48POPC   C2B 4304  33.048  16.940   8.264
   48POPC   C3B 4305  33.122  17.024   7.964
   48POPC   C4B 4306  33.122  16.950   7.664
   49POPC   NC3 4307   5.918  21.343   9.464
   49POPC   PO4 4308   5.852  21.391   9.164
   49POPC   GL1 4309   5.911  21.365   8.864
   49POPC   GL2 4310   5.765  21.418   8.864
   49POPC   C1A 4311   5.851  21.353   8.564
   49POPC   D2A 4312   5.918  21.352   8.264
   49POPC   C3A 4313   5.828  21.428   7.964
   49POPC   C4A 4314   5.885  21.381   7.664
   49POPC   C1B 4315   5.597  21.363   8.564
   49POPC   C2B 4316   5.633  21.376   8.264
   49POPC   C3B 4317   5.647  21.380   7.964
   49POPC   C4B 4318   5.651  21.398   7.664
   50POPC   NC3 4319   6.625  43.842   9.464
   50POPC   PO4 4320   6.687  43.836   9.164
   50POPC   GL1 4321   6.693  43.933   8.864
   50POPC   GL2 4322   6.543  43.960   8.864
   50POPC   C1A 4323   6.613  43.888   8.564
   50POPC   D2A 4324   6.602  43.917   8.264
   50POPC   C3A 4325   6.626  43.906   7.964
   50POPC   C4A 4326   6.692  43.876   7.664
   50POPC   C1B 4327   6.504  44.157   8.564
   50POPC   C2B 4328   6.581  44.126   8.264
   50POPC   C3B 4329   6.534  44.110   7.964
   50POPC   C4B 4330   6.489  44.075   7.664
   51POPC   NC3 4331  13.629  43.880   9.464
   51POPC   PO4 4332  13.581  43.870   9.164
   51POPC   GL1 4333  13.671  43.922   8.864
   51POPC   GL2 4334  13.517  43.969   8.864
   51POPC   C1A 4335  13.631  43.846   8.564
   51POPC   D2A 4336  13.640  43.876   8.264
   51POPC   C3A 4337  13.598  43.841   7.964
   51POPC   C4A 4338  13.618  43.858   7.664
   51POPC   C1B 4339  13.448  44.105   8.564
   51POPC   C2B 4340  13.520  44.131   8.264
   51POPC   C3B 4341  13.447  44.103   7.964
   51POPC   C4B 4342  13.495  44.140   7.664
   52POPC   NC3 4343  26.008  32.212   9.464
   52POPC   PO4 4344  26.023  32.284   9.164
   52POPC   GL1 4345  26.045  32.257   8.864
   52POPC   GL2 4346  26.094  32.326   8.864
   52POPC   C1A 4347  26.037  32.278   8.564
   52POPC   D2A 4348  25.998  32.253   8.264
   52POPC   C3A 4349  26.063  32.275   7.964
   52POPC   C4A 4350  26.039  32.279   7.664
   52POPC   C1B 4351  26.166  32.455   8.564
   52POPC   C2B 4352  26.168  32.459   8.264
   52POPC   C3B 4353  26.118  32.443   7.964
   52POPC   C4B 4354  26.134  32.466   7.664
   53POPC   NC3 4355  19.061   5.057   9.464
   53POPC   PO4 4356  19.075   5.087   9.164
   53POPC   GL1 4357  19.025   5.115   8.864
   53POPC   GL2 4358  19.133   5.026   8.864
   53POPC   C1A 4359  19.046   5.070   8.564
   53POPC   D2A 4360  19.081   5.130   8.264
   53POPC   C3A 4361  19.081   5.049   7.964
   53POPC   C4A 4362  19.076   5.118   7.664
   53POPC   C1B 4363  19.245   4.876   8.564
   53POPC   C2B 4364  19.266   4.863   8.264
   53POPC   C3B 4365  19.258   4.941   7.964
   53POPC   C4B 4366  19.227   4.896   7.664
   54POPC   NC3 4367   5.911  20.595   9.464
   54POPC   PO4 4368   5.882  20.645   9.164
   54POPC   GL1 4369   5.883  20.641   8.864
   54POPC   GL2 4370   5.989  20.625   8.864
   54POPC   C1A 4371   5.855  20.643   8.564
   54POPC   D2A 4372   5.837  20.653   8.264
   54POPC   C3A 4373   5.829  20.582   7.964
   54POPC   C4A 4374   5.857  20.642   7.664
   54POPC   C1B 4375   6.130  20.660   8.564
   54POPC   C2B 4376   6.163  20.673   8.264
   54POPC   C3B 4377   6.078  20.599   7.964
   54POPC   C4B 4378   6.081  20.672   7.664
   55POPC   NC3 4379  25.264  38.494   9.464
   55POPC   PO4 4380  25.268  38.470   9.164
   55POPC   GL1 4381  25.240  38.423   8.864
   55POPC   GL2 4382  25.111  38.458   8.864
   55POPC   C1A 4383  25.258  38.422   8.564
   55POPC   D2A 4384  25.224  38.461   8.264
   55POPC   C3A 4385  25.279  38.461   7.964
   55POPC   C4A 4386  25.239  38.467   7.664
   55POPC   C1B 4387  25.032  38.488   8.564
   55POPC   C2B 4388  25.042  38.438   8.264
   55POPC   C3B 4389  25.053  38.404   7.964
   55POPC   C4B 4390  25.044  38.427   7.664
   56POPC   NC3 4391  30.672  15.971   9.464
   56POPC   PO4 4392  30.680  15.940   9.164
   56POPC   GL1 4393  30.742  15.977   8.864
   56POPC   GL2 4394  30.768  15.846   8.864
   56POPC   C1A 4395  30.654  15.984   8.564
   56POPC   D2A 4396  30.734  15.984   8.264
   56POPC   C3A 4397  30.678  15.998   7.964
   56POPC   C4A 4398  30.704  15.970   7.664
   56POPC   C1B 4399  30.809  15.758   8.564
   56POPC   C2B 4400  30.755  15.738   8.264
   56POPC   C3B 4401  30.725  15.761   7.964
   56POPC   C4B 4402  30.741  15.664   7.664
   57POPC   NC3 4403  24.468   4.310   9.464
   57POPC   PO4 4404  24.523   4.296   9.164
   57POPC   GL1 4405  24.522   4.335   8.864
   57POPC   GL2 4406  24.325   4.361   8.864
   57POPC   C1A 4407  24.458   4.367   8.564
   57POPC   D2A 4408  24.503   4.345   8.264
   57POPC   C3A 4409  24.500   4.302   7.964
   57POPC   C4A 4410  24.445   4.300   7.664
   57POPC   C1B 4411  24.196   4.286   8.564
   57POPC   C2B 4412  24.263   4.364   8.264
   57POPC   C3B 4413  24.247   4.304   7.964
   57POPC   C4B 4414  24.253   4.367   7.664
   58POPC   NC3 4415  37.634  40.801   9.464
   58POPC   PO4 4416  37.678  40.825   9.164
   58POPC   GL1 4417  37.696  40.784   8.864
   58POPC   GL2 4418  37.734  40.629   8.864
   58POPC   C1A 4419  37.693  40.796   8.564
   58POPC   D2A 4420  37.662  40.804   8.264
   58POPC   C3A 4421  37.697  40.811   7.964
   58POPC   C4A 4422  37.698  40.780   7.664
   58POPC   C1B 4423  37.782  40.604   8.564
   58POPC   C2B 4424  37.819  40.574   8.264
   58POPC   C3B 4425  37.831  40.540   7.964
   58POPC   C4B 4426  37.794  40.547   7.664
   59POPC   NC3 4427   3.557  26.820   9.464
   59POPC   PO4 4428   3.495  26.804   9.164
   59POPC   GL1 4429   3.532  26.782   8.864
   59POPC   GL2 4430   3.481  26.688   8.864
   59POPC   C1A 4431   3.538  26.827   8.564
   59POPC   D2A 4432   3.554  26.834   8.264
   59POPC   C3A 4433   3.558  26.844   7.964
   59POPC   C4A 4434   3.544  26.795   7.664
   59POPC   C1B 4435   3.415  26.609   8.564
   59POPC   C2B 4436   3.375  26.667   8.264
   59POPC   C3B 4437   3.351  26.614   7.964
   59POPC   C4B 4438   3.412  26.616   7.664
   60POPC   NC3 4439   6.659  19.791   9.464
   60POPC   PO4 4440   6.596  19.879   9.164
   60POPC   GL1 4441   6.648  19.874   8.864
   60POPC   GL2 4442   6.698  19.741   8.864
   60POPC   C1A 4443   6.596  19.804   8.564
   60POPC   D2A 4444   6.670  19.878   8.264
   60POPC   C3A 4445   6.672  19.826   7.964
   60POPC   C4A 4446   6.677  19.785   7.664
   60POPC   C1B 4447   6.842  19.645   8.564
   60POPC   C2B 4448   6.871  19.650   8.264
   60POPC   C3B 4449   6.840  19.677   7.964
   60POPC   C4B 4450   6.821  19.686   7.664
   61POPC   NC3 4451   2.721  35.323   9.464
   61POPC   PO4 4452   2.755  35.333   9.164
   61POPC   GL1 4453   2.807  35.338   8.864
   61POPC   GL2 4454   2.610  35.295   8.864
   61POPC   C1A 4455   2.751  35.362   8.564
   61POPC   D2A 4456   2.776  35.359   8.264
   61POPC   C3A 4457   2.736  35.350   7.964
   61POPC   C4A 4458   2.781  35.322   7.664
   61POPC   C1B 4459   2.532  35.250   8.564
   61POPC   C2B 4460   2.583  35.186   8.264
   61POPC   C3B 4461   2.511  35.177   7.964
   61POPC   C4B 4462   2.535  35.216   7.664
   62POPC   NC3 4463   0.457   1.217   9.464
   62POPC   PO4 4464   0.473   1.232   9.164
   62POPC   GL1 4465   0.452   1.185   8.864
   62POPC   GL2 4466   0.504   1.063   8.864
   62POPC   C1A 4467   0.454   1.214   8.564
   62POPC   D2A 4468   0.463   1.249   8.264
   62POPC   C3A 4469   0.450   1.244   7.964
   62POPC   C4A 4470   0.463   1.253   7.664
   62POPC   C1B 4471   0.524   0.934   8.564
   62POPC   C2B 4472   0.525   1.013   8.264
   62POPC   C3B 4473   0.468   0.999   7.964
   62POPC   C4B 4474   0.471   0.987   7.664
   63POPC   NC3 4475  25.259  10.563   9.464
   63POPC   PO4 4476  25.257  10.481   9.164
   63POPC   GL1 4477  25.239  10.488   8.864
   63POPC   GL2 4478  25.373  10.456   8.864
   63POPC   C1A 4479  25.293  10.478   8.564
   63POPC   D2A 4480  25.252  10.484   8.264
   63POPC   C3A 4481  25.265  10.484   7.964
   63POPC   C4A 4482  25.301  10.545   7.664
   63POPC   C1B 4483  25.480  10.403   8.564
   63POPC   C2B 4484  25.491  10.487   8.264
   63POPC   C3B 4485  25.493  10.472   7.964
   63POPC   C4B 4486  25.553  10.472   7.664
   64POPC   NC3 4487  32.252  11.338   9.464
   64POPC   PO4 4488  32.238  11.311   9.164
   64POPC   GL1 4489  32.264  11.321   8.864
   64POPC   GL2 4490  32.322  11.175   8.864
   64POPC   C1A 4491  32.200  11.338   8.564
   64POPC   D2A 4492  32.240  11.340   8.264
   64POPC   C3A 4493  32.201  11.334   7.964
   64POPC   C4A 4494  32.265  11.268   7.664
   64POPC   C1B 4495  32.435  11.062   8.564
   64POPC   C2B 4496  32.437  11.063   8.264
   64POPC   C3B 4497  32.423  11.137   7.964
   64POPC   C4B 4498  32.357  11.083   7.664
   65POPC   NC3 4499  41.521  33.797   9.464
   65POPC   PO4 4500  41.530  33.759   9.164
   65POPC   GL1 4501  41.524  33.793   8.864
   65POPC   GL2 4502  41.445  33.776   8.864
   65POPC   C1A 4503  41.515  33.836   8.564
   65POPC   D2A 4504  41.601  33.841   8.264
   65POPC   C3A 4505  41.538  33.848   7.964
   65POPC   C4A 4506  41.601  33.762   7.664
   65POPC   C1B 4507  41.308  33.631   8.564
   65POPC   C2B 4508  41.310  33.714   8.264
   65POPC   C3B 4509  41.336  33.721   7.964
   65POPC   C4B 4510  41.301  33.694   7.664
   66POPC   NC3 4511  33.042  36.911   9.464
   66POPC   PO4 4512  33.071  36.945   9.164
   66POPC   GL1 4513  33.072  36.894   8.864
   66POPC   GL2 4514  32.992  36.975   8.864
   66POPC   C1A 4515  32.988  36.871   8.564
   66POPC   D2A 4516  32.985  36.894   8.264
   66POPC   C3A 4517  33.024  36.914   7.964
   66POPC   C4A 4518  33.062  36.946   7.664
   66POPC   C1B 4519  32.906  37.052   8.564
   66POPC   C2B 4520  32.844  37.081   8.264
   66POPC   C3B 4521  32.887  37.140   7.964
   66POPC   C4B 4522  32.850  37.058   7.664
   67POPC   NC3 4523  19.016  21.349   9.464
   67POPC   PO4 4524  19.049  21.366   9.164
   67POPC   GL1 4525  19.096  21.415   8.864
   67POPC   GL2 4526  19.063  21.255   8.864
   67POPC   C1A 4527  19.022  21.341   8.564
   67POPC   D2A 4528  19.035  21.347   8.264
   67POPC   C3A 4529  19.065  21.343   7.964
   67POPC   C4A 4530  19.055  21.409   7.664
   67POPC   C1B 4531  19.069  21.154   8.564
   67POPC   C2B 4532  19.105  21.115   8.264
   67POPC   C3B 4533  19.127  21.133   7.964
   67POPC   C4B 4534  19.126  21.165   7.664
   68POPC   NC3 4535  28.368  40.786   9.464
   68POPC   PO4 4536  28.354  40.766   9.164
   68POPC   GL1 4537  28.341  40.763   8.864
   68POPC   GL2 4538  28.293  40.706   8.864
   68POPC   C1A 4539  28.385  40.746   8.564
   68POPC   D2A 4540  28.414  40.826   8.264
   68POPC   C3A 4541  28.356  40.754   7.964
   68POPC   C4A 4542  28.344  40.828   7.664
   68POPC   C1B 4543  28.206  40.595   8.564
   68POPC   C2B 4544  28.218  40.553   8.264
   68POPC   C3B 4545  28.288  40.579   7.964
   68POPC   C4B 4546  28.213  40.541   7.664
   69POPC   NC3 4547  41.529  18.273   9.464
   69POPC   PO4 4548  41.605  18.248   9.164
   69POPC   GL1 4549  41.567  18.301   8.864
   69POPC   GL2 4550  41.681  18.296   8.864
   69POPC   C1A 4551  41.526  18.313   8.564
   69POPC   D2A 4552  41.594  18.244   8.264
   69POPC   C3A 4553  41.535  18.282   7.964
   69POPC   C4A 4554  41.572  18.272   7.664
   69POPC   C1B 4555  41.798  18.236   8.564
   69POPC   C2B 4556  41.809  18.267   8.264
   69POPC   C3B 4557  41.804  18.294   7.964
   69POPC   C4B 4558  41.803  18.288   7.664
   70POPC   NC3 4559  19.009  26.015   9.464
   70POPC   PO4 4560  19.031  26.037   9.164
   70POPC   GL1 4561  19.063  26.045   8.864
   70POPC   GL2 4562  18.899  26.038   8.864
   70POPC   C1A 4563  19.098  26.075   8.564
   70POPC   D2A 4564  19.035  26.047   8.264
   70POPC   C3A 4565  19.048  26.002   7.964
   70POPC   C4A 4566  19.021  26.044   7.664
   70POPC   C1B 4567  18.787  26.105   8.564
   70POPC   C2B 4568  18.819  26.023   8.264
   70POPC   C3B 4569  18.814  26.018   7.964
   70POPC   C4B 4570  18.787  26.101   7.664
   71POPC   NC3 4571  34.562   5.070   9.464
   71POPC   PO4 4572  34.580   5.126   9.164
   71POPC   GL1 4573  34.566   5.098   8.864
   71POPC   GL2 4574  34.694   5.118   8.864
   71POPC   C1A 4575  34.552   5.072   8.564
   71POPC   D2A 4576  34.606   5.094   8.264
   71POPC   C3A 4577  34.595   5.119   7.964
   71POPC   C4A 4578  34.592   5.069   7.664
   71POPC   C1B 4579  34.872   5.033   8.564
   71POPC   C2B 4580  34.791   5.013   8.264
   71POPC   C3B 4581  34.776   5.092   7.964
   71POPC   C4B 4582  34.808   5.024   7.664
   72POPC   NC3 4583  13.633   1.173   9.464
   72POPC   PO4 4584  13.660   1.227   9.164
   72POPC   GL1 4585  13.644   1.260   8.864
   72POPC   GL2 4586  13.630   1.304   8.864
   72POPC   C1A 4587  13.600   1.239   8.564
   72POPC   D2A 4588  13.614   1.180   8.264
   72POPC   C3A 4589  13.591   1.166   7.964
   72POPC   C4A 4590  13.629   1.179   7.664
   72POPC   C1B 4591  13.604   1.499   8.564
   72POPC   C2B 4592  13.684   1.496   8.264
   72POPC   C3B 4593  13.670   1.478   7.964
   72POPC   C4B 4594  13.606   1.502   7.664
   73POPC   NC3 4595  16.767  40.820   9.464
   73POPC   PO4 4596  16.709  40.737   9.164
   73POPC   GL1 4597  16.726  40.796   8.864
   73POPC   GL2 4598  16.676  40.735   8.864
   73POPC   C1A 4599  16.691  40.823   8.564
   73POPC   D2A 4600  16.701  40.797   8.264
   73POPC   C3A 4601  16.730  40.738   7.964
   73POPC   C4A 4602  16.778  40.830   7.664
   73POPC   C1B 4603  16.588  40.639   8.564
   73POPC   C2B 4604  16.614  40.556   8.264
   73POPC   C3B 4605  16.554  40.567   7.964
   73POPC   C4B 4606  16.620  40.579   7.664
   74POPC   NC3 4607   4.332   5.069   9.464
   74POPC   PO4 4608   4.360   5.068   9.164
   74POPC   GL1 4609   4.343   5.045   8.864
   74POPC   GL2 4610   4.182   5.207   8.864
   74POPC   C1A 4611   4.297   5.088   8.564
   74POPC   D2A 4612   4.296   5.055   8.264
   74POPC   C3A 4613   4.274   5.049   7.964
   74POPC   C4A 4614   4.364   5.093   7.664
   74POPC   C1B 4615   4.171   5.262   8.564
   74POPC   C2B 4616   4.169   5.250   8.264
   74POPC   C3B 4617   4.132   5.249   7.964
   74POPC   C4B 4618   4.093   5.298   7.664
   75POPC   NC3 4619  12.093  22.975   9.464
   75POPC   PO4 4620  12.087  22.903   9.164
   75POPC   GL1 4621  12.115  22.944   8.864
   75POPC   GL2 4622  11.958  22.899   8.864
   75POPC   C1A 4623  12.037  22.977   8.564
   75POPC   D2A 4624  12.068  22.927   8.264
   75POPC   C3A 4625  12.094  22.969   7.964
   75POPC   C4A 4626  12.030  22.978   7.664
   75POPC   C1B 4627  11.897  22.738   8.564
   75POPC   C2B 4628  11.882  22.827   8.264
   75POPC   C3B 4629  11.846  22.776   7.964
   75POPC   C4B 4630  11.924  22.743   7.664
   76POPC   NC3 4631   6.684  29.881   9.464
   76POPC   PO4 4632   6.692  29.964   9.164
   76POPC   GL1 4633   6.627  29.923   8.864
   76POPC   GL2 4634   6.533  29.893   8.864
   76POPC   C1A 4635   6.627  29.877   8.564
   76POPC   D2A 4636   6.669  29.871   8.264
   76POPC   C3A 4637   6.666  29.882   7.964
   76POPC   C4A 4638   6.643  29.964   7.664
   76POPC   C1B 4639   6.411  29.804   8.564
   76POPC   C2B 4640   6.372  29.841   8.264
   76POPC   C3B 4641   6.438  29.821   7.964
   76POPC   C4B 4642   6.395  29.854   7.664
   77POPC   NC3 4643  27.567  12.102   9.464
   77POPC   PO4 4644  27.612  12.095   9.164
   77POPC   GL1 4645  27.598  12.083   8.864
   77POPC   GL2 4646  27.461  11.996   8.864
   77POPC   C1A 4647  27.584  12.086   8.564
   77POPC   D2A 4648  27.561  12.033   8.264
   77POPC   C3A 4649  27.583  12.091   7.964
   77POPC   C4A 4650  27.560  12.090   7.664
   77POPC   C1B 4651  27.396  11.918   8.564
   77POPC   C2B 4652  27.367  11.947   8.264
   77POPC   C3B 4653  27.415  11.881   7.964
   77POPC   C4B 4654  27.393  11.916   7.664
   78POPC   NC3 4655  43.071  32.218   9.464
   78POPC   PO4 4656  43.079  32.284   9.164
   78POPC   GL1 4657  43.085  32.200   8.864
   78POPC   GL2 4658  42.990  32.173   8.864
   78POPC   C1A 4659  43.136  32.218   8.564
   78POPC   D2A 4660  43.127  32.232   8.264
   78POPC   C3A 4661  43.150  32.250   7.964
   78POPC   C4A 4662  43.146  32.294   7.664
   78POPC   C1B 4663  42.999  31.994   8.564
   78POPC   C2B 4664  42.969  32.014   8.264
   78POPC   C3B 4665  42.929  32.020   7.964
   78POPC   C4B 4666  42.987  32.055   7.664
   79POPC   NC3 4667  29.908  12.880   9.464
   79POPC   PO4 4668  29.894  12.852   9.164
   79POPC   GL1 4669  29.891  12.817   8.864
   79POPC   GL2 4670  30.071  12.835   8.864
   79POPC   C1A 4671  29.917  12.868   8.564
   79POPC   D2A 4672  29.939  12.862   8.264
   79POPC   C3A 4673  29.948  12.827   7.964
   79POPC   C4A 4674  29.897  12.826   7.664
   79POPC   C1B 4675  30.131  12.886   8.564
   79POPC   C2B 4676  30.124  12.880   8.264
   79POPC   C3B 4677  30.171  12.923   7.964
   79POPC   C4B 4678  30.122  12.909   7.664
   80POPC   NC3 4679   1.943  19.057   9.464
   80POPC   PO4 4680   2.010  19.049   9.164
   80POPC   GL1 4681   1.986  19.051   8.864
   80POPC   GL2 4682   2.137  19.034   8.864
   80POPC   C1A 4683   1.954  19.049   8.564
   80POPC   D2A 4684   2.022  19.108   8.264
   80POPC   C3A 4685   2.011  19.102   7.964
   80POPC   C4A 4686   2.019  19.084   7.664
   80POPC   C1B 4687   2.156  18.913   8.564
   80POPC   C2B 4688   2.203  18.935   8.264
   80POPC   C3B 4689   2.176  18.868   7.964
   80POPC   C4B 4690   2.210  18.954   7.664
   81POPC   NC3 4691  43.097  14.408   9.464
   81POPC   PO4 4692  43.100  14.445   9.164
   81POPC   GL1 4693  43.104  14.439   8.864
   81POPC   GL2 4694  43.226  14.362   8.864
   81POPC   C1A 4695  43.071  14.408   8.564
   81POPC   D2A 4696  43.085  14.405   8.264
   81POPC   C3A 4697  43.069  14.368   7.964
   81POPC   C4A 4698  43.143  14.413   7.664
   81POPC   C1B 4699  43.358  14.362   8.564
   81POPC   C2B 4700  43.362  14.344   8.264
   81POPC   C3B 4701  43.394  14.333   7.964
   81POPC   C4B 4702  43.334  14.302   7.664
   82POPC   NC3 4703   0.451  33.818   9.464
   82POPC   PO4 4704   0.390  33.791   9.164
   82POPC   GL1 4705   0.389  33.785   8.864
   82POPC   GL2 4706   0.556  33.682   8.864
   82POPC   C1A 4707   0.480  33.834   8.564
   82POPC   D2A 4708   0.470  33.846   8.264
   82POPC   C3A 4709   0.438  33.779   7.964
   82POPC   C4A 4710   0.483  33.760   7.664
   82POPC   C1B 4711   0.663  33.605   8.564
   82POPC   C2B 4712   0.577  33.631   8.264
   82POPC   C3B 4713   0.641  33.620   7.964
   82POPC   C4B 4714   0.646  33.658   7.664
   83POPC   NC3 4715  15.166   9.792   9.464
   83POPC   PO4 4716  15.191   9.734   9.164
   83POPC   GL1 4717  15.178   9.778   8.864
   83POPC   GL2 4718  15.166   9.632   8.864
   83POPC   C1A 4719  15.187   9.704   8.564
   83POPC   D2A 4720  15.229   9.797   8.264
   83POPC   C3A 4721  15.193   9.730   7.964
   83POPC   C4A 4722  15.168   9.756   7.664
   83POPC   C1B 4723  15.167   9.490   8.564
   83POPC   C2B 4724  15.100   9.522   8.264
   83POPC   C3B 4725  15.161   9.503   7.964
   83POPC   C4B 4726  15.159   9.477   7.664
   84POPC   NC3 4727  32.238  19.823   9.464
   84POPC   PO4 4728  32.285  19.789   9.164
   84POPC   GL1 4729  32.241  19.805   8.864
   84POPC   GL2 4730  32.247  19.694   8.864
   84POPC   C1A 4731  32.214  19.815   8.564
   84POPC   D2A 4732  32.267  19.837   8.264
   84POPC   C3A 4733  32.247  19.883   7.964
   84POPC   C4A 4734  32.283  19.860   7.664
   84POPC   C1B 4735  32.357  19.570   8.564
   84POPC   C2B 4736  32.295  19.610   8.264
   84POPC   C3B 4737  32.307  19.564   7.964
   84POPC   C4B 4738  32.307  19.636   7.664
   85POPC   NC3 4739   5.093  12.125   9.464
   85POPC   PO4 4740   5.098  12.125   9.164
   85POPC   GL1 4741   5.087  12.111   8.864
   85POPC   GL2 4742   5.240  12.076   8.864
   85POPC   C1A 4743   5.099  12.053   8.564
   85POPC   D2A 4744   5.126  12.113   8.264
   85POPC   C3A 4745   5.120  12.084   7.964
   85POPC   C4A 4746   5.044  12.113   7.664
   85POPC   C1B 4747   5.330  12.139   8.564
   85POPC   C2B 4748   5.363  12.187   8.264
   85POPC   C3B 4749   5.364  12.138   7.964
   85POPC   C4B 4750   5.339  12.181   7.664
   86POPC   NC3 4751  16.765  26.786   9.464
   86POPC   PO4 4752  16.698  26.794   9.164
   86POPC   GL1 4753  16.758  26.827   8.864
   86POPC   GL2 4754  16.648  26.754   8.864
   86POPC   C1A 4755  16.749  26.854   8.564
   86POPC   D2A 4756  16.754  26.866   8.264
   86POPC   C3A 4757  16.690  26.860   7.964
   86POPC   C4A 4758  16.759  26.776   7.664
   86POPC   C1B 4759  16.624  26.630   8.564
   86POPC   C2B 4760  16.607  26.640   8.264
   86POPC   C3B 4761  16.606  26.589   7.964
   86POPC   C4B 4762  16.572  26.650   7.664
   87POPC   NC3 4763  11.253  22.903   9.464
   87POPC   PO4 4764  11.276  22.914   9.164
   87POPC   GL1 4765  11.303  22.977   8.864
   87POPC   GL2 4766  11.340  22.848   8.864
   87POPC   C1A 4767  11.274  22.909   8.564
   87POPC   D2A 4768  11.283  22.920   8.264
   87POPC   C3A 4769  11.313  22.963   7.964
   87POPC   C4A 4770  11.269  22.913   7.664
   87POPC   C1B 4771  11.459  22.721   8.564
   87POPC   C2B 4772  11.422  22.746   8.264
   87POPC   C3B 4773  11.375  22.745   7.964
   87POPC   C4B 4774  11.466  22.745   7.664
   88POPC   NC3 4775  22.939  13.625   9.464
   88POPC   PO4 4776  22.916  13.608   9.164
   88POPC   GL1 4777  22.903  13.587   8.864
   88POPC   GL2 4778  22.995  13.572   8.864
   88POPC   C1A 4779  22.972  13.628   8.564
   88POPC   D2A 4780  22.969  13.639   8.264
   88POPC   C3A 4781  22.969  13.594   7.964
   88POPC   C4A 4782  22.899  13.611   7.664
   88POPC   C1B 4783  23.110  13.456   8.564
   88POPC   C2B 4784  23.165  13.514   8.264
   88POPC   C3B 4785  23.119  13.442   7.964
   88POPC   C4B 4786  23.147  13.540   7.664
   89POPC   NC3 4787   1.240  33.808   9.464
   89POPC   PO4 4788   1.179  33.763   9.164
   89POPC   GL1 4789   1.200  33.828   8.864
   89POPC   GL2 4790   1.268  33.687   8.864
   89POPC   C1A 4791   1.256  33.839   8.564
   89POPC   D2A 4792   1.215  33.775   8.264
   89POPC   C3A 4793   1.236  33.775   7.964
   89POPC   C4A 4794   1.258  33.779   7.664
   89POPC   C1B 4795   1.346  33.574   8.564
   89POPC   C2B 4796   1.282  33.536   8.264
   89POPC   C3B 4797   1.376  33.546   7.964
   89POPC   C4B 4798   1.364  33.550   7.664
   90POPC   NC3 4799  44.668  22.947   9.464
   90POPC   PO4 4800  44.641  22.898   9.164
   90POPC   GL1 4801  44.660  22.912   8.864
   90POPC   GL2 4802  44.582  23.043   8.864
   90POPC   C1A 4803  44.702  22.912   8.564
   90POPC   D2A 4804  44.653  22.931   8.264
   90POPC   C3A 4805  44.653  22.983   7.964
   90POPC   C4A 4806  44.669  22.967   7.664
   90POPC   C1B 4807  44.476  23.097   8.564
   90POPC   C2B 4808  44.399  23.068   8.264
   90POPC   C3B 4809  44.484  23.065   7.964
   90POPC   C4B 4810  44.482  23.072   7.664
   91POPC   NC3 4811  17.517  31.503   9.464
   91POPC   PO4 4812  17.462  31.451   9.164
   91POPC   GL1 4813  17.499  31.511   8.864
   91POPC   GL2 4814  17.622  31.455   8.864
   91POPC   C1A 4815  17.534  31.424   8.564
   91POPC   D2A 4816  17.511  31.456   8.264
   91POPC   C3A 4817  17.550  31.435   7.964
   91POPC   C4A 4818  17.513  31.499   7.664
   91POPC   C1B 4819  17.735  31.364   8.564
   91POPC   C2B 4820  17.747  31.372   8.264
   91POPC   C3B 4821  17.740  31.299   7.964
   91POPC   C4B 4822  17.748  31.326   7.664
   92POPC   NC3 4823   1.973  27.609   9.464
   92POPC   PO4 4824   1.950  27.557   9.164
   92POPC   GL1 4825   1.977  27.641   8.864
   92POPC   GL2 4826   1.887  27.625   8.864
   92POPC   C1A 4827   2.037  27.561   8.564
   92POPC   D2A 4828   1.964  27.590   8.264
   92POPC   C3A 4829   2.027  27.584   7.964
   92POPC   C4A 4830   1.960  27.579   7.664
   92POPC   C1B 4831   1.741  27.552   8.564
   92POPC   C2B 4832   1.699  27.574   8.264
   92POPC   C3B 4833   1.724  27.585   7.964
   92POPC   C4B 4834   1.722  27.609   7.664
   93POPC   NC3 4835  30.705  26.818   9.464
   93POPC   PO4 4836  30.688  26.845   9.164
   93POPC   GL1 4837  30.699  26.781   8.864
   93POPC   GL2 4838  30.610  26.858   8.864
   93POPC   C1A 4839  30.679  26.854   8.564
   93POPC   D2A 4840  30.736  26.792   8.264
   93POPC   C3A 4841  30.727  26.791   7.964
   93POPC   C4A 4842  30.737  26.788   7.664
   93POPC   C1B 4843  30.514  27.000   8.564
   93POPC   C2B 4844  30.547  26.972   8.264
   93POPC   C3B 4845  30.551  26.959   7.964
   93POPC   C4B 4846  30.548  26.983   7.664
   94POPC   NC3 4847   2.771  38.423   9.464
   94POPC   PO4 4848   2.725  38.501   9.164
   94POPC   GL1 4849   2.770  38.424   8.864
   94POPC   GL2 4850   2.764  38.349   8.864
   94POPC   C1A 4851   2.768  38.413   8.564
   94POPC   D2A 4852   2.748  38.425   8.264
   94POPC   C3A 4853   2.735  38.422   7.964
   94POPC   C4A 4854   2.772  38.460   7.664
   94POPC   C1B 4855   2.681  38.173   8.564
   94POPC   C2B 4856   2.693  38.178   8.264
   94POPC   C3B 4857   2.738  38.182   7.964
   94POPC   C4B 4858   2.695  38.240   7.664
   95POPC   NC3 4859  14.360  41.606   9.464
   95POPC   PO4 4860  14.406  41.552   9.164
   95POPC   GL1 4861  14.384  41.546   8.864
   95POPC   GL2 4862  14.331  41.627   8.864
   95POPC   C1A 4863  14.357  41.566   8.564
   95POPC   D2A 4864  14.410  41.602   8.264
   95POPC   C3A 4865  14.442  41.513   7.964
   95POPC   C4A 4866  14.391  41.539   7.664
   95POPC   C1B 4867  14.290  41.782   8.564
   95POPC   C2B 4868  14.285  41.774   8.264
   95POPC   C3B 4869  14.244  41.751   7.964
   95POPC   C4B 4870  14.274  41.783   7.664
   96POPC   NC3 4871  20.568  41.571   9.464
   96POPC   PO4 4872  20.562  41.555   9.164
   96POPC   GL1 4873  20.632  41.553   8.864
   96POPC   GL2 4874  20.667  41.691   8.864
   96POPC   C1A 4875  20.585  41.576   8.564
   96POPC   D2A 4876  20.569  41.523   8.264
   96POPC   C3A 4877  20.633  41.589   7.964
   96POPC   C4A 4878  20.639  41.518   7.664
   96POPC   C1B 4879  20.796  41.735   8.564
   96POPC   C2B 4880  20.734  41.779   8.264
   96POPC   C3B 4881  20.771  41.712   7.964
   96POPC   C4B 4882  20.826  41.760   7.664
   97POPC   NC3 4883   9.721  36.869   9.464
   97POPC   PO4 4884   9.784  36.874   9.164
   97POPC   GL1 4885   9.780  36.883   8.864
   97POPC   GL2 4886   9.724  36.807   8.864
   97POPC   C1A 4887   9.714  36.905   8.564
   97POPC   D2A 4888   9.768  36.921   8.264
   97POPC   C3A 4889   9.705  36.932   7.964
   97POPC   C4A 4890   9.738  36.894   7.664
   97POPC   C1B 4891   9.683  36.723   8.564
   97POPC   C2B 4892   9.639  36.654   8.264
   97POPC   C3B 4893   9.687  36.695   7.964
   97POPC   C4B 4894   9.671  36.659   7.664
   98POPC   NC3 4895  26.045  39.245   9.464
   98POPC   PO4 4896  26.046  39.182   9.164
   98POPC   GL1 4897  26.031  39.183   8.864
   98POPC   GL2 4898  25.975  39.330   8.864
   98POPC   C1A 4899  26.038  39.266   8.564
   98POPC   D2A 4900  26.035  39.269   8.264
   98POPC   C3A 4901  26.021  39.184   7.964
   98POPC   C4A 4902  26.049  39.196   7.664
   98POPC   C1B 4903  25.906  39.444   8.564
   98POPC   C2B 4904  25.914  39.482   8.264
   98POPC   C3B 4905  25.884  39.432   7.964
   98POPC   C4B 4906  25.958  39.462   7.664
   99POPC   NC3 4907  39.963  18.298   9.464
   99POPC   PO4 4908  40.039  18.286   9.164
   99POPC   GL1 4909  39.960  18.261   8.864
   99POPC   GL2 4910  40.169  18.286   8.864
   99POPC   C1A 4911  40.035  18.313   8.564
   99POPC   D2A 4912  39.989  18.258   8.264
   99POPC   C3A 4913  39.984  18.274   7.964
   99POPC   C4A 4914  40.035  18.274   7.664
   99POPC   C1B 4915  40.247  18.363   8.564
   99POPC   C2B 4916  40.221  18.358   8.264
   99POPC   C3B 4917  40.295  18.364   7.964
   99POPC   C4B 4918  40.251  18.349   7.664
  100POPC   NC3 4919  41.531  32.199   9.464
  100POPC   PO4 4920  41.551  32.283   9.164
  100POPC   GL1 4921  41.571  32.198   8.864
  100POPC   GL2 4922  41.441  32.108   8.864
  100POPC   C1A 4923  41.582  32.225   8.564
  100POPC   D2A 4924  41.570  32.224   8.264
  100POPC   C3A 4925  41.603  32.269   7.964
  100POPC   C4A 4926  41.560  32.202   7.664
  100POPC   C1B 4927  41.421  31.997   8.564
  100POPC   C2B 4928  41.422  32.008   8.264
  100POPC   C3B 4929  41.465  32.040   7.964
  100POPC   C4B 4930  41.446  32.047   7.664
  101POPC   NC3 4931  16.766  22.191   9.464
  101POPC   PO4 4932  16.703  22.138   9.164
  101POPC   GL1 4933  16.707  22.174   8.864
  101POPC   GL2 4934  16.746  22.059   8.864
  101POPC   C1A 4935  16.762  22.199   8.564
  101POPC   D2A 4936  16.734  22.182   8.264
  101POPC   C3A 4937  16.688  22.140   7.964
  101POPC   C4A 4938  16.711  22.166   7.664
  101POPC   C1B 4939  16.773  21.867   8.564
  101POPC   C2B 4940  16.746  21.939   8.264
  101POPC   C3B 4941  16.735  21.923   7.964
  101POPC   C4B 4942  16.790  21.917   7.664
  102POPC   NC3 4943  19.046   6.639   9.464
  102POPC   PO4 4944  19.043   6.657   9.164
  102POPC   GL1 4945  19.036   6.667   8.864
  102POPC   GL2 4946  19.183   6.753   8.864
  102POPC   C1A 4947  19.028   6.647   8.564
  102POPC   D2A 4948  19.090   6.626   8.264
  102POPC   C3A 4949  19.108   6.690   7.964
  102POPC   C4A 4950  19.079   6.617   7.664
  102POPC   C1B 4951  19.219   6.797   8.564
  102POPC   C2B 4952  19.215   6.869   8.264
  102POPC   C3B 4953  19.222   6.817   7.964
  102POPC   C4B 4954  19.247   6.835   7.664
  103POPC   NC3 4955   8.934   4.351   9.464
  103POPC   PO4 4956   8.993   4.290   9.164
  103POPC   GL1 4957   9.020   4.337   8.864
  103POPC   GL2 4958   9.105   4.355   8.864
  103POPC   C1A 4959   8.953   4.324   8.564
  103POPC   D2A 4960   8.995   4.317   8.264
  103POPC   C3A 4961   8.984   4.358   7.964
  103POPC   C4A 4962   8.976   4.332   7.664
  103POPC   C1B 4963   9.193   4.489   8.564
  103POPC   C2B 4964   9.203   4.477   8.264
  103POPC   C3B 4965   9.156   4.492   7.964
  103POPC   C4B 4966   9.179   4.466   7.664
  104POPC   NC3 4967  33.000  42.290   9.464
  104POPC   PO4 4968  32.993  42.315   9.164
  104POPC   GL1 4969  33.058  42.353   8.864
  104POPC   GL2 4970  33.121  42.344   8.864
  104POPC   C1A 4971  33.043  42.368   8.564
  104POPC   D2A 4972  33.066  42.340   8.264
  104POPC   C3A 4973  32.987  42.343   7.964
  104POPC   C4A 4974  33.023  42.292   7.664
  104POPC   C1B 4975  33.228  42.382   8.564
  104POPC   C2B 4976  33.231  42.351   8.264
  104POPC   C3B 4977  33.239  42.384   7.964
  104POPC   C4B 4978  33.274  42.398   7.664
  105POPC   NC3 4979  35.339   5.855   9.464
  105POPC   PO4 4980  35.387   5.853   9.164
  105POPC   GL1 4981  35.365   5.842   8.864
  105POPC   GL2 4982  35.242   5.742   8.864
  105POPC   C1A 4983  35.320   5.897   8.564
  105POPC   D2A 4984  35.389   5.908   8.264
  105POPC   C3A 4985  35.321   5.894   7.964
  105POPC   C4A 4986  35.313   5.855   7.664
  105POPC   C1B 4987  35.161   5.724   8.564
  105POPC   C2B 4988  35.187   5.733   8.264
  105POPC   C3B 4989  35.183   5.717   7.964
  105POPC   C4B 4990  35.194   5.711   7.664
  106POPC   NC3 4991   8.232   8.211   9.464
  106POPC   PO4 4992   8.168   8.203   9.164
  106POPC   GL1 4993   8.232   8.243   8.864
  106POPC   GL2 4994   8.122   8.304   8.864
  106POPC   C1A 4995   8.237   8.242   8.564
  106POPC   D2A 4996   8.227   8.217   8.264
  106POPC   C3A 4997   8.204   8.169   7.964
  106POPC   C4A 4998   8.168   8.239   7.664
  106POPC   C1B 4999   8.075   8.411   8.564
  106POPC   C2B 5000   8.098   8.386   8.264
  106POPC   C3B 5001   8.069   8.377   7.964
  106POPC   C4B 5002   8.092   8.393   7.664
  107POPC   NC3 5003  22.208   3.511   9.464
  107POPC   PO4 5004  22.172   3.573   9.164
  107POPC   GL1 5005  22.156   3.505   8.864
  107POPC   GL2 5006  22.280   3.462   8.864
  107POPC   C1A 5007  22.202   3.528   8.564
  107POPC   D2A 5008  22.149   3.509   8.264
  107POPC   C3A 5009  22.197   3.549   7.964
  107POPC   C4A 5010  22.156   3.498   7.664
  107POPC   C1B 5011  22.352   3.437   8.564
  107POPC   C2B 5012  22.420   3.380   8.264
  107POPC   C3B 5013  22.364   3.397   7.964
  107POPC   C4B 5014  22.415   3.458   7.664
  108POPC   NC3 5015  29.932  40.742   9.464
  108POPC   PO4 5016  29.954  40.822   9.164
  108POPC   GL1 5017  29.949  40.820   8.864
  108POPC   GL2 5018  29.859  40.629   8.864
  108POPC   C1A 5019  29.970  40.831   8.564
  108POPC   D2A 5020  29.932  40.801   8.264
  108POPC   C3A 5021  29.968  40.814   7.964
  108POPC   C4A 5022  29.970  40.750   7.664
  108POPC   C1B 5023  29.927  40.562   8.564
  108POPC   C2B 5024  29.838  40.490   8.264
  108POPC   C3B 5025  29.846  40.569   7.964
  108POPC   C4B 5026  29.885  40.508   7.664
  109POPC   NC3 5027   4.355   8.151   9.464
  109POPC   PO4 5028   4.270   8.193   9.164
  109POPC   GL1 5029   4.345   8.223   8.864
  109POPC   GL2 5030   4.195   8.193   8.864
  109POPC   C1A 5031   4.367   8.198   8.564
  109POPC   D2A 5032   4.302   8.173   8.264
  109POPC   C3A 5033   4.367   8.151   7.964
  109POPC   C4A 5034   4.305   8.234   7.664
  109POPC   C1B 5035   4.127   8.317   8.564
  109POPC   C2B 5036   4.120   8.310   8.264
  109POPC   C3B 5037   4.058   8.330   7.964
  109POPC   C4B 5038   4.090   8.303   7.664
  110POPC   NC3 5039  15.144  13.646   9.464
  110POPC   PO4 5040  15.181  13.666   9.164
  110POPC   GL1 5041  15.220  13.585   8.864
  110POPC   GL2 5042  15.234  13.576   8.864
  110POPC   C1A 5043  15.134  13.650   8.564
  110POPC   D2A 5044  15.189  13.594   8.264
  110POPC   C3A 5045  15.212  13.614   7.964
  110POPC   C4A 5046  15.142  13.584   7.664
  110POPC   C1B 5047  15.376  13.489   8.564
  110POPC   C2B 5048  15.410  13.486   8.264
  110POPC   C3B 5049  15.385  13.500   7.964
  110POPC   C4B 5050  15.412  13.504   7.664
  111POPC   NC3 5051  24.535  12.899   9.464
  111POPC   PO4 5052  24.486  12.841   9.164
  111POPC   GL1 5053  24.445  12.872   8.864
  111POPC   GL2 5054  24.412  12.823   8.864
  111POPC   C1A 5055  24.537  12.822   8.564
  111POPC   D2A 5056  24.500  12.893   8.264
  111POPC   C3A 5057  24.492  12.811   7.964
  111POPC   C4A 5058  24.478  12.862   7.664
  111POPC   C1B 5059  24.259  12.806   8.564
  111POPC   C2B 5060  24.195  12.864   8.264
  111POPC   C3B 5061  24.229  12.870   7.964
  111POPC   C4B 5062  24.261  12.784   7.664
  112POPC   NC3 5063  27.584  35.311   9.464
  112POPC   PO4 5064  27.566  35.328   9.164
  112POPC   GL1 5065  27.622  35.358   8.864
  112POPC   GL2 5066  27.552  35.283   8.864
  112POPC   C1A 5067  27.607  35.327   8.564
  112POPC   D2A 5068  27.579  35.312   8.264
  112POPC   C3A 5069  27.580  35.352   7.964
  112POPC   C4A 5070  27.633  35.383   7.664
  112POPC   C1B 5071  27.448  35.096   8.564
  112POPC   C2B 5072  27.486  35.101   8.264
  112POPC   C3B 5073  27.493  35.147   7.964
  112POPC   C4B 5074  27.437  35.113   7.664
  113POPC   NC3 5075  34.582  13.610   9.464
  113POPC   PO4 5076  34.590  13.584   9.164
  113POPC   GL1 5077  34.547  13.631   8.864
  113POPC   GL2 5078  34.494  13.701   8.864
  113POPC   C1A 5079  34.586  13.592   8.564
  113POPC   D2A 5080  34.540  13.668   8.264
  113POPC   C3A 5081  34.566  13.676   7.964
  113POPC   C4A 5082  34.604  13.636   7.664
  113POPC   C1B 5083  34.339  13.745   8.564
  113POPC   C2B 5084  34.322  13.725   8.264
  113POPC   C3B 5085  34.315  13.806   7.964
  113POPC   C4B 5086  34.338  13.779   7.664
  114POPC   NC3 5087  21.368   2.731   9.464
  114POPC   PO4 5088  21.374   2.747   9.164
  114POPC   GL1 5089  21.357   2.808   8.864
  114POPC   GL2 5090  21.448   2.880   8.864
  114POPC   C1A 5091  21.416   2.811   8.564
  114POPC   D2A 5092  21.339   2.765   8.264
  114POPC   C3A 5093  21.344   2.772   7.964
  114POPC   C4A 5094  21.340   2.761   7.664
  114POPC   C1B 5095  21.528   3.015   8.564
  114POPC   C2B 5096  21.536   2.975   8.264
  114POPC   C3B 5097  21.522   3.040   7.964
  114POPC   C4B 5098  21.526   2.978   7.664
  115POPC   NC3 5099  35.398  20.599   9.464
  115POPC   PO4 5100  35.327  20.572   9.164
  115POPC   GL1 5101  35.391  20.601   8.864
  115POPC   GL2 5102  35.362  20.451   8.864
  115POPC   C1A 5103  35.326  20.562   8.564
  115POPC   D2A 5104  35.367  20.581   8.264
  115POPC   C3A 5105  35.330  20.618   7.964
  115POPC   C4A 5106  35.351  20.592   7.664
  115POPC   C1B 5107  35.311  20.400   8.564
  115POPC   C2B 5108  35.349  20.326   8.264
  115POPC   C3B 5109  35.294  20.323   7.964
  115POPC   C4B 5110  35.370  20.380   7.664
  116POPC   NC3 5111  27.598  19.798   9.464
  116POPC   PO4 5112  27.566  19.847   9.164
  116POPC   GL1 5113  27.593  19.819   8.864
  116POPC   GL2 5114  27.672  19.972   8.864
  116POPC   C1A 5115  27.608  19.802   8.564
  116POPC   D2A 5116  27.611  19.871   8.264
  116POPC   C3A 5117  27.580  19.845   7.964
  116POPC   C4A 5118  27.607  19.819   7.664
  116POPC   C1B 5119  27.709  19.973   8.564
  116POPC   C2B 5120  27.734  19.985   8.264
  116POPC   C3B 5121  27.735  20.030   7.964
  116POPC   C4B 5122  27.804  20.062   7.664
  117POPC   NC3 5123  29.923  23.694   9.464
  117POPC   PO4 5124  29.947  23.672   9.164
  117POPC   GL1 5125  29.875  23.686   8.864
  117POPC   GL2 5126  30.060  23.767   8.864
  117POPC   C1A 5127  29.967  23.683   8.564
  117POPC   D2A 5128  29.903  23.668   8.264
  117POPC   C3A 5129  29.914  23.741   7.964
  117POPC   C4A 5130  29.881  23.756   7.664
  117POPC   C1B 5131  30.150  23.710   8.564
  117POPC   C2B 5132  30.142  23.711   8.264
  117POPC   C3B 5133  30.207  23.709   7.964
  117POPC   C4B 5134  30.183  23.721   7.664
  118POPC   NC3 5135   8.996  27.622   9.464
  118POPC   PO4 5136   8.928  27.551   9.164
  118POPC   GL1 5137   9.007  27.610   8.864
  118POPC   GL2 5138   9.080  27.648   8.864
  118POPC   C1A 5139   8.932  27.634   8.564
  118POPC   D2A 5140   8.975  27.565   8.264
  118POPC   C3A 5141   8.924  27.629   7.964
  118POPC   C4A 5142   8.971  27.595   7.664
  118POPC   C1B 5143   9.217  27.684   8.564
  118POPC   C2B 5144   9.208  27.712   8.264
  118POPC   C3B 5145   9.146  27.682   7.964
  118POPC   C4B 5146   9.220  27.756   7.664
  119POPC   NC3 5147  18.238  31.503   9.464
  119POPC   PO4 5148  18.294  31.470   9.164
  119POPC   GL1 5149  18.302  31.469   8.864
  119POPC   GL2 5150  18.365  31.378   8.864
  119POPC   C1A 5151  18.310  31.512   8.564
  119POPC   D2A 5152  18.324  31.450   8.264
  119POPC   C3A 5153  18.236  31.504   7.964
  119POPC   C4A 5154  18.330  31.426   7.664
  119POPC   C1B 5155  18.503  31.291   8.564
  119POPC   C2B 5156  18.476  31.320   8.264
  119POPC   C3B 5157  18.507  31.268   7.964
  119POPC   C4B 5158  18.502  31.269   7.664
  120POPC   NC3 5159   6.681  14.360   9.464
  120POPC   PO4 5160   6.666  14.362   9.164
  120POPC   GL1 5161   6.693  14.432   8.864
  120POPC   GL2 5162   6.733  14.448   8.864
  120POPC   C1A 5163   6.674  14.373   8.564
  120POPC   D2A 5164   6.661  14.412   8.264
  120POPC   C3A 5165   6.689  14.387   7.964
  120POPC   C4A 5166   6.666  14.359   7.664
  120POPC   C1B 5167   6.887  14.458   8.564
  120POPC   C2B 5168   6.904  14.488   8.264
  120POPC   C3B 5169   6.936  14.480   7.964
  120POPC   C4B 5170   6.861  14.501   7.664
  121POPC   NC3 5171  15.205  37.692   9.464
  121POPC   PO4 5172  15.169  37.643   9.164
  121POPC   GL1 5173  15.144  37.661   8.864
  121POPC   GL2 5174  15.058  37.700   8.864
  121POPC   C1A 5175  15.136  37.725   8.564
  121POPC   D2A 5176  15.208  37.668   8.264
  121POPC   C3A 5177  15.203  37.723   7.964
  121POPC   C4A 5178  15.188  37.686   7.664
  121POPC   C1B 5179  14.951  37.594   8.564
  121POPC   C2B 5180  14.907  37.636   8.264
  121POPC   C3B 5181  14.902  37.631   7.964
  121POPC   C4B 5182  14.892  37.664   7.664
  122POPC   NC3 5183  38.476   4.321   9.464
  122POPC   PO4 5184  38.405   4.311   9.164
  122POPC   GL1 5185  38.467   4.276   8.864
  122POPC   GL2 5186  38.364   4.399   8.864
  122POPC   C1A 5187  38.441   4.298   8.564
  122POPC   D2A 5188  38.499   4.331   8.264
  122POPC   C3A 5189  38.453   4.296   7.964
  122POPC   C4A 5190  38.430   4.355   7.664
  122POPC   C1B 5191  38.338   4.534   8.564
  122POPC   C2B 5192  38.362   4.551   8.264
  122POPC   C3B 5193  38.382   4.527   7.964
  122POPC   C4B 5194  38.381   4.501   7.664
  123POPC   NC3 5195  28.338   3.559   9.464
  123POPC   PO4 5196  28.380   3.498   9.164
  123POPC   GL1 5197  28.355   3.560   8.864
  123POPC   GL2 5198  28.315   3.463   8.864
  123POPC   C1A 5199  28.411   3.537   8.564
  123POPC   D2A 5200  28.367   3.528   8.264
  123POPC   C3A 5201  28.368   3.579   7.964
  123POPC   C4A 5202  28.348   3.531   7.664
  123POPC   C1B 5203  28.316   3.274   8.564
  123POPC   C2B 5204  28.373   3.283   8.264
  123POPC   C3B 5205  28.348   3.277   7.964
  123POPC   C4B 5206  28.318   3.248   7.664
  124POPC   NC3 5207  16.702  17.521   9.464
  124POPC   PO4 5208  16.712  17.535   9.164
  124POPC   GL1 5209  16.748  17.538   8.864
  124POPC   GL2 5210  16.811  17.535   8.864
  124POPC   C1A 5211  16.739  17.511   8.564
  124POPC   D2A 5212  16.712  17.503   8.264
  124POPC   C3A 5213  16.768  17.494   7.964
  124POPC   C4A 5214  16.705  17.474   7.664
  124POPC   C1B 5215  16.938  17.541   8.564
  124POPC   C2B 5216  17.001  17.512   8.264
  124POPC   C3B 5217  17.003  17.485   7.964
  124POPC   C4B 5218  16.962  17.504   7.664
  125POPC   NC3 5219   3.571   6.664   9.464
  125POPC   PO4 5220   3.533   6.660   9.164
  125POPC   GL1 5221   3.553   6.621   8.864
  125POPC   GL2 5222   3.692   6.605   8.864
  125POPC   C1A 5223   3.561   6.669   8.564
  125POPC   D2A 5224   3.548   6.619   8.264
  125POPC   C3A 5225   3.528   6.600   7.964
  125POPC   C4A 5226   3.519   6.611   7.664
  125POPC   C1B 5227   3.794   6.572   8.564
  125POPC   C2B 5228   3.751   6.545   8.264
  125POPC   C3B 5229   3.810   6.566   7.964
  125POPC   C4B 5230   3.792   6.542   7.664
  126POPC   NC3 5231  29.894  13.619   9.464
  126POPC   PO4 5232  29.924  13.638   9.164
  126POPC   GL1 5233  29.911  13.599   8.864
  126POPC   GL2 5234  30.009  13.496   8.864
  126POPC   C1A 5235  29.917  13.600   8.564
  126POPC   D2A 5236  29.952  13.601   8.264
  126POPC   C3A 5237  29.877  13.638   7.964
  126POPC   C4A 5238  29.888  13.621   7.664
  126POPC   C1B 5239  30.097  13.402   8.564
  126POPC   C2B 5240  30.105  13.423   8.264
  126POPC   C3B 5241  30.100  13.448   7.964
  126POPC   C4B 5242  30.134  13.486   7.664
  127POPC   NC3 5243  40.035  41.552   9.464
  127POPC   PO4 5244  39.978  41.591   9.164
  127POPC   GL1 5245  39.979  41.533   8.864
  127POPC   GL2 5246  40.093  41.639   8.864
  127POPC   C1A 5247  40.019  41.588   8.564
  127POPC   D2A 5248  40.029  41.589   8.264
  127POPC   C3A 5249  39.982  41.558   7.964
  127POPC   C4A 5250  40.006  41.589   7.664
  127POPC   C1B 5251  40.288  41.687   8.564
  127POPC   C2B 5252  40.270  41.628   8.264
  127POPC   C3B 5253  40.248  41.664   7.964
  127POPC   C4B 5254  40.232  41.642   7.664
  128POPC   NC3 5255  17.551  43.881   9.464
  128POPC   PO4 5256  17.511  43.934   9.164
  128POPC   GL1 5257  17.474  43.924   8.864
  128POPC   GL2 5258  17.402  43.805   8.864
  128POPC   C1A 5259  17.471  43.873   8.564
  128POPC   D2A 5260  17.515  43.852   8.264
  128POPC   C3A 5261  17.471  43.894   7.964
  128POPC   C4A 5262  17.466  43.849   7.664
  128POPC   C1B 5263  17.311  43.701   8.564
  128POPC   C2B 5264  17.333  43.708   8.264
  128POPC   C3B 5265  17.398  43.654   7.964
  128POPC   C4B 5266  17.328  43.649   7.664
  129POPC   NC3 5267   6.616  30.708   9.464
  129POPC   PO4 5268   6.669  30.678   9.164
  129POPC   GL1 5269   6.664  30.720   8.864
  129POPC   GL2 5270   6.481  30.699   8.864
  129POPC   C1A 5271   6.641  30.684   8.564
  129POPC   D2A 5272   6.675  30.659   8.264
  129POPC   C3A 5273   6.671  30.716   7.964
  129POPC   C4A 5274   6.667  30.670   7.664
  129POPC   C1B 5275   6.369  30.641   8.564
  129POPC   C2B 5276   6.355  30.608   8.264
  129POPC   C3B 5277   6.397  30.622   7.964
  129POPC   C4B 5278   6.403  30.619   7.664
  130POPC   NC3 5279   8.208  24.498   9.464
  130POPC   PO4 5280   8.169  24.482   9.164
  130POPC   GL1 5281   8.233  24.538   8.864
  130POPC   GL2 5282   8.238  24.556   8.864
  130POPC   C1A 5283   8.238  24.457   8.564
  130POPC   D2A 5284   8.181  24.514   8.264
  130POPC   C3A 5285   8.198  24.460   7.964
  130POPC   C4A 5286   8.182  24.522   7.664
  130POPC   C1B 5287   8.331  24.755   8.564
  130POPC   C2B 5288   8.314  24.687   8.264
  130POPC   C3B 5289   8.245  24.756   7.964
  130POPC   C4B 5290   8.261  24.735   7.664
  131POPC   NC3 5291   6.667   8.976   9.464
  131POPC   PO4 5292   6.620   9.011   9.164
  131POPC   GL1 5293   6.613   8.938   8.864
  131POPC   GL2 5294   6.547   9.062   8.864
  131POPC   C1A 5295   6.672   9.007   8.564
  131POPC   D2A 5296   6.629   8.955   8.264
  131POPC   C3A 5297   6.688   9.004   7.964
  131POPC   C4A 5298   6.635   8.974   7.664
  131POPC   C1B 5299   6.521   9.209   8.564
  131POPC   C2B 5300   6.536   9.148   8.264
  131POPC   C3B 5301   6.540   9.172   7.964
  131POPC   C4B 5302   6.565   9.226   7.664
  132POPC   NC3 5303  29.142  22.118   9.464
  132POPC   PO4 5304  29.174  22.156   9.164
  132POPC   GL1 5305  29.165  22.113   8.864
  132POPC   GL2 5306  29.031  22.046   8.864
  132POPC   C1A 5307  29.165  22.129   8.564
  132POPC   D2A 5308  29.143  22.156   8.264
  132POPC   C3A 5309  29.136  22.113   7.964
  132POPC   C4A 5310  29.159  22.156   7.664
  132POPC   C1B 5311  28.924  21.954   8.564
  132POPC   C2B 5312  28.915  21.968   8.264
  132POPC   C3B 5313  28.921  21.958   7.964
  132POPC   C4B 5314  28.949  21.977   7.664
  133POPC   NC3 5315  39.236  16.755   9.464
  133POPC   PO4 5316  39.210  16.740   9.164
  133POPC   GL1 5317  39.212  16.768   8.864
  133POPC   GL2 5318  39.334  16.771   8.864
  133POPC   C1A 5319  39.257  16.712   8.564
  133POPC   D2A 5320  39.186  16.775   8.264
  133POPC   C3A 5321  39.209  16.732   7.964
  133POPC   C4A 5322  39.251  16.762   7.664
  133POPC   C1B 5323  39.402  16.951   8.564
  133POPC   C2B 5324  39.418  16.905   8.264
  133POPC   C3B 5325  39.421  16.900   7.964
  133POPC   C4B 5326  39.452  16.864   7.664
  134POPC   NC3 5327   7.419  19.850   9.464
  134POPC   PO4 5328   7.458  19.825   9.164
  134POPC   GL1 5329   7.457  19.788   8.864
  134POPC   GL2 5330   7.305  19.714   8.864
  134POPC   C1A 5331   7.450  19.839   8.564
  134POPC   D2A 5332   7.424  19.808   8.264
  134POPC   C3A 5333   7.437  19.833   7.964
  134POPC   C4A 5334   7.387  19.791   7.664
  134POPC   C1B 5335   7.250  19.689   8.564
  134POPC   C2B 5336   7.282  19.685   8.264
  134POPC   C3B 5337   7.258  19.660   7.964
  134POPC   C4B 5338   7.296  19.683   7.664
  135POPC   NC3 5339  25.226  25.998   9.464
  135POPC   PO4 5340  25.293  26.078   9.164
  135POPC   GL1 5341  25.274  26.053   8.864
  135POPC   GL2 5342  25.351  26.010   8.864
  135POPC   C1A 5343  25.258  26.070   8.564
  135POPC   D2A 5344  25.285  26.007   8.264
  135POPC   C3A 5345  25.296  25.995   7.964
  135POPC   C4A 5346  25.310  26.070   7.664
  135POPC   C1B 5347  25.534  26.042   8.564
  135POPC   C2B 5348  25.533  25.996   8.264
  135POPC   C3B 5349  25.485  25.996   7.964
  135POPC   C4B 5350  25.518  26.027   7.664
  136POPC   NC3 5351   4.283   6.602   9.464
  136POPC   PO4 5352   4.270   6.678   9.164
  136POPC   GL1 5353   4.360   6.644   8.864
  136POPC   GL2 5354   4.256   6.500   8.864
  136POPC   C1A 5355   4.270   6.664   8.564
  136POPC   D2A 5356   4.302   6.695   8.264
  136POPC   C3A 5357   4.361   6.635   7.964
  136POPC   C4A 5358   4.363   6.653   7.664
  136POPC   C1B 5359   4.208   6.392   8.564
  136POPC   C2B 5360   4.207   6.360   8.264
  136POPC   C3B 5361   4.214   6.372   7.964
  136POPC   C4B 5362   4.267   6.413   7.664
  137POPC   NC3 5363  12.812  21.432   9.464
  137POPC   PO4 5364  12.823  21.400   9.164
  137POPC   GL1 5365  12.884  21.434   8.864
  137POPC   GL2 5366  12.794  21.287   8.864
  137POPC   C1A 5367  12.893  21.351   8.564
  137POPC   D2A 5368  12.880  21.376   8.264
  137POPC   C3A 5369  12.848  21.419   7.964
  137POPC   C4A 5370  12.854  21.347   7.664
  137POPC   C1B 5371  12.744  21.143   8.564
  137POPC   C2B 5372  12.749  21.147   8.264
  137POPC   C3B 5373  12.840  21.135   7.964
  137POPC   C4B 5374  12.779  21.177   7.664
  138POPC   NC3 5375  44.640  43.095   9.464
  138POPC   PO4 5376  44.695  43.146   9.164
  138POPC   GL1 5377  44.689  43.096   8.864
  138POPC   GL2 5378  44.791  43.030   8.864
  138POPC   C1A 5379  44.680  43.109   8.564
  138POPC   D2A 5380  44.644  43.125   8.264
  138POPC   C3A 5381  44.693  43.071   7.964
  138POPC   C4A 5382  44.621  43.125   7.664
  138POPC   C1B 5383  44.861  42.928   8.564
  138POPC   C2B 5384  44.877  42.960   8.264
  138POPC   C3B 5385  44.844  42.996   7.964
  138POPC   C4B 5386  44.889  42.967   7.664
  139POPC   NC3 5387  28.408  36.951   9.464
  139POPC   PO4 5388  28.377  36.933   9.164
  139POPC   GL1 5389  28.393  36.859   8.864
  139POPC   GL2 5390  28.325  36.771   8.864
  139POPC   C1A 5391  28.408  36.951   8.564
  139POPC   D2A 5392  28.334  36.938   8.264
  139POPC   C3A 5393  28.396  36.899   7.964
  139POPC   C4A 5394  28.404  36.880   7.664
  139POPC   C1B 5395  28.195  36.689   8.564
  139POPC   C2B 5396  28.245  36.758   8.264
  139POPC   C3B 5397  28.226  36.741   7.964
  139POPC   C4B 5398  28.173  36.673   7.664
  140POPC   NC3 5399  43.096  43.139   9.464
  140POPC   PO4 5400  43.078  43.115   9.164
  140POPC   GL1 5401  43.146  43.155   8.864
  140POPC   GL2 5402  43.004  43.115   8.864
  140POPC   C1A 5403  43.117  43.116   8.564
  140POPC   D2A 5404  43.125  43.103   8.264
  140POPC   C3A 5405  43.076  43.156   7.964
  140POPC   C4A 5406  43.140  43.159   7.664
  140POPC   C1B 5407  42.850  43.227   8.564
  140POPC   C2B 5408  42.916  43.221   8.264
  140POPC   C3B 5409  42.901  43.194   7.964
  140POPC   C4B 5410  42.844  43.218   7.664
  141POPC   NC3 5411   3.526  27.563   9.464
  141POPC   PO4 5412   3.560  27.601   9.164
  141POPC   GL1 5413   3.502  27.573   8.864
  141POPC   GL2 5414   3.533  27.463   8.864
  141POPC   C1A 5415   3.590  27.550   8.564
  141POPC   D2A 5416   3.517  27.623   8.264
  141POPC   C3A 5417   3.511  27.577   7.964
  141POPC   C4A 5418   3.528  27.597   7.664
  141POPC   C1B 5419   3.529  27.325   8.564
  141POPC   C2B 5420   3.554  27.357   8.264
  141POPC   C3B 5421   3.548  27.328   7.964
  141POPC   C4B 5422   3.547  27.375   7.664
  142POPC   NC3 5423  29.917  22.953   9.464
  142POPC   PO4 5424  29.873  22.968   9.164
  142POPC   GL1 5425  29.948  22.956   8.864
  142POPC   GL2 5426  29.988  23.009   8.864
  142POPC   C1A 5427  29.923  22.915   8.564
  142POPC   D2A 5428  29.906  22.954   8.264
  142POPC   C3A 5429  29.905  22.925   7.964
  142POPC   C4A 5430  29.936  22.941   7.664
  142POPC   C1B 5431  30.116  23.003   8.564
  142POPC   C2B 5432  30.122  23.014   8.264
  142POPC   C3B 5433  30.115  23.004   7.964
  142POPC   C4B 5434  30.134  23.049   7.664
  143POPC   NC3 5435  43.868  43.896   9.464
  143POPC   PO4 5436  43.883  43.859   9.164
  143POPC   GL1 5437  43.849  43.892   8.864
  143POPC   GL2 5438  43.947  43.997   8.864
  143POPC   C1A 5439  43.856  43.858   8.564
  143POPC   D2A 5440  43.879  43.893   8.264
  143POPC   C3A 5441  43.864  43.903   7.964
  143POPC   C4A 5442  43.923  43.909   7.664
  143POPC   C1B 5443  43.992  44.083   8.564
  143POPC   C2B 5444  43.998  44.047   8.264
  143POPC   C3B 5445  44.072  44.090   7.964
  143POPC   C4B 5446  44.010  44.123   7.664
  144POPC   NC3 5447  14.406  36.885   9.464
  144POPC   PO4 5448  14.436  36.907   9.164
  144POPC   GL1 5449  14.449  36.862   8.864
  144POPC   GL2 5450  14.327  36.822   8.864
  144POPC   C1A 5451  14.441  36.947   8.564
  144POPC   D2A 5452  14.367  36.942   8.264
  144POPC   C3A 5453  14.359  36.925   7.964
  144POPC   C4A 5454  14.444  36.921   7.664
  144POPC   C1B 5455  14.286  36.725   8.564
  144POPC   C2B 5456  14.238  36.721   8.264
  144POPC   C3B 5457  14.258  36.741   7.964
  144POPC   C4B 5458  14.254  36.750   7.664
  145POPC   NC3 5459  28.353  17.494   9.464
  145POPC   PO4 5460  28.351  17.546   9.164
  145POPC   GL1 5461  28.367  17.526   8.864
  145POPC   GL2 5462  28.335  17.611   8.864
  145POPC   C1A 5463  28.377  17.495   8.564
  145POPC   D2A 5464  28.409  17.462   8.264
  145POPC   C3A 5465  28.331  17.487   7.964
  145POPC   C4A 5466  28.359  17.493   7.664
  145POPC   C1B 5467  28.309  17.761   8.564
  145POPC   C2B 5468  28.331  17.733   8.264
  145POPC   C3B 5469  28.358  17.766   7.964
  145POPC   C4B 5470  28.341  17.739   7.664
  146POPC   NC3 5471   4.292  14.444   9.464
  146POPC   PO4 5472   4.363  14.361   9.164
  146POPC   GL1 5473   4.362  14.394   8.864
  146POPC   GL2 5474   4.433  14.355   8.864
  146POPC   C1A 5475   4.308  14.355   8.564
  146POPC   D2A 5476   4.322  14.359   8.264
  146POPC   C3A 5477   4.282  14.413   7.964
  146POPC   C4A 5478   4.322  14.411   7.664
  146POPC   C1B 5479   4.538  14.311   8.564
  146POPC   C2B 5480   4.539  14.326   8.264
  146POPC   C3B 5481   4.612  14.350   7.964
  146POPC   C4B 5482   4.517  14.340   7.664
  147POPC   NC3 5483  43.135  31.520   9.464
  147POPC   PO4 5484  43.158  31.495   9.164
  147POPC   GL1 5485  43.114  31.441   8.864
  147POPC   GL2 5486  43.016  31.400   8.864
  147POPC   C1A 5487  43.088  31.474   8.564
  147POPC   D2A 5488  43.102  31.474   8.264
  147POPC   C3A 5489  43.159  31.508   7.964
  147POPC   C4A 5490  43.138  31.517   7.664
  147POPC   C1B 5491  42.997  31.286   8.564
  147POPC   C2B 5492  43.017  31.255   8.264
  147POPC   C3B 5493  43.000  31.209   7.964
  147POPC   C4B 5494  42.989  31.242   7.664
  148POPC   NC3 5495   3.573  16.759   9.464
  148POPC   PO4 5496   3.549  16.774   9.164
  148POPC   GL1 5497   3.552  16.776   8.864
  148POPC   GL2 5498   3.694  16.820   8.864
  148POPC   C1A 5499   3.493  16.740   8.564
  148POPC   D2A 5500   3.554  16.726   8.264
  148POPC   C3A 5501   3.502  16.735   7.964
  148POPC   C4A 5502   3.541  16.757   7.664
  148POPC   C1B 5503   3.755  16.783   8.564
  148POPC   C2B 5504   3.805  16.845   8.264
  148POPC   C3B 5505   3.755  16.844   7.964
  148POPC   C4B 5506   3.820  16.809   7.664
  149POPC   NC3 5507  44.620  23.760   9.464
  149POPC   PO4 5508  44.663  23.741   9.164
  149POPC   GL1 5509  44.658  23.708   8.864
  149POPC   GL2 5510  44.747  23.560   8.864
  149POPC   C1A 5511  44.654  23.729   8.564
  149POPC   D2A 5512  44.669  23.686   8.264
  149POPC   C3A 5513  44.636  23.715   7.964
  149POPC   C4A 5514  44.629  23.695   7.664
  149POPC   C1B 5515  44.824  23.528   8.564
  149POPC   C2B 5516  44.804  23.535   8.264
  149POPC   C3B 5517  44.807  23.504   7.964
  149POPC   C4B 5518  44.805  23.496   7.664
  150POPC   NC3 5519  17.471  16.712   9.464
  150POPC   PO4 5520  17.478  16.682   9.164
  150POPC   GL1 5521  17.508  16.710   8.864
  150POPC   GL2 5522  17.532  16.905   8.864
  150POPC   C1A 5523  17.463  16.691   8.564
  150POPC   D2A 5524  17.487  16.706   8.264
  150POPC   C3A 5525  17.534  16.755   7.964
  150POPC   C4A 5526  17.480  16.736   7.664
  150POPC   C1B 5527  17.495  16.945   8.564
  150POPC   C2B 5528  17.541  16.988   8.264
  150POPC   C3B 5529  17.507  16.965   7.964
  150POPC   C4B 5530  17.485  16.986   7.664
  151POPC   NC3 5531  33.773   1.982   9.464
  151POPC   PO4 5532  33.796   2.019   9.164
  151POPC   GL1 5533  33.800   1.948   8.864
  151POPC   GL2 5534  33.737   2.083   8.864
  151POPC   C1A 5535  33.825   1.958   8.564
  151POPC   D2A 5536  33.758   2.019   8.264
  151POPC   C3A 5537  33.823   1.946   7.964
  151POPC   C4A 5538  33.809   1.995   7.664
  151POPC   C1B 5539  33.616   2.191   8.564
  151POPC   C2B 5540  33.670   2.210   8.264
  151POPC   C3B 5541  33.667   2.173   7.964
  151POPC   C4B 5542  33.617   2.151   7.664
  152POPC   NC3 5543  26.065  20.599   9.464
  152POPC   PO4 5544  26.028  20.594   9.164
  152POPC   GL1 5545  26.030  20.626   8.864
  152POPC   GL2 5546  26.053  20.732   8.864
  152POPC   C1A 5547  26.053  20.620   8.564
  152POPC   D2A 5548  26.037  20.636   8.264
  152POPC   C3A 5549  26.044  20.578   7.964
  152POPC   C4A 5550  26.043  20.587   7.664
  152POPC   C1B 5551  26.053  20.818   8.564
  152POPC   C2B 5552  26.013  20.827   8.264
  152POPC   C3B 5553  26.074  20.873   7.964
  152POPC   C4B 5554  26.055  20.857   7.664
  153POPC   NC3 5555  36.947   4.275   9.464
  153POPC   PO4 5556  36.925   4.343   9.164
  153POPC   GL1 5557  36.891   4.305   8.864
  153POPC   GL2 5558  36.824   4.165   8.864
  153POPC   C1A 5559  36.894   4.335   8.564
  153POPC   D2A 5560  36.929   4.309   8.264
  153POPC   C3A 5561  36.912   4.291   7.964
  153POPC   C4A 5562  36.913   4.321   7.664
  153POPC   C1B 5563  36.836   4.113   8.564
  153POPC   C2B 5564  36.821   4.098   8.264
  153POPC   C3B 5565  36.796   4.111   7.964
  153POPC   C4B 5566  36.832   4.037   7.664
  154POPC   NC3 5567  16.705   3.495   9.464
  154POPC   PO4 5568  16.700   3.566   9.164
  154POPC   GL1 5569  16.740   3.529   8.864
  154POPC   GL2 5570  16.624   3.565   8.864
  154POPC   C1A 5571  16.718   3.526   8.564
  154POPC   D2A 5572  16.766   3.517   8.264
  154POPC   C3A 5573  16.770   3.581   7.964
  154POPC   C4A 5574  16.779   3.585   7.664
  154POPC   C1B 5575  16.501   3.462   8.564
  154POPC   C2B 5576  16.525   3.469   8.264
  154POPC   C3B 5577  16.502   3.518   7.964
  154POPC   C4B 5578  16.449   3.479   7.664
  155POPC   NC3 5579  23.669  22.163   9.464
  155POPC   PO4 5580  23.665  22.141   9.164
  155POPC   GL1 5581  23.707  22.206   8.864
  155POPC   GL2 5582  23.696  22.310   8.864
  155POPC   C1A 5583  23.693  22.131   8.564
  155POPC   D2A 5584  23.708  22.162   8.264
  155POPC   C3A 5585  23.761  22.151   7.964
  155POPC   C4A 5586  23.676  22.185   7.664
  155POPC   C1B 5587  23.735  22.410   8.564
  155POPC   C2B 5588  23.765  22.408   8.264
  155POPC   C3B 5589  23.706  22.369   7.964
  155POPC   C4B 5590  23.760  22.412   7.664
  156POPC   NC3 5591  34.588  28.388   9.464
  156POPC   PO4 5592  34.545  28.342   9.164
  156POPC   GL1 5593  34.536  28.346   8.864
  156POPC   GL2 5594  34.522  28.514   8.864
  156POPC   C1A 5595  34.619  28.369   8.564
  156POPC   D2A 5596  34.572  28.351   8.264
  156POPC   C3A 5597  34.622  28.381   7.964
  156POPC   C4A 5598  34.610  28.352   7.664
  156POPC   C1B 5599  34.431  28.558   8.564
  156POPC   C2B 5600  34.407  28.547   8.264
  156POPC   C3B 5601  34.465  28.582   7.964
  156POPC   C4B 5602  34.450  28.573   7.664
  157POPC   NC3 5603  12.122  40.812   9.464
  157POPC   PO4 5604  12.028  40.774   9.164
  157POPC   GL1 5605  12.048  40.747   8.864
  157POPC   GL2 5606  11.903  40.749   8.864
  157POPC   C1A 5607  12.051  40.826   8.564
  157POPC   D2A 5608  12.038  40.794   8.264
  157POPC   C3A 5609  12.051  40.795   7.964
  157POPC   C4A 5610  12.059  40.798   7.664
  157POPC   C1B 5611  11.807  40.796   8.564
  157POPC   C2B 5612  11.837  40.834   8.264
  157POPC   C3B 5613  11.780  40.843   7.964
  157POPC   C4B 5614  11.833  40.808   7.664
  158POPC   NC3 5615  34.549  10.503   9.464
  158POPC   PO4 5616  34.554  10.536   9.164
  158POPC   GL1 5617  34.571  10.493   8.864
  158POPC   GL2 5618  34.525  10.650   8.864
  158POPC   C1A 5619  34.552  10.557   8.564
  158POPC   D2A 5620  34.545  10.519   8.264
  158POPC   C3A 5621  34.554  10.476   7.964
  158POPC   C4A 5622  34.601  10.482   7.664
  158POPC   C1B 5623  34.455  10.777   8.564
  158POPC   C2B 5624  34.426  10.713   8.264
  158POPC   C3B 5625  34.436  10.772   7.964
  158POPC   C4B 5626  34.492  10.697   7.664
  159POPC   NC3 5627   8.195  29.878   9.464
  159POPC   PO4 5628   8.170  29.942   9.164
  159POPC   GL1 5629   8.205  29.921   8.864
  159POPC   GL2 5630   8.128  29.807   8.864
  159POPC   C1A 5631   8.163  29.909   8.564
  159POPC   D2A 5632   8.172  29.914   8.264
  159POPC   C3A 5633   8.196  29.970   7.964
  159POPC   C4A 5634   8.161  29.933   7.664
  159POPC   C1B 5635   8.145  29.703   8.564
  159POPC   C2B 5636   8.192  29.649   8.264
  159POPC   C3B 5637   8.158  29.640   7.964
  159POPC   C4B 5638   8.139  29.650   7.664
  160POPC   NC3 5639  37.724  32.298   9.464
  160POPC   PO4 5640  37.704  32.217   9.164
  160POPC   GL1 5641  37.637  32.251   8.864
  160POPC   GL2 5642  37.572  32.203   8.864
  160POPC   C1A 5643  37.683  32.247   8.564
  160POPC   D2A 5644  37.635  32.241   8.264
  160POPC   C3A 5645  37.682  32.207   7.964
  160POPC   C4A 5646  37.674  32.211   7.664
  160POPC   C1B 5647  37.534  32.088   8.564
  160POPC   C2B 5648  37.460  32.028   8.264
  160POPC   C3B 5649  37.504  32.095   7.964
  160POPC   C4B 5650  37.480  32.022   7.664
  161POPC   NC3 5651  18.256  15.192   9.464
  161POPC   PO4 5652  18.235  15.176   9.164
  161POPC   GL1 5653  18.312  15.187   8.864
  161POPC   GL2 5654  18.385  15.249   8.864
  161POPC   C1A 5655  18.330  15.219   8.564
  161POPC   D2A 5656  18.331  15.226   8.264
  161POPC   C3A 5657  18.316  15.146   7.964
  161POPC   C4A 5658  18.310  15.149   7.664
  161POPC   C1B 5659  18.552  15.340   8.564
  161POPC   C2B 5660  18.496  15.311   8.264
  161POPC   C3B 5661  18.482  15.252   7.964
  161POPC   C4B 5662  18.462  15.258   7.664
  162POPC   NC3 5663  20.568  32.244   9.464
  162POPC   PO4 5664  20.579  32.295   9.164
  162POPC   GL1 5665  20.569  32.262   8.864
  162POPC   GL2 5666  20.462  32.297   8.864
  162POPC   C1A 5667  20.621  32.293   8.564
  162POPC   D2A 5668  20.567  32.224   8.264
  162POPC   C3A 5669  20.597  32.221   7.964
  162POPC   C4A 5670  20.658  32.283   7.664
  162POPC   C1B 5671  20.360  32.322   8.564
  162POPC   C2B 5672  20.384  32.334   8.264
  162POPC   C3B 5673  20.403  32.349   7.964
  162POPC   C4B 5674  20.347  32.315   7.664
  163POPC   NC3 5675   5.875  11.274   9.464
  163POPC   PO4 5676   5.913  11.322   9.164
  163POPC   GL1 5677   5.827  11.315   8.864
  163POPC   GL2 5678   5.978  11.262   8.864
  163POPC   C1A 5679   5.833  11.282   8.564
  163POPC   D2A 5680   5.824  11.308   8.264
  163POPC   C3A 5681   5.892  11.261   7.964
  163POPC   C4A 5682   5.914  11.305   7.664
  163POPC   C1B 5683   6.131  11.204   8.564
  163POPC   C2B 5684   6.046  11.152   8.264
  163POPC   C3B 5685   6.098  11.141   7.964
  163POPC   C4B 5686   6.095  11.151   7.664
  164POPC   NC3 5687  32.293  26.037   9.464
  164POPC   PO4 5688  32.291  26.042   9.164
  164POPC   GL1 5689  32.206  26.065   8.864
  164POPC   GL2 5690  32.163  26.119   8.864
  164POPC   C1A 5691  32.274  26.050   8.564
  164POPC   D2A 5692  32.268  26.063   8.264
  164POPC   C3A 5693  32.244  26.083   7.964
  164POPC   C4A 5694  32.240  26.048   7.664
  164POPC   C1B 5695  32.089  26.234   8.564
  164POPC   C2B 5696  32.100  26.284   8.264
  164POPC   C3B 5697  32.131  26.283   7.964
  164POPC   C4B 5698  32.110  26.244   7.664
  165POPC   NC3 5699  22.167   1.165   9.464
  165POPC   PO4 5700  22.151   1.206   9.164
  165POPC   GL1 5701  22.133   1.164   8.864
  165POPC   GL2 5702  22.102   1.315   8.864
  165POPC   C1A 5703  22.141   1.168   8.564
  165POPC   D2A 5704  22.134   1.211   8.264
  165POPC   C3A 5705  22.172   1.200   7.964
  165POPC   C4A 5706  22.186   1.224   7.664
  165POPC   C1B 5707  22.113   1.437   8.564
  165POPC   C2B 5708  22.125   1.499   8.264
  165POPC   C3B 5709  22.045   1.424   7.964
  165POPC   C4B 5710  22.064   1.419   7.664
  166POPC   NC3 5711  23.710   1.962   9.464
  166POPC   PO4 5712  23.680   1.981   9.164
  166POPC   GL1 5713  23.755   2.022   8.864
  166POPC   GL2 5714  23.817   1.894   8.864
  166POPC   C1A 5715  23.712   2.019   8.564
  166POPC   D2A 5716  23.698   2.038   8.264
  166POPC   C3A 5717  23.724   2.029   7.964
  166POPC   C4A 5718  23.747   2.011   7.664
  166POPC   C1B 5719  23.793   1.739   8.564
  166POPC   C2B 5720  23.840   1.735   8.264
  166POPC   C3B 5721  23.807   1.742   7.964
  166POPC   C4B 5722  23.886   1.799   7.664
  167POPC   NC3 5723  24.532  26.799   9.464
  167POPC   PO4 5724  24.496  26.863   9.164
  167POPC   GL1 5725  24.450  26.772   8.864
  167POPC   GL2 5726  24.404  26.766   8.864
  167POPC   C1A 5727  24.509  26.833   8.564
  167POPC   D2A 5728  24.449  26.823   8.264
  167POPC   C3A 5729  24.517  26.837   7.964
  167POPC   C4A 5730  24.497  26.825   7.664
  167POPC   C1B 5731  24.230  26.740   8.564
  167POPC   C2B 5732  24.277  26.767   8.264
  167POPC   C3B 5733  24.222  26.742   7.964
  167POPC   C4B 5734  24.293  26.798   7.664
  168POPC   NC3 5735  34.619  24.483   9.464
  168POPC   PO4 5736  34.597  24.443   9.164
  168POPC   GL1 5737  34.527  24.476   8.864
  168POPC   GL2 5738  34.455  24.414   8.864
  168POPC   C1A 5739  34.625  24.464   8.564
  168POPC   D2A 5740  34.590  24.442   8.264
  168POPC   C3A 5741  34.583  24.532   7.964
  168POPC   C4A 5742  34.569  24.518   7.664
  168POPC   C1B 5743  34.321  24.356   8.564
  168POPC   C2B 5744  34.315  24.337   8.264
  168POPC   C3B 5745  34.362  24.374   7.964
  168POPC   C4B 5746  34.330  24.355   7.664
  169POPC   NC3 5747  38.475  19.806   9.464
  169POPC   PO4 5748  38.427  19.807   9.164
  169POPC   GL1 5749  38.493  19.872   8.864
  169POPC   GL2 5750  38.586  19.900   8.864
  169POPC   C1A 5751  38.493  19.829   8.564
  169POPC   D2A 5752  38.474  19.832   8.264
  169POPC   C3A 5753  38.468  19.825   7.964
  169POPC   C4A 5754  38.448  19.875   7.664
  169POPC   C1B 5755  38.746  19.883   8.564
  169POPC   C2B 5756  38.692  19.853   8.264
  169POPC   C3B 5757  38.665  19.942   7.964
  169POPC   C4B 5758  38.696  19.934   7.664
  170POPC   NC3 5759   8.967  42.286   9.464
  170POPC   PO4 5760   8.925  42.377   9.164
  170POPC   GL1 5761   8.929  42.338   8.864
  170POPC   GL2 5762   9.011  42.199   8.864
  170POPC   C1A 5763   8.960  42.362   8.564
  170POPC   D2A 5764   8.926  42.303   8.264
  170POPC   C3A 5765   8.960  42.335   7.964
  170POPC   C4A 5766   8.963  42.373   7.664
  170POPC   C1B 5767   9.170  42.140   8.564
  170POPC   C2B 5768   9.150  42.139   8.264
  170POPC   C3B 5769   9.158  42.146   7.964
  170POPC   C4B 5770   9.137  42.087   7.664
  171POPC   NC3 5771  24.450  35.371   9.464
  171POPC   PO4 5772  24.539  35.391   9.164
  171POPC   GL1 5773  24.533  35.358   8.864
  171POPC   GL2 5774  24.444  35.489   8.864
  171POPC   C1A 5775  24.446  35.373   8.564
  171POPC   D2A 5776  24.511  35.302   8.264
  171POPC   C3A 5777  24.499  35.311   7.964
  171POPC   C4A 5778  24.503  35.342   7.664
  171POPC   C1B 5779  24.498  35.612   8.564
  171POPC   C2B 5780  24.465  35.551   8.264
  171POPC   C3B 5781  24.499  35.586   7.964
  171POPC   C4B 5782  24.427  35.608   7.664
  172POPC   NC3 5783  37.643  17.488   9.464
  172POPC   PO4 5784  37.632  17.495   9.164
  172POPC   GL1 5785  37.724  17.491   8.864
  172POPC   GL2 5786  37.624  17.395   8.864
  172POPC   C1A 5787  37.689  17.459   8.564
  172POPC   D2A 5788  37.641  17.510   8.264
  172POPC   C3A 5789  37.647  17.520   7.964
  172POPC   C4A 5790  37.643  17.511   7.664
  172POPC   C1B 5791  37.556  17.245   8.564
  172POPC   C2B 5792  37.549  17.236   8.264
  172POPC   C3B 5793  37.591  17.272   7.964
  172POPC   C4B 5794  37.628  17.313   7.664
  173POPC   NC3 5795  22.950  26.059   9.464
  173POPC   PO4 5796  22.949  26.006   9.164
  173POPC   GL1 5797  22.966  26.071   8.864
  173POPC   GL2 5798  23.034  26.067   8.864
  173POPC   C1A 5799  22.904  26.062   8.564
  173POPC   D2A 5800  22.927  26.074   8.264
  173POPC   C3A 5801  22.961  26.013   7.964
  173POPC   C4A 5802  22.938  26.005   7.664
  173POPC   C1B 5803  23.216  26.007   8.564
  173POPC   C2B 5804  23.228  26.070   8.264
  173POPC   C3B 5805  23.156  26.005   7.964
  173POPC   C4B 5806  23.142  26.013   7.664
  174POPC   NC3 5807  35.314   9.708   9.464
  174POPC   PO4 5808  35.392   9.726   9.164
  174POPC   GL1 5809  35.328   9.776   8.864
  174POPC   GL2 5810  35.252   9.787   8.864
  174POPC   C1A 5811  35.305   9.797   8.564
  174POPC   D2A 5812  35.366   9.737   8.264
  174POPC   C3A 5813  35.363   9.766   7.964
  174POPC   C4A 5814  35.311   9.707   7.664
  174POPC   C1B 5815  35.077   9.738   8.564
  174POPC   C2B 5816  35.089   9.727   8.264
  174POPC   C3B 5817  35.133   9.805   7.964
  174POPC   C4B 5818  35.136   9.791   7.664
  175POPC   NC3 5819  43.912  27.598   9.464
  175POPC   PO4 5820  43.851  27.611   9.164
  175POPC   GL1 5821  43.864  27.563   8.864
  175POPC   GL2 5822  43.737  27.603   8.864
  175POPC   C1A 5823  43.901  27.608   8.564
  175POPC   D2A 5824  43.871  27.589   8.264
  175POPC   C3A 5825  43.871  27.569   7.964
  175POPC   C4A 5826  43.853  27.553   7.664
  175POPC   C1B 5827  43.689  27.616   8.564
  175POPC   C2B 5828  43.630  27.656   8.264
  175POPC   C3B 5829  43.617  27.667   7.964
  175POPC   C4B 5830  43.605  27.622   7.664
  176POPC   NC3 5831   6.653  26.850   9.464
  176POPC   PO4 5832   6.652  26.799   9.164
  176POPC   GL1 5833   6.682  26.779   8.864
  176POPC   GL2 5834   6.724  26.795   8.864
  176POPC   C1A 5835   6.681  26.819   8.564
  176POPC   D2A 5836   6.596  26.776   8.264
  176POPC   C3A 5837   6.641  26.852   7.964
  176POPC   C4A 5838   6.641  26.817   7.664
  176POPC   C1B 5839   6.886  26.815   8.564
  176POPC   C2B 5840   6.904  26.758   8.264
  176POPC   C3B 5841   6.843  26.747   7.964
  176POPC   C4B 5842   6.846  26.825   7.664
  177POPC   NC3 5843  26.022  40.784   9.464
  177POPC   PO4 5844  26.003  40.766   9.164
  177POPC   GL1 5845  26.059  40.809   8.864
  177POPC   GL2 5846  26.004  40.685   8.864
  177POPC   C1A 5847  26.016  40.784   8.564
  177POPC   D2A 5848  26.059  40.739   8.264
  177POPC   C3A 5849  26.033  40.804   7.964
  177POPC   C4A 5850  26.020  40.752   7.664
  177POPC   C1B 5851  25.937  40.560   8.564
  177POPC   C2B 5852  25.881  40.555   8.264
  177POPC   C3B 5853  25.949  40.543   7.964
  177POPC   C4B 5854  25.905  40.536   7.664
  178POPC   NC3 5855   1.231   9.020   9.464
  178POPC   PO4 5856   1.250   8.946   9.164
  178POPC   GL1 5857   1.166   8.970   8.864
  178POPC   GL2 5858   1.320   8.889   8.864
  178POPC   C1A 5859   1.233   8.934   8.564
  178POPC   D2A 5860   1.229   8.973   8.264
  178POPC   C3A 5861   1.206   9.003   7.964
  178POPC   C4A 5862   1.200   8.933   7.664
  178POPC   C1B 5863   1.314   8.741   8.564
  178POPC   C2B 5864   1.402   8.759   8.264
  178POPC   C3B 5865   1.399   8.727   7.964
  178POPC   C4B 5866   1.401   8.770   7.664
  179POPC   NC3 5867  39.225  25.282   9.464
  179POPC   PO4 5868  39.247  25.273   9.164
  179POPC   GL1 5869  39.200  25.247   8.864
  179POPC   GL2 5870  39.301  25.306   8.864
  179POPC   C1A 5871  39.264  25.246   8.564
  179POPC   D2A 5872  39.205  25.296   8.264
  179POPC   C3A 5873  39.213  25.221   7.964
  179POPC   C4A 5874  39.259  25.303   7.664
  179POPC   C1B 5875  39.455  25.369   8.564
  179POPC   C2B 5876  39.479  25.359   8.264
  179POPC   C3B 5877  39.444  25.405   7.964
  179POPC   C4B 5878  39.450  25.392   7.664
  180POPC   NC3 5879  39.278  15.185   9.464
  180POPC   PO4 5880  39.243  15.194   9.164
  180POPC   GL1 5881  39.241  15.215   8.864
  180POPC   GL2 5882  39.321  15.321   8.864
  180POPC   C1A 5883  39.255  15.179   8.564
  180POPC   D2A 5884  39.250  15.229   8.264
  180POPC   C3A 5885  39.224  15.203   7.964
  180POPC   C4A 5886  39.236  15.139   7.664
  180POPC   C1B 5887  39.289  15.363   8.564
  180POPC   C2B 5888  39.333  15.439   8.264
  180POPC   C3B 5889  39.357  15.378   7.964
  180POPC   C4B 5890  39.292  15.421   7.664
  181POPC   NC3 5891  36.149  22.932   9.464
  181POPC   PO4 5892  36.122  22.898   9.164
  181POPC   GL1 5893  36.169  22.903   8.864
  181POPC   GL2 5894  35.987  22.998   8.864
  181POPC   C1A 5895  36.101  22.896   8.564
  181POPC   D2A 5896  36.161  22.945   8.264
  181POPC   C3A 5897  36.114  22.949   7.964
  181POPC   C4A 5898  36.114  22.891   7.664
  181POPC   C1B 5899  35.889  23.019   8.564
  181POPC   C2B 5900  35.886  23.053   8.264
  181POPC   C3B 5901  35.922  23.036   7.964
  181POPC   C4B 5902  35.874  23.052   7.664
  182POPC   NC3 5903  24.455   2.024   9.464
  182POPC   PO4 5904  24.452   1.949   9.164
  182POPC   GL1 5905  24.519   1.951   8.864
  182POPC   GL2 5906  24.361   1.944   8.864
  182POPC   C1A 5907  24.531   1.993   8.564
  182POPC   D2A 5908  24.536   2.008   8.264
  182POPC   C3A 5909  24.506   1.957   7.964
  182POPC   C4A 5910  24.447   2.010   7.664
  182POPC   C1B 5911  24.256   1.805   8.564
  182POPC   C2B 5912  24.298   1.812   8.264
  182POPC   C3B 5913  24.321   1.846   7.964
  182POPC   C4B 5914  24.307   1.868   7.664
  183POPC   NC3 5915  18.297   7.393   9.464
  183POPC   PO4 5916  18.280   7.394   9.164
  183POPC   GL1 5917  18.276   7.382   8.864
  183POPC   GL2 5918  18.399   7.483   8.864
  183POPC   C1A 5919  18.255   7.391   8.564
  183POPC   D2A 5920  18.289   7.392   8.264
  183POPC   C3A 5921  18.236   7.371   7.964
  183POPC   C4A 5922  18.253   7.430   7.664
  183POPC   C1B 5923  18.507   7.578   8.564
  183POPC   C2B 5924  18.518   7.580   8.264
  183POPC   C3B 5925  18.531   7.570   7.964
  183POPC   C4B 5926  18.527   7.493   7.664
  184POPC   NC3 5927  18.240   4.366   9.464
  184POPC   PO4 5928  18.276   4.312   9.164
  184POPC   GL1 5929  18.259   4.352   8.864
  184POPC   GL2 5930  18.253   4.182   8.864
  184POPC   C1A 5931  18.263   4.270   8.564
  184POPC   D2A 5932  18.269   4.334   8.264
  184POPC   C3A 5933  18.291   4.358   7.964
  184POPC   C4A 5934  18.265   4.311   7.664
  184POPC   C1B 5935  18.169   4.096   8.564
  184POPC   C2B 5936  18.215   4.074   8.264
  184POPC   C3B 5937  18.234   4.090   7.964
  184POPC   C4B 5938  18.183   4.102   7.664
  185POPC   NC3 5939   6.682  12.087   9.464
  185POPC   PO4 5940   6.598  12.120   9.164
  185POPC   GL1 5941   6.691  12.072   8.864
  185POPC   GL2 5942   6.614  11.950   8.864
  185POPC   C1A 5943   6.670  12.028   8.564
  185POPC   D2A 5944   6.629  12.097   8.264
  185POPC   C3A 5945   6.658  12.119   7.964
  185POPC   C4A 5946   6.670  12.048   7.664
  185POPC   C1B 5947   6.475  11.904   8.564
  185POPC   C2B 5948   6.486  11.903   8.264
  185POPC   C3B 5949   6.499  11.887   7.964
  185POPC   C4B 5950   6.464  11.883   7.664
  186POPC   NC3 5951  11.290  23.708   9.464
  186POPC   PO4 5952  11.325  23.710   9.164
  186POPC   GL1 5953  11.312  23.679   8.864
  186POPC   GL2 5954  11.404  23.794   8.864
  186POPC   C1A 5955  11.341  23.763   8.564
  186POPC   D2A 5956  11.329  23.702   8.264
  186POPC   C3A 5957  11.285  23.699   7.964
  186POPC   C4A 5958  11.267  23.706   7.664
  186POPC   C1B 5959  11.387  23.923   8.564
  186POPC   C2B 5960  11.461  23.907   8.264
  186POPC   C3B 5961  11.419  23.973   7.964
  186POPC   C4B 5962  11.424  23.946   7.664
  187POPC   NC3 5963  17.474  38.414   9.464
  187POPC   PO4 5964  17.487  38.411   9.164
  187POPC   GL1 5965  17.507  38.505   8.864
  187POPC   GL2 5966  17.473  38.356   8.864
  187POPC   C1A 5967  17.548  38.461   8.564
  187POPC   D2A 5968  17.510  38.490   8.264
  187POPC   C3A 5969  17.550  38.483   7.964
  187POPC   C4A 5970  17.526  38.422   7.664
  187POPC   C1B 5971  17.450  38.252   8.564
  187POPC   C2B 5972  17.413  38.211   8.264
  187POPC   C3B 5973  17.389  38.249   7.964
  187POPC   C4B 5974  17.385  38.215   7.664
  188POPC   NC3 5975  15.176  41.513   9.464
  188POPC   PO4 5976  15.175  41.567   9.164
  188POPC   GL1 5977  15.143  41.533   8.864
  188POPC   GL2 5978  15.234  41.507   8.864
  188POPC   C1A 5979  15.156  41.553   8.564
  188POPC   D2A 5980  15.225  41.594   8.264
  188POPC   C3A 5981  15.130  41.550   7.964
  188POPC   C4A 5982  15.219  41.540   7.664
  188POPC   C1B 5983  15.379  41.394   8.564
  188POPC   C2B 5984  15.370  41.426   8.264
  188POPC   C3B 5985  15.398  41.430   7.964
  188POPC   C4B 5986  15.403  41.440   7.664
  189POPC   NC3 5987  27.588  22.142   9.464
  189POPC   PO4 5988  27.593  22.141   9.164
  189POPC   GL1 5989  27.595  22.192   8.864
  189POPC   GL2 5990  27.650  22.282   8.864
  189POPC   C1A 5991  27.577  22.165   8.564
  189POPC   D2A 5992  27.551  22.186   8.264
  189POPC   C3A 5993  27.619  22.124   7.964
  189POPC   C4A 5994  27.547  22.193   7.664
  189POPC   C1B 5995  27.663  22.376   8.564
  189POPC   C2B 5996  27.687  22.397   8.264
  189POPC   C3B 5997  27.662  22.354   7.964
  189POPC   C4B 5998  27.705  22.406   7.664
  190POPC   NC3 5999  37.724  29.116   9.464
  190POPC   PO4 6000  37.652  29.136   9.164
  190POPC   GL1 6001  37.647  29.193   8.864
  190POPC   GL2 6002  37.783  29.074   8.864
  190POPC   C1A 6003  37.674  29.164   8.564
  190POPC   D2A 6004  37.723  29.184   8.264
  190POPC   C3A 6005  37.657  29.188   7.964
  190POPC   C4A 6006  37.630  29.134   7.664
  190POPC   C1B 6007  37.884  29.023   8.564
  190POPC   C2B 6008  37.850  29.047   8.264
  190POPC   C3B 6009  37.862  29.016   7.964
  190POPC   C4B 6010  37.916  29.041   7.664
  191POPC   NC3 6011   7.450  30.678   9.464
  191POPC   PO4 6012   7.373  30.667   9.164
  191POPC   GL1 6013   7.414  30.677   8.864
  191POPC   GL2 6014   7.497  30.735   8.864
  191POPC   C1A 6015   7.468  30.650   8.564
  191POPC   D2A 6016   7.384  30.675   8.264
  191POPC   C3A 6017   7.467  30.670   7.964
  191POPC   C4A 6018   7.440  30.663   7.664
  191POPC   C1B 6019   7.634  30.746   8.564
  191POPC   C2B 6020   7.717  30.749   8.264
  191POPC   C3B 6021   7.641  30.675   7.964
  191POPC   C4B 6022   7.626  30.722   7.664
  192POPC   NC3 6023  29.902  41.575   9.464
  192POPC   PO4 6024  29.942  41.522   9.164
  192POPC   GL1 6025  29.915  41.589   8.864
  192POPC   GL2 6026  29.884  41.675   8.864
  192POPC   C1A 6027  29.890  41.517   8.564
  192POPC   D2A 6028  29.926  41.604   8.264
  192POPC   C3A 6029  29.879  41.570   7.964
  192POPC   C4A 6030  29.890  41.562   7.664
  192POPC   C1B 6031  29.812  41.744   8.564
  192POPC   C2B 6032  29.818  41.727   8.264
  192POPC   C3B 6033  29.767  41.799   7.964
  192POPC   C4B 6034  29.815  41.767   7.664
  193POPC   NC3 6035  39.197   9.775   9.464
  193POPC   PO4 6036  39.215   9.798   9.164
  193POPC   GL1 6037  39.259   9.797   8.864
  193POPC   GL2 6038  39.291   9.820   8.864
  193POPC   C1A 6039  39.208   9.781   8.564
  193POPC   D2A 6040  39.245   9.779   8.264
  193POPC   C3A 6041  39.245   9.715   7.964
  193POPC   C4A 6042  39.222   9.793   7.664
  193POPC   C1B 6043  39.406   9.912   8.564
  193POPC   C2B 6044  39.405   9.826   8.264
  193POPC   C3B 6045  39.481   9.915   7.964
  193POPC   C4B 6046  39.468   9.833   7.664
  194POPC   NC3 6047  41.578  42.362   9.464
  194POPC   PO4 6048  41.558  42.317   9.164
  194POPC   GL1 6049  41.540  42.359   8.864
  194POPC   GL2 6050  41.610  42.453   8.864
  194POPC   C1A 6051  41.602  42.346   8.564
  194POPC   D2A 6052  41.515  42.288   8.264
  194POPC   C3A 6053  41.555  42.331   7.964
  194POPC   C4A 6054  41.542  42.324   7.664
  194POPC   C1B 6055  41.774  42.544   8.564
  194POPC   C2B 6056  41.763  42.486   8.264
  194POPC   C3B 6057  41.729  42.542   7.964
  194POPC   C4B 6058  41.680  42.472   7.664
  195POPC   NC3 6059   5.901  25.258   9.464
  195POPC   PO4 6060   5.820  25.300   9.164
  195POPC   GL1 6061   5.856  25.285   8.864
  195POPC   GL2 6062   5.793  25.155   8.864
  195POPC   C1A 6063   5.881  25.236   8.564
  195POPC   D2A 6064   5.859  25.313   8.264
  195POPC   C3A 6065   5.832  25.292   7.964
  195POPC   C4A 6066   5.900  25.313   7.664
  195POPC   C1B 6067   5.807  24.995   8.564
  195POPC   C2B 6068   5.817  24.975   8.264
  195POPC   C3B 6069   5.811  25.036   7.964
  195POPC   C4B 6070   5.784  25.062   7.664
  196POPC   NC3 6071   7.402  22.896   9.464
  196POPC   PO4 6072   7.401  22.954   9.164
  196POPC   GL1 6073   7.380  22.890   8.864
  196POPC   GL2 6074   7.268  22.947   8.864
  196POPC   C1A 6075   7.457  22.923   8.564
  196POPC   D2A 6076   7.433  22.947   8.264
  196POPC   C3A 6077   7.459  22.920   7.964
  196POPC   C4A 6078   7.415  22.911   7.664
  196POPC   C1B 6079   7.198  23.058   8.564
  196POPC   C2B 6080   7.197  22.986   8.264
  196POPC   C3B 6081   7.227  23.006   7.964
  196POPC   C4B 6082   7.206  22.976   7.664
  197POPC   NC3 6083   8.232   0.460   9.464
  197POPC   PO4 6084   8.223   0.476   9.164
  197POPC   GL1 6085   8.222   0.468   8.864
  197POPC   GL2 6086   8.277   0.601   8.864
  197POPC   C1A 6087   8.216   0.484   8.564
  197POPC   D2A 6088   8.172   0.399   8.264
  197POPC   C3A 6089   8.187   0.393   7.964
  197POPC   C4A 6090   8.194   0.486   7.664
  197POPC   C1B 6091   8.248   0.680   8.564
  197POPC   C2B 6092   8.270   0.651   8.264
  197POPC   C3B 6093   8.252   0.684   7.964
  197POPC   C4B 6094   8.307   0.693   7.664
  198POPC   NC3 6095  33.794  42.371   9.464
  198POPC   PO4 6096  33.795  42.301   9.164
  198POPC   GL1 6097  33.845  42.322   8.864
  198POPC   GL2 6098  33.796  42.452   8.864
  198POPC   C1A 6099  33.760  42.327   8.564
  198POPC   D2A 6100  33.822  42.287   8.264
  198POPC   C3A 6101  33.791  42.290   7.964
  198POPC   C4A 6102  33.827  42.346   7.664
  198POPC   C1B 6103  33.836  42.539   8.564
  198POPC   C2B 6104  33.890  42.583   8.264
  198POPC   C3B 6105  33.870  42.600   7.964
  198POPC   C4B 6106  33.892  42.570   7.664
  199POPC   NC3 6107   9.702  34.618   9.464
  199POPC   PO4 6108   9.789  34.587   9.164
  199POPC   GL1 6109   9.728  34.555   8.864
  199POPC   GL2 6110   9.612  34.539   8.864
  199POPC   C1A 6111   9.713  34.623   8.564
  199POPC   D2A 6112   9.743  34.611   8.264
  199POPC   C3A 6113   9.797  34.594   7.964
  199POPC   C4A 6114   9.755  34.603   7.664
  199POPC   C1B 6115   9.535  34.485   8.564
  199POPC   C2B 6116   9.479  34.478   8.264
  199POPC   C3B 6117   9.476  34.555   7.964
  199POPC   C4B 6118   9.461  34.521   7.664
  200POPC   NC3 6119  39.254  29.118   9.464
  200POPC   PO4 6120  39.191  29.127   9.164
  200POPC   GL1 6121  39.203  29.154   8.864
  200POPC   GL2 6122  39.397  29.138   8.864
  200POPC   C1A 6123  39.185  29.113   8.564
  200POPC   D2A 6124  39.222  29.159   8.264
  200POPC   C3A 6125  39.188  29.142   7.964
  200POPC   C4A 6126  39.259  29.099   7.664
  200POPC   C1B 6127  39.506  29.103   8.564
  200POPC   C2B 6128  39.461  29.171   8.264
  200POPC   C3B 6129  39.432  29.175   7.964
  200POPC   C4B 6130  39.531  29.096   7.664
  201POPC   NC3 6131  15.192  36.879   9.464
  201POPC   PO4 6132  15.216  36.925   9.164
  201POPC   GL1 6133  15.219  36.903   8.864
  201POPC   GL2 6134  15.301  36.988   8.864
  201POPC   C1A 6135  15.150  36.904   8.564
  201POPC   D2A 6136  15.210  36.883   8.264
  201POPC   C3A 6137  15.214  36.875   7.964
  201POPC   C4A 6138  15.226  36.885   7.664
  201POPC   C1B 6139  15.416  36.996   8.564
  201POPC   C2B 6140  15.453  36.932   8.264
  201POPC   C3B 6141  15.406  36.929   7.964
  201POPC   C4B 6142  15.397  36.998   7.664
  202POPC   NC3 6143  40.767  13.642   9.464
  202POPC   PO4 6144  40.832  13.606   9.164
  202POPC   GL1 6145  40.801  13.629   8.864
  202POPC   GL2 6146  40.879  13.700   8.864
  202POPC   C1A 6147  40.756  13.653   8.564
  202POPC   D2A 6148  40.744  13.586   8.264
  202POPC   C3A 6149  40.738  13.627   7.964
  202POPC   C4A 6150  40.745  13.643   7.664
  202POPC   C1B 6151  40.948  13.790   8.564
  202POPC   C2B 6152  40.943  13.800   8.264
  202POPC   C3B 6153  40.957  13.786   7.964
  202POPC   C4B 6154  40.908  13.867   7.664
  203POPC   NC3 6155   8.151  22.918   9.464
  203POPC   PO4 6156   8.208  22.976   9.164
  203POPC   GL1 6157   8.195  22.939   8.864
  203POPC   GL2 6158   8.046  22.915   8.864
  203POPC   C1A 6159   8.235  22.938   8.564
  203POPC   D2A 6160   8.236  22.911   8.264
  203POPC   C3A 6161   8.179  22.917   7.964
  203POPC   C4A 6162   8.160  22.906   7.664
  203POPC   C1B 6163   7.979  22.934   8.564
  203POPC   C2B 6164   7.975  23.001   8.264
  203POPC   C3B 6165   7.966  22.988   7.964
  203POPC   C4B 6166   7.997  22.955   7.664
  204POPC   NC3 6167  15.199  42.358   9.464
  204POPC   PO4 6168  15.228  42.364   9.164
  204POPC   GL1 6169  15.218  42.321   8.864
  204POPC   GL2 6170  15.276  42.429   8.864
  204POPC   C1A 6171  15.216  42.354   8.564
  204POPC   D2A 6172  15.146  42.379   8.264
  204POPC   C3A 6173  15.143  42.377   7.964
  204POPC   C4A 6174  15.141  42.372   7.664
  204POPC   C1B 6175  15.427  42.490   8.564
  204POPC   C2B 6176  15.395  42.499   8.264
  204POPC   C3B 6177  15.371  42.451   7.964
  204POPC   C4B 6178  15.421  42.505   7.664
  205POPC   NC3 6179  10.503  10.568   9.464
  205POPC   PO4 6180  10.519  10.566   9.164
  205POPC   GL1 6181  10.519  10.523   8.864
  205POPC   GL2 6182  10.589  10.467   8.864
  205POPC   C1A 6183  10.564  10.540   8.564
  205POPC   D2A 6184  10.547  10.487   8.264
  205POPC   C3A 6185  10.514  10.558   7.964
  205POPC   C4A 6186  10.530  10.508   7.664
  205POPC   C1B 6187  10.705  10.318   8.564
  205POPC   C2B 6188  10.672  10.332   8.264
  205POPC   C3B 6189  10.674  10.344   7.964
  205POPC   C4B 6190  10.684  10.304   7.664
  206POPC   NC3 6191  12.824   7.399   9.464
  206POPC   PO4 6192  12.807   7.389   9.164
  206POPC   GL1 6193  12.810   7.402   8.864
  206POPC   GL2 6194  12.792   7.272   8.864
  206POPC   C1A 6195  12.830   7.421   8.564
  206POPC   D2A 6196  12.862   7.373   8.264
  206POPC   C3A 6197  12.804   7.462   7.964
  206POPC   C4A 6198  12.804   7.424   7.664
  206POPC   C1B 6199  12.777   7.211   8.564
  206POPC   C2B 6200  12.735   7.161   8.264
  206POPC   C3B 6201  12.709   7.196   7.964
  206POPC   C4B 6202  12.715   7.159   7.664
  207POPC   NC3 6203  26.083   3.517   9.464
  207POPC   PO4 6204  26.015   3.498   9.164
  207POPC   GL1 6205  26.012   3.530   8.864
  207POPC   GL2 6206  25.891   3.510   8.864
  207POPC   C1A 6207  26.052   3.571   8.564
  207POPC   D2A 6208  26.024   3.540   8.264
  207POPC   C3A 6209  26.062   3.508   7.964
  207POPC   C4A 6210  26.015   3.512   7.664
  207POPC   C1B 6211  25.806   3.443   8.564
  207POPC   C2B 6212  25.852   3.377   8.264
  207POPC   C3B 6213  25.864   3.419   7.964
  207POPC   C4B 6214  25.806   3.376   7.664
  208POPC   NC3 6215  28.399  34.558   9.464
  208POPC   PO4 6216  28.338  34.538   9.164
  208POPC   GL1 6217  28.359  34.588   8.864
  208POPC   GL2 6218  28.483  34.465   8.864
  208POPC   C1A 6219  28.400  34.576   8.564
  208POPC   D2A 6220  28.370  34.538   8.264
  208POPC   C3A 6221  28.416  34.591   7.964
  208POPC   C4A 6222  28.362  34.554   7.664
  208POPC   C1B 6223  28.562  34.391   8.564
  208POPC   C2B 6224  28.537  34.388   8.264
  208POPC   C3B 6225  28.536  34.402   7.964
  208POPC   C4B 6226  28.580  34.427   7.664
  209POPC   NC3 6227   8.988  33.805   9.464
  209POPC   PO4 6228   8.928  33.778   9.164
  209POPC   GL1 6229   8.960  33.764   8.864
  209POPC   GL2 6230   8.868  33.824   8.864
  209POPC   C1A 6231   8.970  33.833   8.564
  209POPC   D2A 6232   9.001  33.823   8.264
  209POPC   C3A 6233   8.999  33.832   7.964
  209POPC   C4A 6234   8.989  33.786   7.664
  209POPC   C1B 6235   8.712  33.784   8.564
  209POPC   C2B 6236   8.710  33.720   8.264
  209POPC   C3B 6237   8.756  33.793   7.964
  209POPC   C4B 6238   8.767  33.807   7.664
  210POPC   NC3 6239  14.417  11.262   9.464
  210POPC   PO4 6240  14.354  11.285   9.164
  210POPC   GL1 6241  14.398  11.347   8.864
  210POPC   GL2 6242  14.364  11.237   8.864
  210POPC   C1A 6243  14.406  11.316   8.564
  210POPC   D2A 6244  14.452  11.336   8.264
  210POPC   C3A 6245  14.360  11.279   7.964
  210POPC   C4A 6246  14.452  11.267   7.664
  210POPC   C1B 6247  14.271  11.070   8.564
  210POPC   C2B 6248  14.225  11.054   8.264
  210POPC   C3B 6249  14.275  11.109   7.964
  210POPC   C4B 6250  14.303  11.041   7.664
  211POPC   NC3 6251  25.237   1.173   9.464
  211POPC   PO4 6252  25.258   1.247   9.164
  211POPC   GL1 6253  25.296   1.199   8.864
  211POPC   GL2 6254  25.120   1.311   8.864
  211POPC   C1A 6255  25.300   1.248   8.564
  211POPC   D2A 6256  25.273   1.252   8.264
  211POPC   C3A 6257  25.233   1.186   7.964
  211POPC   C4A 6258  25.301   1.201   7.664
  211POPC   C1B 6259  25.058   1.412   8.564
  211POPC   C2B 6260  25.117   1.335   8.264
  211POPC   C3B 6261  25.108   1.421   7.964
  211POPC   C4B 6262  25.117   1.343   7.664
  212POPC   NC3 6263  20.583  31.494   9.464
  212POPC   PO4 6264  20.637  31.506   9.164
  212POPC   GL1 6265  20.636  31.429   8.864
  212POPC   GL2 6266  20.780  31.490   8.864
  212POPC   C1A 6267  20.587  31.466   8.564
  212POPC   D2A 6268  20.617  31.440   8.264
  212POPC   C3A 6269  20.618  31.473   7.964
  212POPC   C4A 6270  20.624  31.449   7.664
  212POPC   C1B 6271  20.817  31.431   8.564
  212POPC   C2B 6272  20.862  31.398   8.264
  212POPC   C3B 6273  20.898  31.408   7.964
  212POPC   C4B 6274  20.883  31.465   7.664
  213POPC   NC3 6275   5.891  14.402   9.464
  213POPC   PO4 6276   5.889  14.424   9.164
  213POPC   GL1 6277   5.840  14.423   8.864
  213POPC   GL2 6278   5.752  14.378   8.864
  213POPC   C1A 6279   5.829  14.355   8.564
  213POPC   D2A 6280   5.856  14.440   8.264
  213POPC   C3A 6281   5.855  14.404   7.964
  213POPC   C4A 6282   5.893  14.424   7.664
  213POPC   C1B 6283   5.626  14.227   8.564
  213POPC   C2B 6284   5.611  14.278   8.264
  213POPC   C3B 6285   5.644  14.279   7.964
  213POPC   C4B 6286   5.654  14.291   7.664
  214POPC   NC3 6287  15.993  41.525   9.464
  214POPC   PO4 6288  15.915  41.581   9.164
  214POPC   GL1 6289  15.934  41.518   8.864
  214POPC   GL2 6290  15.881  41.669   8.864
  214POPC   C1A 6291  15.964  41.565   8.564
  214POPC   D2A 6292  15.930  41.595   8.264
  214POPC   C3A 6293  15.953  41.511   7.964
  214POPC   C4A 6294  15.909  41.559   7.664
  214POPC   C1B 6295  15.787  41.667   8.564
  214POPC   C2B 6296  15.707  41.730   8.264
  214POPC   C3B 6297  15.721  41.744   7.964
  214POPC   C4B 6298  15.767  41.664   7.664
  215POPC   NC3 6299  44.659  39.213   9.464
  215POPC   PO4 6300  44.630  39.231   9.164
  215POPC   GL1 6301  44.636  39.231   8.864
  215POPC   GL2 6302  44.755  39.308   8.864
  215POPC   C1A 6303  44.626  39.187   8.564
  215POPC   D2A 6304  44.707  39.237   8.264
  215POPC   C3A 6305  44.699  39.228   7.964
  215POPC   C4A 6306  44.661  39.209   7.664
  215POPC   C1B 6307  44.834  39.340   8.564
  215POPC   C2B 6308  44.915  39.339   8.264
  215POPC   C3B 6309  44.917  39.363   7.964
  215POPC   C4B 6310  44.918  39.379   7.664
  216POPC   NC3 6311  35.326  31.424   9.464
  216POPC   PO4 6312  35.402  31.519   9.164
  216POPC   GL1 6313  35.399  31.486   8.864
  216POPC   GL2 6314  35.320  31.596   8.864
  216POPC   C1A 6315  35.385  31.495   8.564
  216POPC   D2A 6316  35.306  31.462   8.264
  216POPC   C3A 6317  35.372  31.474   7.964
  216POPC   C4A 6318  35.357  31.445   7.664
  216POPC   C1B 6319  35.291  31.692   8.564
  216POPC   C2B 6320  35.262  31.680   8.264
  216POPC   C3B 6321  35.256  31.723   7.964
  216POPC   C4B 6322  35.312  31.671   7.664
  217POPC   NC3 6323  43.919   1.978   9.464
  217POPC   PO4 6324  43.922   1.975   9.164
  217POPC   GL1 6325  43.887   2.012   8.864
  217POPC   GL2 6326  43.818   2.106   8.864
  217POPC   C1A 6327  43.869   1.956   8.564
  217POPC   D2A 6328  43.875   2.033   8.264
  217POPC   C3A 6329  43.916   2.027   7.964
  217POPC   C4A 6330  43.906   1.963   7.664
  217POPC   C1B 6331  43.717   2.212   8.564
  217POPC   C2B 6332  43.727   2.207   8.264
  217POPC   C3B 6333  43.750   2.194   7.964
  217POPC   C4B 6334  43.785   2.160   7.664
  218POPC   NC3 6335  31.451   3.495   9.464
  218POPC   PO4 6336  31.491   3.576   9.164
  218POPC   GL1 6337  31.474   3.519   8.864
  218POPC   GL2 6338  31.470   3.687   8.864
  218POPC   C1A 6339  31.444   3.492   8.564
  218POPC   D2A 6340  31.437   3.559   8.264
  218POPC   C3A 6341  31.440   3.493   7.964
  218POPC   C4A 6342  31.504   3.505   7.664
  218POPC   C1B 6343  31.442   3.752   8.564
  218POPC   C2B 6344  31.491   3.796   8.264
  218POPC   C3B 6345  31.428   3.754   7.964
  218POPC   C4B 6346  31.409   3.829   7.664
  219POPC   NC3 6347  39.989  37.723   9.464
  219POPC   PO4 6348  39.967  37.696   9.164
  219POPC   GL1 6349  40.042  37.692   8.864
  219POPC   GL2 6350  40.019  37.527   8.864
  219POPC   C1A 6351  40.001  37.724   8.564
  219POPC   D2A 6352  40.006  37.692   8.264
  219POPC   C3A 6353  40.005  37.671   7.964
  219POPC   C4A 6354  40.017  37.727   7.664
  219POPC   C1B 6355  40.116  37.419   8.564
  219POPC   C2B 6356  40.049  37.408   8.264
  219POPC   C3B 6357  40.069  37.479   7.964
  219POPC   C4B 6358  40.091  37.434   7.664
  220POPC   NC3 6359  33.029  30.660   9.464
  220POPC   PO4 6360  33.052  30.660   9.164
  220POPC   GL1 6361  33.009  30.663   8.864
  220POPC   GL2 6362  32.958  30.826   8.864
  220POPC   C1A 6363  33.029  30.709   8.564
  220POPC   D2A 6364  33.002  30.676   8.264
  220POPC   C3A 6365  33.066  30.706   7.964
  220POPC   C4A 6366  33.048  30.688   7.664
  220POPC   C1B 6367  32.815  30.895   8.564
  220POPC   C2B 6368  32.888  30.873   8.264
  220POPC   C3B 6369  32.862  30.878   7.964
  220POPC   C4B 6370  32.848  30.909   7.664
  221POPC   NC3 6371  19.856  33.794   9.464
  221POPC   PO4 6372  19.854  33.825   9.164
  221POPC   GL1 6373  19.814  33.782   8.864
  221POPC   GL2 6374  19.782  33.668   8.864
  221POPC   C1A 6375  19.862  33.757   8.564
  221POPC   D2A 6376  19.844  33.779   8.264
  221POPC   C3A 6377  19.790  33.811   7.964
  221POPC   C4A 6378  19.869  33.808   7.664
  221POPC   C1B 6379  19.757  33.606   8.564
  221POPC   C2B 6380  19.727  33.602   8.264
  221POPC   C3B 6381  19.760  33.527   7.964
  221POPC   C4B 6382  19.739  33.613   7.664
  222POPC   NC3 6383  27.564   9.022   9.464
  222POPC   PO4 6384  27.564   9.009   9.164
  222POPC   GL1 6385  27.599   9.019   8.864
  222POPC   GL2 6386  27.604   8.823   8.864
  222POPC   C1A 6387  27.639   8.957   8.564
  222POPC   D2A 6388  27.554   9.000   8.264
  222POPC   C3A 6389  27.551   9.015   7.964
  222POPC   C4A 6390  27.547   8.928   7.664
  222POPC   C1B 6391  27.610   8.745   8.564
  222POPC   C2B 6392  27.523   8.726   8.264
  222POPC   C3B 6393  27.590   8.696   7.964
  222POPC   C4B 6394  27.558   8.703   7.664
  223POPC   NC3 6395  29.135  33.805   9.464
  223POPC   PO4 6396  29.175  33.821   9.164
  223POPC   GL1 6397  29.119  33.836   8.864
  223POPC   GL2 6398  29.132  33.705   8.864
  223POPC   C1A 6399  29.169  33.775   8.564
  223POPC   D2A 6400  29.150  33.788   8.264
  223POPC   C3A 6401  29.117  33.838   7.964
  223POPC   C4A 6402  29.184  33.837   7.664
  223POPC   C1B 6403  29.123  33.534   8.564
  223POPC   C2B 6404  29.163  33.576   8.264
  223POPC   C3B 6405  29.202  33.590   7.964
  223POPC   C4B 6406  29.148  33.515   7.664
  224POPC   NC3 6407  20.628  35.339   9.464
  224POPC   PO4 6408  20.580  35.334   9.164
  224POPC   GL1 6409  20.643  35.372   8.864
  224POPC   GL2 6410  20.490  35.430   8.864
  224POPC   C1A 6411  20.623  35.308   8.564
  224POPC   D2A 6412  20.608  35.336   8.264
  224POPC   C3A 6413  20.631  35.326   7.964
  224POPC   C4A 6414  20.650  35.397   7.664
  224POPC   C1B 6415  20.389  35.461   8.564
  224POPC   C2B 6416  20.386  35.441   8.264
  224POPC   C3B 6417  20.402  35.419   7.964
  224POPC   C4B 6418  20.362  35.402   7.664
  225POPC   NC3 6419  42.303  23.746   9.464
  225POPC   PO4 6420  42.353  23.753   9.164
  225POPC   GL1 6421  42.375  23.734   8.864
  225POPC   GL2 6422  42.427  23.724   8.864
  225POPC   C1A 6423  42.297  23.763   8.564
  225POPC   D2A 6424  42.328  23.732   8.264
  225POPC   C3A 6425  42.363  23.693   7.964
  225POPC   C4A 6426  42.352  23.697   7.664
  225POPC   C1B 6427  42.521  23.792   8.564
  225POPC   C2B 6428  42.585  23.855   8.264
  225POPC   C3B 6429  42.515  23.791   7.964
  225POPC   C4B 6430  42.539  23.825   7.664
  226POPC   NC3 6431  38.454  22.179   9.464
  226POPC   PO4 6432  38.460  22.203   9.164
  226POPC   GL1 6433  38.464  22.208   8.864
  226POPC   GL2 6434  38.516  22.263   8.864
  226POPC   C1A 6435  38.419  22.167   8.564
  226POPC   D2A 6436  38.475  22.211   8.264
  226POPC   C3A 6437  38.491  22.172   7.964
  226POPC   C4A 6438  38.497  22.144   7.664
  226POPC   C1B 6439  38.646  22.330   8.564
  226POPC   C2B 6440  38.701  22.333   8.264
  226POPC   C3B 6441  38.700  22.266   7.964
  226POPC   C4B 6442  38.669  22.285   7.664
  227POPC   NC3 6443  18.313   5.062   9.464
  227POPC   PO4 6444  18.235   5.133   9.164
  227POPC   GL1 6445  18.298   5.046   8.864
  227POPC   GL2 6446  18.227   5.198   8.864
  227POPC   C1A 6447  18.296   5.070   8.564
  227POPC   D2A 6448  18.252   5.127   8.264
  227POPC   C3A 6449  18.316   5.065   7.964
  227POPC   C4A 6450  18.258   5.063   7.664
  227POPC   C1B 6451  18.208   5.332   8.564
  227POPC   C2B 6452  18.170   5.327   8.264
  227POPC   C3B 6453  18.176   5.305   7.964
  227POPC   C4B 6454  18.187   5.298   7.664
  228POPC   NC3 6455  30.653  27.627   9.464
  228POPC   PO4 6456  30.695  27.565   9.164
  228POPC   GL1 6457  30.717  27.619   8.864
  228POPC   GL2 6458  30.656  27.508   8.864
  228POPC   C1A 6459  30.709  27.549   8.564
  228POPC   D2A 6460  30.652  27.574   8.264
  228POPC   C3A 6461  30.649  27.571   7.964
  228POPC   C4A 6462  30.709  27.640   7.664
  228POPC   C1B 6463  30.656  27.300   8.564
  228POPC   C2B 6464  30.659  27.309   8.264
  228POPC   C3B 6465  30.680  27.375   7.964
  228POPC   C4B 6466  30.604  27.374   7.664
  229POPC   NC3 6467   5.112   2.791   9.464
  229POPC   PO4 6468   5.106   2.774   9.164
  229POPC   GL1 6469   5.129   2.760   8.864
  229POPC   GL2 6470   5.168   2.814   8.864
  229POPC   C1A 6471   5.055   2.781   8.564
  229POPC   D2A 6472   5.046   2.785   8.264
  229POPC   C3A 6473   5.050   2.750   7.964
  229POPC   C4A 6474   5.059   2.751   7.664
  229POPC   C1B 6475   5.320   2.915   8.564
  229POPC   C2B 6476   5.277   2.863   8.264
  229POPC   C3B 6477   5.343   2.833   7.964
  229POPC   C4B 6478   5.366   2.880   7.664
  230POPC   NC3 6479  36.914  26.803   9.464
  230POPC   PO4 6480  36.873  26.836   9.164
  230POPC   GL1 6481  36.858  26.834   8.864
  230POPC   GL2 6482  36.865  26.942   8.864
  230POPC   C1A 6483  36.857  26.792   8.564
  230POPC   D2A 6484  36.932  26.823   8.264
  230POPC   C3A 6485  36.872  26.817   7.964
  230POPC   C4A 6486  36.935  26.788   7.664
  230POPC   C1B 6487  36.874  27.043   8.564
  230POPC   C2B 6488  36.827  27.026   8.264
  230POPC   C3B 6489  36.833  27.021   7.964
  230POPC   C4B 6490  36.836  27.093   7.664
  231POPC   NC3 6491   2.814  39.250   9.464
  231POPC   PO4 6492   2.792  39.270   9.164
  231POPC   GL1 6493   2.729  39.236   8.864
  231POPC   GL2 6494   2.917  39.270   8.864
  231POPC   C1A 6495   2.739  39.256   8.564
  231POPC   D2A 6496   2.767  39.224   8.264
  231POPC   C3A 6497   2.800  39.202   7.964
  231POPC   C4A 6498   2.737  39.222   7.664
  231POPC   C1B 6499   3.034  39.236   8.564
  231POPC   C2B 6500   3.017  39.249   8.264
  231POPC   C3B 6501   3.005  39.257   7.964
  231POPC   C4B 6502   2.967  39.243   7.664
  232POPC   NC3 6503  27.561  21.425   9.464
  232POPC   PO4 6504  27.602  21.424   9.164
  232POPC   GL1 6505  27.544  21.394   8.864
  232POPC   GL2 6506  27.646  21.513   8.864
  232POPC   C1A 6507  27.588  21.343   8.564
  232POPC   D2A 6508  27.571  21.391   8.264
  232POPC   C3A 6509  27.604  21.426   7.964
  232POPC   C4A 6510  27.633  21.436   7.664
  232POPC   C1B 6511  27.664  21.642   8.564
  232POPC   C2B 6512  27.697  21.644   8.264
  232POPC   C3B 6513  27.693  21.640   7.964
  232POPC   C4B 6514  27.628  21.631   7.664
  233POPC   NC3 6515  16.729  22.930   9.464
  233POPC   PO4 6516  16.715  22.892   9.164
  233POPC   GL1 6517  16.701  22.943   8.864
  233POPC   GL2 6518  16.847  22.972   8.864
  233POPC   C1A 6519  16.720  22.896   8.564
  233POPC   D2A 6520  16.706  22.973   8.264
  233POPC   C3A 6521  16.734  22.890   7.964
  233POPC   C4A 6522  16.765  22.987   7.664
  233POPC   C1B 6523  16.980  23.011   8.564
  233POPC   C2B 6524  17.014  23.001   8.264
  233POPC   C3B 6525  16.983  22.993   7.964
  233POPC   C4B 6526  16.950  22.936   7.664
  234POPC   NC3 6527  15.910  25.293   9.464
  234POPC   PO4 6528  15.955  25.261   9.164
  234POPC   GL1 6529  15.951  25.308   8.864
  234POPC   GL2 6530  16.011  25.175   8.864
  234POPC   C1A 6531  15.935  25.258   8.564
  234POPC   D2A 6532  15.959  25.222   8.264
  234POPC   C3A 6533  15.968  25.281   7.964
  234POPC   C4A 6534  15.994  25.311   7.664
  234POPC   C1B 6535  16.037  25.018   8.564
  234POPC   C2B 6536  15.999  25.014   8.264
  234POPC   C3B 6537  15.997  25.033   7.964
  234POPC   C4B 6538  16.005  25.033   7.664
  235POPC   NC3 6539   8.149  15.147   9.464
  235POPC   PO4 6540   8.193  15.175   9.164
  235POPC   GL1 6541   8.147  15.224   8.864
  235POPC   GL2 6542   8.063  15.226   8.864
  235POPC   C1A 6543   8.204  15.187   8.564
  235POPC   D2A 6544   8.240  15.202   8.264
  235POPC   C3A 6545   8.188  15.225   7.964
  235POPC   C4A 6546   8.220  15.164   7.664
  235POPC   C1B 6547   7.979  15.234   8.564
  235POPC   C2B 6548   7.945  15.212   8.264
  235POPC   C3B 6549   7.951  15.201   7.964
  235POPC   C4B 6550   7.909  15.163   7.664
  236POPC   NC3 6551  34.558   0.440   9.464
  236POPC   PO4 6552  34.562   0.416   9.164
  236POPC   GL1 6553  34.551   0.403   8.864
  236POPC   GL2 6554  34.631   0.376   8.864
  236POPC   C1A 6555  34.570   0.399   8.564
  236POPC   D2A 6556  34.536   0.434   8.264
  236POPC   C3A 6557  34.582   0.486   7.964
  236POPC   C4A 6558  34.545   0.407   7.664
  236POPC   C1B 6559  34.787   0.309   8.564
  236POPC   C2B 6560  34.757   0.252   8.264
  236POPC   C3B 6561  34.786   0.234   7.964
  236POPC   C4B 6562  34.749   0.271   7.664
  237POPC   NC3 6563  15.986  37.695   9.464
  237POPC   PO4 6564  15.926  37.677   9.164
  237POPC   GL1 6565  15.921  37.636   8.864
  237POPC   GL2 6566  15.847  37.570   8.864
  237POPC   C1A 6567  15.937  37.710   8.564
  237POPC   D2A 6568  15.981  37.644   8.264
  237POPC   C3A 6569  15.947  37.710   7.964
  237POPC   C4A 6570  15.939  37.632   7.664
  237POPC   C1B 6571  15.780  37.558   8.564
  237POPC   C2B 6572  15.796  37.489   8.264
  237POPC   C3B 6573  15.729  37.514   7.964
  237POPC   C4B 6574  15.708  37.551   7.664
  238POPC   NC3 6575  19.787   9.725   9.464
  238POPC   PO4 6576  19.796   9.755   9.164
  238POPC   GL1 6577  19.879   9.750   8.864
  238POPC   GL2 6578  19.862   9.689   8.864
  238POPC   C1A 6579  19.879   9.780   8.564
  238POPC   D2A 6580  19.808   9.703   8.264
  238POPC   C3A 6581  19.792   9.734   7.964
  238POPC   C4A 6582  19.853   9.759   7.664
  238POPC   C1B 6583  19.924   9.505   8.564
  238POPC   C2B 6584  20.012   9.512   8.264
  238POPC   C3B 6585  19.944   9.568   7.964
  238POPC   C4B 6586  19.935   9.500   7.664
  239POPC   NC3 6587   0.427   8.969   9.464
  239POPC   PO4 6588   0.461   8.958   9.164
  239POPC   GL1 6589   0.451   9.021   8.864
  239POPC   GL2 6590   0.510   8.904   8.864
  239POPC   C1A 6591   0.447   8.945   8.564
  239POPC   D2A 6592   0.454   8.951   8.264
  239POPC   C3A 6593   0.427   8.980   7.964
  239POPC   C4A 6594   0.479   9.019   7.664
  239POPC   C1B 6595   0.545   8.779   8.564
  239POPC   C2B 6596   0.572   8.786   8.264
  239POPC   C3B 6597   0.585   8.807   7.964
  239POPC   C4B 6598   0.542   8.751   7.664
  240POPC   NC3 6599  22.179   5.881   9.464
  240POPC   PO4 6600  22.173   5.912   9.164
  240POPC   GL1 6601  22.182   5.875   8.864
  240POPC   GL2 6602  22.208   5.806   8.864
  240POPC   C1A 6603  22.206   5.885   8.564
  240POPC   D2A 6604  22.161   5.857   8.264
  240POPC   C3A 6605  22.119   5.881   7.964
  240POPC   C4A 6606  22.203   5.874   7.664
  240POPC   C1B 6607  22.329   5.681   8.564
  240POPC   C2B 6608  22.286   5.691   8.264
  240POPC   C3B 6609  22.241   5.702   7.964
  240POPC   C4B 6610  22.269   5.613   7.664
  241POPC   NC3 6611  19.051  27.549   9.464
  241POPC   PO4 6612  19.026  27.619   9.164
  241POPC   GL1 6613  19.103  27.553   8.864
  241POPC   GL2 6614  18.978  27.615   8.864
  241POPC   C1A 6615  19.010  27.593   8.564
  241POPC   D2A 6616  19.057  27.583   8.264
  241POPC   C3A 6617  19.106  27.598   7.964
  241POPC   C4A 6618  19.085  27.561   7.664
  241POPC   C1B 6619  18.872  27.672   8.564
  241POPC   C2B 6620  18.823  27.682   8.264
  241POPC   C3B 6621  18.839  27.693   7.964
  241POPC   C4B 6622  18.815  27.685   7.664
  242POPC   NC3 6623  36.857  32.998   9.464
  242POPC   PO4 6624  36.865  33.007   9.164
  242POPC   GL1 6625  36.924  33.056   8.864
  242POPC   GL2 6626  36.939  33.125   8.864
  242POPC   C1A 6627  36.919  32.991   8.564
  242POPC   D2A 6628  36.889  33.039   8.264
  242POPC   C3A 6629  36.854  32.996   7.964
  242POPC   C4A 6630  36.935  33.056   7.664
  242POPC   C1B 6631  36.978  33.223   8.564
  242POPC   C2B 6632  36.909  33.222   8.264
  242POPC   C3B 6633  36.939  33.254   7.964
  242POPC   C4B 6634  36.911  33.231   7.664
  243POPC   NC3 6635  13.676  12.870   9.464
  243POPC   PO4 6636  13.583  12.864   9.164
  243POPC   GL1 6637  13.581  12.868   8.864
  243POPC   GL2 6638  13.633  12.738   8.864
  243POPC   C1A 6639  13.599  12.830   8.564
  243POPC   D2A 6640  13.591  12.836   8.264
  243POPC   C3A 6641  13.662  12.873   7.964
  243POPC   C4A 6642  13.604  12.842   7.664
  243POPC   C1B 6643  13.558  12.586   8.564
  243POPC   C2B 6644  13.554  12.601   8.264
  243POPC   C3B 6645  13.558  12.651   7.964
  243POPC   C4B 6646  13.620  12.628   7.664
  244POPC   NC3 6647   4.285  44.628   9.464
  244POPC   PO4 6648   4.310  44.624   9.164
  244POPC   GL1 6649   4.273  44.698   8.864
  244POPC   GL2 6650   4.337  44.731   8.864
  244POPC   C1A 6651   4.282  44.642   8.564
  244POPC   D2A 6652   4.314  44.652   8.264
  244POPC   C3A 6653   4.287  44.665   7.964
  244POPC   C4A 6654   4.277  44.673   7.664
  244POPC   C1B 6655   4.376  44.871   8.564
  244POPC   C2B 6656   4.454  44.918   8.264
  244POPC   C3B 6657   4.406  44.896   7.964
  244POPC   C4B 6658   4.361  44.852   7.664
  245POPC   NC3 6659  11.279  18.255   9.464
  245POPC   PO4 6660  11.260  18.296   9.164
  245POPC   GL1 6661  11.329  18.248   8.864
  245POPC   GL2 6662  11.338  18.149   8.864
  245POPC   C1A 6663  11.273  18.292   8.564
  245POPC   D2A 6664  11.342  18.283   8.264
  245POPC   C3A 6665  11.328  18.310   7.964
  245POPC   C4A 6666  11.304  18.291   7.664
  245POPC   C1B 6667  11.423  18.081   8.564
  245POPC   C2B 6668  11.458  18.070   8.264
  245POPC   C3B 6669  11.512  18.129   7.964
  245POPC   C4B 6670  11.501  18.138   7.664
  246POPC   NC3 6671  19.804  11.349   9.464
  246POPC   PO4 6672  19.794  11.313   9.164
  246POPC   GL1 6673  19.826  11.319   8.864
  246POPC   GL2 6674  19.958  11.302   8.864
  246POPC   C1A 6675  19.785  11.316   8.564
  246POPC   D2A 6676  19.857  11.274   8.264
  246POPC   C3A 6677  19.787  11.337   7.964
  246POPC   C4A 6678  19.856  11.280   7.664
  246POPC   C1B 6679  20.101  11.173   8.564
  246POPC   C2B 6680  20.082  11.176   8.264
  246POPC   C3B 6681  20.034  11.251   7.964
  246POPC   C4B 6682  20.019  11.169   7.664
  247POPC   NC3 6683   9.769  23.729   9.464
  247POPC   PO4 6684   9.731  23.737   9.164
  247POPC   GL1 6685   9.740  23.713   8.864
  247POPC   GL2 6686   9.609  23.741   8.864
  247POPC   C1A 6687   9.750  23.747   8.564
  247POPC   D2A 6688   9.756  23.680   8.264
  247POPC   C3A 6689   9.738  23.718   7.964
  247POPC   C4A 6690   9.765  23.672   7.664
  247POPC   C1B 6691   9.485  23.892   8.564
  247POPC   C2B 6692   9.535  23.844   8.264
  247POPC   C3B 6693   9.490  23.817   7.964
  247POPC   C4B 6694   9.562  23.886   7.664
  248POPC   NC3 6695  13.625   8.956   9.464
  248POPC   PO4 6696  13.669   8.969   9.164
  248POPC   GL1 6697  13.672   9.019   8.864
  248POPC   GL2 6698  13.472   8.938   8.864
  248POPC   C1A 6699  13.591   9.012   8.564
  248POPC   D2A 6700  13.627   9.014   8.264
  248POPC   C3A 6701  13.590   8.935   7.964
  248POPC   C4A 6702  13.618   8.945   7.664
  248POPC   C1B 6703  13.378   8.804   8.564
  248POPC   C2B 6704  13.406   8.850   8.264
  248POPC   C3B 6705  13.363   8.836   7.964
  248POPC   C4B 6706  13.409   8.840   7.664
  249POPC   NC3 6707   0.453  41.528   9.464
  249POPC   PO4 6708   0.414  41.605   9.164
  249POPC   GL1 6709   0.448  41.602   8.864
  249POPC   GL2 6710   0.500  41.394   8.864
  249POPC   C1A 6711   0.482  41.588   8.564
  249POPC   D2A 6712   0.422  41.571   8.264
  249POPC   C3A 6713   0.417  41.572   7.964
  249POPC   C4A 6714   0.393  41.599   7.664
  249POPC   C1B 6715   0.498  41.283   8.564
  249POPC   C2B 6716   0.422  41.341   8.264
  249POPC   C3B 6717   0.463  41.357   7.964
  249POPC   C4B 6718   0.440  41.267   7.664
  250POPC   NC3 6719  10.527  29.963   9.464
  250POPC   PO4 6720  10.555  29.937   9.164
  250POPC   GL1 6721  10.532  29.880   8.864
  250POPC   GL2 6722  10.565  30.030   8.864
  250POPC   C1A 6723  10.496  29.884   8.564
  250POPC   D2A 6724  10.568  29.878   8.264
  250POPC   C3A 6725  10.551  29.960   7.964
  250POPC   C4A 6726  10.519  29.948   7.664
  250POPC   C1B 6727  10.628  30.103   8.564
  250POPC   C2B 6728  10.679  30.120   8.264
  250POPC   C3B 6729  10.639  30.145   7.964
  250POPC   C4B 6730  10.660  30.102   7.664
  251POPC   NC3 6731   4.332  15.956   9.464
  251POPC   PO4 6732   4.306  15.927   9.164
  251POPC   GL1 6733   4.321  15.957   8.864
  251POPC   GL2 6734   4.407  15.875   8.864
  251POPC   C1A 6735   4.345  15.929   8.564
  251POPC   D2A 6736   4.275  15.978   8.264
  251POPC   C3A 6737   4.334  15.993   7.964
  251POPC   C4A 6738   4.291  15.947   7.664
  251POPC   C1B 6739   4.571  15.928   8.564
  251POPC   C2B 6740   4.576  15.901   8.264
  251POPC   C3B 6741   4.552  15.872   7.964
  251POPC   C4B 6742   4.509  15.891   7.664
  252POPC   NC3 6743  42.356  33.017   9.464
  252POPC   PO4 6744  42.300  33.053   9.164
  252POPC   GL1 6745  42.303  32.986   8.864
  252POPC   GL2 6746  42.295  32.900   8.864
  252POPC   C1A 6747  42.349  33.015   8.564
  252POPC   D2A 6748  42.294  33.006   8.264
  252POPC   C3A 6749  42.361  32.985   7.964
  252POPC   C4A 6750  42.384  33.064   7.664
  252POPC   C1B 6751  42.161  32.842   8.564
  252POPC   C2B 6752  42.154  32.856   8.264
  252POPC   C3B 6753  42.169  32.814   7.964
  252POPC   C4B 6754  42.175  32.863   7.664
  253POPC   NC3 6755  22.133  31.452   9.464
  253POPC   PO4 6756  22.187  31.489   9.164
  253POPC   GL1 6757  22.204  31.480   8.864
  253POPC   GL2 6758  22.210  31.433   8.864
  253POPC   C1A 6759  22.122  31.496   8.564
  253POPC   D2A 6760  22.179  31.456   8.264
  253POPC   C3A 6761  22.198  31.472   7.964
  253POPC   C4A 6762  22.202  31.502   7.664
  253POPC   C1B 6763  22.383  31.317   8.564
  253POPC   C2B 6764  22.298  31.297   8.264
  253POPC   C3B 6765  22.390  31.269   7.964
  253POPC   C4B 6766  22.342  31.339   7.664
  254POPC   NC3 6767  22.122  20.651   9.464
  254POPC   PO4 6768  22.159  20.571   9.164
  254POPC   GL1 6769  22.113  20.618   8.864
  254POPC   GL2 6770  22.112  20.704   8.864
  254POPC   C1A 6771  22.165  20.626   8.564
  254POPC   D2A 6772  22.190  20.607   8.264
  254POPC   C3A 6773  22.173  20.648   7.964
  254POPC   C4A 6774  22.187  20.595   7.664
  254POPC   C1B 6775  22.076  20.789   8.564
  254POPC   C2B 6776  21.997  20.821   8.264
  254POPC   C3B 6777  22.005  20.875   7.964
  254POPC   C4B 6778  22.019  20.865   7.664
  255POPC   NC3 6779  30.649  34.546   9.464
  255POPC   PO4 6780  30.718  34.529   9.164
  255POPC   GL1 6781  30.687  34.534   8.864
  255POPC   GL2 6782  30.565  34.571   8.864
  255POPC   C1A 6783  30.674  34.624   8.564
  255POPC   D2A 6784  30.743  34.576   8.264
  255POPC   C3A 6785  30.650  34.543   7.964
  255POPC   C4A 6786  30.744  34.612   7.664
  255POPC   C1B 6787  30.415  34.553   8.564
  255POPC   C2B 6788  30.430  34.499   8.264
  255POPC   C3B 6789  30.496  34.536   7.964
  255POPC   C4B 6790  30.474  34.480   7.664
  256POPC   NC3 6791  25.293  44.650   9.464
  256POPC   PO4 6792  25.302  44.692   9.164
  256POPC   GL1 6793  25.275  44.634   8.864
  256POPC   GL2 6794  25.203  44.736   8.864
  256POPC   C1A 6795  25.236  44.664   8.564
  256POPC   D2A 6796  25.263  44.672   8.264
  256POPC   C3A 6797  25.315  44.624   7.964
  256POPC   C4A 6798  25.310  44.659   7.664
  256POPC   C1B 6799  25.098  44.852   8.564
  256POPC   C2B 6800  25.149  44.847   8.264
  256POPC   C3B 6801  25.106  44.806   7.964
  256POPC   C4B 6802  25.050  44.874   7.664
  257POPC   NC3 6803  25.255  13.645   9.464
  257POPC   PO4 6804  25.272  13.622   9.164
  257POPC   GL1 6805  25.250  13.613   8.864
  257POPC   GL2 6806  25.296  13.464   8.864
  257POPC   C1A 6807  25.301  13.647   8.564
  257POPC   D2A 6808  25.232  13.627   8.264
  257POPC   C3A 6809  25.290  13.624   7.964
  257POPC   C4A 6810  25.223  13.661   7.664
  257POPC   C1B 6811  25.340  13.353   8.564
  257POPC   C2B 6812  25.319  13.433   8.264
  257POPC   C3B 6813  25.348  13.390   7.964
  257POPC   C4B 6814  25.336  13.372   7.664
  258POPC   NC3 6815  20.621  34.540   9.464
  258POPC   PO4 6816  20.608  34.595   9.164
  258POPC   GL1 6817  20.588  34.612   8.864
  258POPC   GL2 6818  20.476  34.679   8.864
  258POPC   C1A 6819  20.597  34.550   8.564
  258POPC   D2A 6820  20.645  34.607   8.264
  258POPC   C3A 6821  20.616  34.596   7.964
  258POPC   C4A 6822  20.613  34.526   7.664
  258POPC   C1B 6823  20.454  34.751   8.564
  258POPC   C2B 6824  20.402  34.682   8.264
  258POPC   C3B 6825  20.439  34.733   7.964
  258POPC   C4B 6826  20.407  34.715   7.664
  259POPC   NC3 6827  26.783  30.727   9.464
  259POPC   PO4 6828  26.818  30.702   9.164
  259POPC   GL1 6829  26.839  30.658   8.864
  259POPC   GL2 6830  26.979  30.725   8.864
  259POPC   C1A 6831  26.826  30.711   8.564
  259POPC   D2A 6832  26.828  30.732   8.264
  259POPC   C3A 6833  26.796  30.700   7.964
  259POPC   C4A 6834  26.779  30.746   7.664
  259POPC   C1B 6835  27.063  30.763   8.564
  259POPC   C2B 6836  27.072  30.755   8.264
  259POPC   C3B 6837  27.022  30.706   7.964
  259POPC   C4B 6838  27.083  30.749   7.664
  260POPC   NC3 6839   8.986  31.455   9.464
  260POPC   PO4 6840   8.971  31.501   9.164
  260POPC   GL1 6841   8.957  31.448   8.864
  260POPC   GL2 6842   9.126  31.494   8.864
  260POPC   C1A 6843   8.965  31.492   8.564
  260POPC   D2A 6844   9.012  31.512   8.264
  260POPC   C3A 6845   9.002  31.442   7.964
  260POPC   C4A 6846   8.987  31.519   7.664
  260POPC   C1B 6847   9.199  31.420   8.564
  260POPC   C2B 6848   9.222  31.443   8.264
  260POPC   C3B 6849   9.176  31.462   7.964
  260POPC   C4B 6850   9.181  31.395   7.664
  261POPC   NC3 6851  32.222  43.883   9.464
  261POPC   PO4 6852  32.260  43.928   9.164
  261POPC   GL1 6853  32.253  43.936   8.864
  261POPC   GL2 6854  32.249  43.986   8.864
  261POPC   C1A 6855  32.244  43.849   8.564
  261POPC   D2A 6856  32.199  43.854   8.264
  261POPC   C3A 6857  32.243  43.845   7.964
  261POPC   C4A 6858  32.279  43.839   7.664
  261POPC   C1B 6859  32.288  44.079   8.564
  261POPC   C2B 6860  32.310  44.116   8.264
  261POPC   C3B 6861  32.375  44.164   7.964
  261POPC   C4B 6862  32.373  44.089   7.664
  262POPC   NC3 6863   9.006  35.366   9.464
  262POPC   PO4 6864   8.963  35.313   9.164
  262POPC   GL1 6865   8.923  35.331   8.864
  262POPC   GL2 6866   8.921  35.209   8.864
  262POPC   C1A 6867   8.942  35.338   8.564
  262POPC   D2A 6868   8.930  35.328   8.264
  262POPC   C3A 6869   8.998  35.359   7.964
  262POPC   C4A 6870   8.979  35.401   7.664
  262POPC   C1B 6871   8.919  35.102   8.564
  262POPC   C2B 6872   8.848  35.109   8.264
  262POPC   C3B 6873   8.862  35.150   7.964
  262POPC   C4B 6874   8.851  35.155   7.664
  263POPC   NC3 6875  31.491   1.969   9.464
  263POPC   PO4 6876  31.506   2.030   9.164
  263POPC   GL1 6877  31.514   1.986   8.864
  263POPC   GL2 6878  31.368   1.922   8.864
  263POPC   C1A 6879  31.497   1.991   8.564
  263POPC   D2A 6880  31.448   1.976   8.264
  263POPC   C3A 6881  31.458   1.979   7.964
  263POPC   C4A 6882  31.464   1.967   7.664
  263POPC   C1B 6883  31.286   1.925   8.564
  263POPC   C2B 6884  31.268   1.856   8.264
  263POPC   C3B 6885  31.283   1.906   7.964
  263POPC   C4B 6886  31.216   1.862   7.664
  264POPC   NC3 6887  21.363   7.420   9.464
  264POPC   PO4 6888  21.346   7.452   9.164
  264POPC   GL1 6889  21.380   7.392   8.864
  264POPC   GL2 6890  21.291   7.311   8.864
  264POPC   C1A 6891  21.421   7.416   8.564
  264POPC   D2A 6892  21.416   7.445   8.264
  264POPC   C3A 6893  21.383   7.398   7.964
  264POPC   C4A 6894  21.402   7.412   7.664
  264POPC   C1B 6895  21.137   7.326   8.564
  264POPC   C2B 6896  21.128   7.263   8.264
  264POPC   C3B 6897  21.144   7.338   7.964
  264POPC   C4B 6898  21.144   7.333   7.664
  265POPC   NC3 6899  13.653  15.986   9.464
  265POPC   PO4 6900  13.662  15.910   9.164
  265POPC   GL1 6901  13.676  15.935   8.864
  265POPC   GL2 6902  13.511  16.054   8.864
  265POPC   C1A 6903  13.605  15.991   8.564
  265POPC   D2A 6904  13.608  15.928   8.264
  265POPC   C3A 6905  13.622  15.999   7.964
  265POPC   C4A 6906  13.670  15.977   7.664
  265POPC   C1B 6907  13.456  16.176   8.564
  265POPC   C2B 6908  13.407  16.143   8.264
  265POPC   C3B 6909  13.432  16.166   7.964
  265POPC   C4B 6910  13.492  16.176   7.664
  266POPC   NC3 6911  10.523  19.099   9.464
  266POPC   PO4 6912  10.505  19.074   9.164
  266POPC   GL1 6913  10.558  19.063   8.864
  266POPC   GL2 6914  10.516  18.985   8.864
  266POPC   C1A 6915  10.570  19.074   8.564
  266POPC   D2A 6916  10.568  19.041   8.264
  266POPC   C3A 6917  10.490  19.099   7.964
  266POPC   C4A 6918  10.484  19.063   7.664
  266POPC   C1B 6919  10.483  18.781   8.564
  266POPC   C2B 6920  10.454  18.825   8.264
  266POPC   C3B 6921  10.414  18.783   7.964
  266POPC   C4B 6922  10.400  18.846   7.664
  267POPC   NC3 6923  35.383  37.687   9.464
  267POPC   PO4 6924  35.392  37.695   9.164
  267POPC   GL1 6925  35.302  37.701   8.864
  267POPC   GL2 6926  35.385  37.797   8.864
  267POPC   C1A 6927  35.391  37.707   8.564
  267POPC   D2A 6928  35.394  37.680   8.264
  267POPC   C3A 6929  35.352  37.645   7.964
  267POPC   C4A 6930  35.391  37.727   7.664
  267POPC   C1B 6931  35.409  37.893   8.564
  267POPC   C2B 6932  35.480  37.873   8.264
  267POPC   C3B 6933  35.418  37.944   7.964
  267POPC   C4B 6934  35.496  37.908   7.664
  268POPC   NC3 6935   9.712  18.235   9.464
  268POPC   PO4 6936   9.708  18.331   9.164
  268POPC   GL1 6937   9.706  18.305   8.864
  268POPC   GL2 6938   9.671  18.321   8.864
  268POPC   C1A 6939   9.731  18.311   8.564
  268POPC   D2A 6940   9.728  18.313   8.264
  268POPC   C3A 6941   9.736  18.238   7.964
  268POPC   C4A 6942   9.734  18.317   7.664
  268POPC   C1B 6943   9.530  18.275   8.564
  268POPC   C2B 6944   9.514  18.373   8.264
  268POPC   C3B 6945   9.480  18.348   7.964
  268POPC   C4B 6946   9.526  18.311   7.664
  269POPC   NC3 6947  29.116  15.140   9.464
  269POPC   PO4 6948  29.124  15.166   9.164
  269POPC   GL1 6949  29.152  15.144   8.864
  269POPC   GL2 6950  29.079  15.199   8.864
  269POPC   C1A 6951  29.116  15.212   8.564
  269POPC   D2A 6952  29.149  15.205   8.264
  269POPC   C3A 6953  29.121  15.165   7.964
  269POPC   C4A 6954  29.133  15.208   7.664
  269POPC   C1B 6955  28.971  15.331   8.564
  269POPC   C2B 6956  28.936  15.360   8.264
  269POPC   C3B 6957  28.896  15.277   7.964
  269POPC   C4B 6958  28.938  15.338   7.664
  270POPC   NC3 6959  27.615   1.993   9.464
  270POPC   PO4 6960  27.606   2.019   9.164
  270POPC   GL1 6961  27.577   1.948   8.864
  270POPC   GL2 6962  27.621   2.099   8.864
  270POPC   C1A 6963  27.640   1.947   8.564
  270POPC   D2A 6964  27.642   1.955   8.264
  270POPC   C3A 6965  27.600   2.030   7.964
  270POPC   C4A 6966  27.565   1.943   7.664
  270POPC   C1B 6967  27.719   2.242   8.564
  270POPC   C2B 6968  27.642   2.236   8.264
  270POPC   C3B 6969  27.714   2.271   7.964
  270POPC   C4B 6970  27.641   2.266   7.664
  271POPC   NC3 6971   8.969  15.146   9.464
  271POPC   PO4 6972   8.943  15.176   9.164
  271POPC   GL1 6973   8.991  15.218   8.864
  271POPC   GL2 6974   8.990  15.256   8.864
  271POPC   C1A 6975   8.956  15.227   8.564
  271POPC   D2A 6976   9.008  15.149   8.264
  271POPC   C3A 6977   8.923  15.141   7.964
  271POPC   C4A 6978   8.932  15.154   7.664
  271POPC   C1B 6979   8.981  15.395   8.564
  271POPC   C2B 6980   8.953  15.416   8.264
  271POPC   C3B 6981   8.924  15.436   7.964
  271POPC   C4B 6982   8.909  15.395   7.664
  272POPC   NC3 6983  33.020  18.264   9.464
  272POPC   PO4 6984  33.025  18.323   9.164
  272POPC   GL1 6985  32.987  18.313   8.864
  272POPC   GL2 6986  33.121  18.267   8.864
  272POPC   C1A 6987  32.994  18.328   8.564
  272POPC   D2A 6988  33.002  18.325   8.264
  272POPC   C3A 6989  33.038  18.289   7.964
  272POPC   C4A 6990  32.992  18.284   7.664
  272POPC   C1B 6991  33.267  18.299   8.564
  272POPC   C2B 6992  33.288  18.323   8.264
  272POPC   C3B 6993  33.306  18.317   7.964
  272POPC   C4B 6994  33.228  18.274   7.664
  273POPC   NC3 6995  15.224  23.756   9.464
  273POPC   PO4 6996  15.169  23.727   9.164
  273POPC   GL1 6997  15.198  23.689   8.864
  273POPC   GL2 6998  15.289  23.770   8.864
  273POPC   C1A 6999  15.225  23.713   8.564
  273POPC   D2A 7000  15.152  23.708   8.264
  273POPC   C3A 7001  15.184  23.759   7.964
  273POPC   C4A 7002  15.194  23.686   7.664
  273POPC   C1B 7003  15.451  23.804   8.564
  273POPC   C2B 7004  15.458  23.835   8.264
  273POPC   C3B 7005  15.455  23.744   7.964
  273POPC   C4B 7006  15.393  23.751   7.664
  274POPC   NC3 7007   7.458  18.317   9.464
  274POPC   PO4 7008   7.411  18.250   9.164
  274POPC   GL1 7009   7.412  18.303   8.864
  274POPC   GL2 7010   7.507  18.304   8.864
  274POPC   C1A 7011   7.452  18.270   8.564
  274POPC   D2A 7012   7.434  18.305   8.264
  274POPC   C3A 7013   7.417  18.267   7.964
  274POPC   C4A 7014   7.385  18.257   7.664
  274POPC   C1B 7015   7.616  18.356   8.564
  274POPC   C2B 7016   7.662  18.407   8.264
  274POPC   C3B 7017   7.655  18.352   7.964
  274POPC   C4B 7018   7.624  18.362   7.664
  275POPC   NC3 7019  29.873  12.049   9.464
  275POPC   PO4 7020  29.883  12.096   9.164
  275POPC   GL1 7021  29.950  12.072   8.864
  275POPC   GL2 7022  29.904  12.232   8.864
  275POPC   C1A 7023  29.899  12.029   8.564
  275POPC   D2A 7024  29.914  12.045   8.264
  275POPC   C3A 7025  29.967  12.100   7.964
  275POPC   C4A 7026  29.877  12.108   7.664
  275POPC   C1B 7027  29.896  12.351   8.564
  275POPC   C2B 7028  29.916  12.335   8.264
  275POPC   C3B 7029  29.911  12.316   7.964
  275POPC   C4B 7030  29.887  12.308   7.664
  276POPC   NC3 7031  32.981  24.479   9.464
  276POPC   PO4 7032  33.055  24.474   9.164
  276POPC   GL1 7033  33.020  24.441   8.864
  276POPC   GL2 7034  32.926  24.563   8.864
  276POPC   C1A 7035  33.048  24.474   8.564
  276POPC   D2A 7036  33.030  24.527   8.264
  276POPC   C3A 7037  33.024  24.511   7.964
  276POPC   C4A 7038  33.004  24.536   7.664
  276POPC   C1B 7039  32.799  24.607   8.564
  276POPC   C2B 7040  32.836  24.691   8.264
  276POPC   C3B 7041  32.852  24.667   7.964
  276POPC   C4B 7042  32.819  24.655   7.664
  277POPC   NC3 7043   4.330  39.994   9.464
  277POPC   PO4 7044   4.302  40.043   9.164
  277POPC   GL1 7045   4.350  39.957   8.864
  277POPC   GL2 7046   4.256  40.148   8.864
  277POPC   C1A 7047   4.286  40.038   8.564
  277POPC   D2A 7048   4.313  39.982   8.264
  277POPC   C3A 7049   4.346  39.990   7.964
  277POPC   C4A 7050   4.314  39.987   7.664
  277POPC   C1B 7051   4.292  40.265   8.564
  277POPC   C2B 7052   4.252  40.207   8.264
  277POPC   C3B 7053   4.301  40.205   7.964
  277POPC   C4B 7054   4.210  40.293   7.664
  278POPC   NC3 7055  42.362  42.381   9.464
  278POPC   PO4 7056  42.343  42.336   9.164
  278POPC   GL1 7057  42.345  42.346   8.864
  278POPC   GL2 7058  42.264  42.449   8.864
  278POPC   C1A 7059  42.325  42.287   8.564
  278POPC   D2A 7060  42.383  42.322   8.264
  278POPC   C3A 7061  42.294  42.327   7.964
  278POPC   C4A 7062  42.285  42.327   7.664
  278POPC   C1B 7063  42.153  42.462   8.564
  278POPC   C2B 7064  42.130  42.520   8.264
  278POPC   C3B 7065  42.137  42.523   7.964
  278POPC   C4B 7066  42.108  42.486   7.664
  279POPC   NC3 7067  17.475  26.840   9.464
  279POPC   PO4 7068  17.495  26.841   9.164
  279POPC   GL1 7069  17.543  26.778   8.864
  279POPC   GL2 7070  17.596  26.830   8.864
  279POPC   C1A 7071  17.505  26.781   8.564
  279POPC   D2A 7072  17.536  26.790   8.264
  279POPC   C3A 7073  17.504  26.825   7.964
  279POPC   C4A 7074  17.471  26.772   7.664
  279POPC   C1B 7075  17.751  26.832   8.564
  279POPC   C2B 7076  17.730  26.814   8.264
  279POPC   C3B 7077  17.727  26.814   7.964
  279POPC   C4B 7078  17.794  26.833   7.664
  280POPC   NC3 7079  39.223  33.800   9.464
  280POPC   PO4 7080  39.264  33.750   9.164
  280POPC   GL1 7081  39.279  33.795   8.864
  280POPC   GL2 7082  39.178  33.906   8.864
  280POPC   C1A 7083  39.280  33.811   8.564
  280POPC   D2A 7084  39.240  33.840   8.264
  280POPC   C3A 7085  39.248  33.761   7.964
  280POPC   C4A 7086  39.230  33.800   7.664
  280POPC   C1B 7087  39.077  33.925   8.564
  280POPC   C2B 7088  39.013  33.972   8.264
  280POPC   C3B 7089  39.002  33.899   7.964
  280POPC   C4B 7090  39.007  33.955   7.664
  281POPC   NC3 7091  31.493  29.940   9.464
  281POPC   PO4 7092  31.521  29.896   9.164
  281POPC   GL1 7093  31.433  29.956   8.864
  281POPC   GL2 7094  31.358  29.867   8.864
  281POPC   C1A 7095  31.521  29.934   8.564
  281POPC   D2A 7096  31.450  29.911   8.264
  281POPC   C3A 7097  31.444  29.892   7.964
  281POPC   C4A 7098  31.472  29.886   7.664
  281POPC   C1B 7099  31.238  29.789   8.564
  281POPC   C2B 7100  31.307  29.829   8.264
  281POPC   C3B 7101  31.243  29.732   7.964
  281POPC   C4B 7102  31.235  29.763   7.664
  282POPC   NC3 7103  29.107  39.195   9.464
  282POPC   PO4 7104  29.195  39.228   9.164
  282POPC   GL1 7105  29.151  39.189   8.864
  282POPC   GL2 7106  29.032  39.175   8.864
  282POPC   C1A 7107  29.118  39.271   8.564
  282POPC   D2A 7108  29.143  39.279   8.264
  282POPC   C3A 7109  29.116  39.266   7.964
  282POPC   C4A 7110  29.141  39.202   7.664
  282POPC   C1B 7111  29.027  38.993   8.564
  282POPC   C2B 7112  28.973  39.059   8.264
  282POPC   C3B 7113  28.962  38.974   7.964
  282POPC   C4B 7114  28.980  38.977   7.664
  283POPC   NC3 7115  19.048  32.997   9.464
  283POPC   PO4 7116  19.042  33.009   9.164
  283POPC   GL1 7117  19.049  33.065   8.864
  283POPC   GL2 7118  19.095  33.186   8.864
  283POPC   C1A 7119  19.096  33.007   8.564
  283POPC   D2A 7120  19.090  33.065   8.264
  283POPC   C3A 7121  19.107  33.023   7.964
  283POPC   C4A 7122  19.069  33.026   7.664
  283POPC   C1B 7123  19.139  33.273   8.564
  283POPC   C2B 7124  19.114  33.313   8.264
  283POPC   C3B 7125  19.122  33.237   7.964
  283POPC   C4B 7126  19.131  33.278   7.664
  284POPC   NC3 7127  15.966  12.052   9.464
  284POPC   PO4 7128  15.912  12.060   9.164
  284POPC   GL1 7129  15.994  12.043   8.864
  284POPC   GL2 7130  16.079  12.033   8.864
  284POPC   C1A 7131  15.955  12.101   8.564
  284POPC   D2A 7132  15.935  12.044   8.264
  284POPC   C3A 7133  15.958  12.064   7.964
  284POPC   C4A 7134  15.954  12.053   7.664
  284POPC   C1B 7135  16.182  11.908   8.564
  284POPC   C2B 7136  16.155  11.880   8.264
  284POPC   C3B 7137  16.099  11.942   7.964
  284POPC   C4B 7138  16.159  11.898   7.664
  285POPC   NC3 7139  20.587   2.037   9.464
  285POPC   PO4 7140  20.635   1.959   9.164
  285POPC   GL1 7141  20.563   1.947   8.864
  285POPC   GL2 7142  20.635   1.820   8.864
  285POPC   C1A 7143  20.651   1.956   8.564
  285POPC   D2A 7144  20.569   1.995   8.264
  285POPC   C3A 7145  20.611   2.012   7.964
  285POPC   C4A 7146  20.607   1.963   7.664
  285POPC   C1B 7147  20.602   1.748   8.564
  285POPC   C2B 7148  20.613   1.746   8.264
  285POPC   C3B 7149  20.617   1.694   7.964
  285POPC   C4B 7150  20.616   1.761   7.664
  286POPC   NC3 7151  33.062  36.159   9.464
  286POPC   PO4 7152  33.059  36.124   9.164
  286POPC   GL1 7153  33.004  36.168   8.864
  286POPC   GL2 7154  33.066  35.982   8.864
  286POPC   C1A 7155  33.036  36.111   8.564
  286POPC   D2A 7156  33.019  36.097   8.264
  286POPC   C3A 7157  33.003  36.089   7.964
  286POPC   C4A 7158  33.000  36.085   7.664
  286POPC   C1B 7159  32.999  35.927   8.564
  286POPC   C2B 7160  33.061  35.841   8.264
  286POPC   C3B 7161  33.074  35.902   7.964
  286POPC   C4B 7162  33.026  35.887   7.664
  287POPC   NC3 7163  17.546  13.664   9.464
  287POPC   PO4 7164  17.492  13.591   9.164
  287POPC   GL1 7165  17.554  13.641   8.864
  287POPC   GL2 7166  17.455  13.712   8.864
  287POPC   C1A 7167  17.469  13.587   8.564
  287POPC   D2A 7168  17.491  13.615   8.264
  287POPC   C3A 7169  17.466  13.649   7.964
  287POPC   C4A 7170  17.505  13.580   7.664
  287POPC   C1B 7171  17.458  13.907   8.564
  287POPC   C2B 7172  17.449  13.827   8.264
  287POPC   C3B 7173  17.463  13.906   7.964
  287POPC   C4B 7174  17.447  13.829   7.664
  288POPC   NC3 7175  33.771  27.641   9.464
  288POPC   PO4 7176  33.798  27.609   9.164
  288POPC   GL1 7177  33.846  27.580   8.864
  288POPC   GL2 7178  33.653  27.679   8.864
  288POPC   C1A 7179  33.835  27.607   8.564
  288POPC   D2A 7180  33.773  27.629   8.264
  288POPC   C3A 7181  33.790  27.613   7.964
  288POPC   C4A 7182  33.762  27.608   7.664
  288POPC   C1B 7183  33.541  27.770   8.564
  288POPC   C2B 7184  33.548  27.746   8.264
  288POPC   C3B 7185  33.541  27.714   7.964
  288POPC   C4B 7186  33.624  27.725   7.664
  289POPC   NC3 7187  44.669  33.060   9.464
  289POPC   PO4 7188  44.612  33.063   9.164
  289POPC   GL1 7189  44.652  32.993   8.864
  289POPC   GL2 7190  44.596  32.927   8.864
  289POPC   C1A 7191  44.615  32.979   8.564
  289POPC   D2A 7192  44.629  33.016   8.264
  289POPC   C3A 7193  44.675  33.050   7.964
  289POPC   C4A 7194  44.618  33.029   7.664
  289POPC   C1B 7195  44.448  32.848   8.564
  289POPC   C2B 7196  44.462  32.892   8.264
  289POPC   C3B 7197  44.465  32.892   7.964
  289POPC   C4B 7198  44.496  32.850   7.664
  290POPC   NC3 7199  43.903  17.494   9.464
  290POPC   PO4 7200  43.861  17.457   9.164
  290POPC   GL1 7201  43.896  17.539   8.864
  290POPC   GL2 7202  43.734  17.519   8.864
  290POPC   C1A 7203  43.874  17.542   8.564
  290POPC   D2A 7204  43.894  17.548   8.264
  290POPC   C3A 7205  43.928  17.493   7.964
  290POPC   C4A 7206  43.927  17.472   7.664
  290POPC   C1B 7207  43.609  17.545   8.564
  290POPC   C2B 7208  43.670  17.604   8.264
  290POPC   C3B 7209  43.617  17.610   7.964
  290POPC   C4B 7210  43.655  17.569   7.664
  291POPC   NC3 7211  27.623  31.512   9.464
  291POPC   PO4 7212  27.628  31.480   9.164
  291POPC   GL1 7213  27.548  31.464   8.864
  291POPC   GL2 7214  27.589  31.379   8.864
  291POPC   C1A 7215  27.585  31.429   8.564
  291POPC   D2A 7216  27.618  31.427   8.264
  291POPC   C3A 7217  27.562  31.480   7.964
  291POPC   C4A 7218  27.558  31.430   7.664
  291POPC   C1B 7219  27.607  31.242   8.564
  291POPC   C2B 7220  27.693  31.182   8.264
  291POPC   C3B 7221  27.682  31.200   7.964
  291POPC   C4B 7222  27.607  31.236   7.664
  292POPC   NC3 7223  39.269   8.996   9.464
  292POPC   PO4 7224  39.234   9.022   9.164
  292POPC   GL1 7225  39.238   8.950   8.864
  292POPC   GL2 7226  39.165   9.041   8.864
  292POPC   C1A 7227  39.203   8.954   8.564
  292POPC   D2A 7228  39.241   8.976   8.264
  292POPC   C3A 7229  39.250   8.970   7.964
  292POPC   C4A 7230  39.251   8.944   7.664
  292POPC   C1B 7231  39.073   9.153   8.564
  292POPC   C2B 7232  39.108   9.155   8.264
  292POPC   C3B 7233  39.095   9.183   7.964
  292POPC   C4B 7234  39.152   9.226   7.664
  293POPC   NC3 7235  18.243  41.518   9.464
  293POPC   PO4 7236  18.251  41.584   9.164
  293POPC   GL1 7237  18.276  41.584   8.864
  293POPC   GL2 7238  18.335  41.642   8.864
  293POPC   C1A 7239  18.271  41.592   8.564
  293POPC   D2A 7240  18.241  41.548   8.264
  293POPC   C3A 7241  18.326  41.580   7.964
  293POPC   C4A 7242  18.247  41.605   7.664
  293POPC   C1B 7243  18.444  41.785   8.564
  293POPC   C2B 7244  18.418  41.756   8.264
  293POPC   C3B 7245  18.430  41.765   7.964
  293POPC   C4B 7246  18.393  41.804   7.664
  294POPC   NC3 7247   1.971  32.252   9.464
  294POPC   PO4 7248   1.980  32.244   9.164
  294POPC   GL1 7249   1.972  32.237   8.864
  294POPC   GL2 7250   2.118  32.243   8.864
  294POPC   C1A 7251   1.958  32.200   8.564
  294POPC   D2A 7252   1.999  32.244   8.264
  294POPC   C3A 7253   1.949  32.296   7.964
  294POPC   C4A 7254   1.993  32.262   7.664
  294POPC   C1B 7255   2.249  32.222   8.564
  294POPC   C2B 7256   2.222  32.296   8.264
  294POPC   C3B 7257   2.272  32.215   7.964
  294POPC   C4B 7258   2.223  32.209   7.664
  295POPC   NC3 7259  10.546   9.701   9.464
  295POPC   PO4 7260  10.563   9.787   9.164
  295POPC   GL1 7261  10.524   9.787   8.864
  295POPC   GL2 7262  10.595   9.823   8.864
  295POPC   C1A 7263  10.535   9.737   8.564
  295POPC   D2A 7264  10.566   9.779   8.264
  295POPC   C3A 7265  10.501   9.742   7.964
  295POPC   C4A 7266  10.557   9.704   7.664
  295POPC   C1B 7267  10.674   9.865   8.564
  295POPC   C2B 7268  10.767   9.943   8.264
  295POPC   C3B 7269  10.712   9.947   7.964
  295POPC   C4B 7270  10.724   9.900   7.664
  296POPC   NC3 7271  40.032  19.794   9.464
  296POPC   PO4 7272  40.013  19.793   9.164
  296POPC   GL1 7273  39.992  19.787   8.864
  296POPC   GL2 7274  39.929  19.746   8.864
  296POPC   C1A 7275  40.034  19.831   8.564
  296POPC   D2A 7276  40.029  19.876   8.264
  296POPC   C3A 7277  39.961  19.847   7.964
  296POPC   C4A 7278  39.957  19.860   7.664
  296POPC   C1B 7279  39.780  19.665   8.564
  296POPC   C2B 7280  39.811  19.652   8.264
  296POPC   C3B 7281  39.834  19.694   7.964
  296POPC   C4B 7282  39.819  19.736   7.664
  297POPC   NC3 7283   9.765  39.267   9.464
  297POPC   PO4 7284   9.781  39.220   9.164
  297POPC   GL1 7285   9.773  39.231   8.864
  297POPC   GL2 7286   9.665  39.343   8.864
  297POPC   C1A 7287   9.734  39.228   8.564
  297POPC   D2A 7288   9.758  39.256   8.264
  297POPC   C3A 7289   9.723  39.197   7.964
  297POPC   C4A 7290   9.794  39.272   7.664
  297POPC   C1B 7291   9.667  39.480   8.564
  297POPC   C2B 7292   9.619  39.428   8.264
  297POPC   C3B 7293   9.619  39.414   7.964
  297POPC   C4B 7294   9.639  39.435   7.664
  298POPC   NC3 7295  43.905  18.300   9.464
  298POPC   PO4 7296  43.856  18.323   9.164
  298POPC   GL1 7297  43.913  18.323   8.864
  298POPC   GL2 7298  43.969  18.181   8.864
  298POPC   C1A 7299  43.921  18.319   8.564
  298POPC   D2A 7300  43.934  18.319   8.264
  298POPC   C3A 7301  43.842  18.265   7.964
  298POPC   C4A 7302  43.849  18.256   7.664
  298POPC   C1B 7303  44.030  18.090   8.564
  298POPC   C2B 7304  44.083  18.044   8.264
  298POPC   C3B 7305  44.031  18.105   7.964
  298POPC   C4B 7306  43.996  18.047   7.664
  299POPC   NC3 7307  24.512  19.035   9.464
  299POPC   PO4 7308  24.446  19.078   9.164
  299POPC   GL1 7309  24.537  19.009   8.864
  299POPC   GL2 7310  24.581  19.172   8.864
  299POPC   C1A 7311  24.467  19.070   8.564
  299POPC   D2A 7312  24.458  19.018   8.264
  299POPC   C3A 7313  24.454  19.018   7.964
  299POPC   C4A 7314  24.464  19.033   7.664
  299POPC   C1B 7315  24.612  19.263   8.564
  299POPC   C2B 7316  24.602  19.245   8.264
  299POPC   C3B 7317  24.612  19.280   7.964
  299POPC   C4B 7318  24.668  19.290   7.664
  300POPC   NC3 7319  13.666   5.829   9.464
  300POPC   PO4 7320  13.613   5.832   9.164
  300POPC   GL1 7321  13.633   5.882   8.864
  300POPC   GL2 7322  13.657   5.727   8.864
  300POPC   C1A 7323  13.641   5.838   8.564
  300POPC   D2A 7324  13.591   5.833   8.264
  300POPC   C3A 7325  13.666   5.897   7.964
  300POPC   C4A 7326  13.650   5.821   7.664
  300POPC   C1B 7327  13.742   5.609   8.564
  300POPC   C2B 7328  13.745   5.650   8.264
  300POPC   C3B 7329  13.733   5.623   7.964
  300POPC   C4B 7330  13.743   5.664   7.664
  301POPC   NC3 7331  12.093  12.869   9.464
  301POPC   PO4 7332  12.120  12.843   9.164
  301POPC   GL1 7333  12.086  12.896   8.864
  301POPC   GL2 7334  12.177  12.949   8.864
  301POPC   C1A 7335  12.029  12.866   8.564
  301POPC   D2A 7336  12.039  12.811   8.264
  301POPC   C3A 7337  12.109  12.821   7.964
  301POPC   C4A 7338  12.033  12.895   7.664
  301POPC   C1B 7339  12.313  12.989   8.564
  301POPC   C2B 7340  12.344  12.927   8.264
  301POPC   C3B 7341  12.260  12.905   7.964
  301POPC   C4B 7342  12.316  12.985   7.664
  302POPC   NC3 7343  40.733  36.142   9.464
  302POPC   PO4 7344  40.757  36.140   9.164
  302POPC   GL1 7345  40.799  36.142   8.864
  302POPC   GL2 7346  40.905  36.080   8.864
  302POPC   C1A 7347  40.735  36.141   8.564
  302POPC   D2A 7348  40.797  36.117   8.264
  302POPC   C3A 7349  40.827  36.094   7.964
  302POPC   C4A 7350  40.830  36.155   7.664
  302POPC   C1B 7351  40.908  35.907   8.564
  302POPC   C2B 7352  40.932  35.925   8.264
  302POPC   C3B 7353  40.984  35.967   7.964
  302POPC   C4B 7354  40.947  35.976   7.664
  303POPC   NC3 7355  21.357  34.594   9.464
  303POPC   PO4 7356  21.348  34.545   9.164
  303POPC   GL1 7357  21.356  34.599   8.864
  303POPC   GL2 7358  21.280  34.570   8.864
  303POPC   C1A 7359  21.357  34.526   8.564
  303POPC   D2A 7360  21.423  34.540   8.264
  303POPC   C3A 7361  21.354  34.605   7.964
  303POPC   C4A 7362  21.350  34.604   7.664
  303POPC   C1B 7363  21.101  34.588   8.564
  303POPC   C2B 7364  21.153  34.646   8.264
  303POPC   C3B 7365  21.164  34.605   7.964
  303POPC   C4B 7366  21.116  34.678   7.664
  304POPC   NC3 7367   9.760  17.524   9.464
  304POPC   PO4 7368   9.736  17.533   9.164
  304POPC   GL1 7369   9.739  17.469   8.864
  304POPC   GL2 7370   9.629  17.551   8.864
  304POPC   C1A 7371   9.735  17.484   8.564
  304POPC   D2A 7372   9.709  17.518   8.264
  304POPC   C3A 7373   9.767  17.503   7.964
  304POPC   C4A 7374   9.710  17.463   7.664
  304POPC   C1B 7375   9.523  17.559   8.564
  304POPC   C2B 7376   9.545  17.624   8.264
  304POPC   C3B 7377   9.516  17.597   7.964
  304POPC   C4B 7378   9.500  17.575   7.664
  305POPC   NC3 7379   1.176  18.286   9.464
  305POPC   PO4 7380   1.171  18.331   9.164
  305POPC   GL1 7381   1.253  18.241   8.864
  305POPC   GL2 7382   1.079  18.346   8.864
  305POPC   C1A 7383   1.205  18.312   8.564
  305POPC   D2A 7384   1.181  18.295   8.264
  305POPC   C3A 7385   1.222  18.282   7.964
  305POPC   C4A 7386   1.170  18.251   7.664
  305POPC   C1B 7387   0.924  18.348   8.564
  305POPC   C2B 7388   0.970  18.359   8.264
  305POPC   C3B 7389   1.001  18.338   7.964
  305POPC   C4B 7390   0.991  18.311   7.664
  306POPC   NC3 7391  30.664  18.330   9.464
  306POPC   PO4 7392  30.662  18.295   9.164
  306POPC   GL1 7393  30.661  18.283   8.864
  306POPC   GL2 7394  30.598  18.401   8.864
  306POPC   C1A 7395  30.724  18.324   8.564
  306POPC   D2A 7396  30.739  18.304   8.264
  306POPC   C3A 7397  30.696  18.261   7.964
  306POPC   C4A 7398  30.657  18.330   7.664
  306POPC   C1B 7399  30.535  18.465   8.564
  306POPC   C2B 7400  30.487  18.398   8.264
  306POPC   C3B 7401  30.489  18.404   7.964
  306POPC   C4B 7402  30.466  18.477   7.664
  307POPC   NC3 7403  32.237  12.814   9.464
  307POPC   PO4 7404  32.223  12.803   9.164
  307POPC   GL1 7405  32.247  12.826   8.864
  307POPC   GL2 7406  32.174  12.848   8.864
  307POPC   C1A 7407  32.270  12.839   8.564
  307POPC   D2A 7408  32.228  12.882   8.264
  307POPC   C3A 7409  32.235  12.816   7.964
  307POPC   C4A 7410  32.247  12.877   7.664
  307POPC   C1B 7411  31.958  12.840   8.564
  307POPC   C2B 7412  31.955  12.807   8.264
  307POPC   C3B 7413  32.035  12.830   7.964
  307POPC   C4B 7414  32.029  12.844   7.664
  308POPC   NC3 7415  26.000  26.058   9.464
  308POPC   PO4 7416  26.063  26.061   9.164
  308POPC   GL1 7417  26.006  26.088   8.864
  308POPC   GL2 7418  26.057  26.118   8.864
  308POPC   C1A 7419  25.992  26.018   8.564
  308POPC   D2A 7420  25.998  26.008   8.264
  308POPC   C3A 7421  26.013  26.006   7.964
  308POPC   C4A 7422  26.025  26.081   7.664
  308POPC   C1B 7423  26.130  26.272   8.564
  308POPC   C2B 7424  26.170  26.214   8.264
  308POPC   C3B 7425  26.165  26.232   7.964
  308POPC   C4B 7426  26.123  26.219   7.664
  309POPC   NC3 7427  22.149  17.532   9.464
  309POPC   PO4 7428  22.151  17.513   9.164
  309POPC   GL1 7429  22.169  17.510   8.864
  309POPC   GL2 7430  22.284  17.597   8.864
  309POPC   C1A 7431  22.124  17.532   8.564
  309POPC   D2A 7432  22.148  17.499   8.264
  309POPC   C3A 7433  22.132  17.497   7.964
  309POPC   C4A 7434  22.188  17.530   7.664
  309POPC   C1B 7435  22.307  17.665   8.564
  309POPC   C2B 7436  22.350  17.659   8.264
  309POPC   C3B 7437  22.351  17.623   7.964
  309POPC   C4B 7438  22.333  17.683   7.664
  310POPC   NC3 7439   5.130  27.617   9.464
  310POPC   PO4 7440   5.110  27.556   9.164
  310POPC   GL1 7441   5.045  27.574   8.864
  310POPC   GL2 7442   5.031  27.510   8.864
  310POPC   C1A 7443   5.110  27.561   8.564
  310POPC   D2A 7444   5.104  27.611   8.264
  310POPC   C3A 7445   5.077  27.609   7.964
  310POPC   C4A 7446   5.088  27.571   7.664
  310POPC   C1B 7447   5.083  27.322   8.564
  310POPC   C2B 7448   5.099  27.314   8.264
  310POPC   C3B 7449   5.023  27.296   7.964
  310POPC   C4B 7450   5.087  27.363   7.664
  311POPC   NC3 7451   8.949   2.801   9.464
  311POPC   PO4 7452   8.959   2.750   9.164
  311POPC   GL1 7453   8.975   2.760   8.864
  311POPC   GL2 7454   8.943   2.621   8.864
  311POPC   C1A 7455   8.950   2.746   8.564
  311POPC   D2A 7456   9.004   2.788   8.264
  311POPC   C3A 7457   8.997   2.739   7.964
  311POPC   C4A 7458   8.993   2.802   7.664
  311POPC   C1B 7459   8.817   2.502   8.564
  311POPC   C2B 7460   8.875   2.575   8.264
  311POPC   C3B 7461   8.805   2.571   7.964
  311POPC   C4B 7462   8.819   2.509   7.664
  312POPC   NC3 7463  22.209  11.258   9.464
  312POPC   PO4 7464  22.196  11.313   9.164
  312POPC   GL1 7465  22.164  11.291   8.864
  312POPC   GL2 7466  22.083  11.338   8.864
  312POPC   C1A 7467  22.165  11.288   8.564
  312POPC   D2A 7468  22.209  11.337   8.264
  312POPC   C3A 7469  22.171  11.289   7.964
  312POPC   C4A 7470  22.162  11.346   7.664
  312POPC   C1B 7471  21.996  11.433   8.564
  312POPC   C2B 7472  21.979  11.406   8.264
  312POPC   C3B 7473  21.967  11.480   7.964
  312POPC   C4B 7474  21.982  11.487   7.664
  313POPC   NC3 7475  18.272  28.365   9.464
  313POPC   PO4 7476  18.318  28.404   9.164
  313POPC   GL1 7477  18.277  28.374   8.864
  313POPC   GL2 7478  18.298  28.542   8.864
  313POPC   C1A 7479  18.317  28.356   8.564
  313POPC   D2A 7480  18.329  28.367   8.264
  313POPC   C3A 7481  18.327  28.336   7.964
  313POPC   C4A 7482  18.237  28.353   7.664
  313POPC   C1B 7483  18.341  28.649   8.564
  313POPC   C2B 7484  18.360  28.570   8.264
  313POPC   C3B 7485  18.288  28.608   7.964
  313POPC   C4B 7486  18.304  28.592   7.664
  314POPC   NC3 7487  13.658  12.027   9.464
  314POPC   PO4 7488  13.651  12.072   9.164
  314POPC   GL1 7489  13.609  12.074   8.864
  314POPC   GL2 7490  13.771  12.079   8.864
  314POPC   C1A 7491  13.591  12.090   8.564
  314POPC   D2A 7492  13.658  12.098   8.264
  314POPC   C3A 7493  13.592  12.119   7.964
  314POPC   C4A 7494  13.580  12.049   7.664
  314POPC   C1B 7495  13.886  12.058   8.564
  314POPC   C2B 7496  13.894  12.042   8.264
  314POPC   C3B 7497  13.908  11.988   7.964
  314POPC   C4B 7498  13.888  12.052   7.664
  315POPC   NC3 7499   5.058  41.582   9.464
  315POPC   PO4 7500   5.120  41.600   9.164
  315POPC   GL1 7501   5.052  41.526   8.864
  315POPC   GL2 7502   5.059  41.465   8.864
  315POPC   C1A 7503   5.080  41.599   8.564
  315POPC   D2A 7504   5.090  41.510   8.264
  315POPC   C3A 7505   5.130  41.567   7.964
  315POPC   C4A 7506   5.096  41.515   7.664
  315POPC   C1B 7507   4.989  41.356   8.564
  315POPC   C2B 7508   5.000  41.324   8.264
  315POPC   C3B 7509   4.994  41.308   7.964
  315POPC   C4B 7510   4.970  41.378   7.664
  316POPC   NC3 7511  26.785   9.790   9.464
  316POPC   PO4 7512  26.775   9.770   9.164
  316POPC   GL1 7513  26.782   9.766   8.864
  316POPC   GL2 7514  26.753   9.842   8.864
  316POPC   C1A 7515  26.828   9.735   8.564
  316POPC   D2A 7516  26.849   9.709   8.264
  316POPC   C3A 7517  26.808   9.788   7.964
  316POPC   C4A 7518  26.798   9.781   7.664
  316POPC   C1B 7519  26.705   9.972   8.564
  316POPC   C2B 7520  26.648   9.911   8.264
  316POPC   C3B 7521  26.652   9.914   7.964
  316POPC   C4B 7522  26.654   9.902   7.664
  317POPC   NC3 7523   8.953   1.215   9.464
  317POPC   PO4 7524   8.987   1.263   9.164
  317POPC   GL1 7525   8.947   1.200   8.864
  317POPC   GL2 7526   8.962   1.339   8.864
  317POPC   C1A 7527   9.013   1.172   8.564
  317POPC   D2A 7528   9.018   1.169   8.264
  317POPC   C3A 7529   8.956   1.224   7.964
  317POPC   C4A 7530   9.017   1.226   7.664
  317POPC   C1B 7531   8.952   1.415   8.564
  317POPC   C2B 7532   9.006   1.451   8.264
  317POPC   C3B 7533   8.966   1.427   7.964
  317POPC   C4B 7534   8.973   1.470   7.664
  318POPC   NC3 7535  43.896  11.284   9.464
  318POPC   PO4 7536  43.936  11.254   9.164
  318POPC   GL1 7537  43.838  11.340   8.864
  318POPC   GL2 7538  43.878  11.413   8.864
  318POPC   C1A 7539  43.895  11.272   8.564
  318POPC   D2A 7540  43.880  11.276   8.264
  318POPC   C3A 7541  43.902  11.313   7.964
  318POPC   C4A 7542  43.857  11.325   7.664
  318POPC   C1B 7543  43.818  11.501   8.564
  318POPC   C2B 7544  43.876  11.533   8.264
  318POPC   C3B 7545  43.869  11.591   7.964
  318POPC   C4B 7546  43.808  11.527   7.664
  319POPC   NC3 7547  33.029  28.373   9.464
  319POPC   PO4 7548  32.980  28.380   9.164
  319POPC   GL1 7549  33.016  28.400   8.864
  319POPC   GL2 7550  33.015  28.252   8.864
  319POPC   C1A 7551  33.005  28.355   8.564
  319POPC   D2A 7552  32.989  28.411   8.264
  319POPC   C3A 7553  33.057  28.410   7.964
  319POPC   C4A 7554  33.033  28.322   7.664
  319POPC   C1B 7555  32.939  28.134   8.564
  319POPC   C2B 7556  33.001  28.098   8.264
  319POPC   C3B 7557  32.981  28.094   7.964
  319POPC   C4B 7558  32.975  28.172   7.664
  320POPC   NC3 7559  11.329  29.913   9.464
  320POPC   PO4 7560  11.334  29.879   9.164
  320POPC   GL1 7561  11.281  29.956   8.864
  320POPC   GL2 7562  11.387  29.855   8.864
  320POPC   C1A 7563  11.279  29.915   8.564
  320POPC   D2A 7564  11.319  29.934   8.264
  320POPC   C3A 7565  11.254  29.890   7.964
  320POPC   C4A 7566  11.327  29.915   7.664
  320POPC   C1B 7567  11.449  29.755   8.564
  320POPC   C2B 7568  11.493  29.689   8.264
  320POPC   C3B 7569  11.497  29.765   7.964
  320POPC   C4B 7570  11.418  29.720   7.664
  321POPC   NC3 7571  17.497  37.695   9.464
  321POPC   PO4 7572  17.525  37.715   9.164
  321POPC   GL1 7573  17.486  37.630   8.864
  321POPC   GL2 7574  17.640  37.700   8.864
  321POPC   C1A 7575  17.549  37.723   8.564
  321POPC   D2A 7576  17.494  37.667   8.264
  321POPC   C3A 7577  17.541  37.646   7.964
  321POPC   C4A 7578  17.518  37.646   7.664
  321POPC   C1B 7579  17.714  37.748   8.564
  321POPC   C2B 7580  17.780  37.735   8.264
  321POPC   C3B 7581  17.743  37.752   7.964
  321POPC   C4B 7582  17.712  37.732   7.664
  322POPC   NC3 7583  42.300  12.085   9.464
  322POPC   PO4 7584  42.289  12.062   9.164
  322POPC   GL1 7585  42.326  12.085   8.864
  322POPC   GL2 7586  42.272  12.195   8.864
  322POPC   C1A 7587  42.298  12.124   8.564
  322POPC   D2A 7588  42.292  12.046   8.264
  322POPC   C3A 7589  42.291  12.064   7.964
  322POPC   C4A 7590  42.306  12.051   7.664
  322POPC   C1B 7591  42.156  12.199   8.564
  322POPC   C2B 7592  42.177  12.209   8.264
  322POPC   C3B 7593  42.117  12.265   7.964
  322POPC   C4B 7594  42.150  12.225   7.664
  323POPC   NC3 7595  34.592  11.269   9.464
  323POPC   PO4 7596  34.548  11.300   9.164
  323POPC   GL1 7597  34.532  11.270   8.864
  323POPC   GL2 7598  34.663  11.374   8.864
  323POPC   C1A 7599  34.579  11.267   8.564
  323POPC   D2A 7600  34.545  11.327   8.264
  323POPC   C3A 7601  34.531  11.306   7.964
  323POPC   C4A 7602  34.592  11.338   7.664
  323POPC   C1B 7603  34.733  11.493   8.564
  323POPC   C2B 7604  34.696  11.478   8.264
  323POPC   C3B 7605  34.649  11.543   7.964
  323POPC   C4B 7606  34.719  11.514   7.664
  324POPC   NC3 7607   6.680  11.319   9.464
  324POPC   PO4 7608   6.620  11.285   9.164
  324POPC   GL1 7609   6.602  11.348   8.864
  324POPC   GL2 7610   6.724  11.238   8.864
  324POPC   C1A 7611   6.656  11.291   8.564
  324POPC   D2A 7612   6.599  11.295   8.264
  324POPC   C3A 7613   6.603  11.318   7.964
  324POPC   C4A 7614   6.607  11.283   7.664
  324POPC   C1B 7615   6.799  11.122   8.564
  324POPC   C2B 7616   6.770  11.046   8.264
  324POPC   C3B 7617   6.814  11.049   7.964
  324POPC   C4B 7618   6.741  11.121   7.664
  325POPC   NC3 7619  29.963  15.963   9.464
  325POPC   PO4 7620  29.912  15.988   9.164
  325POPC   GL1 7621  29.957  15.925   8.864
  325POPC   GL2 7622  29.825  15.926   8.864
  325POPC   C1A 7623  29.905  15.917   8.564
  325POPC   D2A 7624  29.884  15.982   8.264
  325POPC   C3A 7625  29.900  15.908   7.964
  325POPC   C4A 7626  29.936  16.004   7.664
  325POPC   C1B 7627  29.729  15.798   8.564
  325POPC   C2B 7628  29.696  15.770   8.264
  325POPC   C3B 7629  29.761  15.840   7.964
  325POPC   C4B 7630  29.756  15.805   7.664
  326POPC   NC3 7631   2.757  15.989   9.464
  326POPC   PO4 7632   2.760  15.941   9.164
  326POPC   GL1 7633   2.735  15.953   8.864
  326POPC   GL2 7634   2.787  15.818   8.864
  326POPC   C1A 7635   2.726  15.939   8.564
  326POPC   D2A 7636   2.739  15.918   8.264
  326POPC   C3A 7637   2.781  15.942   7.964
  326POPC   C4A 7638   2.772  15.919   7.664
  326POPC   C1B 7639   2.734  15.712   8.564
  326POPC   C2B 7640   2.731  15.737   8.264
  326POPC   C3B 7641   2.748  15.725   7.964
  326POPC   C4B 7642   2.775  15.675   7.664
  327POPC   NC3 7643  35.338  26.066   9.464
  327POPC   PO4 7644  35.315  26.041   9.164
  327POPC   GL1 7645  35.389  26.069   8.864
  327POPC   GL2 7646  35.418  25.923   8.864
  327POPC   C1A 7647  35.395  26.067   8.564
  327POPC   D2A 7648  35.365  26.039   8.264
  327POPC   C3A 7649  35.308  26.015   7.964
  327POPC   C4A 7650  35.397  26.007   7.664
  327POPC   C1B 7651  35.485  25.823   8.564
  327POPC   C2B 7652  35.508  25.809   8.264
  327POPC   C3B 7653  35.528  25.892   7.964
  327POPC   C4B 7654  35.526  25.817   7.664
  328POPC   NC3 7655   0.476  39.239   9.464
  328POPC   PO4 7656   0.411  39.230   9.164
  328POPC   GL1 7657   0.422  39.194   8.864
  328POPC   GL2 7658   0.391  39.335   8.864
  328POPC   C1A 7659   0.463  39.226   8.564
  328POPC   D2A 7660   0.479  39.226   8.264
  328POPC   C3A 7661   0.436  39.219   7.964
  328POPC   C4A 7662   0.449  39.221   7.664
  328POPC   C1B 7663   0.304  39.482   8.564
  328POPC   C2B 7664   0.264  39.432   8.264
  328POPC   C3B 7665   0.325  39.491   7.964
  328POPC   C4B 7666   0.318  39.404   7.664
  329POPC   NC3 7667  15.920   4.341   9.464
  329POPC   PO4 7668  16.002   4.271   9.164
  329POPC   GL1 7669  15.938   4.277   8.864
  329POPC   GL2 7670  16.035   4.483   8.864
  329POPC   C1A 7671  15.929   4.300   8.564
  329POPC   D2A 7672  15.950   4.311   8.264
  329POPC   C3A 7673  15.968   4.272   7.964
  329POPC   C4A 7674  15.979   4.304   7.664
  329POPC   C1B 7675  16.026   4.513   8.564
  329POPC   C2B 7676  16.020   4.547   8.264
  329POPC   C3B 7677  16.060   4.519   7.964
  329POPC   C4B 7678  16.041   4.563   7.664
  330POPC   NC3 7679   8.975  16.695   9.464
  330POPC   PO4 7680   8.941  16.685   9.164
  330POPC   GL1 7681   8.990  16.700   8.864
  330POPC   GL2 7682   9.129  16.744   8.864
  330POPC   C1A 7683   8.969  16.744   8.564
  330POPC   D2A 7684   8.940  16.746   8.264
  330POPC   C3A 7685   8.929  16.732   7.964
  330POPC   C4A 7686   9.018  16.747   7.664
  330POPC   C1B 7687   9.167  16.797   8.564
  330POPC   C2B 7688   9.205  16.792   8.264
  330POPC   C3B 7689   9.166  16.858   7.964
  330POPC   C4B 7690   9.219  16.859   7.664
  331POPC   NC3 7691   5.866  43.914   9.464
  331POPC   PO4 7692   5.849  43.862   9.164
  331POPC   GL1 7693   5.839  43.885   8.864
  331POPC   GL2 7694   5.875  43.745   8.864
  331POPC   C1A 7695   5.879  43.882   8.564
  331POPC   D2A 7696   5.877  43.861   8.264
  331POPC   C3A 7697   5.879  43.888   7.964
  331POPC   C4A 7698   5.878  43.837   7.664
  331POPC   C1B 7699   5.770  43.638   8.564
  331POPC   C2B 7700   5.779  43.666   8.264
  331POPC   C3B 7701   5.824  43.645   7.964
  331POPC   C4B 7702   5.781  43.694   7.664
  332POPC   NC3 7703  20.604  37.700   9.464
  332POPC   PO4 7704  20.574  37.683   9.164
  332POPC   GL1 7705  20.599  37.650   8.864
  332POPC   GL2 7706  20.513  37.782   8.864
  332POPC   C1A 7707  20.615  37.648   8.564
  332POPC   D2A 7708  20.655  37.662   8.264
  332POPC   C3A 7709  20.605  37.651   7.964
  332POPC   C4A 7710  20.647  37.657   7.664
  332POPC   C1B 7711  20.474  37.936   8.564
  332POPC   C2B 7712  20.465  37.871   8.264
  332POPC   C3B 7713  20.525  37.948   7.964
  332POPC   C4B 7714  20.532  37.911   7.664
  333POPC   NC3 7715  43.135  43.871   9.464
  333POPC   PO4 7716  43.134  43.935   9.164
  333POPC   GL1 7717  43.081  43.874   8.864
  333POPC   GL2 7718  43.130  43.999   8.864
  333POPC   C1A 7719  43.147  43.883   8.564
  333POPC   D2A 7720  43.103  43.869   8.264
  333POPC   C3A 7721  43.156  43.868   7.964
  333POPC   C4A 7722  43.081  43.837   7.664
  333POPC   C1B 7723  43.119  44.135   8.564
  333POPC   C2B 7724  43.098  44.112   8.264
  333POPC   C3B 7725  43.105  44.132   7.964
  333POPC   C4B 7726  43.100  44.112   7.664
  334POPC   NC3 7727  25.993  42.335   9.464
  334POPC   PO4 7728  26.064  42.334   9.164
  334POPC   GL1 7729  26.032  42.365   8.864
  334POPC   GL2 7730  25.943  42.250   8.864
  334POPC   C1A 7731  26.082  42.316   8.564
  334POPC   D2A 7732  26.043  42.329   8.264
  334POPC   C3A 7733  26.018  42.287   7.964
  334POPC   C4A 7734  26.090  42.314   7.664
  334POPC   C1B 7735  25.816  42.220   8.564
  334POPC   C2B 7736  25.769  42.231   8.264
  334POPC   C3B 7737  25.858  42.258   7.964
  334POPC   C4B 7738  25.761  42.266   7.664
  335POPC   NC3 7739  42.361  17.500   9.464
  335POPC   PO4 7740  42.363  17.509   9.164
  335POPC   GL1 7741  42.351  17.461   8.864
  335POPC   GL2 7742  42.329  17.346   8.864
  335POPC   C1A 7743  42.316  17.531   8.564
  335POPC   D2A 7744  42.337  17.515   8.264
  335POPC   C3A 7745  42.337  17.492   7.964
  335POPC   C4A 7746  42.341  17.551   7.664
  335POPC   C1B 7747  42.245  17.241   8.564
  335POPC   C2B 7748  42.195  17.261   8.264
  335POPC   C3B 7749  42.251  17.308   7.964
  335POPC   C4B 7750  42.217  17.233   7.664
  336POPC   NC3 7751  15.943  26.780   9.464
  336POPC   PO4 7752  15.923  26.833   9.164
  336POPC   GL1 7753  15.944  26.822   8.864
  336POPC   GL2 7754  15.873  26.878   8.864
  336POPC   C1A 7755  15.944  26.846   8.564
  336POPC   D2A 7756  15.939  26.795   8.264
  336POPC   C3A 7757  15.988  26.796   7.964
  336POPC   C4A 7758  15.998  26.848   7.664
  336POPC   C1B 7759  15.823  27.045   8.564
  336POPC   C2B 7760  15.841  27.042   8.264
  336POPC   C3B 7761  15.808  27.055   7.964
  336POPC   C4B 7762  15.784  26.970   7.664
  337POPC   NC3 7763   7.400   9.736   9.464
  337POPC   PO4 7764   7.434   9.756   9.164
  337POPC   GL1 7765   7.470   9.745   8.864
  337POPC   GL2 7766   7.543   9.620   8.864
  337POPC   C1A 7767   7.448   9.731   8.564
  337POPC   D2A 7768   7.424   9.731   8.264
  337POPC   C3A 7769   7.421   9.776   7.964
  337POPC   C4A 7770   7.419   9.724   7.664
  337POPC   C1B 7771   7.611   9.568   8.564
  337POPC   C2B 7772   7.547   9.596   8.264
  337POPC   C3B 7773   7.586   9.517   7.964
  337POPC   C4B 7774   7.542   9.564   7.664
  338POPC   NC3 7775  11.259  13.655   9.464
  338POPC   PO4 7776  11.270  13.600   9.164
  338POPC   GL1 7777  11.275  13.605   8.864
  338POPC   GL2 7778  11.321  13.478   8.864
  338POPC   C1A 7779  11.317  13.625   8.564
  338POPC   D2A 7780  11.350  13.580   8.264
  338POPC   C3A 7781  11.314  13.632   7.964
  338POPC   C4A 7782  11.256  13.655   7.664
  338POPC   C1B 7783  11.280  13.390   8.564
  338POPC   C2B 7784  11.273  13.345   8.264
  338POPC   C3B 7785  11.244  13.335   7.964
  338POPC   C4B 7786  11.252  13.390   7.664
  339POPC   NC3 7787  10.543  28.359   9.464
  339POPC   PO4 7788  10.512  28.342   9.164
  339POPC   GL1 7789  10.546  28.401   8.864
  339POPC   GL2 7790  10.540  28.541   8.864
  339POPC   C1A 7791  10.520  28.337   8.564
  339POPC   D2A 7792  10.531  28.411   8.264
  339POPC   C3A 7793  10.505  28.339   7.964
  339POPC   C4A 7794  10.519  28.404   7.664
  339POPC   C1B 7795  10.454  28.646   8.564
  339POPC   C2B 7796  10.504  28.571   8.264
  339POPC   C3B 7797  10.474  28.570   7.964
  339POPC   C4B 7798  10.454  28.574   7.664
  340POPC   NC3 7799   8.995  34.587   9.464
  340POPC   PO4 7800   9.020  34.567   9.164
  340POPC   GL1 7801   8.959  34.571   8.864
  340POPC   GL2 7802   8.872  34.673   8.864
  340POPC   C1A 7803   9.012  34.622   8.564
  340POPC   D2A 7804   9.010  34.567   8.264
  340POPC   C3A 7805   8.924  34.560   7.964
  340POPC   C4A 7806   8.924  34.547   7.664
  340POPC   C1B 7807   8.790  34.747   8.564
  340POPC   C2B 7808   8.718  34.688   8.264
  340POPC   C3B 7809   8.789  34.684   7.964
  340POPC   C4B 7810   8.783  34.723   7.664
  341POPC   NC3 7811  18.318  34.579   9.464
  341POPC   PO4 7812  18.249  34.579   9.164
  341POPC   GL1 7813  18.294  34.592   8.864
  341POPC   GL2 7814  18.152  34.488   8.864
  341POPC   C1A 7815  18.320  34.625   8.564
  341POPC   D2A 7816  18.305  34.575   8.264
  341POPC   C3A 7817  18.252  34.614   7.964
  341POPC   C4A 7818  18.265  34.623   7.664
  341POPC   C1B 7819  18.066  34.410   8.564
  341POPC   C2B 7820  18.057  34.436   8.264
  341POPC   C3B 7821  18.048  34.456   7.964
  341POPC   C4B 7822  18.101  34.480   7.664
  342POPC   NC3 7823  33.819   0.395   9.464
  342POPC   PO4 7824  33.758   0.439   9.164
  342POPC   GL1 7825  33.845   0.467   8.864
  342POPC   GL2 7826  33.912   0.534   8.864
  342POPC   C1A 7827  33.824   0.419   8.564
  342POPC   D2A 7828  33.759   0.485   8.264
  342POPC   C3A 7829  33.797   0.448   7.964
  342POPC   C4A 7830  33.803   0.413   7.664
  342POPC   C1B 7831  33.982   0.549   8.564
  342POPC   C2B 7832  33.986   0.608   8.264
  342POPC   C3B 7833  34.049   0.616   7.964
  342POPC   C4B 7834  34.039   0.543   7.664
  343POPC   NC3 7835  10.512   5.907   9.464
  343POPC   PO4 7836  10.533   5.907   9.164
  343POPC   GL1 7837  10.567   5.890   8.864
  343POPC   GL2 7838  10.509   5.785   8.864
  343POPC   C1A 7839  10.494   5.907   8.564
  343POPC   D2A 7840  10.508   5.909   8.264
  343POPC   C3A 7841  10.529   5.878   7.964
  343POPC   C4A 7842  10.530   5.831   7.664
  343POPC   C1B 7843  10.367   5.692   8.564
  343POPC   C2B 7844  10.370   5.620   8.264
  343POPC   C3B 7845  10.403   5.673   7.964
  343POPC   C4B 7846  10.369   5.607   7.664
  344POPC   NC3 7847  15.970   5.894   9.464
  344POPC   PO4 7848  15.998   5.823   9.164
  344POPC   GL1 7849  15.929   5.897   8.864
  344POPC   GL2 7850  16.077   5.859   8.864
  344POPC   C1A 7851  15.972   5.823   8.564
  344POPC   D2A 7852  15.935   5.826   8.264
  344POPC   C3A 7853  15.999   5.866   7.964
  344POPC   C4A 7854  15.929   5.870   7.664
  344POPC   C1B 7855  16.171   5.881   8.564
  344POPC   C2B 7856  16.203   5.874   8.264
  344POPC   C3B 7857  16.245   5.811   7.964
  344POPC   C4B 7858  16.182   5.801   7.664
  345POPC   NC3 7859  29.099  29.132   9.464
  345POPC   PO4 7860  29.191  29.151   9.164
  345POPC   GL1 7861  29.130  29.168   8.864
  345POPC   GL2 7862  28.986  29.118   8.864
  345POPC   C1A 7863  29.141  29.171   8.564
  345POPC   D2A 7864  29.117  29.175   8.264
  345POPC   C3A 7865  29.187  29.193   7.964
  345POPC   C4A 7866  29.110  29.125   7.664
  345POPC   C1B 7867  28.898  29.161   8.564
  345POPC   C2B 7868  28.914  29.187   8.264
  345POPC   C3B 7869  28.855  29.193   7.964
  345POPC   C4B 7870  28.928  29.197   7.664
  346POPC   NC3 7871   0.419  30.687   9.464
  346POPC   PO4 7872   0.453  30.718   9.164
  346POPC   GL1 7873   0.466  30.657   8.864
  346POPC   GL2 7874   0.582  30.573   8.864
  346POPC   C1A 7875   0.400  30.649   8.564
  346POPC   D2A 7876   0.434  30.739   8.264
  346POPC   C3A 7877   0.468  30.716   7.964
  346POPC   C4A 7878   0.461  30.648   7.664
  346POPC   C1B 7879   0.638  30.578   8.564
  346POPC   C2B 7880   0.619  30.593   8.264
  346POPC   C3B 7881   0.646  30.568   7.964
  346POPC   C4B 7882   0.674  30.501   7.664
  347POPC   NC3 7883   5.833   5.824   9.464
  347POPC   PO4 7884   5.833   5.897   9.164
  347POPC   GL1 7885   5.833   5.826   8.864
  347POPC   GL2 7886   5.755   5.917   8.864
  347POPC   C1A 7887   5.854   5.868   8.564
  347POPC   D2A 7888   5.907   5.870   8.264
  347POPC   C3A 7889   5.902   5.881   7.964
  347POPC   C4A 7890   5.873   5.882   7.664
  347POPC   C1B 7891   5.576   5.847   8.564
  347POPC   C2B 7892   5.629   5.867   8.264
  347POPC   C3B 7893   5.592   5.922   7.964
  347POPC   C4B 7894   5.580   5.902   7.664
  348POPC   NC3 7895   5.106  13.619   9.464
  348POPC   PO4 7896   5.110  13.630   9.164
  348POPC   GL1 7897   5.129  13.611   8.864
  348POPC   GL2 7898   5.219  13.589   8.864
  348POPC   C1A 7899   5.098  13.657   8.564
  348POPC   D2A 7900   5.045  13.651   8.264
  348POPC   C3A 7901   5.095  13.606   7.964
  348POPC   C4A 7902   5.127  13.623   7.664
  348POPC   C1B 7903   5.330  13.576   8.564
  348POPC   C2B 7904   5.323  13.530   8.264
  348POPC   C3B 7905   5.280  13.494   7.964
  348POPC   C4B 7906   5.360  13.496   7.664
  349POPC   NC3 7907   6.641  21.373   9.464
  349POPC   PO4 7908   6.689  21.373   9.164
  349POPC   GL1 7909   6.634  21.373   8.864
  349POPC   GL2 7910   6.612  21.528   8.864
  349POPC   C1A 7911   6.665  21.403   8.564
  349POPC   D2A 7912   6.604  21.421   8.264
  349POPC   C3A 7913   6.630  21.383   7.964
  349POPC   C4A 7914   6.602  21.380   7.664
  349POPC   C1B 7915   6.633  21.665   8.564
  349POPC   C2B 7916   6.638  21.612   8.264
  349POPC   C3B 7917   6.634  21.602   7.964
  349POPC   C4B 7918   6.622  21.600   7.664
  350POPC   NC3 7919  36.155   6.596   9.464
  350POPC   PO4 7920  36.101   6.674   9.164
  350POPC   GL1 7921  36.127   6.622   8.864
  350POPC   GL2 7922  36.271   6.707   8.864
  350POPC   C1A 7923  36.143   6.621   8.564
  350POPC   D2A 7924  36.106   6.621   8.264
  350POPC   C3A 7925  36.079   6.598   7.964
  350POPC   C4A 7926  36.171   6.619   7.664
  350POPC   C1B 7927  36.371   6.783   8.564
  350POPC   C2B 7928  36.307   6.764   8.264
  350POPC   C3B 7929  36.299   6.782   7.964
  350POPC   C4B 7930  36.352   6.759   7.664
  351POPC   NC3 7931  26.785   3.548   9.464
  351POPC   PO4 7932  26.770   3.563   9.164
  351POPC   GL1 7933  26.775   3.497   8.864
  351POPC   GL2 7934  26.951   3.543   8.864
  351POPC   C1A 7935  26.848   3.546   8.564
  351POPC   D2A 7936  26.781   3.501   8.264
  351POPC   C3A 7937  26.835   3.510   7.964
  351POPC   C4A 7938  26.786   3.543   7.664
  351POPC   C1B 7939  27.011   3.634   8.564
  351POPC   C2B 7940  27.063   3.600   8.264
  351POPC   C3B 7941  27.101   3.653   7.964
  351POPC   C4B 7942  27.092   3.579   7.664
  352POPC   NC3 7943  23.665  19.856   9.464
  352POPC   PO4 7944  23.719  19.850   9.164
  352POPC   GL1 7945  23.760  19.822   8.864
  352POPC   GL2 7946  23.568  19.795   8.864
  352POPC   C1A 7947  23.753  19.815   8.564
  352POPC   D2A 7948  23.694  19.825   8.264
  352POPC   C3A 7949  23.699  19.829   7.964
  352POPC   C4A 7950  23.753  19.793   7.664
  352POPC   C1B 7951  23.535  19.659   8.564
  352POPC   C2B 7952  23.495  19.669   8.264
  352POPC   C3B 7953  23.536  19.747   7.964
  352POPC   C4B 7954  23.468  19.694   7.664
  353POPC   NC3 7955  13.674  40.797   9.464
  353POPC   PO4 7956  13.587  40.765   9.164
  353POPC   GL1 7957  13.667  40.816   8.864
  353POPC   GL2 7958  13.516  40.690   8.864
  353POPC   C1A 7959  13.589  40.761   8.564
  353POPC   D2A 7960  13.624  40.783   8.264
  353POPC   C3A 7961  13.655  40.756   7.964
  353POPC   C4A 7962  13.588  40.767   7.664
  353POPC   C1B 7963  13.438  40.654   8.564
  353POPC   C2B 7964  13.365  40.656   8.264
  353POPC   C3B 7965  13.389  40.695   7.964
  353POPC   C4B 7966  13.389  40.735   7.664
  354POPC   NC3 7967  34.565   3.496   9.464
  354POPC   PO4 7968  34.527   3.534   9.164
  354POPC   GL1 7969  34.619   3.517   8.864
  354POPC   GL2 7970  34.452   3.573   8.864
  354POPC   C1A 7971  34.529   3.492   8.564
  354POPC   D2A 7972  34.580   3.538   8.264
  354POPC   C3A 7973  34.527   3.520   7.964
  354POPC   C4A 7974  34.552   3.553   7.664
  354POPC   C1B 7975  34.305   3.575   8.564
  354POPC   C2B 7976  34.350   3.569   8.264
  354POPC   C3B 7977  34.340   3.646   7.964
  354POPC   C4B 7978  34.374   3.663   7.664
  355POPC   NC3 7979  26.855  14.404   9.464
  355POPC   PO4 7980  26.797  14.356   9.164
  355POPC   GL1 7981  26.808  14.428   8.864
  355POPC   GL2 7982  26.957  14.345   8.864
  355POPC   C1A 7983  26.839  14.387   8.564
  355POPC   D2A 7984  26.847  14.383   8.264
  355POPC   C3A 7985  26.860  14.431   7.964
  355POPC   C4A 7986  26.829  14.451   7.664
  355POPC   C1B 7987  27.111  14.361   8.564
  355POPC   C2B 7988  27.110  14.350   8.264
  355POPC   C3B 7989  27.030  14.353   7.964
  355POPC   C4B 7990  27.108  14.410   7.664
  356POPC   NC3 7991  36.913   0.407   9.464
  356POPC   PO4 7992  36.939   0.439   9.164
  356POPC   GL1 7993  36.928   0.389   8.864
  356POPC   GL2 7994  36.908   0.572   8.864
  356POPC   C1A 7995  36.904   0.431   8.564
  356POPC   D2A 7996  36.922   0.460   8.264
  356POPC   C3A 7997  36.915   0.411   7.964
  356POPC   C4A 7998  36.936   0.418   7.664
  356POPC   C1B 7999  36.911   0.644   8.564
  356POPC   C2B 8000  36.857   0.691   8.264
  356POPC   C3B 8001  36.828   0.661   7.964
  356POPC   C4B 8002  36.882   0.679   7.664
  357POPC   NC3 8003   7.459  17.524   9.464
  357POPC   PO4 8004   7.408  17.463   9.164
  357POPC   GL1 8005   7.378  17.546   8.864
  357POPC   GL2 8006   7.295  17.546   8.864
  357POPC   C1A 8007   7.424  17.500   8.564
  357POPC   D2A 8008   7.399  17.535   8.264
  357POPC   C3A 8009   7.376  17.462   7.964
  357POPC   C4A 8010   7.416  17.525   7.664
  357POPC   C1B 8011   7.215  17.637   8.564
  357POPC   C2B 8012   7.222  17.620   8.264
  357POPC   C3B 8013   7.253  17.613   7.964
  357POPC   C4B 8014   7.212  17.680   7.664
  358POPC   NC3 8015  29.171  41.528   9.464
  358POPC   PO4 8016  29.097  41.546   9.164
  358POPC   GL1 8017  29.192  41.511   8.864
  358POPC   GL2 8018  29.048  41.635   8.864
  358POPC   C1A 8019  29.175  41.523   8.564
  358POPC   D2A 8020  29.180  41.575   8.264
  358POPC   C3A 8021  29.140  41.536   7.964
  358POPC   C4A 8022  29.131  41.510   7.664
  358POPC   C1B 8023  29.009  41.719   8.564
  358POPC   C2B 8024  29.006  41.748   8.264
  358POPC   C3B 8025  29.007  41.769   7.964
  358POPC   C4B 8026  28.976  41.798   7.664
  359POPC   NC3 8027   6.693  43.122   9.464
  359POPC   PO4 8028   6.627  43.096   9.164
  359POPC   GL1 8029   6.665  43.097   8.864
  359POPC   GL2 8030   6.547  42.988   8.864
  359POPC   C1A 8031   6.595  43.106   8.564
  359POPC   D2A 8032   6.640  43.137   8.264
  359POPC   C3A 8033   6.688  43.147   7.964
  359POPC   C4A 8034   6.623  43.066   7.664
  359POPC   C1B 8035   6.573  42.843   8.564
  359POPC   C2B 8036   6.508  42.886   8.264
  359POPC   C3B 8037   6.492  42.840   7.964
  359POPC   C4B 8038   6.480  42.875   7.664
  360POPC   NC3 8039   8.169  36.856   9.464
  360POPC   PO4 8040   8.193  36.871   9.164
  360POPC   GL1 8041   8.191  36.932   8.864
  360POPC   GL2 8042   8.044  36.948   8.864
  360POPC   C1A 8043   8.219  36.894   8.564
  360POPC   D2A 8044   8.220  36.935   8.264
  360POPC   C3A 8045   8.172  36.914   7.964
  360POPC   C4A 8046   8.183  36.876   7.664
  360POPC   C1B 8047   7.925  36.956   8.564
  360POPC   C2B 8048   7.915  36.962   8.264
  360POPC   C3B 8049   7.909  36.969   7.964
  360POPC   C4B 8050   7.923  36.981   7.664
  361POPC   NC3 8051  35.325  17.514   9.464
  361POPC   PO4 8052  35.358  17.518   9.164
  361POPC   GL1 8053  35.313  17.495   8.864
  361POPC   GL2 8054  35.243  17.608   8.864
  361POPC   C1A 8055  35.387  17.550   8.564
  361POPC   D2A 8056  35.353  17.539   8.264
  361POPC   C3A 8057  35.325  17.490   7.964
  361POPC   C4A 8058  35.355  17.520   7.664
  361POPC   C1B 8059  35.223  17.699   8.564
  361POPC   C2B 8060  35.209  17.716   8.264
  361POPC   C3B 8061  35.235  17.768   7.964
  361POPC   C4B 8062  35.259  17.684   7.664
  362POPC   NC3 8063  11.267  31.495   9.464
  362POPC   PO4 8064  11.348  31.493   9.164
  362POPC   GL1 8065  11.317  31.496   8.864
  362POPC   GL2 8066  11.364  31.411   8.864
  362POPC   C1A 8067  11.308  31.440   8.564
  362POPC   D2A 8068  11.269  31.517   8.264
  362POPC   C3A 8069  11.341  31.451   7.964
  362POPC   C4A 8070  11.308  31.429   7.664
  362POPC   C1B 8071  11.432  31.274   8.564
  362POPC   C2B 8072  11.402  31.212   8.264
  362POPC   C3B 8073  11.455  31.211   7.964
  362POPC   C4B 8074  11.379  31.305   7.664
  363POPC   NC3 8075   8.219  19.841   9.464
  363POPC   PO4 8076   8.183  19.844   9.164
  363POPC   GL1 8077   8.152  19.807   8.864
  363POPC   GL2 8078   8.109  19.879   8.864
  363POPC   C1A 8079   8.167  19.787   8.564
  363POPC   D2A 8080   8.191  19.858   8.264
  363POPC   C3A 8081   8.219  19.883   7.964
  363POPC   C4A 8082   8.233  19.786   7.664
  363POPC   C1B 8083   7.966  19.970   8.564
  363POPC   C2B 8084   7.955  19.949   8.264
  363POPC   C3B 8085   8.004  19.995   7.964
  363POPC   C4B 8086   7.986  19.939   7.664
  364POPC   NC3 8087  10.537  13.673   9.464
  364POPC   PO4 8088  10.554  13.666   9.164
  364POPC   GL1 8089  10.475  13.675   8.864
  364POPC   GL2 8090  10.394  13.569   8.864
  364POPC   C1A 8091  10.489  13.587   8.564
  364POPC   D2A 8092  10.514  13.585   8.264
  364POPC   C3A 8093  10.502  13.664   7.964
  364POPC   C4A 8094  10.482  13.669   7.664
  364POPC   C1B 8095  10.275  13.593   8.564
  364POPC   C2B 8096  10.243  13.600   8.264
  364POPC   C3B 8097  10.252  13.586   7.964
  364POPC   C4B 8098  10.267  13.604   7.664
  365POPC   NC3 8099  39.257  20.588   9.464
  365POPC   PO4 8100  39.220  20.573   9.164
  365POPC   GL1 8101  39.239  20.579   8.864
  365POPC   GL2 8102  39.226  20.499   8.864
  365POPC   C1A 8103  39.199  20.591   8.564
  365POPC   D2A 8104  39.242  20.646   8.264
  365POPC   C3A 8105  39.274  20.656   7.964
  365POPC   C4A 8106  39.191  20.621   7.664
  365POPC   C1B 8107  39.226  20.323   8.564
  365POPC   C2B 8108  39.158  20.382   8.264
  365POPC   C3B 8109  39.196  20.347   7.964
  365POPC   C4B 8110  39.232  20.350   7.664
  366POPC   NC3 8111  15.938  34.596   9.464
  366POPC   PO4 8112  15.919  34.595   9.164
  366POPC   GL1 8113  15.986  34.607   8.864
  366POPC   GL2 8114  15.986  34.519   8.864
  366POPC   C1A 8115  15.963  34.596   8.564
  366POPC   D2A 8116  15.918  34.547   8.264
  366POPC   C3A 8117  15.983  34.624   7.964
  366POPC   C4A 8118  15.943  34.588   7.664
  366POPC   C1B 8119  16.097  34.379   8.564
  366POPC   C2B 8120  16.127  34.419   8.264
  366POPC   C3B 8121  16.106  34.372   7.964
  366POPC   C4B 8122  16.125  34.356   7.664
  367POPC   NC3 8123   9.766  19.058   9.464
  367POPC   PO4 8124   9.782  19.082   9.164
  367POPC   GL1 8125   9.737  19.104   8.864
  367POPC   GL2 8126   9.647  19.162   8.864
  367POPC   C1A 8127   9.704  19.052   8.564
  367POPC   D2A 8128   9.777  19.066   8.264
  367POPC   C3A 8129   9.744  19.046   7.964
  367POPC   C4A 8130   9.768  19.013   7.664
  367POPC   C1B 8131   9.597  19.261   8.564
  367POPC   C2B 8132   9.576  19.285   8.264
  367POPC   C3B 8133   9.554  19.232   7.964
  367POPC   C4B 8134   9.574  19.269   7.664
  368POPC   NC3 8135  24.506  29.097   9.464
  368POPC   PO4 8136  24.495  29.145   9.164
  368POPC   GL1 8137  24.526  29.144   8.864
  368POPC   GL2 8138  24.328  29.126   8.864
  368POPC   C1A 8139  24.458  29.096   8.564
  368POPC   D2A 8140  24.448  29.185   8.264
  368POPC   C3A 8141  24.452  29.140   7.964
  368POPC   C4A 8142  24.495  29.126   7.664
  368POPC   C1B 8143  24.254  29.091   8.564
  368POPC   C2B 8144  24.285  29.124   8.264
  368POPC   C3B 8145  24.252  29.108   7.964
  368POPC   C4B 8146  24.220  29.104   7.664
  369POPC   NC3 8147   9.783  26.860   9.464
  369POPC   PO4 8148   9.793  26.843   9.164
  369POPC   GL1 8149   9.775  26.796   8.864
  369POPC   GL2 8150   9.777  26.702   8.864
  369POPC   C1A 8151   9.768  26.821   8.564
  369POPC   D2A 8152   9.736  26.790   8.264
  369POPC   C3A 8153   9.721  26.835   7.964
  369POPC   C4A 8154   9.741  26.866   7.664
  369POPC   C1B 8155   9.866  26.563   8.564
  369POPC   C2B 8156   9.832  26.627   8.264
  369POPC   C3B 8157   9.797  26.581   7.964
  369POPC   C4B 8158   9.798  26.601   7.664
  370POPC   NC3 8159  16.737  30.714   9.464
  370POPC   PO4 8160  16.749  30.671   9.164
  370POPC   GL1 8161  16.750  30.712   8.864
  370POPC   GL2 8162  16.711  30.809   8.864
  370POPC   C1A 8163  16.709  30.652   8.564
  370POPC   D2A 8164  16.712  30.737   8.264
  370POPC   C3A 8165  16.754  30.688   7.964
  370POPC   C4A 8166  16.759  30.723   7.664
  370POPC   C1B 8167  16.582  30.912   8.564
  370POPC   C2B 8168  16.588  30.883   8.264
  370POPC   C3B 8169  16.585  30.960   7.964
  370POPC   C4B 8170  16.602  30.936   7.664
  371POPC   NC3 8171  33.794   3.565   9.464
  371POPC   PO4 8172  33.823   3.507   9.164
  371POPC   GL1 8173  33.758   3.497   8.864
  371POPC   GL2 8174  33.699   3.455   8.864
  371POPC   C1A 8175  33.797   3.550   8.564
  371POPC   D2A 8176  33.792   3.582   8.264
  371POPC   C3A 8177  33.810   3.590   7.964
  371POPC   C4A 8178  33.828   3.511   7.664
  371POPC   C1B 8179  33.608   3.481   8.564
  371POPC   C2B 8180  33.574   3.486   8.264
  371POPC   C3B 8181  33.596   3.455   7.964
  371POPC   C4B 8182  33.591   3.454   7.664
  372POPC   NC3 8183  34.540  25.263   9.464
  372POPC   PO4 8184  34.573  25.312   9.164
  372POPC   GL1 8185  34.566  25.236   8.864
  372POPC   GL2 8186  34.446  25.229   8.864
  372POPC   C1A 8187  34.541  25.305   8.564
  372POPC   D2A 8188  34.583  25.284   8.264
  372POPC   C3A 8189  34.595  25.293   7.964
  372POPC   C4A 8190  34.534  25.279   7.664
  372POPC   C1B 8191  34.327  25.155   8.564
  372POPC   C2B 8192  34.316  25.211   8.264
  372POPC   C3B 8193  34.310  25.222   7.964
  372POPC   C4B 8194  34.379  25.172   7.664
  373POPC   NC3 8195  21.362  12.891   9.464
  373POPC   PO4 8196  21.361  12.809   9.164
  373POPC   GL1 8197  21.400  12.861   8.864
  373POPC   GL2 8198  21.282  12.773   8.864
  373POPC   C1A 8199  21.382  12.893   8.564
  373POPC   D2A 8200  21.403  12.823   8.264
  373POPC   C3A 8201  21.434  12.872   7.964
  373POPC   C4A 8202  21.343  12.813   7.664
  373POPC   C1B 8203  21.217  12.742   8.564
  373POPC   C2B 8204  21.210  12.697   8.264
  373POPC   C3B 8205  21.137  12.733   7.964
  373POPC   C4B 8206  21.205  12.679   7.664
  374POPC   NC3 8207  29.926   0.443   9.464
  374POPC   PO4 8208  29.953   0.433   9.164
  374POPC   GL1 8209  29.911   0.421   8.864
  374POPC   GL2 8210  29.867   0.362   8.864
  374POPC   C1A 8211  29.897   0.428   8.564
  374POPC   D2A 8212  29.925   0.402   8.264
  374POPC   C3A 8213  29.943   0.479   7.964
  374POPC   C4A 8214  29.958   0.474   7.664
  374POPC   C1B 8215  29.794   0.245   8.564
  374POPC   C2B 8216  29.754   0.194   8.264
  374POPC   C3B 8217  29.803   0.225   7.964
  374POPC   C4B 8218  29.820   0.196   7.664
  375POPC   NC3 8219  26.075   5.091   9.464
  375POPC   PO4 8220  26.002   5.103   9.164
  375POPC   GL1 8221  26.023   5.080   8.864
  375POPC   GL2 8222  25.875   5.120   8.864
  375POPC   C1A 8223  26.006   5.116   8.564
  375POPC   D2A 8224  26.066   5.089   8.264
  375POPC   C3A 8225  26.084   5.092   7.964
  375POPC   C4A 8226  26.038   5.050   7.664
  375POPC   C1B 8227  25.799   5.129   8.564
  375POPC   C2B 8228  25.745   5.059   8.264
  375POPC   C3B 8229  25.756   5.095   7.964
  375POPC   C4B 8230  25.763   5.105   7.664
  376POPC   NC3 8231  26.052  11.295   9.464
  376POPC   PO4 8232  26.042  11.305   9.164
  376POPC   GL1 8233  26.009  11.343   8.864
  376POPC   GL2 8234  26.094  11.387   8.864
  376POPC   C1A 8235  26.038  11.298   8.564
  376POPC   D2A 8236  26.057  11.332   8.264
  376POPC   C3A 8237  26.052  11.278   7.964
  376POPC   C4A 8238  26.082  11.321   7.664
  376POPC   C1B 8239  26.138  11.519   8.564
  376POPC   C2B 8240  26.158  11.525   8.264
  376POPC   C3B 8241  26.119  11.507   7.964
  376POPC   C4B 8242  26.166  11.545   7.664
  377POPC   NC3 8243  44.620  40.009   9.464
  377POPC   PO4 8244  44.697  39.988   9.164
  377POPC   GL1 8245  44.616  40.037   8.864
  377POPC   GL2 8246  44.630  39.933   8.864
  377POPC   C1A 8247  44.673  40.011   8.564
  377POPC   D2A 8248  44.694  40.020   8.264
  377POPC   C3A 8249  44.666  40.057   7.964
  377POPC   C4A 8250  44.653  39.983   7.664
  377POPC   C1B 8251  44.715  39.709   8.564
  377POPC   C2B 8252  44.645  39.806   8.264
  377POPC   C3B 8253  44.681  39.712   7.964
  377POPC   C4B 8254  44.681  39.721   7.664
  378POPC   NC3 8255  23.749  26.813   9.464
  378POPC   PO4 8256  23.675  26.818   9.164
  378POPC   GL1 8257  23.722  26.845   8.864
  378POPC   GL2 8258  23.807  26.781   8.864
  378POPC   C1A 8259  23.706  26.820   8.564
  378POPC   D2A 8260  23.710  26.840   8.264
  378POPC   C3A 8261  23.754  26.858   7.964
  378POPC   C4A 8262  23.683  26.859   7.664
  378POPC   C1B 8263  23.969  26.681   8.564
  378POPC   C2B 8264  23.980  26.686   8.264
  378POPC   C3B 8265  23.932  26.678   7.964
  378POPC   C4B 8266  23.973  26.669   7.664
  379POPC   NC3 8267  29.919  39.234   9.464
  379POPC   PO4 8268  29.889  39.222   9.164
  379POPC   GL1 8269  29.924  39.255   8.864
  379POPC   GL2 8270  30.011  39.181   8.864
  379POPC   C1A 8271  29.878  39.190   8.564
  379POPC   D2A 8272  29.968  39.234   8.264
  379POPC   C3A 8273  29.957  39.242   7.964
  379POPC   C4A 8274  29.937  39.246   7.664
  379POPC   C1B 8275  30.214  39.199   8.564
  379POPC   C2B 8276  30.164  39.190   8.264
  379POPC   C3B 8277  30.199  39.172   7.964
  379POPC   C4B 8278  30.201  39.131   7.664
  380POPC   NC3 8279  11.315  37.661   9.464
  380POPC   PO4 8280  11.279  37.660   9.164
  380POPC   GL1 8281  11.304  37.723   8.864
  380POPC   GL2 8282  11.469  37.636   8.864
  380POPC   C1A 8283  11.275  37.660   8.564
  380POPC   D2A 8284  11.336  37.669   8.264
  380POPC   C3A 8285  11.295  37.636   7.964
  380POPC   C4A 8286  11.290  37.656   7.664
  380POPC   C1B 8287  11.578  37.622   8.564
  380POPC   C2B 8288  11.577  37.564   8.264
  380POPC   C3B 8289  11.512  37.595   7.964
  380POPC   C4B 8290  11.550  37.638   7.664
  381POPC   NC3 8291  41.523  43.879   9.464
  381POPC   PO4 8292  41.579  43.879   9.164
  381POPC   GL1 8293  41.607  43.859   8.864
  381POPC   GL2 8294  41.680  43.782   8.864
  381POPC   C1A 8295  41.590  43.838   8.564
  381POPC   D2A 8296  41.598  43.930   8.264
  381POPC   C3A 8297  41.599  43.892   7.964
  381POPC   C4A 8298  41.509  43.878   7.664
  381POPC   C1B 8299  41.761  43.715   8.564
  381POPC   C2B 8300  41.716  43.705   8.264
  381POPC   C3B 8301  41.744  43.694   7.964
  381POPC   C4B 8302  41.763  43.749   7.664
  382POPC   NC3 8303   3.588  33.805   9.464
  382POPC   PO4 8304   3.528  33.801   9.164
  382POPC   GL1 8305   3.578  33.809   8.864
  382POPC   GL2 8306   3.499  33.915   8.864
  382POPC   C1A 8307   3.511  33.798   8.564
  382POPC   D2A 8308   3.513  33.815   8.264
  382POPC   C3A 8309   3.520  33.797   7.964
  382POPC   C4A 8310   3.582  33.813   7.664
  382POPC   C1B 8311   3.353  34.006   8.564
  382POPC   C2B 8312   3.347  33.987   8.264
  382POPC   C3B 8313   3.385  34.004   7.964
  382POPC   C4B 8314   3.370  33.994   7.664
  383POPC   NC3 8315  16.706  24.442   9.464
  383POPC   PO4 8316  16.756  24.493   9.164
  383POPC   GL1 8317  16.698  24.502   8.864
  383POPC   GL2 8318  16.612  24.381   8.864
  383POPC   C1A 8319  16.744  24.522   8.564
  383POPC   D2A 8320  16.770  24.521   8.264
  383POPC   C3A 8321  16.700  24.524   7.964
  383POPC   C4A 8322  16.736  24.502   7.664
  383POPC   C1B 8323  16.489  24.383   8.564
  383POPC   C2B 8324  16.522  24.379   8.264
  383POPC   C3B 8325  16.496  24.313   7.964
  383POPC   C4B 8326  16.581  24.382   7.664
  384POPC   NC3 8327  11.343  43.064   9.464
  384POPC   PO4 8328  11.283  43.093   9.164
  384POPC   GL1 8329  11.341  43.081   8.864
  384POPC   GL2 8330  11.429  43.150   8.864
  384POPC   C1A 8331  11.263  43.086   8.564
  384POPC   D2A 8332  11.285  43.145   8.264
  384POPC   C3A 8333  11.323  43.097   7.964
  384POPC   C4A 8334  11.287  43.099   7.664
  384POPC   C1B 8335  11.539  43.143   8.564
  384POPC   C2B 8336  11.576  43.189   8.264
  384POPC   C3B 8337  11.584  43.134   7.964
  384POPC   C4B 8338  11.545  43.145   7.664
  385POPC   NC3 8339  12.807  44.636   9.464
  385POPC   PO4 8340  12.820  44.693   9.164
  385POPC   GL1 8341  12.864  44.691   8.864
  385POPC   GL2 8342  12.792  44.775   8.864
  385POPC   C1A 8343  12.834  44.645   8.564
  385POPC   D2A 8344  12.863  44.642   8.264
  385POPC   C3A 8345  12.803  44.678   7.964
  385POPC   C4A 8346  12.870  44.711   7.664
  385POPC   C1B 8347  12.664  44.817   8.564
  385POPC   C2B 8348  12.644  44.792   8.264
  385POPC   C3B 8349  12.684  44.869   7.964
  385POPC   C4B 8350  12.690  44.803   7.664
  386POPC   NC3 8351  11.310   6.610   9.464
  386POPC   PO4 8352  11.300   6.656   9.164
  386POPC   GL1 8353  11.299   6.680   8.864
  386POPC   GL2 8354  11.297   6.536   8.864
  386POPC   C1A 8355  11.271   6.666   8.564
  386POPC   D2A 8356  11.324   6.615   8.264
  386POPC   C3A 8357  11.265   6.684   7.964
  386POPC   C4A 8358  11.334   6.681   7.664
  386POPC   C1B 8359  11.330   6.399   8.564
  386POPC   C2B 8360  11.343   6.373   8.264
  386POPC   C3B 8361  11.365   6.360   7.964
  386POPC   C4B 8362  11.333   6.416   7.664
  387POPC   NC3 8363  43.902   0.455   9.464
  387POPC   PO4 8364  43.839   0.441   9.164
  387POPC   GL1 8365  43.878   0.428   8.864
  387POPC   GL2 8366  43.810   0.567   8.864
  387POPC   C1A 8367  43.928   0.446   8.564
  387POPC   D2A 8368  43.887   0.449   8.264
  387POPC   C3A 8369  43.914   0.421   7.964
  387POPC   C4A 8370  43.866   0.404   7.664
  387POPC   C1B 8371  43.745   0.641   8.564
  387POPC   C2B 8372  43.751   0.635   8.264
  387POPC   C3B 8373  43.788   0.695   7.964
  387POPC   C4B 8374  43.789   0.672   7.664
  388POPC   NC3 8375  40.776   6.619   9.464
  388POPC   PO4 8376  40.783   6.600   9.164
  388POPC   GL1 8377  40.804   6.624   8.864
  388POPC   GL2 8378  40.832   6.584   8.864
  388POPC   C1A 8379  40.832   6.622   8.564
  388POPC   D2A 8380  40.775   6.685   8.264
  388POPC   C3A 8381  40.746   6.617   7.964
  388POPC   C4A 8382  40.829   6.643   7.664
  388POPC   C1B 8383  40.938   6.397   8.564
  388POPC   C2B 8384  40.902   6.401   8.264
  388POPC   C3B 8385  40.905   6.421   7.964
  388POPC   C4B 8386  40.910   6.469   7.664
  389POPC   NC3 8387  22.981  33.758   9.464
  389POPC   PO4 8388  22.923  33.836   9.164
  389POPC   GL1 8389  22.914  33.798   8.864
  389POPC   GL2 8390  23.060  33.801   8.864
  389POPC   C1A 8391  22.986  33.793   8.564
  389POPC   D2A 8392  22.975  33.780   8.264
  389POPC   C3A 8393  22.899  33.788   7.964
  389POPC   C4A 8394  22.890  33.778   7.664
  389POPC   C1B 8395  23.141  33.765   8.564
  389POPC   C2B 8396  23.198  33.832   8.264
  389POPC   C3B 8397  23.228  33.786   7.964
  389POPC   C4B 8398  23.138  33.812   7.664
  390POPC   NC3 8399  33.045   7.416   9.464
  390POPC   PO4 8400  33.062   7.436   9.164
  390POPC   GL1 8401  32.977   7.372   8.864
  390POPC   GL2 8402  33.152   7.303   8.864
  390POPC   C1A 8403  33.067   7.376   8.564
  390POPC   D2A 8404  32.989   7.378   8.264
  390POPC   C3A 8405  32.985   7.433   7.964
  390POPC   C4A 8406  32.991   7.419   7.664
  390POPC   C1B 8407  33.200   7.192   8.564
  390POPC   C2B 8408  33.217   7.221   8.264
  390POPC   C3B 8409  33.218   7.181   7.964
  390POPC   C4B 8410  33.224   7.201   7.664
  391POPC   NC3 8411  40.819  43.078   9.464
  391POPC   PO4 8412  40.747  43.128   9.164
  391POPC   GL1 8413  40.745  43.118   8.864
  391POPC   GL2 8414  40.887  43.145   8.864
  391POPC   C1A 8415  40.741  43.068   8.564
  391POPC   D2A 8416  40.812  43.102   8.264
  391POPC   C3A 8417  40.742  43.148   7.964
  391POPC   C4A 8418  40.782  43.158   7.664
  391POPC   C1B 8419  41.042  43.234   8.564
  391POPC   C2B 8420  41.025  43.224   8.264
  391POPC   C3B 8421  41.006  43.229   7.964
  391POPC   C4B 8422  40.980  43.214   7.664
  392POPC   NC3 8423  21.410  43.149   9.464
  392POPC   PO4 8424  21.388  43.119   9.164
  392POPC   GL1 8425  21.409  43.129   8.864
  392POPC   GL2 8426  21.240  43.046   8.864
  392POPC   C1A 8427  21.371  43.131   8.564
  392POPC   D2A 8428  21.424  43.122   8.264
  392POPC   C3A 8429  21.418  43.136   7.964
  392POPC   C4A 8430  21.410  43.122   7.664
  392POPC   C1B 8431  21.186  43.016   8.564
  392POPC   C2B 8432  21.203  43.011   8.264
  392POPC   C3B 8433  21.162  42.990   7.964
  392POPC   C4B 8434  21.177  42.996   7.664
  393POPC   NC3 8435   8.234  40.783   9.464
  393POPC   PO4 8436   8.164  40.795   9.164
  393POPC   GL1 8437   8.188  40.813   8.864
  393POPC   GL2 8438   8.097  40.729   8.864
  393POPC   C1A 8439   8.176  40.798   8.564
  393POPC   D2A 8440   8.199  40.740   8.264
  393POPC   C3A 8441   8.170  40.826   7.964
  393POPC   C4A 8442   8.228  40.797   7.664
  393POPC   C1B 8443   8.007  40.575   8.564
  393POPC   C2B 8444   7.969  40.595   8.264
  393POPC   C3B 8445   8.055  40.607   7.964
  393POPC   C4B 8446   8.043  40.664   7.664
  394POPC   NC3 8447   2.012  39.252   9.464
  394POPC   PO4 8448   1.965  39.210   9.164
  394POPC   GL1 8449   1.971  39.247   8.864
  394POPC   GL2 8450   1.855  39.176   8.864
  394POPC   C1A 8451   1.955  39.216   8.564
  394POPC   D2A 8452   1.947  39.189   8.264
  394POPC   C3A 8453   1.985  39.218   7.964
  394POPC   C4A 8454   1.966  39.260   7.664
  394POPC   C1B 8455   1.768  39.101   8.564
  394POPC   C2B 8456   1.814  39.134   8.264
  394POPC   C3B 8457   1.826  39.087   7.964
  394POPC   C4B 8458   1.750  39.095   7.664
  395POPC   NC3 8459  39.983  20.571   9.464
  395POPC   PO4 8460  40.039  20.616   9.164
  395POPC   GL1 8461  40.035  20.567   8.864
  395POPC   GL2 8462  40.127  20.500   8.864
  395POPC   C1A 8463  40.043  20.656   8.564
  395POPC   D2A 8464  40.007  20.637   8.264
  395POPC   C3A 8465  39.964  20.636   7.964
  395POPC   C4A 8466  40.020  20.628   7.664
  395POPC   C1B 8467  40.106  20.418   8.564
  395POPC   C2B 8468  40.183  20.438   8.264
  395POPC   C3B 8469  40.127  20.373   7.964
  395POPC   C4B 8470  40.150  20.404   7.664
  396POPC   NC3 8471  33.812  40.027   9.464
  396POPC   PO4 8472  33.769  40.026   9.164
  396POPC   GL1 8473  33.777  39.983   8.864
  396POPC   GL2 8474  33.791  40.117   8.864
  396POPC   C1A 8475  33.808  39.963   8.564
  396POPC   D2A 8476  33.753  40.044   8.264
  396POPC   C3A 8477  33.758  39.987   7.964
  396POPC   C4A 8478  33.752  39.959   7.664
  396POPC   C1B 8479  33.773  40.284   8.564
  396POPC   C2B 8480  33.774  40.281   8.264
  396POPC   C3B 8481  33.782  40.255   7.964
  396POPC   C4B 8482  33.757  40.302   7.664
  397POPC   NC3 8483  26.836  15.924   9.464
  397POPC   PO4 8484  26.841  15.934   9.164
  397POPC   GL1 8485  26.806  15.980   8.864
  397POPC   GL2 8486  26.754  16.031   8.864
  397POPC   C1A 8487  26.788  15.942   8.564
  397POPC   D2A 8488  26.776  15.933   8.264
  397POPC   C3A 8489  26.846  15.913   7.964
  397POPC   C4A 8490  26.806  15.949   7.664
  397POPC   C1B 8491  26.653  16.080   8.564
  397POPC   C2B 8492  26.621  16.139   8.264
  397POPC   C3B 8493  26.646  16.102   7.964
  397POPC   C4B 8494  26.594  16.075   7.664
  398POPC   NC3 8495   8.209  19.098   9.464
  398POPC   PO4 8496   8.232  19.072   9.164
  398POPC   GL1 8497   8.174  19.056   8.864
  398POPC   GL2 8498   8.119  19.033   8.864
  398POPC   C1A 8499   8.246  19.088   8.564
  398POPC   D2A 8500   8.175  19.021   8.264
  398POPC   C3A 8501   8.158  19.029   7.964
  398POPC   C4A 8502   8.201  19.035   7.664
  398POPC   C1B 8503   7.920  19.022   8.564
  398POPC   C2B 8504   7.913  19.041   8.264
  398POPC   C3B 8505   7.927  19.052   7.964
  398POPC   C4B 8506   7.928  18.956   7.664
  399POPC   NC3 8507  25.235   2.742   9.464
  399POPC   PO4 8508  25.267   2.733   9.164
  399POPC   GL1 8509  25.222   2.812   8.864
  399POPC   GL2 8510  25.424   2.827   8.864
  399POPC   C1A 8511  25.253   2.776   8.564
  399POPC   D2A 8512  25.266   2.799   8.264
  399POPC   C3A 8513  25.308   2.722   7.964
  399POPC   C4A 8514  25.259   2.734   7.664
  399POPC   C1B 8515  25.539   2.824   8.564
  399POPC   C2B 8516  25.463   2.872   8.264
  399POPC   C3B 8517  25.459   2.902   7.964
  399POPC   C4B 8518  25.515   2.905   7.664
  400POPC   NC3 8519  13.616  11.332   9.464
  400POPC   PO4 8520  13.641  11.281   9.164
  400POPC   GL1 8521  13.667  11.316   8.864
  400POPC   GL2 8522  13.508  11.388   8.864
  400POPC   C1A 8523  13.585  11.296   8.564
  400POPC   D2A 8524  13.616  11.316   8.264
  400POPC   C3A 8525  13.581  11.251   7.964
  400POPC   C4A 8526  13.658  11.292   7.664
  400POPC   C1B 8527  13.395  11.432   8.564
  400POPC   C2B 8528  13.423  11.483   8.264
  400POPC   C3B 8529  13.398  11.448   7.964
  400POPC   C4B 8530  13.458  11.429   7.664
  401POPC   NC3 8531  31.468  22.920   9.464
  401POPC   PO4 8532  31.435  22.890   9.164
  401POPC   GL1 8533  31.508  22.918   8.864
  401POPC   GL2 8534  31.475  23.068   8.864
  401POPC   C1A 8535  31.445  22.973   8.564
  401POPC   D2A 8536  31.449  22.910   8.264
  401POPC   C3A 8537  31.440  22.984   7.964
  401POPC   C4A 8538  31.447  22.925   7.664
  401POPC   C1B 8539  31.409  23.138   8.564
  401POPC   C2B 8540  31.385  23.185   8.264
  401POPC   C3B 8541  31.375  23.145   7.964
  401POPC   C4B 8542  31.384  23.206   7.664
  402POPC   NC3 8543  42.313  14.420   9.464
  402POPC   PO4 8544  42.299  14.443   9.164
  402POPC   GL1 8545  42.327  14.354   8.864
  402POPC   GL2 8546  42.176  14.363   8.864
  402POPC   C1A 8547  42.374  14.368   8.564
  402POPC   D2A 8548  42.286  14.430   8.264
  402POPC   C3A 8549  42.296  14.411   7.964
  402POPC   C4A 8550  42.304  14.404   7.664
  402POPC   C1B 8551  42.145  14.283   8.564
  402POPC   C2B 8552  42.156  14.268   8.264
  402POPC   C3B 8553  42.147  14.272   7.964
  402POPC   C4B 8554  42.075  14.279   7.664
  403POPC   NC3 8555  43.905  44.636   9.464
  403POPC   PO4 8556  43.918  44.710   9.164
  403POPC   GL1 8557  43.910  44.689   8.864
  403POPC   GL2 8558  43.984  44.545   8.864
  403POPC   C1A 8559  43.859  44.694   8.564
  403POPC   D2A 8560  43.845  44.679   8.264
  403POPC   C3A 8561  43.883  44.691   7.964
  403POPC   C4A 8562  43.914  44.684   7.664
  403POPC   C1B 8563  44.131  44.542   8.564
  403POPC   C2B 8564  44.047  44.533   8.264
  403POPC   C3B 8565  44.049  44.502   7.964
  403POPC   C4B 8566  44.124  44.542   7.664
  404POPC   NC3 8567  38.407  29.876   9.464
  404POPC   PO4 8568  38.480  29.932   9.164
  404POPC   GL1 8569  38.493  29.923   8.864
  404POPC   GL2 8570  38.391  29.890   8.864
  404POPC   C1A 8571  38.409  29.954   8.564
  404POPC   D2A 8572  38.496  29.897   8.264
  404POPC   C3A 8573  38.406  29.900   7.964
  404POPC   C4A 8574  38.485  29.875   7.664
  404POPC   C1B 8575  38.277  29.804   8.564
  404POPC   C2B 8576  38.208  29.738   8.264
  404POPC   C3B 8577  38.205  29.770   7.964
  404POPC   C4B 8578  38.214  29.753   7.664
  405POPC   NC3 8579   9.019   2.023   9.464
  405POPC   PO4 8580   8.955   1.981   9.164
  405POPC   GL1 8581   9.016   1.967   8.864
  405POPC   GL2 8582   8.949   2.119   8.864
  405POPC   C1A 8583   8.971   2.025   8.564
  405POPC   D2A 8584   8.999   2.005   8.264
  405POPC   C3A 8585   8.936   2.017   7.964
  405POPC   C4A 8586   8.951   1.954   7.664
  405POPC   C1B 8587   9.001   2.281   8.564
  405POPC   C2B 8588   8.925   2.252   8.264
  405POPC   C3B 8589   9.012   2.248   7.964
  405POPC   C4B 8590   8.924   2.227   7.664
  406POPC   NC3 8591  38.424   1.990   9.464
  406POPC   PO4 8592  38.479   1.988   9.164
  406POPC   GL1 8593  38.458   2.024   8.864
  406POPC   GL2 8594  38.325   1.956   8.864
  406POPC   C1A 8595  38.483   1.989   8.564
  406POPC   D2A 8596  38.490   1.982   8.264
  406POPC   C3A 8597  38.474   1.959   7.964
  406POPC   C4A 8598  38.455   2.004   7.664
  406POPC   C1B 8599  38.224   1.820   8.564
  406POPC   C2B 8600  38.315   1.845   8.264
  406POPC   C3B 8601  38.249   1.860   7.964
  406POPC   C4B 8602  38.237   1.809   7.664
  407POPC   NC3 8603   3.493  28.376   9.464
  407POPC   PO4 8604   3.491  28.326   9.164
  407POPC   GL1 8605   3.580  28.368   8.864
  407POPC   GL2 8606   3.636  28.255   8.864
  407POPC   C1A 8607   3.559  28.335   8.564
  407POPC   D2A 8608   3.579  28.354   8.264
  407POPC   C3A 8609   3.576  28.381   7.964
  407POPC   C4A 8610   3.588  28.352   7.664
  407POPC   C1B 8611   3.621  28.106   8.564
  407POPC   C2B 8612   3.690  28.168   8.264
  407POPC   C3B 8613   3.635  28.189   7.964
  407POPC   C4B 8614   3.662  28.128   7.664
  408POPC   NC3 8615  41.524   2.760   9.464
  408POPC   PO4 8616  41.607   2.796   9.164
  408POPC   GL1 8617  41.593   2.754   8.864
  408POPC   GL2 8618  41.441   2.754   8.864
  408POPC   C1A 8619  41.554   2.781   8.564
  408POPC   D2A 8620  41.577   2.777   8.264
  408POPC   C3A 8621  41.527   2.769   7.964
  408POPC   C4A 8622  41.550   2.763   7.664
  408POPC   C1B 8623  41.352   2.754   8.564
  408POPC   C2B 8624  41.275   2.777   8.264
  408POPC   C3B 8625  41.293   2.824   7.964
  408POPC   C4B 8626  41.261   2.839   7.664
  409POPC   NC3 8627   9.708   2.777   9.464
  409POPC   PO4 8628   9.755   2.813   9.164
  409POPC   GL1 8629   9.790   2.809   8.864
  409POPC   GL2 8630   9.588   2.830   8.864
  409POPC   C1A 8631   9.757   2.760   8.564
  409POPC   D2A 8632   9.712   2.725   8.264
  409POPC   C3A 8633   9.797   2.720   7.964
  409POPC   C4A 8634   9.758   2.750   7.664
  409POPC   C1B 8635   9.489   2.919   8.564
  409POPC   C2B 8636   9.487   2.928   8.264
  409POPC   C3B 8637   9.513   2.918   7.964
  409POPC   C4B 8638   9.575   2.852   7.664
  410POPC   NC3 8639  12.120  11.313   9.464
  410POPC   PO4 8640  12.099  11.291   9.164
  410POPC   GL1 8641  12.080  11.297   8.864
  410POPC   GL2 8642  12.010  11.351   8.864
  410POPC   C1A 8643  12.108  11.338   8.564
  410POPC   D2A 8644  12.056  11.307   8.264
  410POPC   C3A 8645  12.053  11.307   7.964
  410POPC   C4A 8646  12.117  11.282   7.664
  410POPC   C1B 8647  11.870  11.519   8.564
  410POPC   C2B 8648  11.886  11.514   8.264
  410POPC   C3B 8649  11.849  11.479   7.964
  410POPC   C4B 8650  11.921  11.479   7.664
  411POPC   NC3 8651  37.699  24.456   9.464
  411POPC   PO4 8652  37.676  24.534   9.164
  411POPC   GL1 8653  37.629  24.512   8.864
  411POPC   GL2 8654  37.519  24.404   8.864
  411POPC   C1A 8655  37.637  24.443   8.564
  411POPC   D2A 8656  37.719  24.460   8.264
  411POPC   C3A 8657  37.632  24.460   7.964
  411POPC   C4A 8658  37.637  24.502   7.664
  411POPC   C1B 8659  37.481  24.425   8.564
  411POPC   C2B 8660  37.463  24.396   8.264
  411POPC   C3B 8661  37.467  24.423   7.964
  411POPC   C4B 8662  37.435  24.394   7.664
  412POPC   NC3 8663  11.301  33.829   9.464
  412POPC   PO4 8664  11.328  33.775   9.164
  412POPC   GL1 8665  11.315  33.766   8.864
  412POPC   GL2 8666  11.176  33.830   8.864
  412POPC   C1A 8667  11.294  33.799   8.564
  412POPC   D2A 8668  11.330  33.778   8.264
  412POPC   C3A 8669  11.340  33.778   7.964
  412POPC   C4A 8670  11.281  33.783   7.664
  412POPC   C1B 8671  11.043  33.782   8.564
  412POPC   C2B 8672  11.058  33.831   8.264
  412POPC   C3B 8673  11.033  33.859   7.964
  412POPC   C4B 8674  11.056  33.775   7.664
  413POPC   NC3 8675   0.474  33.038   9.464
  413POPC   PO4 8676   0.424  32.997   9.164
  413POPC   GL1 8677   0.448  33.061   8.864
  413POPC   GL2 8678   0.394  32.950   8.864
  413POPC   C1A 8679   0.424  33.069   8.564
  413POPC   D2A 8680   0.480  33.070   8.264
  413POPC   C3A 8681   0.460  33.053   7.964
  413POPC   C4A 8682   0.412  33.065   7.664
  413POPC   C1B 8683   0.374  32.771   8.564
  413POPC   C2B 8684   0.376  32.772   8.264
  413POPC   C3B 8685   0.405  32.766   7.964
  413POPC   C4B 8686   0.312  32.802   7.664
  414POPC   NC3 8687  12.039   0.428   9.464
  414POPC   PO4 8688  12.057   0.447   9.164
  414POPC   GL1 8689  12.093   0.411   8.864
  414POPC   GL2 8690  12.136   0.551   8.864
  414POPC   C1A 8691  12.052   0.403   8.564
  414POPC   D2A 8692  12.125   0.420   8.264
  414POPC   C3A 8693  12.061   0.417   7.964
  414POPC   C4A 8694  12.084   0.464   7.664
  414POPC   C1B 8695  12.171   0.668   8.564
  414POPC   C2B 8696  12.193   0.673   8.264
  414POPC   C3B 8697  12.204   0.620   7.964
  414POPC   C4B 8698  12.195   0.687   7.664
  415POPC   NC3 8699  38.492  32.209   9.464
  415POPC   PO4 8700  38.489  32.253   9.164
  415POPC   GL1 8701  38.468  32.230   8.864
  415POPC   GL2 8702  38.476  32.329   8.864
  415POPC   C1A 8703  38.486  32.208   8.564
  415POPC   D2A 8704  38.503  32.237   8.264
  415POPC   C3A 8705  38.493  32.294   7.964
  415POPC   C4A 8706  38.429  32.251   7.664
  415POPC   C1B 8707  38.529  32.465   8.564
  415POPC   C2B 8708  38.552  32.443   8.264
  415POPC   C3B 8709  38.476  32.514   7.964
  415POPC   C4B 8710  38.512  32.454   7.664
  416POPC   NC3 8711  28.321  32.205   9.464
  416POPC   PO4 8712  28.384  32.215   9.164
  416POPC   GL1 8713  28.349  32.203   8.864
  416POPC   GL2 8714  28.394  32.139   8.864
  416POPC   C1A 8715  28.349  32.255   8.564
  416POPC   D2A 8716  28.352  32.219   8.264
  416POPC   C3A 8717  28.388  32.213   7.964
  416POPC   C4A 8718  28.332  32.238   7.664
  416POPC   C1B 8719  28.367  31.958   8.564
  416POPC   C2B 8720  28.363  31.982   8.264
  416POPC   C3B 8721  28.314  31.965   7.964
  416POPC   C4B 8722  28.332  32.030   7.664
  417POPC   NC3 8723  29.920  33.781   9.464
  417POPC   PO4 8724  29.947  33.761   9.164
  417POPC   GL1 8725  29.944  33.848   8.864
  417POPC   GL2 8726  29.923  33.704   8.864
  417POPC   C1A 8727  29.901  33.806   8.564
  417POPC   D2A 8728  29.887  33.833   8.264
  417POPC   C3A 8729  29.951  33.841   7.964
  417POPC   C4A 8730  29.903  33.788   7.664
  417POPC   C1B 8731  29.920  33.571   8.564
  417POPC   C2B 8732  29.940  33.522   8.264
  417POPC   C3B 8733  29.950  33.544   7.964
  417POPC   C4B 8734  29.947  33.568   7.664
  418POPC   NC3 8735   5.860  42.323   9.464
  418POPC   PO4 8736   5.841  42.361   9.164
  418POPC   GL1 8737   5.827  42.291   8.864
  418POPC   GL2 8738   5.723  42.345   8.864
  418POPC   C1A 8739   5.911  42.336   8.564
  418POPC   D2A 8740   5.838  42.374   8.264
  418POPC   C3A 8741   5.893  42.314   7.964
  418POPC   C4A 8742   5.830  42.370   7.664
  418POPC   C1B 8743   5.672  42.249   8.564
  418POPC   C2B 8744   5.637  42.262   8.264
  418POPC   C3B 8745   5.675  42.273   7.964
  418POPC   C4B 8746   5.606  42.241   7.664
  419POPC   NC3 8747   8.967  36.099   9.464
  419POPC   PO4 8748   8.986  36.087   9.164
  419POPC   GL1 8749   8.994  36.100   8.864
  419POPC   GL2 8750   9.051  36.052   8.864
  419POPC   C1A 8751   8.985  36.082   8.564
  419POPC   D2A 8752   8.986  36.169   8.264
  419POPC   C3A 8753   8.939  36.154   7.964
  419POPC   C4A 8754   9.003  36.081   7.664
  419POPC   C1B 8755   9.220  36.045   8.564
  419POPC   C2B 8756   9.243  36.051   8.264
  419POPC   C3B 8757   9.172  36.064   7.964
  419POPC   C4B 8758   9.165  36.084   7.664
  420POPC   NC3 8759   3.513   0.468   9.464
  420POPC   PO4 8760   3.586   0.455   9.164
  420POPC   GL1 8761   3.534   0.416   8.864
  420POPC   GL2 8762   3.372   0.423   8.864
  420POPC   C1A 8763   3.492   0.450   8.564
  420POPC   D2A 8764   3.562   0.408   8.264
  420POPC   C3A 8765   3.545   0.406   7.964
  420POPC   C4A 8766   3.538   0.423   7.664
  420POPC   C1B 8767   3.334   0.491   8.564
  420POPC   C2B 8768   3.315   0.464   8.264
  420POPC   C3B 8769   3.332   0.436   7.964
  420POPC   C4B 8770   3.310   0.439   7.664
  421POPC   NC3 8771  24.498  23.727   9.464
  421POPC   PO4 8772  24.527  23.704   9.164
  421POPC   GL1 8773  24.461  23.721   8.864
  421POPC   GL2 8774  24.546  23.633   8.864
  421POPC   C1A 8775  24.516  23.679   8.564
  421POPC   D2A 8776  24.458  23.689   8.264
  421POPC   C3A 8777  24.445  23.673   7.964
  421POPC   C4A 8778  24.528  23.706   7.664
  421POPC   C1B 8779  24.608  23.450   8.564
  421POPC   C2B 8780  24.547  23.472   8.264
  421POPC   C3B 8781  24.594  23.464   7.964
  421POPC   C4B 8782  24.601  23.475   7.664
  422POPC   NC3 8783  24.535  21.343   9.464
  422POPC   PO4 8784  24.520  21.408   9.164
  422POPC   GL1 8785  24.476  21.338   8.864
  422POPC   GL2 8786  24.406  21.395   8.864
  422POPC   C1A 8787  24.500  21.428   8.564
  422POPC   D2A 8788  24.448  21.394   8.264
  422POPC   C3A 8789  24.466  21.371   7.964
  422POPC   C4A 8790  24.515  21.421   7.664
  422POPC   C1B 8791  24.261  21.328   8.564
  422POPC   C2B 8792  24.251  21.332   8.264
  422POPC   C3B 8793  24.281  21.304   7.964
  422POPC   C4B 8794  24.237  21.339   7.664
  423POPC   NC3 8795  43.109  17.465   9.464
  423POPC   PO4 8796  43.138  17.553   9.164
  423POPC   GL1 8797  43.090  17.521   8.864
  423POPC   GL2 8798  43.211  17.436   8.864
  423POPC   C1A 8799  43.123  17.478   8.564
  423POPC   D2A 8800  43.092  17.548   8.264
  423POPC   C3A 8801  43.128  17.528   7.964
  423POPC   C4A 8802  43.115  17.527   7.664
  423POPC   C1B 8803  43.377  17.450   8.564
  423POPC   C2B 8804  43.366  17.409   8.264
  423POPC   C3B 8805  43.351  17.465   7.964
  423POPC   C4B 8806  43.362  17.421   7.664
  424POPC   NC3 8807   4.340  29.962   9.464
  424POPC   PO4 8808   4.335  29.909   9.164
  424POPC   GL1 8809   4.273  29.930   8.864
  424POPC   GL2 8810   4.329  30.026   8.864
  424POPC   C1A 8811   4.315  29.878   8.564
  424POPC   D2A 8812   4.347  29.888   8.264
  424POPC   C3A 8813   4.268  29.879   7.964
  424POPC   C4A 8814   4.281  29.900   7.664
  424POPC   C1B 8815   4.364  30.159   8.564
  424POPC   C2B 8816   4.294  30.216   8.264
  424POPC   C3B 8817   4.309  30.158   7.964
  424POPC   C4B 8818   4.348  30.210   7.664
  425POPC   NC3 8819   6.606  12.869   9.464
  425POPC   PO4 8820   6.642  12.878   9.164
  425POPC   GL1 8821   6.674  12.887   8.864
  425POPC   GL2 8822   6.611  12.717   8.864
  425POPC   C1A 8823   6.602  12.836   8.564
  425POPC   D2A 8824   6.644  12.882   8.264
  425POPC   C3A 8825   6.688  12.814   7.964
  425POPC   C4A 8826   6.632  12.828   7.664
  425POPC   C1B 8827   6.477  12.693   8.564
  425POPC   C2B 8828   6.459  12.669   8.264
  425POPC   C3B 8829   6.509  12.634   7.964
  425POPC   C4B 8830   6.530  12.677   7.664
  426POPC   NC3 8831  43.924  29.891   9.464
  426POPC   PO4 8832  43.861  29.895   9.164
  426POPC   GL1 8833  43.883  29.878   8.864
  426POPC   GL2 8834  43.742  29.916   8.864
  426POPC   C1A 8835  43.903  29.874   8.564
  426POPC   D2A 8836  43.898  29.928   8.264
  426POPC   C3A 8837  43.923  29.945   7.964
  426POPC   C4A 8838  43.927  29.920   7.664
  426POPC   C1B 8839  43.703  29.847   8.564
  426POPC   C2B 8840  43.693  29.816   8.264
  426POPC   C3B 8841  43.690  29.866   7.964
  426POPC   C4B 8842  43.701  29.846   7.664
  427POPC   NC3 8843  27.547  40.793   9.464
  427POPC   PO4 8844  27.561  40.763   9.164
  427POPC   GL1 8845  27.570  40.788   8.864
  427POPC   GL2 8846  27.711  40.897   8.864
  427POPC   C1A 8847  27.613  40.828   8.564
  427POPC   D2A 8848  27.618  40.803   8.264
  427POPC   C3A 8849  27.619  40.786   7.964
  427POPC   C4A 8850  27.553  40.809   7.664
  427POPC   C1B 8851  27.758  40.943   8.564
  427POPC   C2B 8852  27.788  40.922   8.264
  427POPC   C3B 8853  27.816  40.896   7.964
  427POPC   C4B 8854  27.798  40.927   7.664
  428POPC   NC3 8855   1.230  15.937   9.464
  428POPC   PO4 8856   1.211  15.973   9.164
  428POPC   GL1 8857   1.202  15.962   8.864
  428POPC   GL2 8858   1.167  16.025   8.864
  428POPC   C1A 8859   1.220  15.966   8.564
  428POPC   D2A 8860   1.180  15.965   8.264
  428POPC   C3A 8861   1.231  15.940   7.964
  428POPC   C4A 8862   1.173  16.004   7.664
  428POPC   C1B 8863   1.101  16.151   8.564
  428POPC   C2B 8864   1.056  16.190   8.264
  428POPC   C3B 8865   1.048  16.171   7.964
  428POPC   C4B 8866   1.106  16.142   7.664
  429POPC   NC3 8867  16.768  19.869   9.464
  429POPC   PO4 8868  16.768  19.801   9.164
  429POPC   GL1 8869  16.708  19.804   8.864
  429POPC   GL2 8870  16.788  19.962   8.864
  429POPC   C1A 8871  16.772  19.815   8.564
  429POPC   D2A 8872  16.689  19.824   8.264
  429POPC   C3A 8873  16.731  19.815   7.964
  429POPC   C4A 8874  16.687  19.793   7.664
  429POPC   C1B 8875  16.948  19.964   8.564
  429POPC   C2B 8876  16.905  20.033   8.264
  429POPC   C3B 8877  16.916  20.032   7.964
  429POPC   C4B 8878  16.876  20.008   7.664
  430POPC   NC3 8879  17.553   9.767   9.464
  430POPC   PO4 8880  17.491   9.728   9.164
  430POPC   GL1 8881  17.539   9.705   8.864
  430POPC   GL2 8882  17.582   9.754   8.864
  430POPC   C1A 8883  17.498   9.759   8.564
  430POPC   D2A 8884  17.523   9.754   8.264
  430POPC   C3A 8885  17.526   9.749   7.964
  430POPC   C4A 8886  17.534   9.793   7.664
  430POPC   C1B 8887  17.730   9.745   8.564
  430POPC   C2B 8888  17.766   9.721   8.264
  430POPC   C3B 8889  17.802   9.777   7.964
  430POPC   C4B 8890  17.769   9.745   7.664
  431POPC   NC3 8891  22.979   1.940   9.464
  431POPC   PO4 8892  22.925   1.995   9.164
  431POPC   GL1 8893  22.969   2.005   8.864
  431POPC   GL2 8894  22.917   1.906   8.864
  431POPC   C1A 8895  22.957   2.030   8.564
  431POPC   D2A 8896  22.894   1.997   8.264
  431POPC   C3A 8897  22.970   2.038   7.964
  431POPC   C4A 8898  22.971   1.996   7.664
  431POPC   C1B 8899  22.963   1.716   8.564
  431POPC   C2B 8900  22.980   1.763   8.264
  431POPC   C3B 8901  22.968   1.747   7.964
  431POPC   C4B 8902  23.018   1.781   7.664
  432POPC   NC3 8903  33.755  44.647   9.464
  432POPC   PO4 8904  33.825  44.621   9.164
  432POPC   GL1 8905  33.797  44.657   8.864
  432POPC   GL2 8906  33.852  44.723   8.864
  432POPC   C1A 8907  33.753  44.664   8.564
  432POPC   D2A 8908  33.849  44.638   8.264
  432POPC   C3A 8909  33.794  44.624   7.964
  432POPC   C4A 8910  33.827  44.623   7.664
  432POPC   C1B 8911  33.951  44.894   8.564
  432POPC   C2B 8912  33.935  44.803   8.264
  432POPC   C3B 8913  33.990  44.836   7.964
  432POPC   C4B 8914  33.990  44.826   7.664
  433POPC   NC3 8915  18.266  19.828   9.464
  433POPC   PO4 8916  18.331  19.873   9.164
  433POPC   GL1 8917  18.277  19.800   8.864
  433POPC   GL2 8918  18.307  19.912   8.864
  433POPC   C1A 8919  18.299  19.789   8.564
  433POPC   D2A 8920  18.233  19.864   8.264
  433POPC   C3A 8921  18.281  19.802   7.964
  433POPC   C4A 8922  18.279  19.791   7.664
  433POPC   C1B 8923  18.352  20.026   8.564
  433POPC   C2B 8924  18.412  20.042   8.264
  433POPC   C3B 8925  18.434  20.071   7.964
  433POPC   C4B 8926  18.411  20.104   7.664
  434POPC   NC3 8927  21.359  23.704   9.464
  434POPC   PO4 8928  21.411  23.674   9.164
  434POPC   GL1 8929  21.390  23.752   8.864
  434POPC   GL2 8930  21.435  23.866   8.864
  434POPC   C1A 8931  21.340  23.754   8.564
  434POPC   D2A 8932  21.406  23.664   8.264
  434POPC   C3A 8933  21.436  23.732   7.964
  434POPC   C4A 8934  21.400  23.721   7.664
  434POPC   C1B 8935  21.494  23.938   8.564
  434POPC   C2B 8936  21.522  23.937   8.264
  434POPC   C3B 8937  21.530  23.935   7.964
  434POPC   C4B 8938  21.565  23.934   7.664
  435POPC   NC3 8939  38.478   1.255   9.464
  435POPC   PO4 8940  38.429   1.203   9.164
  435POPC   GL1 8941  38.435   1.251   8.864
  435POPC   GL2 8942  38.549   1.352   8.864
  435POPC   C1A 8943  38.501   1.233   8.564
  435POPC   D2A 8944  38.478   1.186   8.264
  435POPC   C3A 8945  38.467   1.226   7.964
  435POPC   C4A 8946  38.473   1.245   7.664
  435POPC   C1B 8947  38.597   1.469   8.564
  435POPC   C2B 8948  38.594   1.401   8.264
  435POPC   C3B 8949  38.513   1.402   7.964
  435POPC   C4B 8950  38.517   1.476   7.664
  436POPC   NC3 8951  30.739   7.386   9.464
  436POPC   PO4 8952  30.718   7.444   9.164
  436POPC   GL1 8953  30.659   7.387   8.864
  436POPC   GL2 8954  30.645   7.524   8.864
  436POPC   C1A 8955  30.734   7.380   8.564
  436POPC   D2A 8956  30.652   7.437   8.264
  436POPC   C3A 8957  30.667   7.382   7.964
  436POPC   C4A 8958  30.699   7.438   7.664
  436POPC   C1B 8959  30.597   7.618   8.564
  436POPC   C2B 8960  30.596   7.687   8.264
  436POPC   C3B 8961  30.577   7.607   7.964
  436POPC   C4B 8962  30.594   7.682   7.664
  437POPC   NC3 8963   1.996  43.076   9.464
  437POPC   PO4 8964   2.017  43.075   9.164
  437POPC   GL1 8965   1.948  43.081   8.864
  437POPC   GL2 8966   2.129  43.062   8.864
  437POPC   C1A 8967   1.971  43.094   8.564
  437POPC   D2A 8968   2.024  43.143   8.264
  437POPC   C3A 8969   2.006  43.142   7.964
  437POPC   C4A 8970   2.030  43.117   7.664
  437POPC   C1B 8971   2.164  42.918   8.564
  437POPC   C2B 8972   2.150  42.899   8.264
  437POPC   C3B 8973   2.185  42.977   7.964
  437POPC   C4B 8974   2.207  42.971   7.664
  438POPC   NC3 8975  20.601   4.311   9.464
  438POPC   PO4 8976  20.629   4.298   9.164
  438POPC   GL1 8977  20.656   4.360   8.864
  438POPC   GL2 8978  20.691   4.204   8.864
  438POPC   C1A 8979  20.597   4.365   8.564
  438POPC   D2A 8980  20.639   4.346   8.264
  438POPC   C3A 8981  20.637   4.324   7.964
  438POPC   C4A 8982  20.572   4.274   7.664
  438POPC   C1B 8983  20.805   4.118   8.564
  438POPC   C2B 8984  20.759   4.068   8.264
  438POPC   C3B 8985  20.797   4.141   7.964
  438POPC   C4B 8986  20.768   4.133   7.664
  439POPC   NC3 8987  40.795  27.596   9.464
  439POPC   PO4 8988  40.814  27.569   9.164
  439POPC   GL1 8989  40.778  27.570   8.864
  439POPC   GL2 8990  40.903  27.640   8.864
  439POPC   C1A 8991  40.758  27.605   8.564
  439POPC   D2A 8992  40.829  27.634   8.264
  439POPC   C3A 8993  40.798  27.564   7.964
  439POPC   C4A 8994  40.767  27.601   7.664
  439POPC   C1B 8995  40.952  27.765   8.564
  439POPC   C2B 8996  41.031  27.723   8.264
  439POPC   C3B 8997  40.948  27.785   7.964
  439POPC   C4B 8998  41.006  27.779   7.664
  440POPC   NC3 8999   3.516  30.676   9.464
  440POPC   PO4 9000   3.520  30.689   9.164
  440POPC   GL1 9001   3.506  30.685   8.864
  440POPC   GL2 9002   3.670  30.640   8.864
  440POPC   C1A 9003   3.573  30.681   8.564
  440POPC   D2A 9004   3.520  30.667   8.264
  440POPC   C3A 9005   3.589  30.723   7.964
  440POPC   C4A 9006   3.561  30.717   7.664
  440POPC   C1B 9007   3.823  30.672   8.564
  440POPC   C2B 9008   3.823  30.705   8.264
  440POPC   C3B 9009   3.756  30.618   7.964
  440POPC   C4B 9010   3.833  30.698   7.664
  441POPC   NC3 9011  29.912  25.235   9.464
  441POPC   PO4 9012  29.922  25.245   9.164
  441POPC   GL1 9013  29.943  25.224   8.864
  441POPC   GL2 9014  30.022  25.329   8.864
  441POPC   C1A 9015  29.902  25.247   8.564
  441POPC   D2A 9016  29.904  25.250   8.264
  441POPC   C3A 9017  29.902  25.223   7.964
  441POPC   C4A 9018  29.910  25.313   7.664
  441POPC   C1B 9019  30.181  25.392   8.564
  441POPC   C2B 9020  30.131  25.340   8.264
  441POPC   C3B 9021  30.169  25.353   7.964
  441POPC   C4B 9022  30.178  25.382   7.664
  442POPC   NC3 9023  42.328  22.163   9.464
  442POPC   PO4 9024  42.293  22.127   9.164
  442POPC   GL1 9025  42.380  22.129   8.864
  442POPC   GL2 9026  42.461  22.079   8.864
  442POPC   C1A 9027  42.339  22.191   8.564
  442POPC   D2A 9028  42.358  22.176   8.264
  442POPC   C3A 9029  42.340  22.154   7.964
  442POPC   C4A 9030  42.315  22.129   7.664
  442POPC   C1B 9031  42.604  22.126   8.564
  442POPC   C2B 9032  42.528  22.133   8.264
  442POPC   C3B 9033  42.617  22.050   7.964
  442POPC   C4B 9034  42.612  22.046   7.664
  443POPC   NC3 9035   3.517   7.377   9.464
  443POPC   PO4 9036   3.568   7.436   9.164
  443POPC   GL1 9037   3.583   7.448   8.864
  443POPC   GL2 9038   3.436   7.320   8.864
  443POPC   C1A 9039   3.500   7.384   8.564
  443POPC   D2A 9040   3.494   7.465   8.264
  443POPC   C3A 9041   3.544   7.404   7.964
  443POPC   C4A 9042   3.537   7.434   7.664
  443POPC   C1B 9043   3.311   7.299   8.564
  443POPC   C2B 9044   3.303   7.241   8.264
  443POPC   C3B 9045   3.389   7.246   7.964
  443POPC   C4B 9046   3.347   7.231   7.664
  444POPC   NC3 9047  11.269  44.712   9.464
  444POPC   PO4 9048  11.341  44.673   9.164
  444POPC   GL1 9049  11.302  44.677   8.864
  444POPC   GL2 9050  11.373  44.697   8.864
  444POPC   C1A 9051  11.339  44.631   8.564
  444POPC   D2A 9052  11.343  44.680   8.264
  444POPC   C3A 9053  11.325  44.705   7.964
  444POPC   C4A 9054  11.288  44.665   7.664
  444POPC   C1B 9055  11.497  44.827   8.564
  444POPC   C2B 9056  11.537  44.781   8.264
  444POPC   C3B 9057  11.509  44.783   7.964
  444POPC   C4B 9058  11.463  44.767   7.664
  445POPC   NC3 9059  41.571  41.606   9.464
  445POPC   PO4 9060  41.596  41.579   9.164
  445POPC   GL1 9061  41.552  41.583   8.864
  445POPC   GL2 9062  41.453  41.502   8.864
  445POPC   C1A 9063  41.588  41.518   8.564
  445POPC   D2A 9064  41.583  41.523   8.264
  445POPC   C3A 9065  41.532  41.563   7.964
  445POPC   C4A 9066  41.517  41.523   7.664
  445POPC   C1B 9067  41.453  41.349   8.564
  445POPC   C2B 9068  41.417  41.320   8.264
  445POPC   C3B 9069  41.443  41.396   7.964
  445POPC   C4B 9070  41.437  41.338   7.664
  446POPC   NC3 9071  39.985  17.487   9.464
  446POPC   PO4 9072  40.056  17.550   9.164
  446POPC   GL1 9073  40.006  17.502   8.864
  446POPC   GL2 9074  39.886  17.477   8.864
  446POPC   C1A 9075  39.990  17.517   8.564
  446POPC   D2A 9076  39.980  17.546   8.264
  446POPC   C3A 9077  40.045  17.532   7.964
  446POPC   C4A 9078  39.980  17.510   7.664
  446POPC   C1B 9079  39.751  17.449   8.564
  446POPC   C2B 9080  39.792  17.410   8.264
  446POPC   C3B 9081  39.728  17.386   7.964
  446POPC   C4B 9082  39.803  17.455   7.664
  447POPC   NC3 9083  29.147   8.205   9.464
  447POPC   PO4 9084  29.150   8.166   9.164
  447POPC   GL1 9085  29.152   8.149   8.864
  447POPC   GL2 9086  29.039   8.321   8.864
  447POPC   C1A 9087  29.096   8.158   8.564
  447POPC   D2A 9088  29.095   8.213   8.264
  447POPC   C3A 9089  29.166   8.163   7.964
  447POPC   C4A 9090  29.159   8.202   7.664
  447POPC   C1B 9091  28.961   8.416   8.564
  447POPC   C2B 9092  28.965   8.389   8.264
  447POPC   C3B 9093  28.962   8.377   7.964
  447POPC   C4B 9094  28.913   8.368   7.664
  448POPC   NC3 9095  42.376  32.227   9.464
  448POPC   PO4 9096  42.318  32.276   9.164
  448POPC   GL1 9097  42.306  32.233   8.864
  448POPC   GL2 9098  42.267  32.168   8.864
  448POPC   C1A 9099  42.339  32.259   8.564
  448POPC   D2A 9100  42.324  32.287   8.264
  448POPC   C3A 9101  42.349  32.268   7.964
  448POPC   C4A 9102  42.338  32.221   7.664
  448POPC   C1B 9103  42.266  32.000   8.564
  448POPC   C2B 9104  42.264  31.993   8.264
  448POPC   C3B 9105  42.270  31.970   7.964
  448POPC   C4B 9106  42.275  31.996   7.664
  449POPC   NC3 9107  22.197   5.118   9.464
  449POPC   PO4 9108  22.122   5.084   9.164
  449POPC   GL1 9109  22.116   5.072   8.864
  449POPC   GL2 9110  22.291   5.049   8.864
  449POPC   C1A 9111  22.197   5.088   8.564
  449POPC   D2A 9112  22.207   5.113   8.264
  449POPC   C3A 9113  22.186   5.096   7.964
  449POPC   C4A 9114  22.152   5.137   7.664
  449POPC   C1B 9115  22.386   4.944   8.564
  449POPC   C2B 9116  22.391   4.899   8.264
  449POPC   C3B 9117  22.390   4.973   7.964
  449POPC   C4B 9118  22.345   4.989   7.664
  450POPC   NC3 9119   1.954  43.853   9.464
  450POPC   PO4 9120   1.950  43.914   9.164
  450POPC   GL1 9121   1.968  43.861   8.864
  450POPC   GL2 9122   2.061  43.951   8.864
  450POPC   C1A 9123   2.023  43.906   8.564
  450POPC   D2A 9124   1.977  43.918   8.264
  450POPC   C3A 9125   1.971  43.920   7.964
  450POPC   C4A 9126   1.942  43.869   7.664
  450POPC   C1B 9127   2.180  44.082   8.564
  450POPC   C2B 9128   2.192  44.119   8.264
  450POPC   C3B 9129   2.194  44.043   7.964
  450POPC   C4B 9130   2.118  44.105   7.664
  451POPC   NC3 9131  26.844  36.173   9.464
  451POPC   PO4 9132  26.797  36.084   9.164
  451POPC   GL1 9133  26.833  36.116   8.864
  451POPC   GL2 9134  26.701  36.106   8.864
  451POPC   C1A 9135  26.792  36.116   8.564
  451POPC   D2A 9136  26.829  36.173   8.264
  451POPC   C3A 9137  26.769  36.173   7.964
  451POPC   C4A 9138  26.826  36.144   7.664
  451POPC   C1B 9139  26.578  36.118   8.564
  451POPC   C2B 9140  26.552  36.085   8.264
  451POPC   C3B 9141  26.568  36.156   7.964
  451POPC   C4B 9142  26.560  36.103   7.664
  452POPC   NC3 9143  34.533  29.968   9.464
  452POPC   PO4 9144  34.603  29.886   9.164
  452POPC   GL1 9145  34.570  29.893   8.864
  452POPC   GL2 9146  34.511  30.037   8.864
  452POPC   C1A 9147  34.581  29.944   8.564
  452POPC   D2A 9148  34.537  29.968   8.264
  452POPC   C3A 9149  34.613  29.949   7.964
  452POPC   C4A 9150  34.567  29.924   7.664
  452POPC   C1B 9151  34.496  30.215   8.564
  452POPC   C2B 9152  34.570  30.151   8.264
  452POPC   C3B 9153  34.550  30.167   7.964
  452POPC   C4B 9154  34.564  30.119   7.664
  453POPC   NC3 9155  24.472  44.643   9.464
  453POPC   PO4 9156  24.518  44.627   9.164
  453POPC   GL1 9157  24.459  44.694   8.864
  453POPC   GL2 9158  24.548  44.793   8.864
  453POPC   C1A 9159  24.492  44.628   8.564
  453POPC   D2A 9160  24.529  44.651   8.264
  453POPC   C3A 9161  24.533  44.620   7.964
  453POPC   C4A 9162  24.443  44.654   7.664
  453POPC   C1B 9163  24.519  44.899   8.564
  453POPC   C2B 9164  24.546  44.892   8.264
  453POPC   C3B 9165  24.513  44.913   7.964
  453POPC   C4B 9166  24.532  44.924   7.664
  454POPC   NC3 9167  10.550  27.623   9.464
  454POPC   PO4 9168  10.537  27.635   9.164
  454POPC   GL1 9169  10.544  27.567   8.864
  454POPC   GL2 9170  10.416  27.638   8.864
  454POPC   C1A 9171  10.551  27.587   8.564
  454POPC   D2A 9172  10.499  27.608   8.264
  454POPC   C3A 9173  10.551  27.556   7.964
  454POPC   C4A 9174  10.479  27.617   7.664
  454POPC   C1B 9175  10.295  27.658   8.564
  454POPC   C2B 9176  10.329  27.681   8.264
  454POPC   C3B 9177  10.299  27.692   7.964
  454POPC   C4B 9178  10.318  27.688   7.664
  455POPC   NC3 9179  13.599  21.380   9.464
  455POPC   PO4 9180  13.629  21.366   9.164
  455POPC   GL1 9181  13.631  21.421   8.864
  455POPC   GL2 9182  13.753  21.301   8.864
  455POPC   C1A 9183  13.578  21.394   8.564
  455POPC   D2A 9184  13.641  21.418   8.264
  455POPC   C3A 9185  13.646  21.360   7.964
  455POPC   C4A 9186  13.653  21.391   7.664
  455POPC   C1B 9187  13.831  21.283   8.564
  455POPC   C2B 9188  13.831  21.291   8.264
  455POPC   C3B 9189  13.870  21.286   7.964
  455POPC   C4B 9190  13.806  21.268   7.664
  456POPC   NC3 9191  43.839  24.512   9.464
  456POPC   PO4 9192  43.859  24.509   9.164
  456POPC   GL1 9193  43.838  24.443   8.864
  456POPC   GL2 9194  43.842  24.317   8.864
  456POPC   C1A 9195  43.847  24.528   8.564
  456POPC   D2A 9196  43.840  24.473   8.264
  456POPC   C3A 9197  43.918  24.479   7.964
  456POPC   C4A 9198  43.889  24.530   7.664
  456POPC   C1B 9199  43.938  24.252   8.564
  456POPC   C2B 9200  43.941  24.211   8.264
  456POPC   C3B 9201  43.917  24.193   7.964
  456POPC   C4B 9202  43.888  24.227   7.664
  457POPC   NC3 9203   7.425   2.745   9.464
  457POPC   PO4 9204   7.416   2.800   9.164
  457POPC   GL1 9205   7.460   2.815   8.864
  457POPC   GL2 9206   7.268   2.825   8.864
  457POPC   C1A 9207   7.409   2.767   8.564
  457POPC   D2A 9208   7.437   2.764   8.264
  457POPC   C3A 9209   7.411   2.779   7.964
  457POPC   C4A 9210   7.426   2.799   7.664
  457POPC   C1B 9211   7.140   2.836   8.564
  457POPC   C2B 9212   7.144   2.770   8.264
  457POPC   C3B 9213   7.151   2.814   7.964
  457POPC   C4B 9214   7.136   2.778   7.664
  458POPC   NC3 9215  34.625  31.424   9.464
  458POPC   PO4 9216  34.568  31.486   9.164
  458POPC   GL1 9217  34.603  31.469   8.864
  458POPC   GL2 9218  34.645  31.406   8.864
  458POPC   C1A 9219  34.619  31.455   8.564
  458POPC   D2A 9220  34.533  31.496   8.264
  458POPC   C3A 9221  34.532  31.489   7.964
  458POPC   C4A 9222  34.534  31.482   7.664
  458POPC   C1B 9223  34.820  31.293   8.564
  458POPC   C2B 9224  34.737  31.317   8.264
  458POPC   C3B 9225  34.830  31.352   7.964
  458POPC   C4B 9226  34.752  31.325   7.664
  459POPC   NC3 9227  33.012  39.280   9.464
  459POPC   PO4 9228  33.061  39.210   9.164
  459POPC   GL1 9229  32.993  39.219   8.864
  459POPC   GL2 9230  32.997  39.159   8.864
  459POPC   C1A 9231  33.027  39.229   8.564
  459POPC   D2A 9232  33.069  39.187   8.264
  459POPC   C3A 9233  33.066  39.194   7.964
  459POPC   C4A 9234  32.985  39.269   7.664
  459POPC   C1B 9235  32.960  38.949   8.564
  459POPC   C2B 9236  32.924  38.997   8.264
  459POPC   C3B 9237  32.994  39.004   7.964
  459POPC   C4B 9238  32.956  38.947   7.664
  460POPC   NC3 9239   7.422  36.901   9.464
  460POPC   PO4 9240   7.452  36.885   9.164
  460POPC   GL1 9241   7.443  36.873   8.864
  460POPC   GL2 9242   7.283  36.886   8.864
  460POPC   C1A 9243   7.425  36.905   8.564
  460POPC   D2A 9244   7.419  36.881   8.264
  460POPC   C3A 9245   7.409  36.868   7.964
  460POPC   C4A 9246   7.393  36.881   7.664
  460POPC   C1B 9247   7.219  36.956   8.564
  460POPC   C2B 9248   7.150  36.921   8.264
  460POPC   C3B 9249   7.150  36.960   7.964
  460POPC   C4B 9250   7.218  36.949   7.664
  461POPC   NC3 9251  20.603  30.649   9.464
  461POPC   PO4 9252  20.657  30.648   9.164
  461POPC   GL1 9253  20.575  30.722   8.864
  461POPC   GL2 9254  20.516  30.623   8.864
  461POPC   C1A 9255  20.589  30.706   8.564
  461POPC   D2A 9256  20.609  30.647   8.264
  461POPC   C3A 9257  20.656  30.711   7.964
  461POPC   C4A 9258  20.572  30.664   7.664
  461POPC   C1B 9259  20.393  30.593   8.564
  461POPC   C2B 9260  20.408  30.520   8.264
  461POPC   C3B 9261  20.427  30.557   7.964
  461POPC   C4B 9262  20.404  30.547   7.664
  462POPC   NC3 9263  34.626  15.193   9.464
  462POPC   PO4 9264  34.548  15.138   9.164
  462POPC   GL1 9265  34.606  15.197   8.864
  462POPC   GL2 9266  34.647  15.056   8.864
  462POPC   C1A 9267  34.550  15.145   8.564
  462POPC   D2A 9268  34.606  15.183   8.264
  462POPC   C3A 9269  34.583  15.214   7.964
  462POPC   C4A 9270  34.623  15.184   7.664
  462POPC   C1B 9271  34.604  14.891   8.564
  462POPC   C2B 9272  34.645  14.918   8.264
  462POPC   C3B 9273  34.597  14.943   7.964
  462POPC   C4B 9274  34.675  14.970   7.664
  463POPC   NC3 9275  14.359  12.060   9.464
  463POPC   PO4 9276  14.413  12.029   9.164
  463POPC   GL1 9277  14.428  12.048   8.864
  463POPC   GL2 9278  14.314  12.153   8.864
  463POPC   C1A 9279  14.438  12.125   8.564
  463POPC   D2A 9280  14.395  12.073   8.264
  463POPC   C3A 9281  14.370  12.050   7.964
  463POPC   C4A 9282  14.370  12.029   7.664
  463POPC   C1B 9283  14.260  12.202   8.564
  463POPC   C2B 9284  14.168  12.209   8.264
  463POPC   C3B 9285  14.264  12.265   7.964
  463POPC   C4B 9286  14.246  12.289   7.664
  464POPC   NC3 9287   1.947  32.980   9.464
  464POPC   PO4 9288   2.035  32.991   9.164
  464POPC   GL1 9289   2.034  33.004   8.864
  464POPC   GL2 9290   1.922  33.067   8.864
  464POPC   C1A 9291   2.006  32.997   8.564
  464POPC   D2A 9292   2.006  32.983   8.264
  464POPC   C3A 9293   2.019  33.051   7.964
  464POPC   C4A 9294   1.942  33.031   7.664
  464POPC   C1B 9295   1.839  33.168   8.564
  464POPC   C2B 9296   1.854  33.173   8.264
  464POPC   C3B 9297   1.833  33.222   7.964
  464POPC   C4B 9298   1.846  33.197   7.664
  465POPC   NC3 9299  41.518   7.433   9.464
  465POPC   PO4 9300  41.520   7.427   9.164
  465POPC   GL1 9301  41.558   7.455   8.864
  465POPC   GL2 9302  41.587   7.533   8.864
  465POPC   C1A 9303  41.601   7.389   8.564
  465POPC   D2A 9304  41.511   7.376   8.264
  465POPC   C3A 9305  41.589   7.427   7.964
  465POPC   C4A 9306  41.561   7.397   7.664
  465POPC   C1B 9307  41.625   7.643   8.564
  465POPC   C2B 9308  41.705   7.669   8.264
  465POPC   C3B 9309  41.674   7.604   7.964
  465POPC   C4B 9310  41.654   7.653   7.664
  466POPC   NC3 9311  15.153   8.179   9.464
  466POPC   PO4 9312  15.208   8.194   9.164
  466POPC   GL1 9313  15.181   8.228   8.864
  466POPC   GL2 9314  15.250   8.087   8.864
  466POPC   C1A 9315  15.171   8.203   8.564
  466POPC   D2A 9316  15.211   8.157   8.264
  466POPC   C3A 9317  15.152   8.213   7.964
  466POPC   C4A 9318  15.173   8.180   7.664
  466POPC   C1B 9319  15.273   7.962   8.564
  466POPC   C2B 9320  15.286   7.957   8.264
  466POPC   C3B 9321  15.248   7.993   7.964
  466POPC   C4B 9322  15.253   8.014   7.664
  467POPC   NC3 9323  32.280  18.247   9.464
  467POPC   PO4 9324  32.287  18.264   9.164
  467POPC   GL1 9325  32.209  18.247   8.864
  467POPC   GL2 9326  32.315  18.412   8.864
  467POPC   C1A 9327  32.275  18.301   8.564
  467POPC   D2A 9328  32.262  18.308   8.264
  467POPC   C3A 9329  32.262  18.276   7.964
  467POPC   C4A 9330  32.268  18.297   7.664
  467POPC   C1B 9331  32.384  18.497   8.564
  467POPC   C2B 9332  32.411  18.512   8.264
  467POPC   C3B 9333  32.330  18.504   7.964
  467POPC   C4B 9334  32.326  18.486   7.664
  468POPC   NC3 9335   3.501  18.260   9.464
  468POPC   PO4 9336   3.495  18.250   9.164
  468POPC   GL1 9337   3.526  18.300   8.864
  468POPC   GL2 9338   3.461  18.185   8.864
  468POPC   C1A 9339   3.557  18.263   8.564
  468POPC   D2A 9340   3.588  18.260   8.264
  468POPC   C3A 9341   3.591  18.247   7.964
  468POPC   C4A 9342   3.510  18.315   7.664
  468POPC   C1B 9343   3.356  18.062   8.564
  468POPC   C2B 9344   3.393  18.059   8.264
  468POPC   C3B 9345   3.431  18.085   7.964
  468POPC   C4B 9346   3.403  18.048   7.664
  469POPC   NC3 9347  42.333  24.442   9.464
  469POPC   PO4 9348  42.295  24.495   9.164
  469POPC   GL1 9349  42.380  24.493   8.864
  469POPC   GL2 9350  42.239  24.526   8.864
  469POPC   C1A 9351  42.343  24.475   8.564
  469POPC   D2A 9352  42.319  24.454   8.264
  469POPC   C3A 9353  42.310  24.507   7.964
  469POPC   C4A 9354  42.381  24.492   7.664
  469POPC   C1B 9355  42.169  24.665   8.564
  469POPC   C2B 9356  42.116  24.585   8.264
  469POPC   C3B 9357  42.134  24.663   7.964
  469POPC   C4B 9358  42.109  24.596   7.664
  470POPC   NC3 9359  36.082  18.311   9.464
  470POPC   PO4 9360  36.117  18.270   9.164
  470POPC   GL1 9361  36.120  18.264   8.864
  470POPC   GL2 9362  36.070  18.204   8.864
  470POPC   C1A 9363  36.135  18.246   8.564
  470POPC   D2A 9364  36.159  18.279   8.264
  470POPC   C3A 9365  36.086  18.302   7.964
  470POPC   C4A 9366  36.145  18.314   7.664
  470POPC   C1B 9367  35.991  18.085   8.564
  470POPC   C2B 9368  35.951  18.117   8.264
  470POPC   C3B 9369  36.019  18.133   7.964
  470POPC   C4B 9370  35.950  18.075   7.664
  471POPC   NC3 9371  19.068   8.949   9.464
  471POPC   PO4 9372  19.080   8.988   9.164
  471POPC   GL1 9373  19.101   9.022   8.864
  471POPC   GL2 9374  19.191   8.957   8.864
  471POPC   C1A 9375  19.032   8.942   8.564
  471POPC   D2A 9376  19.050   8.950   8.264
  471POPC   C3A 9377  19.107   8.956   7.964
  471POPC   C4A 9378  19.108   8.969   7.664
  471POPC   C1B 9379  19.231   8.882   8.564
  471POPC   C2B 9380  19.265   8.820   8.264
  471POPC   C3B 9381  19.258   8.835   7.964
  471POPC   C4B 9382  19.306   8.901   7.664
  472POPC   NC3 9383  27.600  17.544   9.464
  472POPC   PO4 9384  27.543  17.489   9.164
  472POPC   GL1 9385  27.593  17.511   8.864
  472POPC   GL2 9386  27.672  17.603   8.864
  472POPC   C1A 9387  27.545  17.548   8.564
  472POPC   D2A 9388  27.564  17.540   8.264
  472POPC   C3A 9389  27.608  17.479   7.964
  472POPC   C4A 9390  27.554  17.490   7.664
  472POPC   C1B 9391  27.820  17.664   8.564
  472POPC   C2B 9392  27.807  17.615   8.264
  472POPC   C3B 9393  27.786  17.631   7.964
  472POPC   C4B 9394  27.821  17.633   7.664
  473POPC   NC3 9395  16.696  15.945   9.464
  473POPC   PO4 9396  16.701  15.992   9.164
  473POPC   GL1 9397  16.762  15.907   8.864
  473POPC   GL2 9398  16.851  16.006   8.864
  473POPC   C1A 9399  16.774  15.938   8.564
  473POPC   D2A 9400  16.736  15.977   8.264
  473POPC   C3A 9401  16.690  15.982   7.964
  473POPC   C4A 9402  16.725  15.981   7.664
  473POPC   C1B 9403  16.870  16.150   8.564
  473POPC   C2B 9404  16.865  16.102   8.264
  473POPC   C3B 9405  16.880  16.147   7.964
  473POPC   C4B 9406  16.859  16.143   7.664
  474POPC   NC3 9407  33.837   8.928   9.464
  474POPC   PO4 9408  33.801   8.926   9.164
  474POPC   GL1 9409  33.760   9.002   8.864
  474POPC   GL2 9410  33.750   8.870   8.864
  474POPC   C1A 9411  33.817   8.931   8.564
  474POPC   D2A 9412  33.814   8.937   8.264
  474POPC   C3A 9413  33.774   9.015   7.964
  474POPC   C4A 9414  33.849   8.939   7.664
  474POPC   C1B 9415  33.751   8.746   8.564
  474POPC   C2B 9416  33.810   8.675   8.264
  474POPC   C3B 9417  33.775   8.729   7.964
  474POPC   C4B 9418  33.807   8.757   7.664
  475POPC   NC3 9419   3.542  20.650   9.464
  475POPC   PO4 9420   3.584  20.575   9.164
  475POPC   GL1 9421   3.555  20.589   8.864
  475POPC   GL2 9422   3.393  20.657   8.864
  475POPC   C1A 9423   3.505  20.621   8.564
  475POPC   D2A 9424   3.585  20.592   8.264
  475POPC   C3A 9425   3.517  20.613   7.964
  475POPC   C4A 9426   3.548  20.576   7.664
  475POPC   C1B 9427   3.297  20.702   8.564
  475POPC   C2B 9428   3.338  20.735   8.264
  475POPC   C3B 9429   3.354  20.714   7.964
  475POPC   C4B 9430   3.372  20.762   7.664
  476POPC   NC3 9431   7.470  15.217   9.464
  476POPC   PO4 9432   7.379  15.153   9.164
  476POPC   GL1 9433   7.464  15.172   8.864
  476POPC   GL2 9434   7.347  15.231   8.864
  476POPC   C1A 9435   7.463  15.219   8.564
  476POPC   D2A 9436   7.449  15.190   8.264
  476POPC   C3A 9437   7.461  15.215   7.964
  476POPC   C4A 9438   7.416  15.179   7.664
  476POPC   C1B 9439   7.208  15.349   8.564
  476POPC   C2B 9440   7.265  15.350   8.264
  476POPC   C3B 9441   7.287  15.351   7.964
  476POPC   C4B 9442   7.262  15.339   7.664
  477POPC   NC3 9443  34.528  12.042   9.464
  477POPC   PO4 9444  34.528  12.091   9.164
  477POPC   GL1 9445  34.618  12.082   8.864
  477POPC   GL2 9446  34.595  12.223   8.864
  477POPC   C1A 9447  34.607  12.068   8.564
  477POPC   D2A 9448  34.609  12.120   8.264
  477POPC   C3A 9449  34.534  12.027   7.964
  477POPC   C4A 9450  34.606  12.070   7.664
  477POPC   C1B 9451  34.602  12.287   8.564
  477POPC   C2B 9452  34.556  12.322   8.264
  477POPC   C3B 9453  34.586  12.309   7.964
  477POPC   C4B 9454  34.582  12.314   7.664
  478POPC   NC3 9455   5.836   1.994   9.464
  478POPC   PO4 9456   5.851   2.027   9.164
  478POPC   GL1 9457   5.886   2.011   8.864
  478POPC   GL2 9458   5.951   2.128   8.864
  478POPC   C1A 9459   5.833   1.960   8.564
  478POPC   D2A 9460   5.909   2.025   8.264
  478POPC   C3A 9461   5.913   1.979   7.964
  478POPC   C4A 9462   5.824   1.987   7.664
  478POPC   C1B 9463   5.992   2.147   8.564
  478POPC   C2B 9464   6.036   2.199   8.264
  478POPC   C3B 9465   6.068   2.167   7.964
  478POPC   C4B 9466   6.000   2.230   7.664
  479POPC   NC3 9467  19.020  34.589   9.464
  479POPC   PO4 9468  19.080  34.539   9.164
  479POPC   GL1 9469  19.051  34.553   8.864
  479POPC   GL2 9470  18.992  34.484   8.864
  479POPC   C1A 9471  19.103  34.545   8.564
  479POPC   D2A 9472  19.107  34.553   8.264
  479POPC   C3A 9473  19.071  34.559   7.964
  479POPC   C4A 9474  19.098  34.544   7.664
  479POPC   C1B 9475  18.844  34.368   8.564
  479POPC   C2B 9476  18.848  34.362   8.264
  479POPC   C3B 9477  18.863  34.455   7.964
  479POPC   C4B 9478  18.855  34.382   7.664
  480POPC   NC3 9479   1.990  36.158   9.464
  480POPC   PO4 9480   2.024  36.158   9.164
  480POPC   GL1 9481   2.007  36.157   8.864
  480POPC   GL2 9482   2.138  36.109   8.864
  480POPC   C1A 9483   1.948  36.080   8.564
  480POPC   D2A 9484   1.995  36.147   8.264
  480POPC   C3A 9485   2.002  36.149   7.964
  480POPC   C4A 9486   1.979  36.160   7.664
  480POPC   C1B 9487   2.237  36.135   8.564
  480POPC   C2B 9488   2.197  36.202   8.264
  480POPC   C3B 9489   2.246  36.178   7.964
  480POPC   C4B 9490   2.253  36.170   7.664
  481POPC   NC3 9491   8.962  37.693   9.464
  481POPC   PO4 9492   8.932  37.639   9.164
  481POPC   GL1 9493   9.001  37.728   8.864
  481POPC   GL2 9494   8.833  37.678   8.864
  481POPC   C1A 9495   8.958  37.645   8.564
  481POPC   D2A 9496   8.939  37.674   8.264
  481POPC   C3A 9497   8.948  37.679   7.964
  481POPC   C4A 9498   8.928  37.706   7.664
  481POPC   C1B 9499   8.682  37.693   8.564
  481POPC   C2B 9500   8.745  37.677   8.264
  481POPC   C3B 9501   8.706  37.671   7.964
  481POPC   C4B 9502   8.748  37.693   7.664
  482POPC   NC3 9503   6.622   0.484   9.464
  482POPC   PO4 9504   6.636   0.441   9.164
  482POPC   GL1 9505   6.636   0.458   8.864
  482POPC   GL2 9506   6.751   0.382   8.864
  482POPC   C1A 9507   6.605   0.392   8.564
  482POPC   D2A 9508   6.621   0.465   8.264
  482POPC   C3A 9509   6.691   0.418   7.964
  482POPC   C4A 9510   6.643   0.483   7.664
  482POPC   C1B 9511   6.851   0.338   8.564
  482POPC   C2B 9512   6.846   0.311   8.264
  482POPC   C3B 9513   6.924   0.310   7.964
  482POPC   C4B 9514   6.886   0.383   7.664
  483POPC   NC3 9515  27.636  43.920   9.464
  483POPC   PO4 9516  27.593  43.886   9.164
  483POPC   GL1 9517  27.555  43.910   8.864
  483POPC   GL2 9518  27.710  43.869   8.864
  483POPC   C1A 9519  27.614  43.890   8.564
  483POPC   D2A 9520  27.599  43.866   8.264
  483POPC   C3A 9521  27.554  43.920   7.964
  483POPC   C4A 9522  27.600  43.854   7.664
  483POPC   C1B 9523  27.835  43.782   8.564
  483POPC   C2B 9524  27.876  43.789   8.264
  483POPC   C3B 9525  27.837  43.779   7.964
  483POPC   C4B 9526  27.872  43.824   7.664
  484POPC   NC3 9527  12.885  40.755   9.464
  484POPC   PO4 9528  12.803  40.821   9.164
  484POPC   GL1 9529  12.841  40.780   8.864
  484POPC   GL2 9530  12.916  40.814   8.864
  484POPC   C1A 9531  12.879  40.813   8.564
  484POPC   D2A 9532  12.852  40.789   8.264
  484POPC   C3A 9533  12.869  40.768   7.964
  484POPC   C4A 9534  12.808  40.758   7.664
  484POPC   C1B 9535  13.045  40.899   8.564
  484POPC   C2B 9536  13.083  40.930   8.264
  484POPC   C3B 9537  13.121  40.858   7.964
  484POPC   C4B 9538  13.051  40.867   7.664
  485POPC   NC3 9539  21.404  15.934   9.464
  485POPC   PO4 9540  21.379  15.922   9.164
  485POPC   GL1 9541  21.337  15.990   8.864
  485POPC   GL2 9542  21.270  15.872   8.864
  485POPC   C1A 9543  21.354  15.973   8.564
  485POPC   D2A 9544  21.379  15.944   8.264
  485POPC   C3A 9545  21.365  16.000   7.964
  485POPC   C4A 9546  21.401  16.005   7.664
  485POPC   C1B 9547  21.192  15.772   8.564
  485POPC   C2B 9548  21.208  15.809   8.264
  485POPC   C3B 9549  21.224  15.772   7.964
  485POPC   C4B 9550  21.198  15.810   7.664
  486POPC   NC3 9551  19.023  15.993   9.464
  486POPC   PO4 9552  19.010  15.979   9.164
  486POPC   GL1 9553  19.090  15.968   8.864
  486POPC   GL2 9554  19.120  15.796   8.864
  486POPC   C1A 9555  19.020  15.967   8.564
  486POPC   D2A 9556  19.089  15.977   8.264
  486POPC   C3A 9557  19.024  15.939   7.964
  486POPC   C4A 9558  19.107  15.955   7.664
  486POPC   C1B 9559  19.191  15.764   8.564
  486POPC   C2B 9560  19.161  15.757   8.264
  486POPC   C3B 9561  19.185  15.694   7.964
  486POPC   C4B 9562  19.204  15.766   7.664
  487POPC   NC3 9563  42.285  30.674   9.464
  487POPC   PO4 9564  42.342  30.707   9.164
  487POPC   GL1 9565  42.320  30.719   8.864
  487POPC   GL2 9566  42.373  30.780   8.864
  487POPC   C1A 9567  42.338  30.729   8.564
  487POPC   D2A 9568  42.301  30.663   8.264
  487POPC   C3A 9569  42.310  30.735   7.964
  487POPC   C4A 9570  42.290  30.707   7.664
  487POPC   C1B 9571  42.319  30.921   8.564
  487POPC   C2B 9572  42.341  30.942   8.264
  487POPC   C3B 9573  42.360  30.990   7.964
  487POPC   C4B 9574  42.361  30.924   7.664
  488POPC   NC3 9575  28.397  19.095   9.464
  488POPC   PO4 9576  28.366  19.034   9.164
  488POPC   GL1 9577  28.358  19.083   8.864
  488POPC   GL2 9578  28.287  19.056   8.864
  488POPC   C1A 9579  28.387  19.061   8.564
  488POPC   D2A 9580  28.331  19.105   8.264
  488POPC   C3A 9581  28.411  19.021   7.964
  488POPC   C4A 9582  28.326  19.085   7.664
  488POPC   C1B 9583  28.109  19.048   8.564
  488POPC   C2B 9584  28.095  19.029   8.264
  488POPC   C3B 9585  28.145  19.047   7.964
  488POPC   C4B 9586  28.170  18.997   7.664
  489POPC   NC3 9587  25.225  23.752   9.464
  489POPC   PO4 9588  25.216  23.713   9.164
  489POPC   GL1 9589  25.218  23.749   8.864
  489POPC   GL2 9590  25.148  23.584   8.864
  489POPC   C1A 9591  25.306  23.690   8.564
  489POPC   D2A 9592  25.282  23.739   8.264
  489POPC   C3A 9593  25.262  23.698   7.964
  489POPC   C4A 9594  25.287  23.670   7.664
  489POPC   C1B 9595  25.120  23.515   8.564
  489POPC   C2B 9596  25.116  23.481   8.264
  489POPC   C3B 9597  25.102  23.472   7.964
  489POPC   C4B 9598  25.123  23.518   7.664
  490POPC   NC3 9599  26.060  22.907   9.464
  490POPC   PO4 9600  26.055  22.895   9.164
  490POPC   GL1 9601  26.051  22.929   8.864
  490POPC   GL2 9602  25.956  23.001   8.864
  490POPC   C1A 9603  25.995  22.974   8.564
  490POPC   D2A 9604  26.029  22.957   8.264
  490POPC   C3A 9605  25.994  22.952   7.964
  490POPC   C4A 9606  26.089  22.905   7.664
  490POPC   C1B 9607  25.881  23.092   8.564
  490POPC   C2B 9608  25.843  23.141   8.264
  490POPC   C3B 9609  25.839  23.091   7.964
  490POPC   C4B 9610  25.911  23.145   7.664
  491POPC   NC3 9611   0.420  14.407   9.464
  491POPC   PO4 9612   0.466  14.375   9.164
  491POPC   GL1 9613   0.483  14.389   8.864
  491POPC   GL2 9614   0.401  14.315   8.864
  491POPC   C1A 9615   0.395  14.416   8.564
  491POPC   D2A 9616   0.471  14.357   8.264
  491POPC   C3A 9617   0.396  14.445   7.964
  491POPC   C4A 9618   0.392  14.416   7.664
  491POPC   C1B 9619   0.431  14.140   8.564
  491POPC   C2B 9620   0.437  14.145   8.264
  491POPC   C3B 9621   0.375  14.202   7.964
  491POPC   C4B 9622   0.451  14.162   7.664
  492POPC   NC3 9623  32.278  19.109   9.464
  492POPC   PO4 9624  32.274  19.015   9.164
  492POPC   GL1 9625  32.232  19.078   8.864
  492POPC   GL2 9626  32.377  19.092   8.864
  492POPC   C1A 9627  32.260  19.054   8.564
  492POPC   D2A 9628  32.198  19.057   8.264
  492POPC   C3A 9629  32.219  19.029   7.964
  492POPC   C4A 9630  32.214  19.085   7.664
  492POPC   C1B 9631  32.511  19.149   8.564
  492POPC   C2B 9632  32.436  19.139   8.264
  492POPC   C3B 9633  32.419  19.195   7.964
  492POPC   C4B 9634  32.489  19.228   7.664
  493POPC   NC3 9635  33.814  21.340   9.464
  493POPC   PO4 9636  33.808  21.425   9.164
  493POPC   GL1 9637  33.774  21.406   8.864
  493POPC   GL2 9638  33.635  21.341   8.864
  493POPC   C1A 9639  33.829  21.389   8.564
  493POPC   D2A 9640  33.792  21.354   8.264
  493POPC   C3A 9641  33.769  21.374   7.964
  493POPC   C4A 9642  33.809  21.410   7.664
  493POPC   C1B 9643  33.594  21.277   8.564
  493POPC   C2B 9644  33.544  21.290   8.264
  493POPC   C3B 9645  33.535  21.334   7.964
  493POPC   C4B 9646  33.593  21.296   7.664
  494POPC   NC3 9647  19.019  43.841   9.464
  494POPC   PO4 9648  19.054  43.874   9.164
  494POPC   GL1 9649  19.012  43.926   8.864
  494POPC   GL2 9650  19.176  43.763   8.864
  494POPC   C1A 9651  19.092  43.866   8.564
  494POPC   D2A 9652  19.058  43.920   8.264
  494POPC   C3A 9653  19.073  43.838   7.964
  494POPC   C4A 9654  19.097  43.926   7.664
  494POPC   C1B 9655  19.262  43.757   8.564
  494POPC   C2B 9656  19.205  43.777   8.264
  494POPC   C3B 9657  19.294  43.744   7.964
  494POPC   C4B 9658  19.234  43.714   7.664
  495POPC   NC3 9659  10.545  37.700   9.464
  495POPC   PO4 9660  10.560  37.683   9.164
  495POPC   GL1 9661  10.540  37.716   8.864
  495POPC   GL2 9662  10.420  37.765   8.864
  495POPC   C1A 9663  10.475  37.633   8.564
  495POPC   D2A 9664  10.518  37.641   8.264
  495POPC   C3A 9665  10.550  37.676   7.964
  495POPC   C4A 9666  10.531  37.697   7.664
  495POPC   C1B 9667  10.284  37.751   8.564
  495POPC   C2B 9668  10.246  37.800   8.264
  495POPC   C3B 9669  10.247  37.756   7.964
  495POPC   C4B 9670  10.248  37.772   7.664
  496POPC   NC3 9671  30.657  32.297   9.464
  496POPC   PO4 9672  30.735  32.217   9.164
  496POPC   GL1 9673  30.708  32.295   8.864
  496POPC   GL2 9674  30.769  32.320   8.864
  496POPC   C1A 9675  30.657  32.246   8.564
  496POPC   D2A 9676  30.696  32.246   8.264
  496POPC   C3A 9677  30.721  32.281   7.964
  496POPC   C4A 9678  30.655  32.261   7.664
  496POPC   C1B 9679  30.837  32.399   8.564
  496POPC   C2B 9680  30.891  32.419   8.264
  496POPC   C3B 9681  30.839  32.391   7.964
  496POPC   C4B 9682  30.888  32.417   7.664
  497POPC   NC3 9683  20.615  26.053   9.464
  497POPC   PO4 9684  20.583  26.064   9.164
  497POPC   GL1 9685  20.579  25.997   8.864
  497POPC   GL2 9686  20.510  26.105   8.864
  497POPC   C1A 9687  20.648  26.000   8.564
  497POPC   D2A 9688  20.631  26.007   8.264
  497POPC   C3A 9689  20.641  26.027   7.964
  497POPC   C4A 9690  20.582  26.067   7.664
  497POPC   C1B 9691  20.449  26.188   8.564
  497POPC   C2B 9692  20.466  26.232   8.264
  497POPC   C3B 9693  20.419  26.180   7.964
  497POPC   C4B 9694  20.429  26.269   7.664
  498POPC   NC3 9695  17.466  28.344   9.464
  498POPC   PO4 9696  17.520  28.370   9.164
  498POPC   GL1 9697  17.463  28.338   8.864
  498POPC   GL2 9698  17.359  28.312   8.864
  498POPC   C1A 9699  17.505  28.335   8.564
  498POPC   D2A 9700  17.490  28.351   8.264
  498POPC   C3A 9701  17.521  28.387   7.964
  498POPC   C4A 9702  17.478  28.383   7.664
  498POPC   C1B 9703  17.244  28.302   8.564
  498POPC   C2B 9704  17.271  28.281   8.264
  498POPC   C3B 9705  17.314  28.284   7.964
  498POPC   C4B 9706  17.286  28.220   7.664
  499POPC   NC3 9707   4.294  28.344   9.464
  499POPC   PO4 9708   4.365  28.372   9.164
  499POPC   GL1 9709   4.290  28.356   8.864
  499POPC   GL2 9710   4.222  28.290   8.864
  499POPC   C1A 9711   4.327  28.320   8.564
  499POPC   D2A 9712   4.302  28.401   8.264
  499POPC   C3A 9713   4.291  28.372   7.964
  499POPC   C4A 9714   4.365  28.365   7.664
  499POPC   C1B 9715   4.249  28.099   8.564
  499POPC   C2B 9716   4.217  28.157   8.264
  499POPC   C3B 9717   4.260  28.172   7.964
  499POPC   C4B 9718   4.243  28.143   7.664
  500POPC   NC3 9719   8.979  13.624   9.464
  500POPC   PO4 9720   8.943  13.620   9.164
  500POPC   GL1 9721   9.014  13.612   8.864
  500POPC   GL2 9722   8.985  13.515   8.864
  500POPC   C1A 9723   8.988  13.616   8.564
  500POPC   D2A 9724   8.998  13.616   8.264
  500POPC   C3A 9725   8.997  13.584   7.964
  500POPC   C4A 9726   8.953  13.655   7.664
  500POPC   C1B 9727   9.093  13.386   8.564
  500POPC   C2B 9728   9.111  13.351   8.264
  500POPC   C3B 9729   9.084  13.356   7.964
  500POPC   C4B 9730   9.114  13.394   7.664
  501POPC   NC3 9731  29.909  19.105   9.464
  501POPC   PO4 9732  29.919  19.045   9.164
  501POPC   GL1 9733  29.945  19.024   8.864
  501POPC   GL2 9734  29.934  18.974   8.864
  501POPC   C1A 9735  29.897  19.079   8.564
  501POPC   D2A 9736  29.896  19.055   8.264
  501POPC   C3A 9737  29.945  19.042   7.964
  501POPC   C4A 9738  29.935  19.066   7.664
  501POPC   C1B 9739  29.903  18.821   8.564
  501POPC   C2B 9740  29.956  18.822   8.264
  501POPC   C3B 9741  29.868  18.836   7.964
  501POPC   C4B 9742  29.881  18.760   7.664
  502POPC   NC3 9743  14.390  22.896   9.464
  502POPC   PO4 9744  14.359  22.931   9.164
  502POPC   GL1 9745  14.384  22.898   8.864
  502POPC   GL2 9746  14.445  23.040   8.864
  502POPC   C1A 9747  14.363  22.918   8.564
  502POPC   D2A 9748  14.396  22.947   8.264
  502POPC   C3A 9749  14.444  22.901   7.964
  502POPC   C4A 9750  14.382  22.923   7.664
  502POPC   C1B 9751  14.566  23.143   8.564
  502POPC   C2B 9752  14.496  23.138   8.264
  502POPC   C3B 9753  14.538  23.180   7.964
  502POPC   C4B 9754  14.559  23.133   7.664
  503POPC   NC3 9755  39.222  26.013   9.464
  503POPC   PO4 9756  39.186  26.056   9.164
  503POPC   GL1 9757  39.182  26.022   8.864
  503POPC   GL2 9758  39.151  26.016   8.864
  503POPC   C1A 9759  39.210  26.047   8.564
  503POPC   D2A 9760  39.204  26.062   8.264
  503POPC   C3A 9761  39.241  26.063   7.964
  503POPC   C4A 9762  39.215  26.087   7.664
  503POPC   C1B 9763  39.005  25.941   8.564
  503POPC   C2B 9764  39.036  25.958   8.264
  503POPC   C3B 9765  39.040  26.003   7.964
  503POPC   C4B 9766  39.004  25.970   7.664
  504POPC   NC3 9767   7.457  29.951   9.464
  504POPC   PO4 9768   7.392  29.892   9.164
  504POPC   GL1 9769   7.373  29.898   8.864
  504POPC   GL2 9770   7.503  29.946   8.864
  504POPC   C1A 9771   7.455  29.878   8.564
  504POPC   D2A 9772   7.431  29.959   8.264
  504POPC   C3A 9773   7.419  29.901   7.964
  504POPC   C4A 9774   7.408  29.901   7.664
  504POPC   C1B 9775   7.622  29.906   8.564
  504POPC   C2B 9776   7.639  29.879   8.264
  504POPC   C3B 9777   7.697  29.890   7.964
  504POPC   C4B 9778   7.623  29.869   7.664
  505POPC   NC3 9779  22.962   0.441   9.464
  505POPC   PO4 9780  22.914   0.451   9.164
  505POPC   GL1 9781  22.934   0.402   8.864
  505POPC   GL2 9782  22.800   0.333   8.864
  505POPC   C1A 9783  22.986   0.415   8.564
  505POPC   D2A 9784  22.936   0.459   8.264
  505POPC   C3A 9785  22.920   0.470   7.964
  505POPC   C4A 9786  22.962   0.486   7.664
  505POPC   C1B 9787  22.746   0.299   8.564
  505POPC   C2B 9788  22.700   0.296   8.264
  505POPC   C3B 9789  22.745   0.291   7.964
  505POPC   C4B 9790  22.717   0.263   7.664
  506POPC   NC3 9791   7.390  32.209   9.464
  506POPC   PO4 9792   7.423  32.230   9.164
  506POPC   GL1 9793   7.452  32.253   8.864
  506POPC   GL2 9794   7.439  32.112   8.864
  506POPC   C1A 9795   7.455  32.278   8.564
  506POPC   D2A 9796   7.427  32.249   8.264
  506POPC   C3A 9797   7.413  32.206   7.964
  506POPC   C4A 9798   7.427  32.211   7.664
  506POPC   C1B 9799   7.470  31.970   8.564
  506POPC   C2B 9800   7.425  32.026   8.264
  506POPC   C3B 9801   7.490  31.985   7.964
  506POPC   C4B 9802   7.473  31.975   7.664
  507POPC   NC3 9803  28.391   4.355   9.464
  507POPC   PO4 9804  28.334   4.305   9.164
  507POPC   GL1 9805  28.366   4.301   8.864
  507POPC   GL2 9806  28.410   4.427   8.864
  507POPC   C1A 9807  28.342   4.323   8.564
  507POPC   D2A 9808  28.324   4.336   8.264
  507POPC   C3A 9809  28.395   4.332   7.964
  507POPC   C4A 9810  28.362   4.297   7.664
  507POPC   C1B 9811  28.501   4.478   8.564
  507POPC   C2B 9812  28.508   4.542   8.264
  507POPC   C3B 9813  28.549   4.511   7.964
  507POPC   C4B 9814  28.466   4.561   7.664
  508POPC   NC3 9815  22.200  29.102   9.464
  508POPC   PO4 9816  22.131  29.109   9.164
  508POPC   GL1 9817  22.128  29.132   8.864
  508POPC   GL2 9818  22.235  29.073   8.864
  508POPC   C1A 9819  22.120  29.114   8.564
  508POPC   D2A 9820  22.190  29.137   8.264
  508POPC   C3A 9821  22.150  29.194   7.964
  508POPC   C4A 9822  22.196  29.171   7.664
  508POPC   C1B 9823  22.240  28.923   8.564
  508POPC   C2B 9824  22.318  28.930   8.264
  508POPC   C3B 9825  22.315  28.887   7.964
  508POPC   C4B 9826  22.277  28.889   7.664
  509POPC   NC3 9827  22.915  14.382   9.464
  509POPC   PO4 9828  22.898  14.357   9.164
  509POPC   GL1 9829  22.933  14.383   8.864
  509POPC   GL2 9830  22.808  14.386   8.864
  509POPC   C1A 9831  22.964  14.397   8.564
  509POPC   D2A 9832  22.895  14.414   8.264
  509POPC   C3A 9833  22.962  14.430   7.964
  509POPC   C4A 9834  22.972  14.445   7.664
  509POPC   C1B 9835  22.670  14.278   8.564
  509POPC   C2B 9836  22.701  14.352   8.264
  509POPC   C3B 9837  22.665  14.350   7.964
  509POPC   C4B 9838  22.667  14.297   7.664
  510POPC   NC3 9839  36.088  13.670   9.464
  510POPC   PO4 9840  36.159  13.634   9.164
  510POPC   GL1 9841  36.084  13.673   8.864
  510POPC   GL2 9842  36.041  13.538   8.864
  510POPC   C1A 9843  36.091  13.657   8.564
  510POPC   D2A 9844  36.105  13.590   8.264
  510POPC   C3A 9845  36.090  13.627   7.964
  510POPC   C4A 9846  36.084  13.609   7.664
  510POPC   C1B 9847  35.970  13.424   8.564
  510POPC   C2B 9848  35.965  13.509   8.264
  510POPC   C3B 9849  35.973  13.449   7.964
  510POPC   C4B 9850  35.953  13.468   7.664
  511POPC   NC3 9851  28.331  42.311   9.464
  511POPC   PO4 9852  28.364  42.346   9.164
  511POPC   GL1 9853  28.324  42.333   8.864
  511POPC   GL2 9854  28.266  42.391   8.864
  511POPC   C1A 9855  28.413  42.343   8.564
  511POPC   D2A 9856  28.325  42.344   8.264
  511POPC   C3A 9857  28.394  42.331   7.964
  511POPC   C4A 9858  28.355  42.318   7.664
  511POPC   C1B 9859  28.089  42.374   8.564
  511POPC   C2B 9860  28.125  42.416   8.264
  511POPC   C3B 9861  28.120  42.429   7.964
  511POPC   C4B 9862  28.134  42.408   7.664
  512POPC   NC3 9863   4.363  13.659   9.464
  512POPC   PO4 9864   4.276  13.591   9.164
  512POPC   GL1 9865   4.345  13.635   8.864
  512POPC   GL2 9866   4.146  13.638   8.864
  512POPC   C1A 9867   4.366  13.671   8.564
  512POPC   D2A 9868   4.286  13.671   8.264
  512POPC   C3A 9869   4.358  13.638   7.964
  512POPC   C4A 9870   4.307  13.628   7.664
  512POPC   C1B 9871   4.049  13.663   8.564
  512POPC   C2B 9872   4.076  13.698   8.264
  512POPC   C3B 9873   4.022  13.698   7.964
  512POPC   C4B 9874   4.121  13.682   7.664
  513POPC   NC3 9875  33.810  43.131   9.464
  513POPC   PO4 9876  33.783  43.155   9.164
  513POPC   GL1 9877  33.848  43.072   8.864
  513POPC   GL2 9878  33.655  43.022   8.864
  513POPC   C1A 9879  33.787  43.135   8.564
  513POPC   D2A 9880  33.847  43.088   8.264
  513POPC   C3A 9881  33.847  43.132   7.964
  513POPC   C4A 9882  33.821  43.091   7.664
  513POPC   C1B 9883  33.637  42.999   8.564
  513POPC   C2B 9884  33.628  42.990   8.264
  513POPC   C3B 9885  33.638  42.987   7.964
  513POPC   C4B 9886  33.612  42.945   7.664
  514POPC   NC3 9887  29.106  40.013   9.464
  514POPC   PO4 9888  29.180  40.047   9.164
  514POPC   GL1 9889  29.119  39.994   8.864
  514POPC   GL2 9890  29.082  40.087   8.864
  514POPC   C1A 9891  29.132  39.996   8.564
  514POPC   D2A 9892  29.189  39.969   8.264
  514POPC   C3A 9893  29.107  40.040   7.964
  514POPC   C4A 9894  29.166  40.008   7.664
  514POPC   C1B 9895  29.120  40.234   8.564
  514POPC   C2B 9896  29.054  40.214   8.264
  514POPC   C3B 9897  29.104  40.232   7.964
  514POPC   C4B 9898  29.104  40.220   7.664
  515POPC   NC3 9899  13.592  27.600   9.464
  515POPC   PO4 9900  13.596  27.620   9.164
  515POPC   GL1 9901  13.581  27.583   8.864
  515POPC   GL2 9902  13.734  27.547   8.864
  515POPC   C1A 9903  13.670  27.591   8.564
  515POPC   D2A 9904  13.580  27.564   8.264
  515POPC   C3A 9905  13.630  27.572   7.964
  515POPC   C4A 9906  13.622  27.614   7.664
  515POPC   C1B 9907  13.879  27.468   8.564
  515POPC   C2B 9908  13.844  27.462   8.264
  515POPC   C3B 9909  13.845  27.473   7.964
  515POPC   C4B 9910  13.788  27.466   7.664
  516POPC   NC3 9911  19.786  37.695   9.464
  516POPC   PO4 9912  19.786  37.713   9.164
  516POPC   GL1 9913  19.838  37.632   8.864
  516POPC   GL2 9914  19.667  37.665   8.864
  516POPC   C1A 9915  19.864  37.654   8.564
  516POPC   D2A 9916  19.856  37.681   8.264
  516POPC   C3A 9917  19.803  37.712   7.964
  516POPC   C4A 9918  19.788  37.712   7.664
  516POPC   C1B 9919  19.638  37.673   8.564
  516POPC   C2B 9920  19.615  37.591   8.264
  516POPC   C3B 9921  19.612  37.600   7.964
  516POPC   C4B 9922  19.623  37.664   7.664
  517POPC   NC3 9923  22.966  22.170   9.464
  517POPC   PO4 9924  22.967  22.202   9.164
  517POPC   GL1 9925  22.949  22.174   8.864
  517POPC   GL2 9926  22.891  22.032   8.864
  517POPC   C1A 9927  22.961  22.165   8.564
  517POPC   D2A 9928  22.962  22.161   8.264
  517POPC   C3A 9929  22.983  22.153   7.964
  517POPC   C4A 9930  22.945  22.151   7.664
  517POPC   C1B 9931  22.795  21.950   8.564
  517POPC   C2B 9932  22.791  21.928   8.264
  517POPC   C3B 9933  22.859  21.924   7.964
  517POPC   C4B 9934  22.847  21.914   7.664
  518POPC   NC3 9935  32.221  21.352   9.464
  518POPC   PO4 9936  32.291  21.359   9.164
  518POPC   GL1 9937  32.221  21.377   8.864
  518POPC   GL2 9938  32.332  21.247   8.864
  518POPC   C1A 9939  32.278  21.369   8.564
  518POPC   D2A 9940  32.293  21.376   8.264
  518POPC   C3A 9941  32.243  21.412   7.964
  518POPC   C4A 9942  32.293  21.350   7.664
  518POPC   C1B 9943  32.453  21.166   8.564
  518POPC   C2B 9944  32.419  21.165   8.264
  518POPC   C3B 9945  32.454  21.189   7.964
  518POPC   C4B 9946  32.418  21.213   7.664
  519POPC   NC3 9947  34.594   1.256   9.464
  519POPC   PO4 9948  34.615   1.166   9.164
  519POPC   GL1 9949  34.588   1.213   8.864
  519POPC   GL2 9950  34.703   1.075   8.864
  519POPC   C1A 9951  34.584   1.258   8.564
  519POPC   D2A 9952  34.601   1.225   8.264
  519POPC   C3A 9953  34.568   1.182   7.964
  519POPC   C4A 9954  34.550   1.191   7.664
  519POPC   C1B 9955  34.754   1.001   8.564
  519POPC   C2B 9956  34.745   1.062   8.264
  519POPC   C3B 9957  34.771   1.063   7.964
  519POPC   C4B 9958  34.790   0.981   7.664
  520POPC   NC3 9959  24.539   9.738   9.464
  520POPC   PO4 9960  24.479   9.720   9.164
  520POPC   GL1 9961  24.465   9.709   8.864
  520POPC   GL2 9962  24.626   9.776   8.864
  520POPC   C1A 9963  24.448   9.761   8.564
  520POPC   D2A 9964  24.444   9.770   8.264
  520POPC   C3A 9965  24.462   9.771   7.964
  520POPC   C4A 9966  24.452   9.779   7.664
  520POPC   C1B 9967  24.663   9.849   8.564
  520POPC   C2B 9968  24.726   9.869   8.264
  520POPC   C3B 9969  24.702   9.835   7.964
  520POPC   C4B 9970  24.745   9.918   7.664
  521POPC   NC3 9971  31.478   8.189   9.464
  521POPC   PO4 9972  31.508   8.234   9.164
  521POPC   GL1 9973  31.456   8.208   8.864
  521POPC   GL2 9974  31.405   8.319   8.864
  521POPC   C1A 9975  31.501   8.195   8.564
  521POPC   D2A 9976  31.508   8.201   8.264
  521POPC   C3A 9977  31.446   8.191   7.964
  521POPC   C4A 9978  31.457   8.234   7.664
  521POPC   C1B 9979  31.270   8.319   8.564
  521POPC   C2B 9980  31.308   8.399   8.264
  521POPC   C3B 9981  31.324   8.381   7.964
  521POPC   C4B 9982  31.265   8.328   7.664
  522POPC   NC3 9983  15.188  12.886   9.464
  522POPC   PO4 9984  15.202  12.900   9.164
  522POPC   GL1 9985  15.222  12.859   8.864
  522POPC   GL2 9986  15.125  12.928   8.864
  522POPC   C1A 9987  15.167  12.838   8.564
  522POPC   D2A 9988  15.208  12.865   8.264
  522POPC   C3A 9989  15.219  12.809   7.964
  522POPC   C4A 9990  15.181  12.902   7.664
  522POPC   C1B 9991  15.058  13.077   8.564
  522POPC   C2B 9992  15.040  13.058   8.264
  522POPC   C3B 9993  15.060  13.070   7.964
  522POPC   C4B 9994  15.080  13.097   7.664
  523POPC   NC3 9995  36.900  40.001   9.464
  523POPC   PO4 9996  36.882  40.055   9.164
  523POPC   GL1 9997  36.911  39.997   8.864
  523POPC   GL2 9998  37.015  39.973   8.864
  523POPC   C1A 9999  36.934  40.055   8.564
  523POPC   D2A10000  36.890  39.987   8.264
  523POPC   C3A10001  36.885  39.962   7.964
  523POPC   C4A10002  36.875  40.005   7.664
  523POPC   C1B10003  37.127  39.871   8.564
  523POPC   C2B10004  37.092  39.817   8.264
  523POPC   C3B10005  37.047  39.827   7.964
  523POPC   C4B10006  37.072  39.806   7.664
  524POPC   NC310007  14.358  38.473   9.464
  524POPC   PO410008  14.372  38.491   9.164
  524POPC   GL110009  14.434  38.448   8.864
  524POPC   GL210010  14.413  38.291   8.864
  524POPC   C1A10011  14.440  38.502   8.564
  524POPC   D2A10012  14.426  38.503   8.264
  524POPC   C3A10013  14.383  38.448   7.964
  524POPC   C4A10014  14.400  38.435   7.664
  524POPC   C1B10015  14.493  38.204   8.564
  524POPC   C2B10016  14.418  38.231   8.264
  524POPC   C3B10017  14.453  38.167   7.964
  524POPC   C4B10018  14.435  38.166   7.664
  525POPC   NC310019  15.963  20.599   9.464
  525POPC   PO410020  15.988  20.582   9.164
  525POPC   GL110021  15.968  20.593   8.864
  525POPC   GL210022  16.002  20.769   8.864
  525POPC   C1A10023  15.939  20.572   8.564
  525POPC   D2A10024  15.994  20.654   8.264
  525POPC   C3A10025  16.004  20.648   7.964
  525POPC   C4A10026  15.957  20.600   7.664
  525POPC   C1B10027  15.972  20.846   8.564
  525POPC   C2B10028  16.011  20.871   8.264
  525POPC   C3B10029  15.942  20.829   7.964
  525POPC   C4B10030  16.009  20.882   7.664
  526POPC   NC310031  34.583  41.527   9.464
  526POPC   PO410032  34.620  41.527   9.164
  526POPC   GL110033  34.557  41.580   8.864
  526POPC   GL210034  34.558  41.693   8.864
  526POPC   C1A10035  34.571  41.532   8.564
  526POPC   D2A10036  34.529  41.601   8.264
  526POPC   C3A10037  34.544  41.581   7.964
  526POPC   C4A10038  34.583  41.583   7.664
  526POPC   C1B10039  34.557  41.775   8.564
  526POPC   C2B10040  34.477  41.817   8.264
  526POPC   C3B10041  34.557  41.759   7.964
  526POPC   C4B10042  34.521  41.834   7.664
  527POPC   NC310043  14.373   5.918   9.464
  527POPC   PO410044  14.363   5.896   9.164
  527POPC   GL110045  14.376   5.918   8.864
  527POPC   GL210046  14.369   5.767   8.864
  527POPC   C1A10047  14.365   5.855   8.564
  527POPC   D2A10048  14.418   5.838   8.264
  527POPC   C3A10049  14.446   5.884   7.964
  527POPC   C4A10050  14.434   5.894   7.664
  527POPC   C1B10051  14.443   5.641   8.564
  527POPC   C2B10052  14.415   5.646   8.264
  527POPC   C3B10053  14.463   5.640   7.964
  527POPC   C4B10054  14.430   5.654   7.664
  528POPC   NC310055  11.346  21.387   9.464
  528POPC   PO410056  11.313  21.340   9.164
  528POPC   GL110057  11.319  21.397   8.864
  528POPC   GL210058  11.406  21.404   8.864
  528POPC   C1A10059  11.317  21.394   8.564
  528POPC   D2A10060  11.253  21.419   8.264
  528POPC   C3A10061  11.270  21.362   7.964
  528POPC   C4A10062  11.269  21.404   7.664
  528POPC   C1B10063  11.517  21.420   8.564
  528POPC   C2B10064  11.561  21.417   8.264
  528POPC   C3B10065  11.497  21.412   7.964
  528POPC   C4B10066  11.501  21.489   7.664
  529POPC   NC310067  18.264  33.817   9.464
  529POPC   PO410068  18.262  33.758   9.164
  529POPC   GL110069  18.281  33.819   8.864
  529POPC   GL210070  18.177  33.829   8.864
  529POPC   C1A10071  18.247  33.750   8.564
  529POPC   D2A10072  18.321  33.808   8.264
  529POPC   C3A10073  18.329  33.802   7.964
  529POPC   C4A10074  18.261  33.827   7.664
  529POPC   C1B10075  18.009  33.844   8.564
  529POPC   C2B10076  18.040  33.892   8.264
  529POPC   C3B10077  18.022  33.848   7.964
  529POPC   C4B10078  18.021  33.891   7.664
  530POPC   NC310079  33.061  29.105   9.464
  530POPC   PO410080  32.997  29.154   9.164
  530POPC   GL110081  32.999  29.156   8.864
  530POPC   GL210082  33.136  29.263   8.864
  530POPC   C1A10083  32.987  29.143   8.564
  530POPC   D2A10084  33.058  29.155   8.264
  530POPC   C3A10085  32.998  29.131   7.964
  530POPC   C4A10086  32.995  29.139   7.664
  530POPC   C1B10087  33.155  29.297   8.564
  530POPC   C2B10088  33.224  29.372   8.264
  530POPC   C3B10089  33.213  29.297   7.964
  530POPC   C4B10090  33.243  29.273   7.664
  531POPC   NC310091   5.114  36.943   9.464
  531POPC   PO410092   5.139  36.931   9.164
  531POPC   GL110093   5.089  36.861   8.864
  531POPC   GL210094   5.214  36.828   8.864
  531POPC   C1A10095   5.124  36.945   8.564
  531POPC   D2A10096   5.061  36.907   8.264
  531POPC   C3A10097   5.091  36.912   7.964
  531POPC   C4A10098   5.104  36.935   7.664
  531POPC   C1B10099   5.352  36.877   8.564
  531POPC   C2B10100   5.378  36.791   8.264
  531POPC   C3B10101   5.326  36.788   7.964
  531POPC   C4B10102   5.357  36.783   7.664
  532POPC   NC310103   6.657  22.206   9.464
  532POPC   PO410104   6.667  22.195   9.164
  532POPC   GL110105   6.636  22.169   8.864
  532POPC   GL210106   6.666  22.283   8.864
  532POPC   C1A10107   6.607  22.148   8.564
  532POPC   D2A10108   6.638  22.159   8.264
  532POPC   C3A10109   6.663  22.201   7.964
  532POPC   C4A10110   6.619  22.189   7.664
  532POPC   C1B10111   6.748  22.413   8.564
  532POPC   C2B10112   6.782  22.343   8.264
  532POPC   C3B10113   6.748  22.400   7.964
  532POPC   C4B10114   6.730  22.381   7.664
  533POPC   NC310115  36.115   5.079   9.464
  533POPC   PO410116  36.138   5.074   9.164
  533POPC   GL110117  36.151   5.077   8.864
  533POPC   GL210118  36.240   5.063   8.864
  533POPC   C1A10119  36.110   5.091   8.564
  533POPC   D2A10120  36.153   5.101   8.264
  533POPC   C3A10121  36.168   5.053   7.964
  533POPC   C4A10122  36.164   5.043   7.664
  533POPC   C1B10123  36.329   5.035   8.564
  533POPC   C2B10124  36.395   5.060   8.264
  533POPC   C3B10125  36.338   5.062   7.964
  533POPC   C4B10126  36.410   5.020   7.664
  534POPC   NC310127   6.621   9.699   9.464
  534POPC   PO410128   6.639   9.789   9.164
  534POPC   GL110129   6.642   9.739   8.864
  534POPC   GL210130   6.549   9.744   8.864
  534POPC   C1A10131   6.599   9.727   8.564
  534POPC   D2A10132   6.627   9.730   8.264
  534POPC   C3A10133   6.640   9.733   7.964
  534POPC   C4A10134   6.645   9.792   7.664
  534POPC   C1B10135   6.382   9.723   8.564
  534POPC   C2B10136   6.392   9.643   8.264
  534POPC   C3B10137   6.373   9.722   7.964
  534POPC   C4B10138   6.401   9.712   7.664
  535POPC   NC310139   9.021  19.039   9.464
  535POPC   PO410140   9.014  19.097   9.164
  535POPC   GL110141   8.950  19.068   8.864
  535POPC   GL210142   9.112  19.088   8.864
  535POPC   C1A10143   8.985  19.092   8.564
  535POPC   D2A10144   8.942  19.068   8.264
  535POPC   C3A10145   8.940  19.057   7.964
  535POPC   C4A10146   8.971  19.011   7.664
  535POPC   C1B10147   9.265  19.009   8.564
  535POPC   C2B10148   9.181  19.097   8.264
  535POPC   C3B10149   9.188  19.033   7.964
  535POPC   C4B10150   9.185  19.057   7.664
  536POPC   NC310151  43.139  27.626   9.464
  536POPC   PO410152  43.119  27.560   9.164
  536POPC   GL110153  43.118  27.593   8.864
  536POPC   GL210154  43.034  27.585   8.864
  536POPC   C1A10155  43.121  27.621   8.564
  536POPC   D2A10156  43.105  27.565   8.264
  536POPC   C3A10157  43.115  27.589   7.964
  536POPC   C4A10158  43.091  27.566   7.664
  536POPC   C1B10159  42.852  27.642   8.564
  536POPC   C2B10160  42.848  27.568   8.264
  536POPC   C3B10161  42.824  27.591   7.964
  536POPC   C4B10162  42.902  27.594   7.664
  537POPC   NC310163  12.124  40.036   9.464
  537POPC   PO410164  12.123  39.960   9.164
  537POPC   GL110165  12.049  40.026   8.864
  537POPC   GL210166  12.220  40.061   8.864
  537POPC   C1A10167  12.099  40.053   8.564
  537POPC   D2A10168  12.052  39.962   8.264
  537POPC   C3A10169  12.053  39.966   7.964
  537POPC   C4A10170  12.092  40.053   7.664
  537POPC   C1B10171  12.311  40.002   8.564
  537POPC   C2B10172  12.291  40.062   8.264
  537POPC   C3B10173  12.345  39.994   7.964
  537POPC   C4B10174  12.369  40.047   7.664
  538POPC   NC310175  19.030  42.373   9.464
  538POPC   PO410176  19.015  42.305   9.164
  538POPC   GL110177  19.044  42.288   8.864
  538POPC   GL210178  19.162  42.338   8.864
  538POPC   C1A10179  19.079  42.352   8.564
  538POPC   D2A10180  19.060  42.382   8.264
  538POPC   C3A10181  19.046  42.302   7.964
  538POPC   C4A10182  19.018  42.372   7.664
  538POPC   C1B10183  19.304  42.367   8.564
  538POPC   C2B10184  19.288  42.369   8.264
  538POPC   C3B10185  19.299  42.277   7.964
  538POPC   C4B10186  19.323  42.332   7.664
  539POPC   NC310187  37.684   9.011   9.464
  539POPC   PO410188  37.638   8.942   9.164
  539POPC   GL110189  37.659   8.954   8.864
  539POPC   GL210190  37.621   8.923   8.864
  539POPC   C1A10191  37.685   8.977   8.564
  539POPC   D2A10192  37.663   8.961   8.264
  539POPC   C3A10193  37.694   8.966   7.964
  539POPC   C4A10194  37.634   8.952   7.664
  539POPC   C1B10195  37.447   8.840   8.564
  539POPC   C2B10196  37.495   8.862   8.264
  539POPC   C3B10197  37.501   8.863   7.964
  539POPC   C4B10198  37.507   8.793   7.664
  540POPC   NC310199  28.382  37.685   9.464
  540POPC   PO410200  28.376  37.717   9.164
  540POPC   GL110201  28.388  37.700   8.864
  540POPC   GL210202  28.474  37.641   8.864
  540POPC   C1A10203  28.387  37.723   8.564
  540POPC   D2A10204  28.369  37.640   8.264
  540POPC   C3A10205  28.385  37.664   7.964
  540POPC   C4A10206  28.403  37.692   7.664
  540POPC   C1B10207  28.619  37.658   8.564
  540POPC   C2B10208  28.580  37.649   8.264
  540POPC   C3B10209  28.654  37.588   7.964
  540POPC   C4B10210  28.606  37.605   7.664
  541POPC   NC310211   4.334  16.723   9.464
  541POPC   PO410212   4.343  16.708   9.164
  541POPC   GL110213   4.351  16.685   8.864
  541POPC   GL210214   4.367  16.627   8.864
  541POPC   C1A10215   4.330  16.752   8.564
  541POPC   D2A10216   4.343  16.738   8.264
  541POPC   C3A10217   4.346  16.771   7.964
  541POPC   C4A10218   4.292  16.694   7.664
  541POPC   C1B10219   4.397  16.525   8.564
  541POPC   C2B10220   4.400  16.510   8.264
  541POPC   C3B10221   4.341  16.475   7.964
  541POPC   C4B10222   4.320  16.515   7.664
  542POPC   NC310223  33.801   7.427   9.464
  542POPC   PO410224  33.814   7.398   9.164
  542POPC   GL110225  33.814   7.383   8.864
  542POPC   GL210226  33.832   7.316   8.864
  542POPC   C1A10227  33.812   7.439   8.564
  542POPC   D2A10228  33.751   7.390   8.264
  542POPC   C3A10229  33.786   7.416   7.964
  542POPC   C4A10230  33.831   7.371   7.664
  542POPC   C1B10231  33.733   7.199   8.564
  542POPC   C2B10232  33.779   7.150   8.264
  542POPC   C3B10233  33.796   7.183   7.964
  542POPC   C4B10234  33.793   7.168   7.664
  543POPC   NC310235   9.706  11.329   9.464
  543POPC   PO410236   9.749  11.295   9.164
  543POPC   GL110237   9.728  11.278   8.864
  543POPC   GL210238   9.870  11.208   8.864
  543POPC   C1A10239   9.705  11.269   8.564
  543POPC   D2A10240   9.776  11.264   8.264
  543POPC   C3A10241   9.782  11.318   7.964
  543POPC   C4A10242   9.724  11.293   7.664
  543POPC   C1B10243   9.897  11.084   8.564
  543POPC   C2B10244   9.975  11.144   8.264
  543POPC   C3B10245   9.927  11.128   7.964
  543POPC   C4B10246   9.948  11.129   7.664
  544POPC   NC310247   4.295  19.840   9.464
  544POPC   PO410248   4.354  19.866   9.164
  544POPC   GL110249   4.324  19.856   8.864
  544POPC   GL210250   4.247  19.950   8.864
  544POPC   C1A10251   4.308  19.835   8.564
  544POPC   D2A10252   4.312  19.787   8.264
  544POPC   C3A10253   4.364  19.798   7.964
  544POPC   C4A10254   4.330  19.834   7.664
  544POPC   C1B10255   4.172  20.073   8.564
  544POPC   C2B10256   4.196  19.998   8.264
  544POPC   C3B10257   4.125  20.033   7.964
  544POPC   C4B10258   4.212  20.073   7.664
  545POPC   NC310259  11.295  43.913   9.464
  545POPC   PO410260  11.298  43.885   9.164
  545POPC   GL110261  11.278  43.924   8.864
  545POPC   GL210262  11.367  43.994   8.864
  545POPC   C1A10263  11.347  43.873   8.564
  545POPC   D2A10264  11.282  43.919   8.264
  545POPC   C3A10265  11.315  43.846   7.964
  545POPC   C4A10266  11.274  43.865   7.664
  545POPC   C1B10267  11.437  44.038   8.564
  545POPC   C2B10268  11.471  44.103   8.264
  545POPC   C3B10269  11.502  44.056   7.964
  545POPC   C4B10270  11.430  44.086   7.664
  546POPC   NC310271  32.228  13.631   9.464
  546POPC   PO410272  32.293  13.612   9.164
  546POPC   GL110273  32.297  13.626   8.864
  546POPC   GL210274  32.234  13.788   8.864
  546POPC   C1A10275  32.231  13.626   8.564
  546POPC   D2A10276  32.295  13.615   8.264
  546POPC   C3A10277  32.215  13.583   7.964
  546POPC   C4A10278  32.268  13.582   7.664
  546POPC   C1B10279  32.199  13.871   8.564
  546POPC   C2B10280  32.237  13.906   8.264
  546POPC   C3B10281  32.238  13.884   7.964
  546POPC   C4B10282  32.216  13.868   7.664
  547POPC   NC310283  36.854  23.758   9.464
  547POPC   PO410284  36.888  23.683   9.164
  547POPC   GL110285  36.946  23.711   8.864
  547POPC   GL210286  36.788  23.661   8.864
  547POPC   C1A10287  36.870  23.695   8.564
  547POPC   D2A10288  36.944  23.686   8.264
  547POPC   C3A10289  36.925  23.688   7.964
  547POPC   C4A10290  36.911  23.674   7.664
  547POPC   C1B10291  36.674  23.645   8.564
  547POPC   C2B10292  36.636  23.649   8.264
  547POPC   C3B10293  36.655  23.689   7.964
  547POPC   C4B10294  36.615  23.703   7.664
  548POPC   NC310295  14.368  31.439   9.464
  548POPC   PO410296  14.409  31.518   9.164
  548POPC   GL110297  14.412  31.457   8.864
  548POPC   GL210298  14.334  31.576   8.864
  548POPC   C1A10299  14.449  31.459   8.564
  548POPC   D2A10300  14.426  31.430   8.264
  548POPC   C3A10301  14.367  31.475   7.964
  548POPC   C4A10302  14.415  31.484   7.664
  548POPC   C1B10303  14.338  31.754   8.564
  548POPC   C2B10304  14.339  31.687   8.264
  548POPC   C3B10305  14.373  31.759   7.964
  548POPC   C4B10306  14.372  31.681   7.664
  549POPC   NC310307  22.939  24.506   9.464
  549POPC   PO410308  22.972  24.475   9.164
  549POPC   GL110309  22.901  24.440   8.864
  549POPC   GL210310  23.100  24.486   8.864
  549POPC   C1A10311  22.959  24.477   8.564
  549POPC   D2A10312  22.932  24.489   8.264
  549POPC   C3A10313  22.971  24.515   7.964
  549POPC   C4A10314  22.907  24.499   7.664
  549POPC   C1B10315  23.229  24.407   8.564
  549POPC   C2B10316  23.193  24.470   8.264
  549POPC   C3B10317  23.184  24.436   7.964
  549POPC   C4B10318  23.209  24.408   7.664
  550POPC   NC310319  36.949  15.932   9.464
  550POPC   PO410320  36.953  15.971   9.164
  550POPC   GL110321  36.941  15.991   8.864
  550POPC   GL210322  36.981  16.002   8.864
  550POPC   C1A10323  36.855  15.910   8.564
  550POPC   D2A10324  36.927  15.934   8.264
  550POPC   C3A10325  36.927  15.993   7.964
  550POPC   C4A10326  36.934  15.946   7.664
  550POPC   C1B10327  37.074  16.101   8.564
  550POPC   C2B10328  37.083  16.151   8.264
  550POPC   C3B10329  37.054  16.090   7.964
  550POPC   C4B10330  37.082  16.132   7.664
  551POPC   NC310331  41.599   1.984   9.464
  551POPC   PO410332  41.580   1.990   9.164
  551POPC   GL110333  41.555   2.029   8.864
  551POPC   GL210334  41.500   1.967   8.864
  551POPC   C1A10335  41.583   2.009   8.564
  551POPC   D2A10336  41.603   1.993   8.264
  551POPC   C3A10337  41.564   2.001   7.964
  551POPC   C4A10338  41.588   1.957   7.664
  551POPC   C1B10339  41.309   1.845   8.564
  551POPC   C2B10340  41.383   1.831   8.264
  551POPC   C3B10341  41.372   1.805   7.964
  551POPC   C4B10342  41.330   1.886   7.664
  552POPC   NC310343   5.892  19.065   9.464
  552POPC   PO410344   5.869  19.106   9.164
  552POPC   GL110345   5.866  19.074   8.864
  552POPC   GL210346   5.763  19.114   8.864
  552POPC   C1A10347   5.911  19.053   8.564
  552POPC   D2A10348   5.887  19.104   8.264
  552POPC   C3A10349   5.864  19.106   7.964
  552POPC   C4A10350   5.858  19.056   7.664
  552POPC   C1B10351   5.603  19.166   8.564
  552POPC   C2B10352   5.663  19.186   8.264
  552POPC   C3B10353   5.677  19.138   7.964
  552POPC   C4B10354   5.661  19.133   7.664
  553POPC   NC310355  26.815  36.886   9.464
  553POPC   PO410356  26.771  36.949   9.164
  553POPC   GL110357  26.831  36.866   8.864
  553POPC   GL210358  26.839  36.794   8.864
  553POPC   C1A10359  26.852  36.953   8.564
  553POPC   D2A10360  26.864  36.854   8.264
  553POPC   C3A10361  26.769  36.876   7.964
  553POPC   C4A10362  26.843  36.872   7.664
  553POPC   C1B10363  26.949  36.646   8.564
  553POPC   C2B10364  26.932  36.671   8.264
  553POPC   C3B10365  26.873  36.641   7.964
  553POPC   C4B10366  26.908  36.648   7.664
  554POPC   NC310367  40.745  37.630   9.464
  554POPC   PO410368  40.741  37.658   9.164
  554POPC   GL110369  40.824  37.698   8.864
  554POPC   GL210370  40.864  37.815   8.864
  554POPC   C1A10371  40.780  37.685   8.564
  554POPC   D2A10372  40.788  37.658   8.264
  554POPC   C3A10373  40.830  37.728   7.964
  554POPC   C4A10374  40.800  37.653   7.664
  554POPC   C1B10375  40.909  37.872   8.564
  554POPC   C2B10376  40.912  37.929   8.264
  554POPC   C3B10377  40.887  37.888   7.964
  554POPC   C4B10378  40.851  37.923   7.664
  555POPC   NC310379  40.756  19.861   9.464
  555POPC   PO410380  40.742  19.796   9.164
  555POPC   GL110381  40.761  19.874   8.864
  555POPC   GL210382  40.732  19.941   8.864
  555POPC   C1A10383  40.749  19.849   8.564
  555POPC   D2A10384  40.745  19.861   8.264
  555POPC   C3A10385  40.794  19.800   7.964
  555POPC   C4A10386  40.823  19.798   7.664
  555POPC   C1B10387  40.606  20.034   8.564
  555POPC   C2B10388  40.589  20.028   8.264
  555POPC   C3B10389  40.623  20.022   7.964
  555POPC   C4B10390  40.598  19.983   7.664
  556POPC   NC310391   2.763  40.823   9.464
  556POPC   PO410392   2.815  40.811   9.164
  556POPC   GL110393   2.718  40.792   8.864
  556POPC   GL210394   2.901  40.817   8.864
  556POPC   C1A10395   2.803  40.816   8.564
  556POPC   D2A10396   2.727  40.799   8.264
  556POPC   C3A10397   2.752  40.746   7.964
  556POPC   C4A10398   2.758  40.825   7.664
  556POPC   C1B10399   2.975  40.845   8.564
  556POPC   C2B10400   2.958  40.928   8.264
  556POPC   C3B10401   3.004  40.914   7.964
  556POPC   C4B10402   3.034  40.903   7.664
  557POPC   NC310403  22.975  35.339   9.464
  557POPC   PO410404  22.927  35.385   9.164
  557POPC   GL110405  22.938  35.402   8.864
  557POPC   GL210406  22.806  35.365   8.864
  557POPC   C1A10407  22.947  35.325   8.564
  557POPC   D2A10408  22.919  35.383   8.264
  557POPC   C3A10409  22.957  35.400   7.964
  557POPC   C4A10410  22.937  35.385   7.664
  557POPC   C1B10411  22.727  35.363   8.564
  557POPC   C2B10412  22.665  35.349   8.264
  557POPC   C3B10413  22.683  35.318   7.964
  557POPC   C4B10414  22.644  35.337   7.664
  558POPC   NC310415   9.713  44.662   9.464
  558POPC   PO410416   9.757  44.652   9.164
  558POPC   GL110417   9.738  44.645   8.864
  558POPC   GL210418   9.771  44.756   8.864
  558POPC   C1A10419   9.772  44.653   8.564
  558POPC   D2A10420   9.760  44.679   8.264
  558POPC   C3A10421   9.732  44.647   7.964
  558POPC   C4A10422   9.793  44.707   7.664
  558POPC   C1B10423   9.694  44.937   8.564
  558POPC   C2B10424   9.751  44.877   8.264
  558POPC   C3B10425   9.683  44.884   7.964
  558POPC   C4B10426   9.695  44.954   7.664
  559POPC   NC310427  24.440  40.768   9.464
  559POPC   PO410428  24.449  40.735   9.164
  559POPC   GL110429  24.472  40.812   8.864
  559POPC   GL210430  24.366  40.767   8.864
  559POPC   C1A10431  24.511  40.769   8.564
  559POPC   D2A10432  24.507  40.815   8.264
  559POPC   C3A10433  24.486  40.815   7.964
  559POPC   C4A10434  24.510  40.774   7.664
  559POPC   C1B10435  24.266  40.841   8.564
  559POPC   C2B10436  24.241  40.842   8.264
  559POPC   C3B10437  24.279  40.801   7.964
  559POPC   C4B10438  24.275  40.838   7.664
  560POPC   NC310439  33.831  17.501   9.464
  560POPC   PO410440  33.765  17.485   9.164
  560POPC   GL110441  33.846  17.465   8.864
  560POPC   GL210442  33.720  17.452   8.864
  560POPC   C1A10443  33.795  17.498   8.564
  560POPC   D2A10444  33.799  17.551   8.264
  560POPC   C3A10445  33.846  17.503   7.964
  560POPC   C4A10446  33.842  17.465   7.664
  560POPC   C1B10447  33.676  17.285   8.564
  560POPC   C2B10448  33.624  17.357   8.264
  560POPC   C3B10449  33.666  17.285   7.964
  560POPC   C4B10450  33.654  17.301   7.664
  561POPC   NC310451  28.363   9.705   9.464
  561POPC   PO410452  28.367   9.736   9.164
  561POPC   GL110453  28.320   9.711   8.864
  561POPC   GL210454  28.375   9.899   8.864
  561POPC   C1A10455  28.379   9.706   8.564
  561POPC   D2A10456  28.364   9.745   8.264
  561POPC   C3A10457  28.386   9.732   7.964
  561POPC   C4A10458  28.400   9.778   7.664
  561POPC   C1B10459  28.376   9.989   8.564
  561POPC   C2B10460  28.433   9.995   8.264
  561POPC   C3B10461  28.406   9.970   7.964
  561POPC   C4B10462  28.411   9.971   7.664
  562POPC   NC310463  35.348  19.799   9.464
  562POPC   PO410464  35.377  19.838   9.164
  562POPC   GL110465  35.377  19.811   8.864
  562POPC   GL210466  35.423  19.885   8.864
  562POPC   C1A10467  35.345  19.875   8.564
  562POPC   D2A10468  35.311  19.867   8.264
  562POPC   C3A10469  35.340  19.871   7.964
  562POPC   C4A10470  35.389  19.834   7.664
  562POPC   C1B10471  35.543  19.939   8.564
  562POPC   C2B10472  35.587  19.923   8.264
  562POPC   C3B10473  35.619  19.902   7.964
  562POPC   C4B10474  35.583  19.944   7.664
  563POPC   NC310475  22.969   7.403   9.464
  563POPC   PO410476  22.962   7.406   9.164
  563POPC   GL110477  22.938   7.426   8.864
  563POPC   GL210478  23.072   7.379   8.864
  563POPC   C1A10479  22.985   7.372   8.564
  563POPC   D2A10480  22.894   7.407   8.264
  563POPC   C3A10481  22.968   7.385   7.964
  563POPC   C4A10482  22.976   7.461   7.664
  563POPC   C1B10483  23.155   7.390   8.564
  563POPC   C2B10484  23.171   7.391   8.264
  563POPC   C3B10485  23.151   7.461   7.964
  563POPC   C4B10486  23.161   7.479   7.664
  564POPC   NC310487   4.328   7.462   9.464
  564POPC   PO410488   4.349   7.463   9.164
  564POPC   GL110489   4.324   7.469   8.864
  564POPC   GL210490   4.162   7.432   8.864
  564POPC   C1A10491   4.320   7.406   8.564
  564POPC   D2A10492   4.356   7.398   8.264
  564POPC   C3A10493   4.307   7.469   7.964
  564POPC   C4A10494   4.314   7.385   7.664
  564POPC   C1B10495   4.084   7.500   8.564
  564POPC   C2B10496   4.133   7.508   8.264
  564POPC   C3B10497   4.133   7.501   7.964
  564POPC   C4B10498   4.047   7.529   7.664
  565POPC   NC310499   5.891  26.043   9.464
  565POPC   PO410500   5.887  26.091   9.164
  565POPC   GL110501   5.821  26.062   8.864
  565POPC   GL210502   5.814  25.874   8.864
  565POPC   C1A10503   5.868  26.051   8.564
  565POPC   D2A10504   5.889  26.085   8.264
  565POPC   C3A10505   5.882  26.060   7.964
  565POPC   C4A10506   5.900  26.051   7.664
  565POPC   C1B10507   5.840  25.812   8.564
  565POPC   C2B10508   5.761  25.820   8.264
  565POPC   C3B10509   5.817  25.793   7.964
  565POPC   C4B10510   5.767  25.843   7.664
  566POPC   NC310511   6.625  34.594   9.464
  566POPC   PO410512   6.637  34.589   9.164
  566POPC   GL110513   6.674  34.599   8.864
  566POPC   GL210514   6.587  34.647   8.864
  566POPC   C1A10515   6.647  34.613   8.564
  566POPC   D2A10516   6.662  34.552   8.264
  566POPC   C3A10517   6.612  34.579   7.964
  566POPC   C4A10518   6.632  34.570   7.664
  566POPC   C1B10519   6.572  34.821   8.564
  566POPC   C2B10520   6.548  34.827   8.264
  566POPC   C3B10521   6.545  34.848   7.964
  566POPC   C4B10522   6.543  34.803   7.664
  567POPC   NC310523  31.490  13.659   9.464
  567POPC   PO410524  31.485  13.666   9.164
  567POPC   GL110525  31.434  13.648   8.864
  567POPC   GL210526  31.387  13.734   8.864
  567POPC   C1A10527  31.451  13.659   8.564
  567POPC   D2A10528  31.472  13.606   8.264
  567POPC   C3A10529  31.511  13.585   7.964
  567POPC   C4A10530  31.467  13.587   7.664
  567POPC   C1B10531  31.254  13.799   8.564
  567POPC   C2B10532  31.251  13.795   8.264
  567POPC   C3B10533  31.225  13.749   7.964
  567POPC   C4B10534  31.311  13.792   7.664
  568POPC   NC310535  14.442   8.968   9.464
  568POPC   PO410536  14.417   8.928   9.164
  568POPC   GL110537  14.439   8.962   8.864
  568POPC   GL210538  14.352   9.036   8.864
  568POPC   C1A10539  14.359   8.973   8.564
  568POPC   D2A10540  14.419   9.003   8.264
  568POPC   C3A10541  14.402   9.006   7.964
  568POPC   C4A10542  14.386   8.984   7.664
  568POPC   C1B10543  14.237   9.128   8.564
  568POPC   C2B10544  14.208   9.155   8.264
  568POPC   C3B10545  14.209   9.170   7.964
  568POPC   C4B10546  14.277   9.144   7.664
  569POPC   NC310547  22.211  41.570   9.464
  569POPC   PO410548  22.163  41.607   9.164
  569POPC   GL110549  22.141  41.514   8.864
  569POPC   GL210550  22.083  41.605   8.864
  569POPC   C1A10551  22.183  41.583   8.564
  569POPC   D2A10552  22.113  41.600   8.264
  569POPC   C3A10553  22.167  41.596   7.964
  569POPC   C4A10554  22.208  41.528   7.664
  569POPC   C1B10555  21.953  41.683   8.564
  569POPC   C2B10556  21.906  41.592   8.264
  569POPC   C3B10557  21.884  41.654   7.964
  569POPC   C4B10558  21.886  41.610   7.664
  570POPC   NC310559  12.030  15.935   9.464
  570POPC   PO410560  12.103  15.919   9.164
  570POPC   GL110561  12.102  15.939   8.864
  570POPC   GL210562  12.167  15.882   8.864
  570POPC   C1A10563  12.070  15.917   8.564
  570POPC   D2A10564  12.059  15.949   8.264
  570POPC   C3A10565  12.063  15.958   7.964
  570POPC   C4A10566  12.068  15.908   7.664
  570POPC   C1B10567  12.337  15.921   8.564
  570POPC   C2B10568  12.341  15.894   8.264
  570POPC   C3B10569  12.306  15.880   7.964
  570POPC   C4B10570  12.298  15.900   7.664
  571POPC   NC310571  15.952   8.992   9.464
  571POPC   PO410572  15.958   9.005   9.164
  571POPC   GL110573  15.952   8.975   8.864
  571POPC   GL210574  15.996   8.834   8.864
  571POPC   C1A10575  15.955   8.934   8.564
  571POPC   D2A10576  15.954   9.015   8.264
  571POPC   C3A10577  15.919   8.968   7.964
  571POPC   C4A10578  15.913   8.938   7.664
  571POPC   C1B10579  16.067   8.743   8.564
  571POPC   C2B10580  16.038   8.705   8.264
  571POPC   C3B10581  16.020   8.694   7.964
  571POPC   C4B10582  16.005   8.782   7.664
  572POPC   NC310583  10.516  16.734   9.464
  572POPC   PO410584  10.554  16.779   9.164
  572POPC   GL110585  10.561  16.691   8.864
  572POPC   GL210586  10.441  16.658   8.864
  572POPC   C1A10587  10.487  16.721   8.564
  572POPC   D2A10588  10.537  16.722   8.264
  572POPC   C3A10589  10.506  16.686   7.964
  572POPC   C4A10590  10.560  16.706   7.664
  572POPC   C1B10591  10.412  16.547   8.564
  572POPC   C2B10592  10.391  16.490   8.264
  572POPC   C3B10593  10.431  16.459   7.964
  572POPC   C4B10594  10.443  16.476   7.664
  573POPC   NC310595  12.821  29.178   9.464
  573POPC   PO410596  12.886  29.101   9.164
  573POPC   GL110597  12.829  29.107   8.864
  573POPC   GL210598  12.798  29.015   8.864
  573POPC   C1A10599  12.896  29.136   8.564
  573POPC   D2A10600  12.874  29.134   8.264
  573POPC   C3A10601  12.896  29.150   7.964
  573POPC   C4A10602  12.836  29.171   7.664
  573POPC   C1B10603  12.789  28.940   8.564
  573POPC   C2B10604  12.737  28.961   8.264
  573POPC   C3B10605  12.738  28.896   7.964
  573POPC   C4B10606  12.723  28.905   7.664
  574POPC   NC310607   4.324  19.060   9.464
  574POPC   PO410608   4.300  19.057   9.164
  574POPC   GL110609   4.287  19.077   8.864
  574POPC   GL210610   4.383  18.976   8.864
  574POPC   C1A10611   4.300  19.091   8.564
  574POPC   D2A10612   4.302  19.065   8.264
  574POPC   C3A10613   4.282  19.086   7.964
  574POPC   C4A10614   4.272  19.090   7.664
  574POPC   C1B10615   4.491  18.911   8.564
  574POPC   C2B10616   4.535  18.922   8.264
  574POPC   C3B10617   4.534  18.901   7.964
  574POPC   C4B10618   4.511  18.893   7.664
  575POPC   NC310619  31.506  31.485   9.464
  575POPC   PO410620  31.499  31.519   9.164
  575POPC   GL110621  31.487  31.458   8.864
  575POPC   GL210622  31.505  31.335   8.864
  575POPC   C1A10623  31.438  31.511   8.564
  575POPC   D2A10624  31.440  31.484   8.264
  575POPC   C3A10625  31.483  31.481   7.964
  575POPC   C4A10626  31.456  31.490   7.664
  575POPC   C1B10627  31.490  31.237   8.564
  575POPC   C2B10628  31.432  31.188   8.264
  575POPC   C3B10629  31.428  31.220   7.964
  575POPC   C4B10630  31.452  31.213   7.664
  576POPC   NC310631  12.844  19.041   9.464
  576POPC   PO410632  12.824  19.093   9.164
  576POPC   GL110633  12.809  19.055   8.864
  576POPC   GL210634  12.841  18.969   8.864
  576POPC   C1A10635  12.855  19.081   8.564
  576POPC   D2A10636  12.861  19.072   8.264
  576POPC   C3A10637  12.833  19.011   7.964
  576POPC   C4A10638  12.834  19.107   7.664
  576POPC   C1B10639  12.760  18.850   8.564
  576POPC   C2B10640  12.822  18.809   8.264
  576POPC   C3B10641  12.779  18.819   7.964
  576POPC   C4B10642  12.831  18.822   7.664
  577POPC   NC310643   5.896  15.219   9.464
  577POPC   PO410644   5.830  15.189   9.164
  577POPC   GL110645   5.901  15.225   8.864
  577POPC   GL210646   5.728  15.142   8.864
  577POPC   C1A10647   5.853  15.189   8.564
  577POPC   D2A10648   5.868  15.203   8.264
  577POPC   C3A10649   5.848  15.218   7.964
  577POPC   C4A10650   5.911  15.138   7.664
  577POPC   C1B10651   5.585  15.056   8.564
  577POPC   C2B10652   5.591  15.054   8.264
  577POPC   C3B10653   5.585  15.132   7.964
  577POPC   C4B10654   5.670  15.064   7.664
  578POPC   NC310655  15.951   6.683   9.464
  578POPC   PO410656  15.917   6.693   9.164
  578POPC   GL110657  15.936   6.600   8.864
  578POPC   GL210658  15.855   6.783   8.864
  578POPC   C1A10659  15.915   6.626   8.564
  578POPC   D2A10660  15.985   6.647   8.264
  578POPC   C3A10661  15.980   6.609   7.964
  578POPC   C4A10662  15.932   6.668   7.664
  578POPC   C1B10663  15.826   6.864   8.564
  578POPC   C2B10664  15.830   6.807   8.264
  578POPC   C3B10665  15.791   6.830   7.964
  578POPC   C4B10666  15.845   6.832   7.664
  579POPC   NC310667  13.654  19.026   9.464
  579POPC   PO410668  13.649  19.009   9.164
  579POPC   GL110669  13.595  19.055   8.864
  579POPC   GL210670  13.510  19.092   8.864
  579POPC   C1A10671  13.627  19.092   8.564
  579POPC   D2A10672  13.659  19.024   8.264
  579POPC   C3A10673  13.656  19.037   7.964
  579POPC   C4A10674  13.628  19.092   7.664
  579POPC   C1B10675  13.338  19.052   8.564
  579POPC   C2B10676  13.422  19.108   8.264
  579POPC   C3B10677  13.331  19.091   7.964
  579POPC   C4B10678  13.392  19.119   7.664
  580POPC   NC310679  33.033  40.014   9.464
  580POPC   PO410680  33.063  40.017   9.164
  580POPC   GL110681  32.998  40.051   8.864
  580POPC   GL210682  33.098  40.059   8.864
  580POPC   C1A10683  33.045  40.027   8.564
  580POPC   D2A10684  33.019  39.982   8.264
  580POPC   C3A10685  33.033  40.029   7.964
  580POPC   C4A10686  33.059  40.018   7.664
  580POPC   C1B10687  33.262  40.189   8.564
  580POPC   C2B10688  33.204  40.184   8.264
  580POPC   C3B10689  33.204  40.139   7.964
  580POPC   C4B10690  33.259  40.170   7.664
  581POPC   NC310691  19.856   3.532   9.464
  581POPC   PO410692  19.821   3.512   9.164
  581POPC   GL110693  19.787   3.559   8.864
  581POPC   GL210694  19.686   3.564   8.864
  581POPC   C1A10695  19.803   3.574   8.564
  581POPC   D2A10696  19.806   3.543   8.264
  581POPC   C3A10697  19.820   3.522   7.964
  581POPC   C4A10698  19.876   3.501   7.664
  581POPC   C1B10699  19.641   3.687   8.564
  581POPC   C2B10700  19.614   3.662   8.264
  581POPC   C3B10701  19.588   3.667   7.964
  581POPC   C4B10702  19.651   3.705   7.664
  582POPC   NC310703  37.718  38.449   9.464
  582POPC   PO410704  37.639  38.427   9.164
  582POPC   GL110705  37.654  38.461   8.864
  582POPC   GL210706  37.530  38.412   8.864
  582POPC   C1A10707  37.720  38.447   8.564
  582POPC   D2A10708  37.705  38.479   8.264
  582POPC   C3A10709  37.716  38.448   7.964
  582POPC   C4A10710  37.696  38.458   7.664
  582POPC   C1B10711  37.444  38.283   8.564
  582POPC   C2B10712  37.456  38.341   8.264
  582POPC   C3B10713  37.425  38.289   7.964
  582POPC   C4B10714  37.460  38.343   7.664
  583POPC   NC310715  17.513  30.689   9.464
  583POPC   PO410716  17.530  30.693   9.164
  583POPC   GL110717  17.497  30.683   8.864
  583POPC   GL210718  17.644  30.647   8.864
  583POPC   C1A10719  17.546  30.661   8.564
  583POPC   D2A10720  17.478  30.718   8.264
  583POPC   C3A10721  17.494  30.710   7.964
  583POPC   C4A10722  17.481  30.744   7.664
  583POPC   C1B10723  17.723  30.570   8.564
  583POPC   C2B10724  17.712  30.513   8.264
  583POPC   C3B10725  17.691  30.591   7.964
  583POPC   C4B10726  17.695  30.536   7.664
  584POPC   NC310727  28.403  22.943   9.464
  584POPC   PO410728  28.339  22.930   9.164
  584POPC   GL110729  28.336  22.958   8.864
  584POPC   GL210730  28.473  22.895   8.864
  584POPC   C1A10731  28.354  22.922   8.564
  584POPC   D2A10732  28.320  22.889   8.264
  584POPC   C3A10733  28.407  22.947   7.964
  584POPC   C4A10734  28.339  22.981   7.664
  584POPC   C1B10735  28.559  22.816   8.564
  584POPC   C2B10736  28.585  22.777   8.264
  584POPC   C3B10737  28.587  22.773   7.964
  584POPC   C4B10738  28.611  22.787   7.664
  585POPC   NC310739  39.236   6.607   9.464
  585POPC   PO410740  39.198   6.629   9.164
  585POPC   GL110741  39.200   6.619   8.864
  585POPC   GL210742  39.314   6.512   8.864
  585POPC   C1A10743  39.271   6.688   8.564
  585POPC   D2A10744  39.237   6.638   8.264
  585POPC   C3A10745  39.200   6.661   7.964
  585POPC   C4A10746  39.280   6.675   7.664
  585POPC   C1B10747  39.339   6.368   8.564
  585POPC   C2B10748  39.309   6.426   8.264
  585POPC   C3B10749  39.358   6.373   7.964
  585POPC   C4B10750  39.349   6.378   7.664
  586POPC   NC310751  12.840   2.023   9.464
  586POPC   PO410752  12.865   1.961   9.164
  586POPC   GL110753  12.872   1.995   8.864
  586POPC   GL210754  12.956   1.947   8.864
  586POPC   C1A10755  12.891   1.973   8.564
  586POPC   D2A10756  12.840   1.971   8.264
  586POPC   C3A10757  12.811   1.979   7.964
  586POPC   C4A10758  12.814   1.975   7.664
  586POPC   C1B10759  13.125   1.981   8.564
  586POPC   C2B10760  13.063   2.002   8.264
  586POPC   C3B10761  13.151   1.991   7.964
  586POPC   C4B10762  13.088   1.985   7.664
  587POPC   NC310763   6.632  36.162   9.464
  587POPC   PO410764   6.624  36.176   9.164
  587POPC   GL110765   6.667  36.177   8.864
  587POPC   GL210766   6.685  36.063   8.864
  587POPC   C1A10767   6.651  36.135   8.564
  587POPC   D2A10768   6.635  36.093   8.264
  587POPC   C3A10769   6.668  36.083   7.964
  587POPC   C4A10770   6.615  36.113   7.664
  587POPC   C1B10771   6.744  35.942   8.564
  587POPC   C2B10772   6.763  35.909   8.264
  587POPC   C3B10773   6.715  35.926   7.964
  587POPC   C4B10774   6.766  35.894   7.664
  588POPC   NC310775  21.367  12.071   9.464
  588POPC   PO410776  21.369  12.069   9.164
  588POPC   GL110777  21.427  12.038   8.864
  588POPC   GL210778  21.427  12.170   8.864
  588POPC   C1A10779  21.364  12.104   8.564
  588POPC   D2A10780  21.354  12.036   8.264
  588POPC   C3A10781  21.360  12.050   7.964
  588POPC   C4A10782  21.388  12.098   7.664
  588POPC   C1B10783  21.440  12.323   8.564
  588POPC   C2B10784  21.451  12.325   8.264
  588POPC   C3B10785  21.472  12.329   7.964
  588POPC   C4B10786  21.515  12.284   7.664
  589POPC   NC310787  12.063   3.572   9.464
  589POPC   PO410788  12.077   3.588   9.164
  589POPC   GL110789  12.064   3.492   8.864
  589POPC   GL210790  12.243   3.547   8.864
  589POPC   C1A10791  12.075   3.507   8.564
  589POPC   D2A10792  12.029   3.583   8.264
  589POPC   C3A10793  12.118   3.512   7.964
  589POPC   C4A10794  12.120   3.559   7.664
  589POPC   C1B10795  12.305   3.629   8.564
  589POPC   C2B10796  12.331   3.642   8.264
  589POPC   C3B10797  12.329   3.613   7.964
  589POPC   C4B10798  12.272   3.650   7.664
  590POPC   NC310799  41.541  15.135   9.464
  590POPC   PO410800  41.535  15.157   9.164
  590POPC   GL110801  41.552  15.143   8.864
  590POPC   GL210802  41.661  15.278   8.864
  590POPC   C1A10803  41.596  15.160   8.564
  590POPC   D2A10804  41.597  15.130   8.264
  590POPC   C3A10805  41.533  15.213   7.964
  590POPC   C4A10806  41.587  15.172   7.664
  590POPC   C1B10807  41.684  15.370   8.564
  590POPC   C2B10808  41.736  15.393   8.264
  590POPC   C3B10809  41.715  15.434   7.964
  590POPC   C4B10810  41.724  15.435   7.664
  591POPC   NC310811  26.808  15.188   9.464
  591POPC   PO410812  26.783  15.143   9.164
  591POPC   GL110813  26.841  15.163   8.864
  591POPC   GL210814  26.915  15.088   8.864
  591POPC   C1A10815  26.867  15.147   8.564
  591POPC   D2A10816  26.839  15.190   8.264
  591POPC   C3A10817  26.772  15.168   7.964
  591POPC   C4A10818  26.805  15.174   7.664
  591POPC   C1B10819  26.998  15.058   8.564
  591POPC   C2B10820  26.998  14.998   8.264
  591POPC   C3B10821  27.007  15.063   7.964
  591POPC   C4B10822  26.979  15.014   7.664
  592POPC   NC310823  35.344  16.712   9.464
  592POPC   PO410824  35.392  16.720   9.164
  592POPC   GL110825  35.323  16.704   8.864
  592POPC   GL210826  35.370  16.878   8.864
  592POPC   C1A10827  35.347  16.757   8.564
  592POPC   D2A10828  35.362  16.691   8.264
  592POPC   C3A10829  35.337  16.716   7.964
  592POPC   C4A10830  35.381  16.729   7.664
  592POPC   C1B10831  35.390  17.007   8.564
  592POPC   C2B10832  35.389  17.020   8.264
  592POPC   C3B10833  35.393  17.016   7.964
  592POPC   C4B10834  35.326  16.973   7.664
  593POPC   NC310835  43.102  26.781   9.464
  593POPC   PO410836  43.133  26.809   9.164
  593POPC   GL110837  43.150  26.806   8.864
  593POPC   GL210838  43.053  26.741   8.864
  593POPC   C1A10839  43.145  26.821   8.564
  593POPC   D2A10840  43.123  26.824   8.264
  593POPC   C3A10841  43.137  26.840   7.964
  593POPC   C4A10842  43.107  26.792   7.664
  593POPC   C1B10843  42.885  26.667   8.564
  593POPC   C2B10844  42.956  26.672   8.264
  593POPC   C3B10845  42.913  26.647   7.964
  593POPC   C4B10846  42.888  26.634   7.664
  594POPC   NC310847  16.687  42.368   9.464
  594POPC   PO410848  16.768  42.303   9.164
  594POPC   GL110849  16.772  42.296   8.864
  594POPC   GL210850  16.834  42.282   8.864
  594POPC   C1A10851  16.708  42.335   8.564
  594POPC   D2A10852  16.730  42.374   8.264
  594POPC   C3A10853  16.718  42.296   7.964
  594POPC   C4A10854  16.692  42.325   7.664
  594POPC   C1B10855  16.985  42.312   8.564
  594POPC   C2B10856  17.022  42.346   8.264
  594POPC   C3B10857  16.970  42.293   7.964
  594POPC   C4B10858  16.934  42.321   7.664
  595POPC   NC310859  12.843  20.574   9.464
  595POPC   PO410860  12.881  20.630   9.164
  595POPC   GL110861  12.833  20.583   8.864
  595POPC   GL210862  12.768  20.602   8.864
  595POPC   C1A10863  12.898  20.615   8.564
  595POPC   D2A10864  12.837  20.587   8.264
  595POPC   C3A10865  12.847  20.607   7.964
  595POPC   C4A10866  12.848  20.658   7.664
  595POPC   C1B10867  12.606  20.531   8.564
  595POPC   C2B10868  12.592  20.589   8.264
  595POPC   C3B10869  12.629  20.604   7.964
  595POPC   C4B10870  12.649  20.578   7.664
  596POPC   NC310871  15.997   0.478   9.464
  596POPC   PO410872  16.003   0.448   9.164
  596POPC   GL110873  15.910   0.394   8.864
  596POPC   GL210874  15.966   0.511   8.864
  596POPC   C1A10875  15.972   0.419   8.564
  596POPC   D2A10876  15.905   0.431   8.264
  596POPC   C3A10877  15.960   0.470   7.964
  596POPC   C4A10878  15.919   0.461   7.664
  596POPC   C1B10879  16.106   0.685   8.564
  596POPC   C2B10880  16.088   0.675   8.264
  596POPC   C3B10881  16.030   0.679   7.964
  596POPC   C4B10882  16.111   0.688   7.664
  597POPC   NC310883   1.978  33.771   9.464
  597POPC   PO410884   1.999  33.846   9.164
  597POPC   GL110885   1.944  33.789   8.864
  597POPC   GL210886   2.118  33.732   8.864
  597POPC   C1A10887   2.001  33.785   8.564
  597POPC   D2A10888   1.954  33.846   8.264
  597POPC   C3A10889   1.986  33.811   7.964
  597POPC   C4A10890   1.978  33.788   7.664
  597POPC   C1B10891   2.241  33.694   8.564
  597POPC   C2B10892   2.239  33.638   8.264
  597POPC   C3B10893   2.178  33.689   7.964
  597POPC   C4B10894   2.234  33.676   7.664
  598POPC   NC310895   5.871  36.104   9.464
  598POPC   PO410896   5.881  36.166   9.164
  598POPC   GL110897   5.917  36.169   8.864
  598POPC   GL210898   5.928  36.260   8.864
  598POPC   C1A10899   5.892  36.089   8.564
  598POPC   D2A10900   5.866  36.129   8.264
  598POPC   C3A10901   5.877  36.170   7.964
  598POPC   C4A10902   5.872  36.135   7.664
  598POPC   C1B10903   6.029  36.379   8.564
  598POPC   C2B10904   5.978  36.315   8.264
  598POPC   C3B10905   5.980  36.391   7.964
  598POPC   C4B10906   5.995  36.301   7.664
  599POPC   NC310907   0.464  37.699   9.464
  599POPC   PO410908   0.448  37.681   9.164
  599POPC   GL110909   0.463  37.672   8.864
  599POPC   GL210910   0.585  37.646   8.864
  599POPC   C1A10911   0.460  37.660   8.564
  599POPC   D2A10912   0.481  37.696   8.264
  599POPC   C3A10913   0.447  37.632   7.964
  599POPC   C4A10914   0.471  37.694   7.664
  599POPC   C1B10915   0.671  37.551   8.564
  599POPC   C2B10916   0.616  37.583   8.264
  599POPC   C3B10917   0.658  37.501   7.964
  599POPC   C4B10918   0.611  37.581   7.664
  600POPC   NC310919  38.477  37.712   9.464
  600POPC   PO410920  38.461  37.692   9.164
  600POPC   GL110921  38.448  37.693   8.864
  600POPC   GL210922  38.512  37.780   8.864
  600POPC   C1A10923  38.448  37.656   8.564
  600POPC   D2A10924  38.446  37.652   8.264
  600POPC   C3A10925  38.434  37.632   7.964
  600POPC   C4A10926  38.500  37.665   7.664
  600POPC   C1B10927  38.582  37.933   8.564
  600POPC   C2B10928  38.548  37.944   8.264
  600POPC   C3B10929  38.550  37.913   7.964
  600POPC   C4B10930  38.565  37.874   7.664
  601POPC   NC310931  32.235  34.608   9.464
  601POPC   PO410932  32.291  34.583   9.164
  601POPC   GL110933  32.285  34.592   8.864
  601POPC   GL210934  32.269  34.481   8.864
  601POPC   C1A10935  32.245  34.583   8.564
  601POPC   D2A10936  32.209  34.602   8.264
  601POPC   C3A10937  32.257  34.573   7.964
  601POPC   C4A10938  32.238  34.542   7.664
  601POPC   C1B10939  32.191  34.281   8.564
  601POPC   C2B10940  32.164  34.351   8.264
  601POPC   C3B10941  32.189  34.329   7.964
  601POPC   C4B10942  32.220  34.327   7.664
  602POPC   NC310943  43.099   6.610   9.464
  602POPC   PO410944  43.136   6.658   9.164
  602POPC   GL110945  43.159   6.611   8.864
  602POPC   GL210946  43.029   6.686   8.864
  602POPC   C1A10947  43.068   6.694   8.564
  602POPC   D2A10948  43.113   6.671   8.264
  602POPC   C3A10949  43.152   6.650   7.964
  602POPC   C4A10950  43.138   6.620   7.664
  602POPC   C1B10951  42.820   6.722   8.564
  602POPC   C2B10952  42.854   6.675   8.264
  602POPC   C3B10953  42.857   6.713   7.964
  602POPC   C4B10954  42.815   6.700   7.664
  603POPC   NC310955  13.672  15.180   9.464
  603POPC   PO410956  13.661  15.160   9.164
  603POPC   GL110957  13.611  15.138   8.864
  603POPC   GL210958  13.598  15.094   8.864
  603POPC   C1A10959  13.613  15.181   8.564
  603POPC   D2A10960  13.619  15.222   8.264
  603POPC   C3A10961  13.672  15.225   7.964
  603POPC   C4A10962  13.615  15.203   7.664
  603POPC   C1B10963  13.536  14.905   8.564
  603POPC   C2B10964  13.533  14.943   8.264
  603POPC   C3B10965  13.561  14.939   7.964
  603POPC   C4B10966  13.513  14.923   7.664
  604POPC   NC310967   2.767  19.083   9.464
  604POPC   PO410968   2.747  19.017   9.164
  604POPC   GL110969   2.773  19.021   8.864
  604POPC   GL210970   2.793  19.218   8.864
  604POPC   C1A10971   2.734  19.074   8.564
  604POPC   D2A10972   2.723  19.079   8.264
  604POPC   C3A10973   2.723  19.060   7.964
  604POPC   C4A10974   2.780  19.013   7.664
  604POPC   C1B10975   2.772  19.294   8.564
  604POPC   C2B10976   2.734  19.290   8.264
  604POPC   C3B10977   2.730  19.299   7.964
  604POPC   C4B10978   2.682  19.320   7.664
  605POPC   NC310979   9.004  18.270   9.464
  605POPC   PO410980   8.970  18.248   9.164
  605POPC   GL110981   8.927  18.292   8.864
  605POPC   GL210982   8.855  18.308   8.864
  605POPC   C1A10983   8.923  18.266   8.564
  605POPC   D2A10984   9.013  18.258   8.264
  605POPC   C3A10985   8.981  18.292   7.964
  605POPC   C4A10986   8.962  18.327   7.664
  605POPC   C1B10987   8.786  18.386   8.564
  605POPC   C2B10988   8.736  18.476   8.264
  605POPC   C3B10989   8.780  18.425   7.964
  605POPC   C4B10990   8.774  18.408   7.664
  606POPC   NC310991  24.523   0.389   9.464
  606POPC   PO410992  24.537   0.418   9.164
  606POPC   GL110993  24.451   0.468   8.864
  606POPC   GL210994  24.422   0.588   8.864
  606POPC   C1A10995  24.448   0.472   8.564
  606POPC   D2A10996  24.503   0.407   8.264
  606POPC   C3A10997  24.539   0.391   7.964
  606POPC   C4A10998  24.482   0.402   7.664
  606POPC   C1B10999  24.374   0.668   8.564
  606POPC   C2B11000  24.397   0.661   8.264
  606POPC   C3B11001  24.426   0.630   7.964
  606POPC   C4B11002  24.339   0.621   7.664
  607POPC   NC311003  11.299  36.871   9.464
  607POPC   PO411004  11.299  36.862   9.164
  607POPC   GL111005  11.259  36.946   8.864
  607POPC   GL211006  11.200  37.033   8.864
  607POPC   C1A11007  11.256  36.869   8.564
  607POPC   D2A11008  11.346  36.872   8.264
  607POPC   C3A11009  11.331  36.890   7.964
  607POPC   C4A11010  11.323  36.928   7.664
  607POPC   C1B11011  11.145  37.063   8.564
  607POPC   C2B11012  11.170  37.154   8.264
  607POPC   C3B11013  11.119  37.096   7.964
  607POPC   C4B11014  11.144  37.129   7.664
  608POPC   NC311015  29.960  19.832   9.464
  608POPC   PO411016  29.876  19.851   9.164
  608POPC   GL111017  29.911  19.881   8.864
  608POPC   GL211018  29.756  19.892   8.864
  608POPC   C1A11019  29.874  19.847   8.564
  608POPC   D2A11020  29.940  19.870   8.264
  608POPC   C3A11021  29.968  19.871   7.964
  608POPC   C4A11022  29.905  19.853   7.664
  608POPC   C1B11023  29.709  19.881   8.564
  608POPC   C2B11024  29.662  19.885   8.264
  608POPC   C3B11025  29.666  19.918   7.964
  608POPC   C4B11026  29.641  19.948   7.664
  609POPC   NC311027  43.100  22.120   9.464
  609POPC   PO411028  43.136  22.209   9.164
  609POPC   GL111029  43.115  22.190   8.864
  609POPC   GL211030  42.973  22.100   8.864
  609POPC   C1A11031  43.113  22.204   8.564
  609POPC   D2A11032  43.067  22.152   8.264
  609POPC   C3A11033  43.150  22.152   7.964
  609POPC   C4A11034  43.076  22.150   7.664
  609POPC   C1B11035  42.877  22.084   8.564
  609POPC   C2B11036  42.849  22.147   8.264
  609POPC   C3B11037  42.838  22.107   7.964
  609POPC   C4B11038  42.842  22.131   7.664
  610POPC   NC311039  39.185  37.705   9.464
  610POPC   PO411040  39.206  37.646   9.164
  610POPC   GL111041  39.204  37.649   8.864
  610POPC   GL211042  39.061  37.650   8.864
  610POPC   C1A11043  39.269  37.639   8.564
  610POPC   D2A11044  39.238  37.729   8.264
  610POPC   C3A11045  39.202  37.640   7.964
  610POPC   C4A11046  39.195  37.704   7.664
  610POPC   C1B11047  38.966  37.668   8.564
  610POPC   C2B11048  38.994  37.667   8.264
  610POPC   C3B11049  38.991  37.695   7.964
  610POPC   C4B11050  38.949  37.651   7.664
  611POPC   NC311051  40.018  33.777   9.464
  611POPC   PO411052  40.036  33.834   9.164
  611POPC   GL111053  40.004  33.781   8.864
  611POPC   GL211054  40.100  33.838   8.864
  611POPC   C1A11055  40.000  33.828   8.564
  611POPC   D2A11056  40.053  33.790   8.264
  611POPC   C3A11057  39.972  33.764   7.964
  611POPC   C4A11058  39.974  33.783   7.664
  611POPC   C1B11059  40.176  33.886   8.564
  611POPC   C2B11060  40.178  33.898   8.264
  611POPC   C3B11061  40.215  33.908   7.964
  611POPC   C4B11062  40.225  33.874   7.664
  612POPC   NC311063  35.369  15.153   9.464
  612POPC   PO411064  35.336  15.193   9.164
  612POPC   GL111065  35.326  15.152   8.864
  612POPC   GL211066  35.462  15.117   8.864
  612POPC   C1A11067  35.359  15.166   8.564
  612POPC   D2A11068  35.327  15.177   8.264
  612POPC   C3A11069  35.395  15.214   7.964
  612POPC   C4A11070  35.326  15.168   7.664
  612POPC   C1B11071  35.547  15.032   8.564
  612POPC   C2B11072  35.620  15.017   8.264
  612POPC   C3B11073  35.560  15.026   7.964
  612POPC   C4B11074  35.603  15.024   7.664
  613POPC   NC311075  39.281  18.240   9.464
  613POPC   PO411076  39.255  18.307   9.164
  613POPC   GL111077  39.254  18.330   8.864
  613POPC   GL211078  39.160  18.144   8.864
  613POPC   C1A11079  39.182  18.262   8.564
  613POPC   D2A11080  39.194  18.311   8.264
  613POPC   C3A11081  39.226  18.291   7.964
  613POPC   C4A11082  39.279  18.284   7.664
  613POPC   C1B11083  39.075  18.036   8.564
  613POPC   C2B11084  39.064  18.110   8.264
  613POPC   C3B11085  39.068  18.037   7.964
  613POPC   C4B11086  39.094  18.040   7.664
  614POPC   NC311087  44.683  18.327   9.464
  614POPC   PO411088  44.633  18.269   9.164
  614POPC   GL111089  44.667  18.286   8.864
  614POPC   GL211090  44.705  18.419   8.864
  614POPC   C1A11091  44.664  18.315   8.564
  614POPC   D2A11092  44.709  18.294   8.264
  614POPC   C3A11093  44.699  18.240   7.964
  614POPC   C4A11094  44.638  18.295   7.664
  614POPC   C1B11095  44.754  18.481   8.564
  614POPC   C2B11096  44.762  18.484   8.264
  614POPC   C3B11097  44.777  18.532   7.964
  614POPC   C4B11098  44.733  18.560   7.664
  615POPC   NC311099  43.079  44.657   9.464
  615POPC   PO411100  43.097  44.620   9.164
  615POPC   GL111101  43.100  44.613   8.864
  615POPC   GL211102  43.128  44.493   8.864
  615POPC   C1A11103  43.109  44.689   8.564
  615POPC   D2A11104  43.130  44.653   8.264
  615POPC   C3A11105  43.083  44.712   7.964
  615POPC   C4A11106  43.061  44.668   7.664
  615POPC   C1B11107  43.089  44.377   8.564
  615POPC   C2B11108  43.080  44.385   8.264
  615POPC   C3B11109  43.064  44.387   7.964
  615POPC   C4B11110  43.090  44.408   7.664
  616POPC   NC311111  44.702  35.364   9.464
  616POPC   PO411112  44.632  35.316   9.164
  616POPC   GL111113  44.679  35.368   8.864
  616POPC   GL211114  44.770  35.275   8.864
  616POPC   C1A11115  44.657  35.316   8.564
  616POPC   D2A11116  44.640  35.346   8.264
  616POPC   C3A11117  44.657  35.304   7.964
  616POPC   C4A11118  44.703  35.322   7.664
  616POPC   C1B11119  44.875  35.236   8.564
  616POPC   C2B11120  44.899  35.235   8.264
  616POPC   C3B11121  44.876  35.292   7.964
  616POPC   C4B11122  44.866  35.272   7.664
  617POPC   NC311123  40.742  39.977   9.464
  617POPC   PO411124  40.806  40.044   9.164
  617POPC   GL111125  40.779  39.998   8.864
  617POPC   GL211126  40.954  40.022   8.864
  617POPC   C1A11127  40.760  40.021   8.564
  617POPC   D2A11128  40.783  40.002   8.264
  617POPC   C3A11129  40.734  40.007   7.964
  617POPC   C4A11130  40.806  40.056   7.664
  617POPC   C1B11131  41.027  40.036   8.564
  617POPC   C2B11132  41.055  39.980   8.264
  617POPC   C3B11133  41.050  39.994   7.964
  617POPC   C4B11134  41.033  40.050   7.664
  618POPC   NC311135  20.658  15.921   9.464
  618POPC   PO411136  20.563  15.960   9.164
  618POPC   GL111137  20.582  15.958   8.864
  618POPC   GL211138  20.735  16.025   8.864
  618POPC   C1A11139  20.609  15.910   8.564
  618POPC   D2A11140  20.659  15.983   8.264
  618POPC   C3A11141  20.616  15.980   7.964
  618POPC   C4A11142  20.585  15.978   7.664
  618POPC   C1B11143  20.816  16.024   8.564
  618POPC   C2B11144  20.865  16.031   8.264
  618POPC   C3B11145  20.791  16.063   7.964
  618POPC   C4B11146  20.812  16.029   7.664
  619POPC   NC311147  29.932   9.752   9.464
  619POPC   PO411148  29.949   9.708   9.164
  619POPC   GL111149  29.921   9.782   8.864
  619POPC   GL211150  29.867   9.887   8.864
  619POPC   C1A11151  29.884   9.700   8.564
  619POPC   D2A11152  29.954   9.787   8.264
  619POPC   C3A11153  29.942   9.737   7.964
  619POPC   C4A11154  29.912   9.756   7.664
  619POPC   C1B11155  29.883   9.991   8.564
  619POPC   C2B11156  29.837   9.997   8.264
  619POPC   C3B11157  29.898   9.974   7.964
  619POPC   C4B11158  29.874  10.015   7.664
  620POPC   NC311159   9.776  35.328   9.464
  620POPC   PO411160   9.749  35.401   9.164
  620POPC   GL111161   9.742  35.345   8.864
  620POPC   GL211162   9.656  35.272   8.864
  620POPC   C1A11163   9.737  35.381   8.564
  620POPC   D2A11164   9.766  35.324   8.264
  620POPC   C3A11165   9.754  35.321   7.964
  620POPC   C4A11166   9.739  35.382   7.664
  620POPC   C1B11167   9.518  35.158   8.564
  620POPC   C2B11168   9.590  35.237   8.264
  620POPC   C3B11169   9.535  35.217   7.964
  620POPC   C4B11170   9.511  35.189   7.664
  621POPC   NC311171  25.254  29.097   9.464
  621POPC   PO411172  25.298  29.159   9.164
  621POPC   GL111173  25.277  29.175   8.864
  621POPC   GL211174  25.193  29.028   8.864
  621POPC   C1A11175  25.287  29.124   8.564
  621POPC   D2A11176  25.289  29.103   8.264
  621POPC   C3A11177  25.244  29.121   7.964
  621POPC   C4A11178  25.239  29.155   7.664
  621POPC   C1B11179  25.126  28.925   8.564
  621POPC   C2B11180  25.113  28.911   8.264
  621POPC   C3B11181  25.122  28.896   7.964
  621POPC   C4B11182  25.171  28.972   7.664
  622POPC   NC311183  18.238   8.994   9.464
  622POPC   PO411184  18.305   8.940   9.164
  622POPC   GL111185  18.250   9.001   8.864
  622POPC   GL211186  18.448   8.958   8.864
  622POPC   C1A11187  18.243   8.953   8.564
  622POPC   D2A11188  18.324   8.966   8.264
  622POPC   C3A11189  18.290   8.945   7.964
  622POPC   C4A11190  18.288   8.993   7.664
  622POPC   C1B11191  18.544   8.954   8.564
  622POPC   C2B11192  18.582   8.945   8.264
  622POPC   C3B11193  18.500   8.977   7.964
  622POPC   C4B11194  18.503   9.012   7.664
  623POPC   NC311195  42.358  38.472   9.464
  623POPC   PO411196  42.304  38.477   9.164
  623POPC   GL111197  42.380  38.484   8.864
  623POPC   GL211198  42.478  38.415   8.864
  623POPC   C1A11199  42.313  38.421   8.564
  623POPC   D2A11200  42.365  38.476   8.264
  623POPC   C3A11201  42.348  38.441   7.964
  623POPC   C4A11202  42.287  38.491   7.664
  623POPC   C1B11203  42.626  38.474   8.564
  623POPC   C2B11204  42.545  38.408   8.264
  623POPC   C3B11205  42.570  38.419   7.964
  623POPC   C4B11206  42.541  38.448   7.664
  624POPC   NC311207  25.269   8.996   9.464
  624POPC   PO411208  25.255   9.018   9.164
  624POPC   GL111209  25.247   8.999   8.864
  624POPC   GL211210  25.285   8.832   8.864
  624POPC   C1A11211  25.314   8.992   8.564
  624POPC   D2A11212  25.231   9.007   8.264
  624POPC   C3A11213  25.257   8.940   7.964
  624POPC   C4A11214  25.230   8.974   7.664
  624POPC   C1B11215  25.170   8.771   8.564
  624POPC   C2B11216  25.176   8.713   8.264
  624POPC   C3B11217  25.258   8.739   7.964
  624POPC   C4B11218  25.228   8.718   7.664
  625POPC   NC311219   7.414  12.116   9.464
  625POPC   PO411220   7.420  12.041   9.164
  625POPC   GL111221   7.403  12.124   8.864
  625POPC   GL211222   7.567  12.066   8.864
  625POPC   C1A11223   7.441  12.094   8.564
  625POPC   D2A11224   7.423  12.077   8.264
  625POPC   C3A11225   7.375  12.048   7.964
  625POPC   C4A11226   7.416  12.123   7.664
  625POPC   C1B11227   7.674  12.050   8.564
  625POPC   C2B11228   7.718  12.063   8.264
  625POPC   C3B11229   7.670  12.106   7.964
  625POPC   C4B11230   7.705  12.100   7.664
  626POPC   NC311231  39.275   5.910   9.464
  626POPC   PO411232  39.279   5.820   9.164
  626POPC   GL111233  39.218   5.875   8.864
  626POPC   GL211234  39.253   5.774   8.864
  626POPC   C1A11235  39.244   5.843   8.564
  626POPC   D2A11236  39.240   5.891   8.264
  626POPC   C3A11237  39.242   5.823   7.964
  626POPC   C4A11238  39.269   5.872   7.664
  626POPC   C1B11239  39.280   5.616   8.564
  626POPC   C2B11240  39.326   5.629   8.264
  626POPC   C3B11241  39.293   5.665   7.964
  626POPC   C4B11242  39.315   5.591   7.664
  627POPC   NC311243  39.958   1.185   9.464
  627POPC   PO411244  39.969   1.233   9.164
  627POPC   GL111245  39.985   1.239   8.864
  627POPC   GL211246  39.911   1.298   8.864
  627POPC   C1A11247  39.991   1.242   8.564
  627POPC   D2A11248  40.000   1.191   8.264
  627POPC   C3A11249  39.974   1.167   7.964
  627POPC   C4A11250  39.964   1.258   7.664
  627POPC   C1B11251  39.869   1.457   8.564
  627POPC   C2B11252  39.861   1.425   8.264
  627POPC   C3B11253  39.924   1.434   7.964
  627POPC   C4B11254  39.843   1.465   7.664
  628POPC   NC311255  26.057  29.120   9.464
  628POPC   PO411256  26.055  29.139   9.164
  628POPC   GL111257  26.037  29.100   8.864
  628POPC   GL211258  26.082  29.068   8.864
  628POPC   C1A11259  26.068  29.150   8.564
  628POPC   D2A11260  26.056  29.109   8.264
  628POPC   C3A11261  26.029  29.149   7.964
  628POPC   C4A11262  26.001  29.194   7.664
  628POPC   C1B11263  26.122  28.851   8.564
  628POPC   C2B11264  26.095  28.935   8.264
  628POPC   C3B11265  26.030  28.849   7.964
  628POPC   C4B11266  26.041  28.891   7.664
  629POPC   NC311267  39.244   2.027   9.464
  629POPC   PO411268  39.181   1.946   9.164
  629POPC   GL111269  39.231   1.988   8.864
  629POPC   GL211270  39.326   2.079   8.864
  629POPC   C1A11271  39.256   2.024   8.564
  629POPC   D2A11272  39.254   1.967   8.264
  629POPC   C3A11273  39.235   1.985   7.964
  629POPC   C4A11274  39.263   2.022   7.664
  629POPC   C1B11275  39.399   2.212   8.564
  629POPC   C2B11276  39.357   2.153   8.264
  629POPC   C3B11277  39.429   2.204   7.964
  629POPC   C4B11278  39.420   2.160   7.664
  630POPC   NC311279  19.095  29.130   9.464
  630POPC   PO411280  19.085  29.136   9.164
  630POPC   GL111281  19.078  29.172   8.864
  630POPC   GL211282  18.912  29.192   8.864
  630POPC   C1A11283  19.107  29.178   8.564
  630POPC   D2A11284  19.077  29.116   8.264
  630POPC   C3A11285  19.088  29.164   7.964
  630POPC   C4A11286  19.014  29.172   7.664
  630POPC   C1B11287  18.894  29.269   8.564
  630POPC   C2B11288  18.908  29.255   8.264
  630POPC   C3B11289  18.817  29.300   7.964
  630POPC   C4B11290  18.871  29.257   7.664
  631POPC   NC311291  41.600   5.115   9.464
  631POPC   PO411292  41.582   5.114   9.164
  631POPC   GL111293  41.524   5.057   8.864
  631POPC   GL211294  41.628   4.975   8.864
  631POPC   C1A11295  41.531   5.060   8.564
  631POPC   D2A11296  41.562   5.136   8.264
  631POPC   C3A11297  41.552   5.139   7.964
  631POPC   C4A11298  41.579   5.090   7.664
  631POPC   C1B11299  41.742   4.898   8.564
  631POPC   C2B11300  41.779   4.917   8.264
  631POPC   C3B11301  41.803   4.984   7.964
  631POPC   C4B11302  41.800   4.957   7.664
  632POPC   NC311303   3.514  39.988   9.464
  632POPC   PO411304   3.499  39.958   9.164
  632POPC   GL111305   3.546  40.028   8.864
  632POPC   GL211306   3.503  40.159   8.864
  632POPC   C1A11307   3.492  40.014   8.564
  632POPC   D2A11308   3.528  40.042   8.264
  632POPC   C3A11309   3.519  39.979   7.964
  632POPC   C4A11310   3.575  40.021   7.664
  632POPC   C1B11311   3.550  40.262   8.564
  632POPC   C2B11312   3.543  40.247   8.264
  632POPC   C3B11313   3.548  40.208   7.964
  632POPC   C4B11314   3.519  40.291   7.664
  633POPC   NC311315  14.391  15.931   9.464
  633POPC   PO411316  14.448  15.984   9.164
  633POPC   GL111317  14.422  15.949   8.864
  633POPC   GL211318  14.539  16.046   8.864
  633POPC   C1A11319  14.401  15.976   8.564
  633POPC   D2A11320  14.433  15.907   8.264
  633POPC   C3A11321  14.380  15.925   7.964
  633POPC   C4A11322  14.403  15.940   7.664
  633POPC   C1B11323  14.634  16.102   8.564
  633POPC   C2B11324  14.646  16.150   8.264
  633POPC   C3B11325  14.547  16.076   7.964
  633POPC   C4B11326  14.626  16.138   7.664
  634POPC   NC311327   8.244  21.368   9.464
  634POPC   PO411328   8.177  21.372   9.164
  634POPC   GL111329   8.221  21.355   8.864
  634POPC   GL211330   8.080  21.469   8.864
  634POPC   C1A11331   8.199  21.377   8.564
  634POPC   D2A11332   8.215  21.433   8.264
  634POPC   C3A11333   8.225  21.378   7.964
  634POPC   C4A11334   8.217  21.363   7.664
  634POPC   C1B11335   7.948  21.515   8.564
  634POPC   C2B11336   8.004  21.507   8.264
  634POPC   C3B11337   7.973  21.566   7.964
  634POPC   C4B11338   7.988  21.585   7.664
  635POPC   NC311339   8.188  32.200   9.464
  635POPC   PO411340   8.209  32.221   9.164
  635POPC   GL111341   8.216  32.290   8.864
  635POPC   GL211342   8.137  32.106   8.864
  635POPC   C1A11343   8.205  32.238   8.564
  635POPC   D2A11344   8.150  32.249   8.264
  635POPC   C3A11345   8.147  32.272   7.964
  635POPC   C4A11346   8.233  32.263   7.664
  635POPC   C1B11347   8.010  32.053   8.564
  635POPC   C2B11348   8.029  32.049   8.264
  635POPC   C3B11349   8.056  32.024   7.964
  635POPC   C4B11350   7.990  32.035   7.664
  636POPC   NC311351  16.775   2.768   9.464
  636POPC   PO411352  16.756   2.783   9.164
  636POPC   GL111353  16.769   2.793   8.864
  636POPC   GL211354  16.664   2.681   8.864
  636POPC   C1A11355  16.747   2.788   8.564
  636POPC   D2A11356  16.688   2.743   8.264
  636POPC   C3A11357  16.752   2.812   7.964
  636POPC   C4A11358  16.753   2.785   7.664
  636POPC   C1B11359  16.460   2.655   8.564
  636POPC   C2B11360  16.460   2.651   8.264
  636POPC   C3B11361  16.459   2.661   7.964
  636POPC   C4B11362  16.513   2.638   7.664
  637POPC   NC311363  26.774   1.941   9.464
  637POPC   PO411364  26.786   1.983   9.164
  637POPC   GL111365  26.807   2.028   8.864
  637POPC   GL211366  26.730   1.960   8.864
  637POPC   C1A11367  26.814   1.963   8.564
  637POPC   D2A11368  26.814   1.967   8.264
  637POPC   C3A11369  26.811   2.004   7.964
  637POPC   C4A11370  26.844   1.948   7.664
  637POPC   C1B11371  26.575   1.980   8.564
  637POPC   C2B11372  26.531   1.984   8.264
  637POPC   C3B11373  26.612   1.942   7.964
  637POPC   C4B11374  26.541   1.997   7.664
  638POPC   NC311375  16.713  39.209   9.464
  638POPC   PO411376  16.707  39.219   9.164
  638POPC   GL111377  16.695  39.186   8.864
  638POPC   GL211378  16.616  39.271   8.864
  638POPC   C1A11379  16.752  39.202   8.564
  638POPC   D2A11380  16.768  39.271   8.264
  638POPC   C3A11381  16.752  39.273   7.964
  638POPC   C4A11382  16.709  39.240   7.664
  638POPC   C1B11383  16.603  39.360   8.564
  638POPC   C2B11384  16.581  39.455   8.264
  638POPC   C3B11385  16.533  39.423   7.964
  638POPC   C4B11386  16.515  39.433   7.664
  639POPC   NC311387  13.657   0.411   9.464
  639POPC   PO411388  13.628   0.444   9.164
  639POPC   GL111389  13.599   0.409   8.864
  639POPC   GL211390  13.503   0.555   8.864
  639POPC   C1A11391  13.624   0.487   8.564
  639POPC   D2A11392  13.661   0.427   8.264
  639POPC   C3A11393  13.676   0.482   7.964
  639POPC   C4A11394  13.631   0.423   7.664
  639POPC   C1B11395  13.426   0.628   8.564
  639POPC   C2B11396  13.418   0.600   8.264
  639POPC   C3B11397  13.489   0.567   7.964
  639POPC   C4B11398  13.429   0.579   7.664
  640POPC   NC311399  34.536   5.907   9.464
  640POPC   PO411400  34.588   5.846   9.164
  640POPC   GL111401  34.574   5.893   8.864
  640POPC   GL211402  34.405   5.811   8.864
  640POPC   C1A11403  34.578   5.892   8.564
  640POPC   D2A11404  34.558   5.891   8.264
  640POPC   C3A11405  34.583   5.846   7.964
  640POPC   C4A11406  34.565   5.836   7.664
  640POPC   C1B11407  34.287   5.777   8.564
  640POPC   C2B11408  34.333   5.789   8.264
  640POPC   C3B11409  34.289   5.766   7.964
  640POPC   C4B11410  34.380   5.768   7.664
  641POPC   NC311411  27.603  32.225   9.464
  641POPC   PO411412  27.553  32.253   9.164
  641POPC   GL111413  27.625  32.296   8.864
  641POPC   GL211414  27.641  32.408   8.864
  641POPC   C1A11415  27.592  32.237   8.564
  641POPC   D2A11416  27.611  32.200   8.264
  641POPC   C3A11417  27.599  32.249   7.964
  641POPC   C4A11418  27.621  32.293   7.664
  641POPC   C1B11419  27.653  32.465   8.564
  641POPC   C2B11420  27.663  32.485   8.264
  641POPC   C3B11421  27.702  32.467   7.964
  641POPC   C4B11422  27.724  32.484   7.664
  642POPC   NC311423  37.697   5.140   9.464
  642POPC   PO411424  37.656   5.056   9.164
  642POPC   GL111425  37.707   5.132   8.864
  642POPC   GL211426  37.717   5.175   8.864
  642POPC   C1A11427  37.629   5.108   8.564
  642POPC   D2A11428  37.718   5.102   8.264
  642POPC   C3A11429  37.629   5.108   7.964
  642POPC   C4A11430  37.641   5.046   7.664
  642POPC   C1B11431  37.796   5.288   8.564
  642POPC   C2B11432  37.755   5.337   8.264
  642POPC   C3B11433  37.810   5.357   7.964
  642POPC   C4B11434  37.782   5.327   7.664
  643POPC   NC311435  33.771   5.063   9.464
  643POPC   PO411436  33.835   5.062   9.164
  643POPC   GL111437  33.764   5.142   8.864
  643POPC   GL211438  33.743   5.193   8.864
  643POPC   C1A11439  33.759   5.083   8.564
  643POPC   D2A11440  33.750   5.127   8.264
  643POPC   C3A11441  33.753   5.115   7.964
  643POPC   C4A11442  33.820   5.131   7.664
  643POPC   C1B11443  33.732   5.343   8.564
  643POPC   C2B11444  33.691   5.309   8.264
  643POPC   C3B11445  33.748   5.324   7.964
  643POPC   C4B11446  33.723   5.296   7.664
  644POPC   NC311447  12.060   2.038   9.464
  644POPC   PO411448  12.050   1.941   9.164
  644POPC   GL111449  12.029   1.968   8.864
  644POPC   GL211450  11.909   1.988   8.864
  644POPC   C1A11451  12.121   1.952   8.564
  644POPC   D2A11452  12.053   1.993   8.264
  644POPC   C3A11453  12.111   1.946   7.964
  644POPC   C4A11454  12.032   2.007   7.664
  644POPC   C1B11455  11.836   2.008   8.564
  644POPC   C2B11456  11.873   1.960   8.264
  644POPC   C3B11457  11.859   1.961   7.964
  644POPC   C4B11458  11.833   1.987   7.664
  645POPC   NC311459   1.240  37.674   9.464
  645POPC   PO411460   1.200  37.697   9.164
  645POPC   GL111461   1.188  37.729   8.864
  645POPC   GL211462   1.179  37.557   8.864
  645POPC   C1A11463   1.197  37.699   8.564
  645POPC   D2A11464   1.183  37.705   8.264
  645POPC   C3A11465   1.231  37.679   7.964
  645POPC   C4A11466   1.235  37.715   7.664
  645POPC   C1B11467   1.107  37.399   8.564
  645POPC   C2B11468   1.137  37.429   8.264
  645POPC   C3B11469   1.123  37.398   7.964
  645POPC   C4B11470   1.133  37.434   7.664
  646POPC   NC311471   8.193  12.859   9.464
  646POPC   PO411472   8.151  12.861   9.164
  646POPC   GL111473   8.176  12.846   8.864
  646POPC   GL211474   8.129  12.755   8.864
  646POPC   C1A11475   8.231  12.849   8.564
  646POPC   D2A11476   8.176  12.863   8.264
  646POPC   C3A11477   8.149  12.872   7.964
  646POPC   C4A11478   8.188  12.809   7.664
  646POPC   C1B11479   7.992  12.776   8.564
  646POPC   C2B11480   7.942  12.767   8.264
  646POPC   C3B11481   7.976  12.747   7.964
  646POPC   C4B11482   7.992  12.715   7.664
  647POPC   NC311483  23.710  32.992   9.464
  647POPC   PO411484  23.720  33.004   9.164
  647POPC   GL111485  23.763  33.006   8.864
  647POPC   GL211486  23.801  32.977   8.864
  647POPC   C1A11487  23.733  33.035   8.564
  647POPC   D2A11488  23.680  32.998   8.264
  647POPC   C3A11489  23.685  33.026   7.964
  647POPC   C4A11490  23.688  33.056   7.664
  647POPC   C1B11491  23.938  32.958   8.564
  647POPC   C2B11492  23.924  32.912   8.264
  647POPC   C3B11493  23.957  32.924   7.964
  647POPC   C4B11494  23.981  32.958   7.664
  648POPC   NC311495  30.652  25.271   9.464
  648POPC   PO411496  30.650  25.265   9.164
  648POPC   GL111497  30.657  25.299   8.864
  648POPC   GL211498  30.614  25.258   8.864
  648POPC   C1A11499  30.668  25.277   8.564
  648POPC   D2A11500  30.739  25.252   8.264
  648POPC   C3A11501  30.714  25.274   7.964
  648POPC   C4A11502  30.695  25.289   7.664
  648POPC   C1B11503  30.467  25.366   8.564
  648POPC   C2B11504  30.470  25.360   8.264
  648POPC   C3B11505  30.500  25.310   7.964
  648POPC   C4B11506  30.474  25.276   7.664
  649POPC   NC311507  15.198  25.312   9.464
  649POPC   PO411508  15.199  25.266   9.164
  649POPC   GL111509  15.150  25.299   8.864
  649POPC   GL211510  15.098  25.304   8.864
  649POPC   C1A11511  15.203  25.262   8.564
  649POPC   D2A11512  15.203  25.279   8.264
  649POPC   C3A11513  15.136  25.260   7.964
  649POPC   C4A11514  15.180  25.304   7.664
  649POPC   C1B11515  15.009  25.381   8.564
  649POPC   C2B11516  14.937  25.374   8.264
  649POPC   C3B11517  14.931  25.435   7.964
  649POPC   C4B11518  14.942  25.369   7.664
  650POPC   NC311519  30.725  29.133   9.464
  650POPC   PO411520  30.696  29.114   9.164
  650POPC   GL111521  30.727  29.123   8.864
  650POPC   GL211522  30.697  29.289   8.864
  650POPC   C1A11523  30.689  29.180   8.564
  650POPC   D2A11524  30.735  29.128   8.264
  650POPC   C3A11525  30.671  29.159   7.964
  650POPC   C4A11526  30.663  29.131   7.664
  650POPC   C1B11527  30.608  29.413   8.564
  650POPC   C2B11528  30.653  29.393   8.264
  650POPC   C3B11529  30.666  29.344   7.964
  650POPC   C4B11530  30.677  29.378   7.664
  651POPC   NC311531   7.456  29.132   9.464
  651POPC   PO411532   7.450  29.111   9.164
  651POPC   GL111533   7.460  29.109   8.864
  651POPC   GL211534   7.303  29.181   8.864
  651POPC   C1A11535   7.444  29.131   8.564
  651POPC   D2A11536   7.452  29.152   8.264
  651POPC   C3A11537   7.455  29.141   7.964
  651POPC   C4A11538   7.422  29.104   7.664
  651POPC   C1B11539   7.175  29.232   8.564
  651POPC   C2B11540   7.235  29.230   8.264
  651POPC   C3B11541   7.217  29.202   7.964
  651POPC   C4B11542   7.152  29.196   7.664
  652POPC   NC311543   9.729  10.499   9.464
  652POPC   PO411544   9.760  10.567   9.164
  652POPC   GL111545   9.784  10.542   8.864
  652POPC   GL211546   9.618  10.480   8.864
  652POPC   C1A11547   9.734  10.546   8.564
  652POPC   D2A11548   9.769  10.522   8.264
  652POPC   C3A11549   9.753  10.542   7.964
  652POPC   C4A11550   9.728  10.492   7.664
  652POPC   C1B11551   9.530  10.462   8.564
  652POPC   C2B11552   9.520  10.429   8.264
  652POPC   C3B11553   9.495  10.478   7.964
  652POPC   C4B11554   9.549  10.479   7.664
  653POPC   NC311555  37.670  22.936   9.464
  653POPC   PO411556  37.641  22.907   9.164
  653POPC   GL111557  37.684  22.930   8.864
  653POPC   GL211558  37.604  23.002   8.864
  653POPC   C1A11559  37.725  22.922   8.564
  653POPC   D2A11560  37.694  22.966   8.264
  653POPC   C3A11561  37.676  22.911   7.964
  653POPC   C4A11562  37.694  22.956   7.664
  653POPC   C1B11563  37.554  23.124   8.564
  653POPC   C2B11564  37.518  23.144   8.264
  653POPC   C3B11565  37.482  23.157   7.964
  653POPC   C4B11566  37.523  23.170   7.664
  654POPC   NC311567  19.839  35.321   9.464
  654POPC   PO411568  19.833  35.350   9.164
  654POPC   GL111569  19.843  35.360   8.864
  654POPC   GL211570  19.848  35.518   8.864
  654POPC   C1A11571  19.789  35.349   8.564
  654POPC   D2A11572  19.851  35.318   8.264
  654POPC   C3A11573  19.808  35.367   7.964
  654POPC   C4A11574  19.842  35.399   7.664
  654POPC   C1B11575  19.836  35.622   8.564
  654POPC   C2B11576  19.792  35.596   8.264
  654POPC   C3B11577  19.839  35.614   7.964
  654POPC   C4B11578  19.799  35.624   7.664
  655POPC   NC311579  43.875   5.105   9.464
  655POPC   PO411580  43.917   5.108   9.164
  655POPC   GL111581  43.878   5.108   8.864
  655POPC   GL211582  43.914   5.191   8.864
  655POPC   C1A11583  43.914   5.071   8.564
  655POPC   D2A11584  43.885   5.109   8.264
  655POPC   C3A11585  43.934   5.046   7.964
  655POPC   C4A11586  43.888   5.116   7.664
  655POPC   C1B11587  43.819   5.361   8.564
  655POPC   C2B11588  43.893   5.364   8.264
  655POPC   C3B11589  43.901   5.318   7.964
  655POPC   C4B11590  43.903   5.340   7.664
  656POPC   NC311591  39.278  43.885   9.464
  656POPC   PO411592  39.206  43.878   9.164
  656POPC   GL111593  39.256  43.922   8.864
  656POPC   GL211594  39.260  43.995   8.864
  656POPC   C1A11595  39.235  43.847   8.564
  656POPC   D2A11596  39.213  43.869   8.264
  656POPC   C3A11597  39.239  43.864   7.964
  656POPC   C4A11598  39.199  43.861   7.664
  656POPC   C1B11599  39.239  44.122   8.564
  656POPC   C2B11600  39.241  44.160   8.264
  656POPC   C3B11601  39.279  44.145   7.964
  656POPC   C4B11602  39.300  44.157   7.664
  657POPC   NC311603  26.020   2.033   9.464
  657POPC   PO411604  26.061   1.987   9.164
  657POPC   GL111605  26.005   1.999   8.864
  657POPC   GL211606  25.989   1.856   8.864
  657POPC   C1A11607  26.024   1.993   8.564
  657POPC   D2A11608  26.052   1.944   8.264
  657POPC   C3A11609  26.009   1.987   7.964
  657POPC   C4A11610  26.050   1.951   7.664
  657POPC   C1B11611  25.917   1.770   8.564
  657POPC   C2B11612  25.873   1.790   8.264
  657POPC   C3B11613  25.918   1.809   7.964
  657POPC   C4B11614  25.939   1.749   7.664
  658POPC   NC311615  25.258  33.776   9.464
  658POPC   PO411616  25.265  33.776   9.164
  658POPC   GL111617  25.284  33.828   8.864
  658POPC   GL211618  25.283  33.681   8.864
  658POPC   C1A11619  25.248  33.839   8.564
  658POPC   D2A11620  25.281  33.762   8.264
  658POPC   C3A11621  25.304  33.829   7.964
  658POPC   C4A11622  25.243  33.761   7.664
  658POPC   C1B11623  25.347  33.526   8.564
  658POPC   C2B11624  25.312  33.522   8.264
  658POPC   C3B11625  25.281  33.530   7.964
  658POPC   C4B11626  25.310  33.566   7.664
  659POPC   NC311627  15.967  44.658   9.464
  659POPC   PO411628  15.950  44.638   9.164
  659POPC   GL111629  16.002  44.694   8.864
  659POPC   GL211630  15.898  44.613   8.864
  659POPC   C1A11631  15.950  44.655   8.564
  659POPC   D2A11632  15.960  44.614   8.264
  659POPC   C3A11633  15.975  44.653   7.964
  659POPC   C4A11634  15.963  44.662   7.664
  659POPC   C1B11635  15.740  44.516   8.564
  659POPC   C2B11636  15.813  44.467   8.264
  659POPC   C3B11637  15.835  44.436   7.964
  659POPC   C4B11638  15.740  44.510   7.664
  660POPC   NC311639  40.819  22.139   9.464
  660POPC   PO411640  40.767  22.143   9.164
  660POPC   GL111641  40.816  22.188   8.864
  660POPC   GL211642  40.908  22.096   8.864
  660POPC   C1A11643  40.750  22.116   8.564
  660POPC   D2A11644  40.768  22.173   8.264
  660POPC   C3A11645  40.751  22.201   7.964
  660POPC   C4A11646  40.832  22.150   7.664
  660POPC   C1B11647  40.932  21.974   8.564
  660POPC   C2B11648  41.017  22.002   8.264
  660POPC   C3B11649  41.017  21.947   7.964
  660POPC   C4B11650  41.005  22.003   7.664
  661POPC   NC311651  42.332  13.664   9.464
  661POPC   PO411652  42.349  13.615   9.164
  661POPC   GL111653  42.327  13.601   8.864
  661POPC   GL211654  42.305  13.737   8.864
  661POPC   C1A11655  42.373  13.640   8.564
  661POPC   D2A11656  42.359  13.583   8.264
  661POPC   C3A11657  42.320  13.658   7.964
  661POPC   C4A11658  42.330  13.592   7.664
  661POPC   C1B11659  42.288  13.904   8.564
  661POPC   C2B11660  42.310  13.922   8.264
  661POPC   C3B11661  42.275  13.848   7.964
  661POPC   C4B11662  42.335  13.921   7.664
  662POPC   NC311663  36.899  26.064   9.464
  662POPC   PO411664  36.880  26.032   9.164
  662POPC   GL111665  36.883  26.047   8.864
  662POPC   GL211666  36.940  26.136   8.864
  662POPC   C1A11667  36.919  26.044   8.564
  662POPC   D2A11668  36.935  26.023   8.264
  662POPC   C3A11669  36.886  26.055   7.964
  662POPC   C4A11670  36.895  26.040   7.664
  662POPC   C1B11671  37.076  26.249   8.564
  662POPC   C2B11672  37.077  26.223   8.264
  662POPC   C3B11673  37.032  26.213   7.964
  662POPC   C4B11674  37.042  26.207   7.664
  663POPC   NC311675  19.845  43.925   9.464
  663POPC   PO411676  19.823  43.885   9.164
  663POPC   GL111677  19.838  43.919   8.864
  663POPC   GL211678  19.889  43.833   8.864
  663POPC   C1A11679  19.876  43.892   8.564
  663POPC   D2A11680  19.850  43.849   8.264
  663POPC   C3A11681  19.853  43.838   7.964
  663POPC   C4A11682  19.867  43.870   7.664
  663POPC   C1B11683  19.980  43.705   8.564
  663POPC   C2B11684  20.015  43.739   8.264
  663POPC   C3B11685  20.039  43.752   7.964
  663POPC   C4B11686  20.047  43.742   7.664
  664POPC   NC311687  32.242   8.175   9.464
  664POPC   PO411688  32.278   8.225   9.164
  664POPC   GL111689  32.202   8.245   8.864
  664POPC   GL211690  32.408   8.238   8.864
  664POPC   C1A11691  32.250   8.213   8.564
  664POPC   D2A11692  32.256   8.184   8.264
  664POPC   C3A11693  32.241   8.187   7.964
  664POPC   C4A11694  32.241   8.158   7.664
  664POPC   C1B11695  32.510   8.274   8.564
  664POPC   C2B11696  32.524   8.280   8.264
  664POPC   C3B11697  32.437   8.275   7.964
  664POPC   C4B11698  32.512   8.261   7.664
  665POPC   NC311699  24.448  41.573   9.464
  665POPC   PO411700  24.459  41.604   9.164
  665POPC   GL111701  24.535  41.537   8.864
  665POPC   GL211702  24.471  41.486   8.864
  665POPC   C1A11703  24.505  41.568   8.564
  665POPC   D2A11704  24.478  41.598   8.264
  665POPC   C3A11705  24.478  41.575   7.964
  665POPC   C4A11706  24.490  41.603   7.664
  665POPC   C1B11707  24.367  41.379   8.564
  665POPC   C2B11708  24.316  41.324   8.264
  665POPC   C3B11709  24.368  41.354   7.964
  665POPC   C4B11710  24.366  41.378   7.664
  666POPC   NC311711  21.388   2.033   9.464
  666POPC   PO411712  21.433   1.978   9.164
  666POPC   GL111713  21.347   2.014   8.864
  666POPC   GL211714  21.422   1.914   8.864
  666POPC   C1A11715  21.415   1.959   8.564
  666POPC   D2A11716  21.393   1.993   8.264
  666POPC   C3A11717  21.416   2.008   7.964
  666POPC   C4A11718  21.367   2.031   7.664
  666POPC   C1B11719  21.555   1.767   8.564
  666POPC   C2B11720  21.559   1.755   8.264
  666POPC   C3B11721  21.520   1.758   7.964
  666POPC   C4B11722  21.503   1.795   7.664
  667POPC   NC311723  39.970  29.138   9.464
  667POPC   PO411724  40.005  29.171   9.164
  667POPC   GL111725  39.993  29.138   8.864
  667POPC   GL211726  40.056  29.046   8.864
  667POPC   C1A11727  40.053  29.189   8.564
  667POPC   D2A11728  39.961  29.104   8.264
  667POPC   C3A11729  40.036  29.100   7.964
  667POPC   C4A11730  39.959  29.136   7.664
  667POPC   C1B11731  40.209  28.962   8.564
  667POPC   C2B11732  40.134  28.986   8.264
  667POPC   C3B11733  40.187  28.947   7.964
  667POPC   C4B11734  40.181  28.940   7.664
  668POPC   NC311735  43.860  22.143   9.464
  668POPC   PO411736  43.876  22.126   9.164
  668POPC   GL111737  43.907  22.127   8.864
  668POPC   GL211738  44.023  22.163   8.864
  668POPC   C1A11739  43.936  22.209   8.564
  668POPC   D2A11740  43.880  22.203   8.264
  668POPC   C3A11741  43.848  22.124   7.964
  668POPC   C4A11742  43.922  22.135   7.664
  668POPC   C1B11743  44.118  22.200   8.564
  668POPC   C2B11744  44.154  22.227   8.264
  668POPC   C3B11745  44.103  22.232   7.964
  668POPC   C4B11746  44.125  22.223   7.664
  669POPC   NC311747  36.101  22.132   9.464
  669POPC   PO411748  36.083  22.127   9.164
  669POPC   GL111749  36.144  22.203   8.864
  669POPC   GL211750  36.044  22.256   8.864
  669POPC   C1A11751  36.078  22.173   8.564
  669POPC   D2A11752  36.153  22.147   8.264
  669POPC   C3A11753  36.091  22.196   7.964
  669POPC   C4A11754  36.121  22.138   7.664
  669POPC   C1B11755  36.001  22.346   8.564
  669POPC   C2B11756  36.002  22.387   8.264
  669POPC   C3B11757  36.012  22.401   7.964
  669POPC   C4B11758  36.010  22.360   7.664
  670POPC   NC311759  22.900  43.887   9.464
  670POPC   PO411760  22.967  43.837   9.164
  670POPC   GL111761  22.930  43.927   8.864
  670POPC   GL211762  22.927  44.037   8.864
  670POPC   C1A11763  22.900  43.868   8.564
  670POPC   D2A11764  22.973  43.846   8.264
  670POPC   C3A11765  22.929  43.924   7.964
  670POPC   C4A11766  22.915  43.846   7.664
  670POPC   C1B11767  22.991  44.103   8.564
  670POPC   C2B11768  22.947  44.085   8.264
  670POPC   C3B11769  22.999  44.154   7.964
  670POPC   C4B11770  22.963  44.110   7.664
  671POPC   NC311771  43.891   4.359   9.464
  671POPC   PO411772  43.914   4.307   9.164
  671POPC   GL111773  43.924   4.365   8.864
  671POPC   GL211774  44.056   4.326   8.864
  671POPC   C1A11775  43.851   4.314   8.564
  671POPC   D2A11776  43.894   4.291   8.264
  671POPC   C3A11777  43.867   4.336   7.964
  671POPC   C4A11778  43.852   4.269   7.664
  671POPC   C1B11779  44.120   4.290   8.564
  671POPC   C2B11780  44.112   4.257   8.264
  671POPC   C3B11781  44.174   4.252   7.964
  671POPC   C4B11782  44.112   4.286   7.664
  672POPC   NC311783  15.997  22.970   9.464
  672POPC   PO411784  15.972  22.932   9.164
  672POPC   GL111785  15.964  22.941   8.864
  672POPC   GL211786  16.086  22.932   8.864
  672POPC   C1A11787  15.963  22.944   8.564
  672POPC   D2A11788  15.938  22.933   8.264
  672POPC   C3A11789  15.957  22.941   7.964
  672POPC   C4A11790  15.985  22.972   7.664
  672POPC   C1B11791  16.243  22.935   8.564
  672POPC   C2B11792  16.190  22.919   8.264
  672POPC   C3B11793  16.174  22.898   7.964
  672POPC   C4B11794  16.255  22.906   7.664
  673POPC   NC311795  32.270   1.951   9.464
  673POPC   PO411796  32.239   1.963   9.164
  673POPC   GL111797  32.204   2.007   8.864
  673POPC   GL211798  32.168   1.915   8.864
  673POPC   C1A11799  32.239   1.975   8.564
  673POPC   D2A11800  32.260   2.021   8.264
  673POPC   C3A11801  32.211   1.980   7.964
  673POPC   C4A11802  32.284   1.967   7.664
  673POPC   C1B11803  31.972   1.876   8.564
  673POPC   C2B11804  32.043   1.969   8.264
  673POPC   C3B11805  32.021   1.883   7.964
  673POPC   C4B11806  32.047   1.918   7.664
  674POPC   NC311807  11.340   5.111   9.464
  674POPC   PO411808  11.253   5.066   9.164
  674POPC   GL111809  11.340   5.052   8.864
  674POPC   GL211810  11.221   5.060   8.864
  674POPC   C1A11811  11.340   5.143   8.564
  674POPC   D2A11812  11.273   5.098   8.264
  674POPC   C3A11813  11.303   5.054   7.964
  674POPC   C4A11814  11.267   5.054   7.664
  674POPC   C1B11815  11.031   5.084   8.564
  674POPC   C2B11816  11.035   5.054   8.264
  674POPC   C3B11817  11.028   5.147   7.964
  674POPC   C4B11818  11.032   5.150   7.664
  675POPC   NC311819   0.438  26.852   9.464
  675POPC   PO411820   0.434  26.820   9.164
  675POPC   GL111821   0.390  26.857   8.864
  675POPC   GL211822   0.338  26.705   8.864
  675POPC   C1A11823   0.417  26.841   8.564
  675POPC   D2A11824   0.435  26.807   8.264
  675POPC   C3A11825   0.395  26.806   7.964
  675POPC   C4A11826   0.425  26.864   7.664
  675POPC   C1B11827   0.332  26.642   8.564
  675POPC   C2B11828   0.302  26.553   8.264
  675POPC   C3B11829   0.330  26.589   7.964
  675POPC   C4B11830   0.302  26.589   7.664
  676POPC   NC311831   4.289  31.463   9.464
  676POPC   PO411832   4.305  31.440   9.164
  676POPC   GL111833   4.285  31.442   8.864
  676POPC   GL211834   4.389  31.562   8.864
  676POPC   C1A11835   4.363  31.515   8.564
  676POPC   D2A11836   4.343  31.451   8.264
  676POPC   C3A11837   4.365  31.451   7.964
  676POPC   C4A11838   4.334  31.443   7.664
  676POPC   C1B11839   4.505  31.623   8.564
  676POPC   C2B11840   4.501  31.622   8.264
  676POPC   C3B11841   4.566  31.615   7.964
  676POPC   C4B11842   4.508  31.591   7.664
  677POPC   NC311843  16.745  29.952   9.464
  677POPC   PO411844  16.738  29.941   9.164
  677POPC   GL111845  16.710  29.885   8.864
  677POPC   GL211846  16.894  29.896   8.864
  677POPC   C1A11847  16.772  29.922   8.564
  677POPC   D2A11848  16.699  29.882   8.264
  677POPC   C3A11849  16.685  29.939   7.964
  677POPC   C4A11850  16.763  29.911   7.664
  677POPC   C1B11851  16.940  29.837   8.564
  677POPC   C2B11852  16.928  29.804   8.264
  677POPC   C3B11853  16.980  29.854   7.964
  677POPC   C4B11854  16.921  29.822   7.664
  678POPC   NC311855  33.022   9.797   9.464
  678POPC   PO411856  33.065   9.782   9.164
  678POPC   GL111857  33.051   9.736   8.864
  678POPC   GL211858  32.891   9.861   8.864
  678POPC   C1A11859  32.989   9.704   8.564
  678POPC   D2A11860  33.041   9.791   8.264
  678POPC   C3A11861  33.035   9.739   7.964
  678POPC   C4A11862  33.041   9.750   7.664
  678POPC   C1B11863  32.813   9.906   8.564
  678POPC   C2B11864  32.818   9.829   8.264
  678POPC   C3B11865  32.799   9.901   7.964
  678POPC   C4B11866  32.764   9.869   7.664
  679POPC   NC311867  15.214  12.102   9.464
  679POPC   PO411868  15.211  12.041   9.164
  679POPC   GL111869  15.172  12.071   8.864
  679POPC   GL211870  15.254  12.070   8.864
  679POPC   C1A11871  15.131  12.059   8.564
  679POPC   D2A11872  15.186  12.118   8.264
  679POPC   C3A11873  15.188  12.031   7.964
  679POPC   C4A11874  15.153  12.074   7.664
  679POPC   C1B11875  15.405  11.969   8.564
  679POPC   C2B11876  15.389  12.027   8.264
  679POPC   C3B11877  15.422  12.042   7.964
  679POPC   C4B11878  15.436  12.013   7.664
  680POPC   NC311879   0.406  12.101   9.464
  680POPC   PO411880   0.463  12.036   9.164
  680POPC   GL111881   0.413  12.054   8.864
  680POPC   GL211882   0.380  12.181   8.864
  680POPC   C1A11883   0.480  12.088   8.564
  680POPC   D2A11884   0.404  12.116   8.264
  680POPC   C3A11885   0.443  12.070   7.964
  680POPC   C4A11886   0.444  12.066   7.664
  680POPC   C1B11887   0.237  12.237   8.564
  680POPC   C2B11888   0.223  12.168   8.264
  680POPC   C3B11889   0.238  12.239   7.964
  680POPC   C4B11890   0.200  12.202   7.664
  681POPC   NC311891  25.217  14.402   9.464
  681POPC   PO411892  25.251  14.416   9.164
  681POPC   GL111893  25.311  14.424   8.864
  681POPC   GL211894  25.114  14.408   8.864
  681POPC   C1A11895  25.261  14.426   8.564
  681POPC   D2A11896  25.272  14.358   8.264
  681POPC   C3A11897  25.241  14.429   7.964
  681POPC   C4A11898  25.255  14.453   7.664
  681POPC   C1B11899  25.030  14.386   8.564
  681POPC   C2B11900  25.061  14.421   8.264
  681POPC   C3B11901  25.054  14.464   7.964
  681POPC   C4B11902  25.044  14.388   7.664
  682POPC   NC311903  33.023  19.059   9.464
  682POPC   PO411904  33.025  19.101   9.164
  682POPC   GL111905  33.068  19.097   8.864
  682POPC   GL211906  32.938  19.105   8.864
  682POPC   C1A11907  33.005  19.079   8.564
  682POPC   D2A11908  33.053  19.064   8.264
  682POPC   C3A11909  33.011  19.059   7.964
  682POPC   C4A11910  32.986  19.082   7.664
  682POPC   C1B11911  32.750  19.131   8.564
  682POPC   C2B11912  32.796  19.120   8.264
  682POPC   C3B11913  32.773  19.160   7.964
  682POPC   C4B11914  32.798  19.114   7.664
  683POPC   NC311915  20.604  27.547   9.464
  683POPC   PO411916  20.624  27.616   9.164
  683POPC   GL111917  20.655  27.594   8.864
  683POPC   GL211918  20.582  27.503   8.864
  683POPC   C1A11919  20.569  27.637   8.564
  683POPC   D2A11920  20.643  27.611   8.264
  683POPC   C3A11921  20.616  27.614   7.964
  683POPC   C4A11922  20.606  27.626   7.664
  683POPC   C1B11923  20.462  27.418   8.564
  683POPC   C2B11924  20.427  27.340   8.264
  683POPC   C3B11925  20.431  27.385   7.964
  683POPC   C4B11926  20.443  27.433   7.664
  684POPC   NC311927  39.255  35.399   9.464
  684POPC   PO411928  39.201  35.358   9.164
  684POPC   GL111929  39.230  35.363   8.864
  684POPC   GL211930  39.086  35.274   8.864
  684POPC   C1A11931  39.189  35.361   8.564
  684POPC   D2A11932  39.200  35.336   8.264
  684POPC   C3A11933  39.237  35.326   7.964
  684POPC   C4A11934  39.240  35.354   7.664
  684POPC   C1B11935  38.958  35.257   8.564
  684POPC   C2B11936  38.971  35.258   8.264
  684POPC   C3B11937  39.027  35.261   7.964
  684POPC   C4B11938  39.022  35.320   7.664
  685POPC   NC311939  26.834  16.759   9.464
  685POPC   PO411940  26.779  16.770   9.164
  685POPC   GL111941  26.832  16.758   8.864
  685POPC   GL211942  26.662  16.711   8.864
  685POPC   C1A11943  26.813  16.705   8.564
  685POPC   D2A11944  26.836  16.731   8.264
  685POPC   C3A11945  26.833  16.762   7.964
  685POPC   C4A11946  26.787  16.774   7.664
  685POPC   C1B11947  26.580  16.669   8.564
  685POPC   C2B11948  26.536  16.695   8.264
  685POPC   C3B11949  26.588  16.694   7.964
  685POPC   C4B11950  26.561  16.663   7.664
  686POPC   NC311951  40.055  21.377   9.464
  686POPC   PO411952  40.056  21.340   9.164
  686POPC   GL111953  40.017  21.342   8.864
  686POPC   GL211954  40.013  21.251   8.864
  686POPC   C1A11955  40.046  21.363   8.564
  686POPC   D2A11956  39.965  21.427   8.264
  686POPC   C3A11957  40.048  21.403   7.964
  686POPC   C4A11958  40.006  21.416   7.664
  686POPC   C1B11959  39.959  21.144   8.564
  686POPC   C2B11960  39.992  21.121   8.264
  686POPC   C3B11961  39.950  21.131   7.964
  686POPC   C4B11962  40.000  21.129   7.664
  687POPC   NC311963   6.682  41.576   9.464
  687POPC   PO411964   6.596  41.599   9.164
  687POPC   GL111965   6.660  41.608   8.864
  687POPC   GL211966   6.537  41.558   8.864
  687POPC   C1A11967   6.617  41.518   8.564
  687POPC   D2A11968   6.614  41.513   8.264
  687POPC   C3A11969   6.633  41.553   7.964
  687POPC   C4A11970   6.668  41.556   7.664
  687POPC   C1B11971   6.425  41.467   8.564
  687POPC   C2B11972   6.377  41.436   8.264
  687POPC   C3B11973   6.448  41.481   7.964
  687POPC   C4B11974   6.424  41.468   7.664
  688POPC   NC311975   6.616  25.267   9.464
  688POPC   PO411976   6.680  25.284   9.164
  688POPC   GL111977   6.681  25.227   8.864
  688POPC   GL211978   6.636  25.373   8.864
  688POPC   C1A11979   6.637  25.278   8.564
  688POPC   D2A11980   6.658  25.309   8.264
  688POPC   C3A11981   6.680  25.255   7.964
  688POPC   C4A11982   6.645  25.258   7.664
  688POPC   C1B11983   6.509  25.526   8.564
  688POPC   C2B11984   6.508  25.519   8.264
  688POPC   C3B11985   6.511  25.491   7.964
  688POPC   C4B11986   6.534  25.527   7.664
  689POPC   NC311987  42.384   5.097   9.464
  689POPC   PO411988  42.376   5.073   9.164
  689POPC   GL111989  42.342   5.064   8.864
  689POPC   GL211990  42.424   5.054   8.864
  689POPC   C1A11991  42.291   5.045   8.564
  689POPC   D2A11992  42.376   5.120   8.264
  689POPC   C3A11993  42.352   5.094   7.964
  689POPC   C4A11994  42.354   5.091   7.664
  689POPC   C1B11995  42.501   4.916   8.564
  689POPC   C2B11996  42.492   4.971   8.264
  689POPC   C3B11997  42.499   4.967   7.964
  689POPC   C4B11998  42.500   4.889   7.664
  690POPC   NC311999   4.310  25.249   9.464
  690POPC   PO412000   4.334  25.262   9.164
  690POPC   GL112001   4.274  25.287   8.864
  690POPC   GL212002   4.324  25.335   8.864
  690POPC   C1A12003   4.299  25.251   8.564
  690POPC   D2A12004   4.315  25.265   8.264
  690POPC   C3A12005   4.360  25.276   7.964
  690POPC   C4A12006   4.298  25.216   7.664
  690POPC   C1B12007   4.412  25.441   8.564
  690POPC   C2B12008   4.465  25.534   8.264
  690POPC   C3B12009   4.395  25.481   7.964
  690POPC   C4B12010   4.429  25.494   7.664
  691POPC   NC312011  40.737  38.480   9.464
  691POPC   PO412012  40.789  38.487   9.164
  691POPC   GL112013  40.824  38.482   8.864
  691POPC   GL212014  40.868  38.375   8.864
  691POPC   C1A12015  40.789  38.484   8.564
  691POPC   D2A12016  40.786  38.491   8.264
  691POPC   C3A12017  40.819  38.441   7.964
  691POPC   C4A12018  40.768  38.481   7.664
  691POPC   C1B12019  40.899  38.300   8.564
  691POPC   C2B12020  40.924  38.299   8.264
  691POPC   C3B12021  40.939  38.310   7.964
  691POPC   C4B12022  40.904  38.290   7.664
  692POPC   NC312023  24.515   5.821   9.464
  692POPC   PO412024  24.459   5.875   9.164
  692POPC   GL112025  24.510   5.844   8.864
  692POPC   GL212026  24.632   5.913   8.864
  692POPC   C1A12027  24.524   5.901   8.564
  692POPC   D2A12028  24.518   5.918   8.264
  692POPC   C3A12029  24.521   5.852   7.964
  692POPC   C4A12030  24.467   5.831   7.664
  692POPC   C1B12031  24.730   5.984   8.564
  692POPC   C2B12032  24.657   5.981   8.264
  692POPC   C3B12033  24.672   5.982   7.964
  692POPC   C4B12034  24.712   5.991   7.664
  693POPC   NC312035  44.690  44.692   9.464
  693POPC   PO412036  44.709  44.698   9.164
  693POPC   GL112037  44.679  44.677   8.864
  693POPC   GL212038  44.586  44.692   8.864
  693POPC   C1A12039  44.654  44.614   8.564
  693POPC   D2A12040  44.623  44.641   8.264
  693POPC   C3A12041  44.696  44.622   7.964
  693POPC   C4A12042  44.655  44.684   7.664
  693POPC   C1B12043  44.407  44.587   8.564
  693POPC   C2B12044  44.408  44.593   8.264
  693POPC   C3B12045  44.450  44.630   7.964
  693POPC   C4B12046  44.374  44.610   7.664
  694POPC   NC312047  18.273  36.123   9.464
  694POPC   PO412048  18.319  36.136   9.164
  694POPC   GL112049  18.237  36.100   8.864
  694POPC   GL212050  18.141  36.224   8.864
  694POPC   C1A12051  18.270  36.137   8.564
  694POPC   D2A12052  18.238  36.176   8.264
  694POPC   C3A12053  18.300  36.142   7.964
  694POPC   C4A12054  18.276  36.124   7.664
  694POPC   C1B12055  18.070  36.313   8.564
  694POPC   C2B12056  18.054  36.314   8.264
  694POPC   C3B12057  18.075  36.238   7.964
  694POPC   C4B12058  18.110  36.282   7.664
  695POPC   NC312059  19.860   2.746   9.464
  695POPC   PO412060  19.800   2.805   9.164
  695POPC   GL112061  19.836   2.797   8.864
  695POPC   GL212062  19.734   2.904   8.864
  695POPC   C1A12063  19.857   2.807   8.564
  695POPC   D2A12064  19.812   2.768   8.264
  695POPC   C3A12065  19.837   2.738   7.964
  695POPC   C4A12066  19.878   2.738   7.664
  695POPC   C1B12067  19.621   2.992   8.564
  695POPC   C2B12068  19.631   2.957   8.264
  695POPC   C3B12069  19.648   2.923   7.964
  695POPC   C4B12070  19.701   2.952   7.664
  696POPC   NC312071  22.940   8.194   9.464
  696POPC   PO412072  22.974   8.200   9.164
  696POPC   GL112073  22.944   8.198   8.864
  696POPC   GL212074  22.821   8.177   8.864
  696POPC   C1A12075  22.888   8.219   8.564
  696POPC   D2A12076  22.954   8.177   8.264
  696POPC   C3A12077  22.963   8.152   7.964
  696POPC   C4A12078  22.932   8.191   7.664
  696POPC   C1B12079  22.700   8.232   8.564
  696POPC   C2B12080  22.660   8.220   8.264
  696POPC   C3B12081  22.679   8.198   7.964
  696POPC   C4B12082  22.725   8.169   7.664
  697POPC   NC312083   0.408   0.405   9.464
  697POPC   PO412084   0.429   0.395   9.164
  697POPC   GL112085   0.411   0.440   8.864
  697POPC   GL212086   0.410   0.285   8.864
  697POPC   C1A12087   0.423   0.433   8.564
  697POPC   D2A12088   0.452   0.454   8.264
  697POPC   C3A12089   0.457   0.437   7.964
  697POPC   C4A12090   0.471   0.432   7.664
  697POPC   C1B12091   0.493   0.217   8.564
  697POPC   C2B12092   0.417   0.232   8.264
  697POPC   C3B12093   0.458   0.180   7.964
  697POPC   C4B12094   0.434   0.174   7.664
  698POPC   NC312095  39.223  39.995   9.464
  698POPC   PO412096  39.197  40.016   9.164
  698POPC   GL112097  39.226  39.987   8.864
  698POPC   GL212098  39.355  39.981   8.864
  698POPC   C1A12099  39.240  39.987   8.564
  698POPC   D2A12100  39.227  40.033   8.264
  698POPC   C3A12101  39.181  39.984   7.964
  698POPC   C4A12102  39.274  39.979   7.664
  698POPC   C1B12103  39.521  39.985   8.564
  698POPC   C2B12104  39.482  40.020   8.264
  698POPC   C3B12105  39.485  39.975   7.964
  698POPC   C4B12106  39.507  39.943   7.664
  699POPC   NC312107  40.774  12.091   9.464
  699POPC   PO412108  40.752  12.077   9.164
  699POPC   GL112109  40.808  12.109   8.864
  699POPC   GL212110  40.739  12.208   8.864
  699POPC   C1A12111  40.794  12.067   8.564
  699POPC   D2A12112  40.828  12.039   8.264
  699POPC   C3A12113  40.768  12.027   7.964
  699POPC   C4A12114  40.796  12.030   7.664
  699POPC   C1B12115  40.683  12.278   8.564
  699POPC   C2B12116  40.666  12.233   8.264
  699POPC   C3B12117  40.605  12.242   7.964
  699POPC   C4B12118  40.613  12.258   7.664
  700POPC   NC312119  44.619  13.663   9.464
  700POPC   PO412120  44.645  13.666   9.164
  700POPC   GL112121  44.693  13.605   8.864
  700POPC   GL212122  44.553  13.720   8.864
  700POPC   C1A12123  44.646  13.639   8.564
  700POPC   D2A12124  44.637  13.667   8.264
  700POPC   C3A12125  44.709  13.593   7.964
  700POPC   C4A12126  44.679  13.593   7.664
  700POPC   C1B12127  44.483  13.746   8.564
  700POPC   C2B12128  44.486  13.776   8.264
  700POPC   C3B12129  44.475  13.773   7.964
  700POPC   C4B12130  44.427  13.797   7.664
  701POPC   NC312131   1.179  19.840   9.464
  701POPC   PO412132   1.220  19.819   9.164
  701POPC   GL112133   1.205  19.792   8.864
  701POPC   GL212134   1.118  19.767   8.864
  701POPC   C1A12135   1.186  19.849   8.564
  701POPC   D2A12136   1.179  19.839   8.264
  701POPC   C3A12137   1.167  19.809   7.964
  701POPC   C4A12138   1.236  19.846   7.664
  701POPC   C1B12139   1.090  19.590   8.564
  701POPC   C2B12140   1.075  19.576   8.264
  701POPC   C3B12141   1.153  19.629   7.964
  701POPC   C4B12142   1.091  19.566   7.664
  702POPC   NC312143  36.930  19.031   9.464
  702POPC   PO412144  36.906  19.049   9.164
  702POPC   GL112145  36.896  19.023   8.864
  702POPC   GL212146  37.002  19.056   8.864
  702POPC   C1A12147  36.884  19.016   8.564
  702POPC   D2A12148  36.937  19.075   8.264
  702POPC   C3A12149  36.855  19.060   7.964
  702POPC   C4A12150  36.909  19.068   7.664
  702POPC   C1B12151  37.177  19.067   8.564
  702POPC   C2B12152  37.185  19.004   8.264
  702POPC   C3B12153  37.175  19.028   7.964
  702POPC   C4B12154  37.114  19.050   7.664
  703POPC   NC312155  19.041  29.888   9.464
  703POPC   PO412156  19.099  29.875   9.164
  703POPC   GL112157  19.039  29.885   8.864
  703POPC   GL212158  18.993  30.029   8.864
  703POPC   C1A12159  19.084  29.967   8.564
  703POPC   D2A12160  19.043  29.939   8.264
  703POPC   C3A12161  19.090  29.889   7.964
  703POPC   C4A12162  19.101  29.952   7.664
  703POPC   C1B12163  18.954  30.136   8.564
  703POPC   C2B12164  18.932  30.152   8.264
  703POPC   C3B12165  18.954  30.164   7.964
  703POPC   C4B12166  18.978  30.124   7.664
  704POPC   NC312167  11.301  12.890   9.464
  704POPC   PO412168  11.346  12.863   9.164
  704POPC   GL112169  11.334  12.881   8.864
  704POPC   GL212170  11.408  12.815   8.864
  704POPC   C1A12171  11.347  12.865   8.564
  704POPC   D2A12172  11.285  12.901   8.264
  704POPC   C3A12173  11.268  12.840   7.964
  704POPC   C4A12174  11.317  12.887   7.664
  704POPC   C1B12175  11.520  12.731   8.564
  704POPC   C2B12176  11.558  12.788   8.264
  704POPC   C3B12177  11.519  12.734   7.964
  704POPC   C4B12178  11.498  12.812   7.664
  705POPC   NC312179   8.189   1.178   9.464
  705POPC   PO412180   8.169   1.262   9.164
  705POPC   GL112181   8.220   1.188   8.864
  705POPC   GL212182   8.359   1.133   8.864
  705POPC   C1A12183   8.178   1.250   8.564
  705POPC   D2A12184   8.164   1.249   8.264
  705POPC   C3A12185   8.190   1.173   7.964
  705POPC   C4A12186   8.218   1.257   7.664
  705POPC   C1B12187   8.472   1.157   8.564
  705POPC   C2B12188   8.415   1.154   8.264
  705POPC   C3B12189   8.433   1.146   7.964
  705POPC   C4B12190   8.463   1.154   7.664
  706POPC   NC312191   5.084  22.151   9.464
  706POPC   PO412192   5.051  22.190   9.164
  706POPC   GL112193   5.048  22.170   8.864
  706POPC   GL212194   5.003  22.232   8.864
  706POPC   C1A12195   5.054  22.197   8.564
  706POPC   D2A12196   5.067  22.206   8.264
  706POPC   C3A12197   5.094  22.120   7.964
  706POPC   C4A12198   5.105  22.133   7.664
  706POPC   C1B12199   5.008  22.425   8.564
  706POPC   C2B12200   4.961  22.354   8.264
  706POPC   C3B12201   4.950  22.384   7.964
  706POPC   C4B12202   5.024  22.358   7.664
  707POPC   NC312203  19.818   8.199   9.464
  707POPC   PO412204  19.820   8.173   9.164
  707POPC   GL112205  19.842   8.155   8.864
  707POPC   GL212206  19.967   8.156   8.864
  707POPC   C1A12207  19.878   8.224   8.564
  707POPC   D2A12208  19.850   8.239   8.264
  707POPC   C3A12209  19.865   8.158   7.964
  707POPC   C4A12210  19.801   8.245   7.664
  707POPC   C1B12211  20.028   8.039   8.564
  707POPC   C2B12212  20.010   8.047   8.264
  707POPC   C3B12213  20.011   8.014   7.964
  707POPC   C4B12214  20.023   8.040   7.664
  708POPC   NC312215  20.627  42.381   9.464
  708POPC   PO412216  20.628  42.354   9.164
  708POPC   GL112217  20.624  42.312   8.864
  708POPC   GL212218  20.528  42.382   8.864
  708POPC   C1A12219  20.647  42.300   8.564
  708POPC   D2A12220  20.573  42.308   8.264
  708POPC   C3A12221  20.625  42.363   7.964
  708POPC   C4A12222  20.641  42.302   7.664
  708POPC   C1B12223  20.448  42.522   8.564
  708POPC   C2B12224  20.418  42.456   8.264
  708POPC   C3B12225  20.439  42.443   7.964
  708POPC   C4B12226  20.428  42.507   7.664
  709POPC   NC312227  44.701  20.595   9.464
  709POPC   PO412228  44.697  20.571   9.164
  709POPC   GL112229  44.651  20.601   8.864
  709POPC   GL212230  44.561  20.747   8.864
  709POPC   C1A12231  44.620  20.635   8.564
  709POPC   D2A12232  44.628  20.641   8.264
  709POPC   C3A12233  44.616  20.615   7.964
  709POPC   C4A12234  44.688  20.562   7.664
  709POPC   C1B12235  44.528  20.785   8.564
  709POPC   C2B12236  44.533  20.779   8.264
  709POPC   C3B12237  44.531  20.830   7.964
  709POPC   C4B12238  44.466  20.766   7.664
  710POPC   NC312239  35.382   0.486   9.464
  710POPC   PO412240  35.306   0.418   9.164
  710POPC   GL112241  35.330   0.447   8.864
  710POPC   GL212242  35.398   0.328   8.864
  710POPC   C1A12243  35.395   0.410   8.564
  710POPC   D2A12244  35.392   0.401   8.264
  710POPC   C3A12245  35.364   0.391   7.964
  710POPC   C4A12246  35.366   0.420   7.664
  710POPC   C1B12247  35.310   0.227   8.564
  710POPC   C2B12248  35.382   0.183   8.264
  710POPC   C3B12249  35.351   0.235   7.964
  710POPC   C4B12250  35.362   0.237   7.664
  711POPC   NC312251  39.239  39.194   9.464
  711POPC   PO412252  39.240  39.262   9.164
  711POPC   GL112253  39.279  39.253   8.864
  711POPC   GL212254  39.328  39.359   8.864
  711POPC   C1A12255  39.182  39.280   8.564
  711POPC   D2A12256  39.224  39.213   8.264
  711POPC   C3A12257  39.212  39.259   7.964
  711POPC   C4A12258  39.255  39.190   7.664
  711POPC   C1B12259  39.425  39.460   8.564
  711POPC   C2B12260  39.411  39.443   8.264
  711POPC   C3B12261  39.397  39.467   7.964
  711POPC   C4B12262  39.417  39.452   7.664
  712POPC   NC312263  19.080  14.362   9.464
  712POPC   PO412264  19.073  14.364   9.164
  712POPC   GL112265  19.011  14.388   8.864
  712POPC   GL212266  19.119  14.329   8.864
  712POPC   C1A12267  19.023  14.431   8.564
  712POPC   D2A12268  19.019  14.385   8.264
  712POPC   C3A12269  19.010  14.375   7.964
  712POPC   C4A12270  19.018  14.362   7.664
  712POPC   C1B12271  19.146  14.131   8.564
  712POPC   C2B12272  19.184  14.212   8.264
  712POPC   C3B12273  19.108  14.205   7.964
  712POPC   C4B12274  19.130  14.202   7.664
  713POPC   NC312275  16.725  16.764   9.464
  713POPC   PO412276  16.682  16.728   9.164
  713POPC   GL112277  16.761  16.773   8.864
  713POPC   GL212278  16.820  16.693   8.864
  713POPC   C1A12279  16.732  16.732   8.564
  713POPC   D2A12280  16.724  16.716   8.264
  713POPC   C3A12281  16.764  16.751   7.964
  713POPC   C4A12282  16.682  16.726   7.664
  713POPC   C1B12283  16.961  16.619   8.564
  713POPC   C2B12284  16.972  16.603   8.264
  713POPC   C3B12285  16.958  16.624   7.964
  713POPC   C4B12286  16.919  16.626   7.664
  714POPC   NC312287  33.009  26.005   9.464
  714POPC   PO412288  32.996  26.059   9.164
  714POPC   GL112289  32.976  26.016   8.864
  714POPC   GL212290  33.071  26.183   8.864
  714POPC   C1A12291  33.029  26.076   8.564
  714POPC   D2A12292  33.040  26.020   8.264
  714POPC   C3A12293  33.005  26.009   7.964
  714POPC   C4A12294  33.072  26.041   7.664
  714POPC   C1B12295  33.055  26.296   8.564
  714POPC   C2B12296  33.024  26.265   8.264
  714POPC   C3B12297  32.990  26.276   7.964
  714POPC   C4B12298  33.069  26.244   7.664
  715POPC   NC312299   5.114  35.317   9.464
  715POPC   PO412300   5.065  35.355   9.164
  715POPC   GL112301   5.048  35.306   8.864
  715POPC   GL212302   5.024  35.471   8.864
  715POPC   C1A12303   5.048  35.314   8.564
  715POPC   D2A12304   5.063  35.354   8.264
  715POPC   C3A12305   5.138  35.307   7.964
  715POPC   C4A12306   5.103  35.355   7.664
  715POPC   C1B12307   4.973  35.582   8.564
  715POPC   C2B12308   4.978  35.602   8.264
  715POPC   C3B12309   4.987  35.553   7.964
  715POPC   C4B12310   5.068  35.627   7.664
  716POPC   NC312311  20.599  19.038   9.464
  716POPC   PO412312  20.577  19.086   9.164
  716POPC   GL112313  20.596  19.083   8.864
  716POPC   GL212314  20.475  19.064   8.864
  716POPC   C1A12315  20.654  19.107   8.564
  716POPC   D2A12316  20.621  19.096   8.264
  716POPC   C3A12317  20.599  19.067   7.964
  716POPC   C4A12318  20.617  19.078   7.664
  716POPC   C1B12319  20.396  19.124   8.564
  716POPC   C2B12320  20.344  19.117   8.264
  716POPC   C3B12321  20.329  19.113   7.964
  716POPC   C4B12322  20.400  19.085   7.664
  717POPC   NC312323  43.155  30.715   9.464
  717POPC   PO412324  43.131  30.711   9.164
  717POPC   GL112325  43.126  30.686   8.864
  717POPC   GL212326  43.240  30.778   8.864
  717POPC   C1A12327  43.108  30.733   8.564
  717POPC   D2A12328  43.140  30.706   8.264
  717POPC   C3A12329  43.130  30.746   7.964
  717POPC   C4A12330  43.075  30.680   7.664
  717POPC   C1B12331  43.339  30.791   8.564
  717POPC   C2B12332  43.314  30.797   8.264
  717POPC   C3B12333  43.378  30.793   7.964
  717POPC   C4B12334  43.286  30.805   7.664
  718POPC   NC312335  23.722  22.917   9.464
  718POPC   PO412336  23.718  22.922   9.164
  718POPC   GL112337  23.749  22.891   8.864
  718POPC   GL212338  23.753  22.855   8.864
  718POPC   C1A12339  23.735  22.947   8.564
  718POPC   D2A12340  23.763  22.928   8.264
  718POPC   C3A12341  23.673  22.927   7.964
  718POPC   C4A12342  23.688  22.974   7.664
  718POPC   C1B12343  23.895  22.725   8.564
  718POPC   C2B12344  23.834  22.777   8.264
  718POPC   C3B12345  23.862  22.773   7.964
  718POPC   C4B12346  23.898  22.692   7.664
  719POPC   NC312347  21.427  30.659   9.464
  719POPC   PO412348  21.384  30.710   9.164
  719POPC   GL112349  21.406  30.674   8.864
  719POPC   GL212350  21.347  30.754   8.864
  719POPC   C1A12351  21.425  30.655   8.564
  719POPC   D2A12352  21.430  30.693   8.264
  719POPC   C3A12353  21.410  30.717   7.964
  719POPC   C4A12354  21.348  30.659   7.664
  719POPC   C1B12355  21.247  30.869   8.564
  719POPC   C2B12356  21.231  30.859   8.264
  719POPC   C3B12357  21.252  30.875   7.964
  719POPC   C4B12358  21.247  30.876   7.664
  720POPC   NC312359  27.628  38.459   9.464
  720POPC   PO412360  27.619  38.448   9.164
  720POPC   GL112361  27.583  38.496   8.864
  720POPC   GL212362  27.491  38.368   8.864
  720POPC   C1A12363  27.575  38.503   8.564
  720POPC   D2A12364  27.583  38.485   8.264
  720POPC   C3A12365  27.617  38.410   7.964
  720POPC   C4A12366  27.599  38.479   7.664
  720POPC   C1B12367  27.375  38.283   8.564
  720POPC   C2B12368  27.398  38.294   8.264
  720POPC   C3B12369  27.389  38.311   7.964
  720POPC   C4B12370  27.371  38.254   7.664
  721POPC   NC312371  39.199  12.899   9.464
  721POPC   PO412372  39.207  12.814   9.164
  721POPC   GL112373  39.253  12.900   8.864
  721POPC   GL212374  39.147  12.926   8.864
  721POPC   C1A12375  39.272  12.812   8.564
  721POPC   D2A12376  39.212  12.896   8.264
  721POPC   C3A12377  39.195  12.804   7.964
  721POPC   C4A12378  39.202  12.901   7.664
  721POPC   C1B12379  39.090  13.036   8.564
  721POPC   C2B12380  39.042  13.008   8.264
  721POPC   C3B12381  39.011  13.060   7.964
  721POPC   C4B12382  39.005  13.001   7.664
  722POPC   NC312383  43.911  26.088   9.464
  722POPC   PO412384  43.932  26.038   9.164
  722POPC   GL112385  43.935  26.054   8.864
  722POPC   GL212386  43.892  25.911   8.864
  722POPC   C1A12387  43.844  26.011   8.564
  722POPC   D2A12388  43.854  26.059   8.264
  722POPC   C3A12389  43.925  26.050   7.964
  722POPC   C4A12390  43.867  26.029   7.664
  722POPC   C1B12391  43.944  25.812   8.564
  722POPC   C2B12392  43.982  25.814   8.264
  722POPC   C3B12393  43.894  25.822   7.964
  722POPC   C4B12394  43.898  25.795   7.664
  723POPC   NC312395   7.435  23.727   9.464
  723POPC   PO412396   7.433  23.699   9.164
  723POPC   GL112397   7.397  23.664   8.864
  723POPC   GL212398   7.407  23.597   8.864
  723POPC   C1A12399   7.375  23.719   8.564
  723POPC   D2A12400   7.435  23.742   8.264
  723POPC   C3A12401   7.469  23.754   7.964
  723POPC   C4A12402   7.449  23.758   7.664
  723POPC   C1B12403   7.497  23.474   8.564
  723POPC   C2B12404   7.415  23.476   8.264
  723POPC   C3B12405   7.407  23.480   7.964
  723POPC   C4B12406   7.428  23.432   7.664
  724POPC   NC312407  17.555  32.234   9.464
  724POPC   PO412408  17.507  32.252   9.164
  724POPC   GL112409  17.522  32.203   8.864
  724POPC   GL212410  17.499  32.414   8.864
  724POPC   C1A12411  17.499  32.211   8.564
  724POPC   D2A12412  17.547  32.208   8.264
  724POPC   C3A12413  17.516  32.289   7.964
  724POPC   C4A12414  17.488  32.222   7.664
  724POPC   C1B12415  17.453  32.493   8.564
  724POPC   C2B12416  17.487  32.465   8.264
  724POPC   C3B12417  17.447  32.494   7.964
  724POPC   C4B12418  17.464  32.507   7.664
  725POPC   NC312419  42.344  33.805   9.464
  725POPC   PO412420  42.344  33.788   9.164
  725POPC   GL112421  42.306  33.839   8.864
  725POPC   GL212422  42.245  33.767   8.864
  725POPC   C1A12423  42.298  33.804   8.564
  725POPC   D2A12424  42.382  33.832   8.264
  725POPC   C3A12425  42.333  33.814   7.964
  725POPC   C4A12426  42.309  33.834   7.664
  725POPC   C1B12427  42.044  33.755   8.564
  725POPC   C2B12428  42.115  33.770   8.264
  725POPC   C3B12429  42.112  33.756   7.964
  725POPC   C4B12430  42.065  33.760   7.664
  726POPC   NC312431  42.377  31.434   9.464
  726POPC   PO412432  42.375  31.453   9.164
  726POPC   GL112433  42.384  31.465   8.864
  726POPC   GL212434  42.372  31.317   8.864
  726POPC   C1A12435  42.317  31.490   8.564
  726POPC   D2A12436  42.289  31.517   8.264
  726POPC   C3A12437  42.337  31.505   7.964
  726POPC   C4A12438  42.317  31.449   7.664
  726POPC   C1B12439  42.386  31.228   8.564
  726POPC   C2B12440  42.456  31.247   8.264
  726POPC   C3B12441  42.424  31.196   7.964
  726POPC   C4B12442  42.421  31.232   7.664
  727POPC   NC312443   8.949  43.926   9.464
  727POPC   PO412444   8.968  43.882   9.164
  727POPC   GL112445   8.954  43.920   8.864
  727POPC   GL212446   9.066  43.815   8.864
  727POPC   C1A12447   8.955  43.842   8.564
  727POPC   D2A12448   8.939  43.855   8.264
  727POPC   C3A12449   8.976  43.929   7.964
  727POPC   C4A12450   8.939  43.882   7.664
  727POPC   C1B12451   9.203  43.824   8.564
  727POPC   C2B12452   9.254  43.850   8.264
  727POPC   C3B12453   9.216  43.871   7.964
  727POPC   C4B12454   9.190  43.821   7.664
  728POPC   NC312455  40.825  33.062   9.464
  728POPC   PO412456  40.829  32.991   9.164
  728POPC   GL112457  40.763  33.038   8.864
  728POPC   GL212458  40.651  33.083   8.864
  728POPC   C1A12459  40.753  32.979   8.564
  728POPC   D2A12460  40.761  33.009   8.264
  728POPC   C3A12461  40.789  33.024   7.964
  728POPC   C4A12462  40.760  33.006   7.664
  728POPC   C1B12463  40.513  33.098   8.564
  728POPC   C2B12464  40.579  33.167   8.264
  728POPC   C3B12465  40.586  33.113   7.964
  728POPC   C4B12466  40.531  33.107   7.664
  729POPC   NC312467  43.092   3.536   9.464
  729POPC   PO412468  43.078   3.502   9.164
  729POPC   GL112469  43.077   3.547   8.864
  729POPC   GL212470  42.964   3.556   8.864
  729POPC   C1A12471  43.066   3.575   8.564
  729POPC   D2A12472  43.081   3.584   8.264
  729POPC   C3A12473  43.146   3.545   7.964
  729POPC   C4A12474  43.093   3.500   7.664
  729POPC   C1B12475  42.824   3.557   8.564
  729POPC   C2B12476  42.836   3.540   8.264
  729POPC   C3B12477  42.817   3.490   7.964
  729POPC   C4B12478  42.827   3.582   7.664
  730POPC   NC312479  37.633  27.576   9.464
  730POPC   PO412480  37.726  27.601   9.164
  730POPC   GL112481  37.674  27.574   8.864
  730POPC   GL212482  37.579  27.552   8.864
  730POPC   C1A12483  37.713  27.574   8.564
  730POPC   D2A12484  37.645  27.568   8.264
  730POPC   C3A12485  37.674  27.598   7.964
  730POPC   C4A12486  37.713  27.607   7.664
  730POPC   C1B12487  37.394  27.511   8.564
  730POPC   C2B12488  37.399  27.534   8.264
  730POPC   C3B12489  37.396  27.540   7.964
  730POPC   C4B12490  37.450  27.507   7.664
  731POPC   NC312491  29.938  34.620   9.464
  731POPC   PO412492  29.881  34.572   9.164
  731POPC   GL112493  29.892  34.575   8.864
  731POPC   GL212494  29.997  34.661   8.864
  731POPC   C1A12495  29.888  34.605   8.564
  731POPC   D2A12496  29.885  34.615   8.264
  731POPC   C3A12497  29.955  34.540   7.964
  731POPC   C4A12498  29.951  34.556   7.664
  731POPC   C1B12499  30.041  34.809   8.564
  731POPC   C2B12500  30.044  34.800   8.264
  731POPC   C3B12501  29.991  34.808   7.964
  731POPC   C4B12502  30.068  34.803   7.664
  732POPC   NC312503  43.861  10.539   9.464
  732POPC   PO412504  43.839  10.554   9.164
  732POPC   GL112505  43.871  10.492   8.864
  732POPC   GL212506  43.763  10.642   8.864
  732POPC   C1A12507  43.904  10.482   8.564
  732POPC   D2A12508  43.842  10.563   8.264
  732POPC   C3A12509  43.912  10.557   7.964
  732POPC   C4A12510  43.862  10.520   7.664
  732POPC   C1B12511  43.747  10.741   8.564
  732POPC   C2B12512  43.720  10.701   8.264
  732POPC   C3B12513  43.713  10.718   7.964
  732POPC   C4B12514  43.730  10.736   7.664
  733POPC   NC312515   9.726  25.230   9.464
  733POPC   PO412516   9.723  25.243   9.164
  733POPC   GL112517   9.719  25.284   8.864
  733POPC   GL212518   9.778  25.380   8.864
  733POPC   C1A12519   9.706  25.230   8.564
  733POPC   D2A12520   9.764  25.298   8.264
  733POPC   C3A12521   9.783  25.248   7.964
  733POPC   C4A12522   9.738  25.280   7.664
  733POPC   C1B12523   9.730  25.513   8.564
  733POPC   C2B12524   9.704  25.535   8.264
  733POPC   C3B12525   9.712  25.533   7.964
  733POPC   C4B12526   9.704  25.548   7.664
  734POPC   NC312527  41.603  26.079   9.464
  734POPC   PO412528  41.573  26.024   9.164
  734POPC   GL112529  41.592  26.078   8.864
  734POPC   GL212530  41.464  26.158   8.864
  734POPC   C1A12531  41.515  26.087   8.564
  734POPC   D2A12532  41.554  26.072   8.264
  734POPC   C3A12533  41.533  26.073   7.964
  734POPC   C4A12534  41.599  26.051   7.664
  734POPC   C1B12535  41.432  26.274   8.564
  734POPC   C2B12536  41.420  26.233   8.264
  734POPC   C3B12537  41.417  26.285   7.964
  734POPC   C4B12538  41.412  26.289   7.664
  735POPC   NC312539  17.481  23.692   9.464
  735POPC   PO412540  17.483  23.711   9.164
  735POPC   GL112541  17.530  23.754   8.864
  735POPC   GL212542  17.368  23.645   8.864
  735POPC   C1A12543  17.517  23.730   8.564
  735POPC   D2A12544  17.471  23.686   8.264
  735POPC   C3A12545  17.533  23.752   7.964
  735POPC   C4A12546  17.508  23.683   7.664
  735POPC   C1B12547  17.330  23.565   8.564
  735POPC   C2B12548  17.339  23.571   8.264
  735POPC   C3B12549  17.280  23.544   7.964
  735POPC   C4B12550  17.251  23.541   7.664
  736POPC   NC312551  12.069  17.508   9.464
  736POPC   PO412552  12.101  17.512   9.164
  736POPC   GL112553  12.097  17.482   8.864
  736POPC   GL212554  11.989  17.529   8.864
  736POPC   C1A12555  12.114  17.542   8.564
  736POPC   D2A12556  12.078  17.519   8.264
  736POPC   C3A12557  12.049  17.547   7.964
  736POPC   C4A12558  12.090  17.483   7.664
  736POPC   C1B12559  11.864  17.522   8.564
  736POPC   C2B12560  11.801  17.515   8.264
  736POPC   C3B12561  11.798  17.557   7.964
  736POPC   C4B12562  11.847  17.554   7.664
  737POPC   NC312563  22.187  35.340   9.464
  737POPC   PO412564  22.158  35.342   9.164
  737POPC   GL112565  22.138  35.325   8.864
  737POPC   GL212566  22.062  35.254   8.864
  737POPC   C1A12567  22.146  35.318   8.564
  737POPC   D2A12568  22.136  35.351   8.264
  737POPC   C3A12569  22.171  35.387   7.964
  737POPC   C4A12570  22.173  35.378   7.664
  737POPC   C1B12571  21.913  35.236   8.564
  737POPC   C2B12572  21.917  35.218   8.264
  737POPC   C3B12573  21.942  35.254   7.964
  737POPC   C4B12574  21.909  35.257   7.664
  738POPC   NC312575  16.715  11.314   9.464
  738POPC   PO412576  16.741  11.277   9.164
  738POPC   GL112577  16.756  11.299   8.864
  738POPC   GL212578  16.705  11.170   8.864
  738POPC   C1A12579  16.683  11.289   8.564
  738POPC   D2A12580  16.737  11.328   8.264
  738POPC   C3A12581  16.712  11.309   7.964
  738POPC   C4A12582  16.740  11.285   7.664
  738POPC   C1B12583  16.726  11.005   8.564
  738POPC   C2B12584  16.783  11.025   8.264
  738POPC   C3B12585  16.710  11.099   7.964
  738POPC   C4B12586  16.761  11.058   7.664
  739POPC   NC312587  42.287  29.919   9.464
  739POPC   PO412588  42.355  29.895   9.164
  739POPC   GL112589  42.368  29.935   8.864
  739POPC   GL212590  42.315  30.058   8.864
  739POPC   C1A12591  42.331  29.895   8.564
  739POPC   D2A12592  42.319  29.887   8.264
  739POPC   C3A12593  42.360  29.920   7.964
  739POPC   C4A12594  42.308  29.889   7.664
  739POPC   C1B12595  42.274  30.156   8.564
  739POPC   C2B12596  42.208  30.185   8.264
  739POPC   C3B12597  42.233  30.099   7.964
  739POPC   C4B12598  42.182  30.175   7.664
  740POPC   NC312599   4.289  36.909   9.464
  740POPC   PO412600   4.350  36.875   9.164
  740POPC   GL112601   4.332  36.939   8.864
  740POPC   GL212602   4.240  37.004   8.864
  740POPC   C1A12603   4.272  36.941   8.564
  740POPC   D2A12604   4.363  36.869   8.264
  740POPC   C3A12605   4.365  36.867   7.964
  740POPC   C4A12606   4.334  36.908   7.664
  740POPC   C1B12607   4.120  37.062   8.564
  740POPC   C2B12608   4.075  37.056   8.264
  740POPC   C3B12609   4.148  37.097   7.964
  740POPC   C4B12610   4.149  37.048   7.664
  741POPC   NC312611   9.795  43.852   9.464
  741POPC   PO412612   9.770  43.913   9.164
  741POPC   GL112613   9.732  43.845   8.864
  741POPC   GL212614   9.597  43.849   8.864
  741POPC   C1A12615   9.753  43.903   8.564
  741POPC   D2A12616   9.728  43.851   8.264
  741POPC   C3A12617   9.768  43.867   7.964
  741POPC   C4A12618   9.707  43.895   7.664
  741POPC   C1B12619   9.513  43.780   8.564
  741POPC   C2B12620   9.533  43.714   8.264
  741POPC   C3B12621   9.532  43.779   7.964
  741POPC   C4B12622   9.567  43.746   7.664
  742POPC   NC312623  29.097   1.216   9.464
  742POPC   PO412624  29.136   1.257   9.164
  742POPC   GL112625  29.126   1.242   8.864
  742POPC   GL212626  29.014   1.218   8.864
  742POPC   C1A12627  29.128   1.211   8.564
  742POPC   D2A12628  29.111   1.253   8.264
  742POPC   C3A12629  29.166   1.255   7.964
  742POPC   C4A12630  29.162   1.180   7.664
  742POPC   C1B12631  28.915   1.192   8.564
  742POPC   C2B12632  28.931   1.142   8.264
  742POPC   C3B12633  28.869   1.194   7.964
  742POPC   C4B12634  28.940   1.143   7.664
  743POPC   NC312635   1.225  38.501   9.464
  743POPC   PO412636   1.244  38.454   9.164
  743POPC   GL112637   1.168  38.459   8.864
  743POPC   GL212638   1.337  38.496   8.864
  743POPC   C1A12639   1.251  38.482   8.564
  743POPC   D2A12640   1.192  38.453   8.264
  743POPC   C3A12641   1.212  38.409   7.964
  743POPC   C4A12642   1.235  38.405   7.664
  743POPC   C1B12643   1.441  38.583   8.564
  743POPC   C2B12644   1.455  38.550   8.264
  743POPC   C3B12645   1.412  38.554   7.964
  743POPC   C4B12646   1.460  38.589   7.664
  744POPC   NC312647  19.808  20.651   9.464
  744POPC   PO412648  19.826  20.589   9.164
  744POPC   GL112649  19.876  20.580   8.864
  744POPC   GL212650  19.969  20.564   8.864
  744POPC   C1A12651  19.875  20.588   8.564
  744POPC   D2A12652  19.801  20.645   8.264
  744POPC   C3A12653  19.798  20.649   7.964
  744POPC   C4A12654  19.797  20.580   7.664
  744POPC   C1B12655  20.043  20.578   8.564
  744POPC   C2B12656  20.081  20.596   8.264
  744POPC   C3B12657  20.087  20.589   7.964
  744POPC   C4B12658  20.127  20.603   7.664
  745POPC   NC312659  44.614  36.128   9.464
  745POPC   PO412660  44.654  36.152   9.164
  745POPC   GL112661  44.646  36.124   8.864
  745POPC   GL212662  44.599  36.291   8.864
  745POPC   C1A12663  44.654  36.137   8.564
  745POPC   D2A12664  44.653  36.158   8.264
  745POPC   C3A12665  44.629  36.128   7.964
  745POPC   C4A12666  44.696  36.145   7.664
  745POPC   C1B12667  44.601  36.387   8.564
  745POPC   C2B12668  44.569  36.397   8.264
  745POPC   C3B12669  44.607  36.323   7.964
  745POPC   C4B12670  44.602  36.412   7.664
  746POPC   NC312671   5.888  31.443   9.464
  746POPC   PO412672   5.887  31.445   9.164
  746POPC   GL112673   5.871  31.471   8.864
  746POPC   GL212674   6.013  31.382   8.864
  746POPC   C1A12675   5.858  31.440   8.564
  746POPC   D2A12676   5.847  31.437   8.264
  746POPC   C3A12677   5.901  31.475   7.964
  746POPC   C4A12678   5.829  31.451   7.664
  746POPC   C1B12679   6.089  31.303   8.564
  746POPC   C2B12680   6.101  31.272   8.264
  746POPC   C3B12681   6.089  31.293   7.964
  746POPC   C4B12682   6.051  31.358   7.664
  747POPC   NC312683  39.197   3.540   9.464
  747POPC   PO412684  39.189   3.590   9.164
  747POPC   GL112685  39.269   3.588   8.864
  747POPC   GL212686  39.157   3.621   8.864
  747POPC   C1A12687  39.241   3.500   8.564
  747POPC   D2A12688  39.266   3.493   8.264
  747POPC   C3A12689  39.197   3.589   7.964
  747POPC   C4A12690  39.270   3.590   7.664
  747POPC   C1B12691  39.073   3.777   8.564
  747POPC   C2B12692  39.119   3.725   8.264
  747POPC   C3B12693  39.101   3.787   7.964
  747POPC   C4B12694  39.093   3.716   7.664
  748POPC   NC312695  32.255  29.937   9.464
  748POPC   PO412696  32.248  29.962   9.164
  748POPC   GL112697  32.217  29.961   8.864
  748POPC   GL212698  32.338  29.911   8.864
  748POPC   C1A12699  32.223  29.890   8.564
  748POPC   D2A12700  32.239  29.905   8.264
  748POPC   C3A12701  32.252  29.917   7.964
  748POPC   C4A12702  32.253  29.932   7.664
  748POPC   C1B12703  32.519  29.987   8.564
  748POPC   C2B12704  32.537  29.948   8.264
  748POPC   C3B12705  32.517  30.000   7.964
  748POPC   C4B12706  32.495  29.931   7.664
  749POPC   NC312707  12.062   5.133   9.464
  749POPC   PO412708  12.112   5.072   9.164
  749POPC   GL112709  12.041   5.131   8.864
  749POPC   GL212710  11.954   5.050   8.864
  749POPC   C1A12711  12.029   5.101   8.564
  749POPC   D2A12712  12.049   5.099   8.264
  749POPC   C3A12713  12.069   5.059   7.964
  749POPC   C4A12714  12.081   5.100   7.664
  749POPC   C1B12715  11.863   5.030   8.564
  749POPC   C2B12716  11.863   5.029   8.264
  749POPC   C3B12717  11.799   4.973   7.964
  749POPC   C4B12718  11.807   5.056   7.664
  750POPC   NC312719  16.757  37.659   9.464
  750POPC   PO412720  16.694  37.702   9.164
  750POPC   GL112721  16.688  37.708   8.864
  750POPC   GL212722  16.677  37.768   8.864
  750POPC   C1A12723  16.695  37.698   8.564
  750POPC   D2A12724  16.756  37.700   8.264
  750POPC   C3A12725  16.761  37.719   7.964
  750POPC   C4A12726  16.698  37.673   7.664
  750POPC   C1B12727  16.708  37.921   8.564
  750POPC   C2B12728  16.743  37.944   8.264
  750POPC   C3B12729  16.705  37.889   7.964
  750POPC   C4B12730  16.698  37.914   7.664
  751POPC   NC312731  28.346  11.251   9.464
  751POPC   PO412732  28.357  11.295   9.164
  751POPC   GL112733  28.374  11.278   8.864
  751POPC   GL212734  28.353  11.225   8.864
  751POPC   C1A12735  28.402  11.262   8.564
  751POPC   D2A12736  28.356  11.329   8.264
  751POPC   C3A12737  28.371  11.259   7.964
  751POPC   C4A12738  28.377  11.285   7.664
  751POPC   C1B12739  28.317  11.047   8.564
  751POPC   C2B12740  28.272  11.033   8.264
  751POPC   C3B12741  28.294  11.024   7.964
  751POPC   C4B12742  28.270  11.042   7.664
  752POPC   NC312743  25.279  12.837   9.464
  752POPC   PO412744  25.236  12.818   9.164
  752POPC   GL112745  25.301  12.861   8.864
  752POPC   GL212746  25.114  12.826   8.864
  752POPC   C1A12747  25.217  12.848   8.564
  752POPC   D2A12748  25.286  12.827   8.264
  752POPC   C3A12749  25.260  12.858   7.964
  752POPC   C4A12750  25.296  12.859   7.664
  752POPC   C1B12751  25.057  12.726   8.564
  752POPC   C2B12752  25.071  12.684   8.264
  752POPC   C3B12753  25.087  12.735   7.964
  752POPC   C4B12754  25.073  12.744   7.664
  753POPC   NC312755  39.990  39.191   9.464
  753POPC   PO412756  40.037  39.185   9.164
  753POPC   GL112757  40.027  39.186   8.864
  753POPC   GL212758  40.008  39.067   8.864
  753POPC   C1A12759  40.046  39.213   8.564
  753POPC   D2A12760  39.973  39.279   8.264
  753POPC   C3A12761  40.027  39.234   7.964
  753POPC   C4A12762  39.962  39.227   7.664
  753POPC   C1B12763  39.991  39.020   8.564
  753POPC   C2B12764  39.964  39.012   8.264
  753POPC   C3B12765  39.965  38.989   7.964
  753POPC   C4B12766  40.005  39.006   7.664
  754POPC   NC312767   5.821   9.771   9.464
  754POPC   PO412768   5.892   9.704   9.164
  754POPC   GL112769   5.837   9.714   8.864
  754POPC   GL212770   5.944   9.698   8.864
  754POPC   C1A12771   5.886   9.756   8.564
  754POPC   D2A12772   5.915   9.699   8.264
  754POPC   C3A12773   5.893   9.796   7.964
  754POPC   C4A12774   5.835   9.785   7.664
  754POPC   C1B12775   6.069   9.613   8.564
  754POPC   C2B12776   6.066   9.574   8.264
  754POPC   C3B12777   6.062   9.574   7.964
  754POPC   C4B12778   6.050   9.641   7.664
  755POPC   NC312779   9.790  16.747   9.464
  755POPC   PO412780   9.787  16.757   9.164
  755POPC   GL112781   9.771  16.691   8.864
  755POPC   GL212782   9.725  16.902   8.864
  755POPC   C1A12783   9.753  16.693   8.564
  755POPC   D2A12784   9.747  16.687   8.264
  755POPC   C3A12785   9.707  16.781   7.964
  755POPC   C4A12786   9.785  16.738   7.664
  755POPC   C1B12787   9.789  17.009   8.564
  755POPC   C2B12788   9.745  16.952   8.264
  755POPC   C3B12789   9.777  16.971   7.964
  755POPC   C4B12790   9.803  16.972   7.664
  756POPC   NC312791  40.036  28.338   9.464
  756POPC   PO412792  40.001  28.339   9.164
  756POPC   GL112793  39.960  28.345   8.864
  756POPC   GL212794  39.878  28.348   8.864
  756POPC   C1A12795  40.004  28.361   8.564
  756POPC   D2A12796  39.983  28.401   8.264
  756POPC   C3A12797  39.976  28.364   7.964
  756POPC   C4A12798  40.055  28.344   7.664
  756POPC   C1B12799  39.797  28.372   8.564
  756POPC   C2B12800  39.726  28.438   8.264
  756POPC   C3B12801  39.736  28.441   7.964
  756POPC   C4B12802  39.750  28.413   7.664
  757POPC   NC312803  11.333  40.775   9.464
  757POPC   PO412804  11.327  40.795   9.164
  757POPC   GL112805  11.286  40.736   8.864
  757POPC   GL212806  11.428  40.826   8.864
  757POPC   C1A12807  11.286  40.745   8.564
  757POPC   D2A12808  11.298  40.818   8.264
  757POPC   C3A12809  11.272  40.754   7.964
  757POPC   C4A12810  11.255  40.773   7.664
  757POPC   C1B12811  11.459  40.965   8.564
  757POPC   C2B12812  11.509  40.942   8.264
  757POPC   C3B12813  11.458  40.909   7.964
  757POPC   C4B12814  11.530  40.886   7.664
  758POPC   NC312815  21.359   9.738   9.464
  758POPC   PO412816  21.339   9.758   9.164
  758POPC   GL112817  21.370   9.731   8.864
  758POPC   GL212818  21.408   9.857   8.864
  758POPC   C1A12819  21.365   9.776   8.564
  758POPC   D2A12820  21.428   9.779   8.264
  758POPC   C3A12821  21.408   9.758   7.964
  758POPC   C4A12822  21.357   9.797   7.664
  758POPC   C1B12823  21.491   9.974   8.564
  758POPC   C2B12824  21.519   9.968   8.264
  758POPC   C3B12825  21.465   9.944   7.964
  758POPC   C4B12826  21.484   9.972   7.664
  759POPC   NC312827  25.309  36.903   9.464
  759POPC   PO412828  25.221  36.952   9.164
  759POPC   GL112829  25.276  36.905   8.864
  759POPC   GL212830  25.378  36.992   8.864
  759POPC   C1A12831  25.308  36.918   8.564
  759POPC   D2A12832  25.232  36.940   8.264
  759POPC   C3A12833  25.279  36.948   7.964
  759POPC   C4A12834  25.256  36.953   7.664
  759POPC   C1B12835  25.470  37.087   8.564
  759POPC   C2B12836  25.474  37.079   8.264
  759POPC   C3B12837  25.413  37.093   7.964
  759POPC   C4B12838  25.408  37.036   7.664
  760POPC   NC312839  43.068  15.996   9.464
  760POPC   PO412840  43.120  15.909   9.164
  760POPC   GL112841  43.065  16.004   8.864
  760POPC   GL212842  43.186  16.071   8.864
  760POPC   C1A12843  43.089  15.989   8.564
  760POPC   D2A12844  43.146  16.003   8.264
  760POPC   C3A12845  43.117  15.938   7.964
  760POPC   C4A12846  43.141  15.935   7.664
  760POPC   C1B12847  43.155  16.222   8.564
  760POPC   C2B12848  43.147  16.228   8.264
  760POPC   C3B12849  43.167  16.220   7.964
  760POPC   C4B12850  43.225  16.153   7.664
  761POPC   NC312851  10.532   1.993   9.464
  761POPC   PO412852  10.555   2.019   9.164
  761POPC   GL112853  10.550   2.009   8.864
  761POPC   GL212854  10.447   1.915   8.864
  761POPC   C1A12855  10.566   1.990   8.564
  761POPC   D2A12856  10.494   1.969   8.264
  761POPC   C3A12857  10.535   1.968   7.964
  761POPC   C4A12858  10.538   2.030   7.664
  761POPC   C1B12859  10.277   1.921   8.564
  761POPC   C2B12860  10.295   1.866   8.264
  761POPC   C3B12861  10.281   1.863   7.964
  761POPC   C4B12862  10.261   1.857   7.664
  762POPC   NC312863  19.862   0.449   9.464
  762POPC   PO412864  19.788   0.416   9.164
  762POPC   GL112865  19.786   0.442   8.864
  762POPC   GL212866  19.993   0.470   8.864
  762POPC   C1A12867  19.850   0.454   8.564
  762POPC   D2A12868  19.785   0.479   8.264
  762POPC   C3A12869  19.829   0.440   7.964
  762POPC   C4A12870  19.842   0.395   7.664
  762POPC   C1B12871  20.087   0.394   8.564
  762POPC   C2B12872  20.103   0.477   8.264
  762POPC   C3B12873  20.087   0.412   7.964
  762POPC   C4B12874  20.063   0.396   7.664
  763POPC   NC312875   7.423  39.981   9.464
  763POPC   PO412876   7.464  39.992   9.164
  763POPC   GL112877   7.459  40.007   8.864
  763POPC   GL212878   7.576  40.010   8.864
  763POPC   C1A12879   7.466  40.025   8.564
  763POPC   D2A12880   7.436  39.994   8.264
  763POPC   C3A12881   7.375  39.960   7.964
  763POPC   C4A12882   7.414  39.989   7.664
  763POPC   C1B12883   7.698  40.079   8.564
  763POPC   C2B12884   7.657  40.078   8.264
  763POPC   C3B12885   7.628  40.013   7.964
  763POPC   C4B12886   7.705  40.084   7.664
  764POPC   NC312887  24.472   8.952   9.464
  764POPC   PO412888  24.480   8.963   9.164
  764POPC   GL112889  24.465   8.949   8.864
  764POPC   GL212890  24.400   8.848   8.864
  764POPC   C1A12891  24.530   9.015   8.564
  764POPC   D2A12892  24.509   8.940   8.264
  764POPC   C3A12893  24.476   8.953   7.964
  764POPC   C4A12894  24.475   8.947   7.664
  764POPC   C1B12895  24.324   8.789   8.564
  764POPC   C2B12896  24.336   8.798   8.264
  764POPC   C3B12897  24.376   8.768   7.964
  764POPC   C4B12898  24.329   8.758   7.664
  765POPC   NC312899  36.888   9.020   9.464
  765POPC   PO412900  36.898   8.989   9.164
  765POPC   GL112901  36.881   8.975   8.864
  765POPC   GL212902  37.013   9.009   8.864
  765POPC   C1A12903  36.892   8.963   8.564
  765POPC   D2A12904  36.918   8.999   8.264
  765POPC   C3A12905  36.943   9.022   7.964
  765POPC   C4A12906  36.942   9.002   7.664
  765POPC   C1B12907  37.126   8.934   8.564
  765POPC   C2B12908  37.146   9.004   8.264
  765POPC   C3B12909  37.182   9.008   7.964
  765POPC   C4B12910  37.173   8.947   7.664
  766POPC   NC312911  34.530  40.802   9.464
  766POPC   PO412912  34.601  40.769   9.164
  766POPC   GL112913  34.617  40.747   8.864
  766POPC   GL212914  34.465  40.905   8.864
  766POPC   C1A12915  34.576  40.748   8.564
  766POPC   D2A12916  34.573  40.744   8.264
  766POPC   C3A12917  34.600  40.807   7.964
  766POPC   C4A12918  34.595  40.753   7.664
  766POPC   C1B12919  34.352  40.920   8.564
  766POPC   C2B12920  34.372  40.932   8.264
  766POPC   C3B12921  34.424  40.902   7.964
  766POPC   C4B12922  34.337  40.973   7.664
  767POPC   NC312923   6.597  28.409   9.464
  767POPC   PO412924   6.649  28.368   9.164
  767POPC   GL112925   6.613  28.348   8.864
  767POPC   GL212926   6.565  28.522   8.864
  767POPC   C1A12927   6.691  28.327   8.564
  767POPC   D2A12928   6.638  28.342   8.264
  767POPC   C3A12929   6.626  28.380   7.964
  767POPC   C4A12930   6.600  28.405   7.664
  767POPC   C1B12931   6.525  28.605   8.564
  767POPC   C2B12932   6.505  28.631   8.264
  767POPC   C3B12933   6.536  28.602   7.964
  767POPC   C4B12934   6.540  28.565   7.664
  768POPC   NC312935  14.393  40.038   9.464
  768POPC   PO412936  14.440  40.020   9.164
  768POPC   GL112937  14.355  40.001   8.864
  768POPC   GL212938  14.342  40.149   8.864
  768POPC   C1A12939  14.372  40.018   8.564
  768POPC   D2A12940  14.445  40.053   8.264
  768POPC   C3A12941  14.402  39.991   7.964
  768POPC   C4A12942  14.440  39.990   7.664
  768POPC   C1B12943  14.322  40.185   8.564
  768POPC   C2B12944  14.333  40.264   8.264
  768POPC   C3B12945  14.242  40.251   7.964
  768POPC   C4B12946  14.266  40.250   7.664
  769POPC   NC312947  11.269  39.246   9.464
  769POPC   PO412948  11.325  39.225   9.164
  769POPC   GL112949  11.286  39.220   8.864
  769POPC   GL212950  11.381  39.153   8.864
  769POPC   C1A12951  11.263  39.194   8.564
  769POPC   D2A12952  11.294  39.188   8.264
  769POPC   C3A12953  11.253  39.220   7.964
  769POPC   C4A12954  11.276  39.264   7.664
  769POPC   C1B12955  11.353  38.991   8.564
  769POPC   C2B12956  11.411  38.972   8.264
  769POPC   C3B12957  11.337  39.033   7.964
  769POPC   C4B12958  11.331  38.981   7.664
  770POPC   NC312959  30.686  36.162   9.464
  770POPC   PO412960  30.720  36.167   9.164
  770POPC   GL112961  30.710  36.160   8.864
  770POPC   GL212962  30.537  36.091   8.864
  770POPC   C1A12963  30.706  36.151   8.564
  770POPC   D2A12964  30.701  36.102   8.264
  770POPC   C3A12965  30.726  36.120   7.964
  770POPC   C4A12966  30.738  36.141   7.664
  770POPC   C1B12967  30.453  36.064   8.564
  770POPC   C2B12968  30.435  36.065   8.264
  770POPC   C3B12969  30.419  36.101   7.964
  770POPC   C4B12970  30.441  36.082   7.664
  771POPC   NC312971  36.098  37.706   9.464
  771POPC   PO412972  36.097  37.655   9.164
  771POPC   GL112973  36.156  37.709   8.864
  771POPC   GL212974  36.000  37.606   8.864
  771POPC   C1A12975  36.120  37.723   8.564
  771POPC   D2A12976  36.103  37.650   8.264
  771POPC   C3A12977  36.091  37.656   7.964
  771POPC   C4A12978  36.177  37.680   7.664
  771POPC   C1B12979  35.932  37.636   8.564
  771POPC   C2B12980  35.887  37.621   8.264
  771POPC   C3B12981  35.934  37.641   7.964
  771POPC   C4B12982  35.895  37.665   7.664
  772POPC   NC312983  29.130  16.767   9.464
  772POPC   PO412984  29.100  16.707   9.164
  772POPC   GL112985  29.141  16.765   8.864
  772POPC   GL212986  29.082  16.620   8.864
  772POPC   C1A12987  29.185  16.701   8.564
  772POPC   D2A12988  29.135  16.718   8.264
  772POPC   C3A12989  29.171  16.688   7.964
  772POPC   C4A12990  29.119  16.749   7.664
  772POPC   C1B12991  29.122  16.504   8.564
  772POPC   C2B12992  29.116  16.512   8.264
  772POPC   C3B12993  29.118  16.500   7.964
  772POPC   C4B12994  29.065  16.532   7.664
  773POPC   NC312995   3.504  41.585   9.464
  773POPC   PO412996   3.531  41.540   9.164
  773POPC   GL112997   3.512  41.533   8.864
  773POPC   GL212998   3.713  41.590   8.864
  773POPC   C1A12999   3.541  41.603   8.564
  773POPC   D2A13000   3.554  41.527   8.264
  773POPC   C3A13001   3.505  41.565   7.964
  773POPC   C4A13002   3.506  41.569   7.664
  773POPC   C1B13003   3.795  41.591   8.564
  773POPC   C2B13004   3.803  41.569   8.264
  773POPC   C3B13005   3.781  41.593   7.964
  773POPC   C4B13006   3.787  41.597   7.664
  774POPC   NC313007  22.113  13.648   9.464
  774POPC   PO413008  22.153  13.644   9.164
  774POPC   GL113009  22.171  13.583   8.864
  774POPC   GL213010  22.145  13.721   8.864
  774POPC   C1A13011  22.124  13.668   8.564
  774POPC   D2A13012  22.146  13.634   8.264
  774POPC   C3A13013  22.150  13.608   7.964
  774POPC   C4A13014  22.117  13.627   7.664
  774POPC   C1B13015  22.077  13.813   8.564
  774POPC   C2B13016  22.087  13.840   8.264
  774POPC   C3B13017  22.068  13.817   7.964
  774POPC   C4B13018  22.032  13.857   7.664
  775POPC   NC313019  15.130  17.487   9.464
  775POPC   PO413020  15.229  17.473   9.164
  775POPC   GL113021  15.197  17.532   8.864
  775POPC   GL213022  15.057  17.412   8.864
  775POPC   C1A13023  15.218  17.534   8.564
  775POPC   D2A13024  15.208  17.520   8.264
  775POPC   C3A13025  15.147  17.547   7.964
  775POPC   C4A13026  15.190  17.541   7.664
  775POPC   C1B13027  15.004  17.336   8.564
  775POPC   C2B13028  14.949  17.384   8.264
  775POPC   C3B13029  15.006  17.380   7.964
  775POPC   C4B13030  14.941  17.400   7.664
  776POPC   NC313031   8.986  14.401   9.464
  776POPC   PO413032   8.935  14.409   9.164
  776POPC   GL113033   9.011  14.381   8.864
  776POPC   GL213034   8.968  14.302   8.864
  776POPC   C1A13035   8.958  14.372   8.564
  776POPC   D2A13036   8.973  14.376   8.264
  776POPC   C3A13037   8.944  14.414   7.964
  776POPC   C4A13038   8.950  14.433   7.664
  776POPC   C1B13039   8.835  14.156   8.564
  776POPC   C2B13040   8.869  14.170   8.264
  776POPC   C3B13041   8.858  14.144   7.964
  776POPC   C4B13042   8.888  14.136   7.664
  777POPC   NC313043  22.118   7.436   9.464
  777POPC   PO413044  22.152   7.461   9.164
  777POPC   GL113045  22.113   7.458   8.864
  777POPC   GL213046  22.068   7.356   8.864
  777POPC   C1A13047  22.114   7.413   8.564
  777POPC   D2A13048  22.212   7.371   8.264
  777POPC   C3A13049  22.210   7.457   7.964
  777POPC   C4A13050  22.196   7.399   7.664
  777POPC   C1B13051  21.886   7.341   8.564
  777POPC   C2B13052  21.893   7.351   8.264
  777POPC   C3B13053  21.967   7.380   7.964
  777POPC   C4B13054  21.945   7.289   7.664
  778POPC   NC313055  31.460  19.831   9.464
  778POPC   PO413056  31.444  19.786   9.164
  778POPC   GL113057  31.498  19.874   8.864
  778POPC   GL213058  31.426  19.922   8.864
  778POPC   C1A13059  31.466  19.851   8.564
  778POPC   D2A13060  31.451  19.861   8.264
  778POPC   C3A13061  31.434  19.877   7.964
  778POPC   C4A13062  31.515  19.790   7.664
  778POPC   C1B13063  31.340  20.075   8.564
  778POPC   C2B13064  31.300  20.020   8.264
  778POPC   C3B13065  31.327  20.053   7.964
  778POPC   C4B13066  31.376  20.006   7.664
  779POPC   NC313067  20.614  25.223   9.464
  779POPC   PO413068  20.639  25.286   9.164
  779POPC   GL113069  20.652  25.298   8.864
  779POPC   GL213070  20.707  25.294   8.864
  779POPC   C1A13071  20.585  25.235   8.564
  779POPC   D2A13072  20.624  25.293   8.264
  779POPC   C3A13073  20.593  25.302   7.964
  779POPC   C4A13074  20.570  25.222   7.664
  779POPC   C1B13075  20.805  25.397   8.564
  779POPC   C2B13076  20.797  25.365   8.264
  779POPC   C3B13077  20.864  25.430   7.964
  779POPC   C4B13078  20.864  25.385   7.664
  780POPC   NC313079   1.176   6.668   9.464
  780POPC   PO413080   1.242   6.611   9.164
  780POPC   GL113081   1.228   6.635   8.864
  780POPC   GL213082   1.063   6.627   8.864
  780POPC   C1A13083   1.199   6.656   8.564
  780POPC   D2A13084   1.179   6.608   8.264
  780POPC   C3A13085   1.182   6.651   7.964
  780POPC   C4A13086   1.216   6.687   7.664
  780POPC   C1B13087   0.973   6.629   8.564
  780POPC   C2B13088   0.969   6.594   8.264
  780POPC   C3B13089   0.952   6.648   7.964
  780POPC   C4B13090   0.915   6.601   7.664
  781POPC   NC313091   8.202  28.345   9.464
  781POPC   PO413092   8.156  28.397   9.164
  781POPC   GL113093   8.231  28.368   8.864
  781POPC   GL213094   8.294  28.337   8.864
  781POPC   C1A13095   8.172  28.361   8.564
  781POPC   D2A13096   8.159  28.369   8.264
  781POPC   C3A13097   8.171  28.331   7.964
  781POPC   C4A13098   8.185  28.418   7.664
  781POPC   C1B13099   8.407  28.210   8.564
  781POPC   C2B13100   8.410  28.207   8.264
  781POPC   C3B13101   8.431  28.280   7.964
  781POPC   C4B13102   8.453  28.218   7.664
  782POPC   NC313103  24.538  10.524   9.464
  782POPC   PO413104  24.519  10.541   9.164
  782POPC   GL113105  24.479  10.489   8.864
  782POPC   GL213106  24.501  10.392   8.864
  782POPC   C1A13107  24.447  10.507   8.564
  782POPC   D2A13108  24.440  10.523   8.264
  782POPC   C3A13109  24.461  10.529   7.964
  782POPC   C4A13110  24.468  10.531   7.664
  782POPC   C1B13111  24.454  10.293   8.564
  782POPC   C2B13112  24.422  10.264   8.264
  782POPC   C3B13113  24.412  10.282   7.964
  782POPC   C4B13114  24.449  10.331   7.664
  783POPC   NC313115  26.056   9.786   9.464
  783POPC   PO413116  26.061   9.793   9.164
  783POPC   GL113117  26.090   9.714   8.864
  783POPC   GL213118  25.976   9.906   8.864
  783POPC   C1A13119  26.076   9.795   8.564
  783POPC   D2A13120  26.008   9.772   8.264
  783POPC   C3A13121  26.081   9.730   7.964
  783POPC   C4A13122  26.056   9.782   7.664
  783POPC   C1B13123  26.006  10.000   8.564
  783POPC   C2B13124  25.985   9.994   8.264
  783POPC   C3B13125  25.969  10.032   7.964
  783POPC   C4B13126  25.949  10.023   7.664
  784POPC   NC313127  22.117  26.798   9.464
  784POPC   PO413128  22.146  26.849   9.164
  784POPC   GL113129  22.162  26.771   8.864
  784POPC   GL213130  22.321  26.880   8.864
  784POPC   C1A13131  22.202  26.864   8.564
  784POPC   D2A13132  22.164  26.843   8.264
  784POPC   C3A13133  22.204  26.771   7.964
  784POPC   C4A13134  22.194  26.817   7.664
  784POPC   C1B13135  22.390  26.921   8.564
  784POPC   C2B13136  22.425  26.872   8.264
  784POPC   C3B13137  22.359  26.915   7.964
  784POPC   C4B13138  22.451  26.917   7.664
  785POPC   NC313139  22.135  33.787   9.464
  785POPC   PO413140  22.139  33.750   9.164
  785POPC   GL113141  22.190  33.756   8.864
  785POPC   GL213142  22.065  33.897   8.864
  785POPC   C1A13143  22.141  33.808   8.564
  785POPC   D2A13144  22.172  33.796   8.264
  785POPC   C3A13145  22.119  33.803   7.964
  785POPC   C4A13146  22.205  33.787   7.664
  785POPC   C1B13147  21.959  33.900   8.564
  785POPC   C2B13148  21.917  33.925   8.264
  785POPC   C3B13149  21.908  33.949   7.964
  785POPC   C4B13150  21.983  33.938   7.664
  786POPC   NC313151  26.000  25.254   9.464
  786POPC   PO413152  26.069  25.310   9.164
  786POPC   GL113153  26.008  25.305   8.864
  786POPC   GL213154  26.052  25.418   8.864
  786POPC   C1A13155  26.015  25.277   8.564
  786POPC   D2A13156  26.058  25.270   8.264
  786POPC   C3A13157  26.003  25.276   7.964
  786POPC   C4A13158  26.027  25.311   7.664
  786POPC   C1B13159  26.031  25.487   8.564
  786POPC   C2B13160  26.006  25.478   8.264
  786POPC   C3B13161  26.016  25.551   7.964
  786POPC   C4B13162  26.045  25.554   7.664
  787POPC   NC313163  19.799  32.227   9.464
  787POPC   PO413164  19.797  32.295   9.164
  787POPC   GL113165  19.817  32.200   8.864
  787POPC   GL213166  19.976  32.339   8.864
  787POPC   C1A13167  19.820  32.270   8.564
  787POPC   D2A13168  19.804  32.251   8.264
  787POPC   C3A13169  19.799  32.265   7.964
  787POPC   C4A13170  19.878  32.246   7.664
  787POPC   C1B13171  20.074  32.339   8.564
  787POPC   C2B13172  20.048  32.301   8.264
  787POPC   C3B13173  20.067  32.325   7.964
  787POPC   C4B13174  20.025  32.299   7.664
  788POPC   NC313175   5.892  41.560   9.464
  788POPC   PO413176   5.819  41.568   9.164
  788POPC   GL113177   5.918  41.591   8.864
  788POPC   GL213178   5.898  41.456   8.864
  788POPC   C1A13179   5.844  41.525   8.564
  788POPC   D2A13180   5.875  41.562   8.264
  788POPC   C3A13181   5.895  41.606   7.964
  788POPC   C4A13182   5.856  41.604   7.664
  788POPC   C1B13183   5.874  41.347   8.564
  788POPC   C2B13184   5.846  41.304   8.264
  788POPC   C3B13185   5.867  41.299   7.964
  788POPC   C4B13186   5.929  41.358   7.664
  789POPC   NC313187  12.051   8.941   9.464
  789POPC   PO413188  12.048   9.020   9.164
  789POPC   GL113189  12.110   9.010   8.864
  789POPC   GL213190  12.005   9.094   8.864
  789POPC   C1A13191  12.041   8.949   8.564
  789POPC   D2A13192  12.037   8.957   8.264
  789POPC   C3A13193  12.061   8.948   7.964
  789POPC   C4A13194  12.075   9.013   7.664
  789POPC   C1B13195  11.944   9.207   8.564
  789POPC   C2B13196  12.008   9.157   8.264
  789POPC   C3B13197  11.923   9.202   7.964
  789POPC   C4B13198  11.998   9.160   7.664
  790POPC   NC313199  33.778   5.854   9.464
  790POPC   PO413200  33.791   5.846   9.164
  790POPC   GL113201  33.845   5.883   8.864
  790POPC   GL213202  33.942   5.865   8.864
  790POPC   C1A13203  33.781   5.891   8.564
  790POPC   D2A13204  33.808   5.892   8.264
  790POPC   C3A13205  33.775   5.883   7.964
  790POPC   C4A13206  33.803   5.858   7.664
  790POPC   C1B13207  34.017   5.884   8.564
  790POPC   C2B13208  34.057   5.900   8.264
  790POPC   C3B13209  34.094   5.890   7.964
  790POPC   C4B13210  34.081   5.872   7.664
  791POPC   NC313211  15.167  39.979   9.464
  791POPC   PO413212  15.165  40.037   9.164
  791POPC   GL113213  15.225  39.964   8.864
  791POPC   GL213214  15.105  39.858   8.864
  791POPC   C1A13215  15.186  39.957   8.564
  791POPC   D2A13216  15.223  39.978   8.264
  791POPC   C3A13217  15.220  39.985   7.964
  791POPC   C4A13218  15.141  40.007   7.664
  791POPC   C1B13219  15.092  39.733   8.564
  791POPC   C2B13220  15.076  39.736   8.264
  791POPC   C3B13221  15.099  39.795   7.964
  791POPC   C4B13222  15.158  39.744   7.664
  792POPC   NC313223  10.500   6.657   9.464
  792POPC   PO413224  10.489   6.632   9.164
  792POPC   GL113225  10.565   6.675   8.864
  792POPC   GL213226  10.411   6.511   8.864
  792POPC   C1A13227  10.568   6.607   8.564
  792POPC   D2A13228  10.552   6.623   8.264
  792POPC   C3A13229  10.518   6.634   7.964
  792POPC   C4A13230  10.550   6.648   7.664
  792POPC   C1B13231  10.415   6.452   8.564
  792POPC   C2B13232  10.357   6.441   8.264
  792POPC   C3B13233  10.382   6.437   7.964
  792POPC   C4B13234  10.418   6.465   7.664
  793POPC   NC313235  44.703  15.968   9.464
  793POPC   PO413236  44.681  15.952   9.164
  793POPC   GL113237  44.678  15.946   8.864
  793POPC   GL213238  44.665  15.872   8.864
  793POPC   C1A13239  44.636  15.959   8.564
  793POPC   D2A13240  44.638  15.990   8.264
  793POPC   C3A13241  44.673  15.970   7.964
  793POPC   C4A13242  44.641  15.909   7.664
  793POPC   C1B13243  44.708  15.709   8.564
  793POPC   C2B13244  44.728  15.684   8.264
  793POPC   C3B13245  44.716  15.697   7.964
  793POPC   C4B13246  44.700  15.692   7.664
  794POPC   NC313247  25.277  42.336   9.464
  794POPC   PO413248  25.221  42.335   9.164
  794POPC   GL113249  25.262  42.361   8.864
  794POPC   GL213250  25.379  42.215   8.864
  794POPC   C1A13251  25.265  42.363   8.564
  794POPC   D2A13252  25.227  42.383   8.264
  794POPC   C3A13253  25.289  42.303   7.964
  794POPC   C4A13254  25.302  42.341   7.664
  794POPC   C1B13255  25.421  42.164   8.564
  794POPC   C2B13256  25.448  42.159   8.264
  794POPC   C3B13257  25.460  42.132   7.964
  794POPC   C4B13258  25.404  42.164   7.664
  795POPC   NC313259  36.153  16.778   9.464
  795POPC   PO413260  36.108  16.765   9.164
  795POPC   GL113261  36.118  16.737   8.864
  795POPC   GL213262  36.180  16.848   8.864
  795POPC   C1A13263  36.146  16.759   8.564
  795POPC   D2A13264  36.177  16.702   8.264
  795POPC   C3A13265  36.165  16.698   7.964
  795POPC   C4A13266  36.133  16.709   7.664
  795POPC   C1B13267  36.157  16.938   8.564
  795POPC   C2B13268  36.115  16.967   8.264
  795POPC   C3B13269  36.148  17.026   7.964
  795POPC   C4B13270  36.109  17.021   7.664
  796POPC   NC313271  21.383  11.315   9.464
  796POPC   PO413272  21.403  11.326   9.164
  796POPC   GL113273  21.396  11.299   8.864
  796POPC   GL213274  21.514  11.338   8.864
  796POPC   C1A13275  21.384  11.327   8.564
  796POPC   D2A13276  21.338  11.349   8.264
  796POPC   C3A13277  21.364  11.304   7.964
  796POPC   C4A13278  21.373  11.291   7.664
  796POPC   C1B13279  21.648  11.355   8.564
  796POPC   C2B13280  21.634  11.371   8.264
  796POPC   C3B13281  21.647  11.399   7.964
  796POPC   C4B13282  21.586  11.402   7.664
  797POPC   NC313283  35.395  22.983   9.464
  797POPC   PO413284  35.357  22.907   9.164
  797POPC   GL113285  35.363  22.959   8.864
  797POPC   GL213286  35.450  22.884   8.864
  797POPC   C1A13287  35.306  22.968   8.564
  797POPC   D2A13288  35.366  22.912   8.264
  797POPC   C3A13289  35.333  22.916   7.964
  797POPC   C4A13290  35.395  22.920   7.664
  797POPC   C1B13291  35.622  22.858   8.564
  797POPC   C2B13292  35.583  22.880   8.264
  797POPC   C3B13293  35.630  22.912   7.964
  797POPC   C4B13294  35.551  22.918   7.664
  798POPC   NC313295  30.649   8.993   9.464
  798POPC   PO413296  30.693   9.007   9.164
  798POPC   GL113297  30.676   9.008   8.864
  798POPC   GL213298  30.623   8.930   8.864
  798POPC   C1A13299  30.671   9.016   8.564
  798POPC   D2A13300  30.729   8.947   8.264
  798POPC   C3A13301  30.730   9.012   7.964
  798POPC   C4A13302  30.665   9.018   7.664
  798POPC   C1B13303  30.453   8.796   8.564
  798POPC   C2B13304  30.436   8.826   8.264
  798POPC   C3B13305  30.450   8.857   7.964
  798POPC   C4B13306  30.499   8.818   7.664
  799POPC   NC313307   7.430  19.081   9.464
  799POPC   PO413308   7.453  19.103   9.164
  799POPC   GL113309   7.383  19.028   8.864
  799POPC   GL213310   7.250  19.059   8.864
  799POPC   C1A13311   7.430  19.061   8.564
  799POPC   D2A13312   7.388  19.018   8.264
  799POPC   C3A13313   7.373  19.057   7.964
  799POPC   C4A13314   7.450  19.031   7.664
  799POPC   C1B13315   7.193  19.053   8.564
  799POPC   C2B13316   7.179  19.105   8.264
  799POPC   C3B13317   7.210  19.040   7.964
  799POPC   C4B13318   7.171  19.028   7.664
  800POPC   NC313319   9.735  32.236   9.464
  800POPC   PO413320   9.755  32.295   9.164
  800POPC   GL113321   9.703  32.201   8.864
  800POPC   GL213322   9.800  32.138   8.864
  800POPC   C1A13323   9.744  32.287   8.564
  800POPC   D2A13324   9.739  32.240   8.264
  800POPC   C3A13325   9.740  32.238   7.964
  800POPC   C4A13326   9.724  32.292   7.664
  800POPC   C1B13327   9.820  32.073   8.564
  800POPC   C2B13328   9.879  32.030   8.264
  800POPC   C3B13329   9.821  32.013   7.964
  800POPC   C4B13330   9.903  32.020   7.664
  801POPC   NC313331  22.956  29.955   9.464
  801POPC   PO413332  22.948  29.885   9.164
  801POPC   GL113333  22.912  29.927   8.864
  801POPC   GL213334  23.017  29.999   8.864
  801POPC   C1A13335  22.954  29.910   8.564
  801POPC   D2A13336  22.954  29.934   8.264
  801POPC   C3A13337  22.909  29.956   7.964
  801POPC   C4A13338  22.985  29.953   7.664
  801POPC   C1B13339  23.189  30.081   8.564
  801POPC   C2B13340  23.117  30.008   8.264
  801POPC   C3B13341  23.140  30.043   7.964
  801POPC   C4B13342  23.124  30.054   7.664
  802POPC   NC313343  26.772  39.984   9.464
  802POPC   PO413344  26.825  39.986   9.164
  802POPC   GL113345  26.811  40.039   8.864
  802POPC   GL213346  26.822  40.088   8.864
  802POPC   C1A13347  26.817  39.960   8.564
  802POPC   D2A13348  26.807  40.049   8.264
  802POPC   C3A13349  26.826  40.046   7.964
  802POPC   C4A13350  26.851  40.056   7.664
  802POPC   C1B13351  26.896  40.207   8.564
  802POPC   C2B13352  26.930  40.205   8.264
  802POPC   C3B13353  26.885  40.278   7.964
  802POPC   C4B13354  26.933  40.213   7.664
  803POPC   NC313355  23.694  29.184   9.464
  803POPC   PO413356  23.722  29.152   9.164
  803POPC   GL113357  23.672  29.192   8.864
  803POPC   GL213358  23.583  29.139   8.864
  803POPC   C1A13359  23.721  29.192   8.564
  803POPC   D2A13360  23.739  29.145   8.264
  803POPC   C3A13361  23.674  29.193   7.964
  803POPC   C4A13362  23.679  29.167   7.664
  803POPC   C1B13363  23.458  29.131   8.564
  803POPC   C2B13364  23.420  29.131   8.264
  803POPC   C3B13365  23.500  29.151   7.964
  803POPC   C4B13366  23.449  29.111   7.664
  804POPC   NC313367  12.040  44.708   9.464
  804POPC   PO413368  12.057  44.689   9.164
  804POPC   GL113369  12.031  44.684   8.864
  804POPC   GL213370  11.993  44.526   8.864
  804POPC   C1A13371  12.056  44.637   8.564
  804POPC   D2A13372  12.108  44.646   8.264
  804POPC   C3A13373  12.117  44.709   7.964
  804POPC   C4A13374  12.075  44.679   7.664
  804POPC   C1B13375  11.942  44.480   8.564
  804POPC   C2B13376  11.949  44.486   8.264
  804POPC   C3B13377  11.964  44.416   7.964
  804POPC   C4B13378  11.921  44.496   7.664
  805POPC   NC313379  40.802   5.123   9.464
  805POPC   PO413380  40.738   5.117   9.164
  805POPC   GL113381  40.751   5.130   8.864
  805POPC   GL213382  40.787   5.231   8.864
  805POPC   C1A13383  40.754   5.138   8.564
  805POPC   D2A13384  40.822   5.094   8.264
  805POPC   C3A13385  40.747   5.078   7.964
  805POPC   C4A13386  40.749   5.092   7.664
  805POPC   C1B13387  40.713   5.344   8.564
  805POPC   C2B13388  40.745   5.361   8.264
  805POPC   C3B13389  40.724   5.292   7.964
  805POPC   C4B13390  40.705   5.284   7.664
  806POPC   NC313391   1.231  40.042   9.464
  806POPC   PO413392   1.210  40.055   9.164
  806POPC   GL113393   1.227  40.034   8.864
  806POPC   GL213394   1.110  40.087   8.864
  806POPC   C1A13395   1.173  39.969   8.564
  806POPC   D2A13396   1.207  40.024   8.264
  806POPC   C3A13397   1.252  40.013   7.964
  806POPC   C4A13398   1.250  40.056   7.664
  806POPC   C1B13399   0.947  40.060   8.564
  806POPC   C2B13400   0.934  40.095   8.264
  806POPC   C3B13401   0.981  40.115   7.964
  806POPC   C4B13402   1.006  40.090   7.664
  807POPC   NC313403  43.925   7.399   9.464
  807POPC   PO413404  43.839   7.391   9.164
  807POPC   GL113405  43.902   7.456   8.864
  807POPC   GL213406  43.850   7.336   8.864
  807POPC   C1A13407  43.841   7.423   8.564
  807POPC   D2A13408  43.920   7.421   8.264
  807POPC   C3A13409  43.923   7.451   7.964
  807POPC   C4A13410  43.920   7.414   7.664
  807POPC   C1B13411  43.776   7.192   8.564
  807POPC   C2B13412  43.759   7.146   8.264
  807POPC   C3B13413  43.836   7.218   7.964
  807POPC   C4B13414  43.841   7.204   7.664
  808POPC   NC313415  22.171  34.562   9.464
  808POPC   PO413416  22.198  34.582   9.164
  808POPC   GL113417  22.192  34.532   8.864
  808POPC   GL213418  22.319  34.538   8.864
  808POPC   C1A13419  22.211  34.568   8.564
  808POPC   D2A13420  22.164  34.581   8.264
  808POPC   C3A13421  22.199  34.618   7.964
  808POPC   C4A13422  22.137  34.536   7.664
  808POPC   C1B13423  22.359  34.481   8.564
  808POPC   C2B13424  22.429  34.465   8.264
  808POPC   C3B13425  22.365  34.458   7.964
  808POPC   C4B13426  22.441  34.520   7.664
  809POPC   NC313427  12.031   1.244   9.464
  809POPC   PO413428  12.044   1.209   9.164
  809POPC   GL113429  12.031   1.208   8.864
  809POPC   GL213430  11.965   1.178   8.864
  809POPC   C1A13431  12.083   1.239   8.564
  809POPC   D2A13432  12.115   1.224   8.264
  809POPC   C3A13433  12.044   1.170   7.964
  809POPC   C4A13434  12.094   1.240   7.664
  809POPC   C1B13435  11.782   1.241   8.564
  809POPC   C2B13436  11.846   1.201   8.264
  809POPC   C3B13437  11.875   1.196   7.964
  809POPC   C4B13438  11.813   1.174   7.664
  810POPC   NC313439  29.114  32.980   9.464
  810POPC   PO413440  29.106  33.043   9.164
  810POPC   GL113441  29.157  33.001   8.864
  810POPC   GL213442  29.035  32.969   8.864
  810POPC   C1A13443  29.152  33.074   8.564
  810POPC   D2A13444  29.167  33.023   8.264
  810POPC   C3A13445  29.109  33.056   7.964
  810POPC   C4A13446  29.111  32.997   7.664
  810POPC   C1B13447  28.948  32.877   8.564
  810POPC   C2B13448  28.951  32.894   8.264
  810POPC   C3B13449  28.933  32.937   7.964
  810POPC   C4B13450  28.921  32.940   7.664
  811POPC   NC313451  16.728  36.894   9.464
  811POPC   PO413452  16.759  36.916   9.164
  811POPC   GL113453  16.737  36.941   8.864
  811POPC   GL213454  16.715  36.802   8.864
  811POPC   C1A13455  16.769  36.862   8.564
  811POPC   D2A13456  16.740  36.950   8.264
  811POPC   C3A13457  16.686  36.930   7.964
  811POPC   C4A13458  16.771  36.924   7.664
  811POPC   C1B13459  16.650  36.649   8.564
  811POPC   C2B13460  16.601  36.675   8.264
  811POPC   C3B13461  16.589  36.655   7.964
  811POPC   C4B13462  16.595  36.659   7.664
  812POPC   NC313463   7.417   6.633   9.464
  812POPC   PO413464   7.446   6.648   9.164
  812POPC   GL113465   7.421   6.619   8.864
  812POPC   GL213466   7.282   6.693   8.864
  812POPC   C1A13467   7.403   6.673   8.564
  812POPC   D2A13468   7.410   6.668   8.264
  812POPC   C3A13469   7.458   6.646   7.964
  812POPC   C4A13470   7.396   6.623   7.664
  812POPC   C1B13471   7.164   6.766   8.564
  812POPC   C2B13472   7.189   6.785   8.264
  812POPC   C3B13473   7.172   6.779   7.964
  812POPC   C4B13474   7.218   6.762   7.664
  813POPC   NC313475  35.399   8.994   9.464
  813POPC   PO413476  35.302   8.976   9.164
  813POPC   GL113477  35.373   9.003   8.864
  813POPC   GL213478  35.215   9.013   8.864
  813POPC   C1A13479  35.377   8.934   8.564
  813POPC   D2A13480  35.353   8.957   8.264
  813POPC   C3A13481  35.367   8.957   7.964
  813POPC   C4A13482  35.378   8.927   7.664
  813POPC   C1B13483  35.144   9.100   8.564
  813POPC   C2B13484  35.106   9.138   8.264
  813POPC   C3B13485  35.151   9.090   7.964
  813POPC   C4B13486  35.118   9.070   7.664
  814POPC   NC313487  24.492   5.057   9.464
  814POPC   PO413488  24.489   5.088   9.164
  814POPC   GL113489  24.442   5.105   8.864
  814POPC   GL213490  24.518   4.975   8.864
  814POPC   C1A13491  24.499   5.114   8.564
  814POPC   D2A13492  24.457   5.073   8.264
  814POPC   C3A13493  24.505   5.063   7.964
  814POPC   C4A13494  24.538   5.109   7.664
  814POPC   C1B13495  24.490   4.879   8.564
  814POPC   C2B13496  24.501   4.798   8.264
  814POPC   C3B13497  24.524   4.823   7.964
  814POPC   C4B13498  24.465   4.843   7.664
  815POPC   NC313499  12.096  43.065   9.464
  815POPC   PO413500  12.120  43.118   9.164
  815POPC   GL113501  12.057  43.071   8.864
  815POPC   GL213502  11.961  43.199   8.864
  815POPC   C1A13503  12.075  43.065   8.564
  815POPC   D2A13504  12.120  43.087   8.264
  815POPC   C3A13505  12.062  43.128   7.964
  815POPC   C4A13506  12.050  43.133   7.664
  815POPC   C1B13507  11.867  43.240   8.564
  815POPC   C2B13508  11.913  43.238   8.264
  815POPC   C3B13509  11.839  43.277   7.964
  815POPC   C4B13510  11.832  43.273   7.664
  816POPC   NC313511  29.158  15.964   9.464
  816POPC   PO413512  29.154  15.998   9.164
  816POPC   GL113513  29.180  15.948   8.864
  816POPC   GL213514  29.214  15.856   8.864
  816POPC   C1A13515  29.184  15.967   8.564
  816POPC   D2A13516  29.110  15.980   8.264
  816POPC   C3A13517  29.160  15.974   7.964
  816POPC   C4A13518  29.174  15.907   7.664
  816POPC   C1B13519  29.329  15.732   8.564
  816POPC   C2B13520  29.337  15.709   8.264
  816POPC   C3B13521  29.269  15.725   7.964
  816POPC   C4B13522  29.326  15.746   7.664
  817POPC   NC313523  14.415  20.599   9.464
  817POPC   PO413524  14.376  20.579   9.164
  817POPC   GL113525  14.407  20.599   8.864
  817POPC   GL213526  14.412  20.464   8.864
  817POPC   C1A13527  14.363  20.646   8.564
  817POPC   D2A13528  14.425  20.646   8.264
  817POPC   C3A13529  14.377  20.612   7.964
  817POPC   C4A13530  14.419  20.573   7.664
  817POPC   C1B13531  14.509  20.409   8.564
  817POPC   C2B13532  14.498  20.356   8.264
  817POPC   C3B13533  14.430  20.382   7.964
  817POPC   C4B13534  14.485  20.352   7.664
  818POPC   NC313535  32.271  42.301   9.464
  818POPC   PO413536  32.234  42.307   9.164
  818POPC   GL113537  32.212  42.298   8.864
  818POPC   GL213538  32.241  42.415   8.864
  818POPC   C1A13539  32.252  42.326   8.564
  818POPC   D2A13540  32.294  42.328   8.264
  818POPC   C3A13541  32.201  42.339   7.964
  818POPC   C4A13542  32.210  42.290   7.664
  818POPC   C1B13543  32.208  42.533   8.564
  818POPC   C2B13544  32.220  42.587   8.264
  818POPC   C3B13545  32.163  42.552   7.964
  818POPC   C4B13546  32.240  42.626   7.664
  819POPC   NC313547  37.672   4.367   9.464
  819POPC   PO413548  37.632   4.337   9.164
  819POPC   GL113549  37.687   4.285   8.864
  819POPC   GL213550  37.647   4.176   8.864
  819POPC   C1A13551  37.657   4.314   8.564
  819POPC   D2A13552  37.715   4.330   8.264
  819POPC   C3A13553  37.638   4.306   7.964
  819POPC   C4A13554  37.726   4.312   7.664
  819POPC   C1B13555  37.623   4.033   8.564
  819POPC   C2B13556  37.672   4.042   8.264
  819POPC   C3B13557  37.676   4.106   7.964
  819POPC   C4B13558  37.628   4.093   7.664
  820POPC   NC313559   2.726  33.799   9.464
  820POPC   PO413560   2.717  33.785   9.164
  820POPC   GL113561   2.721  33.764   8.864
  820POPC   GL213562   2.744  33.649   8.864
  820POPC   C1A13563   2.750  33.808   8.564
  820POPC   D2A13564   2.761  33.803   8.264
  820POPC   C3A13565   2.751  33.801   7.964
  820POPC   C4A13566   2.722  33.827   7.664
  820POPC   C1B13567   2.664  33.553   8.564
  820POPC   C2B13568   2.685  33.544   8.264
  820POPC   C3B13569   2.606  33.606   7.964
  820POPC   C4B13570   2.614  33.573   7.664
  821POPC   NC313571  44.631  14.400   9.464
  821POPC   PO413572  44.652  14.390   9.164
  821POPC   GL113573  44.665  14.356   8.864
  821POPC   GL213574  44.617  14.241   8.864
  821POPC   C1A13575  44.663  14.448   8.564
  821POPC   D2A13576  44.668  14.378   8.264
  821POPC   C3A13577  44.642  14.369   7.964
  821POPC   C4A13578  44.631  14.380   7.664
  821POPC   C1B13579  44.691  14.166   8.564
  821POPC   C2B13580  44.643  14.172   8.264
  821POPC   C3B13581  44.625  14.127   7.964
  821POPC   C4B13582  44.683  14.141   7.664
  822POPC   NC313583  14.364   5.069   9.464
  822POPC   PO413584  14.365   5.057   9.164
  822POPC   GL113585  14.399   5.110   8.864
  822POPC   GL213586  14.544   4.996   8.864
  822POPC   C1A13587  14.364   5.111   8.564
  822POPC   D2A13588  14.429   5.132   8.264
  822POPC   C3A13589  14.451   5.129   7.964
  822POPC   C4A13590  14.391   5.137   7.664
  822POPC   C1B13591  14.646   4.952   8.564
  822POPC   C2B13592  14.654   5.014   8.264
  822POPC   C3B13593  14.617   4.951   7.964
  822POPC   C4B13594  14.634   5.036   7.664
  823POPC   NC313595   9.000  21.433   9.464
  823POPC   PO413596   8.951  21.413   9.164
  823POPC   GL113597   8.945  21.343   8.864
  823POPC   GL213598   9.041  21.526   8.864
  823POPC   C1A13599   9.019  21.348   8.564
  823POPC   D2A13600   8.982  21.343   8.264
  823POPC   C3A13601   8.929  21.371   7.964
  823POPC   C4A13602   8.969  21.396   7.664
  823POPC   C1B13603   9.122  21.613   8.564
  823POPC   C2B13604   9.127  21.591   8.264
  823POPC   C3B13605   9.158  21.539   7.964
  823POPC   C4B13606   9.097  21.567   7.664
  824POPC   NC313607  24.501  24.489   9.464
  824POPC   PO413608  24.493  24.444   9.164
  824POPC   GL113609  24.496  24.440   8.864
  824POPC   GL213610  24.549  24.643   8.864
  824POPC   C1A13611  24.527  24.447   8.564
  824POPC   D2A13612  24.442  24.491   8.264
  824POPC   C3A13613  24.459  24.534   7.964
  824POPC   C4A13614  24.530  24.512   7.664
  824POPC   C1B13615  24.546  24.733   8.564
  824POPC   C2B13616  24.530  24.696   8.264
  824POPC   C3B13617  24.560  24.711   7.964
  824POPC   C4B13618  24.583  24.740   7.664
  825POPC   NC313619  36.905  19.802   9.464
  825POPC   PO413620  36.918  19.794   9.164
  825POPC   GL113621  36.922  19.832   8.864
  825POPC   GL213622  36.982  19.697   8.864
  825POPC   C1A13623  36.854  19.877   8.564
  825POPC   D2A13624  36.864  19.883   8.264
  825POPC   C3A13625  36.916  19.801   7.964
  825POPC   C4A13626  36.855  19.845   7.664
  825POPC   C1B13627  36.994  19.609   8.564
  825POPC   C2B13628  36.954  19.599   8.264
  825POPC   C3B13629  37.005  19.562   7.964
  825POPC   C4B13630  36.954  19.575   7.664
  826POPC   NC313631   9.011  11.334   9.464
  826POPC   PO413632   8.960  11.301   9.164
  826POPC   GL113633   8.952  11.348   8.864
  826POPC   GL213634   9.140  11.287   8.864
  826POPC   C1A13635   8.970  11.302   8.564
  826POPC   D2A13636   8.976  11.310   8.264
  826POPC   C3A13637   8.974  11.343   7.964
  826POPC   C4A13638   8.989  11.287   7.664
  826POPC   C1B13639   9.254  11.268   8.564
  826POPC   C2B13640   9.229  11.274   8.264
  826POPC   C3B13641   9.182  11.252   7.964
  826POPC   C4B13642   9.246  11.312   7.664
  827POPC   NC313643  32.280  36.143   9.464
  827POPC   PO413644  32.260  36.144   9.164
  827POPC   GL113645  32.220  36.123   8.864
  827POPC   GL213646  32.208  35.988   8.864
  827POPC   C1A13647  32.283  36.146   8.564
  827POPC   D2A13648  32.211  36.151   8.264
  827POPC   C3A13649  32.267  36.147   7.964
  827POPC   C4A13650  32.221  36.158   7.664
  827POPC   C1B13651  32.169  35.851   8.564
  827POPC   C2B13652  32.138  35.890   8.264
  827POPC   C3B13653  32.236  35.921   7.964
  827POPC   C4B13654  32.168  35.882   7.664
  828POPC   NC313655  12.841  37.727   9.464
  828POPC   PO413656  12.820  37.636   9.164
  828POPC   GL113657  12.882  37.716   8.864
  828POPC   GL213658  12.979  37.639   8.864
  828POPC   C1A13659  12.822  37.661   8.564
  828POPC   D2A13660  12.806  37.656   8.264
  828POPC   C3A13661  12.852  37.640   7.964
  828POPC   C4A13662  12.866  37.648   7.664
  828POPC   C1B13663  13.086  37.574   8.564
  828POPC   C2B13664  13.111  37.584   8.264
  828POPC   C3B13665  13.096  37.553   7.964
  828POPC   C4B13666  13.110  37.552   7.664
  829POPC   NC313667  32.264   6.657   9.464
  829POPC   PO413668  32.237   6.625   9.164
  829POPC   GL113669  32.283   6.634   8.864
  829POPC   GL213670  32.320   6.703   8.864
  829POPC   C1A13671  32.283   6.600   8.564
  829POPC   D2A13672  32.294   6.628   8.264
  829POPC   C3A13673  32.264   6.606   7.964
  829POPC   C4A13674  32.249   6.668   7.664
  829POPC   C1B13675  32.458   6.774   8.564
  829POPC   C2B13676  32.503   6.689   8.264
  829POPC   C3B13677  32.512   6.702   7.964
  829POPC   C4B13678  32.459   6.703   7.664
  830POPC   NC313679   2.753  32.246   9.464
  830POPC   PO413680   2.735  32.292   9.164
  830POPC   GL113681   2.788  32.277   8.864
  830POPC   GL213682   2.860  32.294   8.864
  830POPC   C1A13683   2.754  32.217   8.564
  830POPC   D2A13684   2.795  32.279   8.264
  830POPC   C3A13685   2.735  32.293   7.964
  830POPC   C4A13686   2.814  32.241   7.664
  830POPC   C1B13687   2.930  32.448   8.564
  830POPC   C2B13688   2.909  32.452   8.264
  830POPC   C3B13689   2.969  32.415   7.964
  830POPC   C4B13690   2.942  32.406   7.664
  831POPC   NC313691   1.240  36.898   9.464
  831POPC   PO413692   1.262  36.857   9.164
  831POPC   GL113693   1.191  36.916   8.864
  831POPC   GL213694   1.334  36.928   8.864
  831POPC   C1A13695   1.263  36.922   8.564
  831POPC   D2A13696   1.238  36.897   8.264
  831POPC   C3A13697   1.178  36.880   7.964
  831POPC   C4A13698   1.202  36.880   7.664
  831POPC   C1B13699   1.440  37.028   8.564
  831POPC   C2B13700   1.407  37.014   8.264
  831POPC   C3B13701   1.429  37.042   7.964
  831POPC   C4B13702   1.416  37.030   7.664
  832POPC   NC313703  16.004  23.699   9.464
  832POPC   PO413704  15.925  23.759   9.164
  832POPC   GL113705  15.907  23.666   8.864
  832POPC   GL213706  15.843  23.811   8.864
  832POPC   C1A13707  15.942  23.706   8.564
  832POPC   D2A13708  15.929  23.710   8.264
  832POPC   C3A13709  15.915  23.683   7.964
  832POPC   C4A13710  15.962  23.763   7.664
  832POPC   C1B13711  15.749  23.791   8.564
  832POPC   C2B13712  15.730  23.876   8.264
  832POPC   C3B13713  15.692  23.830   7.964
  832POPC   C4B13714  15.716  23.792   7.664
  833POPC   NC313715  41.575   8.232   9.464
  833POPC   PO413716  41.568   8.225   9.164
  833POPC   GL113717  41.539   8.184   8.864
  833POPC   GL213718  41.591   8.276   8.864
  833POPC   C1A13719  41.512   8.208   8.564
  833POPC   D2A13720  41.566   8.226   8.264
  833POPC   C3A13721  41.531   8.200   7.964
  833POPC   C4A13722  41.581   8.183   7.664
  833POPC   C1B13723  41.699   8.356   8.564
  833POPC   C2B13724  41.729   8.405   8.264
  833POPC   C3B13725  41.714   8.434   7.964
  833POPC   C4B13726  41.738   8.421   7.664
  834POPC   NC313727  32.262  43.155   9.464
  834POPC   PO413728  32.246  43.072   9.164
  834POPC   GL113729  32.286  43.083   8.864
  834POPC   GL213730  32.107  43.065   8.864
  834POPC   C1A13731  32.292  43.101   8.564
  834POPC   D2A13732  32.226  43.141   8.264
  834POPC   C3A13733  32.247  43.091   7.964
  834POPC   C4A13734  32.215  43.157   7.664
  834POPC   C1B13735  31.952  43.085   8.564
  834POPC   C2B13736  31.957  43.058   8.264
  834POPC   C3B13737  32.022  43.148   7.964
  834POPC   C4B13738  32.010  43.130   7.664
  835POPC   NC313739  22.120   2.731   9.464
  835POPC   PO413740  22.118   2.796   9.164
  835POPC   GL113741  22.164   2.718   8.864
  835POPC   GL213742  22.176   2.851   8.864
  835POPC   C1A13743  22.206   2.756   8.564
  835POPC   D2A13744  22.115   2.740   8.264
  835POPC   C3A13745  22.137   2.724   7.964
  835POPC   C4A13746  22.155   2.765   7.664
  835POPC   C1B13747  22.187   3.039   8.564
  835POPC   C2B13748  22.154   2.980   8.264
  835POPC   C3B13749  22.152   3.024   7.964
  835POPC   C4B13750  22.156   3.040   7.664
  836POPC   NC313751  15.222  20.563   9.464
  836POPC   PO413752  15.216  20.646   9.164
  836POPC   GL113753  15.185  20.572   8.864
  836POPC   GL213754  15.336  20.618   8.864
  836POPC   C1A13755  15.213  20.627   8.564
  836POPC   D2A13756  15.220  20.606   8.264
  836POPC   C3A13757  15.136  20.625   7.964
  836POPC   C4A13758  15.143  20.584   7.664
  836POPC   C1B13759  15.463  20.622   8.564
  836POPC   C2B13760  15.398  20.596   8.264
  836POPC   C3B13761  15.400  20.551   7.964
  836POPC   C4B13762  15.432  20.566   7.664
  837POPC   NC313763  39.202   4.360   9.464
  837POPC   PO413764  39.208   4.349   9.164
  837POPC   GL113765  39.244   4.357   8.864
  837POPC   GL213766  39.084   4.307   8.864
  837POPC   C1A13767  39.256   4.293   8.564
  837POPC   D2A13768  39.235   4.358   8.264
  837POPC   C3A13769  39.185   4.282   7.964
  837POPC   C4A13770  39.252   4.350   7.664
  837POPC   C1B13771  38.941   4.352   8.564
  837POPC   C2B13772  39.030   4.355   8.264
  837POPC   C3B13773  39.003   4.328   7.964
  837POPC   C4B13774  38.995   4.328   7.664
  838POPC   NC313775  12.081   5.877   9.464
  838POPC   PO413776  12.099   5.860   9.164
  838POPC   GL113777  12.077   5.856   8.864
  838POPC   GL213778  12.179   5.767   8.864
  838POPC   C1A13779  12.105   5.839   8.564
  838POPC   D2A13780  12.105   5.897   8.264
  838POPC   C3A13781  12.094   5.873   7.964
  838POPC   C4A13782  12.110   5.827   7.664
  838POPC   C1B13783  12.237   5.750   8.564
  838POPC   C2B13784  12.320   5.780   8.264
  838POPC   C3B13785  12.318   5.767   7.964
  838POPC   C4B13786  12.321   5.734   7.664
  839POPC   NC313787  15.190  11.267   9.464
  839POPC   PO413788  15.223  11.306   9.164
  839POPC   GL113789  15.221  11.345   8.864
  839POPC   GL213790  15.155  11.402   8.864
  839POPC   C1A13791  15.145  11.273   8.564
  839POPC   D2A13792  15.198  11.298   8.264
  839POPC   C3A13793  15.204  11.293   7.964
  839POPC   C4A13794  15.176  11.329   7.664
  839POPC   C1B13795  15.192  11.528   8.564
  839POPC   C2B13796  15.179  11.505   8.264
  839POPC   C3B13797  15.138  11.561   7.964
  839POPC   C4B13798  15.162  11.570   7.664
  840POPC   NC313799   8.230  27.625   9.464
  840POPC   PO413800   8.238  27.565   9.164
  840POPC   GL113801   8.228  27.577   8.864
  840POPC   GL213802   8.253  27.487   8.864
  840POPC   C1A13803   8.164  27.552   8.564
  840POPC   D2A13804   8.217  27.621   8.264
  840POPC   C3A13805   8.190  27.633   7.964
  840POPC   C4A13806   8.234  27.593   7.664
  840POPC   C1B13807   8.179  27.343   8.564
  840POPC   C2B13808   8.188  27.331   8.264
  840POPC   C3B13809   8.239  27.316   7.964
  840POPC   C4B13810   8.202  27.329   7.664
  841POPC   NC313811  33.772  29.169   9.464
  841POPC   PO413812  33.817  29.110   9.164
  841POPC   GL113813  33.751  29.129   8.864
  841POPC   GL213814  33.829  29.062   8.864
  841POPC   C1A13815  33.814  29.132   8.564
  841POPC   D2A13816  33.838  29.111   8.264
  841POPC   C3A13817  33.772  29.133   7.964
  841POPC   C4A13818  33.841  29.179   7.664
  841POPC   C1B13819  33.755  28.882   8.564
  841POPC   C2B13820  33.816  28.916   8.264
  841POPC   C3B13821  33.853  28.845   7.964
  841POPC   C4B13822  33.771  28.922   7.664
  842POPC   NC313823   4.291  40.812   9.464
  842POPC   PO413824   4.305  40.790   9.164
  842POPC   GL113825   4.304  40.819   8.864
  842POPC   GL213826   4.458  40.754   8.864
  842POPC   C1A13827   4.326  40.809   8.564
  842POPC   D2A13828   4.278  40.824   8.264
  842POPC   C3A13829   4.342  40.765   7.964
  842POPC   C4A13830   4.294  40.802   7.664
  842POPC   C1B13831   4.578  40.646   8.564
  842POPC   C2B13832   4.539  40.649   8.264
  842POPC   C3B13833   4.583  40.655   7.964
  842POPC   C4B13834   4.560  40.646   7.664
  843POPC   NC313835   7.415  31.472   9.464
  843POPC   PO413836   7.466  31.498   9.164
  843POPC   GL113837   7.395  31.454   8.864
  843POPC   GL213838   7.365  31.313   8.864
  843POPC   C1A13839   7.376  31.454   8.564
  843POPC   D2A13840   7.443  31.452   8.264
  843POPC   C3A13841   7.431  31.475   7.964
  843POPC   C4A13842   7.464  31.426   7.664
  843POPC   C1B13843   7.387  31.232   8.564
  843POPC   C2B13844   7.302  31.207   8.264
  843POPC   C3B13845   7.365  31.263   7.964
  843POPC   C4B13846   7.336  31.275   7.664
  844POPC   NC313847   9.011  29.963   9.464
  844POPC   PO413848   9.020  29.947   9.164
  844POPC   GL113849   9.017  29.884   8.864
  844POPC   GL213850   9.023  29.814   8.864
  844POPC   C1A13851   9.016  29.918   8.564
  844POPC   D2A13852   8.998  29.910   8.264
  844POPC   C3A13853   8.942  29.933   7.964
  844POPC   C4A13854   9.005  29.872   7.664
  844POPC   C1B13855   9.171  29.718   8.564
  844POPC   C2B13856   9.159  29.751   8.264
  844POPC   C3B13857   9.128  29.770   7.964
  844POPC   C4B13858   9.132  29.798   7.664
  845POPC   NC313859  37.701  20.647   9.464
  845POPC   PO413860  37.647  20.659   9.164
  845POPC   GL113861  37.671  20.621   8.864
  845POPC   GL213862  37.598  20.478   8.864
  845POPC   C1A13863  37.698  20.652   8.564
  845POPC   D2A13864  37.633  20.561   8.264
  845POPC   C3A13865  37.665  20.610   7.964
  845POPC   C4A13866  37.699  20.617   7.664
  845POPC   C1B13867  37.556  20.382   8.564
  845POPC   C2B13868  37.542  20.441   8.264
  845POPC   C3B13869  37.534  20.385   7.964
  845POPC   C4B13870  37.597  20.371   7.664
  846POPC   NC313871  39.981  19.106   9.464
  846POPC   PO413872  39.975  19.059   9.164
  846POPC   GL113873  39.988  19.018   8.864
  846POPC   GL213874  40.051  19.145   8.864
  846POPC   C1A13875  40.055  19.082   8.564
  846POPC   D2A13876  40.032  19.049   8.264
  846POPC   C3A13877  39.987  19.033   7.964
  846POPC   C4A13878  40.027  19.049   7.664
  846POPC   C1B13879  40.087  19.287   8.564
  846POPC   C2B13880  40.063  19.288   8.264
  846POPC   C3B13881  40.026  19.285   7.964
  846POPC   C4B13882  40.076  19.288   7.664
  847POPC   NC313883  29.192  29.908   9.464
  847POPC   PO413884  29.154  29.955   9.164
  847POPC   GL113885  29.187  29.934   8.864
  847POPC   GL213886  29.207  29.819   8.864
  847POPC   C1A13887  29.171  29.942   8.564
  847POPC   D2A13888  29.153  29.887   8.264
  847POPC   C3A13889  29.123  29.900   7.964
  847POPC   C4A13890  29.184  29.954   7.664
  847POPC   C1B13891  29.376  29.755   8.564
  847POPC   C2B13892  29.405  29.757   8.264
  847POPC   C3B13893  29.339  29.766   7.964
  847POPC   C4B13894  29.369  29.791   7.664
  848POPC   NC313895  22.115  36.878   9.464
  848POPC   PO413896  22.207  36.952   9.164
  848POPC   GL113897  22.135  36.895   8.864
  848POPC   GL213898  22.120  36.811   8.864
  848POPC   C1A13899  22.178  36.883   8.564
  848POPC   D2A13900  22.146  36.935   8.264
  848POPC   C3A13901  22.137  36.895   7.964
  848POPC   C4A13902  22.198  36.890   7.664
  848POPC   C1B13903  22.129  36.632   8.564
  848POPC   C2B13904  22.153  36.655   8.264
  848POPC   C3B13905  22.083  36.616   7.964
  848POPC   C4B13906  22.129  36.692   7.664
  849POPC   NC313907  26.783  12.120   9.464
  849POPC   PO413908  26.808  12.125   9.164
  849POPC   GL113909  26.800  12.070   8.864
  849POPC   GL213910  26.804  11.920   8.864
  849POPC   C1A13911  26.785  12.126   8.564
  849POPC   D2A13912  26.855  12.062   8.264
  849POPC   C3A13913  26.811  12.124   7.964
  849POPC   C4A13914  26.864  12.114   7.664
  849POPC   C1B13915  26.797  11.823   8.564
  849POPC   C2B13916  26.793  11.851   8.264
  849POPC   C3B13917  26.748  11.793   7.964
  849POPC   C4B13918  26.783  11.830   7.664
  850POPC   NC313919  30.722  14.383   9.464
  850POPC   PO413920  30.720  14.430   9.164
  850POPC   GL113921  30.718  14.365   8.864
  850POPC   GL213922  30.559  14.432   8.864
  850POPC   C1A13923  30.746  14.388   8.564
  850POPC   D2A13924  30.730  14.418   8.264
  850POPC   C3A13925  30.719  14.383   7.964
  850POPC   C4A13926  30.738  14.445   7.664
  850POPC   C1B13927  30.446  14.598   8.564
  850POPC   C2B13928  30.529  14.549   8.264
  850POPC   C3B13929  30.544  14.587   7.964
  850POPC   C4B13930  30.525  14.561   7.664
  851POPC   NC313931  16.754  43.856   9.464
  851POPC   PO413932  16.781  43.927   9.164
  851POPC   GL113933  16.746  43.908   8.864
  851POPC   GL213934  16.678  43.772   8.864
  851POPC   C1A13935  16.779  43.887   8.564
  851POPC   D2A13936  16.728  43.841   8.264
  851POPC   C3A13937  16.703  43.864   7.964
  851POPC   C4A13938  16.769  43.923   7.664
  851POPC   C1B13939  16.723  43.635   8.564
  851POPC   C2B13940  16.712  43.656   8.264
  851POPC   C3B13941  16.763  43.605   7.964
  851POPC   C4B13942  16.759  43.650   7.664
  852POPC   NC313943  43.877  12.829   9.464
  852POPC   PO413944  43.929  12.810   9.164
  852POPC   GL113945  43.879  12.817   8.864
  852POPC   GL213946  43.835  12.751   8.864
  852POPC   C1A13947  43.844  12.888   8.564
  852POPC   D2A13948  43.877  12.822   8.264
  852POPC   C3A13949  43.882  12.844   7.964
  852POPC   C4A13950  43.889  12.899   7.664
  852POPC   C1B13951  43.871  12.577   8.564
  852POPC   C2B13952  43.882  12.567   8.264
  852POPC   C3B13953  43.864  12.566   7.964
  852POPC   C4B13954  43.891  12.615   7.664
  853POPC   NC313955   9.775  41.555   9.464
  853POPC   PO413956   9.790  41.555   9.164
  853POPC   GL113957   9.737  41.517   8.864
  853POPC   GL213958   9.730  41.445   8.864
  853POPC   C1A13959   9.746  41.528   8.564
  853POPC   D2A13960   9.791  41.541   8.264
  853POPC   C3A13961   9.763  41.602   7.964
  853POPC   C4A13962   9.748  41.533   7.664
  853POPC   C1B13963   9.661  41.306   8.564
  853POPC   C2B13964   9.575  41.333   8.264
  853POPC   C3B13965   9.630  41.359   7.964
  853POPC   C4B13966   9.596  41.296   7.664
  854POPC   NC313967  17.539   7.452   9.464
  854POPC   PO413968  17.553   7.389   9.164
  854POPC   GL113969  17.503   7.439   8.864
  854POPC   GL213970  17.356   7.508   8.864
  854POPC   C1A13971  17.490   7.470   8.564
  854POPC   D2A13972  17.544   7.452   8.264
  854POPC   C3A13973  17.500   7.402   7.964
  854POPC   C4A13974  17.495   7.402   7.664
  854POPC   C1B13975  17.262   7.551   8.564
  854POPC   C2B13976  17.325   7.578   8.264
  854POPC   C3B13977  17.331   7.531   7.964
  854POPC   C4B13978  17.321   7.497   7.664
  855POPC   NC313979   4.309  38.415   9.464
  855POPC   PO413980   4.328  38.484   9.164
  855POPC   GL113981   4.341  38.422   8.864
  855POPC   GL213982   4.216  38.340   8.864
  855POPC   C1A13983   4.347  38.440   8.564
  855POPC   D2A13984   4.304  38.504   8.264
  855POPC   C3A13985   4.366  38.468   7.964
  855POPC   C4A13986   4.294  38.451   7.664
  855POPC   C1B13987   4.166  38.272   8.564
  855POPC   C2B13988   4.172  38.281   8.264
  855POPC   C3B13989   4.094  38.323   7.964
  855POPC   C4B13990   4.148  38.317   7.664
  856POPC   NC313991  11.252   7.425   9.464
  856POPC   PO413992  11.283   7.378   9.164
  856POPC   GL113993  11.311   7.463   8.864
  856POPC   GL213994  11.465   7.427   8.864
  856POPC   C1A13995  11.280   7.453   8.564
  856POPC   D2A13996  11.286   7.416   8.264
  856POPC   C3A13997  11.295   7.388   7.964
  856POPC   C4A13998  11.324   7.417   7.664
  856POPC   C1B13999  11.502   7.435   8.564
  856POPC   C2B14000  11.517   7.457   8.264
  856POPC   C3B14001  11.504   7.484   7.964
  856POPC   C4B14002  11.496   7.491   7.664
  857POPC   NC314003  41.538   6.620   9.464
  857POPC   PO414004  41.595   6.651   9.164
  857POPC   GL114005  41.509   6.688   8.864
  857POPC   GL214006  41.410   6.602   8.864
  857POPC   C1A14007  41.516   6.686   8.564
  857POPC   D2A14008  41.583   6.695   8.264
  857POPC   C3A14009  41.539   6.616   7.964
  857POPC   C4A14010  41.559   6.694   7.664
  857POPC   C1B14011  41.319   6.620   8.564
  857POPC   C2B14012  41.323   6.597   8.264
  857POPC   C3B14013  41.329   6.610   7.964
  857POPC   C4B14014  41.359   6.552   7.664
  858POPC   NC314015  14.425  33.041   9.464
  858POPC   PO414016  14.401  33.067   9.164
  858POPC   GL114017  14.398  33.034   8.864
  858POPC   GL214018  14.492  32.897   8.864
  858POPC   C1A14019  14.447  33.059   8.564
  858POPC   D2A14020  14.376  33.004   8.264
  858POPC   C3A14021  14.362  33.009   7.964
  858POPC   C4A14022  14.363  33.026   7.664
  858POPC   C1B14023  14.494  32.789   8.564
  858POPC   C2B14024  14.511  32.813   8.264
  858POPC   C3B14025  14.495  32.754   7.964
  858POPC   C4B14026  14.499  32.826   7.664
  859POPC   NC314027   7.421   1.984   9.464
  859POPC   PO414028   7.374   1.956   9.164
  859POPC   GL114029   7.449   2.007   8.864
  859POPC   GL214030   7.355   1.957   8.864
  859POPC   C1A14031   7.422   2.033   8.564
  859POPC   D2A14032   7.388   2.009   8.264
  859POPC   C3A14033   7.452   1.952   7.964
  859POPC   C4A14034   7.380   2.024   7.664
  859POPC   C1B14035   7.219   1.803   8.564
  859POPC   C2B14036   7.264   1.800   8.264
  859POPC   C3B14037   7.181   1.811   7.964
  859POPC   C4B14038   7.220   1.872   7.664
  860POPC   NC314039  36.890  34.583   9.464
  860POPC   PO414040  36.937  34.587   9.164
  860POPC   GL114041  36.858  34.594   8.864
  860POPC   GL214042  36.893  34.714   8.864
  860POPC   C1A14043  36.882  34.605   8.564
  860POPC   D2A14044  36.951  34.621   8.264
  860POPC   C3A14045  36.889  34.566   7.964
  860POPC   C4A14046  36.931  34.573   7.664
  860POPC   C1B14047  36.921  34.864   8.564
  860POPC   C2B14048  36.893  34.804   8.264
  860POPC   C3B14049  36.932  34.856   7.964
  860POPC   C4B14050  36.879  34.845   7.664
  861POPC   NC314051  43.903  40.048   9.464
  861POPC   PO414052  43.907  39.984   9.164
  861POPC   GL114053  43.923  40.043   8.864
  861POPC   GL214054  43.759  40.003   8.864
  861POPC   C1A14055  43.914  40.028   8.564
  861POPC   D2A14056  43.907  39.986   8.264
  861POPC   C3A14057  43.931  40.040   7.964
  861POPC   C4A14058  43.885  40.041   7.664
  861POPC   C1B14059  43.607  40.001   8.564
  861POPC   C2B14060  43.613  40.069   8.264
  861POPC   C3B14061  43.680  40.007   7.964
  861POPC   C4B14062  43.605  40.017   7.664
  862POPC   NC314063  16.760  33.019   9.464
  862POPC   PO414064  16.758  33.064   9.164
  862POPC   GL114065  16.764  33.014   8.864
  862POPC   GL214066  16.803  32.988   8.864
  862POPC   C1A14067  16.686  33.016   8.564
  862POPC   D2A14068  16.706  33.060   8.264
  862POPC   C3A14069  16.723  32.995   7.964
  862POPC   C4A14070  16.684  33.042   7.664
  862POPC   C1B14071  16.919  32.838   8.564
  862POPC   C2B14072  16.875  32.848   8.264
  862POPC   C3B14073  16.961  32.877   7.964
  862POPC   C4B14074  16.930  32.867   7.664
  863POPC   NC314075  20.583  15.197   9.464
  863POPC   PO414076  20.572  15.219   9.164
  863POPC   GL114077  20.651  15.155   8.864
  863POPC   GL214078  20.507  15.144   8.864
  863POPC   C1A14079  20.657  15.165   8.564
  863POPC   D2A14080  20.648  15.178   8.264
  863POPC   C3A14081  20.617  15.167   7.964
  863POPC   C4A14082  20.563  15.185   7.664
  863POPC   C1B14083  20.415  15.140   8.564
  863POPC   C2B14084  20.327  15.125   8.264
  863POPC   C3B14085  20.366  15.162   7.964
  863POPC   C4B14086  20.360  15.152   7.664
  864POPC   NC314087  43.119   1.200   9.464
  864POPC   PO414088  43.100   1.223   9.164
  864POPC   GL114089  43.098   1.165   8.864
  864POPC   GL214090  43.024   1.259   8.864
  864POPC   C1A14091  43.064   1.202   8.564
  864POPC   D2A14092  43.122   1.228   8.264
  864POPC   C3A14093  43.108   1.254   7.964
  864POPC   C4A14094  43.085   1.256   7.664
  864POPC   C1B14095  42.899   1.369   8.564
  864POPC   C2B14096  42.902   1.435   8.264
  864POPC   C3B14097  42.981   1.386   7.964
  864POPC   C4B14098  42.921   1.429   7.664
  865POPC   NC314099   9.701   3.528   9.464
  865POPC   PO414100   9.777   3.518   9.164
  865POPC   GL114101   9.704   3.583   8.864
  865POPC   GL214102   9.739   3.648   8.864
  865POPC   C1A14103   9.714   3.568   8.564
  865POPC   D2A14104   9.704   3.570   8.264
  865POPC   C3A14105   9.780   3.583   7.964
  865POPC   C4A14106   9.784   3.529   7.664
  865POPC   C1B14107   9.783   3.787   8.564
  865POPC   C2B14108   9.740   3.789   8.264
  865POPC   C3B14109   9.732   3.775   7.964
  865POPC   C4B14110   9.778   3.743   7.664
  866POPC   NC314111   7.419  26.823   9.464
  866POPC   PO414112   7.469  26.836   9.164
  866POPC   GL114113   7.469  26.797   8.864
  866POPC   GL214114   7.304  26.902   8.864
  866POPC   C1A14115   7.438  26.867   8.564
  866POPC   D2A14116   7.420  26.847   8.264
  866POPC   C3A14117   7.388  26.841   7.964
  866POPC   C4A14118   7.463  26.823   7.664
  866POPC   C1B14119   7.324  27.000   8.564
  866POPC   C2B14120   7.309  27.014   8.264
  866POPC   C3B14121   7.272  27.067   7.964
  866POPC   C4B14122   7.320  26.994   7.664
  867POPC   NC314123   1.228  20.630   9.464
  867POPC   PO414124   1.248  20.656   9.164
  867POPC   GL114125   1.225  20.582   8.864
  867POPC   GL214126   1.143  20.495   8.864
  867POPC   C1A14127   1.227  20.609   8.564
  867POPC   D2A14128   1.198  20.619   8.264
  867POPC   C3A14129   1.254  20.641   7.964
  867POPC   C4A14130   1.235  20.576   7.664
  867POPC   C1B14131   1.026  20.438   8.564
  867POPC   C2B14132   1.082  20.470   8.264
  867POPC   C3B14133   1.002  20.389   7.964
  867POPC   C4B14134   1.078  20.481   7.664
  868POPC   NC314135  36.856   2.784   9.464
  868POPC   PO414136  36.856   2.788   9.164
  868POPC   GL114137  36.883   2.793   8.864
  868POPC   GL214138  36.799   2.715   8.864
  868POPC   C1A14139  36.914   2.717   8.564
  868POPC   D2A14140  36.939   2.727   8.264
  868POPC   C3A14141  36.863   2.766   7.964
  868POPC   C4A14142  36.915   2.785   7.664
  868POPC   C1B14143  36.658   2.569   8.564
  868POPC   C2B14144  36.709   2.603   8.264
  868POPC   C3B14145  36.710   2.598   7.964
  868POPC   C4B14146  36.738   2.626   7.664
  869POPC   NC314147   9.003   9.729   9.464
  869POPC   PO414148   8.981   9.789   9.164
  869POPC   GL114149   8.972   9.795   8.864
  869POPC   GL214150   8.943   9.860   8.864
  869POPC   C1A14151   8.976   9.705   8.564
  869POPC   D2A14152   8.964   9.763   8.264
  869POPC   C3A14153   8.993   9.711   7.964
  869POPC   C4A14154   8.963   9.709   7.664
  869POPC   C1B14155   8.932  10.010   8.564
  869POPC   C2B14156   8.873   9.958   8.264
  869POPC   C3B14157   8.919  10.024   7.964
  869POPC   C4B14158   8.847  10.018   7.664
  870POPC   NC314159  17.547  19.101   9.464
  870POPC   PO414160  17.507  19.047   9.164
  870POPC   GL114161  17.519  19.037   8.864
  870POPC   GL214162  17.617  18.972   8.864
  870POPC   C1A14163  17.502  19.023   8.564
  870POPC   D2A14164  17.466  19.060   8.264
  870POPC   C3A14165  17.502  19.057   7.964
  870POPC   C4A14166  17.511  19.030   7.664
  870POPC   C1B14167  17.721  18.913   8.564
  870POPC   C2B14168  17.747  18.958   8.264
  870POPC   C3B14169  17.737  18.983   7.964
  870POPC   C4B14170  17.716  18.937   7.664
  871POPC   NC314171  14.389   8.213   9.464
  871POPC   PO414172  14.388   8.243   9.164
  871POPC   GL114173  14.408   8.182   8.864
  871POPC   GL214174  14.489   8.272   8.864
  871POPC   C1A14175  14.440   8.243   8.564
  871POPC   D2A14176  14.403   8.219   8.264
  871POPC   C3A14177  14.360   8.217   7.964
  871POPC   C4A14178  14.417   8.177   7.664
  871POPC   C1B14179  14.559   8.364   8.564
  871POPC   C2B14180  14.549   8.414   8.264
  871POPC   C3B14181  14.573   8.354   7.964
  871POPC   C4B14182  14.555   8.373   7.664
  872POPC   NC314183  20.562   3.563   9.464
  872POPC   PO414184  20.655   3.572   9.164
  872POPC   GL114185  20.582   3.587   8.864
  872POPC   GL214186  20.503   3.494   8.864
  872POPC   C1A14187  20.634   3.585   8.564
  872POPC   D2A14188  20.573   3.504   8.264
  872POPC   C3A14189  20.573   3.517   7.964
  872POPC   C4A14190  20.564   3.538   7.664
  872POPC   C1B14191  20.341   3.433   8.564
  872POPC   C2B14192  20.338   3.396   8.264
  872POPC   C3B14193  20.352   3.480   7.964
  872POPC   C4B14194  20.374   3.480   7.664
  873POPC   NC314195  29.882   3.577   9.464
  873POPC   PO414196  29.968   3.492   9.164
  873POPC   GL114197  29.969   3.556   8.864
  873POPC   GL214198  30.027   3.411   8.864
  873POPC   C1A14199  29.875   3.500   8.564
  873POPC   D2A14200  29.934   3.573   8.264
  873POPC   C3A14201  29.954   3.516   7.964
  873POPC   C4A14202  29.954   3.571   7.664
  873POPC   C1B14203  30.122   3.370   8.564
  873POPC   C2B14204  30.144   3.326   8.264
  873POPC   C3B14205  30.099   3.379   7.964
  873POPC   C4B14206  30.140   3.398   7.664
  874POPC   NC314207  33.062  12.803   9.464
  874POPC   PO414208  32.993  12.868   9.164
  874POPC   GL114209  33.055  12.880   8.864
  874POPC   GL214210  32.977  12.781   8.864
  874POPC   C1A14211  33.066  12.840   8.564
  874POPC   D2A14212  33.008  12.893   8.264
  874POPC   C3A14213  33.024  12.886   7.964
  874POPC   C4A14214  33.073  12.811   7.664
  874POPC   C1B14215  32.790  12.712   8.564
  874POPC   C2B14216  32.800  12.702   8.264
  874POPC   C3B14217  32.793  12.651   7.964
  874POPC   C4B14218  32.872  12.699   7.664
  875POPC   NC314219   5.901  23.715   9.464
  875POPC   PO414220   5.840  23.690   9.164
  875POPC   GL114221   5.919  23.681   8.864
  875POPC   GL214222   5.850  23.850   8.864
  875POPC   C1A14223   5.890  23.751   8.564
  875POPC   D2A14224   5.907  23.690   8.264
  875POPC   C3A14225   5.900  23.711   7.964
  875POPC   C4A14226   5.897  23.696   7.664
  875POPC   C1B14227   5.846  23.923   8.564
  875POPC   C2B14228   5.783  23.939   8.264
  875POPC   C3B14229   5.773  23.997   7.964
  875POPC   C4B14230   5.783  23.968   7.664
  876POPC   NC314231   7.375  33.835   9.464
  876POPC   PO414232   7.416  33.821   9.164
  876POPC   GL114233   7.467  33.782   8.864
  876POPC   GL214234   7.351  33.801   8.864
  876POPC   C1A14235   7.424  33.813   8.564
  876POPC   D2A14236   7.397  33.778   8.264
  876POPC   C3A14237   7.404  33.843   7.964
  876POPC   C4A14238   7.375  33.786   7.664
  876POPC   C1B14239   7.160  33.928   8.564
  876POPC   C2B14240   7.200  33.896   8.264
  876POPC   C3B14241   7.181  33.848   7.964
  876POPC   C4B14242   7.192  33.865   7.664
  877POPC   NC314243  21.357  14.379   9.464
  877POPC   PO414244  21.427  14.429   9.164
  877POPC   GL114245  21.402  14.445   8.864
  877POPC   GL214246  21.400  14.312   8.864
  877POPC   C1A14247  21.392  14.355   8.564
  877POPC   D2A14248  21.352  14.371   8.264
  877POPC   C3A14249  21.341  14.373   7.964
  877POPC   C4A14250  21.376  14.432   7.664
  877POPC   C1B14251  21.442  14.162   8.564
  877POPC   C2B14252  21.454  14.138   8.264
  877POPC   C3B14253  21.414  14.140   7.964
  877POPC   C4B14254  21.435  14.165   7.664
  878POPC   NC314255  29.130  30.740   9.464
  878POPC   PO414256  29.156  30.733   9.164
  878POPC   GL114257  29.186  30.662   8.864
  878POPC   GL214258  29.221  30.732   8.864
  878POPC   C1A14259  29.155  30.712   8.564
  878POPC   D2A14260  29.128  30.674   8.264
  878POPC   C3A14261  29.137  30.739   7.964
  878POPC   C4A14262  29.100  30.734   7.664
  878POPC   C1B14263  29.385  30.765   8.564
  878POPC   C2B14264  29.414  30.783   8.264
  878POPC   C3B14265  29.369  30.705   7.964
  878POPC   C4B14266  29.418  30.747   7.664
  879POPC   NC314267  36.157  16.002   9.464
  879POPC   PO414268  36.099  15.921   9.164
  879POPC   GL114269  36.082  15.921   8.864
  879POPC   GL214270  36.232  16.017   8.864
  879POPC   C1A14271  36.146  15.942   8.564
  879POPC   D2A14272  36.082  15.984   8.264
  879POPC   C3A14273  36.149  15.946   7.964
  879POPC   C4A14274  36.164  15.982   7.664
  879POPC   C1B14275  36.280  16.134   8.564
  879POPC   C2B14276  36.273  16.125   8.264
  879POPC   C3B14277  36.275  16.139   7.964
  879POPC   C4B14278  36.312  16.082   7.664
  880POPC   NC314279  39.183  41.565   9.464
  880POPC   PO414280  39.196  41.517   9.164
  880POPC   GL114281  39.274  41.589   8.864
  880POPC   GL214282  39.292  41.658   8.864
  880POPC   C1A14283  39.251  41.575   8.564
  880POPC   D2A14284  39.223  41.561   8.264
  880POPC   C3A14285  39.270  41.559   7.964
  880POPC   C4A14286  39.261  41.571   7.664
  880POPC   C1B14287  39.316  41.740   8.564
  880POPC   C2B14288  39.385  41.741   8.264
  880POPC   C3B14289  39.369  41.796   7.964
  880POPC   C4B14290  39.388  41.797   7.664
  881POPC   NC314291  23.738   6.672   9.464
  881POPC   PO414292  23.703   6.615   9.164
  881POPC   GL114293  23.750   6.599   8.864
  881POPC   GL214294  23.685   6.505   8.864
  881POPC   C1A14295  23.752   6.651   8.564
  881POPC   D2A14296  23.679   6.639   8.264
  881POPC   C3A14297  23.746   6.618   7.964
  881POPC   C4A14298  23.749   6.668   7.664
  881POPC   C1B14299  23.736   6.431   8.564
  881POPC   C2B14300  23.757   6.367   8.264
  881POPC   C3B14301  23.698   6.424   7.964
  881POPC   C4B14302  23.719   6.400   7.664
  882POPC   NC314303  26.785  20.610   9.464
  882POPC   PO414304  26.804  20.561   9.164
  882POPC   GL114305  26.782  20.626   8.864
  882POPC   GL214306  26.700  20.471   8.864
  882POPC   C1A14307  26.855  20.613   8.564
  882POPC   D2A14308  26.833  20.640   8.264
  882POPC   C3A14309  26.848  20.622   7.964
  882POPC   C4A14310  26.774  20.638   7.664
  882POPC   C1B14311  26.669  20.441   8.564
  882POPC   C2B14312  26.704  20.427   8.264
  882POPC   C3B14313  26.684  20.374   7.964
  882POPC   C4B14314  26.656  20.384   7.664
  883POPC   NC314315   8.210  34.616   9.464
  883POPC   PO414316   8.169  34.603   9.164
  883POPC   GL114317   8.195  34.622   8.864
  883POPC   GL214318   8.119  34.641   8.864
  883POPC   C1A14319   8.151  34.530   8.564
  883POPC   D2A14320   8.183  34.615   8.264
  883POPC   C3A14321   8.206  34.548   7.964
  883POPC   C4A14322   8.184  34.578   7.664
  883POPC   C1B14323   7.973  34.692   8.564
  883POPC   C2B14324   7.976  34.735   8.264
  883POPC   C3B14325   8.029  34.693   7.964
  883POPC   C4B14326   7.989  34.729   7.664
  884POPC   NC314327  24.449  31.494   9.464
  884POPC   PO414328  24.529  31.500   9.164
  884POPC   GL114329  24.443  31.446   8.864
  884POPC   GL214330  24.507  31.392   8.864
  884POPC   C1A14331  24.472  31.520   8.564
  884POPC   D2A14332  24.509  31.471   8.264
  884POPC   C3A14333  24.488  31.521   7.964
  884POPC   C4A14334  24.453  31.471   7.664
  884POPC   C1B14335  24.577  31.238   8.564
  884POPC   C2B14336  24.635  31.207   8.264
  884POPC   C3B14337  24.610  31.208   7.964
  884POPC   C4B14338  24.647  31.269   7.664
  885POPC   NC314339   3.497  38.499   9.464
  885POPC   PO414340   3.583  38.418   9.164
  885POPC   GL114341   3.523  38.451   8.864
  885POPC   GL214342   3.547  38.533   8.864
  885POPC   C1A14343   3.591  38.417   8.564
  885POPC   D2A14344   3.561  38.496   8.264
  885POPC   C3A14345   3.577  38.491   7.964
  885POPC   C4A14346   3.574  38.487   7.664
  885POPC   C1B14347   3.501  38.683   8.564
  885POPC   C2B14348   3.491  38.732   8.264
  885POPC   C3B14349   3.422  38.717   7.964
  885POPC   C4B14350   3.411  38.643   7.664
  886POPC   NC314351  29.189  19.032   9.464
  886POPC   PO414352  29.162  19.055   9.164
  886POPC   GL114353  29.156  19.092   8.864
  886POPC   GL214354  29.225  19.188   8.864
  886POPC   C1A14355  29.130  19.080   8.564
  886POPC   D2A14356  29.160  19.061   8.264
  886POPC   C3A14357  29.188  19.088   7.964
  886POPC   C4A14358  29.115  19.103   7.664
  886POPC   C1B14359  29.332  19.282   8.564
  886POPC   C2B14360  29.264  19.225   8.264
  886POPC   C3B14361  29.238  19.282   7.964
  886POPC   C4B14362  29.267  19.280   7.664
  887POPC   NC314363  13.611   5.055   9.464
  887POPC   PO414364  13.622   5.134   9.164
  887POPC   GL114365  13.608   5.067   8.864
  887POPC   GL214366  13.712   5.128   8.864
  887POPC   C1A14367  13.615   5.136   8.564
  887POPC   D2A14368  13.631   5.117   8.264
  887POPC   C3A14369  13.583   5.087   7.964
  887POPC   C4A14370  13.610   5.093   7.664
  887POPC   C1B14371  13.846   5.204   8.564
  887POPC   C2B14372  13.887   5.212   8.264
  887POPC   C3B14373  13.865   5.238   7.964
  887POPC   C4B14374  13.885   5.219   7.664
  888POPC   NC314375  26.023  19.104   9.464
  888POPC   PO414376  26.042  19.052   9.164
  888POPC   GL114377  26.065  19.107   8.864
  888POPC   GL214378  25.976  18.941   8.864
  888POPC   C1A14379  25.998  19.108   8.564
  888POPC   D2A14380  26.016  19.065   8.264
  888POPC   C3A14381  26.027  19.093   7.964
  888POPC   C4A14382  26.082  19.031   7.664
  888POPC   C1B14383  25.934  18.797   8.564
  888POPC   C2B14384  25.912  18.792   8.264
  888POPC   C3B14385  25.948  18.789   7.964
  888POPC   C4B14386  25.971  18.843   7.664
  889POPC   NC314387  26.859   2.719   9.464
  889POPC   PO414388  26.782   2.750   9.164
  889POPC   GL114389  26.801   2.776   8.864
  889POPC   GL214390  26.976   2.731   8.864
  889POPC   C1A14391  26.836   2.783   8.564
  889POPC   D2A14392  26.801   2.716   8.264
  889POPC   C3A14393  26.856   2.794   7.964
  889POPC   C4A14394  26.847   2.773   7.664
  889POPC   C1B14395  27.061   2.768   8.564
  889POPC   C2B14396  27.101   2.765   8.264
  889POPC   C3B14397  27.046   2.786   7.964
  889POPC   C4B14398  27.042   2.822   7.664
  890POPC   NC314399  26.799  25.218   9.464
  890POPC   PO414400  26.830  25.291   9.164
  890POPC   GL114401  26.866  25.253   8.864
  890POPC   GL214402  26.960  25.251   8.864
  890POPC   C1A14403  26.859  25.247   8.564
  890POPC   D2A14404  26.847  25.280   8.264
  890POPC   C3A14405  26.792  25.258   7.964
  890POPC   C4A14406  26.772  25.221   7.664
  890POPC   C1B14407  27.022  25.343   8.564
  890POPC   C2B14408  27.048  25.307   8.264
  890POPC   C3B14409  27.020  25.350   7.964
  890POPC   C4B14410  27.111  25.341   7.664
  891POPC   NC314411  42.377  28.406   9.464
  891POPC   PO414412  42.331  28.363   9.164
  891POPC   GL114413  42.320  28.369   8.864
  891POPC   GL214414  42.345  28.515   8.864
  891POPC   C1A14415  42.301  28.414   8.564
  891POPC   D2A14416  42.381  28.406   8.264
  891POPC   C3A14417  42.329  28.383   7.964
  891POPC   C4A14418  42.373  28.386   7.664
  891POPC   C1B14419  42.275  28.636   8.564
  891POPC   C2B14420  42.249  28.661   8.264
  891POPC   C3B14421  42.320  28.618   7.964
  891POPC   C4B14422  42.244  28.655   7.664
  892POPC   NC314423  12.851   2.717   9.464
  892POPC   PO414424  12.838   2.765   9.164
  892POPC   GL114425  12.854   2.806   8.864
  892POPC   GL214426  12.850   2.923   8.864
  892POPC   C1A14427  12.830   2.805   8.564
  892POPC   D2A14428  12.837   2.777   8.264
  892POPC   C3A14429  12.868   2.740   7.964
  892POPC   C4A14430  12.843   2.763   7.664
  892POPC   C1B14431  12.927   3.051   8.564
  892POPC   C2B14432  12.964   2.998   8.264
  892POPC   C3B14433  12.967   3.037   7.964
  892POPC   C4B14434  12.956   3.035   7.664
  893POPC   NC314435   4.335  41.543   9.464
  893POPC   PO414436   4.336  41.541   9.164
  893POPC   GL114437   4.286  41.557   8.864
  893POPC   GL214438   4.309  41.446   8.864
  893POPC   C1A14439   4.333  41.571   8.564
  893POPC   D2A14440   4.280  41.535   8.264
  893POPC   C3A14441   4.363  41.552   7.964
  893POPC   C4A14442   4.357  41.520   7.664
  893POPC   C1B14443   4.302  41.337   8.564
  893POPC   C2B14444   4.287  41.329   8.264
  893POPC   C3B14445   4.248  41.276   7.964
  893POPC   C4B14446   4.248  41.291   7.664
  894POPC   NC314447  11.349  40.011   9.464
  894POPC   PO414448  11.323  39.981   9.164
  894POPC   GL114449  11.273  40.047   8.864
  894POPC   GL214450  11.258  40.107   8.864
  894POPC   C1A14451  11.331  40.042   8.564
  894POPC   D2A14452  11.331  40.017   8.264
  894POPC   C3A14453  11.283  40.034   7.964
  894POPC   C4A14454  11.294  40.015   7.664
  894POPC   C1B14455  11.266  40.289   8.564
  894POPC   C2B14456  11.357  40.223   8.264
  894POPC   C3B14457  11.312  40.254   7.964
  894POPC   C4B14458  11.351  40.275   7.664
  895POPC   NC314459  28.334  30.728   9.464
  895POPC   PO414460  28.349  30.729   9.164
  895POPC   GL114461  28.367  30.693   8.864
  895POPC   GL214462  28.489  30.782   8.864
  895POPC   C1A14463  28.339  30.709   8.564
  895POPC   D2A14464  28.379  30.704   8.264
  895POPC   C3A14465  28.407  30.659   7.964
  895POPC   C4A14466  28.382  30.703   7.664
  895POPC   C1B14467  28.569  30.844   8.564
  895POPC   C2B14468  28.607  30.807   8.264
  895POPC   C3B14469  28.600  30.788   7.964
  895POPC   C4B14470  28.602  30.822   7.664
  896POPC   NC314471  33.073  23.684   9.464
  896POPC   PO414472  33.053  23.716   9.164
  896POPC   GL114473  33.055  23.689   8.864
  896POPC   GL214474  33.013  23.856   8.864
  896POPC   C1A14475  32.978  23.755   8.564
  896POPC   D2A14476  33.060  23.712   8.264
  896POPC   C3A14477  32.991  23.747   7.964
  896POPC   C4A14478  33.003  23.706   7.664
  896POPC   C1B14479  32.968  23.924   8.564
  896POPC   C2B14480  32.990  23.967   8.264
  896POPC   C3B14481  32.989  23.959   7.964
  896POPC   C4B14482  32.915  23.965   7.664
  897POPC   NC314483  33.038  22.195   9.464
  897POPC   PO414484  33.055  22.117   9.164
  897POPC   GL114485  33.045  22.187   8.864
  897POPC   GL214486  32.928  22.036   8.864
  897POPC   C1A14487  33.003  22.163   8.564
  897POPC   D2A14488  32.974  22.198   8.264
  897POPC   C3A14489  33.061  22.184   7.964
  897POPC   C4A14490  33.056  22.163   7.664
  897POPC   C1B14491  32.901  21.915   8.564
  897POPC   C2B14492  32.918  21.945   8.264
  897POPC   C3B14493  32.910  21.942   7.964
  897POPC   C4B14494  32.860  21.895   7.664
  898POPC   NC314495   8.996  29.126   9.464
  898POPC   PO414496   8.932  29.185   9.164
  898POPC   GL114497   8.973  29.170   8.864
  898POPC   GL214498   8.977  29.253   8.864
  898POPC   C1A14499   8.937  29.128   8.564
  898POPC   D2A14500   8.958  29.179   8.264
  898POPC   C3A14501   8.985  29.183   7.964
  898POPC   C4A14502   8.976  29.103   7.664
  898POPC   C1B14503   9.091  29.357   8.564
  898POPC   C2B14504   9.060  29.424   8.264
  898POPC   C3B14505   9.053  29.414   7.964
  898POPC   C4B14506   9.076  29.338   7.664
  899POPC   NC314507   5.879  36.901   9.464
  899POPC   PO414508   5.869  36.902   9.164
  899POPC   GL114509   5.881  36.909   8.864
  899POPC   GL214510   5.943  37.011   8.864
  899POPC   C1A14511   5.913  36.953   8.564
  899POPC   D2A14512   5.832  36.947   8.264
  899POPC   C3A14513   5.837  36.885   7.964
  899POPC   C4A14514   5.862  36.919   7.664
  899POPC   C1B14515   5.955  37.139   8.564
  899POPC   C2B14516   5.988  37.102   8.264
  899POPC   C3B14517   5.923  37.137   7.964
  899POPC   C4B14518   5.957  37.138   7.664
  900POPC   NC314519  26.055  24.443   9.464
  900POPC   PO414520  26.065  24.450   9.164
  900POPC   GL114521  26.054  24.495   8.864
  900POPC   GL214522  26.100  24.585   8.864
  900POPC   C1A14523  26.030  24.502   8.564
  900POPC   D2A14524  26.023  24.452   8.264
  900POPC   C3A14525  26.038  24.487   7.964
  900POPC   C4A14526  26.000  24.525   7.664
  900POPC   C1B14527  26.160  24.675   8.564
  900POPC   C2B14528  26.096  24.757   8.264
  900POPC   C3B14529  26.130  24.765   7.964
  900POPC   C4B14530  26.187  24.685   7.664
  901POPC   NC314531  10.517  42.292   9.464
  901POPC   PO414532  10.530  42.324   9.164
  901POPC   GL114533  10.506  42.365   8.864
  901POPC   GL214534  10.626  42.295   8.864
  901POPC   C1A14535  10.528  42.365   8.564
  901POPC   D2A14536  10.559  42.347   8.264
  901POPC   C3A14537  10.519  42.315   7.964
  901POPC   C4A14538  10.567  42.382   7.664
  901POPC   C1B14539  10.718  42.174   8.564
  901POPC   C2B14540  10.692  42.138   8.264
  901POPC   C3B14541  10.662  42.179   7.964
  901POPC   C4B14542  10.740  42.166   7.664
  902POPC   NC314543  32.294  25.314   9.464
  902POPC   PO414544  32.238  25.296   9.164
  902POPC   GL114545  32.242  25.294   8.864
  902POPC   GL214546  32.216  25.099   8.864
  902POPC   C1A14547  32.236  25.305   8.564
  902POPC   D2A14548  32.254  25.299   8.264
  902POPC   C3A14549  32.273  25.295   7.964
  902POPC   C4A14550  32.265  25.230   7.664
  902POPC   C1B14551  32.259  25.033   8.564
  902POPC   C2B14552  32.284  24.999   8.264
  902POPC   C3B14553  32.229  25.045   7.964
  902POPC   C4B14554  32.191  25.007   7.664
  903POPC   NC314555  33.073  40.827   9.464
  903POPC   PO414556  33.017  40.793   9.164
  903POPC   GL114557  33.030  40.747   8.864
  903POPC   GL214558  32.874  40.781   8.864
  903POPC   C1A14559  33.069  40.753   8.564
  903POPC   D2A14560  32.988  40.822   8.264
  903POPC   C3A14561  32.983  40.759   7.964
  903POPC   C4A14562  33.006  40.762   7.664
  903POPC   C1B14563  32.805  40.871   8.564
  903POPC   C2B14564  32.824  40.866   8.264
  903POPC   C3B14565  32.774  40.869   7.964
  903POPC   C4B14566  32.747  40.855   7.664
  904POPC   NC314567  12.072  38.423   9.464
  904POPC   PO414568  12.045  38.440   9.164
  904POPC   GL114569  12.072  38.439   8.864
  904POPC   GL214570  11.993  38.363   8.864
  904POPC   C1A14571  12.112  38.423   8.564
  904POPC   D2A14572  12.095  38.477   8.264
  904POPC   C3A14573  12.034  38.492   7.964
  904POPC   C4A14574  12.103  38.419   7.664
  904POPC   C1B14575  11.860  38.372   8.564
  904POPC   C2B14576  11.809  38.383   8.264
  904POPC   C3B14577  11.862  38.392   7.964
  904POPC   C4B14578  11.885  38.304   7.664
  905POPC   NC314579  15.957   3.517   9.464
  905POPC   PO414580  15.965   3.579   9.164
  905POPC   GL114581  15.944   3.580   8.864
  905POPC   GL214582  16.092   3.614   8.864
  905POPC   C1A14583  15.954   3.587   8.564
  905POPC   D2A14584  15.921   3.517   8.264
  905POPC   C3A14585  15.996   3.511   7.964
  905POPC   C4A14586  15.954   3.569   7.664
  905POPC   C1B14587  16.201   3.606   8.564
  905POPC   C2B14588  16.210   3.618   8.264
  905POPC   C3B14589  16.230   3.650   7.964
  905POPC   C4B14590  16.235   3.660   7.664
  906POPC   NC314591  23.764   9.009   9.464
  906POPC   PO414592  23.697   8.959   9.164
  906POPC   GL114593  23.667   9.006   8.864
  906POPC   GL214594  23.827   9.006   8.864
  906POPC   C1A14595  23.735   8.924   8.564
  906POPC   D2A14596  23.672   8.989   8.264
  906POPC   C3A14597  23.757   8.953   7.964
  906POPC   C4A14598  23.725   9.004   7.664
  906POPC   C1B14599  23.925   8.954   8.564
  906POPC   C2B14600  23.967   8.911   8.264
  906POPC   C3B14601  23.913   8.965   7.964
  906POPC   C4B14602  23.974   8.941   7.664
  907POPC   NC314603  24.526  43.863   9.464
  907POPC   PO414604  24.526  43.878   9.164
  907POPC   GL114605  24.529  43.899   8.864
  907POPC   GL214606  24.548  43.826   8.864
  907POPC   C1A14607  24.463  43.843   8.564
  907POPC   D2A14608  24.526  43.839   8.264
  907POPC   C3A14609  24.443  43.840   7.964
  907POPC   C4A14610  24.452  43.881   7.664
  907POPC   C1B14611  24.665  43.687   8.564
  907POPC   C2B14612  24.629  43.689   8.264
  907POPC   C3B14613  24.640  43.718   7.964
  907POPC   C4B14614  24.654  43.712   7.664
  908POPC   NC314615  34.606  37.689   9.464
  908POPC   PO414616  34.606  37.669   9.164
  908POPC   GL114617  34.614  37.632   8.864
  908POPC   GL214618  34.594  37.505   8.864
  908POPC   C1A14619  34.562  37.653   8.564
  908POPC   D2A14620  34.568  37.654   8.264
  908POPC   C3A14621  34.535  37.642   7.964
  908POPC   C4A14622  34.527  37.677   7.664
  908POPC   C1B14623  34.571  37.447   8.564
  908POPC   C2B14624  34.632  37.475   8.264
  908POPC   C3B14625  34.580  37.459   7.964
  908POPC   C4B14626  34.548  37.386   7.664
  909POPC   NC314627   4.273  43.878   9.464
  909POPC   PO414628   4.360  43.897   9.164
  909POPC   GL114629   4.340  43.896   8.864
  909POPC   GL214630   4.411  43.785   8.864
  909POPC   C1A14631   4.323  43.905   8.564
  909POPC   D2A14632   4.345  43.921   8.264
  909POPC   C3A14633   4.323  43.841   7.964
  909POPC   C4A14634   4.279  43.933   7.664
  909POPC   C1B14635   4.389  43.655   8.564
  909POPC   C2B14636   4.456  43.651   8.264
  909POPC   C3B14637   4.425  43.669   7.964
  909POPC   C4B14638   4.399  43.703   7.664
  910POPC   NC314639  11.274  27.578   9.464
  910POPC   PO414640  11.323  27.572   9.164
  910POPC   GL114641  11.312  27.564   8.864
  910POPC   GL214642  11.323  27.436   8.864
  910POPC   C1A14643  11.330  27.596   8.564
  910POPC   D2A14644  11.330  27.629   8.264
  910POPC   C3A14645  11.260  27.618   7.964
  910POPC   C4A14646  11.295  27.584   7.664
  910POPC   C1B14647  11.379  27.364   8.564
  910POPC   C2B14648  11.405  27.312   8.264
  910POPC   C3B14649  11.338  27.318   7.964
  910POPC   C4B14650  11.336  27.349   7.664
  911POPC   NC314651  18.309  44.651   9.464
  911POPC   PO414652  18.266  44.638   9.164
  911POPC   GL114653  18.254  44.674   8.864
  911POPC   GL214654  18.336  44.812   8.864
  911POPC   C1A14655  18.304  44.613   8.564
  911POPC   D2A14656  18.276  44.682   8.264
  911POPC   C3A14657  18.235  44.674   7.964
  911POPC   C4A14658  18.234  44.636   7.664
  911POPC   C1B14659  18.370  44.905   8.564
  911POPC   C2B14660  18.303  44.866   8.264
  911POPC   C3B14661  18.349  44.940   7.964
  911POPC   C4B14662  18.348  44.933   7.664
  912POPC   NC314663  34.598  39.214   9.464
  912POPC   PO414664  34.530  39.214   9.164
  912POPC   GL114665  34.565  39.268   8.864
  912POPC   GL214666  34.559  39.363   8.864
  912POPC   C1A14667  34.601  39.185   8.564
  912POPC   D2A14668  34.562  39.218   8.264
  912POPC   C3A14669  34.624  39.213   7.964
  912POPC   C4A14670  34.534  39.205   7.664
  912POPC   C1B14671  34.588  39.483   8.564
  912POPC   C2B14672  34.526  39.483   8.264
  912POPC   C3B14673  34.596  39.503   7.964
  912POPC   C4B14674  34.513  39.503   7.664
  913POPC   NC314675  36.858  24.468   9.464
  913POPC   PO414676  36.855  24.472   9.164
  913POPC   GL114677  36.945  24.475   8.864
  913POPC   GL214678  37.026  24.534   8.864
  913POPC   C1A14679  36.884  24.487   8.564
  913POPC   D2A14680  36.949  24.506   8.264
  913POPC   C3A14681  36.921  24.539   7.964
  913POPC   C4A14682  36.890  24.504   7.664
  913POPC   C1B14683  37.116  24.582   8.564
  913POPC   C2B14684  37.183  24.581   8.264
  913POPC   C3B14685  37.091  24.617   7.964
  913POPC   C4B14686  37.139  24.629   7.664
  914POPC   NC314687  26.003  33.833   9.464
  914POPC   PO414688  26.066  33.822   9.164
  914POPC   GL114689  25.994  33.759   8.864
  914POPC   GL214690  26.189  33.850   8.864
  914POPC   C1A14691  26.055  33.754   8.564
  914POPC   D2A14692  26.070  33.782   8.264
  914POPC   C3A14693  26.056  33.808   7.964
  914POPC   C4A14694  26.087  33.782   7.664
  914POPC   C1B14695  26.232  33.951   8.564
  914POPC   C2B14696  26.269  33.911   8.264
  914POPC   C3B14697  26.257  33.922   7.964
  914POPC   C4B14698  26.288  33.970   7.664
  915POPC   NC314699  40.820   2.742   9.464
  915POPC   PO414700  40.748   2.778   9.164
  915POPC   GL114701  40.762   2.773   8.864
  915POPC   GL214702  40.849   2.829   8.864
  915POPC   C1A14703  40.788   2.815   8.564
  915POPC   D2A14704  40.761   2.811   8.264
  915POPC   C3A14705  40.772   2.762   7.964
  915POPC   C4A14706  40.813   2.771   7.664
  915POPC   C1B14707  40.981   2.914   8.564
  915POPC   C2B14708  40.946   2.937   8.264
  915POPC   C3B14709  40.945   2.957   7.964
  915POPC   C4B14710  41.005   2.929   7.664
  916POPC   NC314711  12.878  39.250   9.464
  916POPC   PO414712  12.813  39.227   9.164
  916POPC   GL114713  12.819  39.198   8.864
  916POPC   GL214714  12.948  39.324   8.864
  916POPC   C1A14715  12.890  39.247   8.564
  916POPC   D2A14716  12.883  39.224   8.264
  916POPC   C3A14717  12.826  39.245   7.964
  916POPC   C4A14718  12.852  39.278   7.664
  916POPC   C1B14719  13.124  39.327   8.564
  916POPC   C2B14720  13.062  39.377   8.264
  916POPC   C3B14721  13.038  39.336   7.964
  916POPC   C4B14722  13.063  39.360   7.664
  917POPC   NC314723   6.626  18.304   9.464
  917POPC   PO414724   6.608  18.246   9.164
  917POPC   GL114725   6.639  18.253   8.864
  917POPC   GL214726   6.604  18.135   8.864
  917POPC   C1A14727   6.692  18.284   8.564
  917POPC   D2A14728   6.613  18.316   8.264
  917POPC   C3A14729   6.617  18.293   7.964
  917POPC   C4A14730   6.618  18.278   7.664
  917POPC   C1B14731   6.663  18.024   8.564
  917POPC   C2B14732   6.639  18.013   8.264
  917POPC   C3B14733   6.632  18.032   7.964
  917POPC   C4B14734   6.661  17.999   7.664
  918POPC   NC314735  26.778  41.579   9.464
  918POPC   PO414736  26.774  41.560   9.164
  918POPC   GL114737  26.814  41.559   8.864
  918POPC   GL214738  26.698  41.471   8.864
  918POPC   C1A14739  26.850  41.526   8.564
  918POPC   D2A14740  26.768  41.537   8.264
  918POPC   C3A14741  26.849  41.529   7.964
  918POPC   C4A14742  26.856  41.522   7.664
  918POPC   C1B14743  26.567  41.393   8.564
  918POPC   C2B14744  26.612  41.400   8.264
  918POPC   C3B14745  26.626  41.410   7.964
  918POPC   C4B14746  26.595  41.380   7.664
  919POPC   NC314747   5.070  39.253   9.464
  919POPC   PO414748   5.047  39.254   9.164
  919POPC   GL114749   5.133  39.198   8.864
  919POPC   GL214750   5.087  39.087   8.864
  919POPC   C1A14751   5.087  39.193   8.564
  919POPC   D2A14752   5.118  39.254   8.264
  919POPC   C3A14753   5.077  39.267   7.964
  919POPC   C4A14754   5.118  39.251   7.664
  919POPC   C1B14755   5.080  38.951   8.564
  919POPC   C2B14756   5.049  38.937   8.264
  919POPC   C3B14757   5.122  39.002   7.964
  919POPC   C4B14758   5.102  38.992   7.664
  920POPC   NC314759  39.187  11.331   9.464
  920POPC   PO414760  39.239  11.286   9.164
  920POPC   GL114761  39.230  11.331   8.864
  920POPC   GL214762  39.122  11.287   8.864
  920POPC   C1A14763  39.196  11.289   8.564
  920POPC   D2A14764  39.215  11.282   8.264
  920POPC   C3A14765  39.254  11.315   7.964
  920POPC   C4A14766  39.256  11.284   7.664
  920POPC   C1B14767  39.015  11.259   8.564
  920POPC   C2B14768  39.012  11.192   8.264
  920POPC   C3B14769  39.021  11.198   7.964
  920POPC   C4B14770  38.995  11.259   7.664
  921POPC   NC314771  17.557  40.769   9.464
  921POPC   PO414772  17.481  40.819   9.164
  921POPC   GL114773  17.475  40.826   8.864
  921POPC   GL214774  17.602  40.935   8.864
  921POPC   C1A14775  17.469  40.821   8.564
  921POPC   D2A14776  17.544  40.755   8.264
  921POPC   C3A14777  17.496  40.806   7.964
  921POPC   C4A14778  17.463  40.738   7.664
  921POPC   C1B14779  17.634  40.987   8.564
  921POPC   C2B14780  17.650  41.007   8.264
  921POPC   C3B14781  17.618  41.041   7.964
  921POPC   C4B14782  17.629  40.967   7.664
  922POPC   NC314783  24.489  43.110   9.464
  922POPC   PO414784  24.488  43.133   9.164
  922POPC   GL114785  24.460  43.137   8.864
  922POPC   GL214786  24.657  43.176   8.864
  922POPC   C1A14787  24.490  43.105   8.564
  922POPC   D2A14788  24.445  43.076   8.264
  922POPC   C3A14789  24.487  43.159   7.964
  922POPC   C4A14790  24.513  43.078   7.664
  922POPC   C1B14791  24.767  43.123   8.564
  922POPC   C2B14792  24.741  43.140   8.264
  922POPC   C3B14793  24.688  43.132   7.964
  922POPC   C4B14794  24.735  43.183   7.664
  923POPC   NC314795   1.171  29.887   9.464
  923POPC   PO414796   1.170  29.872   9.164
  923POPC   GL114797   1.165  29.933   8.864
  923POPC   GL214798   1.264  29.810   8.864
  923POPC   C1A14799   1.172  29.945   8.564
  923POPC   D2A14800   1.202  29.965   8.264
  923POPC   C3A14801   1.195  29.943   7.964
  923POPC   C4A14802   1.235  29.878   7.664
  923POPC   C1B14803   1.377  29.725   8.564
  923POPC   C2B14804   1.379  29.756   8.264
  923POPC   C3B14805   1.389  29.797   7.964
  923POPC   C4B14806   1.435  29.726   7.664
  924POPC   NC314807  13.597  39.258   9.464
  924POPC   PO414808  13.584  39.267   9.164
  924POPC   GL114809  13.609  39.219   8.864
  924POPC   GL214810  13.730  39.277   8.864
  924POPC   C1A14811  13.618  39.231   8.564
  924POPC   D2A14812  13.588  39.251   8.264
  924POPC   C3A14813  13.611  39.229   7.964
  924POPC   C4A14814  13.580  39.265   7.664
  924POPC   C1B14815  13.815  39.399   8.564
  924POPC   C2B14816  13.783  39.416   8.264
  924POPC   C3B14817  13.775  39.376   7.964
  924POPC   C4B14818  13.773  39.387   7.664
  925POPC   NC314819   2.756  16.770   9.464
  925POPC   PO414820   2.727  16.695   9.164
  925POPC   GL114821   2.750  16.739   8.864
  925POPC   GL214822   2.657  16.641   8.864
  925POPC   C1A14823   2.773  16.754   8.564
  925POPC   D2A14824   2.737  16.685   8.264
  925POPC   C3A14825   2.719  16.735   7.964
  925POPC   C4A14826   2.763  16.728   7.664
  925POPC   C1B14827   2.653  16.509   8.564
  925POPC   C2B14828   2.658  16.521   8.264
  925POPC   C3B14829   2.583  16.572   7.964
  925POPC   C4B14830   2.613  16.549   7.664
  926POPC   NC314831  34.578  44.676   9.464
  926POPC   PO414832  34.562  44.627   9.164
  926POPC   GL114833  34.563  44.697   8.864
  926POPC   GL214834  34.476  44.762   8.864
  926POPC   C1A14835  34.592  44.621   8.564
  926POPC   D2A14836  34.607  44.683   8.264
  926POPC   C3A14837  34.550  44.636   7.964
  926POPC   C4A14838  34.604  44.651   7.664
  926POPC   C1B14839  34.316  44.722   8.564
  926POPC   C2B14840  34.393  44.738   8.264
  926POPC   C3B14841  34.344  44.752   7.964
  926POPC   C4B14842  34.309  44.751   7.664
  927POPC   NC314843  36.887  44.683   9.464
  927POPC   PO414844  36.926  44.643   9.164
  927POPC   GL114845  36.934  44.659   8.864
  927POPC   GL214846  36.968  44.609   8.864
  927POPC   C1A14847  36.901  44.688   8.564
  927POPC   D2A14848  36.885  44.702   8.264
  927POPC   C3A14849  36.887  44.633   7.964
  927POPC   C4A14850  36.919  44.693   7.664
  927POPC   C1B14851  37.071  44.496   8.564
  927POPC   C2B14852  37.153  44.517   8.264
  927POPC   C3B14853  37.116  44.502   7.964
  927POPC   C4B14854  37.119  44.506   7.664
  928POPC   NC314855   1.230  43.089   9.464
  928POPC   PO414856   1.175  43.159   9.164
  928POPC   GL114857   1.183  43.064   8.864
  928POPC   GL214858   1.360  43.211   8.864
  928POPC   C1A14859   1.245  43.070   8.564
  928POPC   D2A14860   1.176  43.079   8.264
  928POPC   C3A14861   1.177  43.123   7.964
  928POPC   C4A14862   1.199  43.062   7.664
  928POPC   C1B14863   1.391  43.257   8.564
  928POPC   C2B14864   1.396  43.259   8.264
  928POPC   C3B14865   1.466  43.245   7.964
  928POPC   C4B14866   1.404  43.284   7.664
  929POPC   NC314867  30.723  44.635   9.464
  929POPC   PO414868  30.693  44.674   9.164
  929POPC   GL114869  30.686  44.643   8.864
  929POPC   GL214870  30.732  44.489   8.864
  929POPC   C1A14871  30.661  44.685   8.564
  929POPC   D2A14872  30.660  44.617   8.264
  929POPC   C3A14873  30.737  44.675   7.964
  929POPC   C4A14874  30.669  44.626   7.664
  929POPC   C1B14875  30.660  44.404   8.564
  929POPC   C2B14876  30.702  44.446   8.264
  929POPC   C3B14877  30.708  44.454   7.964
  929POPC   C4B14878  30.756  44.404   7.664
  930POPC   NC314879  27.590  13.622   9.464
  930POPC   PO414880  27.609  13.676   9.164
  930POPC   GL114881  27.580  13.655   8.864
  930POPC   GL214882  27.707  13.507   8.864
  930POPC   C1A14883  27.593  13.615   8.564
  930POPC   D2A14884  27.627  13.641   8.264
  930POPC   C3A14885  27.594  13.673   7.964
  930POPC   C4A14886  27.627  13.597   7.664
  930POPC   C1B14887  27.727  13.396   8.564
  930POPC   C2B14888  27.773  13.463   8.264
  930POPC   C3B14889  27.762  13.459   7.964
  930POPC   C4B14890  27.773  13.403   7.664
  931POPC   NC314891  38.415  14.369   9.464
  931POPC   PO414892  38.443  14.439   9.164
  931POPC   GL114893  38.449  14.354   8.864
  931POPC   GL214894  38.595  14.454   8.864
  931POPC   C1A14895  38.435  14.407   8.564
  931POPC   D2A14896  38.461  14.432   8.264
  931POPC   C3A14897  38.500  14.415   7.964
  931POPC   C4A14898  38.487  14.392   7.664
  931POPC   C1B14899  38.713  14.463   8.564
  931POPC   C2B14900  38.658  14.465   8.264
  931POPC   C3B14901  38.747  14.483   7.964
  931POPC   C4B14902  38.690  14.421   7.664
  932POPC   NC314903  11.285  17.467   9.464
  932POPC   PO414904  11.349  17.544   9.164
  932POPC   GL114905  11.252  17.543   8.864
  932POPC   GL214906  11.346  17.388   8.864
  932POPC   C1A14907  11.273  17.515   8.564
  932POPC   D2A14908  11.278  17.543   8.264
  932POPC   C3A14909  11.299  17.494   7.964
  932POPC   C4A14910  11.349  17.528   7.664
  932POPC   C1B14911  11.422  17.281   8.564
  932POPC   C2B14912  11.436  17.344   8.264
  932POPC   C3B14913  11.450  17.365   7.964
  932POPC   C4B14914  11.456  17.359   7.664
  933POPC   NC314915  25.233   5.826   9.464
  933POPC   PO414916  25.242   5.898   9.164
  933POPC   GL114917  25.302   5.852   8.864
  933POPC   GL214918  25.118   5.848   8.864
  933POPC   C1A14919  25.266   5.875   8.564
  933POPC   D2A14920  25.254   5.907   8.264
  933POPC   C3A14921  25.258   5.896   7.964
  933POPC   C4A14922  25.216   5.834   7.664
  933POPC   C1B14923  25.002   5.830   8.564
  933POPC   C2B14924  25.022   5.810   8.264
  933POPC   C3B14925  25.044   5.840   7.964
  933POPC   C4B14926  25.005   5.795   7.664
  934POPC   NC314927  17.513  36.097   9.464
  934POPC   PO414928  17.550  36.118   9.164
  934POPC   GL114929  17.541  36.092   8.864
  934POPC   GL214930  17.390  36.226   8.864
  934POPC   C1A14931  17.537  36.167   8.564
  934POPC   D2A14932  17.518  36.107   8.264
  934POPC   C3A14933  17.513  36.109   7.964
  934POPC   C4A14934  17.484  36.104   7.664
  934POPC   C1B14935  17.327  36.312   8.564
  934POPC   C2B14936  17.342  36.225   8.264
  934POPC   C3B14937  17.332  36.222   7.964
  934POPC   C4B14938  17.309  36.240   7.664
  935POPC   NC314939  35.394  14.413   9.464
  935POPC   PO414940  35.358  14.412   9.164
  935POPC   GL114941  35.306  14.433   8.864
  935POPC   GL214942  35.501  14.444   8.864
  935POPC   C1A14943  35.335  14.354   8.564
  935POPC   D2A14944  35.334  14.377   8.264
  935POPC   C3A14945  35.324  14.428   7.964
  935POPC   C4A14946  35.354  14.443   7.664
  935POPC   C1B14947  35.612  14.423   8.564
  935POPC   C2B14948  35.645  14.378   8.264
  935POPC   C3B14949  35.605  14.468   7.964
  935POPC   C4B14950  35.621  14.428   7.664
  936POPC   NC314951  36.176  17.530   9.464
  936POPC   PO414952  36.113  17.482   9.164
  936POPC   GL114953  36.152  17.538   8.864
  936POPC   GL214954  35.982  17.434   8.864
  936POPC   C1A14955  36.079  17.514   8.564
  936POPC   D2A14956  36.080  17.506   8.264
  936POPC   C3A14957  36.103  17.470   7.964
  936POPC   C4A14958  36.091  17.546   7.664
  936POPC   C1B14959  35.887  17.424   8.564
  936POPC   C2B14960  35.906  17.353   8.264
  936POPC   C3B14961  35.910  17.398   7.964
  936POPC   C4B14962  35.900  17.388   7.664
  937POPC   NC314963  26.791  29.151   9.464
  937POPC   PO414964  26.793  29.157   9.164
  937POPC   GL114965  26.828  29.121   8.864
  937POPC   GL214966  26.920  29.135   8.864
  937POPC   C1A14967  26.780  29.140   8.564
  937POPC   D2A14968  26.779  29.151   8.264
  937POPC   C3A14969  26.785  29.105   7.964
  937POPC   C4A14970  26.838  29.179   7.664
  937POPC   C1B14971  27.047  29.139   8.564
  937POPC   C2B14972  27.030  29.139   8.264
  937POPC   C3B14973  27.094  29.199   7.964
  937POPC   C4B14974  27.079  29.225   7.664
  938POPC   NC314975  21.388  21.361   9.464
  938POPC   PO414976  21.341  21.345   9.164
  938POPC   GL114977  21.424  21.413   8.864
  938POPC   GL214978  21.380  21.486   8.864
  938POPC   C1A14979  21.364  21.356   8.564
  938POPC   D2A14980  21.418  21.376   8.264
  938POPC   C3A14981  21.341  21.414   7.964
  938POPC   C4A14982  21.430  21.399   7.664
  938POPC   C1B14983  21.457  21.647   8.564
  938POPC   C2B14984  21.444  21.633   8.264
  938POPC   C3B14985  21.473  21.574   7.964
  938POPC   C4B14986  21.476  21.632   7.664
  939POPC   NC314987  37.637   6.668   9.464
  939POPC   PO414988  37.684   6.653   9.164
  939POPC   GL114989  37.701   6.673   8.864
  939POPC   GL214990  37.797   6.735   8.864
  939POPC   C1A14991  37.727   6.641   8.564
  939POPC   D2A14992  37.706   6.641   8.264
  939POPC   C3A14993  37.649   6.636   7.964
  939POPC   C4A14994  37.637   6.621   7.664
  939POPC   C1B14995  37.823   6.804   8.564
  939POPC   C2B14996  37.864   6.826   8.264
  939POPC   C3B14997  37.829   6.773   7.964
  939POPC   C4B14998  37.823   6.815   7.664
  940POPC   NC314999  40.816   3.531   9.464
  940POPC   PO415000  40.743   3.542   9.164
  940POPC   GL115001  40.760   3.500   8.864
  940POPC   GL215002  40.814   3.372   8.864
  940POPC   C1A15003  40.805   3.521   8.564
  940POPC   D2A15004  40.832   3.544   8.264
  940POPC   C3A15005  40.776   3.510   7.964
  940POPC   C4A15006  40.794   3.578   7.664
  940POPC   C1B15007  40.778   3.304   8.564
  940POPC   C2B15008  40.803   3.319   8.264
  940POPC   C3B15009  40.831   3.288   7.964
  940POPC   C4B15010  40.841   3.286   7.664
  941POPC   NC315011   7.457  43.867   9.464
  941POPC   PO415012   7.383  43.877   9.164
  941POPC   GL115013   7.467  43.843   8.864
  941POPC   GL215014   7.499  43.990   8.864
  941POPC   C1A15015   7.438  43.919   8.564
  941POPC   D2A15016   7.453  43.894   8.264
  941POPC   C3A15017   7.416  43.880   7.964
  941POPC   C4A15018   7.428  43.896   7.664
  941POPC   C1B15019   7.574  44.155   8.564
  941POPC   C2B15020   7.513  44.066   8.264
  941POPC   C3B15021   7.567  44.087   7.964
  941POPC   C4B15022   7.497  44.152   7.664
  942POPC   NC315023  29.152  12.123   9.464
  942POPC   PO415024  29.134  12.032   9.164
  942POPC   GL115025  29.143  12.062   8.864
  942POPC   GL215026  29.064  11.917   8.864
  942POPC   C1A15027  29.136  12.094   8.564
  942POPC   D2A15028  29.183  12.039   8.264
  942POPC   C3A15029  29.144  12.085   7.964
  942POPC   C4A15030  29.185  12.106   7.664
  942POPC   C1B15031  29.105  11.850   8.564
  942POPC   C2B15032  29.105  11.837   8.264
  942POPC   C3B15033  29.057  11.829   7.964
  942POPC   C4B15034  29.022  11.821   7.664
  943POPC   NC315035  10.541  18.266   9.464
  943POPC   PO415036  10.483  18.321   9.164
  943POPC   GL115037  10.532  18.241   8.864
  943POPC   GL215038  10.448  18.348   8.864
  943POPC   C1A15039  10.523  18.321   8.564
  943POPC   D2A15040  10.528  18.242   8.264
  943POPC   C3A15041  10.550  18.276   7.964
  943POPC   C4A15042  10.508  18.259   7.664
  943POPC   C1B15043  10.332  18.517   8.564
  943POPC   C2B15044  10.355  18.522   8.264
  943POPC   C3B15045  10.378  18.523   7.964
  943POPC   C4B15046  10.415  18.503   7.664
  944POPC   NC315047  12.871  16.694   9.464
  944POPC   PO415048  12.830  16.693   9.164
  944POPC   GL115049  12.871  16.750   8.864
  944POPC   GL215050  12.982  16.833   8.864
  944POPC   C1A15051  12.838  16.766   8.564
  944POPC   D2A15052  12.847  16.776   8.264
  944POPC   C3A15053  12.833  16.748   7.964
  944POPC   C4A15054  12.874  16.698   7.664
  944POPC   C1B15055  13.042  16.903   8.564
  944POPC   C2B15056  13.051  16.944   8.264
  944POPC   C3B15057  13.030  16.936   7.964
  944POPC   C4B15058  13.073  16.945   7.664
  945POPC   NC315059  38.460   0.463   9.464
  945POPC   PO415060  38.461   0.480   9.164
  945POPC   GL115061  38.425   0.472   8.864
  945POPC   GL215062  38.301   0.443   8.864
  945POPC   C1A15063  38.489   0.397   8.564
  945POPC   D2A15064  38.443   0.475   8.264
  945POPC   C3A15065  38.479   0.457   7.964
  945POPC   C4A15066  38.472   0.451   7.664
  945POPC   C1B15067  38.218   0.427   8.564
  945POPC   C2B15068  38.164   0.423   8.264
  945POPC   C3B15069  38.167   0.408   7.964
  945POPC   C4B15070  38.214   0.412   7.664
  946POPC   NC315071   6.619  16.700   9.464
  946POPC   PO415072   6.608  16.744   9.164
  946POPC   GL115073   6.644  16.691   8.864
  946POPC   GL215074   6.540  16.864   8.864
  946POPC   C1A15075   6.672  16.707   8.564
  946POPC   D2A15076   6.598  16.741   8.264
  946POPC   C3A15077   6.636  16.717   7.964
  946POPC   C4A15078   6.640  16.735   7.664
  946POPC   C1B15079   6.474  16.904   8.564
  946POPC   C2B15080   6.473  16.884   8.264
  946POPC   C3B15081   6.508  16.904   7.964
  946POPC   C4B15082   6.519  16.908   7.664
  947POPC   NC315083  36.894   5.868   9.464
  947POPC   PO415084  36.863   5.896   9.164
  947POPC   GL115085  36.860   5.868   8.864
  947POPC   GL215086  36.805   5.878   8.864
  947POPC   C1A15087  36.893   5.824   8.564
  947POPC   D2A15088  36.942   5.841   8.264
  947POPC   C3A15089  36.865   5.822   7.964
  947POPC   C4A15090  36.922   5.908   7.664
  947POPC   C1B15091  36.696   5.852   8.564
  947POPC   C2B15092  36.649   5.829   8.264
  947POPC   C3B15093  36.605   5.863   7.964
  947POPC   C4B15094  36.683   5.803   7.664
  948POPC   NC315095   8.217  33.026   9.464
  948POPC   PO415096   8.152  32.986   9.164
  948POPC   GL115097   8.154  33.023   8.864
  948POPC   GL215098   8.164  32.884   8.864
  948POPC   C1A15099   8.215  32.983   8.564
  948POPC   D2A15100   8.234  33.038   8.264
  948POPC   C3A15101   8.218  33.011   7.964
  948POPC   C4A15102   8.177  33.053   7.664
  948POPC   C1B15103   8.230  32.819   8.564
  948POPC   C2B15104   8.194  32.791   8.264
  948POPC   C3B15105   8.210  32.773   7.964
  948POPC   C4B15106   8.225  32.803   7.664
  949POPC   NC315107  22.169  36.120   9.464
  949POPC   PO415108  22.135  36.104   9.164
  949POPC   GL115109  22.167  36.163   8.864
  949POPC   GL215110  22.277  36.006   8.864
  949POPC   C1A15111  22.184  36.146   8.564
  949POPC   D2A15112  22.166  36.144   8.264
  949POPC   C3A15113  22.196  36.095   7.964
  949POPC   C4A15114  22.157  36.116   7.664
  949POPC   C1B15115  22.311  35.944   8.564
  949POPC   C2B15116  22.338  35.997   8.264
  949POPC   C3B15117  22.305  35.982   7.964
  949POPC   C4B15118  22.351  35.989   7.664
  950POPC   NC315119  43.063  15.217   9.464
  950POPC   PO415120  43.107  15.139   9.164
  950POPC   GL115121  43.101  15.130   8.864
  950POPC   GL215122  43.252  15.241   8.864
  950POPC   C1A15123  43.086  15.135   8.564
  950POPC   D2A15124  43.086  15.216   8.264
  950POPC   C3A15125  43.114  15.228   7.964
  950POPC   C4A15126  43.067  15.135   7.664
  950POPC   C1B15127  43.322  15.283   8.564
  950POPC   C2B15128  43.303  15.234   8.264
  950POPC   C3B15129  43.356  15.296   7.964
  950POPC   C4B15130  43.369  15.230   7.664
  951POPC   NC315131  35.395  30.672   9.464
  951POPC   PO415132  35.394  30.728   9.164
  951POPC   GL115133  35.324  30.726   8.864
  951POPC   GL215134  35.365  30.809   8.864
  951POPC   C1A15135  35.321  30.686   8.564
  951POPC   D2A15136  35.323  30.652   8.264
  951POPC   C3A15137  35.352  30.698   7.964
  951POPC   C4A15138  35.329  30.667   7.664
  951POPC   C1B15139  35.462  30.891   8.564
  951POPC   C2B15140  35.407  30.909   8.264
  951POPC   C3B15141  35.422  30.960   7.964
  951POPC   C4B15142  35.411  30.896   7.664
  952POPC   NC315143  29.893  11.275   9.464
  952POPC   PO415144  29.933  11.292   9.164
  952POPC   GL115145  29.930  11.313   8.864
  952POPC   GL215146  30.013  11.375   8.864
  952POPC   C1A15147  29.924  11.345   8.564
  952POPC   D2A15148  29.890  11.280   8.264
  952POPC   C3A15149  29.930  11.339   7.964
  952POPC   C4A15150  29.962  11.289   7.664
  952POPC   C1B15151  30.074  11.485   8.564
  952POPC   C2B15152  30.096  11.489   8.264
  952POPC   C3B15153  30.109  11.453   7.964
  952POPC   C4B15154  30.085  11.443   7.664
  953POPC   NC315155  41.530  10.562   9.464
  953POPC   PO415156  41.596  10.517   9.164
  953POPC   GL115157  41.527  10.515   8.864
  953POPC   GL215158  41.489  10.647   8.864
  953POPC   C1A15159  41.551  10.545   8.564
  953POPC   D2A15160  41.551  10.566   8.264
  953POPC   C3A15161  41.511  10.518   7.964
  953POPC   C4A15162  41.604  10.562   7.664
  953POPC   C1B15163  41.418  10.724   8.564
  953POPC   C2B15164  41.458  10.749   8.264
  953POPC   C3B15165  41.503  10.749   7.964
  953POPC   C4B15166  41.484  10.762   7.664
  954POPC   NC315167  26.834  29.971   9.464
  954POPC   PO415168  26.865  29.908   9.164
  954POPC   GL115169  26.810  29.878   8.864
  954POPC   GL215170  26.767  29.855   8.864
  954POPC   C1A15171  26.781  29.913   8.564
  954POPC   D2A15172  26.798  29.907   8.264
  954POPC   C3A15173  26.771  29.887   7.964
  954POPC   C4A15174  26.810  29.915   7.664
  954POPC   C1B15175  26.647  29.773   8.564
  954POPC   C2B15176  26.618  29.771   8.264
  954POPC   C3B15177  26.689  29.692   7.964
  954POPC   C4B15178  26.687  29.691   7.664
  955POPC   NC315179  15.998  15.229   9.464
  955POPC   PO415180  15.915  15.149   9.164
  955POPC   GL115181  15.933  15.216   8.864
  955POPC   GL215182  16.092  15.072   8.864
  955POPC   C1A15183  15.925  15.203   8.564
  955POPC   D2A15184  15.909  15.153   8.264
  955POPC   C3A15185  15.957  15.224   7.964
  955POPC   C4A15186  15.946  15.174   7.664
  955POPC   C1B15187  16.167  15.040   8.564
  955POPC   C2B15188  16.165  14.997   8.264
  955POPC   C3B15189  16.102  15.009   7.964
  955POPC   C4B15190  16.108  14.989   7.664
  956POPC   NC315191  22.966  44.669   9.464
  956POPC   PO415192  22.973  44.643   9.164
  956POPC   GL115193  22.974  44.700   8.864
  956POPC   GL215194  23.083  44.675   8.864
  956POPC   C1A15195  22.979  44.653   8.564
  956POPC   D2A15196  22.972  44.628   8.264
  956POPC   C3A15197  22.905  44.629   7.964
  956POPC   C4A15198  22.929  44.641   7.664
  956POPC   C1B15199  23.160  44.783   8.564
  956POPC   C2B15200  23.117  44.765   8.264
  956POPC   C3B15201  23.125  44.816   7.964
  956POPC   C4B15202  23.178  44.756   7.664
  957POPC   NC315203  15.198  14.429   9.464
  957POPC   PO415204  15.211  14.431   9.164
  957POPC   GL115205  15.164  14.420   8.864
  957POPC   GL215206  15.180  14.563   8.864
  957POPC   C1A15207  15.146  14.407   8.564
  957POPC   D2A15208  15.171  14.359   8.264
  957POPC   C3A15209  15.134  14.433   7.964
  957POPC   C4A15210  15.169  14.430   7.664
  957POPC   C1B15211  15.145  14.696   8.564
  957POPC   C2B15212  15.228  14.657   8.264
  957POPC   C3B15213  15.179  14.690   7.964
  957POPC   C4B15214  15.224  14.657   7.664
  958POPC   NC315215  32.995  15.975   9.464
  958POPC   PO415216  33.049  15.954   9.164
  958POPC   GL115217  32.992  15.917   8.864
  958POPC   GL215218  32.862  15.930   8.864
  958POPC   C1A15219  33.067  15.989   8.564
  958POPC   D2A15220  32.980  15.942   8.264
  958POPC   C3A15221  33.011  15.978   7.964
  958POPC   C4A15222  33.026  16.001   7.664
  958POPC   C1B15223  32.761  16.019   8.564
  958POPC   C2B15224  32.737  15.991   8.264
  958POPC   C3B15225  32.731  15.967   7.964
  958POPC   C4B15226  32.812  15.994   7.664
  959POPC   NC315227   3.584  13.584   9.464
  959POPC   PO415228   3.519  13.672   9.164
  959POPC   GL115229   3.564  13.661   8.864
  959POPC   GL215230   3.422  13.670   8.864
  959POPC   C1A15231   3.555  13.672   8.564
  959POPC   D2A15232   3.586  13.647   8.264
  959POPC   C3A15233   3.559  13.588   7.964
  959POPC   C4A15234   3.583  13.628   7.664
  959POPC   C1B15235   3.310  13.731   8.564
  959POPC   C2B15236   3.284  13.674   8.264
  959POPC   C3B15237   3.329  13.712   7.964
  959POPC   C4B15238   3.274  13.749   7.664
  960POPC   NC315239  15.992  19.096   9.464
  960POPC   PO415240  15.998  19.055   9.164
  960POPC   GL115241  15.939  19.097   8.864
  960POPC   GL215242  15.983  18.917   8.864
  960POPC   C1A15243  15.906  19.076   8.564
  960POPC   D2A15244  15.962  19.070   8.264
  960POPC   C3A15245  15.997  19.070   7.964
  960POPC   C4A15246  15.927  19.010   7.664
  960POPC   C1B15247  15.999  18.817   8.564
  960POPC   C2B15248  15.953  18.815   8.264
  960POPC   C3B15249  15.951  18.819   7.964
  960POPC   C4B15250  15.934  18.835   7.664
  961POPC   NC315251  12.063   8.194   9.464
  961POPC   PO415252  12.105   8.163   9.164
  961POPC   GL115253  12.056   8.220   8.864
  961POPC   GL215254  12.157   8.326   8.864
  961POPC   C1A15255  12.049   8.225   8.564
  961POPC   D2A15256  12.111   8.178   8.264
  961POPC   C3A15257  12.038   8.236   7.964
  961POPC   C4A15258  12.078   8.206   7.664
  961POPC   C1B15259  12.199   8.399   8.564
  961POPC   C2B15260  12.238   8.351   8.264
  961POPC   C3B15261  12.230   8.423   7.964
  961POPC   C4B15262  12.287   8.377   7.664
  962POPC   NC315263   9.723  22.187   9.464
  962POPC   PO415264   9.747  22.157   9.164
  962POPC   GL115265   9.708  22.160   8.864
  962POPC   GL215266   9.803  22.090   8.864
  962POPC   C1A15267   9.736  22.204   8.564
  962POPC   D2A15268   9.709  22.190   8.264
  962POPC   C3A15269   9.729  22.171   7.964
  962POPC   C4A15270   9.779  22.211   7.664
  962POPC   C1B15271   9.894  21.971   8.564
  962POPC   C2B15272   9.968  21.956   8.264
  962POPC   C3B15273   9.914  22.023   7.964
  962POPC   C4B15274   9.876  21.956   7.664
  963POPC   NC315275  18.321  16.724   9.464
  963POPC   PO415276  18.331  16.778   9.164
  963POPC   GL115277  18.281  16.777   8.864
  963POPC   GL215278  18.382  16.853   8.864
  963POPC   C1A15279  18.295  16.772   8.564
  963POPC   D2A15280  18.283  16.728   8.264
  963POPC   C3A15281  18.319  16.742   7.964
  963POPC   C4A15282  18.331  16.779   7.664
  963POPC   C1B15283  18.467  16.942   8.564
  963POPC   C2B15284  18.435  16.858   8.264
  963POPC   C3B15285  18.442  16.900   7.964
  963POPC   C4B15286  18.456  16.866   7.664
  964POPC   NC315287   5.916  12.806   9.464
  964POPC   PO415288   5.837  12.813   9.164
  964POPC   GL115289   5.826  12.887   8.864
  964POPC   GL215290   5.989  12.903   8.864
  964POPC   C1A15291   5.820  12.825   8.564
  964POPC   D2A15292   5.916  12.860   8.264
  964POPC   C3A15293   5.890  12.890   7.964
  964POPC   C4A15294   5.909  12.828   7.664
  964POPC   C1B15295   6.074  12.860   8.564
  964POPC   C2B15296   6.084  12.870   8.264
  964POPC   C3B15297   6.069  12.887   7.964
  964POPC   C4B15298   6.117  12.856   7.664
  965POPC   NC315299  17.543  14.374   9.464
  965POPC   PO415300  17.513  14.446   9.164
  965POPC   GL115301  17.534  14.401   8.864
  965POPC   GL215302  17.514  14.529   8.864
  965POPC   C1A15303  17.472  14.404   8.564
  965POPC   D2A15304  17.531  14.435   8.264
  965POPC   C3A15305  17.496  14.383   7.964
  965POPC   C4A15306  17.460  14.423   7.664
  965POPC   C1B15307  17.598  14.693   8.564
  965POPC   C2B15308  17.522  14.667   8.264
  965POPC   C3B15309  17.579  14.640   7.964
  965POPC   C4B15310  17.561  14.692   7.664
  966POPC   NC315311  15.167  26.805   9.464
  966POPC   PO415312  15.157  26.856   9.164
  966POPC   GL115313  15.226  26.860   8.864
  966POPC   GL215314  15.220  26.957   8.864
  966POPC   C1A15315  15.178  26.781   8.564
  966POPC   D2A15316  15.136  26.780   8.264
  966POPC   C3A15317  15.198  26.801   7.964
  966POPC   C4A15318  15.151  26.833   7.664
  966POPC   C1B15319  15.302  26.999   8.564
  966POPC   C2B15320  15.333  27.044   8.264
  966POPC   C3B15321  15.286  27.070   7.964
  966POPC   C4B15322  15.325  27.077   7.664
  967POPC   NC315323  21.376   4.329   9.464
  967POPC   PO415324  21.361   4.318   9.164
  967POPC   GL115325  21.412   4.274   8.864
  967POPC   GL215326  21.314   4.154   8.864
  967POPC   C1A15327  21.412   4.347   8.564
  967POPC   D2A15328  21.346   4.344   8.264
  967POPC   C3A15329  21.395   4.356   7.964
  967POPC   C4A15330  21.426   4.297   7.664
  967POPC   C1B15331  21.310   4.104   8.564
  967POPC   C2B15332  21.309   4.045   8.264
  967POPC   C3B15333  21.365   4.029   7.964
  967POPC   C4B15334  21.352   4.031   7.664
  968POPC   NC315335  44.614   3.583   9.464
  968POPC   PO415336  44.662   3.500   9.164
  968POPC   GL115337  44.677   3.491   8.864
  968POPC   GL215338  44.736   3.635   8.864
  968POPC   C1A15339  44.673   3.507   8.564
  968POPC   D2A15340  44.673   3.559   8.264
  968POPC   C3A15341  44.633   3.558   7.964
  968POPC   C4A15342  44.678   3.553   7.664
  968POPC   C1B15343  44.898   3.660   8.564
  968POPC   C2B15344  44.876   3.688   8.264
  968POPC   C3B15345  44.885   3.685   7.964
  968POPC   C4B15346  44.861   3.687   7.664
  969POPC   NC315347  36.889  21.379   9.464
  969POPC   PO415348  36.900  21.337   9.164
  969POPC   GL115349  36.879  21.413   8.864
  969POPC   GL215350  36.881  21.493   8.864
  969POPC   C1A15351  36.898  21.344   8.564
  969POPC   D2A15352  36.867  21.399   8.264
  969POPC   C3A15353  36.864  21.385   7.964
  969POPC   C4A15354  36.900  21.422   7.664
  969POPC   C1B15355  36.859  21.651   8.564
  969POPC   C2B15356  36.837  21.595   8.264
  969POPC   C3B15357  36.882  21.594   7.964
  969POPC   C4B15358  36.888  21.601   7.664
  970POPC   NC315359  26.796  32.209   9.464
  970POPC   PO415360  26.835  32.256   9.164
  970POPC   GL115361  26.864  32.217   8.864
  970POPC   GL215362  26.873  32.089   8.864
  970POPC   C1A15363  26.862  32.232   8.564
  970POPC   D2A15364  26.770  32.227   8.264
  970POPC   C3A15365  26.818  32.242   7.964
  970POPC   C4A15366  26.812  32.292   7.664
  970POPC   C1B15367  26.952  31.990   8.564
  970POPC   C2B15368  26.980  32.070   8.264
  970POPC   C3B15369  26.955  32.016   7.964
  970POPC   C4B15370  26.932  32.071   7.664
  971POPC   NC315371  13.597  37.683   9.464
  971POPC   PO415372  13.627  37.693   9.164
  971POPC   GL115373  13.639  37.636   8.864
  971POPC   GL215374  13.647  37.552   8.864
  971POPC   C1A15375  13.623  37.660   8.564
  971POPC   D2A15376  13.645  37.720   8.264
  971POPC   C3A15377  13.658  37.707   7.964
  971POPC   C4A15378  13.628  37.710   7.664
  971POPC   C1B15379  13.641  37.429   8.564
  971POPC   C2B15380  13.739  37.472   8.264
  971POPC   C3B15381  13.731  37.486   7.964
  971POPC   C4B15382  13.726  37.450   7.664
  972POPC   NC315383  36.904  32.260   9.464
  972POPC   PO415384  36.895  32.274   9.164
  972POPC   GL115385  36.870  32.276   8.864
  972POPC   GL215386  36.833  32.129   8.864
  972POPC   C1A15387  36.894  32.214   8.564
  972POPC   D2A15388  36.929  32.211   8.264
  972POPC   C3A15389  36.916  32.212   7.964
  972POPC   C4A15390  36.931  32.240   7.664
  972POPC   C1B15391  36.839  32.005   8.564
  972POPC   C2B15392  36.793  31.994   8.264
  972POPC   C3B15393  36.846  31.986   7.964
  972POPC   C4B15394  36.791  32.025   7.664
  973POPC   NC315395   1.188  32.266   9.464
  973POPC   PO415396   1.259  32.225   9.164
  973POPC   GL115397   1.226  32.219   8.864
  973POPC   GL215398   1.180  32.101   8.864
  973POPC   C1A15399   1.173  32.250   8.564
  973POPC   D2A15400   1.260  32.211   8.264
  973POPC   C3A15401   1.237  32.238   7.964
  973POPC   C4A15402   1.210  32.279   7.664
  973POPC   C1B15403   1.020  32.032   8.564
  973POPC   C2B15404   1.049  32.007   8.264
  973POPC   C3B15405   1.108  32.059   7.964
  973POPC   C4B15406   1.093  32.016   7.664
  974POPC   NC315407  33.816  12.039   9.464
  974POPC   PO415408  33.791  12.106   9.164
  974POPC   GL115409  33.832  12.087   8.864
  974POPC   GL215410  33.943  12.039   8.864
  974POPC   C1A15411  33.772  12.057   8.564
  974POPC   D2A15412  33.758  12.109   8.264
  974POPC   C3A15413  33.812  12.109   7.964
  974POPC   C4A15414  33.787  12.077   7.664
  974POPC   C1B15415  34.001  12.045   8.564
  974POPC   C2B15416  34.007  12.054   8.264
  974POPC   C3B15417  34.061  12.004   7.964
  974POPC   C4B15418  34.035  12.058   7.664
  975POPC   NC315419  10.481  22.183   9.464
  975POPC   PO415420  10.543  22.121   9.164
  975POPC   GL115421  10.548  22.200   8.864
  975POPC   GL215422  10.579  22.292   8.864
  975POPC   C1A15423  10.523  22.201   8.564
  975POPC   D2A15424  10.545  22.172   8.264
  975POPC   C3A15425  10.562  22.161   7.964
  975POPC   C4A15426  10.563  22.155   7.664
  975POPC   C1B15427  10.538  22.431   8.564
  975POPC   C2B15428  10.535  22.443   8.264
  975POPC   C3B15429  10.615  22.438   7.964
  975POPC   C4B15430  10.536  22.429   7.664
  976POPC   NC315431  29.185  19.821   9.464
  976POPC   PO415432  29.098  19.840   9.164
  976POPC   GL115433  29.166  19.816   8.864
  976POPC   GL215434  29.172  19.964   8.864
  976POPC   C1A15435  29.195  19.848   8.564
  976POPC   D2A15436  29.137  19.830   8.264
  976POPC   C3A15437  29.110  19.883   7.964
  976POPC   C4A15438  29.108  19.860   7.664
  976POPC   C1B15439  29.228  20.097   8.564
  976POPC   C2B15440  29.256  20.104   8.264
  976POPC   C3B15441  29.264  20.042   7.964
  976POPC   C4B15442  29.197  20.078   7.664
  977POPC   NC315443  14.383  19.103   9.464
  977POPC   PO415444  14.371  19.079   9.164
  977POPC   GL115445  14.447  19.071   8.864
  977POPC   GL215446  14.462  18.897   8.864
  977POPC   C1A15447  14.422  19.027   8.564
  977POPC   D2A15448  14.383  19.050   8.264
  977POPC   C3A15449  14.413  19.026   7.964
  977POPC   C4A15450  14.386  19.025   7.664
  977POPC   C1B15451  14.449  18.789   8.564
  977POPC   C2B15452  14.506  18.812   8.264
  977POPC   C3B15453  14.471  18.830   7.964
  977POPC   C4B15454  14.467  18.804   7.664
  978POPC   NC315455  39.991  12.037   9.464
  978POPC   PO415456  40.037  12.060   9.164
  978POPC   GL115457  39.973  12.116   8.864
  978POPC   GL215458  40.001  12.224   8.864
  978POPC   C1A15459  40.021  12.038   8.564
  978POPC   D2A15460  40.027  12.045   8.264
  978POPC   C3A15461  40.005  12.052   7.964
  978POPC   C4A15462  40.030  12.074   7.664
  978POPC   C1B15463  40.081  12.359   8.564
  978POPC   C2B15464  40.103  12.312   8.264
  978POPC   C3B15465  40.051  12.352   7.964
  978POPC   C4B15466  40.049  12.277   7.664
  979POPC   NC315467  31.458  41.603   9.464
  979POPC   PO415468  31.519  41.575   9.164
  979POPC   GL115469  31.521  41.533   8.864
  979POPC   GL215470  31.595  41.470   8.864
  979POPC   C1A15471  31.468  41.530   8.564
  979POPC   D2A15472  31.424  41.599   8.264
  979POPC   C3A15473  31.515  41.547   7.964
  979POPC   C4A15474  31.478  41.575   7.664
  979POPC   C1B15475  31.644  41.405   8.564
  979POPC   C2B15476  31.677  41.437   8.264
  979POPC   C3B15477  31.725  41.445   7.964
  979POPC   C4B15478  31.652  41.439   7.664
  980POPC   NC315479  26.033  19.809   9.464
  980POPC   PO415480  26.026  19.870   9.164
  980POPC   GL115481  26.004  19.790   8.864
  980POPC   GL215482  25.988  19.687   8.864
  980POPC   C1A15483  26.080  19.867   8.564
  980POPC   D2A15484  26.058  19.831   8.264
  980POPC   C3A15485  26.019  19.839   7.964
  980POPC   C4A15486  26.005  19.802   7.664
  980POPC   C1B15487  26.015  19.629   8.564
  980POPC   C2B15488  26.032  19.632   8.264
  980POPC   C3B15489  26.035  19.559   7.964
  980POPC   C4B15490  26.038  19.600   7.664
  981POPC   NC315491   4.298   5.895   9.464
  981POPC   PO415492   4.286   5.827   9.164
  981POPC   GL115493   4.358   5.904   8.864
  981POPC   GL215494   4.219   5.898   8.864
  981POPC   C1A15495   4.282   5.847   8.564
  981POPC   D2A15496   4.358   5.871   8.264
  981POPC   C3A15497   4.334   5.868   7.964
  981POPC   C4A15498   4.278   5.886   7.664
  981POPC   C1B15499   4.143   6.007   8.564
  981POPC   C2B15500   4.060   5.963   8.264
  981POPC   C3B15501   4.102   5.959   7.964
  981POPC   C4B15502   4.124   5.989   7.664
  982POPC   NC315503  34.533   4.305   9.464
  982POPC   PO415504  34.592   4.361   9.164
  982POPC   GL115505  34.540   4.316   8.864
  982POPC   GL215506  34.572   4.474   8.864
  982POPC   C1A15507  34.569   4.363   8.564
  982POPC   D2A15508  34.550   4.281   8.264
  982POPC   C3A15509  34.606   4.314   7.964
  982POPC   C4A15510  34.544   4.300   7.664
  982POPC   C1B15511  34.508   4.560   8.564
  982POPC   C2B15512  34.498   4.544   8.264
  982POPC   C3B15513  34.471   4.574   7.964
  982POPC   C4B15514  34.459   4.526   7.664
  983POPC   NC315515  33.846  15.142   9.464
  983POPC   PO415516  33.776  15.209   9.164
  983POPC   GL115517  33.842  15.142   8.864
  983POPC   GL215518  33.779  15.065   8.864
  983POPC   C1A15519  33.763  15.174   8.564
  983POPC   D2A15520  33.781  15.186   8.264
  983POPC   C3A15521  33.842  15.156   7.964
  983POPC   C4A15522  33.848  15.227   7.664
  983POPC   C1B15523  33.758  14.895   8.564
  983POPC   C2B15524  33.779  14.888   8.264
  983POPC   C3B15525  33.760  14.917   7.964
  983POPC   C4B15526  33.830  14.900   7.664
  984POPC   NC315527  27.614  37.675   9.464
  984POPC   PO415528  27.632  37.697   9.164
  984POPC   GL115529  27.641  37.724   8.864
  984POPC   GL215530  27.652  37.648   8.864
  984POPC   C1A15531  27.563  37.713   8.564
  984POPC   D2A15532  27.549  37.661   8.264
  984POPC   C3A15533  27.546  37.652   7.964
  984POPC   C4A15534  27.551  37.727   7.664
  984POPC   C1B15535  27.785  37.529   8.564
  984POPC   C2B15536  27.837  37.489   8.264
  984POPC   C3B15537  27.819  37.509   7.964
  984POPC   C4B15538  27.751  37.542   7.664
  985POPC   NC315539  35.348  13.670   9.464
  985POPC   PO415540  35.377  13.583   9.164
  985POPC   GL115541  35.315  13.652   8.864
  985POPC   GL215542  35.300  13.483   8.864
  985POPC   C1A15543  35.323  13.624   8.564
  985POPC   D2A15544  35.390  13.664   8.264
  985POPC   C3A15545  35.320  13.629   7.964
  985POPC   C4A15546  35.381  13.630   7.664
  985POPC   C1B15547  35.205  13.406   8.564
  985POPC   C2B15548  35.200  13.406   8.264
  985POPC   C3B15549  35.173  13.429   7.964
  985POPC   C4B15550  35.221  13.441   7.664
  986POPC   NC315551  17.474  15.191   9.464
  986POPC   PO415552  17.545  15.226   9.164
  986POPC   GL115553  17.486  15.196   8.864
  986POPC   GL215554  17.575  15.294   8.864
  986POPC   C1A15555  17.465  15.164   8.564
  986POPC   D2A15556  17.544  15.222   8.264
  986POPC   C3A15557  17.487  15.161   7.964
  986POPC   C4A15558  17.518  15.227   7.664
  986POPC   C1B15559  17.698  15.313   8.564
  986POPC   C2B15560  17.673  15.333   8.264
  986POPC   C3B15561  17.711  15.301   7.964
  986POPC   C4B15562  17.720  15.365   7.664
  987POPC   NC315563   2.754   8.161   9.464
  987POPC   PO415564   2.763   8.210   9.164
  987POPC   GL115565   2.762   8.188   8.864
  987POPC   GL215566   2.762   8.350   8.864
  987POPC   C1A15567   2.808   8.222   8.564
  987POPC   D2A15568   2.778   8.223   8.264
  987POPC   C3A15569   2.729   8.164   7.964
  987POPC   C4A15570   2.718   8.214   7.664
  987POPC   C1B15571   2.818   8.396   8.564
  987POPC   C2B15572   2.788   8.407   8.264
  987POPC   C3B15573   2.847   8.422   7.964
  987POPC   C4B15574   2.836   8.445   7.664
  988POPC   NC315575  37.660  25.306   9.464
  988POPC   PO415576  37.711  25.290   9.164
  988POPC   GL115577  37.669  25.250   8.864
  988POPC   GL215578  37.842  25.309   8.864
  988POPC   C1A15579  37.652  25.254   8.564
  988POPC   D2A15580  37.713  25.310   8.264
  988POPC   C3A15581  37.661  25.313   7.964
  988POPC   C4A15582  37.705  25.290   7.664
  988POPC   C1B15583  37.964  25.354   8.564
  988POPC   C2B15584  37.960  25.391   8.264
  988POPC   C3B15585  37.895  25.329   7.964
  988POPC   C4B15586  37.947  25.385   7.664
  989POPC   NC315587  12.037   4.348   9.464
  989POPC   PO415588  12.042   4.354   9.164
  989POPC   GL115589  12.030   4.312   8.864
  989POPC   GL215590  12.204   4.294   8.864
  989POPC   C1A15591  12.070   4.367   8.564
  989POPC   D2A15592  12.074   4.340   8.264
  989POPC   C3A15593  12.088   4.284   7.964
  989POPC   C4A15594  12.111   4.279   7.664
  989POPC   C1B15595  12.267   4.185   8.564
  989POPC   C2B15596  12.260   4.198   8.264
  989POPC   C3B15597  12.335   4.151   7.964
  989POPC   C4B15598  12.247   4.168   7.664
  990POPC   NC315599  37.724  36.876   9.464
  990POPC   PO415600  37.717  36.920   9.164
  990POPC   GL115601  37.712  36.904   8.864
  990POPC   GL215602  37.794  36.967   8.864
  990POPC   C1A15603  37.637  36.932   8.564
  990POPC   D2A15604  37.707  36.935   8.264
  990POPC   C3A15605  37.725  36.883   7.964
  990POPC   C4A15606  37.680  36.890   7.664
  990POPC   C1B15607  37.894  36.941   8.564
  990POPC   C2B15608  37.918  36.973   8.264
  990POPC   C3B15609  37.926  36.972   7.964
  990POPC   C4B15610  37.878  37.029   7.664
  991POPC   NC315611  44.646   4.326   9.464
  991POPC   PO415612  44.626   4.320   9.164
  991POPC   GL115613  44.674   4.268   8.864
  991POPC   GL215614  44.658   4.187   8.864
  991POPC   C1A15615  44.618   4.276   8.564
  991POPC   D2A15616  44.620   4.343   8.264
  991POPC   C3A15617  44.644   4.355   7.964
  991POPC   C4A15618  44.658   4.303   7.664
  991POPC   C1B15619  44.716   4.081   8.564
  991POPC   C2B15620  44.752   4.051   8.264
  991POPC   C3B15621  44.741   4.046   7.964
  991POPC   C4B15622  44.688   4.116   7.664
  992POPC   NC315623  26.831  37.640   9.464
  992POPC   PO415624  26.794  37.697   9.164
  992POPC   GL115625  26.843  37.654   8.864
  992POPC   GL215626  26.771  37.786   8.864
  992POPC   C1A15627  26.840  37.669   8.564
  992POPC   D2A15628  26.801  37.715   8.264
  992POPC   C3A15629  26.798  37.687   7.964
  992POPC   C4A15630  26.815  37.683   7.664
  992POPC   C1B15631  26.793  37.941   8.564
  992POPC   C2B15632  26.790  37.931   8.264
  992POPC   C3B15633  26.759  37.942   7.964
  992POPC   C4B15634  26.784  37.889   7.664
  993POPC   NC315635  27.609  43.150   9.464
  993POPC   PO415636  27.576  43.125   9.164
  993POPC   GL115637  27.577  43.146   8.864
  993POPC   GL215638  27.541  43.021   8.864
  993POPC   C1A15639  27.570  43.071   8.564
  993POPC   D2A15640  27.625  43.083   8.264
  993POPC   C3A15641  27.593  43.126   7.964
  993POPC   C4A15642  27.592  43.061   7.664
  993POPC   C1B15643  27.519  42.891   8.564
  993POPC   C2B15644  27.469  42.864   8.264
  993POPC   C3B15645  27.504  42.843   7.964
  993POPC   C4B15646  27.509  42.847   7.664
  994POPC   NC315647  25.272  11.345   9.464
  994POPC   PO415648  25.248  11.262   9.164
  994POPC   GL115649  25.246  11.331   8.864
  994POPC   GL215650  25.402  11.193   8.864
  994POPC   C1A15651  25.242  11.347   8.564
  994POPC   D2A15652  25.224  11.341   8.264
  994POPC   C3A15653  25.221  11.298   7.964
  994POPC   C4A15654  25.292  11.309   7.664
  994POPC   C1B15655  25.419  11.107   8.564
  994POPC   C2B15656  25.466  11.144   8.264
  994POPC   C3B15657  25.430  11.186   7.964
  994POPC   C4B15658  25.431  11.144   7.664
  995POPC   NC315659  39.242   8.177   9.464
  995POPC   PO415660  39.234   8.215   9.164
  995POPC   GL115661  39.268   8.205   8.864
  995POPC   GL215662  39.335   8.106   8.864
  995POPC   C1A15663  39.191   8.212   8.564
  995POPC   D2A15664  39.270   8.180   8.264
  995POPC   C3A15665  39.227   8.171   7.964
  995POPC   C4A15666  39.263   8.240   7.664
  995POPC   C1B15667  39.468   8.077   8.564
  995POPC   C2B15668  39.392   8.088   8.264
  995POPC   C3B15669  39.478   8.020   7.964
  995POPC   C4B15670  39.401   8.036   7.664
  996POPC   NC315671  23.754  33.843   9.464
  996POPC   PO415672  23.730  33.750   9.164
  996POPC   GL115673  23.693  33.822   8.864
  996POPC   GL215674  23.618  33.712   8.864
  996POPC   C1A15675  23.736  33.821   8.564
  996POPC   D2A15676  23.691  33.838   8.264
  996POPC   C3A15677  23.734  33.794   7.964
  996POPC   C4A15678  23.731  33.811   7.664
  996POPC   C1B15679  23.599  33.625   8.564
  996POPC   C2B15680  23.639  33.614   8.264
  996POPC   C3B15681  23.587  33.561   7.964
  996POPC   C4B15682  23.594  33.599   7.664
  997POPC   NC315683  38.451  22.921   9.464
  997POPC   PO415684  38.450  22.969   9.164
  997POPC   GL115685  38.494  22.921   8.864
  997POPC   GL215686  38.493  22.829   8.864
  997POPC   C1A15687  38.468  22.947   8.564
  997POPC   D2A15688  38.436  22.891   8.264
  997POPC   C3A15689  38.443  22.948   7.964
  997POPC   C4A15690  38.428  22.956   7.664
  997POPC   C1B15691  38.620  22.761   8.564
  997POPC   C2B15692  38.617  22.689   8.264
  997POPC   C3B15693  38.557  22.669   7.964
  997POPC   C4B15694  38.532  22.729   7.664
  998POPC   NC315695  20.590  11.317   9.464
  998POPC   PO415696  20.647  11.284   9.164
  998POPC   GL115697  20.573  11.332   8.864
  998POPC   GL215698  20.533  11.209   8.864
  998POPC   C1A15699  20.597  11.303   8.564
  998POPC   D2A15700  20.596  11.295   8.264
  998POPC   C3A15701  20.622  11.301   7.964
  998POPC   C4A15702  20.621  11.261   7.664
  998POPC   C1B15703  20.523  11.024   8.564
  998POPC   C2B15704  20.560  11.069   8.264
  998POPC   C3B15705  20.548  11.053   7.964
  998POPC   C4B15706  20.508  11.106   7.664
  999POPC   NC315707  35.354   8.191   9.464
  999POPC   PO415708  35.312   8.195   9.164
  999POPC   GL115709  35.311   8.246   8.864
  999POPC   GL215710  35.257   8.325   8.864
  999POPC   C1A15711  35.366   8.193   8.564
  999POPC   D2A15712  35.313   8.149   8.264
  999POPC   C3A15713  35.367   8.157   7.964
  999POPC   C4A15714  35.314   8.172   7.664
  999POPC   C1B15715  35.221   8.416   8.564
  999POPC   C2B15716  35.301   8.468   8.264
  999POPC   C3B15717  35.251   8.442   7.964
  999POPC   C4B15718  35.258   8.391   7.664
 1000POPC   NC315719  31.452  21.337   9.464
 1000POPC   PO415720  31.472  21.419   9.164
 1000POPC   GL115721  31.478  21.368   8.864
 1000POPC   GL215722  31.399  21.325   8.864
 1000POPC   C1A15723  31.511  21.387   8.564
 1000POPC   D2A15724  31.443  21.424   8.264
 1000POPC   C3A15725  31.489  21.408   7.964
 1000POPC   C4A15726  31.448  21.425   7.664
 1000POPC   C1B15727  31.366  21.178   8.564
 1000POPC   C2B15728  31.283  21.173   8.264
 1000POPC   C3B15729  31.329  21.137   7.964
 1000POPC   C4B15730  31.282  21.186   7.664
 1001POPC   NC315731  14.375   1.197   9.464
 1001POPC   PO415732  14.384   1.234   9.164
 1001POPC   GL115733  14.430   1.260   8.864
 1001POPC   GL215734  14.280   1.096   8.864
 1001POPC   C1A15735  14.382   1.248   8.564
 1001POPC   D2A15736  14.398   1.236   8.264
 1001POPC   C3A15737  14.408   1.200   7.964
 1001POPC   C4A15738  14.366   1.259   7.664
 1001POPC   C1B15739  14.231   0.979   8.564
 1001POPC   C2B15740  14.289   1.061   8.264
 1001POPC   C3B15741  14.233   0.992   7.964
 1001POPC   C4B15742  14.293   0.972   7.664
 1002POPC   NC315743  36.129  28.365   9.464
 1002POPC   PO415744  36.113  28.397   9.164
 1002POPC   GL115745  36.171  28.329   8.864
 1002POPC   GL215746  36.060  28.262   8.864
 1002POPC   C1A15747  36.138  28.326   8.564
 1002POPC   D2A15748  36.131  28.380   8.264
 1002POPC   C3A15749  36.096  28.377   7.964
 1002POPC   C4A15750  36.147  28.376   7.664
 1002POPC   C1B15751  36.107  28.168   8.564
 1002POPC   C2B15752  36.113  28.129   8.264
 1002POPC   C3B15753  36.092  28.129   7.964
 1002POPC   C4B15754  36.069  28.101   7.664
 1003POPC   NC315755  25.222  26.823   9.464
 1003POPC   PO415756  25.271  26.858   9.164
 1003POPC   GL115757  25.269  26.793   8.864
 1003POPC   GL215758  25.148  26.713   8.864
 1003POPC   C1A15759  25.274  26.813   8.564
 1003POPC   D2A15760  25.235  26.856   8.264
 1003POPC   C3A15761  25.259  26.852   7.964
 1003POPC   C4A15762  25.221  26.819   7.664
 1003POPC   C1B15763  25.116  26.573   8.564
 1003POPC   C2B15764  25.110  26.572   8.264
 1003POPC   C3B15765  25.136  26.579   7.964
 1003POPC   C4B15766  25.098  26.650   7.664
 1004POPC   NC315767   6.635  44.653   9.464
 1004POPC   PO415768   6.681  44.618   9.164
 1004POPC   GL115769   6.638  44.633   8.864
 1004POPC   GL215770   6.651  44.804   8.864
 1004POPC   C1A15771   6.671  44.682   8.564
 1004POPC   D2A15772   6.648  44.660   8.264
 1004POPC   C3A15773   6.619  44.628   7.964
 1004POPC   C4A15774   6.611  44.632   7.664
 1004POPC   C1B15775   6.733  44.871   8.564
 1004POPC   C2B15776   6.651  44.931   8.264
 1004POPC   C3B15777   6.661  44.874   7.964
 1004POPC   C4B15778   6.733  44.900   7.664
 1005POPC   NC315779   1.184  36.146   9.464
 1005POPC   PO415780   1.203  36.121   9.164
 1005POPC   GL115781   1.172  36.104   8.864
 1005POPC   GL215782   1.141  36.041   8.864
 1005POPC   C1A15783   1.217  36.169   8.564
 1005POPC   D2A15784   1.176  36.133   8.264
 1005POPC   C3A15785   1.196  36.109   7.964
 1005POPC   C4A15786   1.210  36.106   7.664
 1005POPC   C1B15787   1.115  35.881   8.564
 1005POPC   C2B15788   1.115  35.837   8.264
 1005POPC   C3B15789   1.121  35.851   7.964
 1005POPC   C4B15790   1.169  35.906   7.664
 1006POPC   NC315791  38.441  24.459   9.464
 1006POPC   PO415792  38.462  24.450   9.164
 1006POPC   GL115793  38.501  24.466   8.864
 1006POPC   GL215794  38.290  24.428   8.864
 1006POPC   C1A15795  38.458  24.488   8.564
 1006POPC   D2A15796  38.488  24.450   8.264
 1006POPC   C3A15797  38.433  24.530   7.964
 1006POPC   C4A15798  38.499  24.441   7.664
 1006POPC   C1B15799  38.182  24.405   8.564
 1006POPC   C2B15800  38.248  24.384   8.264
 1006POPC   C3B15801  38.263  24.445   7.964
 1006POPC   C4B15802  38.200  24.426   7.664
 1007POPC   NC315803  19.853  10.568   9.464
 1007POPC   PO415804  19.809  10.513   9.164
 1007POPC   GL115805  19.853  10.558   8.864
 1007POPC   GL215806  19.685  10.595   8.864
 1007POPC   C1A15807  19.829  10.501   8.564
 1007POPC   D2A15808  19.813  10.567   8.264
 1007POPC   C3A15809  19.882  10.505   7.964
 1007POPC   C4A15810  19.883  10.498   7.664
 1007POPC   C1B15811  19.678  10.666   8.564
 1007POPC   C2B15812  19.658  10.674   8.264
 1007POPC   C3B15813  19.644  10.656   7.964
 1007POPC   C4B15814  19.613  10.669   7.664
 1008POPC   NC315815  40.750  29.113   9.464
 1008POPC   PO415816  40.780  29.103   9.164
 1008POPC   GL115817  40.756  29.151   8.864
 1008POPC   GL215818  40.834  29.083   8.864
 1008POPC   C1A15819  40.796  29.117   8.564
 1008POPC   D2A15820  40.761  29.124   8.264
 1008POPC   C3A15821  40.832  29.114   7.964
 1008POPC   C4A15822  40.760  29.168   7.664
 1008POPC   C1B15823  40.947  28.912   8.564
 1008POPC   C2B15824  40.917  28.948   8.264
 1008POPC   C3B15825  40.890  28.890   7.964
 1008POPC   C4B15826  40.897  28.917   7.664
 1009POPC   NC315827  28.354  15.142   9.464
 1009POPC   PO415828  28.359  15.166   9.164
 1009POPC   GL115829  28.419  15.159   8.864
 1009POPC   GL215830  28.371  15.291   8.864
 1009POPC   C1A15831  28.350  15.158   8.564
 1009POPC   D2A15832  28.416  15.140   8.264
 1009POPC   C3A15833  28.347  15.165   7.964
 1009POPC   C4A15834  28.338  15.180   7.664
 1009POPC   C1B15835  28.397  15.398   8.564
 1009POPC   C2B15836  28.325  15.457   8.264
 1009POPC   C3B15837  28.373  15.448   7.964
 1009POPC   C4B15838  28.307  15.422   7.664
 1010POPC   NC315839  39.985  27.639   9.464
 1010POPC   PO415840  39.965  27.559   9.164
 1010POPC   GL115841  40.035  27.590   8.864
 1010POPC   GL215842  39.923  27.487   8.864
 1010POPC   C1A15843  40.038  27.629   8.564
 1010POPC   D2A15844  39.975  27.603   8.264
 1010POPC   C3A15845  40.029  27.608   7.964
 1010POPC   C4A15846  40.020  27.622   7.664
 1010POPC   C1B15847  39.871  27.397   8.564
 1010POPC   C2B15848  39.877  27.392   8.264
 1010POPC   C3B15849  39.834  27.450   7.964
 1010POPC   C4B15850  39.866  27.408   7.664
 1011POPC   NC315851   0.486   3.583   9.464
 1011POPC   PO415852   0.429   3.497   9.164
 1011POPC   GL115853   0.451   3.510   8.864
 1011POPC   GL215854   0.391   3.508   8.864
 1011POPC   C1A15855   0.408   3.568   8.564
 1011POPC   D2A15856   0.444   3.554   8.264
 1011POPC   C3A15857   0.471   3.590   7.964
 1011POPC   C4A15858   0.481   3.498   7.664
 1011POPC   C1B15859   0.203   3.365   8.564
 1011POPC   C2B15860   0.290   3.328   8.264
 1011POPC   C3B15861   0.208   3.332   7.964
 1011POPC   C4B15862   0.295   3.330   7.664
 1012POPC   NC315863  36.138  19.847   9.464
 1012POPC   PO415864  36.099  19.808   9.164
 1012POPC   GL115865  36.159  19.798   8.864
 1012POPC   GL215866  36.053  19.749   8.864
 1012POPC   C1A15867  36.141  19.865   8.564
 1012POPC   D2A15868  36.124  19.829   8.264
 1012POPC   C3A15869  36.116  19.786   7.964
 1012POPC   C4A15870  36.089  19.864   7.664
 1012POPC   C1B15871  35.910  19.724   8.564
 1012POPC   C2B15872  35.917  19.741   8.264
 1012POPC   C3B15873  35.919  19.734   7.964
 1012POPC   C4B15874  35.929  19.720   7.664
 1013POPC   NC315875  29.951  10.508   9.464
 1013POPC   PO415876  29.920  10.523   9.164
 1013POPC   GL115877  29.966  10.503   8.864
 1013POPC   GL215878  29.752  10.460   8.864
 1013POPC   C1A15879  29.935  10.516   8.564
 1013POPC   D2A15880  29.898  10.521   8.264
 1013POPC   C3A15881  29.944  10.568   7.964
 1013POPC   C4A15882  29.874  10.572   7.664
 1013POPC   C1B15883  29.633  10.417   8.564
 1013POPC   C2B15884  29.728  10.508   8.264
 1013POPC   C3B15885  29.716  10.467   7.964
 1013POPC   C4B15886  29.707  10.476   7.664
 1014POPC   NC315887   4.362  30.693   9.464
 1014POPC   PO415888   4.283  30.694   9.164
 1014POPC   GL115889   4.314  30.654   8.864
 1014POPC   GL215890   4.259  30.792   8.864
 1014POPC   C1A15891   4.323  30.671   8.564
 1014POPC   D2A15892   4.329  30.647   8.264
 1014POPC   C3A15893   4.277  30.663   7.964
 1014POPC   C4A15894   4.303  30.657   7.664
 1014POPC   C1B15895   4.126  30.855   8.564
 1014POPC   C2B15896   4.181  30.888   8.264
 1014POPC   C3B15897   4.136  30.926   7.964
 1014POPC   C4B15898   4.143  30.864   7.664
 1015POPC   NC315899   4.290   0.407   9.464
 1015POPC   PO415900   4.330   0.430   9.164
 1015POPC   GL115901   4.348   0.432   8.864
 1015POPC   GL215902   4.368   0.316   8.864
 1015POPC   C1A15903   4.288   0.473   8.564
 1015POPC   D2A15904   4.297   0.474   8.264
 1015POPC   C3A15905   4.301   0.423   7.964
 1015POPC   C4A15906   4.284   0.469   7.664
 1015POPC   C1B15907   4.491   0.196   8.564
 1015POPC   C2B15908   4.405   0.257   8.264
 1015POPC   C3B15909   4.488   0.177   7.964
 1015POPC   C4B15910   4.412   0.179   7.664
 1016POPC   NC315911  32.983  27.586   9.464
 1016POPC   PO415912  33.055  27.643   9.164
 1016POPC   GL115913  33.050  27.568   8.864
 1016POPC   GL215914  33.134  27.473   8.864
 1016POPC   C1A15915  33.012  27.574   8.564
 1016POPC   D2A15916  33.070  27.566   8.264
 1016POPC   C3A15917  32.979  27.554   7.964
 1016POPC   C4A15918  33.026  27.617   7.664
 1016POPC   C1B15919  33.180  27.371   8.564
 1016POPC   C2B15920  33.137  27.417   8.264
 1016POPC   C3B15921  33.123  27.374   7.964
 1016POPC   C4B15922  33.108  27.334   7.664
 1017POPC   NC315923  31.522  43.921   9.464
 1017POPC   PO415924  31.482  43.884   9.164
 1017POPC   GL115925  31.503  43.895   8.864
 1017POPC   GL215926  31.597  43.808   8.864
 1017POPC   C1A15927  31.429  43.935   8.564
 1017POPC   D2A15928  31.501  43.907   8.264
 1017POPC   C3A15929  31.488  43.862   7.964
 1017POPC   C4A15930  31.476  43.858   7.664
 1017POPC   C1B15931  31.717  43.724   8.564
 1017POPC   C2B15932  31.738  43.805   8.264
 1017POPC   C3B15933  31.663  43.811   7.964
 1017POPC   C4B15934  31.682  43.758   7.664
 1018POPC   NC315935   6.627   7.398   9.464
 1018POPC   PO415936   6.654   7.403   9.164
 1018POPC   GL115937   6.611   7.441   8.864
 1018POPC   GL215938   6.657   7.322   8.864
 1018POPC   C1A15939   6.675   7.394   8.564
 1018POPC   D2A15940   6.689   7.399   8.264
 1018POPC   C3A15941   6.682   7.430   7.964
 1018POPC   C4A15942   6.674   7.451   7.664
 1018POPC   C1B15943   6.613   7.197   8.564
 1018POPC   C2B15944   6.601   7.131   8.264
 1018POPC   C3B15945   6.620   7.207   7.964
 1018POPC   C4B15946   6.565   7.167   7.664
 1019POPC   NC315947   8.218  31.506   9.464
 1019POPC   PO415948   8.201  31.502   9.164
 1019POPC   GL115949   8.178  31.503   8.864
 1019POPC   GL215950   8.073  31.577   8.864
 1019POPC   C1A15951   8.194  31.481   8.564
 1019POPC   D2A15952   8.150  31.484   8.264
 1019POPC   C3A15953   8.151  31.446   7.964
 1019POPC   C4A15954   8.198  31.428   7.664
 1019POPC   C1B15955   7.963  31.671   8.564
 1019POPC   C2B15956   7.999  31.597   8.264
 1019POPC   C3B15957   8.045  31.656   7.964
 1019POPC   C4B15958   7.975  31.577   7.664
 1020POPC   NC315959  36.158   0.401   9.464
 1020POPC   PO415960  36.086   0.451   9.164
 1020POPC   GL115961  36.144   0.410   8.864
 1020POPC   GL215962  36.223   0.359   8.864
 1020POPC   C1A15963  36.143   0.428   8.564
 1020POPC   D2A15964  36.133   0.409   8.264
 1020POPC   C3A15965  36.148   0.429   7.964
 1020POPC   C4A15966  36.102   0.419   7.664
 1020POPC   C1B15967  36.378   0.354   8.564
 1020POPC   C2B15968  36.400   0.354   8.264
 1020POPC   C3B15969  36.310   0.349   7.964
 1020POPC   C4B15970  36.331   0.326   7.664
 1021POPC   NC315971  18.283  14.367   9.464
 1021POPC   PO415972  18.324  14.391   9.164
 1021POPC   GL115973  18.314  14.378   8.864
 1021POPC   GL215974  18.279  14.318   8.864
 1021POPC   C1A15975  18.264  14.432   8.564
 1021POPC   D2A15976  18.253  14.373   8.264
 1021POPC   C3A15977  18.246  14.426   7.964
 1021POPC   C4A15978  18.321  14.391   7.664
 1021POPC   C1B15979  18.239  14.198   8.564
 1021POPC   C2B15980  18.276  14.142   8.264
 1021POPC   C3B15981  18.245  14.164   7.964
 1021POPC   C4B15982  18.252  14.139   7.664
 1022POPC   NC315983  12.890  14.370   9.464
 1022POPC   PO415984  12.882  14.369   9.164
 1022POPC   GL115985  12.827  14.441   8.864
 1022POPC   GL215986  13.002  14.360   8.864
 1022POPC   C1A15987  12.820  14.392   8.564
 1022POPC   D2A15988  12.848  14.431   8.264
 1022POPC   C3A15989  12.888  14.450   7.964
 1022POPC   C4A15990  12.816  14.428   7.664
 1022POPC   C1B15991  13.069  14.328   8.564
 1022POPC   C2B15992  13.138  14.311   8.264
 1022POPC   C3B15993  13.103  14.293   7.964
 1022POPC   C4B15994  13.105  14.335   7.664
 1023POPC   NC315995  20.600  13.658   9.464
 1023POPC   PO415996  20.570  13.618   9.164
 1023POPC   GL115997  20.630  13.653   8.864
 1023POPC   GL215998  20.507  13.676   8.864
 1023POPC   C1A15999  20.571  13.604   8.564
 1023POPC   D2A16000  20.588  13.601   8.264
 1023POPC   C3A16001  20.657  13.650   7.964
 1023POPC   C4A16002  20.645  13.600   7.664
 1023POPC   C1B16003  20.406  13.765   8.564
 1023POPC   C2B16004  20.397  13.824   8.264
 1023POPC   C3B16005  20.402  13.838   7.964
 1023POPC   C4B16006  20.458  13.756   7.664
 1024POPC   NC316007  24.462   8.246   9.464
 1024POPC   PO416008  24.509   8.161   9.164
 1024POPC   GL116009  24.489   8.205   8.864
 1024POPC   GL216010  24.563   8.085   8.864
 1024POPC   C1A16011  24.486   8.160   8.564
 1024POPC   D2A16012  24.519   8.234   8.264
 1024POPC   C3A16013  24.496   8.197   7.964
 1024POPC   C4A16014  24.467   8.147   7.664
 1024POPC   C1B16015  24.672   8.020   8.564
 1024POPC   C2B16016  24.574   7.970   8.264
 1024POPC   C3B16017  24.662   7.986   7.964
 1024POPC   C4B16018  24.618   7.959   7.664
 1025POPC   NC316019  30.660  33.834   9.464
 1025POPC   PO416020  30.648  33.789   9.164
 1025POPC   GL116021  30.674  33.767   8.864
 1025POPC   GL216022  30.726  33.711   8.864
 1025POPC   C1A16023  30.711  33.839   8.564
 1025POPC   D2A16024  30.711  33.807   8.264
 1025POPC   C3A16025  30.677  33.783   7.964
 1025POPC   C4A16026  30.694  33.752   7.664
 1025POPC   C1B16027  30.831  33.608   8.564
 1025POPC   C2B16028  30.878  33.579   8.264
 1025POPC   C3B16029  30.844  33.576   7.964
 1025POPC   C4B16030  30.831  33.547   7.664
 1026POPC   NC316031   8.943  22.983   9.464
 1026POPC   PO416032   8.949  22.915   9.164
 1026POPC   GL116033   8.925  22.890   8.864
 1026POPC   GL216034   8.942  23.085   8.864
 1026POPC   C1A16035   8.937  22.951   8.564
 1026POPC   D2A16036   8.976  22.947   8.264
 1026POPC   C3A16037   8.942  22.979   7.964
 1026POPC   C4A16038   9.015  22.926   7.664
 1026POPC   C1B16039   8.970  23.232   8.564
 1026POPC   C2B16040   8.965  23.212   8.264
 1026POPC   C3B16041   9.008  23.233   7.964
 1026POPC   C4B16042   8.961  23.160   7.664
 1027POPC   NC316043  33.847  25.257   9.464
 1027POPC   PO416044  33.789  25.246   9.164
 1027POPC   GL116045  33.780  25.315   8.864
 1027POPC   GL216046  33.921  25.144   8.864
 1027POPC   C1A16047  33.793  25.287   8.564
 1027POPC   D2A16048  33.796  25.284   8.264
 1027POPC   C3A16049  33.841  25.279   7.964
 1027POPC   C4A16050  33.772  25.234   7.664
 1027POPC   C1B16051  33.957  25.144   8.564
 1027POPC   C2B16052  34.018  25.156   8.264
 1027POPC   C3B16053  33.961  25.114   7.964
 1027POPC   C4B16054  34.055  25.144   7.664
 1028POPC   NC316055  43.121  28.412   9.464
 1028POPC   PO416056  43.098  28.373   9.164
 1028POPC   GL116057  43.131  28.337   8.864
 1028POPC   GL216058  43.196  28.379   8.864
 1028POPC   C1A16059  43.096  28.403   8.564
 1028POPC   D2A16060  43.125  28.332   8.264
 1028POPC   C3A16061  43.097  28.378   7.964
 1028POPC   C4A16062  43.065  28.417   7.664
 1028POPC   C1B16063  43.339  28.307   8.564
 1028POPC   C2B16064  43.403  28.318   8.264
 1028POPC   C3B16065  43.361  28.303   7.964
 1028POPC   C4B16066  43.374  28.341   7.664
 1029POPC   NC316067   5.899  24.521   9.464
 1029POPC   PO416068   5.876  24.458   9.164
 1029POPC   GL116069   5.831  24.479   8.864
 1029POPC   GL216070   5.903  24.325   8.864
 1029POPC   C1A16071   5.910  24.512   8.564
 1029POPC   D2A16072   5.845  24.466   8.264
 1029POPC   C3A16073   5.836  24.528   7.964
 1029POPC   C4A16074   5.857  24.454   7.664
 1029POPC   C1B16075   5.889  24.212   8.564
 1029POPC   C2B16076   5.966  24.240   8.264
 1029POPC   C3B16077   5.882  24.284   7.964
 1029POPC   C4B16078   5.943  24.209   7.664
 1030POPC   NC316079  42.309  34.583   9.464
 1030POPC   PO416080  42.320  34.599   9.164
 1030POPC   GL116081  42.355  34.594   8.864
 1030POPC   GL216082  42.419  34.644   8.864
 1030POPC   C1A16083  42.350  34.568   8.564
 1030POPC   D2A16084  42.355  34.621   8.264
 1030POPC   C3A16085  42.309  34.623   7.964
 1030POPC   C4A16086  42.342  34.578   7.664
 1030POPC   C1B16087  42.588  34.663   8.564
 1030POPC   C2B16088  42.576  34.588   8.264
 1030POPC   C3B16089  42.561  34.658   7.964
 1030POPC   C4B16090  42.541  34.620   7.664
 1031POPC   NC316091   7.455  35.357   9.464
 1031POPC   PO416092   7.454  35.345   9.164
 1031POPC   GL116093   7.419  35.315   8.864
 1031POPC   GL216094   7.448  35.235   8.864
 1031POPC   C1A16095   7.454  35.313   8.564
 1031POPC   D2A16096   7.395  35.354   8.264
 1031POPC   C3A16097   7.384  35.352   7.964
 1031POPC   C4A16098   7.387  35.343   7.664
 1031POPC   C1B16099   7.525  35.139   8.564
 1031POPC   C2B16100   7.456  35.132   8.264
 1031POPC   C3B16101   7.546  35.091   7.964
 1031POPC   C4B16102   7.491  35.090   7.664
 1032POPC   NC316103  18.245  24.517   9.464
 1032POPC   PO416104  18.292  24.536   9.164
 1032POPC   GL116105  18.251  24.444   8.864
 1032POPC   GL216106  18.179  24.532   8.864
 1032POPC   C1A16107  18.314  24.504   8.564
 1032POPC   D2A16108  18.271  24.460   8.264
 1032POPC   C3A16109  18.245  24.483   7.964
 1032POPC   C4A16110  18.309  24.462   7.664
 1032POPC   C1B16111  18.092  24.552   8.564
 1032POPC   C2B16112  18.025  24.561   8.264
 1032POPC   C3B16113  18.067  24.559   7.964
 1032POPC   C4B16114  18.093  24.583   7.664
 1033POPC   NC316115  22.177   6.600   9.464
 1033POPC   PO416116  22.168   6.665   9.164
 1033POPC   GL116117  22.179   6.677   8.864
 1033POPC   GL216118  22.182   6.799   8.864
 1033POPC   C1A16119  22.163   6.677   8.564
 1033POPC   D2A16120  22.182   6.653   8.264
 1033POPC   C3A16121  22.210   6.654   7.964
 1033POPC   C4A16122  22.161   6.642   7.664
 1033POPC   C1B16123  22.284   6.858   8.564
 1033POPC   C2B16124  22.273   6.911   8.264
 1033POPC   C3B16125  22.263   6.846   7.964
 1033POPC   C4B16126  22.283   6.910   7.664
 1034POPC   NC316127  15.940  15.993   9.464
 1034POPC   PO416128  15.989  15.916   9.164
 1034POPC   GL116129  15.974  15.943   8.864
 1034POPC   GL216130  15.868  15.872   8.864
 1034POPC   C1A16131  15.967  15.962   8.564
 1034POPC   D2A16132  15.947  15.970   8.264
 1034POPC   C3A16133  15.908  15.974   7.964
 1034POPC   C4A16134  15.914  15.965   7.664
 1034POPC   C1B16135  15.866  15.738   8.564
 1034POPC   C2B16136  15.830  15.722   8.264
 1034POPC   C3B16137  15.868  15.692   7.964
 1034POPC   C4B16138  15.785  15.774   7.664
 1035POPC   NC316139  11.288   5.902   9.464
 1035POPC   PO416140  11.318   5.905   9.164
 1035POPC   GL116141  11.328   5.912   8.864
 1035POPC   GL216142  11.392   5.972   8.864
 1035POPC   C1A16143  11.293   5.831   8.564
 1035POPC   D2A16144  11.332   5.830   8.264
 1035POPC   C3A16145  11.274   5.847   7.964
 1035POPC   C4A16146  11.251   5.864   7.664
 1035POPC   C1B16147  11.462   6.077   8.564
 1035POPC   C2B16148  11.428   6.115   8.264
 1035POPC   C3B16149  11.406   6.093   7.964
 1035POPC   C4B16150  11.483   6.102   7.664
 1036POPC   NC316151  10.528  43.109   9.464
 1036POPC   PO416152  10.566  43.102   9.164
 1036POPC   GL116153  10.526  43.077   8.864
 1036POPC   GL216154  10.570  43.014   8.864
 1036POPC   C1A16155  10.521  43.097   8.564
 1036POPC   D2A16156  10.481  43.073   8.264
 1036POPC   C3A16157  10.487  43.159   7.964
 1036POPC   C4A16158  10.480  43.130   7.664
 1036POPC   C1B16159  10.724  42.948   8.564
 1036POPC   C2B16160  10.708  42.896   8.264
 1036POPC   C3B16161  10.715  42.924   7.964
 1036POPC   C4B16162  10.671  42.928   7.664
 1037POPC   NC316163  33.768  10.480   9.464
 1037POPC   PO416164  33.832  10.535   9.164
 1037POPC   GL116165  33.796  10.532   8.864
 1037POPC   GL216166  33.689  10.618   8.864
 1037POPC   C1A16167  33.798  10.512   8.564
 1037POPC   D2A16168  33.774  10.508   8.264
 1037POPC   C3A16169  33.829  10.538   7.964
 1037POPC   C4A16170  33.792  10.491   7.664
 1037POPC   C1B16171  33.617  10.639   8.564
 1037POPC   C2B16172  33.551  10.636   8.264
 1037POPC   C3B16173  33.612  10.620   7.964
 1037POPC   C4B16174  33.538  10.663   7.664
 1038POPC   NC316175   9.765  31.429   9.464
 1038POPC   PO416176   9.737  31.492   9.164
 1038POPC   GL116177   9.708  31.449   8.864
 1038POPC   GL216178   9.874  31.389   8.864
 1038POPC   C1A16179   9.781  31.482   8.564
 1038POPC   D2A16180   9.765  31.477   8.264
 1038POPC   C3A16181   9.753  31.442   7.964
 1038POPC   C4A16182   9.735  31.468   7.664
 1038POPC   C1B16183   9.937  31.340   8.564
 1038POPC   C2B16184   9.943  31.346   8.264
 1038POPC   C3B16185   9.970  31.383   7.964
 1038POPC   C4B16186   9.996  31.398   7.664
 1039POPC   NC316187  38.469  43.083   9.464
 1039POPC   PO416188  38.439  43.124   9.164
 1039POPC   GL116189  38.493  43.127   8.864
 1039POPC   GL216190  38.319  43.168   8.864
 1039POPC   C1A16191  38.444  43.139   8.564
 1039POPC   D2A16192  38.476  43.139   8.264
 1039POPC   C3A16193  38.419  43.082   7.964
 1039POPC   C4A16194  38.471  43.065   7.664
 1039POPC   C1B16195  38.223  43.235   8.564
 1039POPC   C2B16196  38.231  43.286   8.264
 1039POPC   C3B16197  38.271  43.248   7.964
 1039POPC   C4B16198  38.291  43.268   7.664
 1040POPC   NC316199  31.440  12.892   9.464
 1040POPC   PO416200  31.429  12.813   9.164
 1040POPC   GL116201  31.453  12.815   8.864
 1040POPC   GL216202  31.631  12.869   8.864
 1040POPC   C1A16203  31.430  12.860   8.564
 1040POPC   D2A16204  31.442  12.884   8.264
 1040POPC   C3A16205  31.441  12.822   7.964
 1040POPC   C4A16206  31.435  12.812   7.664
 1040POPC   C1B16207  31.757  12.924   8.564
 1040POPC   C2B16208  31.746  12.952   8.264
 1040POPC   C3B16209  31.704  12.941   7.964
 1040POPC   C4B16210  31.714  12.899   7.664
 1041POPC   NC316211  36.928  43.135   9.464
 1041POPC   PO416212  36.882  43.129   9.164
 1041POPC   GL116213  36.919  43.109   8.864
 1041POPC   GL216214  36.815  42.993   8.864
 1041POPC   C1A16215  36.935  43.155   8.564
 1041POPC   D2A16216  36.915  43.132   8.264
 1041POPC   C3A16217  36.887  43.140   7.964
 1041POPC   C4A16218  36.939  43.158   7.664
 1041POPC   C1B16219  36.776  42.948   8.564
 1041POPC   C2B16220  36.713  42.882   8.264
 1041POPC   C3B16221  36.762  42.890   7.964
 1041POPC   C4B16222  36.727  42.930   7.664
 1042POPC   NC316223  36.856   6.673   9.464
 1042POPC   PO416224  36.927   6.607   9.164
 1042POPC   GL116225  36.903   6.645   8.864
 1042POPC   GL216226  36.926   6.720   8.864
 1042POPC   C1A16227  36.928   6.618   8.564
 1042POPC   D2A16228  36.951   6.662   8.264
 1042POPC   C3A16229  36.884   6.642   7.964
 1042POPC   C4A16230  36.898   6.605   7.664
 1042POPC   C1B16231  36.938   6.873   8.564
 1042POPC   C2B16232  36.902   6.894   8.264
 1042POPC   C3B16233  36.951   6.892   7.964
 1042POPC   C4B16234  36.925   6.900   7.664
 1043POPC   NC316235  43.147  33.772   9.464
 1043POPC   PO416236  43.129  33.825   9.164
 1043POPC   GL116237  43.110  33.759   8.864
 1043POPC   GL216238  43.168  33.897   8.864
 1043POPC   C1A16239  43.087  33.796   8.564
 1043POPC   D2A16240  43.088  33.846   8.264
 1043POPC   C3A16241  43.139  33.839   7.964
 1043POPC   C4A16242  43.102  33.782   7.664
 1043POPC   C1B16243  43.183  34.063   8.564
 1043POPC   C2B16244  43.194  34.021   8.264
 1043POPC   C3B16245  43.262  33.972   7.964
 1043POPC   C4B16246  43.181  34.026   7.664
 1044POPC   NC316247   1.246  41.564   9.464
 1044POPC   PO416248   1.238  41.521   9.164
 1044POPC   GL116249   1.249  41.514   8.864
 1044POPC   GL216250   1.240  41.643   8.864
 1044POPC   C1A16251   1.242  41.596   8.564
 1044POPC   D2A16252   1.211  41.552   8.264
 1044POPC   C3A16253   1.257  41.562   7.964
 1044POPC   C4A16254   1.262  41.596   7.664
 1044POPC   C1B16255   1.353  41.803   8.564
 1044POPC   C2B16256   1.305  41.727   8.264
 1044POPC   C3B16257   1.353  41.778   7.964
 1044POPC   C4B16258   1.348  41.791   7.664
 1045POPC   NC316259  43.884  16.685   9.464
 1045POPC   PO416260  43.927  16.706   9.164
 1045POPC   GL116261  43.880  16.751   8.864
 1045POPC   GL216262  43.985  16.756   8.864
 1045POPC   C1A16263  43.881  16.767   8.564
 1045POPC   D2A16264  43.932  16.752   8.264
 1045POPC   C3A16265  43.904  16.732   7.964
 1045POPC   C4A16266  43.932  16.765   7.664
 1045POPC   C1B16267  44.106  16.805   8.564
 1045POPC   C2B16268  44.119  16.829   8.264
 1045POPC   C3B16269  44.153  16.821   7.964
 1045POPC   C4B16270  44.095  16.797   7.664
 1046POPC   NC316271  34.607  26.086   9.464
 1046POPC   PO416272  34.568  26.064   9.164
 1046POPC   GL116273  34.613  26.001   8.864
 1046POPC   GL216274  34.455  26.026   8.864
 1046POPC   C1A16275  34.549  26.056   8.564
 1046POPC   D2A16276  34.562  26.071   8.264
 1046POPC   C3A16277  34.576  26.044   7.964
 1046POPC   C4A16278  34.541  25.993   7.664
 1046POPC   C1B16279  34.359  26.058   8.564
 1046POPC   C2B16280  34.325  26.109   8.264
 1046POPC   C3B16281  34.293  26.060   7.964
 1046POPC   C4B16282  34.284  26.115   7.664
 1047POPC   NC316283  16.773  31.508   9.464
 1047POPC   PO416284  16.735  31.425   9.164
 1047POPC   GL116285  16.779  31.472   8.864
 1047POPC   GL216286  16.693  31.554   8.864
 1047POPC   C1A16287  16.704  31.458   8.564
 1047POPC   D2A16288  16.701  31.440   8.264
 1047POPC   C3A16289  16.712  31.504   7.964
 1047POPC   C4A16290  16.698  31.454   7.664
 1047POPC   C1B16291  16.655  31.752   8.564
 1047POPC   C2B16292  16.684  31.687   8.264
 1047POPC   C3B16293  16.628  31.694   7.964
 1047POPC   C4B16294  16.683  31.747   7.664
 1048POPC   NC316295   1.979  29.100   9.464
 1048POPC   PO416296   1.996  29.191   9.164
 1048POPC   GL116297   2.032  29.191   8.864
 1048POPC   GL216298   1.969  29.056   8.864
 1048POPC   C1A16299   2.004  29.175   8.564
 1048POPC   D2A16300   1.983  29.154   8.264
 1048POPC   C3A16301   1.990  29.099   7.964
 1048POPC   C4A16302   1.957  29.134   7.664
 1048POPC   C1B16303   1.904  28.903   8.564
 1048POPC   C2B16304   1.966  28.923   8.264
 1048POPC   C3B16305   1.920  28.920   7.964
 1048POPC   C4B16306   1.960  28.927   7.664
 1049POPC   NC316307  40.735  10.553   9.464
 1049POPC   PO416308  40.771  10.529   9.164
 1049POPC   GL116309  40.737  10.484   8.864
 1049POPC   GL216310  40.720  10.504   8.864
 1049POPC   C1A16311  40.736  10.524   8.564
 1049POPC   D2A16312  40.751  10.572   8.264
 1049POPC   C3A16313  40.757  10.504   7.964
 1049POPC   C4A16314  40.739  10.566   7.664
 1049POPC   C1B16315  40.583  10.453   8.564
 1049POPC   C2B16316  40.607  10.454   8.264
 1049POPC   C3B16317  40.512  10.361   7.964
 1049POPC   C4B16318  40.559  10.422   7.664
 1050POPC   NC316319  19.808  29.149   9.464
 1050POPC   PO416320  19.809  29.109   9.164
 1050POPC   GL116321  19.819  29.184   8.864
 1050POPC   GL216322  19.744  29.081   8.864
 1050POPC   C1A16323  19.837  29.133   8.564
 1050POPC   D2A16324  19.807  29.168   8.264
 1050POPC   C3A16325  19.819  29.142   7.964
 1050POPC   C4A16326  19.881  29.119   7.664
 1050POPC   C1B16327  19.684  28.924   8.564
 1050POPC   C2B16328  19.697  28.914   8.264
 1050POPC   C3B16329  19.663  28.985   7.964
 1050POPC   C4B16330  19.665  28.974   7.664
 1051POPC   NC316331   7.393  11.303   9.464
 1051POPC   PO416332   7.468  11.325   9.164
 1051POPC   GL116333   7.422  11.253   8.864
 1051POPC   GL216334   7.423  11.467   8.864
 1051POPC   C1A16335   7.409  11.306   8.564
 1051POPC   D2A16336   7.442  11.262   8.264
 1051POPC   C3A16337   7.398  11.292   7.964
 1051POPC   C4A16338   7.453  11.328   7.664
 1051POPC   C1B16339   7.353  11.520   8.564
 1051POPC   C2B16340   7.368  11.551   8.264
 1051POPC   C3B16341   7.404  11.583   7.964
 1051POPC   C4B16342   7.390  11.561   7.664
 1052POPC   NC316343  41.580  14.363   9.464
 1052POPC   PO416344  41.555  14.387   9.164
 1052POPC   GL116345  41.554  14.401   8.864
 1052POPC   GL216346  41.711  14.449   8.864
 1052POPC   C1A16347  41.521  14.365   8.564
 1052POPC   D2A16348  41.517  14.410   8.264
 1052POPC   C3A16349  41.603  14.421   7.964
 1052POPC   C4A16350  41.531  14.411   7.664
 1052POPC   C1B16351  41.853  14.476   8.564
 1052POPC   C2B16352  41.811  14.449   8.264
 1052POPC   C3B16353  41.759  14.417   7.964
 1052POPC   C4B16354  41.802  14.459   7.664
 1053POPC   NC316355  18.268  29.896   9.464
 1053POPC   PO416356  18.249  29.924   9.164
 1053POPC   GL116357  18.279  29.956   8.864
 1053POPC   GL216358  18.193  29.833   8.864
 1053POPC   C1A16359  18.292  29.963   8.564
 1053POPC   D2A16360  18.254  29.968   8.264
 1053POPC   C3A16361  18.242  29.956   7.964
 1053POPC   C4A16362  18.293  29.939   7.664
 1053POPC   C1B16363  18.046  29.843   8.564
 1053POPC   C2B16364  18.010  29.783   8.264
 1053POPC   C3B16365  18.049  29.825   7.964
 1053POPC   C4B16366  18.007  29.827   7.664
 1054POPC   NC316367  14.429  28.378   9.464
 1054POPC   PO416368  14.402  28.384   9.164
 1054POPC   GL116369  14.445  28.337   8.864
 1054POPC   GL216370  14.410  28.469   8.864
 1054POPC   C1A16371  14.385  28.413   8.564
 1054POPC   D2A16372  14.410  28.343   8.264
 1054POPC   C3A16373  14.384  28.407   7.964
 1054POPC   C4A16374  14.399  28.393   7.664
 1054POPC   C1B16375  14.489  28.555   8.564
 1054POPC   C2B16376  14.500  28.616   8.264
 1054POPC   C3B16377  14.485  28.555   7.964
 1054POPC   C4B16378  14.527  28.593   7.664
 1055POPC   NC316379   1.241   5.051   9.464
 1055POPC   PO416380   1.173   5.082   9.164
 1055POPC   GL116381   1.182   5.058   8.864
 1055POPC   GL216382   1.140   5.257   8.864
 1055POPC   C1A16383   1.225   5.127   8.564
 1055POPC   D2A16384   1.208   5.057   8.264
 1055POPC   C3A16385   1.210   5.063   7.964
 1055POPC   C4A16386   1.223   5.123   7.664
 1055POPC   C1B16387   1.136   5.375   8.564
 1055POPC   C2B16388   1.204   5.341   8.264
 1055POPC   C3B16389   1.127   5.314   7.964
 1055POPC   C4B16390   1.195   5.292   7.664
 1056POPC   NC316391   0.390  16.759   9.464
 1056POPC   PO416392   0.485  16.763   9.164
 1056POPC   GL116393   0.456  16.737   8.864
 1056POPC   GL216394   0.269  16.697   8.864
 1056POPC   C1A16395   0.396  16.735   8.564
 1056POPC   D2A16396   0.477  16.702   8.264
 1056POPC   C3A16397   0.485  16.741   7.964
 1056POPC   C4A16398   0.414  16.694   7.664
 1056POPC   C1B16399   0.189  16.709   8.564
 1056POPC   C2B16400   0.204  16.733   8.264
 1056POPC   C3B16401   0.146  16.709   7.964
 1056POPC   C4B16402   0.188  16.753   7.664
 1057POPC   NC316403   6.692   6.597   9.464
 1057POPC   PO416404   6.604   6.646   9.164
 1057POPC   GL116405   6.644   6.616   8.864
 1057POPC   GL216406   6.621   6.740   8.864
 1057POPC   C1A16407   6.639   6.613   8.564
 1057POPC   D2A16408   6.679   6.655   8.264
 1057POPC   C3A16409   6.676   6.620   7.964
 1057POPC   C4A16410   6.690   6.678   7.664
 1057POPC   C1B16411   6.669   6.853   8.564
 1057POPC   C2B16412   6.626   6.924   8.264
 1057POPC   C3B16413   6.619   6.866   7.964
 1057POPC   C4B16414   6.679   6.856   7.664
 1058POPC   NC316415   7.463  38.461   9.464
 1058POPC   PO416416   7.421  38.441   9.164
 1058POPC   GL116417   7.448  38.445   8.864
 1058POPC   GL216418   7.434  38.521   8.864
 1058POPC   C1A16419   7.412  38.448   8.564
 1058POPC   D2A16420   7.420  38.443   8.264
 1058POPC   C3A16421   7.462  38.406   7.964
 1058POPC   C4A16422   7.399  38.416   7.664
 1058POPC   C1B16423   7.515  38.732   8.564
 1058POPC   C2B16424   7.507  38.721   8.264
 1058POPC   C3B16425   7.540  38.693   7.964
 1058POPC   C4B16426   7.514  38.666   7.664
 1059POPC   NC316427  43.922  40.824   9.464
 1059POPC   PO416428  43.878  40.774   9.164
 1059POPC   GL116429  43.925  40.804   8.864
 1059POPC   GL216430  44.011  40.716   8.864
 1059POPC   C1A16431  43.890  40.738   8.564
 1059POPC   D2A16432  43.926  40.787   8.264
 1059POPC   C3A16433  43.878  40.742   7.964
 1059POPC   C4A16434  43.873  40.773   7.664
 1059POPC   C1B16435  44.105  40.622   8.564
 1059POPC   C2B16436  44.093  40.585   8.264
 1059POPC   C3B16437  44.068  40.640   7.964
 1059POPC   C4B16438  44.066  40.600   7.664
 1060POPC   NC316439  19.058  33.752   9.464
 1060POPC   PO416440  19.055  33.817   9.164
 1060POPC   GL116441  19.066  33.761   8.864
 1060POPC   GL216442  19.098  33.915   8.864
 1060POPC   C1A16443  19.089  33.833   8.564
 1060POPC   D2A16444  19.059  33.845   8.264
 1060POPC   C3A16445  19.092  33.831   7.964
 1060POPC   C4A16446  19.091  33.820   7.664
 1060POPC   C1B16447  19.206  33.948   8.564
 1060POPC   C2B16448  19.209  34.006   8.264
 1060POPC   C3B16449  19.234  34.022   7.964
 1060POPC   C4B16450  19.235  34.002   7.664
 1061POPC   NC316451  18.289   2.003   9.464
 1061POPC   PO416452  18.278   2.012   9.164
 1061POPC   GL116453  18.283   1.981   8.864
 1061POPC   GL216454  18.309   1.870   8.864
 1061POPC   C1A16455  18.269   1.993   8.564
 1061POPC   D2A16456  18.288   1.945   8.264
 1061POPC   C3A16457  18.320   2.012   7.964
 1061POPC   C4A16458  18.265   1.963   7.664
 1061POPC   C1B16459  18.323   1.726   8.564
 1061POPC   C2B16460  18.297   1.708   8.264
 1061POPC   C3B16461  18.326   1.693   7.964
 1061POPC   C4B16462  18.362   1.744   7.664
 1062POPC   NC316463  36.080  38.444   9.464
 1062POPC   PO416464  36.084  38.454   9.164
 1062POPC   GL116465  36.103  38.426   8.864
 1062POPC   GL216466  36.024  38.489   8.864
 1062POPC   C1A16467  36.109  38.465   8.564
 1062POPC   D2A16468  36.151  38.474   8.264
 1062POPC   C3A16469  36.118  38.459   7.964
 1062POPC   C4A16470  36.131  38.422   7.664
 1062POPC   C1B16471  35.859  38.525   8.564
 1062POPC   C2B16472  35.909  38.535   8.264
 1062POPC   C3B16473  35.867  38.508   7.964
 1062POPC   C4B16474  35.919  38.551   7.664
 1063POPC   NC316475  32.281  39.257   9.464
 1063POPC   PO416476  32.236  39.217   9.164
 1063POPC   GL116477  32.223  39.278   8.864
 1063POPC   GL216478  32.369  39.150   8.864
 1063POPC   C1A16479  32.244  39.256   8.564
 1063POPC   D2A16480  32.253  39.182   8.264
 1063POPC   C3A16481  32.275  39.232   7.964
 1063POPC   C4A16482  32.255  39.190   7.664
 1063POPC   C1B16483  32.449  39.203   8.564
 1063POPC   C2B16484  32.527  39.204   8.264
 1063POPC   C3B16485  32.505  39.150   7.964
 1063POPC   C4B16486  32.504  39.204   7.664
 1064POPC   NC316487  20.630  36.942   9.464
 1064POPC   PO416488  20.646  36.862   9.164
 1064POPC   GL116489  20.587  36.872   8.864
 1064POPC   GL216490  20.549  37.053   8.864
 1064POPC   C1A16491  20.560  36.888   8.564
 1064POPC   D2A16492  20.595  36.867   8.264
 1064POPC   C3A16493  20.603  36.949   7.964
 1064POPC   C4A16494  20.641  36.929   7.664
 1064POPC   C1B16495  20.600  37.187   8.564
 1064POPC   C2B16496  20.570  37.145   8.264
 1064POPC   C3B16497  20.602  37.155   7.964
 1064POPC   C4B16498  20.596  37.139   7.664
 1065POPC   NC316499  36.858  29.908   9.464
 1065POPC   PO416500  36.888  29.901   9.164
 1065POPC   GL116501  36.885  29.932   8.864
 1065POPC   GL216502  36.885  29.793   8.864
 1065POPC   C1A16503  36.947  29.910   8.564
 1065POPC   D2A16504  36.926  29.952   8.264
 1065POPC   C3A16505  36.934  29.969   7.964
 1065POPC   C4A16506  36.948  29.883   7.664
 1065POPC   C1B16507  36.816  29.733   8.564
 1065POPC   C2B16508  36.823  29.657   8.264
 1065POPC   C3B16509  36.800  29.672   7.964
 1065POPC   C4B16510  36.754  29.740   7.664
 1066POPC   NC316511  26.058  28.353   9.464
 1066POPC   PO416512  26.050  28.368   9.164
 1066POPC   GL116513  25.998  28.369   8.864
 1066POPC   GL216514  26.053  28.439   8.864
 1066POPC   C1A16515  26.016  28.346   8.564
 1066POPC   D2A16516  26.005  28.360   8.264
 1066POPC   C3A16517  26.064  28.351   7.964
 1066POPC   C4A16518  26.036  28.410   7.664
 1066POPC   C1B16519  26.134  28.622   8.564
 1066POPC   C2B16520  26.157  28.582   8.264
 1066POPC   C3B16521  26.158  28.626   7.964
 1066POPC   C4B16522  26.106  28.620   7.664
 1067POPC   NC316523  26.073  33.065   9.464
 1067POPC   PO416524  26.040  32.996   9.164
 1067POPC   GL116525  26.006  33.055   8.864
 1067POPC   GL216526  26.187  33.037   8.864
 1067POPC   C1A16527  26.021  33.016   8.564
 1067POPC   D2A16528  26.000  32.994   8.264
 1067POPC   C3A16529  26.017  32.996   7.964
 1067POPC   C4A16530  26.074  33.010   7.664
 1067POPC   C1B16531  26.284  33.031   8.564
 1067POPC   C2B16532  26.249  32.959   8.264
 1067POPC   C3B16533  26.260  32.998   7.964
 1067POPC   C4B16534  26.320  33.000   7.664
 1068POPC   NC316535  14.433  29.953   9.464
 1068POPC   PO416536  14.372  29.949   9.164
 1068POPC   GL116537  14.419  29.877   8.864
 1068POPC   GL216538  14.445  29.783   8.864
 1068POPC   C1A16539  14.444  29.930   8.564
 1068POPC   D2A16540  14.376  29.945   8.264
 1068POPC   C3A16541  14.422  29.933   7.964
 1068POPC   C4A16542  14.361  29.910   7.664
 1068POPC   C1B16543  14.479  29.711   8.564
 1068POPC   C2B16544  14.484  29.653   8.264
 1068POPC   C3B16545  14.536  29.697   7.964
 1068POPC   C4B16546  14.461  29.727   7.664
 1069POPC   NC316547  36.161  26.037   9.464
 1069POPC   PO416548  36.147  25.994   9.164
 1069POPC   GL116549  36.113  26.017   8.864
 1069POPC   GL216550  36.111  26.193   8.864
 1069POPC   C1A16551  36.109  26.085   8.564
 1069POPC   D2A16552  36.112  26.006   8.264
 1069POPC   C3A16553  36.173  26.076   7.964
 1069POPC   C4A16554  36.122  26.043   7.664
 1069POPC   C1B16555  36.033  26.310   8.564
 1069POPC   C2B16556  35.997  26.227   8.264
 1069POPC   C3B16557  35.988  26.261   7.964
 1069POPC   C4B16558  35.999  26.292   7.664
 1070POPC   NC316559  26.858  21.379   9.464
 1070POPC   PO416560  26.825  21.425   9.164
 1070POPC   GL116561  26.806  21.377   8.864
 1070POPC   GL216562  26.966  21.306   8.864
 1070POPC   C1A16563  26.785  21.403   8.564
 1070POPC   D2A16564  26.843  21.337   8.264
 1070POPC   C3A16565  26.782  21.397   7.964
 1070POPC   C4A16566  26.781  21.426   7.664
 1070POPC   C1B16567  27.008  21.320   8.564
 1070POPC   C2B16568  27.080  21.304   8.264
 1070POPC   C3B16569  26.997  21.257   7.964
 1070POPC   C4B16570  26.994  21.321   7.664
 1071POPC   NC316571  44.661  28.350   9.464
 1071POPC   PO416572  44.703  28.377   9.164
 1071POPC   GL116573  44.652  28.383   8.864
 1071POPC   GL216574  44.550  28.450   8.864
 1071POPC   C1A16575  44.623  28.354   8.564
 1071POPC   D2A16576  44.614  28.417   8.264
 1071POPC   C3A16577  44.630  28.389   7.964
 1071POPC   C4A16578  44.647  28.358   7.664
 1071POPC   C1B16579  44.449  28.535   8.564
 1071POPC   C2B16580  44.500  28.562   8.264
 1071POPC   C3B16581  44.499  28.551   7.964
 1071POPC   C4B16582  44.458  28.565   7.664
 1072POPC   NC316583  29.153  13.631   9.464
 1072POPC   PO416584  29.177  13.628   9.164
 1072POPC   GL116585  29.178  13.613   8.864
 1072POPC   GL216586  29.052  13.634   8.864
 1072POPC   C1A16587  29.184  13.654   8.564
 1072POPC   D2A16588  29.150  13.639   8.264
 1072POPC   C3A16589  29.113  13.594   7.964
 1072POPC   C4A16590  29.177  13.666   7.664
 1072POPC   C1B16591  28.858  13.714   8.564
 1072POPC   C2B16592  28.871  13.657   8.264
 1072POPC   C3B16593  28.887  13.694   7.964
 1072POPC   C4B16594  28.895  13.681   7.664
 1073POPC   NC316595  26.085  43.915   9.464
 1073POPC   PO416596  26.084  43.859   9.164
 1073POPC   GL116597  26.084  43.915   8.864
 1073POPC   GL216598  26.124  43.799   8.864
 1073POPC   C1A16599  26.008  43.924   8.564
 1073POPC   D2A16600  26.056  43.840   8.264
 1073POPC   C3A16601  26.020  43.874   7.964
 1073POPC   C4A16602  26.088  43.847   7.664
 1073POPC   C1B16603  26.289  43.803   8.564
 1073POPC   C2B16604  26.253  43.801   8.264
 1073POPC   C3B16605  26.319  43.761   7.964
 1073POPC   C4B16606  26.315  43.833   7.664
 1074POPC   NC316607   1.964  44.635   9.464
 1074POPC   PO416608   1.994  44.705   9.164
 1074POPC   GL116609   1.963  44.691   8.864
 1074POPC   GL216610   2.011  44.551   8.864
 1074POPC   C1A16611   2.003  44.617   8.564
 1074POPC   D2A16612   1.953  44.651   8.264
 1074POPC   C3A16613   2.001  44.701   7.964
 1074POPC   C4A16614   2.018  44.639   7.664
 1074POPC   C1B16615   2.036  44.366   8.564
 1074POPC   C2B16616   1.984  44.441   8.264
 1074POPC   C3B16617   1.987  44.437   7.964
 1074POPC   C4B16618   2.013  44.459   7.664
 1075POPC   NC316619  33.040  37.723   9.464
 1075POPC   PO416620  32.989  37.640   9.164
 1075POPC   GL116621  33.041  37.639   8.864
 1075POPC   GL216622  33.085  37.559   8.864
 1075POPC   C1A16623  33.029  37.697   8.564
 1075POPC   D2A16624  32.989  37.685   8.264
 1075POPC   C3A16625  33.067  37.660   7.964
 1075POPC   C4A16626  33.043  37.647   7.664
 1075POPC   C1B16627  33.041  37.399   8.564
 1075POPC   C2B16628  33.090  37.442   8.264
 1075POPC   C3B16629  33.053  37.460   7.964
 1075POPC   C4B16630  33.058  37.452   7.664
 1076POPC   NC316631  33.018   8.949   9.464
 1076POPC   PO416632  33.000   8.959   9.164
 1076POPC   GL116633  32.983   8.964   8.864
 1076POPC   GL216634  32.921   8.995   8.864
 1076POPC   C1A16635  33.034   8.958   8.564
 1076POPC   D2A16636  32.998   9.016   8.264
 1076POPC   C3A16637  33.072   8.986   7.964
 1076POPC   C4A16638  33.000   9.000   7.664
 1076POPC   C1B16639  32.795   9.007   8.564
 1076POPC   C2B16640  32.771   9.038   8.264
 1076POPC   C3B16641  32.821   9.060   7.964
 1076POPC   C4B16642  32.733   9.022   7.664
 1077POPC   NC316643   5.903  15.956   9.464
 1077POPC   PO416644   5.834  15.954   9.164
 1077POPC   GL116645   5.897  15.988   8.864
 1077POPC   GL216646   5.839  15.829   8.864
 1077POPC   C1A16647   5.848  15.930   8.564
 1077POPC   D2A16648   5.823  15.950   8.264
 1077POPC   C3A16649   5.833  15.914   7.964
 1077POPC   C4A16650   5.917  15.907   7.664
 1077POPC   C1B16651   5.805  15.673   8.564
 1077POPC   C2B16652   5.884  15.688   8.264
 1077POPC   C3B16653   5.898  15.723   7.964
 1077POPC   C4B16654   5.853  15.752   7.664
 1078POPC   NC316655  11.255   3.584   9.464
 1078POPC   PO416656  11.320   3.549   9.164
 1078POPC   GL116657  11.312   3.497   8.864
 1078POPC   GL216658  11.349   3.632   8.864
 1078POPC   C1A16659  11.305   3.580   8.564
 1078POPC   D2A16660  11.310   3.504   8.264
 1078POPC   C3A16661  11.312   3.585   7.964
 1078POPC   C4A16662  11.327   3.561   7.664
 1078POPC   C1B16663  11.334   3.776   8.564
 1078POPC   C2B16664  11.337   3.787   8.264
 1078POPC   C3B16665  11.278   3.827   7.964
 1078POPC   C4B16666  11.270   3.795   7.664
 1079POPC   NC316667  32.244   5.055   9.464
 1079POPC   PO416668  32.264   5.124   9.164
 1079POPC   GL116669  32.272   5.054   8.864
 1079POPC   GL216670  32.320   4.991   8.864
 1079POPC   C1A16671  32.288   5.073   8.564
 1079POPC   D2A16672  32.241   5.050   8.264
 1079POPC   C3A16673  32.260   5.069   7.964
 1079POPC   C4A16674  32.214   5.120   7.664
 1079POPC   C1B16675  32.332   4.850   8.564
 1079POPC   C2B16676  32.376   4.873   8.264
 1079POPC   C3B16677  32.388   4.879   7.964
 1079POPC   C4B16678  32.342   4.906   7.664
 1080POPC   NC316679   0.439  12.864   9.464
 1080POPC   PO416680   0.391  12.820   9.164
 1080POPC   GL116681   0.469  12.884   8.864
 1080POPC   GL216682   0.515  12.851   8.864
 1080POPC   C1A16683   0.406  12.837   8.564
 1080POPC   D2A16684   0.447  12.829   8.264
 1080POPC   C3A16685   0.421  12.879   7.964
 1080POPC   C4A16686   0.440  12.802   7.664
 1080POPC   C1B16687   0.718  12.779   8.564
 1080POPC   C2B16688   0.647  12.793   8.264
 1080POPC   C3B16689   0.707  12.760   7.964
 1080POPC   C4B16690   0.675  12.753   7.664
 1081POPC   NC316691  23.681  28.358   9.464
 1081POPC   PO416692  23.717  28.370   9.164
 1081POPC   GL116693  23.707  28.375   8.864
 1081POPC   GL216694  23.787  28.459   8.864
 1081POPC   C1A16695  23.751  28.337   8.564
 1081POPC   D2A16696  23.733  28.412   8.264
 1081POPC   C3A16697  23.685  28.330   7.964
 1081POPC   C4A16698  23.740  28.386   7.664
 1081POPC   C1B16699  23.969  28.475   8.564
 1081POPC   C2B16700  23.990  28.446   8.264
 1081POPC   C3B16701  23.990  28.472   7.964
 1081POPC   C4B16702  23.937  28.467   7.664
 1082POPC   NC316703  16.747  38.500   9.464
 1082POPC   PO416704  16.719  38.481   9.164
 1082POPC   GL116705  16.713  38.503   8.864
 1082POPC   GL216706  16.660  38.328   8.864
 1082POPC   C1A16707  16.703  38.466   8.564
 1082POPC   D2A16708  16.748  38.421   8.264
 1082POPC   C3A16709  16.720  38.458   7.964
 1082POPC   C4A16710  16.689  38.475   7.664
 1082POPC   C1B16711  16.634  38.278   8.564
 1082POPC   C2B16712  16.615  38.228   8.264
 1082POPC   C3B16713  16.659  38.213   7.964
 1082POPC   C4B16714  16.653  38.209   7.664
 1083POPC   NC316715  17.492  25.993   9.464
 1083POPC   PO416716  17.472  26.037   9.164
 1083POPC   GL116717  17.528  26.088   8.864
 1083POPC   GL216718  17.464  26.147   8.864
 1083POPC   C1A16719  17.470  26.007   8.564
 1083POPC   D2A16720  17.466  26.066   8.264
 1083POPC   C3A16721  17.532  26.014   7.964
 1083POPC   C4A16722  17.523  26.007   7.664
 1083POPC   C1B16723  17.356  26.208   8.564
 1083POPC   C2B16724  17.410  26.229   8.264
 1083POPC   C3B16725  17.374  26.226   7.964
 1083POPC   C4B16726  17.327  26.245   7.664
 1084POPC   NC316727   1.223   8.225   9.464
 1084POPC   PO416728   1.180   8.244   9.164
 1084POPC   GL116729   1.168   8.234   8.864
 1084POPC   GL216730   1.086   8.310   8.864
 1084POPC   C1A16731   1.207   8.241   8.564
 1084POPC   D2A16732   1.258   8.204   8.264
 1084POPC   C3A16733   1.169   8.216   7.964
 1084POPC   C4A16734   1.170   8.206   7.664
 1084POPC   C1B16735   1.036   8.301   8.564
 1084POPC   C2B16736   1.011   8.352   8.264
 1084POPC   C3B16737   1.061   8.378   7.964
 1084POPC   C4B16738   1.053   8.312   7.664
 1085POPC   NC316739  33.785  19.025   9.464
 1085POPC   PO416740  33.828  19.087   9.164
 1085POPC   GL116741  33.828  19.096   8.864
 1085POPC   GL216742  33.671  19.155   8.864
 1085POPC   C1A16743  33.824  19.049   8.564
 1085POPC   D2A16744  33.782  19.039   8.264
 1085POPC   C3A16745  33.827  19.009   7.964
 1085POPC   C4A16746  33.767  19.040   7.664
 1085POPC   C1B16747  33.663  19.249   8.564
 1085POPC   C2B16748  33.673  19.273   8.264
 1085POPC   C3B16749  33.590  19.279   7.964
 1085POPC   C4B16750  33.646  19.203   7.664
 1086POPC   NC316751  30.676  11.296   9.464
 1086POPC   PO416752  30.652  11.340   9.164
 1086POPC   GL116753  30.703  11.333   8.864
 1086POPC   GL216754  30.599  11.306   8.864
 1086POPC   C1A16755  30.696  11.325   8.564
 1086POPC   D2A16756  30.733  11.346   8.264
 1086POPC   C3A16757  30.702  11.257   7.964
 1086POPC   C4A16758  30.721  11.327   7.664
 1086POPC   C1B16759  30.466  11.409   8.564
 1086POPC   C2B16760  30.419  11.335   8.264
 1086POPC   C3B16761  30.495  11.329   7.964
 1086POPC   C4B16762  30.457  11.415   7.664
 1087POPC   NC316763  23.750   0.436   9.464
 1087POPC   PO416764  23.714   0.408   9.164
 1087POPC   GL116765  23.703   0.400   8.864
 1087POPC   GL216766  23.645   0.353   8.864
 1087POPC   C1A16767  23.718   0.397   8.564
 1087POPC   D2A16768  23.696   0.438   8.264
 1087POPC   C3A16769  23.684   0.403   7.964
 1087POPC   C4A16770  23.676   0.418   7.664
 1087POPC   C1B16771  23.493   0.289   8.564
 1087POPC   C2B16772  23.497   0.260   8.264
 1087POPC   C3B16773  23.503   0.307   7.964
 1087POPC   C4B16774  23.524   0.267   7.664
 1088POPC   NC316775  33.834  37.708   9.464
 1088POPC   PO416776  33.817  37.678   9.164
 1088POPC   GL116777  33.750  37.706   8.864
 1088POPC   GL216778  33.894  37.592   8.864
 1088POPC   C1A16779  33.764  37.678   8.564
 1088POPC   D2A16780  33.790  37.630   8.264
 1088POPC   C3A16781  33.764  37.644   7.964
 1088POPC   C4A16782  33.758  37.648   7.664
 1088POPC   C1B16783  34.042  37.591   8.564
 1088POPC   C2B16784  33.994  37.589   8.264
 1088POPC   C3B16785  34.015  37.546   7.964
 1088POPC   C4B16786  34.021  37.625   7.664
 1089POPC   NC316787  21.369   5.822   9.464
 1089POPC   PO416788  21.379   5.876   9.164
 1089POPC   GL116789  21.428   5.877   8.864
 1089POPC   GL216790  21.296   5.835   8.864
 1089POPC   C1A16791  21.436   5.856   8.564
 1089POPC   D2A16792  21.385   5.888   8.264
 1089POPC   C3A16793  21.405   5.890   7.964
 1089POPC   C4A16794  21.418   5.860   7.664
 1089POPC   C1B16795  21.141   5.723   8.564
 1089POPC   C2B16796  21.197   5.781   8.264
 1089POPC   C3B16797  21.166   5.753   7.964
 1089POPC   C4B16798  21.197   5.766   7.664
 1090POPC   NC316799  36.100   8.162   9.464
 1090POPC   PO416800  36.103   8.149   9.164
 1090POPC   GL116801  36.177   8.217   8.864
 1090POPC   GL216802  36.037   8.155   8.864
 1090POPC   C1A16803  36.118   8.234   8.564
 1090POPC   D2A16804  36.171   8.196   8.264
 1090POPC   C3A16805  36.152   8.215   7.964
 1090POPC   C4A16806  36.110   8.191   7.664
 1090POPC   C1B16807  35.948   8.131   8.564
 1090POPC   C2B16808  35.907   8.078   8.264
 1090POPC   C3B16809  35.904   8.093   7.964
 1090POPC   C4B16810  35.946   8.095   7.664
 1091POPC   NC316811  29.189  43.083   9.464
 1091POPC   PO416812  29.159  43.123   9.164
 1091POPC   GL116813  29.186  43.125   8.864
 1091POPC   GL216814  29.064  43.093   8.864
 1091POPC   C1A16815  29.193  43.104   8.564
 1091POPC   D2A16816  29.152  43.115   8.264
 1091POPC   C3A16817  29.142  43.105   7.964
 1091POPC   C4A16818  29.096  43.093   7.664
 1091POPC   C1B16819  28.914  43.001   8.564
 1091POPC   C2B16820  28.896  42.986   8.264
 1091POPC   C3B16821  28.966  42.961   7.964
 1091POPC   C4B16822  28.947  43.010   7.664
 1092POPC   NC316823   5.072  21.405   9.464
 1092POPC   PO416824   5.065  21.393   9.164
 1092POPC   GL116825   5.120  21.369   8.864
 1092POPC   GL216826   5.119  21.466   8.864
 1092POPC   C1A16827   5.103  21.405   8.564
 1092POPC   D2A16828   5.113  21.360   8.264
 1092POPC   C3A16829   5.062  21.374   7.964
 1092POPC   C4A16830   5.090  21.409   7.664
 1092POPC   C1B16831   5.280  21.601   8.564
 1092POPC   C2B16832   5.210  21.632   8.264
 1092POPC   C3B16833   5.209  21.538   7.964
 1092POPC   C4B16834   5.253  21.560   7.664
 1093POPC   NC316835  41.522   3.578   9.464
 1093POPC   PO416836  41.572   3.562   9.164
 1093POPC   GL116837  41.515   3.572   8.864
 1093POPC   GL216838  41.695   3.524   8.864
 1093POPC   C1A16839  41.512   3.531   8.564
 1093POPC   D2A16840  41.564   3.548   8.264
 1093POPC   C3A16841  41.599   3.587   7.964
 1093POPC   C4A16842  41.527   3.577   7.664
 1093POPC   C1B16843  41.771   3.390   8.564
 1093POPC   C2B16844  41.779   3.431   8.264
 1093POPC   C3B16845  41.749   3.416   7.964
 1093POPC   C4B16846  41.771   3.388   7.664
 1094POPC   NC316847  42.363  26.807   9.464
 1094POPC   PO416848  42.384  26.771   9.164
 1094POPC   GL116849  42.375  26.774   8.864
 1094POPC   GL216850  42.401  26.899   8.864
 1094POPC   C1A16851  42.346  26.781   8.564
 1094POPC   D2A16852  42.306  26.821   8.264
 1094POPC   C3A16853  42.347  26.838   7.964
 1094POPC   C4A16854  42.330  26.823   7.664
 1094POPC   C1B16855  42.461  27.043   8.564
 1094POPC   C2B16856  42.389  27.098   8.264
 1094POPC   C3B16857  42.465  27.004   7.964
 1094POPC   C4B16858  42.453  27.002   7.664
 1095POPC   NC316859  21.406  33.011   9.464
 1095POPC   PO416860  21.353  32.987   9.164
 1095POPC   GL116861  21.382  33.058   8.864
 1095POPC   GL216862  21.557  33.051   8.864
 1095POPC   C1A16863  21.429  33.001   8.564
 1095POPC   D2A16864  21.401  33.016   8.264
 1095POPC   C3A16865  21.373  33.017   7.964
 1095POPC   C4A16866  21.399  33.053   7.664
 1095POPC   C1B16867  21.674  33.029   8.564
 1095POPC   C2B16868  21.626  33.051   8.264
 1095POPC   C3B16869  21.636  33.055   7.964
 1095POPC   C4B16870  21.617  32.981   7.664
 1096POPC   NC316871  17.534  36.912   9.464
 1096POPC   PO416872  17.553  36.945   9.164
 1096POPC   GL116873  17.507  36.901   8.864
 1096POPC   GL216874  17.586  36.956   8.864
 1096POPC   C1A16875  17.505  36.889   8.564
 1096POPC   D2A16876  17.557  36.930   8.264
 1096POPC   C3A16877  17.521  36.918   7.964
 1096POPC   C4A16878  17.481  36.942   7.664
 1096POPC   C1B16879  17.715  36.926   8.564
 1096POPC   C2B16880  17.784  36.980   8.264
 1096POPC   C3B16881  17.761  36.900   7.964
 1096POPC   C4B16882  17.772  36.963   7.664
 1097POPC   NC316883   6.610  15.932   9.464
 1097POPC   PO416884   6.607  15.947   9.164
 1097POPC   GL116885   6.668  15.907   8.864
 1097POPC   GL216886   6.776  15.961   8.864
 1097POPC   C1A16887   6.690  15.939   8.564
 1097POPC   D2A16888   6.692  15.924   8.264
 1097POPC   C3A16889   6.654  15.956   7.964
 1097POPC   C4A16890   6.695  16.004   7.664
 1097POPC   C1B16891   6.880  15.886   8.564
 1097POPC   C2B16892   6.885  15.887   8.264
 1097POPC   C3B16893   6.881  15.895   7.964
 1097POPC   C4B16894   6.832  15.852   7.664
 1098POPC   NC316895   2.738  41.571   9.464
 1098POPC   PO416896   2.792  41.595   9.164
 1098POPC   GL116897   2.781  41.570   8.864
 1098POPC   GL216898   2.803  41.708   8.864
 1098POPC   C1A16899   2.792  41.513   8.564
 1098POPC   D2A16900   2.780  41.523   8.264
 1098POPC   C3A16901   2.756  41.604   7.964
 1098POPC   C4A16902   2.759  41.574   7.664
 1098POPC   C1B16903   2.847  41.755   8.564
 1098POPC   C2B16904   2.849  41.796   8.264
 1098POPC   C3B16905   2.884  41.758   7.964
 1098POPC   C4B16906   2.834  41.781   7.664
 1099POPC   NC316907  22.181  15.207   9.464
 1099POPC   PO416908  22.116  15.151   9.164
 1099POPC   GL116909  22.147  15.182   8.864
 1099POPC   GL216910  22.243  15.224   8.864
 1099POPC   C1A16911  22.132  15.171   8.564
 1099POPC   D2A16912  22.194  15.188   8.264
 1099POPC   C3A16913  22.158  15.216   7.964
 1099POPC   C4A16914  22.119  15.140   7.664
 1099POPC   C1B16915  22.411  15.228   8.564
 1099POPC   C2B16916  22.401  15.320   8.264
 1099POPC   C3B16917  22.406  15.315   7.964
 1099POPC   C4B16918  22.442  15.324   7.664
 1100POPC   NC316919  37.657  43.872   9.464
 1100POPC   PO416920  37.658  43.935   9.164
 1100POPC   GL116921  37.689  43.860   8.864
 1100POPC   GL216922  37.822  43.828   8.864
 1100POPC   C1A16923  37.722  43.923   8.564
 1100POPC   D2A16924  37.695  43.904   8.264
 1100POPC   C3A16925  37.667  43.864   7.964
 1100POPC   C4A16926  37.693  43.883   7.664
 1100POPC   C1B16927  37.860  43.802   8.564
 1100POPC   C2B16928  37.872  43.741   8.264
 1100POPC   C3B16929  37.908  43.725   7.964
 1100POPC   C4B16930  37.859  43.722   7.664
 1101POPC   NC316931  40.798  43.928   9.464
 1101POPC   PO416932  40.822  43.892   9.164
 1101POPC   GL116933  40.811  43.901   8.864
 1101POPC   GL216934  40.789  43.806   8.864
 1101POPC   C1A16935  40.794  43.868   8.564
 1101POPC   D2A16936  40.787  43.910   8.264
 1101POPC   C3A16937  40.748  43.888   7.964
 1101POPC   C4A16938  40.763  43.878   7.664
 1101POPC   C1B16939  40.716  43.641   8.564
 1101POPC   C2B16940  40.716  43.610   8.264
 1101POPC   C3B16941  40.725  43.681   7.964
 1101POPC   C4B16942  40.751  43.662   7.664
 1102POPC   NC316943  44.627  34.617   9.464
 1102POPC   PO416944  44.696  34.609   9.164
 1102POPC   GL116945  44.712  34.605   8.864
 1102POPC   GL216946  44.528  34.663   8.864
 1102POPC   C1A16947  44.654  34.545   8.564
 1102POPC   D2A16948  44.662  34.595   8.264
 1102POPC   C3A16949  44.701  34.602   7.964
 1102POPC   C4A16950  44.629  34.612   7.664
 1102POPC   C1B16951  44.435  34.685   8.564
 1102POPC   C2B16952  44.411  34.711   8.264
 1102POPC   C3B16953  44.422  34.722   7.964
 1102POPC   C4B16954  44.384  34.717   7.664
 1103POPC   NC316955   5.824  39.968   9.464
 1103POPC   PO416956   5.835  39.995   9.164
 1103POPC   GL116957   5.820  39.971   8.864
 1103POPC   GL216958   5.809  39.929   8.864
 1103POPC   C1A16959   5.865  40.042   8.564
 1103POPC   D2A16960   5.836  39.982   8.264
 1103POPC   C3A16961   5.879  40.002   7.964
 1103POPC   C4A16962   5.836  40.021   7.664
 1103POPC   C1B16963   5.776  39.735   8.564
 1103POPC   C2B16964   5.818  39.752   8.264
 1103POPC   C3B16965   5.859  39.796   7.964
 1103POPC   C4B16966   5.821  39.786   7.664
 1104POPC   NC316967  22.900  12.075   9.464
 1104POPC   PO416968  22.971  12.070   9.164
 1104POPC   GL116969  22.902  12.070   8.864
 1104POPC   GL216970  22.794  12.052   8.864
 1104POPC   C1A16971  22.942  12.118   8.564
 1104POPC   D2A16972  22.931  12.032   8.264
 1104POPC   C3A16973  22.936  12.100   7.964
 1104POPC   C4A16974  22.897  12.031   7.664
 1104POPC   C1B16975  22.677  11.959   8.564
 1104POPC   C2B16976  22.691  12.003   8.264
 1104POPC   C3B16977  22.667  11.927   7.964
 1104POPC   C4B16978  22.667  11.932   7.664
 1105POPC   NC316979  28.353   5.086   9.464
 1105POPC   PO416980  28.363   5.051   9.164
 1105POPC   GL116981  28.325   5.139   8.864
 1105POPC   GL216982  28.285   5.064   8.864
 1105POPC   C1A16983  28.339   5.066   8.564
 1105POPC   D2A16984  28.353   5.066   8.264
 1105POPC   C3A16985  28.395   5.051   7.964
 1105POPC   C4A16986  28.385   5.065   7.664
 1105POPC   C1B16987  28.140   4.924   8.564
 1105POPC   C2B16988  28.140   4.983   8.264
 1105POPC   C3B16989  28.156   5.001   7.964
 1105POPC   C4B16990  28.104   4.944   7.664
 1106POPC   NC316991  43.919   8.224   9.464
 1106POPC   PO416992  43.920   8.211   9.164
 1106POPC   GL116993  43.931   8.217   8.864
 1106POPC   GL216994  43.839   8.355   8.864
 1106POPC   C1A16995  43.875   8.219   8.564
 1106POPC   D2A16996  43.868   8.197   8.264
 1106POPC   C3A16997  43.912   8.169   7.964
 1106POPC   C4A16998  43.935   8.161   7.664
 1106POPC   C1B16999  43.832   8.422   8.564
 1106POPC   C2B17000  43.764   8.421   8.264
 1106POPC   C3B17001  43.836   8.463   7.964
 1106POPC   C4B17002  43.801   8.442   7.664
 1107POPC   NC317003  35.307  39.959   9.464
 1107POPC   PO417004  35.341  40.049   9.164
 1107POPC   GL117005  35.354  40.003   8.864
 1107POPC   GL217006  35.264  40.122   8.864
 1107POPC   C1A17007  35.325  39.966   8.564
 1107POPC   D2A17008  35.326  39.964   8.264
 1107POPC   C3A17009  35.364  40.007   7.964
 1107POPC   C4A17010  35.335  39.959   7.664
 1107POPC   C1B17011  35.138  40.132   8.564
 1107POPC   C2B17012  35.137  40.159   8.264
 1107POPC   C3B17013  35.128  40.173   7.964
 1107POPC   C4B17014  35.129  40.216   7.664
 1108POPC   NC317015   2.025  15.215   9.464
 1108POPC   PO417016   2.000  15.161   9.164
 1108POPC   GL117017   1.964  15.155   8.864
 1108POPC   GL217018   1.883  15.216   8.864
 1108POPC   C1A17019   1.976  15.164   8.564
 1108POPC   D2A17020   1.968  15.141   8.264
 1108POPC   C3A17021   1.951  15.150   7.964
 1108POPC   C4A17022   1.988  15.168   7.664
 1108POPC   C1B17023   1.766  15.201   8.564
 1108POPC   C2B17024   1.726  15.145   8.264
 1108POPC   C3B17025   1.767  15.215   7.964
 1108POPC   C4B17026   1.696  15.195   7.664
 1109POPC   NC317027   0.396  28.379   9.464
 1109POPC   PO417028   0.449  28.320   9.164
 1109POPC   GL117029   0.454  28.343   8.864
 1109POPC   GL217030   0.383  28.476   8.864
 1109POPC   C1A17031   0.431  28.356   8.564
 1109POPC   D2A17032   0.458  28.367   8.264
 1109POPC   C3A17033   0.391  28.380   7.964
 1109POPC   C4A17034   0.443  28.380   7.664
 1109POPC   C1B17035   0.334  28.581   8.564
 1109POPC   C2B17036   0.378  28.608   8.264
 1109POPC   C3B17037   0.367  28.597   7.964
 1109POPC   C4B17038   0.286  28.593   7.664
 1110POPC   NC317039  41.521  22.922   9.464
 1110POPC   PO417040  41.528  22.933   9.164
 1110POPC   GL117041  41.566  22.947   8.864
 1110POPC   GL217042  41.559  23.013   8.864
 1110POPC   C1A17043  41.586  22.979   8.564
 1110POPC   D2A17044  41.580  22.948   8.264
 1110POPC   C3A17045  41.585  22.930   7.964
 1110POPC   C4A17046  41.605  22.893   7.664
 1110POPC   C1B17047  41.525  23.194   8.564
 1110POPC   C2B17048  41.545  23.211   8.264
 1110POPC   C3B17049  41.536  23.187   7.964
 1110POPC   C4B17050  41.592  23.237   7.664
 1111POPC   NC317051  14.371   0.440   9.464
 1111POPC   PO417052  14.378   0.436   9.164
 1111POPC   GL117053  14.365   0.393   8.864
 1111POPC   GL217054  14.569   0.370   8.864
 1111POPC   C1A17055  14.444   0.429   8.564
 1111POPC   D2A17056  14.436   0.431   8.264
 1111POPC   C3A17057  14.357   0.434   7.964
 1111POPC   C4A17058  14.420   0.468   7.664
 1111POPC   C1B17059  14.653   0.343   8.564
 1111POPC   C2B17060  14.600   0.394   8.264
 1111POPC   C3B17061  14.606   0.336   7.964
 1111POPC   C4B17062  14.615   0.377   7.664
 1112POPC   NC317063  40.788  40.736   9.464
 1112POPC   PO417064  40.772  40.769   9.164
 1112POPC   GL117065  40.796  40.734   8.864
 1112POPC   GL217066  40.786  40.687   8.864
 1112POPC   C1A17067  40.734  40.745   8.564
 1112POPC   D2A17068  40.780  40.763   8.264
 1112POPC   C3A17069  40.827  40.778   7.964
 1112POPC   C4A17070  40.801  40.739   7.664
 1112POPC   C1B17071  40.889  40.522   8.564
 1112POPC   C2B17072  40.840  40.540   8.264
 1112POPC   C3B17073  40.878  40.556   7.964
 1112POPC   C4B17074  40.890  40.589   7.664
 1113POPC   NC317075  39.247  40.755   9.464
 1113POPC   PO417076  39.253  40.736   9.164
 1113POPC   GL117077  39.213  40.781   8.864
 1113POPC   GL217078  39.243  40.631   8.864
 1113POPC   C1A17079  39.267  40.817   8.564
 1113POPC   D2A17080  39.278  40.740   8.264
 1113POPC   C3A17081  39.183  40.735   7.964
 1113POPC   C4A17082  39.207  40.798   7.664
 1113POPC   C1B17083  39.266  40.517   8.564
 1113POPC   C2B17084  39.269  40.515   8.264
 1113POPC   C3B17085  39.247  40.503   7.964
 1113POPC   C4B17086  39.243  40.523   7.664
 1114POPC   NC317087  10.530   0.440   9.464
 1114POPC   PO417088  10.556   0.473   9.164
 1114POPC   GL117089  10.479   0.482   8.864
 1114POPC   GL217090  10.452   0.531   8.864
 1114POPC   C1A17091  10.552   0.414   8.564
 1114POPC   D2A17092  10.535   0.407   8.264
 1114POPC   C3A17093  10.571   0.433   7.964
 1114POPC   C4A17094  10.502   0.408   7.664
 1114POPC   C1B17095  10.426   0.685   8.564
 1114POPC   C2B17096  10.464   0.688   8.264
 1114POPC   C3B17097  10.451   0.702   7.964
 1114POPC   C4B17098  10.403   0.666   7.664
 1115POPC   NC317099  19.807  30.746   9.464
 1115POPC   PO417100  19.791  30.647   9.164
 1115POPC   GL117101  19.879  30.666   8.864
 1115POPC   GL217102  19.936  30.815   8.864
 1115POPC   C1A17103  19.849  30.740   8.564
 1115POPC   D2A17104  19.827  30.713   8.264
 1115POPC   C3A17105  19.851  30.726   7.964
 1115POPC   C4A17106  19.831  30.647   7.664
 1115POPC   C1B17107  19.980  30.852   8.564
 1115POPC   C2B17108  19.958  30.879   8.264
 1115POPC   C3B17109  20.005  30.843   7.964
 1115POPC   C4B17110  20.033  30.883   7.664
 1116POPC   NC317111  40.755  22.902   9.464
 1116POPC   PO417112  40.825  22.921   9.164
 1116POPC   GL117113  40.772  22.896   8.864
 1116POPC   GL217114  40.747  22.840   8.864
 1116POPC   C1A17115  40.737  22.910   8.564
 1116POPC   D2A17116  40.777  22.912   8.264
 1116POPC   C3A17117  40.780  22.968   7.964
 1116POPC   C4A17118  40.826  22.982   7.664
 1116POPC   C1B17119  40.632  22.784   8.564
 1116POPC   C2B17120  40.595  22.758   8.264
 1116POPC   C3B17121  40.618  22.777   7.964
 1116POPC   C4B17122  40.677  22.770   7.664
 1117POPC   NC317123   7.373  33.048   9.464
 1117POPC   PO417124   7.382  32.985   9.164
 1117POPC   GL117125   7.405  33.018   8.864
 1117POPC   GL217126   7.350  32.960   8.864
 1117POPC   C1A17127   7.449  33.018   8.564
 1117POPC   D2A17128   7.373  33.032   8.264
 1117POPC   C3A17129   7.429  32.986   7.964
 1117POPC   C4A17130   7.381  33.023   7.664
 1117POPC   C1B17131   7.255  32.859   8.564
 1117POPC   C2B17132   7.191  32.894   8.264
 1117POPC   C3B17133   7.164  32.922   7.964
 1117POPC   C4B17134   7.168  32.915   7.664
 1118POPC   NC317135  35.358  12.856   9.464
 1118POPC   PO417136  35.339  12.815   9.164
 1118POPC   GL117137  35.322  12.845   8.864
 1118POPC   GL217138  35.210  12.930   8.864
 1118POPC   C1A17139  35.333  12.846   8.564
 1118POPC   D2A17140  35.325  12.838   8.264
 1118POPC   C3A17141  35.386  12.809   7.964
 1118POPC   C4A17142  35.304  12.834   7.664
 1118POPC   C1B17143  35.095  12.956   8.564
 1118POPC   C2B17144  35.113  12.959   8.264
 1118POPC   C3B17145  35.066  12.863   7.964
 1118POPC   C4B17146  35.072  12.925   7.664
 1119POPC   NC317147  39.238  28.356   9.464
 1119POPC   PO417148  39.224  28.380   9.164
 1119POPC   GL117149  39.218  28.322   8.864
 1119POPC   GL217150  39.121  28.448   8.864
 1119POPC   C1A17151  39.196  28.391   8.564
 1119POPC   D2A17152  39.202  28.380   8.264
 1119POPC   C3A17153  39.260  28.358   7.964
 1119POPC   C4A17154  39.256  28.374   7.664
 1119POPC   C1B17155  39.113  28.581   8.564
 1119POPC   C2B17156  39.053  28.623   8.264
 1119POPC   C3B17157  39.056  28.552   7.964
 1119POPC   C4B17158  39.129  28.614   7.664
 1120POPC   NC317159  17.511  33.819   9.464
 1120POPC   PO417160  17.547  33.779   9.164
 1120POPC   GL117161  17.482  33.809   8.864
 1120POPC   GL217162  17.430  33.840   8.864
 1120POPC   C1A17163  17.529  33.801   8.564
 1120POPC   D2A17164  17.542  33.789   8.264
 1120POPC   C3A17165  17.520  33.829   7.964
 1120POPC   C4A17166  17.501  33.800   7.664
 1120POPC   C1B17167  17.210  33.795   8.564
 1120POPC   C2B17168  17.308  33.838   8.264
 1120POPC   C3B17169  17.298  33.865   7.964
 1120POPC   C4B17170  17.286  33.865   7.664
 1121POPC   NC317171  36.096  20.602   9.464
 1121POPC   PO417172  36.139  20.606   9.164
 1121POPC   GL117173  36.150  20.613   8.864
 1121POPC   GL217174  36.137  20.443   8.864
 1121POPC   C1A17175  36.118  20.587   8.564
 1121POPC   D2A17176  36.088  20.625   8.264
 1121POPC   C3A17177  36.094  20.656   7.964
 1121POPC   C4A17178  36.174  20.604   7.664
 1121POPC   C1B17179  36.027  20.387   8.564
 1121POPC   C2B17180  36.024  20.406   8.264
 1121POPC   C3B17181  36.054  20.410   7.964
 1121POPC   C4B17182  36.031  20.375   7.664
 1122POPC   NC317183  40.016   8.218   9.464
 1122POPC   PO417184  40.007   8.211   9.164
 1122POPC   GL117185  39.962   8.164   8.864
 1122POPC   GL217186  40.048   8.274   8.864
 1122POPC   C1A17187  39.998   8.173   8.564
 1122POPC   D2A17188  39.988   8.225   8.264
 1122POPC   C3A17189  40.012   8.188   7.964
 1122POPC   C4A17190  39.999   8.215   7.664
 1122POPC   C1B17191  40.102   8.377   8.564
 1122POPC   C2B17192  40.153   8.402   8.264
 1122POPC   C3B17193  40.093   8.455   7.964
 1122POPC   C4B17194  40.102   8.401   7.664
 1123POPC   NC317195  16.705  18.258   9.464
 1123POPC   PO417196  16.732  18.251   9.164
 1123POPC   GL117197  16.692  18.274   8.864
 1123POPC   GL217198  16.703  18.121   8.864
 1123POPC   C1A17199  16.701  18.252   8.564
 1123POPC   D2A17200  16.777  18.298   8.264
 1123POPC   C3A17201  16.771  18.280   7.964
 1123POPC   C4A17202  16.750  18.330   7.664
 1123POPC   C1B17203  16.763  18.005   8.564
 1123POPC   C2B17204  16.760  17.988   8.264
 1123POPC   C3B17205  16.743  18.054   7.964
 1123POPC   C4B17206  16.701  18.077   7.664
 1124POPC   NC317207  10.526  15.956   9.464
 1124POPC   PO417208  10.546  15.907   9.164
 1124POPC   GL117209  10.532  15.907   8.864
 1124POPC   GL217210  10.635  15.853   8.864
 1124POPC   C1A17211  10.538  15.975   8.564
 1124POPC   D2A17212  10.548  15.968   8.264
 1124POPC   C3A17213  10.491  15.988   7.964
 1124POPC   C4A17214  10.525  15.955   7.664
 1124POPC   C1B17215  10.689  15.723   8.564
 1124POPC   C2B17216  10.668  15.767   8.264
 1124POPC   C3B17217  10.655  15.763   7.964
 1124POPC   C4B17218  10.704  15.798   7.664
 1125POPC   NC317219   2.798  26.780   9.464
 1125POPC   PO417220   2.719  26.822   9.164
 1125POPC   GL117221   2.745  26.831   8.864
 1125POPC   GL217222   2.670  26.803   8.864
 1125POPC   C1A17223   2.728  26.839   8.564
 1125POPC   D2A17224   2.764  26.843   8.264
 1125POPC   C3A17225   2.808  26.794   7.964
 1125POPC   C4A17226   2.805  26.805   7.664
 1125POPC   C1B17227   2.492  26.862   8.564
 1125POPC   C2B17228   2.538  26.907   8.264
 1125POPC   C3B17229   2.529  26.918   7.964
 1125POPC   C4B17230   2.533  26.824   7.664
 1126POPC   NC317231  27.628  22.916   9.464
 1126POPC   PO417232  27.585  22.933   9.164
 1126POPC   GL117233  27.633  22.925   8.864
 1126POPC   GL217234  27.460  22.915   8.864
 1126POPC   C1A17235  27.642  22.916   8.564
 1126POPC   D2A17236  27.572  22.983   8.264
 1126POPC   C3A17237  27.601  22.972   7.964
 1126POPC   C4A17238  27.600  22.942   7.664
 1126POPC   C1B17239  27.358  22.907   8.564
 1126POPC   C2B17240  27.381  22.959   8.264
 1126POPC   C3B17241  27.318  22.931   7.964
 1126POPC   C4B17242  27.312  22.895   7.664
 1127POPC   NC317243  39.958   5.101   9.464
 1127POPC   PO417244  39.969   5.116   9.164
 1127POPC   GL117245  40.041   5.064   8.864
 1127POPC   GL217246  39.848   5.108   8.864
 1127POPC   C1A17247  39.978   5.111   8.564
 1127POPC   D2A17248  39.983   5.118   8.264
 1127POPC   C3A17249  40.021   5.126   7.964
 1127POPC   C4A17250  40.003   5.099   7.664
 1127POPC   C1B17251  39.814   5.178   8.564
 1127POPC   C2B17252  39.748   5.190   8.264
 1127POPC   C3B17253  39.814   5.134   7.964
 1127POPC   C4B17254  39.738   5.177   7.664
 1128POPC   NC317255  37.704   5.885   9.464
 1128POPC   PO417256  37.679   5.895   9.164
 1128POPC   GL117257  37.668   5.909   8.864
 1128POPC   GL217258  37.588   5.763   8.864
 1128POPC   C1A17259  37.652   5.839   8.564
 1128POPC   D2A17260  37.676   5.828   8.264
 1128POPC   C3A17261  37.701   5.828   7.964
 1128POPC   C4A17262  37.710   5.896   7.664
 1128POPC   C1B17263  37.499   5.713   8.564
 1128POPC   C2B17264  37.434   5.764   8.264
 1128POPC   C3B17265  37.495   5.774   7.964
 1128POPC   C4B17266  37.484   5.731   7.664
 1129POPC   NC317267   1.963  30.689   9.464
 1129POPC   PO417268   1.947  30.706   9.164
 1129POPC   GL117269   1.977  30.659   8.864
 1129POPC   GL217270   1.889  30.554   8.864
 1129POPC   C1A17271   1.967  30.684   8.564
 1129POPC   D2A17272   2.031  30.675   8.264
 1129POPC   C3A17273   1.969  30.694   7.964
 1129POPC   C4A17274   1.965  30.653   7.664
 1129POPC   C1B17275   1.837  30.488   8.564
 1129POPC   C2B17276   1.830  30.484   8.264
 1129POPC   C3B17277   1.889  30.506   7.964
 1129POPC   C4B17278   1.845  30.453   7.664
 1130POPC   NC317279  19.797  17.546   9.464
 1130POPC   PO417280  19.880  17.544   9.164
 1130POPC   GL117281  19.831  17.469   8.864
 1130POPC   GL217282  19.930  17.629   8.864
 1130POPC   C1A17283  19.794  17.496   8.564
 1130POPC   D2A17284  19.827  17.545   8.264
 1130POPC   C3A17285  19.853  17.467   7.964
 1130POPC   C4A17286  19.853  17.458   7.664
 1130POPC   C1B17287  20.032  17.675   8.564
 1130POPC   C2B17288  19.973  17.682   8.264
 1130POPC   C3B17289  19.955  17.644   7.964
 1130POPC   C4B17290  20.030  17.740   7.664
 1131POPC   NC317291  36.942  38.418   9.464
 1131POPC   PO417292  36.951  38.433   9.164
 1131POPC   GL117293  36.908  38.502   8.864
 1131POPC   GL217294  36.758  38.353   8.864
 1131POPC   C1A17295  36.928  38.416   8.564
 1131POPC   D2A17296  36.901  38.406   8.264
 1131POPC   C3A17297  36.945  38.423   7.964
 1131POPC   C4A17298  36.881  38.407   7.664
 1131POPC   C1B17299  36.683  38.340   8.564
 1131POPC   C2B17300  36.734  38.272   8.264
 1131POPC   C3B17301  36.692  38.292   7.964
 1131POPC   C4B17302  36.692  38.337   7.664
 1132POPC   NC317303  36.159  25.285   9.464
 1132POPC   PO417304  36.083  25.229   9.164
 1132POPC   GL117305  36.174  25.252   8.864
 1132POPC   GL217306  36.122  25.365   8.864
 1132POPC   C1A17307  36.117  25.299   8.564
 1132POPC   D2A17308  36.154  25.233   8.264
 1132POPC   C3A17309  36.078  25.287   7.964
 1132POPC   C4A17310  36.131  25.271   7.664
 1132POPC   C1B17311  36.067  25.467   8.564
 1132POPC   C2B17312  35.980  25.538   8.264
 1132POPC   C3B17313  36.068  25.527   7.964
 1132POPC   C4B17314  36.004  25.449   7.664
 1133POPC   NC317315  42.292  15.954   9.464
 1133POPC   PO417316  42.375  15.965   9.164
 1133POPC   GL117317  42.301  15.983   8.864
 1133POPC   GL217318  42.254  15.869   8.864
 1133POPC   C1A17319  42.374  15.971   8.564
 1133POPC   D2A17320  42.331  15.906   8.264
 1133POPC   C3A17321  42.382  15.999   7.964
 1133POPC   C4A17322  42.328  15.942   7.664
 1133POPC   C1B17323  42.108  15.867   8.564
 1133POPC   C2B17324  42.080  15.819   8.264
 1133POPC   C3B17325  42.062  15.906   7.964
 1133POPC   C4B17326  42.123  15.876   7.664
 1134POPC   NC317327  27.607   2.734   9.464
 1134POPC   PO417328  27.632   2.805   9.164
 1134POPC   GL117329  27.553   2.747   8.864
 1134POPC   GL217330  27.754   2.731   8.864
 1134POPC   C1A17331  27.615   2.720   8.564
 1134POPC   D2A17332  27.547   2.725   8.264
 1134POPC   C3A17333  27.568   2.797   7.964
 1134POPC   C4A17334  27.610   2.777   7.664
 1134POPC   C1B17335  27.847   2.758   8.564
 1134POPC   C2B17336  27.842   2.757   8.264
 1134POPC   C3B17337  27.834   2.780   7.964
 1134POPC   C4B17338  27.849   2.750   7.664
 1135POPC   NC317339   0.423  44.651   9.464
 1135POPC   PO417340   0.391  44.698   9.164
 1135POPC   GL117341   0.424  44.706   8.864
 1135POPC   GL217342   0.314  44.738   8.864
 1135POPC   C1A17343   0.449  44.639   8.564
 1135POPC   D2A17344   0.480  44.624   8.264
 1135POPC   C3A17345   0.415  44.668   7.964
 1135POPC   C4A17346   0.451  44.682   7.664
 1135POPC   C1B17347   0.290  44.863   8.564
 1135POPC   C2B17348   0.271  44.857   8.264
 1135POPC   C3B17349   0.244  44.876   7.964
 1135POPC   C4B17350   0.292  44.795   7.664
 1136POPC   NC317351  27.602   7.424   9.464
 1136POPC   PO417352  27.593   7.379   9.164
 1136POPC   GL117353  27.568   7.377   8.864
 1136POPC   GL217354  27.543   7.502   8.864
 1136POPC   C1A17355  27.623   7.381   8.564
 1136POPC   D2A17356  27.597   7.375   8.264
 1136POPC   C3A17357  27.560   7.413   7.964
 1136POPC   C4A17358  27.558   7.447   7.664
 1136POPC   C1B17359  27.580   7.713   8.564
 1136POPC   C2B17360  27.551   7.693   8.264
 1136POPC   C3B17361  27.536   7.713   7.964
 1136POPC   C4B17362  27.615   7.710   7.664
 1137POPC   NC317363  33.062   1.950   9.464
 1137POPC   PO417364  33.006   1.969   9.164
 1137POPC   GL117365  33.009   1.981   8.864
 1137POPC   GL217366  33.023   1.867   8.864
 1137POPC   C1A17367  32.978   1.975   8.564
 1137POPC   D2A17368  33.000   2.020   8.264
 1137POPC   C3A17369  33.048   1.944   7.964
 1137POPC   C4A17370  33.021   1.985   7.664
 1137POPC   C1B17371  33.003   1.715   8.564
 1137POPC   C2B17372  32.934   1.726   8.264
 1137POPC   C3B17373  32.950   1.700   7.964
 1137POPC   C4B17374  33.016   1.732   7.664
 1138POPC   NC317375  44.661   9.791   9.464
 1138POPC   PO417376  44.684   9.730   9.164
 1138POPC   GL117377  44.614   9.756   8.864
 1138POPC   GL217378  44.493   9.756   8.864
 1138POPC   C1A17379  44.689   9.796   8.564
 1138POPC   D2A17380  44.692   9.786   8.264
 1138POPC   C3A17381  44.613   9.745   7.964
 1138POPC   C4A17382  44.647   9.787   7.664
 1138POPC   C1B17383  44.412   9.825   8.564
 1138POPC   C2B17384  44.379   9.776   8.264
 1138POPC   C3B17385  44.455   9.783   7.964
 1138POPC   C4B17386  44.434   9.861   7.664
 1139POPC   NC317387   2.797  26.033   9.464
 1139POPC   PO417388   2.763  26.089   9.164
 1139POPC   GL117389   2.809  26.017   8.864
 1139POPC   GL217390   2.778  26.186   8.864
 1139POPC   C1A17391   2.769  26.052   8.564
 1139POPC   D2A17392   2.745  26.091   8.264
 1139POPC   C3A17393   2.719  26.016   7.964
 1139POPC   C4A17394   2.813  26.076   7.664
 1139POPC   C1B17395   2.794  26.300   8.564
 1139POPC   C2B17396   2.852  26.317   8.264
 1139POPC   C3B17397   2.858  26.271   7.964
 1139POPC   C4B17398   2.828  26.242   7.664
 1140POPC   NC317399   7.461  37.651   9.464
 1140POPC   PO417400   7.434  37.637   9.164
 1140POPC   GL117401   7.446  37.718   8.864
 1140POPC   GL217402   7.499  37.594   8.864
 1140POPC   C1A17403   7.437  37.642   8.564
 1140POPC   D2A17404   7.464  37.695   8.264
 1140POPC   C3A17405   7.414  37.639   7.964
 1140POPC   C4A17406   7.462  37.724   7.664
 1140POPC   C1B17407   7.652  37.529   8.564
 1140POPC   C2B17408   7.682  37.553   8.264
 1140POPC   C3B17409   7.619  37.533   7.964
 1140POPC   C4B17410   7.642  37.588   7.664
 1141POPC   NC317411   9.787   1.202   9.464
 1141POPC   PO417412   9.739   1.242   9.164
 1141POPC   GL117413   9.796   1.232   8.864
 1141POPC   GL217414   9.595   1.220   8.864
 1141POPC   C1A17415   9.753   1.231   8.564
 1141POPC   D2A17416   9.772   1.253   8.264
 1141POPC   C3A17417   9.747   1.191   7.964
 1141POPC   C4A17418   9.786   1.234   7.664
 1141POPC   C1B17419   9.555   1.355   8.564
 1141POPC   C2B17420   9.527   1.367   8.264
 1141POPC   C3B17421   9.533   1.363   7.964
 1141POPC   C4B17422   9.508   1.301   7.664
 1142POPC   NC317423  35.374  22.145   9.464
 1142POPC   PO417424  35.316  22.200   9.164
 1142POPC   GL117425  35.334  22.194   8.864
 1142POPC   GL217426  35.455  22.255   8.864
 1142POPC   C1A17427  35.340  22.141   8.564
 1142POPC   D2A17428  35.366  22.114   8.264
 1142POPC   C3A17429  35.364  22.162   7.964
 1142POPC   C4A17430  35.337  22.153   7.664
 1142POPC   C1B17431  35.438  22.398   8.564
 1142POPC   C2B17432  35.515  22.386   8.264
 1142POPC   C3B17433  35.524  22.366   7.964
 1142POPC   C4B17434  35.500  22.362   7.664
 1143POPC   NC317435   5.072  43.127   9.464
 1143POPC   PO417436   5.066  43.145   9.164
 1143POPC   GL117437   5.137  43.093   8.864
 1143POPC   GL217438   5.127  43.017   8.864
 1143POPC   C1A17439   5.099  43.104   8.564
 1143POPC   D2A17440   5.100  43.157   8.264
 1143POPC   C3A17441   5.096  43.072   7.964
 1143POPC   C4A17442   5.107  43.077   7.664
 1143POPC   C1B17443   5.130  42.867   8.564
 1143POPC   C2B17444   5.126  42.825   8.264
 1143POPC   C3B17445   5.086  42.838   7.964
 1143POPC   C4B17446   5.088  42.845   7.664
 1144POPC   NC317447  34.587  43.129   9.464
 1144POPC   PO417448  34.530  43.108   9.164
 1144POPC   GL117449  34.584  43.084   8.864
 1144POPC   GL217450  34.653  43.093   8.864
 1144POPC   C1A17451  34.565  43.097   8.564
 1144POPC   D2A17452  34.533  43.132   8.264
 1144POPC   C3A17453  34.622  43.147   7.964
 1144POPC   C4A17454  34.591  43.090   7.664
 1144POPC   C1B17455  34.831  43.184   8.564
 1144POPC   C2B17456  34.799  43.191   8.264
 1144POPC   C3B17457  34.868  43.173   7.964
 1144POPC   C4B17458  34.803  43.185   7.664
 1145POPC   NC317459  44.632  33.788   9.464
 1145POPC   PO417460  44.691  33.832   9.164
 1145POPC   GL117461  44.629  33.817   8.864
 1145POPC   GL217462  44.731  33.869   8.864
 1145POPC   C1A17463  44.632  33.838   8.564
 1145POPC   D2A17464  44.709  33.792   8.264
 1145POPC   C3A17465  44.696  33.776   7.964
 1145POPC   C4A17466  44.649  33.751   7.664
 1145POPC   C1B17467  44.880  33.896   8.564
 1145POPC   C2B17468  44.903  33.914   8.264
 1145POPC   C3B17469  44.897  33.886   7.964
 1145POPC   C4B17470  44.910  33.848   7.664
 1146POPC   NC317471  19.795  21.362   9.464
 1146POPC   PO417472  19.812  21.410   9.164
 1146POPC   GL117473  19.837  21.401   8.864
 1146POPC   GL217474  19.772  21.308   8.864
 1146POPC   C1A17475  19.816  21.374   8.564
 1146POPC   D2A17476  19.829  21.377   8.264
 1146POPC   C3A17477  19.868  21.392   7.964
 1146POPC   C4A17478  19.804  21.352   7.664
 1146POPC   C1B17479  19.761  21.125   8.564
 1146POPC   C2B17480  19.778  21.130   8.264
 1146POPC   C3B17481  19.817  21.158   7.964
 1146POPC   C4B17482  19.797  21.108   7.664
 1147POPC   NC317483  21.398  26.865   9.464
 1147POPC   PO417484  21.370  26.788   9.164
 1147POPC   GL117485  21.394  26.786   8.864
 1147POPC   GL217486  21.246  26.908   8.864
 1147POPC   C1A17487  21.346  26.844   8.564
 1147POPC   D2A17488  21.348  26.866   8.264
 1147POPC   C3A17489  21.380  26.861   7.964
 1147POPC   C4A17490  21.412  26.839   7.664
 1147POPC   C1B17491  21.143  26.961   8.564
 1147POPC   C2B17492  21.204  26.941   8.264
 1147POPC   C3B17493  21.213  26.913   7.964
 1147POPC   C4B17494  21.133  26.926   7.664
 1148POPC   NC317495  25.280   9.738   9.464
 1148POPC   PO417496  25.218   9.772   9.164
 1148POPC   GL117497  25.311   9.750   8.864
 1148POPC   GL217498  25.345   9.678   8.864
 1148POPC   C1A17499  25.286   9.775   8.564
 1148POPC   D2A17500  25.245   9.714   8.264
 1148POPC   C3A17501  25.252   9.780   7.964
 1148POPC   C4A17502  25.300   9.778   7.664
 1148POPC   C1B17503  25.503   9.687   8.564
 1148POPC   C2B17504  25.463   9.596   8.264
 1148POPC   C3B17505  25.459   9.692   7.964
 1148POPC   C4B17506  25.459   9.687   7.664
 1149POPC   NC317507   0.424  31.458   9.464
 1149POPC   PO417508   0.464  31.512   9.164
 1149POPC   GL117509   0.402  31.503   8.864
 1149POPC   GL217510   0.484  31.637   8.864
 1149POPC   C1A17511   0.467  31.451   8.564
 1149POPC   D2A17512   0.469  31.454   8.264
 1149POPC   C3A17513   0.446  31.493   7.964
 1149POPC   C4A17514   0.400  31.442   7.664
 1149POPC   C1B17515   0.459  31.701   8.564
 1149POPC   C2B17516   0.490  31.701   8.264
 1149POPC   C3B17517   0.471  31.702   7.964
 1149POPC   C4B17518   0.489  31.698   7.664
 1150POPC   NC317519  31.462  34.597   9.464
 1150POPC   PO417520  31.441  34.594   9.164
 1150POPC   GL117521  31.437  34.615   8.864
 1150POPC   GL217522  31.326  34.457   8.864
 1150POPC   C1A17523  31.459  34.589   8.564
 1150POPC   D2A17524  31.511  34.543   8.264
 1150POPC   C3A17525  31.504  34.552   7.964
 1150POPC   C4A17526  31.506  34.603   7.664
 1150POPC   C1B17527  31.318  34.457   8.564
 1150POPC   C2B17528  31.297  34.466   8.264
 1150POPC   C3B17529  31.269  34.466   7.964
 1150POPC   C4B17530  31.267  34.429   7.664
 1151POPC   NC317531   9.709  19.856   9.464
 1151POPC   PO417532   9.752  19.819   9.164
 1151POPC   GL117533   9.761  19.832   8.864
 1151POPC   GL217534   9.892  19.831   8.864
 1151POPC   C1A17535   9.743  19.848   8.564
 1151POPC   D2A17536   9.738  19.861   8.264
 1151POPC   C3A17537   9.731  19.788   7.964
 1151POPC   C4A17538   9.776  19.797   7.664
 1151POPC   C1B17539   9.975  19.839   8.564
 1151POPC   C2B17540   9.964  19.920   8.264
 1151POPC   C3B17541   9.991  19.921   7.964
 1151POPC   C4B17542  10.031  19.898   7.664
 1152POPC   NC317543  25.242  24.452   9.464
 1152POPC   PO417544  25.310  24.529   9.164
 1152POPC   GL117545  25.310  24.442   8.864
 1152POPC   GL217546  25.142  24.537   8.864
 1152POPC   C1A17547  25.218  24.528   8.564
 1152POPC   D2A17548  25.232  24.495   8.264
 1152POPC   C3A17549  25.232  24.501   7.964
 1152POPC   C4A17550  25.254  24.448   7.664
 1152POPC   C1B17551  25.025  24.503   8.564
 1152POPC   C2B17552  25.010  24.531   8.264
 1152POPC   C3B17553  25.007  24.504   7.964
 1152POPC   C4B17554  24.998  24.552   7.664
 1153POPC   NC317555  33.797  15.921   9.464
 1153POPC   PO417556  33.816  15.945   9.164
 1153POPC   GL117557  33.793  15.969   8.864
 1153POPC   GL217558  33.770  15.805   8.864
 1153POPC   C1A17559  33.758  15.926   8.564
 1153POPC   D2A17560  33.816  15.919   8.264
 1153POPC   C3A17561  33.814  15.928   7.964
 1153POPC   C4A17562  33.809  15.919   7.664
 1153POPC   C1B17563  33.803  15.714   8.564
 1153POPC   C2B17564  33.789  15.747   8.264
 1153POPC   C3B17565  33.836  15.677   7.964
 1153POPC   C4B17566  33.809  15.681   7.664
 1154POPC   NC317567  28.334  16.722   9.464
 1154POPC   PO417568  28.414  16.781   9.164
 1154POPC   GL117569  28.410  16.730   8.864
 1154POPC   GL217570  28.444  16.791   8.864
 1154POPC   C1A17571  28.355  16.683   8.564
 1154POPC   D2A17572  28.409  16.727   8.264
 1154POPC   C3A17573  28.349  16.702   7.964
 1154POPC   C4A17574  28.379  16.748   7.664
 1154POPC   C1B17575  28.568  16.887   8.564
 1154POPC   C2B17576  28.574  16.950   8.264
 1154POPC   C3B17577  28.572  16.918   7.964
 1154POPC   C4B17578  28.503  16.946   7.664
 1155POPC   NC317579   5.127  37.700   9.464
 1155POPC   PO417580   5.108  37.683   9.164
 1155POPC   GL117581   5.051  37.650   8.864
 1155POPC   GL217582   5.064  37.571   8.864
 1155POPC   C1A17583   5.051  37.678   8.564
 1155POPC   D2A17584   5.047  37.632   8.264
 1155POPC   C3A17585   5.064  37.658   7.964
 1155POPC   C4A17586   5.044  37.728   7.664
 1155POPC   C1B17587   4.971  37.499   8.564
 1155POPC   C2B17588   5.016  37.427   8.264
 1155POPC   C3B17589   5.005  37.489   7.964
 1155POPC   C4B17590   4.992  37.445   7.664
 1156POPC   NC317591  43.093   4.330   9.464
 1156POPC   PO417592  43.091   4.281   9.164
 1156POPC   GL117593  43.136   4.293   8.864
 1156POPC   GL217594  43.171   4.440   8.864
 1156POPC   C1A17595  43.147   4.301   8.564
 1156POPC   D2A17596  43.112   4.307   8.264
 1156POPC   C3A17597  43.159   4.342   7.964
 1156POPC   C4A17598  43.127   4.334   7.664
 1156POPC   C1B17599  43.303   4.545   8.564
 1156POPC   C2B17600  43.227   4.559   8.264
 1156POPC   C3B17601  43.267   4.502   7.964
 1156POPC   C4B17602  43.294   4.482   7.664
 1157POPC   NC317603  36.934  37.715   9.464
 1157POPC   PO417604  36.908  37.708   9.164
 1157POPC   GL117605  36.873  37.651   8.864
 1157POPC   GL217606  36.871  37.508   8.864
 1157POPC   C1A17607  36.924  37.717   8.564
 1157POPC   D2A17608  36.911  37.638   8.264
 1157POPC   C3A17609  36.946  37.726   7.964
 1157POPC   C4A17610  36.865  37.717   7.664
 1157POPC   C1B17611  36.933  37.447   8.564
 1157POPC   C2B17612  36.927  37.472   8.264
 1157POPC   C3B17613  36.914  37.435   7.964
 1157POPC   C4B17614  36.904  37.419   7.664
 1158POPC   NC317615  11.307  16.741   9.464
 1158POPC   PO417616  11.278  16.761   9.164
 1158POPC   GL117617  11.333  16.713   8.864
 1158POPC   GL217618  11.199  16.666   8.864
 1158POPC   C1A17619  11.253  16.731   8.564
 1158POPC   D2A17620  11.278  16.739   8.264
 1158POPC   C3A17621  11.339  16.773   7.964
 1158POPC   C4A17622  11.340  16.732   7.664
 1158POPC   C1B17623  11.133  16.573   8.564
 1158POPC   C2B17624  11.158  16.537   8.264
 1158POPC   C3B17625  11.141  16.542   7.964
 1158POPC   C4B17626  11.165  16.535   7.664
 1159POPC   NC317627  37.692  18.268   9.464
 1159POPC   PO417628  37.690  18.323   9.164
 1159POPC   GL117629  37.709  18.278   8.864
 1159POPC   GL217630  37.631  18.368   8.864
 1159POPC   C1A17631  37.641  18.249   8.564
 1159POPC   D2A17632  37.716  18.328   8.264
 1159POPC   C3A17633  37.658  18.326   7.964
 1159POPC   C4A17634  37.697  18.240   7.664
 1159POPC   C1B17635  37.623  18.511   8.564
 1159POPC   C2B17636  37.603  18.497   8.264
 1159POPC   C3B17637  37.626  18.560   7.964
 1159POPC   C4B17638  37.573  18.504   7.664
 1160POPC   NC317639  29.903  43.873   9.464
 1160POPC   PO417640  29.940  43.902   9.164
 1160POPC   GL117641  29.919  43.854   8.864
 1160POPC   GL217642  29.920  44.006   8.864
 1160POPC   C1A17643  29.931  43.866   8.564
 1160POPC   D2A17644  29.888  43.852   8.264
 1160POPC   C3A17645  29.877  43.931   7.964
 1160POPC   C4A17646  29.886  43.930   7.664
 1160POPC   C1B17647  29.879  44.125   8.564
 1160POPC   C2B17648  29.872  44.093   8.264
 1160POPC   C3B17649  29.902  44.088   7.964
 1160POPC   C4B17650  29.944  44.102   7.664
 1161POPC   NC317651  26.806  43.923   9.464
 1161POPC   PO417652  26.812  43.847   9.164
 1161POPC   GL117653  26.808  43.839   8.864
 1161POPC   GL217654  26.733  43.859   8.864
 1161POPC   C1A17655  26.778  43.917   8.564
 1161POPC   D2A17656  26.805  43.907   8.264
 1161POPC   C3A17657  26.863  43.909   7.964
 1161POPC   C4A17658  26.809  43.890   7.664
 1161POPC   C1B17659  26.605  43.884   8.564
 1161POPC   C2B17660  26.612  43.827   8.264
 1161POPC   C3B17661  26.548  43.891   7.964
 1161POPC   C4B17662  26.588  43.837   7.664
 1162POPC   NC317663  24.458  39.978   9.464
 1162POPC   PO417664  24.507  39.992   9.164
 1162POPC   GL117665  24.483  40.044   8.864
 1162POPC   GL217666  24.526  39.898   8.864
 1162POPC   C1A17667  24.521  40.011   8.564
 1162POPC   D2A17668  24.464  40.025   8.264
 1162POPC   C3A17669  24.517  39.987   7.964
 1162POPC   C4A17670  24.477  40.000   7.664
 1162POPC   C1B17671  24.524  39.756   8.564
 1162POPC   C2B17672  24.524  39.726   8.264
 1162POPC   C3B17673  24.471  39.710   7.964
 1162POPC   C4B17674  24.558  39.735   7.664
 1163POPC   NC317675   1.979  34.529   9.464
 1163POPC   PO417676   2.030  34.533   9.164
 1163POPC   GL117677   1.998  34.587   8.864
 1163POPC   GL217678   1.894  34.588   8.864
 1163POPC   C1A17679   2.016  34.526   8.564
 1163POPC   D2A17680   1.970  34.605   8.264
 1163POPC   C3A17681   2.013  34.619   7.964
 1163POPC   C4A17682   2.034  34.588   7.664
 1163POPC   C1B17683   1.742  34.550   8.564
 1163POPC   C2B17684   1.736  34.544   8.264
 1163POPC   C3B17685   1.712  34.558   7.964
 1163POPC   C4B17686   1.709  34.577   7.664
 1164POPC   NC317687   2.009  14.441   9.464
 1164POPC   PO417688   1.983  14.433   9.164
 1164POPC   GL117689   2.022  14.440   8.864
 1164POPC   GL217690   1.872  14.259   8.864
 1164POPC   C1A17691   2.013  14.382   8.564
 1164POPC   D2A17692   1.957  14.448   8.264
 1164POPC   C3A17693   1.998  14.399   7.964
 1164POPC   C4A17694   1.941  14.368   7.664
 1164POPC   C1B17695   1.802  14.230   8.564
 1164POPC   C2B17696   1.853  14.215   8.264
 1164POPC   C3B17697   1.801  14.154   7.964
 1164POPC   C4B17698   1.794  14.174   7.664
 1165POPC   NC317699  36.093   9.717   9.464
 1165POPC   PO417700  36.157   9.767   9.164
 1165POPC   GL117701  36.112   9.752   8.864
 1165POPC   GL217702  36.137   9.647   8.864
 1165POPC   C1A17703  36.083   9.731   8.564
 1165POPC   D2A17704  36.084   9.779   8.264
 1165POPC   C3A17705  36.099   9.760   7.964
 1165POPC   C4A17706  36.112   9.753   7.664
 1165POPC   C1B17707  36.099   9.466   8.564
 1165POPC   C2B17708  36.139   9.494   8.264
 1165POPC   C3B17709  36.160   9.453   7.964
 1165POPC   C4B17710  36.155   9.497   7.664
 1166POPC   NC317711  32.219   1.217   9.464
 1166POPC   PO417712  32.243   1.205   9.164
 1166POPC   GL117713  32.273   1.167   8.864
 1166POPC   GL217714  32.327   1.249   8.864
 1166POPC   C1A17715  32.263   1.187   8.564
 1166POPC   D2A17716  32.224   1.207   8.264
 1166POPC   C3A17717  32.282   1.171   7.964
 1166POPC   C4A17718  32.234   1.262   7.664
 1166POPC   C1B17719  32.520   1.264   8.564
 1166POPC   C2B17720  32.531   1.295   8.264
 1166POPC   C3B17721  32.509   1.291   7.964
 1166POPC   C4B17722  32.490   1.316   7.664
 1167POPC   NC317723  31.510  18.236   9.464
 1167POPC   PO417724  31.448  18.270   9.164
 1167POPC   GL117725  31.482  18.330   8.864
 1167POPC   GL217726  31.413  18.373   8.864
 1167POPC   C1A17727  31.451  18.332   8.564
 1167POPC   D2A17728  31.486  18.305   8.264
 1167POPC   C3A17729  31.429  18.302   7.964
 1167POPC   C4A17730  31.473  18.300   7.664
 1167POPC   C1B17731  31.450  18.487   8.564
 1167POPC   C2B17732  31.412  18.526   8.264
 1167POPC   C3B17733  31.388  18.528   7.964
 1167POPC   C4B17734  31.394  18.538   7.664
 1168POPC   NC317735   3.522  40.785   9.464
 1168POPC   PO417736   3.546  40.827   9.164
 1168POPC   GL117737   3.581  40.763   8.864
 1168POPC   GL217738   3.651  40.755   8.864
 1168POPC   C1A17739   3.545  40.819   8.564
 1168POPC   D2A17740   3.529  40.795   8.264
 1168POPC   C3A17741   3.504  40.819   7.964
 1168POPC   C4A17742   3.531  40.815   7.664
 1168POPC   C1B17743   3.804  40.790   8.564
 1168POPC   C2B17744   3.756  40.760   8.264
 1168POPC   C3B17745   3.830  40.735   7.964
 1168POPC   C4B17746   3.804  40.715   7.664
 1169POPC   NC317747  24.475  33.028   9.464
 1169POPC   PO417748  24.532  33.045   9.164
 1169POPC   GL117749  24.447  32.985   8.864
 1169POPC   GL217750  24.386  33.168   8.864
 1169POPC   C1A17751  24.442  33.066   8.564
 1169POPC   D2A17752  24.526  33.013   8.264
 1169POPC   C3A17753  24.524  33.048   7.964
 1169POPC   C4A17754  24.475  33.009   7.664
 1169POPC   C1B17755  24.334  33.253   8.564
 1169POPC   C2B17756  24.338  33.234   8.264
 1169POPC   C3B17757  24.326  33.235   7.964
 1169POPC   C4B17758  24.363  33.250   7.664
 1170POPC   NC317759  22.166  30.653   9.464
 1170POPC   PO417760  22.120  30.678   9.164
 1170POPC   GL117761  22.167  30.731   8.864
 1170POPC   GL217762  22.199  30.785   8.864
 1170POPC   C1A17763  22.149  30.705   8.564
 1170POPC   D2A17764  22.148  30.660   8.264
 1170POPC   C3A17765  22.190  30.660   7.964
 1170POPC   C4A17766  22.162  30.653   7.664
 1170POPC   C1B17767  22.295  30.949   8.564
 1170POPC   C2B17768  22.272  30.892   8.264
 1170POPC   C3B17769  22.344  30.955   7.964
 1170POPC   C4B17770  22.319  30.880   7.664
 1171POPC   NC317771   7.419  26.037   9.464
 1171POPC   PO417772   7.385  26.048   9.164
 1171POPC   GL117773   7.382  26.007   8.864
 1171POPC   GL217774   7.271  26.011   8.864
 1171POPC   C1A17775   7.380  26.058   8.564
 1171POPC   D2A17776   7.395  26.068   8.264
 1171POPC   C3A17777   7.375  26.074   7.964
 1171POPC   C4A17778   7.427  26.063   7.664
 1171POPC   C1B17779   7.158  26.078   8.564
 1171POPC   C2B17780   7.187  26.121   8.264
 1171POPC   C3B17781   7.164  26.035   7.964
 1171POPC   C4B17782   7.173  26.111   7.664
 1172POPC   NC317783  30.648  12.817   9.464
 1172POPC   PO417784  30.674  12.876   9.164
 1172POPC   GL117785  30.684  12.863   8.864
 1172POPC   GL217786  30.786  12.897   8.864
 1172POPC   C1A17787  30.740  12.886   8.564
 1172POPC   D2A17788  30.681  12.858   8.264
 1172POPC   C3A17789  30.737  12.832   7.964
 1172POPC   C4A17790  30.654  12.842   7.664
 1172POPC   C1B17791  30.928  12.841   8.564
 1172POPC   C2B17792  30.961  12.901   8.264
 1172POPC   C3B17793  30.985  12.838   7.964
 1172POPC   C4B17794  30.968  12.874   7.664
 1173POPC   NC317795  24.495  11.306   9.464
 1173POPC   PO417796  24.510  11.270   9.164
 1173POPC   GL117797  24.455  11.324   8.864
 1173POPC   GL217798  24.391  11.342   8.864
 1173POPC   C1A17799  24.518  11.348   8.564
 1173POPC   D2A17800  24.474  11.341   8.264
 1173POPC   C3A17801  24.503  11.298   7.964
 1173POPC   C4A17802  24.491  11.277   7.664
 1173POPC   C1B17803  24.231  11.270   8.564
 1173POPC   C2B17804  24.221  11.292   8.264
 1173POPC   C3B17805  24.266  11.321   7.964
 1173POPC   C4B17806  24.213  11.363   7.664
 1174POPC   NC317807   5.047   1.221   9.464
 1174POPC   PO417808   5.053   1.185   9.164
 1174POPC   GL117809   5.113   1.232   8.864
 1174POPC   GL217810   4.940   1.207   8.864
 1174POPC   C1A17811   5.106   1.227   8.564
 1174POPC   D2A17812   5.049   1.170   8.264
 1174POPC   C3A17813   5.054   1.166   7.964
 1174POPC   C4A17814   5.079   1.257   7.664
 1174POPC   C1B17815   4.893   1.183   8.564
 1174POPC   C2B17816   4.882   1.210   8.264
 1174POPC   C3B17817   4.855   1.210   7.964
 1174POPC   C4B17818   4.815   1.232   7.664
 1175POPC   NC317819  17.511  22.119   9.464
 1175POPC   PO417820  17.515  22.190   9.164
 1175POPC   GL117821  17.555  22.115   8.864
 1175POPC   GL217822  17.545  22.074   8.864
 1175POPC   C1A17823  17.540  22.125   8.564
 1175POPC   D2A17824  17.556  22.137   8.264
 1175POPC   C3A17825  17.490  22.130   7.964
 1175POPC   C4A17826  17.542  22.144   7.664
 1175POPC   C1B17827  17.709  21.976   8.564
 1175POPC   C2B17828  17.715  22.005   8.264
 1175POPC   C3B17829  17.712  22.004   7.964
 1175POPC   C4B17830  17.688  21.977   7.664
 1176POPC   NC317831  23.736  25.220   9.464
 1176POPC   PO417832  23.695  25.284   9.164
 1176POPC   GL117833  23.684  25.276   8.864
 1176POPC   GL217834  23.622  25.344   8.864
 1176POPC   C1A17835  23.725  25.287   8.564
 1176POPC   D2A17836  23.689  25.218   8.264
 1176POPC   C3A17837  23.694  25.299   7.964
 1176POPC   C4A17838  23.704  25.231   7.664
 1176POPC   C1B17839  23.571  25.481   8.564
 1176POPC   C2B17840  23.548  25.482   8.264
 1176POPC   C3B17841  23.592  25.459   7.964
 1176POPC   C4B17842  23.635  25.468   7.664
 1177POPC   NC317843  21.339  41.608   9.464
 1177POPC   PO417844  21.360  41.594   9.164
 1177POPC   GL117845  21.359  41.571   8.864
 1177POPC   GL217846  21.466  41.444   8.864
 1177POPC   C1A17847  21.353  41.561   8.564
 1177POPC   D2A17848  21.419  41.606   8.264
 1177POPC   C3A17849  21.341  41.535   7.964
 1177POPC   C4A17850  21.336  41.603   7.664
 1177POPC   C1B17851  21.524  41.336   8.564
 1177POPC   C2B17852  21.575  41.414   8.264
 1177POPC   C3B17853  21.608  41.385   7.964
 1177POPC   C4B17854  21.520  41.360   7.664
 1178POPC   NC317855  34.619  21.351   9.464
 1178POPC   PO417856  34.618  21.358   9.164
 1178POPC   GL117857  34.543  21.422   8.864
 1178POPC   GL217858  34.542  21.473   8.864
 1178POPC   C1A17859  34.581  21.349   8.564
 1178POPC   D2A17860  34.546  21.341   8.264
 1178POPC   C3A17861  34.541  21.383   7.964
 1178POPC   C4A17862  34.565  21.337   7.664
 1178POPC   C1B17863  34.477  21.625   8.564
 1178POPC   C2B17864  34.479  21.629   8.264
 1178POPC   C3B17865  34.443  21.556   7.964
 1178POPC   C4B17866  34.410  21.561   7.664
 1179POPC   NC317867  29.935  36.871   9.464
 1179POPC   PO417868  29.959  36.914   9.164
 1179POPC   GL117869  29.944  36.929   8.864
 1179POPC   GL217870  30.008  37.041   8.864
 1179POPC   C1A17871  29.881  36.866   8.564
 1179POPC   D2A17872  29.900  36.891   8.264
 1179POPC   C3A17873  29.896  36.913   7.964
 1179POPC   C4A17874  29.950  36.880   7.664
 1179POPC   C1B17875  30.043  37.076   8.564
 1179POPC   C2B17876  30.092  37.069   8.264
 1179POPC   C3B17877  30.106  37.070   7.964
 1179POPC   C4B17878  30.132  37.106   7.664
 1180POPC   NC317879   8.183   3.496   9.464
 1180POPC   PO417880   8.215   3.573   9.164
 1180POPC   GL117881   8.151   3.557   8.864
 1180POPC   GL217882   8.137   3.651   8.864
 1180POPC   C1A17883   8.185   3.495   8.564
 1180POPC   D2A17884   8.168   3.499   8.264
 1180POPC   C3A17885   8.184   3.581   7.964
 1180POPC   C4A17886   8.208   3.516   7.664
 1180POPC   C1B17887   8.015   3.688   8.564
 1180POPC   C2B17888   7.982   3.764   8.264
 1180POPC   C3B17889   7.997   3.733   7.964
 1180POPC   C4B17890   8.033   3.698   7.664
 1181POPC   NC317891  19.067  32.212   9.464
 1181POPC   PO417892  19.068  32.212   9.164
 1181POPC   GL117893  19.036  32.255   8.864
 1181POPC   GL217894  19.165  32.144   8.864
 1181POPC   C1A17895  19.030  32.236   8.564
 1181POPC   D2A17896  19.025  32.298   8.264
 1181POPC   C3A17897  19.040  32.203   7.964
 1181POPC   C4A17898  19.091  32.213   7.664
 1181POPC   C1B17899  19.286  32.096   8.564
 1181POPC   C2B17900  19.276  32.121   8.264
 1181POPC   C3B17901  19.208  32.092   7.964
 1181POPC   C4B17902  19.234  32.097   7.664
 1182POPC   NC317903   8.238  41.524   9.464
 1182POPC   PO417904   8.156  41.558   9.164
 1182POPC   GL117905   8.241  41.525   8.864
 1182POPC   GL217906   8.241  41.680   8.864
 1182POPC   C1A17907   8.148  41.593   8.564
 1182POPC   D2A17908   8.196  41.556   8.264
 1182POPC   C3A17909   8.227  41.570   7.964
 1182POPC   C4A17910   8.174  41.597   7.664
 1182POPC   C1B17911   8.303  41.797   8.564
 1182POPC   C2B17912   8.269  41.762   8.264
 1182POPC   C3B17913   8.289  41.775   7.964
 1182POPC   C4B17914   8.256  41.845   7.664
 1183POPC   NC317915  23.736   2.786   9.464
 1183POPC   PO417916  23.699   2.786   9.164
 1183POPC   GL117917  23.742   2.735   8.864
 1183POPC   GL217918  23.729   2.845   8.864
 1183POPC   C1A17919  23.715   2.729   8.564
 1183POPC   D2A17920  23.746   2.747   8.264
 1183POPC   C3A17921  23.706   2.781   7.964
 1183POPC   C4A17922  23.680   2.724   7.664
 1183POPC   C1B17923  23.739   3.013   8.564
 1183POPC   C2B17924  23.720   3.022   8.264
 1183POPC   C3B17925  23.718   3.048   7.964
 1183POPC   C4B17926  23.689   2.987   7.664
 1184POPC   NC317927  19.062  37.647   9.464
 1184POPC   PO417928  19.028  37.649   9.164
 1184POPC   GL117929  19.035  37.715   8.864
 1184POPC   GL217930  19.181  37.820   8.864
 1184POPC   C1A17931  19.095  37.704   8.564
 1184POPC   D2A17932  19.098  37.717   8.264
 1184POPC   C3A17933  19.076  37.699   7.964
 1184POPC   C4A17934  19.090  37.717   7.664
 1184POPC   C1B17935  19.202  37.846   8.564
 1184POPC   C2B17936  19.262  37.884   8.264
 1184POPC   C3B17937  19.208  37.881   7.964
 1184POPC   C4B17938  19.205  37.834   7.664
 1185POPC   NC317939   1.211  42.310   9.464
 1185POPC   PO417940   1.252  42.323   9.164
 1185POPC   GL117941   1.258  42.327   8.864
 1185POPC   GL217942   1.281  42.425   8.864
 1185POPC   C1A17943   1.220  42.295   8.564
 1185POPC   D2A17944   1.218  42.294   8.264
 1185POPC   C3A17945   1.224  42.322   7.964
 1185POPC   C4A17946   1.169  42.308   7.664
 1185POPC   C1B17947   1.306  42.628   8.564
 1185POPC   C2B17948   1.304  42.534   8.264
 1185POPC   C3B17949   1.238  42.580   7.964
 1185POPC   C4B17950   1.234  42.546   7.664
 1186POPC   NC317951  10.530  20.620   9.464
 1186POPC   PO417952  10.569  20.641   9.164
 1186POPC   GL117953  10.550  20.654   8.864
 1186POPC   GL217954  10.439  20.742   8.864
 1186POPC   C1A17955  10.548  20.640   8.564
 1186POPC   D2A17956  10.495  20.643   8.264
 1186POPC   C3A17957  10.535  20.614   7.964
 1186POPC   C4A17958  10.498  20.623   7.664
 1186POPC   C1B17959  10.383  20.821   8.564
 1186POPC   C2B17960  10.370  20.770   8.264
 1186POPC   C3B17961  10.354  20.772   7.964
 1186POPC   C4B17962  10.377  20.813   7.664
 1187POPC   NC317963  44.636  11.271   9.464
 1187POPC   PO417964  44.687  11.264   9.164
 1187POPC   GL117965  44.697  11.339   8.864
 1187POPC   GL217966  44.625  11.218   8.864
 1187POPC   C1A17967  44.657  11.269   8.564
 1187POPC   D2A17968  44.644  11.317   8.264
 1187POPC   C3A17969  44.629  11.256   7.964
 1187POPC   C4A17970  44.707  11.269   7.664
 1187POPC   C1B17971  44.582  11.110   8.564
 1187POPC   C2B17972  44.598  11.025   8.264
 1187POPC   C3B17973  44.628  11.104   7.964
 1187POPC   C4B17974  44.618  11.012   7.664
 1188POPC   NC317975   8.995   3.532   9.464
 1188POPC   PO417976   9.022   3.531   9.164
 1188POPC   GL117977   8.929   3.527   8.864
 1188POPC   GL217978   8.874   3.597   8.864
 1188POPC   C1A17979   9.011   3.500   8.564
 1188POPC   D2A17980   8.987   3.570   8.264
 1188POPC   C3A17981   8.933   3.544   7.964
 1188POPC   C4A17982   8.958   3.495   7.664
 1188POPC   C1B17983   8.775   3.710   8.564
 1188POPC   C2B17984   8.809   3.705   8.264
 1188POPC   C3B17985   8.749   3.661   7.964
 1188POPC   C4B17986   8.720   3.674   7.664
 1189POPC   NC317987  37.631  16.762   9.464
 1189POPC   PO417988  37.658  16.707   9.164
 1189POPC   GL117989  37.635  16.699   8.864
 1189POPC   GL217990  37.738  16.625   8.864
 1189POPC   C1A17991  37.645  16.725   8.564
 1189POPC   D2A17992  37.706  16.743   8.264
 1189POPC   C3A17993  37.664  16.766   7.964
 1189POPC   C4A17994  37.724  16.721   7.664
 1189POPC   C1B17995  37.782  16.459   8.564
 1189POPC   C2B17996  37.829  16.467   8.264
 1189POPC   C3B17997  37.825  16.490   7.964
 1189POPC   C4B17998  37.783  16.500   7.664
 1190POPC   NC317999  29.927   8.930   9.464
 1190POPC   PO418000  29.880   8.937   9.164
 1190POPC   GL118001  29.877   9.011   8.864
 1190POPC   GL218002  29.767   8.986   8.864
 1190POPC   C1A18003  29.878   9.002   8.564
 1190POPC   D2A18004  29.937   8.936   8.264
 1190POPC   C3A18005  29.899   9.008   7.964
 1190POPC   C4A18006  29.879   8.995   7.664
 1190POPC   C1B18007  29.692   8.946   8.564
 1190POPC   C2B18008  29.658   8.924   8.264
 1190POPC   C3B18009  29.687   8.894   7.964
 1190POPC   C4B18010  29.701   8.893   7.664
 1191POPC   NC318011  31.496  10.574   9.464
 1191POPC   PO418012  31.440  10.522   9.164
 1191POPC   GL118013  31.438  10.523   8.864
 1191POPC   GL218014  31.577  10.542   8.864
 1191POPC   C1A18015  31.424  10.498   8.564
 1191POPC   D2A18016  31.480  10.553   8.264
 1191POPC   C3A18017  31.494  10.491   7.964
 1191POPC   C4A18018  31.449  10.548   7.664
 1191POPC   C1B18019  31.699  10.596   8.564
 1191POPC   C2B18020  31.668  10.660   8.264
 1191POPC   C3B18021  31.682  10.611   7.964
 1191POPC   C4B18022  31.707  10.681   7.664
 1192POPC   NC318023  43.143  16.721   9.464
 1192POPC   PO418024  43.088  16.732   9.164
 1192POPC   GL118025  43.092  16.770   8.864
 1192POPC   GL218026  43.049  16.643   8.864
 1192POPC   C1A18027  43.094  16.732   8.564
 1192POPC   D2A18028  43.090  16.686   8.264
 1192POPC   C3A18029  43.155  16.738   7.964
 1192POPC   C4A18030  43.073  16.699   7.664
 1192POPC   C1B18031  42.954  16.550   8.564
 1192POPC   C2B18032  42.962  16.511   8.264
 1192POPC   C3B18033  42.957  16.568   7.964
 1192POPC   C4B18034  42.924  16.497   7.664
 1193POPC   NC318035  39.977  44.690   9.464
 1193POPC   PO418036  40.012  44.655   9.164
 1193POPC   GL118037  39.970  44.647   8.864
 1193POPC   GL218038  40.142  44.640   8.864
 1193POPC   C1A18039  40.048  44.624   8.564
 1193POPC   D2A18040  40.052  44.614   8.264
 1193POPC   C3A18041  40.027  44.635   7.964
 1193POPC   C4A18042  40.034  44.697   7.664
 1193POPC   C1B18043  40.273  44.624   8.564
 1193POPC   C2B18044  40.241  44.632   8.264
 1193POPC   C3B18045  40.206  44.620   7.964
 1193POPC   C4B18046  40.297  44.640   7.664
 1194POPC   NC318047  36.949   2.019   9.464
 1194POPC   PO418048  36.870   2.018   9.164
 1194POPC   GL118049  36.928   2.009   8.864
 1194POPC   GL218050  36.768   2.031   8.864
 1194POPC   C1A18051  36.884   1.941   8.564
 1194POPC   D2A18052  36.880   1.954   8.264
 1194POPC   C3A18053  36.953   2.039   7.964
 1194POPC   C4A18054  36.898   2.032   7.664
 1194POPC   C1B18055  36.679   2.114   8.564
 1194POPC   C2B18056  36.646   2.152   8.264
 1194POPC   C3B18057  36.696   2.145   7.964
 1194POPC   C4B18058  36.664   2.115   7.664
 1195POPC   NC318059  42.341  10.529   9.464
 1195POPC   PO418060  42.293  10.493   9.164
 1195POPC   GL118061  42.358  10.529   8.864
 1195POPC   GL218062  42.458  10.465   8.864
 1195POPC   C1A18063  42.289  10.569   8.564
 1195POPC   D2A18064  42.314  10.571   8.264
 1195POPC   C3A18065  42.346  10.496   7.964
 1195POPC   C4A18066  42.291  10.544   7.664
 1195POPC   C1B18067  42.578  10.462   8.564
 1195POPC   C2B18068  42.543  10.447   8.264
 1195POPC   C3B18069  42.561  10.474   7.964
 1195POPC   C4B18070  42.627  10.442   7.664
 1196POPC   NC318071  26.783   0.448   9.464
 1196POPC   PO418072  26.819   0.485   9.164
 1196POPC   GL118073  26.850   0.438   8.864
 1196POPC   GL218074  26.745   0.508   8.864
 1196POPC   C1A18075  26.779   0.403   8.564
 1196POPC   D2A18076  26.807   0.453   8.264
 1196POPC   C3A18077  26.801   0.438   7.964
 1196POPC   C4A18078  26.795   0.408   7.664
 1196POPC   C1B18079  26.719   0.674   8.564
 1196POPC   C2B18080  26.764   0.687   8.264
 1196POPC   C3B18081  26.737   0.678   7.964
 1196POPC   C4B18082  26.716   0.685   7.664
 1197POPC   NC318083   2.721   6.676   9.464
 1197POPC   PO418084   2.757   6.635   9.164
 1197POPC   GL118085   2.718   6.656   8.864
 1197POPC   GL218086   2.934   6.655   8.864
 1197POPC   C1A18087   2.723   6.619   8.564
 1197POPC   D2A18088   2.742   6.606   8.264
 1197POPC   C3A18089   2.765   6.676   7.964
 1197POPC   C4A18090   2.807   6.657   7.664
 1197POPC   C1B18091   2.990   6.625   8.564
 1197POPC   C2B18092   2.985   6.593   8.264
 1197POPC   C3B18093   2.998   6.631   7.964
 1197POPC   C4B18094   3.055   6.626   7.664
 1198POPC   NC318095  12.898   3.542   9.464
 1198POPC   PO418096  12.811   3.554   9.164
 1198POPC   GL118097  12.890   3.550   8.864
 1198POPC   GL218098  12.840   3.646   8.864
 1198POPC   C1A18099  12.884   3.532   8.564
 1198POPC   D2A18100  12.880   3.578   8.264
 1198POPC   C3A18101  12.879   3.507   7.964
 1198POPC   C4A18102  12.869   3.504   7.664
 1198POPC   C1B18103  12.878   3.742   8.564
 1198POPC   C2B18104  12.839   3.838   8.264
 1198POPC   C3B18105  12.836   3.808   7.964
 1198POPC   C4B18106  12.828   3.744   7.664
 1199POPC   NC318107   6.647  40.772   9.464
 1199POPC   PO418108   6.678  40.820   9.164
 1199POPC   GL118109   6.636  40.831   8.864
 1199POPC   GL218110   6.537  40.709   8.864
 1199POPC   C1A18111   6.629  40.824   8.564
 1199POPC   D2A18112   6.652  40.739   8.264
 1199POPC   C3A18113   6.607  40.829   7.964
 1199POPC   C4A18114   6.641  40.800   7.664
 1199POPC   C1B18115   6.447  40.631   8.564
 1199POPC   C2B18116   6.401  40.590   8.264
 1199POPC   C3B18117   6.455  40.609   7.964
 1199POPC   C4B18118   6.479  40.647   7.664
 1200POPC   NC318119  37.711   2.743   9.464
 1200POPC   PO418120  37.696   2.786   9.164
 1200POPC   GL118121  37.656   2.806   8.864
 1200POPC   GL218122  37.580   2.750   8.864
 1200POPC   C1A18123  37.723   2.808   8.564
 1200POPC   D2A18124  37.671   2.738   8.264
 1200POPC   C3A18125  37.634   2.807   7.964
 1200POPC   C4A18126  37.631   2.770   7.664
 1200POPC   C1B18127  37.433   2.752   8.564
 1200POPC   C2B18128  37.422   2.733   8.264
 1200POPC   C3B18129  37.425   2.716   7.964
 1200POPC   C4B18130  37.419   2.712   7.664
 1201POPC   NC318131  44.645  26.090   9.464
 1201POPC   PO418132  44.660  26.009   9.164
 1201POPC   GL118133  44.640  26.063   8.864
 1201POPC   GL218134  44.733  26.132   8.864
 1201POPC   C1A18135  44.658  26.045   8.564
 1201POPC   D2A18136  44.666  26.076   8.264
 1201POPC   C3A18137  44.640  26.036   7.964
 1201POPC   C4A18138  44.708  26.005   7.664
 1201POPC   C1B18139  44.817  26.291   8.564
 1201POPC   C2B18140  44.742  26.236   8.264
 1201POPC   C3B18141  44.792  26.276   7.964
 1201POPC   C4B18142  44.809  26.277   7.664
 1202POPC   NC318143  18.311  26.810   9.464
 1202POPC   PO418144  18.283  26.842   9.164
 1202POPC   GL118145  18.309  26.807   8.864
 1202POPC   GL218146  18.399  26.729   8.864
 1202POPC   C1A18147  18.261  26.855   8.564
 1202POPC   D2A18148  18.299  26.846   8.264
 1202POPC   C3A18149  18.250  26.854   7.964
 1202POPC   C4A18150  18.259  26.831   7.664
 1202POPC   C1B18151  18.457  26.684   8.564
 1202POPC   C2B18152  18.484  26.687   8.264
 1202POPC   C3B18153  18.466  26.656   7.964
 1202POPC   C4B18154  18.417  26.659   7.664
 1203POPC   NC318155   0.431  24.491   9.464
 1203POPC   PO418156   0.450  24.468   9.164
 1203POPC   GL118157   0.413  24.518   8.864
 1203POPC   GL218158   0.361  24.437   8.864
 1203POPC   C1A18159   0.461  24.448   8.564
 1203POPC   D2A18160   0.448  24.504   8.264
 1203POPC   C3A18161   0.432  24.507   7.964
 1203POPC   C4A18162   0.474  24.477   7.664
 1203POPC   C1B18163   0.264  24.381   8.564
 1203POPC   C2B18164   0.247  24.388   8.264
 1203POPC   C3B18165   0.225  24.387   7.964
 1203POPC   C4B18166   0.259  24.394   7.664
 1204POPC   NC318167  23.686  11.272   9.464
 1204POPC   PO418168  23.691  11.320   9.164
 1204POPC   GL118169  23.760  11.298   8.864
 1204POPC   GL218170  23.703  11.135   8.864
 1204POPC   C1A18171  23.743  11.284   8.564
 1204POPC   D2A18172  23.665  11.300   8.264
 1204POPC   C3A18173  23.689  11.338   7.964
 1204POPC   C4A18174  23.685  11.335   7.664
 1204POPC   C1B18175  23.690  11.093   8.564
 1204POPC   C2B18176  23.722  11.020   8.264
 1204POPC   C3B18177  23.708  11.093   7.964
 1204POPC   C4B18178  23.694  11.079   7.664
 1205POPC   NC318179  40.015  15.182   9.464
 1205POPC   PO418180  40.041  15.212   9.164
 1205POPC   GL118181  40.015  15.210   8.864
 1205POPC   GL218182  40.043  15.087   8.864
 1205POPC   C1A18183  40.041  15.199   8.564
 1205POPC   D2A18184  39.959  15.206   8.264
 1205POPC   C3A18185  40.034  15.185   7.964
 1205POPC   C4A18186  40.025  15.228   7.664
 1205POPC   C1B18187  40.029  14.903   8.564
 1205POPC   C2B18188  39.937  14.966   8.264
 1205POPC   C3B18189  40.034  14.951   7.964
 1205POPC   C4B18190  39.949  14.962   7.664
 1206POPC   NC318191  26.052  43.132   9.464
 1206POPC   PO418192  26.042  43.068   9.164
 1206POPC   GL118193  26.064  43.160   8.864
 1206POPC   GL218194  26.042  43.262   8.864
 1206POPC   C1A18195  26.081  43.076   8.564
 1206POPC   D2A18196  26.047  43.078   8.264
 1206POPC   C3A18197  26.073  43.118   7.964
 1206POPC   C4A18198  26.052  43.149   7.664
 1206POPC   C1B18199  26.092  43.338   8.564
 1206POPC   C2B18200  26.062  43.327   8.264
 1206POPC   C3B18201  26.086  43.369   7.964
 1206POPC   C4B18202  26.016  43.397   7.664
 1207POPC   NC318203  14.429  17.502   9.464
 1207POPC   PO418204  14.395  17.508   9.164
 1207POPC   GL118205  14.357  17.492   8.864
 1207POPC   GL218206  14.536  17.434   8.864
 1207POPC   C1A18207  14.433  17.502   8.564
 1207POPC   D2A18208  14.444  17.480   8.264
 1207POPC   C3A18209  14.377  17.481   7.964
 1207POPC   C4A18210  14.380  17.526   7.664
 1207POPC   C1B18211  14.655  17.351   8.564
 1207POPC   C2B18212  14.600  17.402   8.264
 1207POPC   C3B18213  14.628  17.361   7.964
 1207POPC   C4B18214  14.583  17.374   7.664
 1208POPC   NC318215  29.892  38.480   9.464
 1208POPC   PO418216  29.888  38.504   9.164
 1208POPC   GL118217  29.928  38.499   8.864
 1208POPC   GL218218  29.960  38.322   8.864
 1208POPC   C1A18219  29.931  38.416   8.564
 1208POPC   D2A18220  29.931  38.477   8.264
 1208POPC   C3A18221  29.945  38.495   7.964
 1208POPC   C4A18222  29.927  38.471   7.664
 1208POPC   C1B18223  30.118  38.281   8.564
 1208POPC   C2B18224  30.082  38.211   8.264
 1208POPC   C3B18225  30.089  38.232   7.964
 1208POPC   C4B18226  30.035  38.284   7.664
 1209POPC   NC318227  31.448  26.790   9.464
 1209POPC   PO418228  31.429  26.838   9.164
 1209POPC   GL118229  31.471  26.826   8.864
 1209POPC   GL218230  31.493  26.988   8.864
 1209POPC   C1A18231  31.519  26.803   8.564
 1209POPC   D2A18232  31.424  26.824   8.264
 1209POPC   C3A18233  31.441  26.791   7.964
 1209POPC   C4A18234  31.461  26.838   7.664
 1209POPC   C1B18235  31.541  27.084   8.564
 1209POPC   C2B18236  31.534  27.104   8.264
 1209POPC   C3B18237  31.502  27.104   7.964
 1209POPC   C4B18238  31.542  27.048   7.664
 1210POPC   NC318239  40.824  12.888   9.464
 1210POPC   PO418240  40.748  12.901   9.164
 1210POPC   GL118241  40.769  12.859   8.864
 1210POPC   GL218242  40.851  12.725   8.864
 1210POPC   C1A18243  40.736  12.817   8.564
 1210POPC   D2A18244  40.787  12.830   8.264
 1210POPC   C3A18245  40.800  12.841   7.964
 1210POPC   C4A18246  40.741  12.894   7.664
 1210POPC   C1B18247  40.874  12.600   8.564
 1210POPC   C2B18248  40.878  12.667   8.264
 1210POPC   C3B18249  40.910  12.651   7.964
 1210POPC   C4B18250  40.929  12.612   7.664
 1211POPC   NC318251  37.636   3.550   9.464
 1211POPC   PO418252  37.654   3.566   9.164
 1211POPC   GL118253  37.662   3.564   8.864
 1211POPC   GL218254  37.825   3.516   8.864
 1211POPC   C1A18255  37.668   3.585   8.564
 1211POPC   D2A18256  37.671   3.565   8.264
 1211POPC   C3A18257  37.655   3.552   7.964
 1211POPC   C4A18258  37.642   3.541   7.664
 1211POPC   C1B18259  37.921   3.456   8.564
 1211POPC   C2B18260  37.928   3.412   8.264
 1211POPC   C3B18261  37.901   3.397   7.964
 1211POPC   C4B18262  37.944   3.464   7.664
 1212POPC   NC318263  32.201  15.907   9.464
 1212POPC   PO418264  32.265  15.982   9.164
 1212POPC   GL118265  32.277  15.945   8.864
 1212POPC   GL218266  32.170  15.960   8.864
 1212POPC   C1A18267  32.286  15.952   8.564
 1212POPC   D2A18268  32.261  15.912   8.264
 1212POPC   C3A18269  32.276  15.993   7.964
 1212POPC   C4A18270  32.272  15.914   7.664
 1212POPC   C1B18271  32.064  16.101   8.564
 1212POPC   C2B18272  32.037  16.102   8.264
 1212POPC   C3B18273  32.062  16.024   7.964
 1212POPC   C4B18274  32.015  16.035   7.664
 1213POPC   NC318275  39.204  14.430   9.464
 1213POPC   PO418276  39.202  14.379   9.164
 1213POPC   GL118277  39.208  14.415   8.864
 1213POPC   GL218278  39.395  14.394   8.864
 1213POPC   C1A18279  39.246  14.417   8.564
 1213POPC   D2A18280  39.199  14.415   8.264
 1213POPC   C3A18281  39.232  14.447   7.964
 1213POPC   C4A18282  39.247  14.432   7.664
 1213POPC   C1B18283  39.458  14.346   8.564
 1213POPC   C2B18284  39.517  14.425   8.264
 1213POPC   C3B18285  39.451  14.428   7.964
 1213POPC   C4B18286  39.513  14.373   7.664
 1214POPC   NC318287  43.148  21.427   9.464
 1214POPC   PO418288  43.156  21.350   9.164
 1214POPC   GL118289  43.142  21.384   8.864
 1214POPC   GL218290  43.047  21.239   8.864
 1214POPC   C1A18291  43.115  21.375   8.564
 1214POPC   D2A18292  43.117  21.375   8.264
 1214POPC   C3A18293  43.092  21.340   7.964
 1214POPC   C4A18294  43.111  21.409   7.664
 1214POPC   C1B18295  43.125  21.156   8.564
 1214POPC   C2B18296  43.075  21.159   8.264
 1214POPC   C3B18297  43.124  21.109   7.964
 1214POPC   C4B18298  43.080  21.142   7.664
 1215POPC   NC318299   0.440  34.584   9.464
 1215POPC   PO418300   0.391  34.607   9.164
 1215POPC   GL118301   0.418  34.553   8.864
 1215POPC   GL218302   0.533  34.551   8.864
 1215POPC   C1A18303   0.446  34.563   8.564
 1215POPC   D2A18304   0.423  34.576   8.264
 1215POPC   C3A18305   0.446  34.541   7.964
 1215POPC   C4A18306   0.397  34.590   7.664
 1215POPC   C1B18307   0.735  34.553   8.564
 1215POPC   C2B18308   0.652  34.512   8.264
 1215POPC   C3B18309   0.681  34.591   7.964
 1215POPC   C4B18310   0.706  34.568   7.664
 1216POPC   NC318311  26.072   5.830   9.464
 1216POPC   PO418312  26.023   5.882   9.164
 1216POPC   GL118313  26.066   5.841   8.864
 1216POPC   GL218314  25.978   6.010   8.864
 1216POPC   C1A18315  26.064   5.848   8.564
 1216POPC   D2A18316  25.992   5.853   8.264
 1216POPC   C3A18317  26.016   5.835   7.964
 1216POPC   C4A18318  25.997   5.881   7.664
 1216POPC   C1B18319  25.902   6.095   8.564
 1216POPC   C2B18320  25.924   6.100   8.264
 1216POPC   C3B18321  25.890   6.080   7.964
 1216POPC   C4B18322  25.949   6.099   7.664
 1217POPC   NC318323   8.936  24.521   9.464
 1217POPC   PO418324   9.010  24.536   9.164
 1217POPC   GL118325   9.017  24.451   8.864
 1217POPC   GL218326   8.882  24.457   8.864
 1217POPC   C1A18327   8.969  24.526   8.564
 1217POPC   D2A18328   8.976  24.494   8.264
 1217POPC   C3A18329   8.955  24.489   7.964
 1217POPC   C4A18330   9.005  24.465   7.664
 1217POPC   C1B18331   8.711  24.484   8.564
 1217POPC   C2B18332   8.724  24.443   8.264
 1217POPC   C3B18333   8.736  24.459   7.964
 1217POPC   C4B18334   8.761  24.480   7.664
 1218POPC   NC318335  32.205  22.988   9.464
 1218POPC   PO418336  32.199  22.984   9.164
 1218POPC   GL118337  32.258  22.938   8.864
 1218POPC   GL218338  32.224  23.019   8.864
 1218POPC   C1A18339  32.246  22.966   8.564
 1218POPC   D2A18340  32.250  22.977   8.264
 1218POPC   C3A18341  32.297  22.897   7.964
 1218POPC   C4A18342  32.270  22.890   7.664
 1218POPC   C1B18343  32.144  23.187   8.564
 1218POPC   C2B18344  32.180  23.123   8.264
 1218POPC   C3B18345  32.183  23.154   7.964
 1218POPC   C4B18346  32.177  23.170   7.664
 1219POPC   NC318347   3.502  43.070   9.464
 1219POPC   PO418348   3.515  43.107   9.164
 1219POPC   GL118349   3.571  43.099   8.864
 1219POPC   GL218350   3.654  43.003   8.864
 1219POPC   C1A18351   3.583  43.125   8.564
 1219POPC   D2A18352   3.578  43.080   8.264
 1219POPC   C3A18353   3.557  43.131   7.964
 1219POPC   C4A18354   3.495  43.088   7.664
 1219POPC   C1B18355   3.717  42.916   8.564
 1219POPC   C2B18356   3.660  42.914   8.264
 1219POPC   C3B18357   3.747  42.939   7.964
 1219POPC   C4B18358   3.727  42.962   7.664
 1220POPC   NC318359  39.962  24.520   9.464
 1220POPC   PO418360  40.048  24.475   9.164
 1220POPC   GL118361  39.991  24.477   8.864
 1220POPC   GL218362  40.099  24.614   8.864
 1220POPC   C1A18363  40.017  24.539   8.564
 1220POPC   D2A18364  40.025  24.483   8.264
 1220POPC   C3A18365  40.016  24.463   7.964
 1220POPC   C4A18366  40.006  24.459   7.664
 1220POPC   C1B18367  40.058  24.684   8.564
 1220POPC   C2B18368  40.138  24.683   8.264
 1220POPC   C3B18369  40.092  24.673   7.964
 1220POPC   C4B18370  40.099  24.762   7.664
 1221POPC   NC318371  27.609   6.645   9.464
 1221POPC   PO418372  27.591   6.629   9.164
 1221POPC   GL118373  27.553   6.626   8.864
 1221POPC   GL218374  27.540   6.501   8.864
 1221POPC   C1A18375  27.612   6.681   8.564
 1221POPC   D2A18376  27.602   6.630   8.264
 1221POPC   C3A18377  27.619   6.597   7.964
 1221POPC   C4A18378  27.628   6.625   7.664
 1221POPC   C1B18379  27.575   6.377   8.564
 1221POPC   C2B18380  27.565   6.413   8.264
 1221POPC   C3B18381  27.555   6.416   7.964
 1221POPC   C4B18382  27.574   6.372   7.664
 1222POPC   NC318383  36.127   4.308   9.464
 1222POPC   PO418384  36.169   4.275   9.164
 1222POPC   GL118385  36.176   4.335   8.864
 1222POPC   GL218386  36.070   4.370   8.864
 1222POPC   C1A18387  36.176   4.274   8.564
 1222POPC   D2A18388  36.099   4.336   8.264
 1222POPC   C3A18389  36.088   4.330   7.964
 1222POPC   C4A18390  36.080   4.331   7.664
 1222POPC   C1B18391  35.910   4.516   8.564
 1222POPC   C2B18392  35.982   4.508   8.264
 1222POPC   C3B18393  35.924   4.526   7.964
 1222POPC   C4B18394  35.943   4.496   7.664
 1223POPC   NC318395  19.787  36.091   9.464
 1223POPC   PO418396  19.785  36.110   9.164
 1223POPC   GL118397  19.848  36.113   8.864
 1223POPC   GL218398  19.958  36.158   8.864
 1223POPC   C1A18399  19.829  36.112   8.564
 1223POPC   D2A18400  19.842  36.159   8.264
 1223POPC   C3A18401  19.815  36.161   7.964
 1223POPC   C4A18402  19.835  36.094   7.664
 1223POPC   C1B18403  20.085  36.165   8.564
 1223POPC   C2B18404  20.105  36.111   8.264
 1223POPC   C3B18405  20.090  36.104   7.964
 1223POPC   C4B18406  20.123  36.134   7.664
 1224POPC   NC318407  22.922  36.123   9.464
 1224POPC   PO418408  22.971  36.140   9.164
 1224POPC   GL118409  22.976  36.163   8.864
 1224POPC   GL218410  22.853  35.977   8.864
 1224POPC   C1A18411  22.957  36.163   8.564
 1224POPC   D2A18412  22.964  36.122   8.264
 1224POPC   C3A18413  22.942  36.164   7.964
 1224POPC   C4A18414  22.914  36.109   7.664
 1224POPC   C1B18415  22.833  35.879   8.564
 1224POPC   C2B18416  22.815  35.928   8.264
 1224POPC   C3B18417  22.874  35.843   7.964
 1224POPC   C4B18418  22.850  35.843   7.664
 1225POPC   NC318419  10.510  43.920   9.464
 1225POPC   PO418420  10.569  43.848   9.164
 1225POPC   GL118421  10.558  43.848   8.864
 1225POPC   GL218422  10.418  43.845   8.864
 1225POPC   C1A18423  10.477  43.855   8.564
 1225POPC   D2A18424  10.547  43.872   8.264
 1225POPC   C3A18425  10.487  43.850   7.964
 1225POPC   C4A18426  10.570  43.914   7.664
 1225POPC   C1B18427  10.278  43.766   8.564
 1225POPC   C2B18428  10.297  43.768   8.264
 1225POPC   C3B18429  10.314  43.819   7.964
 1225POPC   C4B18430  10.248  43.807   7.664
 1226POPC   NC318431  38.445  15.177   9.464
 1226POPC   PO418432  38.416  15.174   9.164
 1226POPC   GL118433  38.466  15.229   8.864
 1226POPC   GL218434  38.311  15.142   8.864
 1226POPC   C1A18435  38.412  15.150   8.564
 1226POPC   D2A18436  38.493  15.173   8.264
 1226POPC   C3A18437  38.417  15.202   7.964
 1226POPC   C4A18438  38.438  15.216   7.664
 1226POPC   C1B18439  38.262  15.094   8.564
 1226POPC   C2B18440  38.203  15.069   8.264
 1226POPC   C3B18441  38.177  15.125   7.964
 1226POPC   C4B18442  38.209  15.097   7.664
 1227POPC   NC318443  37.677  19.806   9.464
 1227POPC   PO418444  37.650  19.858   9.164
 1227POPC   GL118445  37.726  19.843   8.864
 1227POPC   GL218446  37.550  19.879   8.864
 1227POPC   C1A18447  37.716  19.828   8.564
 1227POPC   D2A18448  37.714  19.880   8.264
 1227POPC   C3A18449  37.664  19.810   7.964
 1227POPC   C4A18450  37.672  19.786   7.664
 1227POPC   C1B18451  37.450  19.890   8.564
 1227POPC   C2B18452  37.467  19.875   8.264
 1227POPC   C3B18453  37.407  19.898   7.964
 1227POPC   C4B18454  37.391  19.941   7.664
 1228POPC   NC318455   6.681  37.702   9.464
 1228POPC   PO418456   6.626  37.667   9.164
 1228POPC   GL118457   6.606  37.706   8.864
 1228POPC   GL218458   6.540  37.599   8.864
 1228POPC   C1A18459   6.656  37.644   8.564
 1228POPC   D2A18460   6.669  37.698   8.264
 1228POPC   C3A18461   6.677  37.722   7.964
 1228POPC   C4A18462   6.690  37.723   7.664
 1228POPC   C1B18463   6.451  37.537   8.564
 1228POPC   C2B18464   6.479  37.490   8.264
 1228POPC   C3B18465   6.460  37.540   7.964
 1228POPC   C4B18466   6.512  37.474   7.664
 1229POPC   NC318467  43.150  26.035   9.464
 1229POPC   PO418468  43.134  26.050   9.164
 1229POPC   GL118469  43.106  26.015   8.864
 1229POPC   GL218470  43.169  26.074   8.864
 1229POPC   C1A18471  43.081  26.063   8.564
 1229POPC   D2A18472  43.122  26.044   8.264
 1229POPC   C3A18473  43.089  26.071   7.964
 1229POPC   C4A18474  43.077  26.017   7.664
 1229POPC   C1B18475  43.318  26.135   8.564
 1229POPC   C2B18476  43.282  26.154   8.264
 1229POPC   C3B18477  43.298  26.143   7.964
 1229POPC   C4B18478  43.298  26.145   7.664
 1230POPC   NC318479  33.829   6.607   9.464
 1230POPC   PO418480  33.805   6.629   9.164
 1230POPC   GL118481  33.774   6.656   8.864
 1230POPC   GL218482  33.888   6.712   8.864
 1230POPC   C1A18483  33.844   6.661   8.564
 1230POPC   D2A18484  33.817   6.684   8.264
 1230POPC   C3A18485  33.827   6.656   7.964
 1230POPC   C4A18486  33.846   6.667   7.664
 1230POPC   C1B18487  33.951   6.818   8.564
 1230POPC   C2B18488  33.886   6.865   8.264
 1230POPC   C3B18489  33.939   6.911   7.964
 1230POPC   C4B18490  33.874   6.824   7.664
 1231POPC   NC318491  15.177   7.465   9.464
 1231POPC   PO418492  15.228   7.440   9.164
 1231POPC   GL118493  15.194   7.406   8.864
 1231POPC   GL218494  15.294   7.492   8.864
 1231POPC   C1A18495  15.164   7.423   8.564
 1231POPC   D2A18496  15.189   7.389   8.264
 1231POPC   C3A18497  15.229   7.392   7.964
 1231POPC   C4A18498  15.136   7.403   7.664
 1231POPC   C1B18499  15.382   7.649   8.564
 1231POPC   C2B18500  15.339   7.578   8.264
 1231POPC   C3B18501  15.394   7.581   7.964
 1231POPC   C4B18502  15.367   7.599   7.664
 1232POPC   NC318503  39.196  32.203   9.464
 1232POPC   PO418504  39.204  32.203   9.164
 1232POPC   GL118505  39.245  32.213   8.864
 1232POPC   GL218506  39.111  32.262   8.864
 1232POPC   C1A18507  39.203  32.259   8.564
 1232POPC   D2A18508  39.209  32.207   8.264
 1232POPC   C3A18509  39.238  32.290   7.964
 1232POPC   C4A18510  39.258  32.231   7.664
 1232POPC   C1B18511  38.964  32.392   8.564
 1232POPC   C2B18512  39.046  32.360   8.264
 1232POPC   C3B18513  39.000  32.345   7.964
 1232POPC   C4B18514  39.040  32.337   7.664
 1233POPC   NC318515  13.609   2.738   9.464
 1233POPC   PO418516  13.578   2.770   9.164
 1233POPC   GL118517  13.632   2.787   8.864
 1233POPC   GL218518  13.689   2.864   8.864
 1233POPC   C1A18519  13.582   2.723   8.564
 1233POPC   D2A18520  13.670   2.725   8.264
 1233POPC   C3A18521  13.647   2.783   7.964
 1233POPC   C4A18522  13.615   2.787   7.664
 1233POPC   C1B18523  13.790   3.017   8.564
 1233POPC   C2B18524  13.784   3.020   8.264
 1233POPC   C3B18525  13.794   3.006   7.964
 1233POPC   C4B18526  13.706   2.989   7.664
 1234POPC   NC318527   7.422   8.171   9.464
 1234POPC   PO418528   7.373   8.164   9.164
 1234POPC   GL118529   7.420   8.212   8.864
 1234POPC   GL218530   7.450   8.113   8.864
 1234POPC   C1A18531   7.428   8.191   8.564
 1234POPC   D2A18532   7.430   8.193   8.264
 1234POPC   C3A18533   7.464   8.245   7.964
 1234POPC   C4A18534   7.466   8.220   7.664
 1234POPC   C1B18535   7.621   8.030   8.564
 1234POPC   C2B18536   7.539   7.985   8.264
 1234POPC   C3B18537   7.620   7.972   7.964
 1234POPC   C4B18538   7.553   8.038   7.664
 1235POPC   NC318539  32.266  22.125   9.464
 1235POPC   PO418540  32.240  22.127   9.164
 1235POPC   GL118541  32.289  22.122   8.864
 1235POPC   GL218542  32.346  22.263   8.864
 1235POPC   C1A18543  32.269  22.119   8.564
 1235POPC   D2A18544  32.208  22.205   8.264
 1235POPC   C3A18545  32.236  22.198   7.964
 1235POPC   C4A18546  32.236  22.188   7.664
 1235POPC   C1B18547  32.396  22.395   8.564
 1235POPC   C2B18548  32.428  22.333   8.264
 1235POPC   C3B18549  32.353  22.350   7.964
 1235POPC   C4B18550  32.416  22.388   7.664
 1236POPC   NC318551  37.678  23.675   9.464
 1236POPC   PO418552  37.718  23.700   9.164
 1236POPC   GL118553  37.703  23.684   8.864
 1236POPC   GL218554  37.599  23.732   8.864
 1236POPC   C1A18555  37.680  23.685   8.564
 1236POPC   D2A18556  37.686  23.761   8.264
 1236POPC   C3A18557  37.685  23.730   7.964
 1236POPC   C4A18558  37.681  23.683   7.664
 1236POPC   C1B18559  37.491  23.797   8.564
 1236POPC   C2B18560  37.433  23.756   8.264
 1236POPC   C3B18561  37.404  23.814   7.964
 1236POPC   C4B18562  37.451  23.819   7.664
 1237POPC   NC318563  38.450  15.910   9.464
 1237POPC   PO418564  38.406  16.002   9.164
 1237POPC   GL118565  38.422  15.969   8.864
 1237POPC   GL218566  38.354  16.006   8.864
 1237POPC   C1A18567  38.494  15.996   8.564
 1237POPC   D2A18568  38.436  15.912   8.264
 1237POPC   C3A18569  38.495  15.986   7.964
 1237POPC   C4A18570  38.434  15.910   7.664
 1237POPC   C1B18571  38.256  16.197   8.564
 1237POPC   C2B18572  38.332  16.158   8.264
 1237POPC   C3B18573  38.291  16.179   7.964
 1237POPC   C4B18574  38.273  16.191   7.664
 1238POPC   NC318575  36.110  23.697   9.464
 1238POPC   PO418576  36.134  23.697   9.164
 1238POPC   GL118577  36.140  23.669   8.864
 1238POPC   GL218578  36.095  23.867   8.864
 1238POPC   C1A18579  36.166  23.665   8.564
 1238POPC   D2A18580  36.121  23.754   8.264
 1238POPC   C3A18581  36.106  23.723   7.964
 1238POPC   C4A18582  36.087  23.754   7.664
 1238POPC   C1B18583  36.054  23.933   8.564
 1238POPC   C2B18584  36.106  23.928   8.264
 1238POPC   C3B18585  36.087  23.961   7.964
 1238POPC   C4B18586  36.135  23.980   7.664
 1239POPC   NC318587   8.154   8.984   9.464
 1239POPC   PO418588   8.209   9.010   9.164
 1239POPC   GL118589   8.195   8.971   8.864
 1239POPC   GL218590   8.054   9.081   8.864
 1239POPC   C1A18591   8.244   9.015   8.564
 1239POPC   D2A18592   8.237   9.011   8.264
 1239POPC   C3A18593   8.182   9.017   7.964
 1239POPC   C4A18594   8.221   8.923   7.664
 1239POPC   C1B18595   8.010   9.167   8.564
 1239POPC   C2B18596   8.043   9.158   8.264
 1239POPC   C3B18597   8.018   9.087   7.964
 1239POPC   C4B18598   8.023   9.095   7.664
 1240POPC   NC318599   5.883   1.196   9.464
 1240POPC   PO418600   5.839   1.170   9.164
 1240POPC   GL118601   5.863   1.230   8.864
 1240POPC   GL218602   5.832   1.371   8.864
 1240POPC   C1A18603   5.877   1.214   8.564
 1240POPC   D2A18604   5.867   1.178   8.264
 1240POPC   C3A18605   5.903   1.245   7.964
 1240POPC   C4A18606   5.861   1.215   7.664
 1240POPC   C1B18607   5.845   1.492   8.564
 1240POPC   C2B18608   5.831   1.495   8.264
 1240POPC   C3B18609   5.912   1.510   7.964
 1240POPC   C4B18610   5.855   1.423   7.664
 1241POPC   NC318611  29.907  22.176   9.464
 1241POPC   PO418612  29.966  22.181   9.164
 1241POPC   GL118613  29.939  22.188   8.864
 1241POPC   GL218614  29.867  22.084   8.864
 1241POPC   C1A18615  29.876  22.176   8.564
 1241POPC   D2A18616  29.946  22.129   8.264
 1241POPC   C3A18617  29.949  22.137   7.964
 1241POPC   C4A18618  29.900  22.178   7.664
 1241POPC   C1B18619  29.779  21.922   8.564
 1241POPC   C2B18620  29.864  21.899   8.264
 1241POPC   C3B18621  29.808  21.891   7.964
 1241POPC   C4B18622  29.852  21.919   7.664
 1242POPC   NC318623   6.666  33.829   9.464
 1242POPC   PO418624   6.692  33.816   9.164
 1242POPC   GL118625   6.688  33.771   8.864
 1242POPC   GL218626   6.811  33.802   8.864
 1242POPC   C1A18627   6.612  33.767   8.564
 1242POPC   D2A18628   6.602  33.816   8.264
 1242POPC   C3A18629   6.607  33.766   7.964
 1242POPC   C4A18630   6.674  33.757   7.664
 1242POPC   C1B18631   6.917  33.929   8.564
 1242POPC   C2B18632   6.913  33.896   8.264
 1242POPC   C3B18633   6.830  33.882   7.964
 1242POPC   C4B18634   6.886  33.865   7.664
 1243POPC   NC318635  11.253   1.999   9.464
 1243POPC   PO418636  11.277   1.974   9.164
 1243POPC   GL118637  11.295   2.018   8.864
 1243POPC   GL218638  11.386   1.938   8.864
 1243POPC   C1A18639  11.325   1.964   8.564
 1243POPC   D2A18640  11.252   2.028   8.264
 1243POPC   C3A18641  11.326   1.981   7.964
 1243POPC   C4A18642  11.332   2.032   7.664
 1243POPC   C1B18643  11.430   1.757   8.564
 1243POPC   C2B18644  11.424   1.820   8.264
 1243POPC   C3B18645  11.456   1.800   7.964
 1243POPC   C4B18646  11.454   1.829   7.664
 1244POPC   NC318647   8.153  38.443   9.464
 1244POPC   PO418648   8.220  38.419   9.164
 1244POPC   GL118649   8.246  38.431   8.864
 1244POPC   GL218650   8.359  38.509   8.864
 1244POPC   C1A18651   8.196  38.494   8.564
 1244POPC   D2A18652   8.195  38.482   8.264
 1244POPC   C3A18653   8.220  38.441   7.964
 1244POPC   C4A18654   8.176  38.439   7.664
 1244POPC   C1B18655   8.402  38.568   8.564
 1244POPC   C2B18656   8.395  38.562   8.264
 1244POPC   C3B18657   8.384  38.532   7.964
 1244POPC   C4B18658   8.451  38.499   7.664
 1245POPC   NC318659  35.332  26.847   9.464
 1245POPC   PO418660  35.387  26.833   9.164
 1245POPC   GL118661  35.340  26.852   8.864
 1245POPC   GL218662  35.279  26.759   8.864
 1245POPC   C1A18663  35.370  26.772   8.564
 1245POPC   D2A18664  35.335  26.788   8.264
 1245POPC   C3A18665  35.327  26.820   7.964
 1245POPC   C4A18666  35.394  26.789   7.664
 1245POPC   C1B18667  35.179  26.628   8.564
 1245POPC   C2B18668  35.200  26.660   8.264
 1245POPC   C3B18669  35.197  26.699   7.964
 1245POPC   C4B18670  35.160  26.619   7.664
 1246POPC   NC318671   8.203  20.647   9.464
 1246POPC   PO418672   8.160  20.566   9.164
 1246POPC   GL118673   8.216  20.637   8.864
 1246POPC   GL218674   8.099  20.649   8.864
 1246POPC   C1A18675   8.188  20.631   8.564
 1246POPC   D2A18676   8.224  20.586   8.264
 1246POPC   C3A18677   8.160  20.582   7.964
 1246POPC   C4A18678   8.233  20.623   7.664
 1246POPC   C1B18679   7.949  20.649   8.564
 1246POPC   C2B18680   7.943  20.692   8.264
 1246POPC   C3B18681   7.918  20.726   7.964
 1246POPC   C4B18682   7.943  20.717   7.664
 1247POPC   NC318683   5.904  18.282   9.464
 1247POPC   PO418684   5.875  18.266   9.164
 1247POPC   GL118685   5.887  18.321   8.864
 1247POPC   GL218686   5.726  18.348   8.864
 1247POPC   C1A18687   5.862  18.328   8.564
 1247POPC   D2A18688   5.827  18.233   8.264
 1247POPC   C3A18689   5.894  18.325   7.964
 1247POPC   C4A18690   5.863  18.287   7.664
 1247POPC   C1B18691   5.670  18.305   8.564
 1247POPC   C2B18692   5.639  18.325   8.264
 1247POPC   C3B18693   5.595  18.334   7.964
 1247POPC   C4B18694   5.605  18.335   7.664
 1248POPC   NC318695  38.490   8.232   9.464
 1248POPC   PO418696  38.417   8.185   9.164
 1248POPC   GL118697  38.436   8.196   8.864
 1248POPC   GL218698  38.328   8.142   8.864
 1248POPC   C1A18699  38.473   8.171   8.564
 1248POPC   D2A18700  38.490   8.231   8.264
 1248POPC   C3A18701  38.411   8.164   7.964
 1248POPC   C4A18702  38.502   8.182   7.664
 1248POPC   C1B18703  38.174   8.091   8.564
 1248POPC   C2B18704  38.237   8.086   8.264
 1248POPC   C3B18705  38.169   8.098   7.964
 1248POPC   C4B18706  38.243   8.176   7.664
 1249POPC   NC318707   9.708  29.190   9.464
 1249POPC   PO418708   9.748  29.166   9.164
 1249POPC   GL118709   9.746  29.131   8.864
 1249POPC   GL218710   9.604  29.262   8.864
 1249POPC   C1A18711   9.772  29.114   8.564
 1249POPC   D2A18712   9.727  29.143   8.264
 1249POPC   C3A18713   9.706  29.097   7.964
 1249POPC   C4A18714   9.790  29.114   7.664
 1249POPC   C1B18715   9.573  29.263   8.564
 1249POPC   C2B18716   9.500  29.293   8.264
 1249POPC   C3B18717   9.544  29.272   7.964
 1249POPC   C4B18718   9.506  29.326   7.664
 1250POPC   NC318719   5.082  32.995   9.464
 1250POPC   PO418720   5.126  32.983   9.164
 1250POPC   GL118721   5.111  33.024   8.864
 1250POPC   GL218722   5.040  32.915   8.864
 1250POPC   C1A18723   5.105  33.044   8.564
 1250POPC   D2A18724   5.120  33.039   8.264
 1250POPC   C3A18725   5.061  33.020   7.964
 1250POPC   C4A18726   5.048  33.042   7.664
 1250POPC   C1B18727   4.902  32.872   8.564
 1250POPC   C2B18728   4.944  32.824   8.264
 1250POPC   C3B18729   4.893  32.822   7.964
 1250POPC   C4B18730   4.972  32.820   7.664
 1251POPC   NC318731  11.314  41.553   9.464
 1251POPC   PO418732  11.281  41.607   9.164
 1251POPC   GL118733  11.294  41.565   8.864
 1251POPC   GL218734  11.396  41.531   8.864
 1251POPC   C1A18735  11.312  41.569   8.564
 1251POPC   D2A18736  11.314  41.583   8.264
 1251POPC   C3A18737  11.339  41.564   7.964
 1251POPC   C4A18738  11.253  41.563   7.664
 1251POPC   C1B18739  11.510  41.598   8.564
 1251POPC   C2B18740  11.502  41.554   8.264
 1251POPC   C3B18741  11.576  41.599   7.964
 1251POPC   C4B18742  11.564  41.581   7.664
 1252POPC   NC318743  14.363  40.778   9.464
 1252POPC   PO418744  14.414  40.832   9.164
 1252POPC   GL118745  14.452  40.804   8.864
 1252POPC   GL218746  14.326  40.649   8.864
 1252POPC   C1A18747  14.428  40.793   8.564
 1252POPC   D2A18748  14.383  40.741   8.264
 1252POPC   C3A18749  14.421  40.780   7.964
 1252POPC   C4A18750  14.419  40.757   7.664
 1252POPC   C1B18751  14.361  40.530   8.564
 1252POPC   C2B18752  14.288  40.561   8.264
 1252POPC   C3B18753  14.306  40.535   7.964
 1252POPC   C4B18754  14.363  40.525   7.664
 1253POPC   NC318755  10.541  35.356   9.464
 1253POPC   PO418756  10.510  35.328   9.164
 1253POPC   GL118757  10.524  35.360   8.864
 1253POPC   GL218758  10.398  35.379   8.864
 1253POPC   C1A18759  10.557  35.385   8.564
 1253POPC   D2A18760  10.572  35.370   8.264
 1253POPC   C3A18761  10.544  35.358   7.964
 1253POPC   C4A18762  10.559  35.394   7.664
 1253POPC   C1B18763  10.251  35.332   8.564
 1253POPC   C2B18764  10.301  35.396   8.264
 1253POPC   C3B18765  10.225  35.406   7.964
 1253POPC   C4B18766  10.242  35.383   7.664
 1254POPC   NC318767  24.501  30.694   9.464
 1254POPC   PO418768  24.492  30.723   9.164
 1254POPC   GL118769  24.487  30.667   8.864
 1254POPC   GL218770  24.555  30.567   8.864
 1254POPC   C1A18771  24.510  30.724   8.564
 1254POPC   D2A18772  24.535  30.728   8.264
 1254POPC   C3A18773  24.505  30.670   7.964
 1254POPC   C4A18774  24.508  30.725   7.664
 1254POPC   C1B18775  24.668  30.522   8.564
 1254POPC   C2B18776  24.681  30.554   8.264
 1254POPC   C3B18777  24.618  30.547   7.964
 1254POPC   C4B18778  24.678  30.517   7.664
 1255POPC   NC318779  40.832  44.659   9.464
 1255POPC   PO418780  40.738  44.621   9.164
 1255POPC   GL118781  40.781  44.639   8.864
 1255POPC   GL218782  40.880  44.635   8.864
 1255POPC   C1A18783  40.768  44.617   8.564
 1255POPC   D2A18784  40.752  44.638   8.264
 1255POPC   C3A18785  40.790  44.677   7.964
 1255POPC   C4A18786  40.770  44.657   7.664
 1255POPC   C1B18787  41.002  44.579   8.564
 1255POPC   C2B18788  41.019  44.576   8.264
 1255POPC   C3B18789  41.070  44.639   7.964
 1255POPC   C4B18790  41.015  44.610   7.664
 1256POPC   NC318791  42.354  15.147   9.464
 1256POPC   PO418792  42.332  15.158   9.164
 1256POPC   GL118793  42.313  15.201   8.864
 1256POPC   GL218794  42.417  15.063   8.864
 1256POPC   C1A18795  42.310  15.142   8.564
 1256POPC   D2A18796  42.300  15.221   8.264
 1256POPC   C3A18797  42.378  15.218   7.964
 1256POPC   C4A18798  42.357  15.138   7.664
 1256POPC   C1B18799  42.479  14.956   8.564
 1256POPC   C2B18800  42.470  15.018   8.264
 1256POPC   C3B18801  42.528  14.998   7.964
 1256POPC   C4B18802  42.519  14.953   7.664
 1257POPC   NC318803   1.992   0.400   9.464
 1257POPC   PO418804   2.004   0.469   9.164
 1257POPC   GL118805   1.995   0.413   8.864
 1257POPC   GL218806   2.076   0.514   8.864
 1257POPC   C1A18807   1.987   0.441   8.564
 1257POPC   D2A18808   2.007   0.443   8.264
 1257POPC   C3A18809   1.980   0.486   7.964
 1257POPC   C4A18810   1.966   0.390   7.664
 1257POPC   C1B18811   2.163   0.641   8.564
 1257POPC   C2B18812   2.138   0.617   8.264
 1257POPC   C3B18813   2.205   0.601   7.964
 1257POPC   C4B18814   2.162   0.640   7.664
 1258POPC   NC318815  31.490   4.286   9.464
 1258POPC   PO418816  31.509   4.316   9.164
 1258POPC   GL118817  31.516   4.283   8.864
 1258POPC   GL218818  31.385   4.361   8.864
 1258POPC   C1A18819  31.438   4.326   8.564
 1258POPC   D2A18820  31.436   4.320   8.264
 1258POPC   C3A18821  31.500   4.327   7.964
 1258POPC   C4A18822  31.471   4.344   7.664
 1258POPC   C1B18823  31.248   4.501   8.564
 1258POPC   C2B18824  31.243   4.488   8.264
 1258POPC   C3B18825  31.301   4.496   7.964
 1258POPC   C4B18826  31.297   4.427   7.664
 1259POPC   NC318827   9.020  15.978   9.464
 1259POPC   PO418828   9.003  15.969   9.164
 1259POPC   GL118829   8.933  15.971   8.864
 1259POPC   GL218830   9.118  15.842   8.864
 1259POPC   C1A18831   8.993  15.929   8.564
 1259POPC   D2A18832   8.995  15.941   8.264
 1259POPC   C3A18833   8.966  15.930   7.964
 1259POPC   C4A18834   9.010  15.937   7.664
 1259POPC   C1B18835   9.165  15.844   8.564
 1259POPC   C2B18836   9.198  15.833   8.264
 1259POPC   C3B18837   9.192  15.848   7.964
 1259POPC   C4B18838   9.131  15.773   7.664
 1260POPC   NC318839  32.235   3.567   9.464
 1260POPC   PO418840  32.282   3.532   9.164
 1260POPC   GL118841  32.296   3.571   8.864
 1260POPC   GL218842  32.197   3.460   8.864
 1260POPC   C1A18843  32.257   3.574   8.564
 1260POPC   D2A18844  32.213   3.588   8.264
 1260POPC   C3A18845  32.293   3.563   7.964
 1260POPC   C4A18846  32.263   3.578   7.664
 1260POPC   C1B18847  32.119   3.274   8.564
 1260POPC   C2B18848  32.150   3.360   8.264
 1260POPC   C3B18849  32.100   3.320   7.964
 1260POPC   C4B18850  32.128   3.273   7.664
 1261POPC   NC318851   8.191  43.914   9.464
 1261POPC   PO418852   8.169  43.848   9.164
 1261POPC   GL118853   8.246  43.864   8.864
 1261POPC   GL218854   8.110  43.876   8.864
 1261POPC   C1A18855   8.204  43.855   8.564
 1261POPC   D2A18856   8.194  43.858   8.264
 1261POPC   C3A18857   8.223  43.875   7.964
 1261POPC   C4A18858   8.227  43.885   7.664
 1261POPC   C1B18859   7.956  43.830   8.564
 1261POPC   C2B18860   7.929  43.901   8.264
 1261POPC   C3B18861   7.991  43.880   7.964
 1261POPC   C4B18862   7.931  43.859   7.664
 1262POPC   NC318863  26.002  41.525   9.464
 1262POPC   PO418864  25.999  41.584   9.164
 1262POPC   GL118865  26.056  41.599   8.864
 1262POPC   GL218866  25.884  41.516   8.864
 1262POPC   C1A18867  26.018  41.551   8.564
 1262POPC   D2A18868  26.076  41.550   8.264
 1262POPC   C3A18869  26.022  41.518   7.964
 1262POPC   C4A18870  26.036  41.603   7.664
 1262POPC   C1B18871  25.779  41.549   8.564
 1262POPC   C2B18872  25.747  41.512   8.264
 1262POPC   C3B18873  25.759  41.503   7.964
 1262POPC   C4B18874  25.793  41.521   7.664
 1263POPC   NC318875  33.783   1.191   9.464
 1263POPC   PO418876  33.810   1.209   9.164
 1263POPC   GL118877  33.755   1.219   8.864
 1263POPC   GL218878  33.697   1.280   8.864
 1263POPC   C1A18879  33.834   1.188   8.564
 1263POPC   D2A18880  33.794   1.173   8.264
 1263POPC   C3A18881  33.775   1.192   7.964
 1263POPC   C4A18882  33.843   1.171   7.664
 1263POPC   C1B18883  33.536   1.278   8.564
 1263POPC   C2B18884  33.602   1.314   8.264
 1263POPC   C3B18885  33.527   1.338   7.964
 1263POPC   C4B18886  33.604   1.282   7.664
 1264POPC   NC318887  19.050  25.244   9.464
 1264POPC   PO418888  19.088  25.264   9.164
 1264POPC   GL118889  19.053  25.257   8.864
 1264POPC   GL218890  19.003  25.438   8.864
 1264POPC   C1A18891  19.030  25.247   8.564
 1264POPC   D2A18892  19.098  25.231   8.264
 1264POPC   C3A18893  19.101  25.275   7.964
 1264POPC   C4A18894  19.068  25.228   7.664
 1264POPC   C1B18895  19.080  25.509   8.564
 1264POPC   C2B18896  19.028  25.530   8.264
 1264POPC   C3B18897  19.067  25.499   7.964
 1264POPC   C4B18898  19.071  25.501   7.664
 1265POPC   NC318899  41.603  26.783   9.464
 1265POPC   PO418900  41.514  26.823   9.164
 1265POPC   GL118901  41.580  26.846   8.864
 1265POPC   GL218902  41.603  26.871   8.864
 1265POPC   C1A18903  41.576  26.789   8.564
 1265POPC   D2A18904  41.592  26.772   8.264
 1265POPC   C3A18905  41.569  26.782   7.964
 1265POPC   C4A18906  41.555  26.786   7.664
 1265POPC   C1B18907  41.768  26.996   8.564
 1265POPC   C2B18908  41.757  26.982   8.264
 1265POPC   C3B18909  41.714  26.964   7.964
 1265POPC   C4B18910  41.734  26.965   7.664
 1266POPC   NC318911  15.223  38.470   9.464
 1266POPC   PO418912  15.136  38.433   9.164
 1266POPC   GL118913  15.186  38.483   8.864
 1266POPC   GL218914  15.145  38.347   8.864
 1266POPC   C1A18915  15.146  38.446   8.564
 1266POPC   D2A18916  15.209  38.442   8.264
 1266POPC   C3A18917  15.205  38.456   7.964
 1266POPC   C4A18918  15.170  38.449   7.664
 1266POPC   C1B18919  15.020  38.245   8.564
 1266POPC   C2B18920  15.022  38.265   8.264
 1266POPC   C3B18921  14.999  38.232   7.964
 1266POPC   C4B18922  15.008  38.250   7.664
 1267POPC   NC318923  16.762  35.352   9.464
 1267POPC   PO418924  16.720  35.303   9.164
 1267POPC   GL118925  16.690  35.379   8.864
 1267POPC   GL218926  16.708  35.495   8.864
 1267POPC   C1A18927  16.701  35.357   8.564
 1267POPC   D2A18928  16.725  35.381   8.264
 1267POPC   C3A18929  16.734  35.349   7.964
 1267POPC   C4A18930  16.687  35.360   7.664
 1267POPC   C1B18931  16.552  35.560   8.564
 1267POPC   C2B18932  16.591  35.555   8.264
 1267POPC   C3B18933  16.593  35.606   7.964
 1267POPC   C4B18934  16.631  35.515   7.664
 1268POPC   NC318935   7.432  34.576   9.464
 1268POPC   PO418936   7.388  34.622   9.164
 1268POPC   GL118937   7.458  34.595   8.864
 1268POPC   GL218938   7.477  34.443   8.864
 1268POPC   C1A18939   7.436  34.564   8.564
 1268POPC   D2A18940   7.441  34.577   8.264
 1268POPC   C3A18941   7.449  34.616   7.964
 1268POPC   C4A18942   7.374  34.605   7.664
 1268POPC   C1B18943   7.629  34.415   8.564
 1268POPC   C2B18944   7.572  34.401   8.264
 1268POPC   C3B18945   7.607  34.408   7.964
 1268POPC   C4B18946   7.613  34.389   7.664
 1269POPC   NC318947   9.735   1.942   9.464
 1269POPC   PO418948   9.784   1.952   9.164
 1269POPC   GL118949   9.762   1.961   8.864
 1269POPC   GL218950   9.755   2.080   8.864
 1269POPC   C1A18951   9.758   1.946   8.564
 1269POPC   D2A18952   9.767   2.005   8.264
 1269POPC   C3A18953   9.761   2.021   7.964
 1269POPC   C4A18954   9.796   1.979   7.664
 1269POPC   C1B18955   9.789   2.267   8.564
 1269POPC   C2B18956   9.820   2.249   8.264
 1269POPC   C3B18957   9.822   2.190   7.964
 1269POPC   C4B18958   9.761   2.271   7.664
 1270POPC   NC318959  43.126  40.820   9.464
 1270POPC   PO418960  43.075  40.826   9.164
 1270POPC   GL118961  43.064  40.818   8.864
 1270POPC   GL218962  43.049  40.862   8.864
 1270POPC   C1A18963  43.109  40.795   8.564
 1270POPC   D2A18964  43.151  40.737   8.264
 1270POPC   C3A18965  43.120  40.790   7.964
 1270POPC   C4A18966  43.143  40.776   7.664
 1270POPC   C1B18967  42.907  40.934   8.564
 1270POPC   C2B18968  42.971  40.930   8.264
 1270POPC   C3B18969  42.973  40.927   7.964
 1270POPC   C4B18970  42.936  40.940   7.664
 1271POPC   NC318971  19.078  28.336   9.464
 1271POPC   PO418972  19.062  28.340   9.164
 1271POPC   GL118973  19.049  28.400   8.864
 1271POPC   GL218974  19.068  28.443   8.864
 1271POPC   C1A18975  19.019  28.399   8.564
 1271POPC   D2A18976  19.040  28.366   8.264
 1271POPC   C3A18977  19.095  28.343   7.964
 1271POPC   C4A18978  19.084  28.411   7.664
 1271POPC   C1B18979  19.113  28.663   8.564
 1271POPC   C2B18980  19.060  28.605   8.264
 1271POPC   C3B18981  19.053  28.577   7.964
 1271POPC   C4B18982  19.102  28.605   7.664
 1272POPC   NC318983   1.975  16.692   9.464
 1272POPC   PO418984   1.973  16.682   9.164
 1272POPC   GL118985   1.975  16.762   8.864
 1272POPC   GL218986   1.895  16.652   8.864
 1272POPC   C1A18987   2.039  16.735   8.564
 1272POPC   D2A18988   1.951  16.689   8.264
 1272POPC   C3A18989   1.946  16.778   7.964
 1272POPC   C4A18990   2.003  16.682   7.664
 1272POPC   C1B18991   1.901  16.551   8.564
 1272POPC   C2B18992   1.877  16.519   8.264
 1272POPC   C3B18993   1.898  16.473   7.964
 1272POPC   C4B18994   1.860  16.517   7.664
 1273POPC   NC318995  44.709  36.935   9.464
 1273POPC   PO418996  44.651  36.868   9.164
 1273POPC   GL118997  44.704  36.855   8.864
 1273POPC   GL218998  44.529  36.975   8.864
 1273POPC   C1A18999  44.651  36.901   8.564
 1273POPC   D2A19000  44.662  36.902   8.264
 1273POPC   C3A19001  44.668  36.878   7.964
 1273POPC   C4A19002  44.641  36.938   7.664
 1273POPC   C1B19003  44.405  36.999   8.564
 1273POPC   C2B19004  44.421  37.077   8.264
 1273POPC   C3B19005  44.421  37.029   7.964
 1273POPC   C4B19006  44.414  37.070   7.664
 1274POPC   NC319007  43.902  36.855   9.464
 1274POPC   PO419008  43.873  36.901   9.164
 1274POPC   GL119009  43.919  36.895   8.864
 1274POPC   GL219010  43.978  36.965   8.864
 1274POPC   C1A19011  43.867  36.922   8.564
 1274POPC   D2A19012  43.849  36.868   8.264
 1274POPC   C3A19013  43.886  36.901   7.964
 1274POPC   C4A19014  43.864  36.900   7.664
 1274POPC   C1B19015  44.050  37.108   8.564
 1274POPC   C2B19016  44.036  37.118   8.264
 1274POPC   C3B19017  44.054  37.135   7.964
 1274POPC   C4B19018  44.014  37.127   7.664
 1275POPC   NC319019  40.022  23.730   9.464
 1275POPC   PO419020  39.970  23.710   9.164
 1275POPC   GL119021  39.982  23.748   8.864
 1275POPC   GL219022  40.118  23.623   8.864
 1275POPC   C1A19023  40.057  23.704   8.564
 1275POPC   D2A19024  39.991  23.733   8.264
 1275POPC   C3A19025  39.997  23.682   7.964
 1275POPC   C4A19026  39.971  23.759   7.664
 1275POPC   C1B19027  40.197  23.653   8.564
 1275POPC   C2B19028  40.266  23.609   8.264
 1275POPC   C3B19029  40.239  23.659   7.964
 1275POPC   C4B19030  40.269  23.606   7.664
 1276POPC   NC319031  14.420   2.788   9.464
 1276POPC   PO419032  14.386   2.787   9.164
 1276POPC   GL119033  14.424   2.725   8.864
 1276POPC   GL219034  14.232   2.787   8.864
 1276POPC   C1A19035  14.428   2.778   8.564
 1276POPC   D2A19036  14.437   2.759   8.264
 1276POPC   C3A19037  14.361   2.767   7.964
 1276POPC   C4A19038  14.438   2.762   7.664
 1276POPC   C1B19039  14.140   2.772   8.564
 1276POPC   C2B19040  14.122   2.764   8.264
 1276POPC   C3B19041  14.109   2.782   7.964
 1276POPC   C4B19042  14.149   2.828   7.664
 1277POPC   NC319043  34.622  39.969   9.464
 1277POPC   PO419044  34.582  39.992   9.164
 1277POPC   GL119045  34.548  40.017   8.864
 1277POPC   GL219046  34.581  40.155   8.864
 1277POPC   C1A19047  34.618  40.025   8.564
 1277POPC   D2A19048  34.568  40.018   8.264
 1277POPC   C3A19049  34.599  39.989   7.964
 1277POPC   C4A19050  34.563  39.988   7.664
 1277POPC   C1B19051  34.535  40.210   8.564
 1277POPC   C2B19052  34.556  40.235   8.264
 1277POPC   C3B19053  34.593  40.291   7.964
 1277POPC   C4B19054  34.558  40.305   7.664
 1278POPC   NC319055  13.585  22.186   9.464
 1278POPC   PO419056  13.580  22.135   9.164
 1278POPC   GL119057  13.677  22.143   8.864
 1278POPC   GL219058  13.481  22.090   8.864
 1278POPC   C1A19059  13.593  22.129   8.564
 1278POPC   D2A19060  13.674  22.157   8.264
 1278POPC   C3A19061  13.653  22.129   7.964
 1278POPC   C4A19062  13.629  22.120   7.664
 1278POPC   C1B19063  13.409  22.098   8.564
 1278POPC   C2B19064  13.391  22.094   8.264
 1278POPC   C3B19065  13.371  22.141   7.964
 1278POPC   C4B19066  13.390  22.093   7.664
 1279POPC   NC319067  41.512  21.360   9.464
 1279POPC   PO419068  41.571  21.429   9.164
 1279POPC   GL119069  41.606  21.427   8.864
 1279POPC   GL219070  41.571  21.227   8.864
 1279POPC   C1A19071  41.532  21.400   8.564
 1279POPC   D2A19072  41.546  21.387   8.264
 1279POPC   C3A19073  41.521  21.381   7.964
 1279POPC   C4A19074  41.540  21.340   7.664
 1279POPC   C1B19075  41.602  21.182   8.564
 1279POPC   C2B19076  41.683  21.133   8.264
 1279POPC   C3B19077  41.601  21.197   7.964
 1279POPC   C4B19078  41.664  21.198   7.664
 1280POPC   NC319079  26.863  40.814   9.464
 1280POPC   PO419080  26.788  40.792   9.164
 1280POPC   GL119081  26.856  40.742   8.864
 1280POPC   GL219082  26.782  40.658   8.864
 1280POPC   C1A19083  26.830  40.793   8.564
 1280POPC   D2A19084  26.802  40.806   8.264
 1280POPC   C3A19085  26.777  40.799   7.964
 1280POPC   C4A19086  26.805  40.782   7.664
 1280POPC   C1B19087  26.636  40.610   8.564
 1280POPC   C2B19088  26.627  40.604   8.264
 1280POPC   C3B19089  26.668  40.604   7.964
 1280POPC   C4B19090  26.639  40.539   7.664
 1281POPC   NC319091   2.807  43.892   9.464
 1281POPC   PO419092   2.795  43.858   9.164
 1281POPC   GL119093   2.740  43.891   8.864
 1281POPC   GL219094   2.881  43.956   8.864
 1281POPC   C1A19095   2.738  43.884   8.564
 1281POPC   D2A19096   2.801  43.935   8.264
 1281POPC   C3A19097   2.794  43.888   7.964
 1281POPC   C4A19098   2.749  43.919   7.664
 1281POPC   C1B19099   2.975  44.008   8.564
 1281POPC   C2B19100   2.972  43.998   8.264
 1281POPC   C3B19101   3.001  44.035   7.964
 1281POPC   C4B19102   2.925  43.989   7.664
 1282POPC   NC319103   0.420   9.720   9.464
 1282POPC   PO419104   0.400   9.747   9.164
 1282POPC   GL119105   0.466   9.716   8.864
 1282POPC   GL219106   0.401   9.860   8.864
 1282POPC   C1A19107   0.418   9.723   8.564
 1282POPC   D2A19108   0.483   9.760   8.264
 1282POPC   C3A19109   0.431   9.702   7.964
 1282POPC   C4A19110   0.422   9.728   7.664
 1282POPC   C1B19111   0.372  10.001   8.564
 1282POPC   C2B19112   0.298   9.989   8.264
 1282POPC   C3B19113   0.330   9.940   7.964
 1282POPC   C4B19114   0.319   9.934   7.664
 1283POPC   NC319115  29.958  24.474   9.464
 1283POPC   PO419116  29.909  24.474   9.164
 1283POPC   GL119117  29.930  24.487   8.864
 1283POPC   GL219118  30.047  24.583   8.864
 1283POPC   C1A19119  29.963  24.513   8.564
 1283POPC   D2A19120  29.933  24.476   8.264
 1283POPC   C3A19121  29.959  24.447   7.964
 1283POPC   C4A19122  29.938  24.517   7.664
 1283POPC   C1B19123  30.117  24.677   8.564
 1283POPC   C2B19124  30.124  24.717   8.264
 1283POPC   C3B19125  30.068  24.702   7.964
 1283POPC   C4B19126  30.055  24.667   7.664
 1284POPC   NC319127  25.264  43.882   9.464
 1284POPC   PO419128  25.272  43.929   9.164
 1284POPC   GL119129  25.288  43.917   8.864
 1284POPC   GL219130  25.347  43.797   8.864
 1284POPC   C1A19131  25.286  43.869   8.564
 1284POPC   D2A19132  25.285  43.916   8.264
 1284POPC   C3A19133  25.242  43.913   7.964
 1284POPC   C4A19134  25.277  43.845   7.664
 1284POPC   C1B19135  25.494  43.795   8.564
 1284POPC   C2B19136  25.511  43.804   8.264
 1284POPC   C3B19137  25.456  43.782   7.964
 1284POPC   C4B19138  25.501  43.743   7.664
 1285POPC   NC319139   5.128   8.178   9.464
 1285POPC   PO419140   5.075   8.238   9.164
 1285POPC   GL119141   5.056   8.212   8.864
 1285POPC   GL219142   5.220   8.302   8.864
 1285POPC   C1A19143   5.081   8.228   8.564
 1285POPC   D2A19144   5.073   8.237   8.264
 1285POPC   C3A19145   5.105   8.192   7.964
 1285POPC   C4A19146   5.084   8.188   7.664
 1285POPC   C1B19147   5.317   8.392   8.564
 1285POPC   C2B19148   5.296   8.366   8.264
 1285POPC   C3B19149   5.236   8.336   7.964
 1285POPC   C4B19150   5.284   8.346   7.664
 1286POPC   NC319151   6.683  10.528   9.464
 1286POPC   PO419152   6.688  10.480   9.164
 1286POPC   GL119153   6.612  10.555   8.864
 1286POPC   GL219154   6.782  10.468   8.864
 1286POPC   C1A19155   6.679  10.503   8.564
 1286POPC   D2A19156   6.673  10.496   8.264
 1286POPC   C3A19157   6.686  10.522   7.964
 1286POPC   C4A19158   6.599  10.517   7.664
 1286POPC   C1B19159   6.854  10.439   8.564
 1286POPC   C2B19160   6.911  10.405   8.264
 1286POPC   C3B19161   6.867  10.414   7.964
 1286POPC   C4B19162   6.860  10.478   7.664
 1287POPC   NC319163  33.040  29.953   9.464
 1287POPC   PO419164  33.069  29.887   9.164
 1287POPC   GL119165  33.013  29.880   8.864
 1287POPC   GL219166  33.139  29.933   8.864
 1287POPC   C1A19167  33.063  29.871   8.564
 1287POPC   D2A19168  33.012  29.888   8.264
 1287POPC   C3A19169  33.010  29.960   7.964
 1287POPC   C4A19170  33.056  29.873   7.664
 1287POPC   C1B19171  33.316  29.931   8.564
 1287POPC   C2B19172  33.225  29.866   8.264
 1287POPC   C3B19173  33.269  29.902   7.964
 1287POPC   C4B19174  33.315  29.890   7.664
 1288POPC   NC319175  17.459  21.405   9.464
 1288POPC   PO419176  17.466  21.399   9.164
 1288POPC   GL119177  17.494  21.356   8.864
 1288POPC   GL219178  17.343  21.318   8.864
 1288POPC   C1A19179  17.491  21.399   8.564
 1288POPC   D2A19180  17.511  21.363   8.264
 1288POPC   C3A19181  17.505  21.401   7.964
 1288POPC   C4A19182  17.480  21.417   7.664
 1288POPC   C1B19183  17.223  21.311   8.564
 1288POPC   C2B19184  17.292  21.313   8.264
 1288POPC   C3B19185  17.272  21.279   7.964
 1288POPC   C4B19186  17.265  21.345   7.664
 1289POPC   NC319187   7.411  36.090   9.464
 1289POPC   PO419188   7.446  36.108   9.164
 1289POPC   GL119189   7.390  36.159   8.864
 1289POPC   GL219190   7.417  36.252   8.864
 1289POPC   C1A19191   7.424  36.173   8.564
 1289POPC   D2A19192   7.451  36.139   8.264
 1289POPC   C3A19193   7.375  36.144   7.964
 1289POPC   C4A19194   7.466  36.110   7.664
 1289POPC   C1B19195   7.345  36.357   8.564
 1289POPC   C2B19196   7.368  36.343   8.264
 1289POPC   C3B19197   7.363  36.344   7.964
 1289POPC   C4B19198   7.362  36.323   7.664
 1290POPC   NC319199  14.436  12.874   9.464
 1290POPC   PO419200  14.407  12.843   9.164
 1290POPC   GL119201  14.453  12.808   8.864
 1290POPC   GL219202  14.536  12.794   8.864
 1290POPC   C1A19203  14.425  12.876   8.564
 1290POPC   D2A19204  14.415  12.862   8.264
 1290POPC   C3A19205  14.385  12.821   7.964
 1290POPC   C4A19206  14.403  12.876   7.664
 1290POPC   C1B19207  14.617  12.654   8.564
 1290POPC   C2B19208  14.621  12.686   8.264
 1290POPC   C3B19209  14.598  12.665   7.964
 1290POPC   C4B19210  14.615  12.710   7.664
 1291POPC   NC319211  16.000  29.898   9.464
 1291POPC   PO419212  15.932  29.942   9.164
 1291POPC   GL119213  15.907  29.883   8.864
 1291POPC   GL219214  16.048  29.998   8.864
 1291POPC   C1A19215  15.960  29.904   8.564
 1291POPC   D2A19216  15.913  29.895   8.264
 1291POPC   C3A19217  15.993  29.963   7.964
 1291POPC   C4A19218  15.982  29.900   7.664
 1291POPC   C1B19219  16.148  30.017   8.564
 1291POPC   C2B19220  16.193  30.027   8.264
 1291POPC   C3B19221  16.163  29.945   7.964
 1291POPC   C4B19222  16.211  29.956   7.664
 1292POPC   NC319223  30.739  24.516   9.464
 1292POPC   PO419224  30.696  24.509   9.164
 1292POPC   GL119225  30.695  24.491   8.864
 1292POPC   GL219226  30.726  24.566   8.864
 1292POPC   C1A19227  30.680  24.445   8.564
 1292POPC   D2A19228  30.742  24.493   8.264
 1292POPC   C3A19229  30.722  24.513   7.964
 1292POPC   C4A19230  30.715  24.522   7.664
 1292POPC   C1B19231  30.807  24.750   8.564
 1292POPC   C2B19232  30.863  24.716   8.264
 1292POPC   C3B19233  30.814  24.702   7.964
 1292POPC   C4B19234  30.810  24.753   7.664
 1293POPC   NC319235  15.997  17.498   9.464
 1293POPC   PO419236  15.982  17.551   9.164
 1293POPC   GL119237  15.986  17.512   8.864
 1293POPC   GL219238  16.082  17.558   8.864
 1293POPC   C1A19239  15.908  17.503   8.564
 1293POPC   D2A19240  15.983  17.516   8.264
 1293POPC   C3A19241  15.922  17.537   7.964
 1293POPC   C4A19242  15.924  17.460   7.664
 1293POPC   C1B19243  16.203  17.530   8.564
 1293POPC   C2B19244  16.194  17.606   8.264
 1293POPC   C3B19245  16.202  17.613   7.964
 1293POPC   C4B19246  16.176  17.565   7.664
 1294POPC   NC319247  44.619  29.903   9.464
 1294POPC   PO419248  44.623  29.935   9.164
 1294POPC   GL119249  44.699  29.910   8.864
 1294POPC   GL219250  44.556  29.905   8.864
 1294POPC   C1A19251  44.660  29.884   8.564
 1294POPC   D2A19252  44.680  29.907   8.264
 1294POPC   C3A19253  44.662  29.930   7.964
 1294POPC   C4A19254  44.695  29.941   7.664
 1294POPC   C1B19255  44.387  29.982   8.564
 1294POPC   C2B19256  44.396  29.997   8.264
 1294POPC   C3B19257  44.439  29.985   7.964
 1294POPC   C4B19258  44.407  29.999   7.664
 1295POPC   NC319259   6.672   8.238   9.464
 1295POPC   PO419260   6.650   8.173   9.164
 1295POPC   GL119261   6.662   8.215   8.864
 1295POPC   GL219262   6.492   8.274   8.864
 1295POPC   C1A19263   6.692   8.209   8.564
 1295POPC   D2A19264   6.620   8.179   8.264
 1295POPC   C3A19265   6.648   8.147   7.964
 1295POPC   C4A19266   6.651   8.205   7.664
 1295POPC   C1B19267   6.434   8.367   8.564
 1295POPC   C2B19268   6.429   8.349   8.264
 1295POPC   C3B19269   6.402   8.290   7.964
 1295POPC   C4B19270   6.399   8.324   7.664
 1296POPC   NC319271  39.263  31.503   9.464
 1296POPC   PO419272  39.210  31.489   9.164
 1296POPC   GL119273  39.269  31.439   8.864
 1296POPC   GL219274  39.159  31.576   8.864
 1296POPC   C1A19275  39.232  31.446   8.564
 1296POPC   D2A19276  39.187  31.508   8.264
 1296POPC   C3A19277  39.229  31.425   7.964
 1296POPC   C4A19278  39.269  31.511   7.664
 1296POPC   C1B19279  38.992  31.584   8.564
 1296POPC   C2B19280  39.036  31.621   8.264
 1296POPC   C3B19281  38.971  31.575   7.964
 1296POPC   C4B19282  39.036  31.627   7.664
 1297POPC   NC319283  18.277  33.051   9.464
 1297POPC   PO419284  18.278  33.064   9.164
 1297POPC   GL119285  18.263  32.999   8.864
 1297POPC   GL219286  18.201  33.186   8.864
 1297POPC   C1A19287  18.278  33.071   8.564
 1297POPC   D2A19288  18.320  33.049   8.264
 1297POPC   C3A19289  18.237  32.985   7.964
 1297POPC   C4A19290  18.305  33.011   7.664
 1297POPC   C1B19291  18.215  33.281   8.564
 1297POPC   C2B19292  18.156  33.212   8.264
 1297POPC   C3B19293  18.221  33.256   7.964
 1297POPC   C4B19294  18.131  33.285   7.664
 1298POPC   NC319295   3.526   1.232   9.464
 1298POPC   PO419296   3.498   1.238   9.164
 1298POPC   GL119297   3.589   1.194   8.864
 1298POPC   GL219298   3.428   1.162   8.864
 1298POPC   C1A19299   3.552   1.171   8.564
 1298POPC   D2A19300   3.498   1.214   8.264
 1298POPC   C3A19301   3.506   1.196   7.964
 1298POPC   C4A19302   3.561   1.199   7.664
 1298POPC   C1B19303   3.404   1.008   8.564
 1298POPC   C2B19304   3.368   1.050   8.264
 1298POPC   C3B19305   3.418   0.994   7.964
 1298POPC   C4B19306   3.355   0.998   7.664
 1299POPC   NC319307  36.084  41.544   9.464
 1299POPC   PO419308  36.088  41.584   9.164
 1299POPC   GL119309  36.121  41.564   8.864
 1299POPC   GL219310  35.987  41.475   8.864
 1299POPC   C1A19311  36.107  41.595   8.564
 1299POPC   D2A19312  36.082  41.591   8.264
 1299POPC   C3A19313  36.130  41.555   7.964
 1299POPC   C4A19314  36.134  41.553   7.664
 1299POPC   C1B19315  35.948  41.401   8.564
 1299POPC   C2B19316  35.949  41.460   8.264
 1299POPC   C3B19317  35.896  41.460   7.964
 1299POPC   C4B19318  35.950  41.403   7.664
 1300POPC   NC319319  12.862   5.918   9.464
 1300POPC   PO419320  12.837   5.834   9.164
 1300POPC   GL119321  12.870   5.919   8.864
 1300POPC   GL219322  12.896   5.741   8.864
 1300POPC   C1A19323  12.865   5.842   8.564
 1300POPC   D2A19324  12.878   5.832   8.264
 1300POPC   C3A19325  12.889   5.851   7.964
 1300POPC   C4A19326  12.853   5.833   7.664
 1300POPC   C1B19327  12.911   5.607   8.564
 1300POPC   C2B19328  12.928   5.624   8.264
 1300POPC   C3B19329  12.997   5.674   7.964
 1300POPC   C4B19330  12.916   5.668   7.664
 1301POPC   NC319331  30.735  12.113   9.464
 1301POPC   PO419332  30.687  12.032   9.164
 1301POPC   GL119333  30.735  12.115   8.864
 1301POPC   GL219334  30.555  12.128   8.864
 1301POPC   C1A19335  30.649  12.106   8.564
 1301POPC   D2A19336  30.681  12.084   8.264
 1301POPC   C3A19337  30.728  12.111   7.964
 1301POPC   C4A19338  30.727  12.117   7.664
 1301POPC   C1B19339  30.469  12.197   8.564
 1301POPC   C2B19340  30.522  12.194   8.264
 1301POPC   C3B19341  30.497  12.179   7.964
 1301POPC   C4B19342  30.510  12.181   7.664
 1302POPC   NC319343  19.788  12.053   9.464
 1302POPC   PO419344  19.833  12.087   9.164
 1302POPC   GL119345  19.832  12.034   8.864
 1302POPC   GL219346  19.707  12.151   8.864
 1302POPC   C1A19347  19.861  12.030   8.564
 1302POPC   D2A19348  19.823  12.103   8.264
 1302POPC   C3A19349  19.793  12.054   7.964
 1302POPC   C4A19350  19.868  12.111   7.664
 1302POPC   C1B19351  19.700  12.222   8.564
 1302POPC   C2B19352  19.619  12.219   8.264
 1302POPC   C3B19353  19.637  12.207   7.964
 1302POPC   C4B19354  19.613  12.276   7.664
 1303POPC   NC319355  12.812  40.016   9.464
 1303POPC   PO419356  12.806  40.013   9.164
 1303POPC   GL119357  12.875  39.993   8.864
 1303POPC   GL219358  12.747  40.071   8.864
 1303POPC   C1A19359  12.875  40.047   8.564
 1303POPC   D2A19360  12.885  40.036   8.264
 1303POPC   C3A19361  12.887  39.993   7.964
 1303POPC   C4A19362  12.845  39.960   7.664
 1303POPC   C1B19363  12.635  40.225   8.564
 1303POPC   C2B19364  12.649  40.228   8.264
 1303POPC   C3B19365  12.679  40.191   7.964
 1303POPC   C4B19366  12.714  40.173   7.664
 1304POPC   NC319367   8.175   5.872   9.464
 1304POPC   PO419368   8.165   5.865   9.164
 1304POPC   GL119369   8.178   5.865   8.864
 1304POPC   GL219370   8.100   5.921   8.864
 1304POPC   C1A19371   8.165   5.872   8.564
 1304POPC   D2A19372   8.150   5.908   8.264
 1304POPC   C3A19373   8.192   5.821   7.964
 1304POPC   C4A19374   8.181   5.843   7.664
 1304POPC   C1B19375   8.006   5.971   8.564
 1304POPC   C2B19376   7.994   5.971   8.264
 1304POPC   C3B19377   8.016   5.939   7.964
 1304POPC   C4B19378   7.928   6.001   7.664
 1305POPC   NC319379  12.890  22.209   9.464
 1305POPC   PO419380  12.841  22.193   9.164
 1305POPC   GL119381  12.821  22.186   8.864
 1305POPC   GL219382  12.815  22.026   8.864
 1305POPC   C1A19383  12.831  22.168   8.564
 1305POPC   D2A19384  12.881  22.200   8.264
 1305POPC   C3A19385  12.817  22.193   7.964
 1305POPC   C4A19386  12.822  22.144   7.664
 1305POPC   C1B19387  12.672  22.010   8.564
 1305POPC   C2B19388  12.712  22.013   8.264
 1305POPC   C3B19389  12.739  21.989   7.964
 1305POPC   C4B19390  12.721  21.933   7.664
 1306POPC   NC319391  15.164   1.217   9.464
 1306POPC   PO419392  15.151   1.236   9.164
 1306POPC   GL119393  15.150   1.260   8.864
 1306POPC   GL219394  15.080   1.215   8.864
 1306POPC   C1A19395  15.197   1.173   8.564
 1306POPC   D2A19396  15.224   1.245   8.264
 1306POPC   C3A19397  15.196   1.207   7.964
 1306POPC   C4A19398  15.153   1.169   7.664
 1306POPC   C1B19399  14.918   1.219   8.564
 1306POPC   C2B19400  14.951   1.205   8.264
 1306POPC   C3B19401  14.903   1.271   7.964
 1306POPC   C4B19402  14.969   1.265   7.664
 1307POPC   NC319403   4.350  12.838   9.464
 1307POPC   PO419404   4.351  12.822   9.164
 1307POPC   GL119405   4.294  12.810   8.864
 1307POPC   GL219406   4.282  12.970   8.864
 1307POPC   C1A19407   4.287  12.891   8.564
 1307POPC   D2A19408   4.305  12.846   8.264
 1307POPC   C3A19409   4.340  12.871   7.964
 1307POPC   C4A19410   4.286  12.855   7.664
 1307POPC   C1B19411   4.257  13.119   8.564
 1307POPC   C2B19412   4.216  13.080   8.264
 1307POPC   C3B19413   4.242  13.112   7.964
 1307POPC   C4B19414   4.268  13.109   7.664
 1308POPC   NC319415  31.423  29.118   9.464
 1308POPC   PO419416  31.424  29.110   9.164
 1308POPC   GL119417  31.516  29.127   8.864
 1308POPC   GL219418  31.533  29.068   8.864
 1308POPC   C1A19419  31.464  29.166   8.564
 1308POPC   D2A19420  31.510  29.115   8.264
 1308POPC   C3A19421  31.425  29.172   7.964
 1308POPC   C4A19422  31.473  29.121   7.664
 1308POPC   C1B19423  31.632  28.931   8.564
 1308POPC   C2B19424  31.622  28.932   8.264
 1308POPC   C3B19425  31.575  28.972   7.964
 1308POPC   C4B19426  31.634  28.927   7.664
 1309POPC   NC319427  10.502  23.699   9.464
 1309POPC   PO419428  10.573  23.738   9.164
 1309POPC   GL119429  10.474  23.676   8.864
 1309POPC   GL219430  10.612  23.757   8.864
 1309POPC   C1A19431  10.555  23.685   8.564
 1309POPC   D2A19432  10.568  23.672   8.264
 1309POPC   C3A19433  10.491  23.675   7.964
 1309POPC   C4A19434  10.484  23.678   7.664
 1309POPC   C1B19435  10.670  23.865   8.564
 1309POPC   C2B19436  10.725  23.850   8.264
 1309POPC   C3B19437  10.713  23.911   7.964
 1309POPC   C4B19438  10.720  23.886   7.664
 1310POPC   NC319439  41.530  36.086   9.464
 1310POPC   PO419440  41.545  36.142   9.164
 1310POPC   GL119441  41.528  36.176   8.864
 1310POPC   GL219442  41.404  36.089   8.864
 1310POPC   C1A19443  41.520  36.111   8.564
 1310POPC   D2A19444  41.532  36.104   8.264
 1310POPC   C3A19445  41.526  36.177   7.964
 1310POPC   C4A19446  41.547  36.154   7.664
 1310POPC   C1B19447  41.302  36.065   8.564
 1310POPC   C2B19448  41.321  36.038   8.264
 1310POPC   C3B19449  41.364  36.041   7.964
 1310POPC   C4B19450  41.268  36.015   7.664
 1311POPC   NC319451  22.985  11.251   9.464
 1311POPC   PO419452  22.920  11.321   9.164
 1311POPC   GL119453  22.940  11.312   8.864
 1311POPC   GL219454  22.902  11.175   8.864
 1311POPC   C1A19455  22.902  11.324   8.564
 1311POPC   D2A19456  22.935  11.325   8.264
 1311POPC   C3A19457  22.922  11.298   7.964
 1311POPC   C4A19458  22.888  11.270   7.664
 1311POPC   C1B19459  22.765  11.044   8.564
 1311POPC   C2B19460  22.816  11.072   8.264
 1311POPC   C3B19461  22.848  11.061   7.964
 1311POPC   C4B19462  22.782  11.060   7.664
 1312POPC   NC319463  22.919  30.697   9.464
 1312POPC   PO419464  22.967  30.650   9.164
 1312POPC   GL119465  22.976  30.690   8.864
 1312POPC   GL219466  23.017  30.583   8.864
 1312POPC   C1A19467  22.971  30.741   8.564
 1312POPC   D2A19468  22.962  30.745   8.264
 1312POPC   C3A19469  22.955  30.698   7.964
 1312POPC   C4A19470  22.950  30.657   7.664
 1312POPC   C1B19471  22.992  30.464   8.564
 1312POPC   C2B19472  23.041  30.423   8.264
 1312POPC   C3B19473  23.022  30.444   7.964
 1312POPC   C4B19474  23.026  30.443   7.664
 1313POPC   NC319475  25.279  30.688   9.464
 1313POPC   PO419476  25.219  30.700   9.164
 1313POPC   GL119477  25.282  30.724   8.864
 1313POPC   GL219478  25.176  30.778   8.864
 1313POPC   C1A19479  25.237  30.694   8.564
 1313POPC   D2A19480  25.257  30.728   8.264
 1313POPC   C3A19481  25.220  30.745   7.964
 1313POPC   C4A19482  25.281  30.667   7.664
 1313POPC   C1B19483  25.099  30.866   8.564
 1313POPC   C2B19484  25.131  30.898   8.264
 1313POPC   C3B19485  25.152  30.931   7.964
 1313POPC   C4B19486  25.107  30.899   7.664
 1314POPC   NC319487  28.388  35.336   9.464
 1314POPC   PO419488  28.398  35.321   9.164
 1314POPC   GL119489  28.378  35.374   8.864
 1314POPC   GL219490  28.266  35.399   8.864
 1314POPC   C1A19491  28.336  35.391   8.564
 1314POPC   D2A19492  28.375  35.326   8.264
 1314POPC   C3A19493  28.371  35.314   7.964
 1314POPC   C4A19494  28.339  35.314   7.664
 1314POPC   C1B19495  28.103  35.381   8.564
 1314POPC   C2B19496  28.171  35.388   8.264
 1314POPC   C3B19497  28.144  35.440   7.964
 1314POPC   C4B19498  28.153  35.444   7.664
 1315POPC   NC319499  18.319  10.525   9.464
 1315POPC   PO419500  18.246  10.563   9.164
 1315POPC   GL119501  18.268  10.475   8.864
 1315POPC   GL219502  18.362  10.455   8.864
 1315POPC   C1A19503  18.239  10.506   8.564
 1315POPC   D2A19504  18.233  10.499   8.264
 1315POPC   C3A19505  18.313  10.492   7.964
 1315POPC   C4A19506  18.250  10.512   7.664
 1315POPC   C1B19507  18.518  10.433   8.564
 1315POPC   C2B19508  18.556  10.435   8.264
 1315POPC   C3B19509  18.532  10.458   7.964
 1315POPC   C4B19510  18.532  10.453   7.664
 1316POPC   NC319511   8.924   7.432   9.464
 1316POPC   PO419512   8.976   7.419   9.164
 1316POPC   GL119513   8.932   7.431   8.864
 1316POPC   GL219514   8.957   7.338   8.864
 1316POPC   C1A19515   8.965   7.380   8.564
 1316POPC   D2A19516   8.989   7.470   8.264
 1316POPC   C3A19517   8.950   7.377   7.964
 1316POPC   C4A19518   9.017   7.429   7.664
 1316POPC   C1B19519   8.875   7.225   8.564
 1316POPC   C2B19520   8.891   7.149   8.264
 1316POPC   C3B19521   8.931   7.215   7.964
 1316POPC   C4B19522   8.926   7.166   7.664
 1317POPC   NC319523  29.874   7.407   9.464
 1317POPC   PO419524  29.887   7.420   9.164
 1317POPC   GL119525  29.890   7.441   8.864
 1317POPC   GL219526  30.030   7.468   8.864
 1317POPC   C1A19527  29.888   7.446   8.564
 1317POPC   D2A19528  29.878   7.437   8.264
 1317POPC   C3A19529  29.933   7.453   7.964
 1317POPC   C4A19530  29.949   7.436   7.664
 1317POPC   C1B19531  30.180   7.589   8.564
 1317POPC   C2B19532  30.174   7.523   8.264
 1317POPC   C3B19533  30.184   7.571   7.964
 1317POPC   C4B19534  30.099   7.598   7.664
 1318POPC   NC319535  21.353  36.126   9.464
 1318POPC   PO419536  21.407  36.162   9.164
 1318POPC   GL119537  21.348  36.162   8.864
 1318POPC   GL219538  21.471  36.011   8.864
 1318POPC   C1A19539  21.414  36.081   8.564
 1318POPC   D2A19540  21.354  36.109   8.264
 1318POPC   C3A19541  21.337  36.108   7.964
 1318POPC   C4A19542  21.399  36.141   7.664
 1318POPC   C1B19543  21.603  35.930   8.564
 1318POPC   C2B19544  21.574  35.917   8.264
 1318POPC   C3B19545  21.608  35.921   7.964
 1318POPC   C4B19546  21.589  35.921   7.664
 1319POPC   NC319547  22.932  21.394   9.464
 1319POPC   PO419548  22.895  21.367   9.164
 1319POPC   GL119549  22.956  21.412   8.864
 1319POPC   GL219550  22.955  21.304   8.864
 1319POPC   C1A19551  22.914  21.422   8.564
 1319POPC   D2A19552  22.921  21.372   8.264
 1319POPC   C3A19553  22.943  21.402   7.964
 1319POPC   C4A19554  22.926  21.365   7.664
 1319POPC   C1B19555  22.960  21.173   8.564
 1319POPC   C2B19556  22.971  21.094   8.264
 1319POPC   C3B19557  22.879  21.166   7.964
 1319POPC   C4B19558  22.888  21.183   7.664
 1320POPC   NC319559  43.894  26.781   9.464
 1320POPC   PO419560  43.907  26.786   9.164
 1320POPC   GL119561  43.841  26.829   8.864
 1320POPC   GL219562  43.749  26.773   8.864
 1320POPC   C1A19563  43.864  26.795   8.564
 1320POPC   D2A19564  43.877  26.855   8.264
 1320POPC   C3A19565  43.851  26.835   7.964
 1320POPC   C4A19566  43.854  26.835   7.664
 1320POPC   C1B19567  43.671  26.756   8.564
 1320POPC   C2B19568  43.645  26.743   8.264
 1320POPC   C3B19569  43.624  26.828   7.964
 1320POPC   C4B19570  43.632  26.828   7.664
 1321POPC   NC319571  31.481   9.003   9.464
 1321POPC   PO419572  31.430   8.944   9.164
 1321POPC   GL119573  31.447   8.960   8.864
 1321POPC   GL219574  31.394   8.811   8.864
 1321POPC   C1A19575  31.479   8.946   8.564
 1321POPC   D2A19576  31.506   9.016   8.264
 1321POPC   C3A19577  31.497   8.995   7.964
 1321POPC   C4A19578  31.511   9.014   7.664
 1321POPC   C1B19579  31.421   8.752   8.564
 1321POPC   C2B19580  31.374   8.777   8.264
 1321POPC   C3B19581  31.351   8.697   7.964
 1321POPC   C4B19582  31.371   8.757   7.664
 1322POPC   NC319583  15.168  32.252   9.464
 1322POPC   PO419584  15.219  32.275   9.164
 1322POPC   GL119585  15.226  32.234   8.864
 1322POPC   GL219586  15.084  32.349   8.864
 1322POPC   C1A19587  15.205  32.235   8.564
 1322POPC   D2A19588  15.142  32.215   8.264
 1322POPC   C3A19589  15.201  32.292   7.964
 1322POPC   C4A19590  15.228  32.241   7.664
 1322POPC   C1B19591  14.977  32.344   8.564
 1322POPC   C2B19592  14.947  32.403   8.264
 1322POPC   C3B19593  14.981  32.322   7.964
 1322POPC   C4B19594  14.947  32.336   7.664
 1323POPC   NC319595  22.175  42.308   9.464
 1323POPC   PO419596  22.116  42.347   9.164
 1323POPC   GL119597  22.181  42.353   8.864
 1323POPC   GL219598  22.020  42.284   8.864
 1323POPC   C1A19599  22.186  42.342   8.564
 1323POPC   D2A19600  22.157  42.290   8.264
 1323POPC   C3A19601  22.171  42.371   7.964
 1323POPC   C4A19602  22.180  42.368   7.664
 1323POPC   C1B19603  21.991  42.192   8.564
 1323POPC   C2B19604  21.983  42.211   8.264
 1323POPC   C3B19605  21.929  42.193   7.964
 1323POPC   C4B19606  21.926  42.247   7.664
 1324POPC   NC319607  39.977   2.738   9.464
 1324POPC   PO419608  39.988   2.812   9.164
 1324POPC   GL119609  39.990   2.764   8.864
 1324POPC   GL219610  40.108   2.732   8.864
 1324POPC   C1A19611  39.991   2.764   8.564
 1324POPC   D2A19612  40.026   2.761   8.264
 1324POPC   C3A19613  40.023   2.786   7.964
 1324POPC   C4A19614  40.040   2.771   7.664
 1324POPC   C1B19615  40.216   2.803   8.564
 1324POPC   C2B19616  40.264   2.726   8.264
 1324POPC   C3B19617  40.278   2.732   7.964
 1324POPC   C4B19618  40.230   2.758   7.664
 1325POPC   NC319619  18.254  17.471   9.464
 1325POPC   PO419620  18.251  17.549   9.164
 1325POPC   GL119621  18.244  17.520   8.864
 1325POPC   GL219622  18.422  17.552   8.864
 1325POPC   C1A19623  18.286  17.555   8.564
 1325POPC   D2A19624  18.246  17.509   8.264
 1325POPC   C3A19625  18.301  17.510   7.964
 1325POPC   C4A19626  18.250  17.523   7.664
 1325POPC   C1B19627  18.561  17.531   8.564
 1325POPC   C2B19628  18.579  17.536   8.264
 1325POPC   C3B19629  18.498  17.518   7.964
 1325POPC   C4B19630  18.570  17.525   7.664
 1326POPC   NC319631   4.341  29.103   9.464
 1326POPC   PO419632   4.281  29.137   9.164
 1326POPC   GL119633   4.339  29.148   8.864
 1326POPC   GL219634   4.183  29.242   8.864
 1326POPC   C1A19635   4.292  29.169   8.564
 1326POPC   D2A19636   4.281  29.130   8.264
 1326POPC   C3A19637   4.269  29.147   7.964
 1326POPC   C4A19638   4.342  29.125   7.664
 1326POPC   C1B19639   4.127  29.325   8.564
 1326POPC   C2B19640   4.092  29.265   8.264
 1326POPC   C3B19641   4.137  29.275   7.964
 1326POPC   C4B19642   4.143  29.281   7.664
 1327POPC   NC319643  40.738   0.482   9.464
 1327POPC   PO419644  40.805   0.480   9.164
 1327POPC   GL119645  40.792   0.469   8.864
 1327POPC   GL219646  40.718   0.451   8.864
 1327POPC   C1A19647  40.748   0.457   8.564
 1327POPC   D2A19648  40.745   0.443   8.264
 1327POPC   C3A19649  40.737   0.408   7.964
 1327POPC   C4A19650  40.811   0.467   7.664
 1327POPC   C1B19651  40.589   0.499   8.564
 1327POPC   C2B19652  40.513   0.568   8.264
 1327POPC   C3B19653  40.581   0.542   7.964
 1327POPC   C4B19654  40.510   0.535   7.664
 1328POPC   NC319655  19.823  25.270   9.464
 1328POPC   PO419656  19.857  25.278   9.164
 1328POPC   GL119657  19.798  25.284   8.864
 1328POPC   GL219658  19.712  25.264   8.864
 1328POPC   C1A19659  19.808  25.289   8.564
 1328POPC   D2A19660  19.802  25.234   8.264
 1328POPC   C3A19661  19.883  25.251   7.964
 1328POPC   C4A19662  19.844  25.277   7.664
 1328POPC   C1B19663  19.558  25.132   8.564
 1328POPC   C2B19664  19.564  25.194   8.264
 1328POPC   C3B19665  19.623  25.196   7.964
 1328POPC   C4B19666  19.607  25.211   7.664
 1329POPC   NC319667  14.425   7.432   9.464
 1329POPC   PO419668  14.444   7.421   9.164
 1329POPC   GL119669  14.361   7.405   8.864
 1329POPC   GL219670  14.352   7.325   8.864
 1329POPC   C1A19671  14.375   7.410   8.564
 1329POPC   D2A19672  14.413   7.422   8.264
 1329POPC   C3A19673  14.362   7.415   7.964
 1329POPC   C4A19674  14.451   7.458   7.664
 1329POPC   C1B19675  14.271   7.220   8.564
 1329POPC   C2B19676  14.350   7.166   8.264
 1329POPC   C3B19677  14.299   7.190   7.964
 1329POPC   C4B19678  14.282   7.206   7.664
 1330POPC   NC319679  26.793  22.930   9.464
 1330POPC   PO419680  26.841  22.932   9.164
 1330POPC   GL119681  26.768  22.909   8.864
 1330POPC   GL219682  26.721  22.943   8.864
 1330POPC   C1A19683  26.768  22.970   8.564
 1330POPC   D2A19684  26.801  22.980   8.264
 1330POPC   C3A19685  26.803  22.953   7.964
 1330POPC   C4A19686  26.802  22.950   7.664
 1330POPC   C1B19687  26.575  22.856   8.564
 1330POPC   C2B19688  26.550  22.880   8.264
 1330POPC   C3B19689  26.564  22.917   7.964
 1330POPC   C4B19690  26.615  22.855   7.664
 1331POPC   NC319691  13.622  29.153   9.464
 1331POPC   PO419692  13.664  29.151   9.164
 1331POPC   GL119693  13.600  29.122   8.864
 1331POPC   GL219694  13.771  29.115   8.864
 1331POPC   C1A19695  13.625  29.125   8.564
 1331POPC   D2A19696  13.615  29.135   8.264
 1331POPC   C3A19697  13.657  29.123   7.964
 1331POPC   C4A19698  13.631  29.109   7.664
 1331POPC   C1B19699  13.856  29.172   8.564
 1331POPC   C2B19700  13.834  29.080   8.264
 1331POPC   C3B19701  13.908  29.101   7.964
 1331POPC   C4B19702  13.892  29.114   7.664
 1332POPC   NC319703  30.740  22.976   9.464
 1332POPC   PO419704  30.648  22.935   9.164
 1332POPC   GL119705  30.685  22.987   8.864
 1332POPC   GL219706  30.796  23.064   8.864
 1332POPC   C1A19707  30.699  22.899   8.564
 1332POPC   D2A19708  30.735  22.906   8.264
 1332POPC   C3A19709  30.684  22.925   7.964
 1332POPC   C4A19710  30.730  22.900   7.664
 1332POPC   C1B19711  30.925  23.133   8.564
 1332POPC   C2B19712  30.933  23.141   8.264
 1332POPC   C3B19713  30.929  23.134   7.964
 1332POPC   C4B19714  30.910  23.140   7.664
 1333POPC   NC319715   8.164  12.058   9.464
 1333POPC   PO419716   8.152  12.124   9.164
 1333POPC   GL119717   8.239  12.106   8.864
 1333POPC   GL219718   8.207  12.149   8.864
 1333POPC   C1A19719   8.183  12.122   8.564
 1333POPC   D2A19720   8.211  12.066   8.264
 1333POPC   C3A19721   8.181  12.028   7.964
 1333POPC   C4A19722   8.227  12.061   7.664
 1333POPC   C1B19723   8.196  12.280   8.564
 1333POPC   C2B19724   8.272  12.362   8.264
 1333POPC   C3B19725   8.217  12.292   7.964
 1333POPC   C4B19726   8.288  12.307   7.664
 1334POPC   NC319727  20.614   0.392   9.464
 1334POPC   PO419728  20.652   0.480   9.164
 1334POPC   GL119729  20.588   0.421   8.864
 1334POPC   GL219730  20.492   0.442   8.864
 1334POPC   C1A19731  20.630   0.415   8.564
 1334POPC   D2A19732  20.654   0.452   8.264
 1334POPC   C3A19733  20.564   0.436   7.964
 1334POPC   C4A19734  20.629   0.459   7.664
 1334POPC   C1B19735  20.340   0.420   8.564
 1334POPC   C2B19736  20.404   0.429   8.264
 1334POPC   C3B19737  20.322   0.413   7.964
 1334POPC   C4B19738  20.379   0.421   7.664
 1335POPC   NC319739  36.120  36.946   9.464
 1335POPC   PO419740  36.094  36.916   9.164
 1335POPC   GL119741  36.140  36.899   8.864
 1335POPC   GL219742  36.107  37.018   8.864
 1335POPC   C1A19743  36.117  36.860   8.564
 1335POPC   D2A19744  36.125  36.865   8.264
 1335POPC   C3A19745  36.128  36.944   7.964
 1335POPC   C4A19746  36.126  36.872   7.664
 1335POPC   C1B19747  36.034  37.156   8.564
 1335POPC   C2B19748  36.014  37.105   8.264
 1335POPC   C3B19749  36.074  37.092   7.964
 1335POPC   C4B19750  36.042  37.150   7.664
 1336POPC   NC319751  43.106   9.788   9.464
 1336POPC   PO419752  43.099   9.704   9.164
 1336POPC   GL119753  43.093   9.709   8.864
 1336POPC   GL219754  43.124   9.886   8.864
 1336POPC   C1A19755  43.122   9.712   8.564
 1336POPC   D2A19756  43.159   9.710   8.264
 1336POPC   C3A19757  43.150   9.785   7.964
 1336POPC   C4A19758  43.067   9.725   7.664
 1336POPC   C1B19759  43.157   9.957   8.564
 1336POPC   C2B19760  43.165  10.016   8.264
 1336POPC   C3B19761  43.123   9.991   7.964
 1336POPC   C4B19762  43.170  10.037   7.664
 1337POPC   NC319763  33.783  12.885   9.464
 1337POPC   PO419764  33.844  12.851   9.164
 1337POPC   GL119765  33.798  12.849   8.864
 1337POPC   GL219766  33.934  12.761   8.864
 1337POPC   C1A19767  33.797  12.888   8.564
 1337POPC   D2A19768  33.824  12.808   8.264
 1337POPC   C3A19769  33.757  12.854   7.964
 1337POPC   C4A19770  33.847  12.846   7.664
 1337POPC   C1B19771  34.032  12.727   8.564
 1337POPC   C2B19772  34.046  12.727   8.264
 1337POPC   C3B19773  34.034  12.693   7.964
 1337POPC   C4B19774  34.018  12.657   7.664
 1338POPC   NC319775  29.142  20.625   9.464
 1338POPC   PO419776  29.133  20.614   9.164
 1338POPC   GL119777  29.126  20.597   8.864
 1338POPC   GL219778  29.072  20.537   8.864
 1338POPC   C1A19779  29.132  20.618   8.564
 1338POPC   D2A19780  29.192  20.631   8.264
 1338POPC   C3A19781  29.135  20.577   7.964
 1338POPC   C4A19782  29.106  20.587   7.664
 1338POPC   C1B19783  28.894  20.560   8.564
 1338POPC   C2B19784  28.935  20.543   8.264
 1338POPC   C3B19785  28.946  20.506   7.964
 1338POPC   C4B19786  28.911  20.504   7.664
 1339POPC   NC319787  36.086   8.949   9.464
 1339POPC   PO419788  36.161   8.994   9.164
 1339POPC   GL119789  36.170   8.991   8.864
 1339POPC   GL219790  36.112   9.133   8.864
 1339POPC   C1A19791  36.084   9.006   8.564
 1339POPC   D2A19792  36.145   8.971   8.264
 1339POPC   C3A19793  36.154   9.017   7.964
 1339POPC   C4A19794  36.150   8.964   7.664
 1339POPC   C1B19795  36.203   9.241   8.564
 1339POPC   C2B19796  36.206   9.259   8.264
 1339POPC   C3B19797  36.160   9.203   7.964
 1339POPC   C4B19798  36.123   9.238   7.664
 1340POPC   NC319799  31.504  33.839   9.464
 1340POPC   PO419800  31.432  33.767   9.164
 1340POPC   GL119801  31.516  33.784   8.864
 1340POPC   GL219802  31.369  33.792   8.864
 1340POPC   C1A19803  31.452  33.843   8.564
 1340POPC   D2A19804  31.468  33.766   8.264
 1340POPC   C3A19805  31.497  33.786   7.964
 1340POPC   C4A19806  31.437  33.827   7.664
 1340POPC   C1B19807  31.224  33.839   8.564
 1340POPC   C2B19808  31.233  33.923   8.264
 1340POPC   C3B19809  31.218  33.866   7.964
 1340POPC   C4B19810  31.266  33.831   7.664
 1341POPC   NC319811  41.512  12.863   9.464
 1341POPC   PO419812  41.578  12.901   9.164
 1341POPC   GL119813  41.533  12.823   8.864
 1341POPC   GL219814  41.412  12.888   8.864
 1341POPC   C1A19815  41.554  12.855   8.564
 1341POPC   D2A19816  41.528  12.857   8.264
 1341POPC   C3A19817  41.564  12.885   7.964
 1341POPC   C4A19818  41.536  12.826   7.664
 1341POPC   C1B19819  41.324  12.925   8.564
 1341POPC   C2B19820  41.281  12.979   8.264
 1341POPC   C3B19821  41.328  12.971   7.964
 1341POPC   C4B19822  41.324  12.964   7.664
 1342POPC   NC319823  19.834  27.563   9.464
 1342POPC   PO419824  19.873  27.576   9.164
 1342POPC   GL119825  19.793  27.631   8.864
 1342POPC   GL219826  19.951  27.571   8.864
 1342POPC   C1A19827  19.877  27.560   8.564
 1342POPC   D2A19828  19.868  27.616   8.264
 1342POPC   C3A19829  19.846  27.638   7.964
 1342POPC   C4A19830  19.861  27.640   7.664
 1342POPC   C1B19831  20.088  27.519   8.564
 1342POPC   C2B19832  20.099  27.557   8.264
 1342POPC   C3B19833  20.091  27.582   7.964
 1342POPC   C4B19834  20.059  27.563   7.664
 1343POPC   NC319835  18.311  40.827   9.464
 1343POPC   PO419836  18.281  40.817   9.164
 1343POPC   GL119837  18.308  40.819   8.864
 1343POPC   GL219838  18.294  40.643   8.864
 1343POPC   C1A19839  18.282  40.738   8.564
 1343POPC   D2A19840  18.241  40.784   8.264
 1343POPC   C3A19841  18.296  40.822   7.964
 1343POPC   C4A19842  18.325  40.804   7.664
 1343POPC   C1B19843  18.185  40.491   8.564
 1343POPC   C2B19844  18.194  40.584   8.264
 1343POPC   C3B19845  18.268  40.502   7.964
 1343POPC   C4B19846  18.248  40.542   7.664
 1344POPC   NC319847   0.476  42.363   9.464
 1344POPC   PO419848   0.408  42.299   9.164
 1344POPC   GL119849   0.447  42.379   8.864
 1344POPC   GL219850   0.551  42.361   8.864
 1344POPC   C1A19851   0.403  42.318   8.564
 1344POPC   D2A19852   0.392  42.299   8.264
 1344POPC   C3A19853   0.451  42.384   7.964
 1344POPC   C4A19854   0.399  42.334   7.664
 1344POPC   C1B19855   0.710  42.444   8.564
 1344POPC   C2B19856   0.654  42.384   8.264
 1344POPC   C3B19857   0.691  42.417   7.964
 1344POPC   C4B19858   0.680  42.369   7.664
 1345POPC   NC319859  18.298  36.871   9.464
 1345POPC   PO419860  18.294  36.941   9.164
 1345POPC   GL119861  18.330  36.916   8.864
 1345POPC   GL219862  18.314  36.985   8.864
 1345POPC   C1A19863  18.271  36.925   8.564
 1345POPC   D2A19864  18.245  36.911   8.264
 1345POPC   C3A19865  18.236  36.896   7.964
 1345POPC   C4A19866  18.258  36.873   7.664
 1345POPC   C1B19867  18.363  37.165   8.564
 1345POPC   C2B19868  18.326  37.192   8.264
 1345POPC   C3B19869  18.321  37.193   7.964
 1345POPC   C4B19870  18.362  37.126   7.664
 1346POPC   NC319871   5.835  38.415   9.464
 1346POPC   PO419872   5.917  38.467   9.164
 1346POPC   GL119873   5.824  38.415   8.864
 1346POPC   GL219874   5.904  38.316   8.864
 1346POPC   C1A19875   5.820  38.498   8.564
 1346POPC   D2A19876   5.885  38.439   8.264
 1346POPC   C3A19877   5.887  38.468   7.964
 1346POPC   C4A19878   5.848  38.421   7.664
 1346POPC   C1B19879   5.845  38.167   8.564
 1346POPC   C2B19880   5.889  38.159   8.264
 1346POPC   C3B19881   5.934  38.231   7.964
 1346POPC   C4B19882   5.915  38.202   7.664
 1347POPC   NC319883   2.754  17.483   9.464
 1347POPC   PO419884   2.791  17.521   9.164
 1347POPC   GL119885   2.718  17.548   8.864
 1347POPC   GL219886   2.632  17.567   8.864
 1347POPC   C1A19887   2.722  17.507   8.564
 1347POPC   D2A19888   2.737  17.480   8.264
 1347POPC   C3A19889   2.724  17.506   7.964
 1347POPC   C4A19890   2.732  17.512   7.664
 1347POPC   C1B19891   2.522  17.624   8.564
 1347POPC   C2B19892   2.569  17.574   8.264
 1347POPC   C3B19893   2.516  17.632   7.964
 1347POPC   C4B19894   2.522  17.631   7.664
 1348POPC   NC319895  38.456  44.652   9.464
 1348POPC   PO419896  38.500  44.691   9.164
 1348POPC   GL119897  38.415  44.648   8.864
 1348POPC   GL219898  38.499  44.618   8.864
 1348POPC   C1A19899  38.432  44.709   8.564
 1348POPC   D2A19900  38.476  44.709   8.264
 1348POPC   C3A19901  38.408  44.688   7.964
 1348POPC   C4A19902  38.407  44.632   7.664
 1348POPC   C1B19903  38.620  44.527   8.564
 1348POPC   C2B19904  38.657  44.445   8.264
 1348POPC   C3B19905  38.650  44.512   7.964
 1348POPC   C4B19906  38.656  44.475   7.664
 1349POPC   NC319907   5.140  36.095   9.464
 1349POPC   PO419908   5.078  36.098   9.164
 1349POPC   GL119909   5.078  36.153   8.864
 1349POPC   GL219910   4.975  36.084   8.864
 1349POPC   C1A19911   5.117  36.121   8.564
 1349POPC   D2A19912   5.043  36.118   8.264
 1349POPC   C3A19913   5.056  36.079   7.964
 1349POPC   C4A19914   5.121  36.149   7.664
 1349POPC   C1B19915   4.880  35.986   8.564
 1349POPC   C2B19916   4.829  35.995   8.264
 1349POPC   C3B19917   4.895  36.037   7.964
 1349POPC   C4B19918   4.843  36.040   7.664
 1350POPC   NC319919  18.331  30.742   9.464
 1350POPC   PO419920  18.331  30.695   9.164
 1350POPC   GL119921  18.284  30.696   8.864
 1350POPC   GL219922  18.386  30.686   8.864
 1350POPC   C1A19923  18.249  30.746   8.564
 1350POPC   D2A19924  18.316  30.715   8.264
 1350POPC   C3A19925  18.283  30.744   7.964
 1350POPC   C4A19926  18.325  30.683   7.664
 1350POPC   C1B19927  18.577  30.658   8.564
 1350POPC   C2B19928  18.556  30.630   8.264
 1350POPC   C3B19929  18.513  30.674   7.964
 1350POPC   C4B19930  18.540  30.709   7.664
 1351POPC   NC319931  40.743  30.711   9.464
 1351POPC   PO419932  40.823  30.655   9.164
 1351POPC   GL119933  40.801  30.730   8.864
 1351POPC   GL219934  40.945  30.755   8.864
 1351POPC   C1A19935  40.763  30.652   8.564
 1351POPC   D2A19936  40.821  30.736   8.264
 1351POPC   C3A19937  40.805  30.744   7.964
 1351POPC   C4A19938  40.799  30.687   7.664
 1351POPC   C1B19939  41.045  30.748   8.564
 1351POPC   C2B19940  41.053  30.773   8.264
 1351POPC   C3B19941  41.043  30.817   7.964
 1351POPC   C4B19942  40.981  30.830   7.664
 1352POPC   NC319943   5.873   6.665   9.464
 1352POPC   PO419944   5.843   6.621   9.164
 1352POPC   GL119945   5.842   6.609   8.864
 1352POPC   GL219946   5.723   6.660   8.864
 1352POPC   C1A19947   5.918   6.631   8.564
 1352POPC   D2A19948   5.871   6.651   8.264
 1352POPC   C3A19949   5.895   6.607   7.964
 1352POPC   C4A19950   5.909   6.652   7.664
 1352POPC   C1B19951   5.648   6.640   8.564
 1352POPC   C2B19952   5.597   6.699   8.264
 1352POPC   C3B19953   5.624   6.668   7.964
 1352POPC   C4B19954   5.569   6.641   7.664
 1353POPC   NC319955   8.173  29.119   9.464
 1353POPC   PO419956   8.184  29.118   9.164
 1353POPC   GL119957   8.171  29.187   8.864
 1353POPC   GL219958   8.302  29.122   8.864
 1353POPC   C1A19959   8.244  29.175   8.564
 1353POPC   D2A19960   8.206  29.167   8.264
 1353POPC   C3A19961   8.241  29.165   7.964
 1353POPC   C4A19962   8.206  29.126   7.664
 1353POPC   C1B19963   8.440  29.162   8.564
 1353POPC   C2B19964   8.492  29.171   8.264
 1353POPC   C3B19965   8.415  29.160   7.964
 1353POPC   C4B19966   8.488  29.124   7.664
 1354POPC   NC319967  33.809  29.897   9.464
 1354POPC   PO419968  33.831  29.908   9.164
 1354POPC   GL119969  33.797  29.928   8.864
 1354POPC   GL219970  33.701  29.972   8.864
 1354POPC   C1A19971  33.760  29.955   8.564
 1354POPC   D2A19972  33.774  29.964   8.264
 1354POPC   C3A19973  33.835  29.877   7.964
 1354POPC   C4A19974  33.836  29.959   7.664
 1354POPC   C1B19975  33.548  29.962   8.564
 1354POPC   C2B19976  33.575  29.954   8.264
 1354POPC   C3B19977  33.576  29.980   7.964
 1354POPC   C4B19978  33.584  29.992   7.664
 1355POPC   NC319979  27.625  40.000   9.464
 1355POPC   PO419980  27.576  40.039   9.164
 1355POPC   GL119981  27.629  39.968   8.864
 1355POPC   GL219982  27.710  39.909   8.864
 1355POPC   C1A19983  27.595  40.040   8.564
 1355POPC   D2A19984  27.618  40.035   8.264
 1355POPC   C3A19985  27.639  40.021   7.964
 1355POPC   C4A19986  27.631  40.005   7.664
 1355POPC   C1B19987  27.728  39.775   8.564
 1355POPC   C2B19988  27.792  39.838   8.264
 1355POPC   C3B19989  27.787  39.857   7.964
 1355POPC   C4B19990  27.795  39.865   7.664
 1356POPC   NC319991  31.514  35.386   9.464
 1356POPC   PO419992  31.475  35.356   9.164
 1356POPC   GL119993  31.494  35.359   8.864
 1356POPC   GL219994  31.367  35.479   8.864
 1356POPC   C1A19995  31.430  35.332   8.564
 1356POPC   D2A19996  31.506  35.376   8.264
 1356POPC   C3A19997  31.442  35.349   7.964
 1356POPC   C4A19998  31.515  35.385   7.664
 1356POPC   C1B19999  31.322  35.529   8.564
 1356POPC   C2B20000  31.301  35.553   8.264
 1356POPC   C3B20001  31.337  35.513   7.964
 1356POPC   C4B20002  31.378  35.586   7.664
 1357POPC   NC320003  12.103   9.780   9.464
 1357POPC   PO420004  12.091   9.785   9.164
 1357POPC   GL120005  12.074   9.761   8.864
 1357POPC   GL220006  12.044   9.892   8.864
 1357POPC   C1A20007  12.050   9.746   8.564
 1357POPC   D2A20008  12.028   9.745   8.264
 1357POPC   C3A20009  12.071   9.750   7.964
 1357POPC   C4A20010  12.082   9.786   7.664
 1357POPC   C1B20011  12.061  10.002   8.564
 1357POPC   C2B20012  12.102  10.032   8.264
 1357POPC   C3B20013  12.017   9.955   7.964
 1357POPC   C4B20014  12.102  10.037   7.664
 1358POPC   NC320015  12.865  12.818   9.464
 1358POPC   PO420016  12.869  12.891   9.164
 1358POPC   GL120017  12.833  12.883   8.864
 1358POPC   GL220018  12.834  12.705   8.864
 1358POPC   C1A20019  12.843  12.888   8.564
 1358POPC   D2A20020  12.856  12.893   8.264
 1358POPC   C3A20021  12.823  12.875   7.964
 1358POPC   C4A20022  12.851  12.855   7.664
 1358POPC   C1B20023  12.748  12.608   8.564
 1358POPC   C2B20024  12.821  12.570   8.264
 1358POPC   C3B20025  12.785  12.565   7.964
 1358POPC   C4B20026  12.830  12.624   7.664
 1359POPC   NC320027  19.790  15.197   9.464
 1359POPC   PO420028  19.817  15.163   9.164
 1359POPC   GL120029  19.802  15.218   8.864
 1359POPC   GL220030  19.697  15.149   8.864
 1359POPC   C1A20031  19.865  15.199   8.564
 1359POPC   D2A20032  19.805  15.228   8.264
 1359POPC   C3A20033  19.794  15.162   7.964
 1359POPC   C4A20034  19.794  15.129   7.664
 1359POPC   C1B20035  19.597  15.112   8.564
 1359POPC   C2B20036  19.563  15.070   8.264
 1359POPC   C3B20037  19.576  15.067   7.964
 1359POPC   C4B20038  19.614  15.124   7.664
 1360POPC   NC320039  15.181  28.338   9.464
 1360POPC   PO420040  15.134  28.393   9.164
 1360POPC   GL120041  15.176  28.406   8.864
 1360POPC   GL220042  15.130  28.425   8.864
 1360POPC   C1A20043  15.182  28.342   8.564
 1360POPC   D2A20044  15.213  28.401   8.264
 1360POPC   C3A20045  15.210  28.324   7.964
 1360POPC   C4A20046  15.221  28.391   7.664
 1360POPC   C1B20047  15.071  28.581   8.564
 1360POPC   C2B20048  15.006  28.582   8.264
 1360POPC   C3B20049  15.018  28.544   7.964
 1360POPC   C4B20050  14.994  28.553   7.664
 1361POPC   NC320051  19.009   8.162   9.464
 1361POPC   PO420052  19.037   8.167   9.164
 1361POPC   GL120053  19.043   8.186   8.864
 1361POPC   GL220054  18.942   8.336   8.864
 1361POPC   C1A20055  19.088   8.187   8.564
 1361POPC   D2A20056  19.087   8.167   8.264
 1361POPC   C3A20057  19.053   8.207   7.964
 1361POPC   C4A20058  19.010   8.149   7.664
 1361POPC   C1B20059  18.923   8.350   8.564
 1361POPC   C2B20060  18.884   8.374   8.264
 1361POPC   C3B20061  18.897   8.430   7.964
 1361POPC   C4B20062  18.865   8.358   7.664
 1362POPC   NC320063  42.294  22.969   9.464
 1362POPC   PO420064  42.314  22.951   9.164
 1362POPC   GL120065  42.306  22.914   8.864
 1362POPC   GL220066  42.260  23.082   8.864
 1362POPC   C1A20067  42.382  22.959   8.564
 1362POPC   D2A20068  42.321  22.893   8.264
 1362POPC   C3A20069  42.288  22.937   7.964
 1362POPC   C4A20070  42.296  22.925   7.664
 1362POPC   C1B20071  42.254  23.197   8.564
 1362POPC   C2B20072  42.232  23.208   8.264
 1362POPC   C3B20073  42.283  23.196   7.964
 1362POPC   C4B20074  42.302  23.146   7.664
 1363POPC   NC320075  35.387   2.788   9.464
 1363POPC   PO420076  35.356   2.757   9.164
 1363POPC   GL120077  35.390   2.769   8.864
 1363POPC   GL220078  35.489   2.772   8.864
 1363POPC   C1A20079  35.358   2.736   8.564
 1363POPC   D2A20080  35.340   2.795   8.264
 1363POPC   C3A20081  35.350   2.811   7.964
 1363POPC   C4A20082  35.314   2.738   7.664
 1363POPC   C1B20083  35.580   2.829   8.564
 1363POPC   C2B20084  35.632   2.785   8.264
 1363POPC   C3B20085  35.567   2.815   7.964
 1363POPC   C4B20086  35.612   2.757   7.664
 1364POPC   NC320087  42.379   9.002   9.464
 1364POPC   PO420088  42.293   8.981   9.164
 1364POPC   GL120089  42.353   8.989   8.864
 1364POPC   GL220090  42.263   8.969   8.864
 1364POPC   C1A20091  42.293   8.958   8.564
 1364POPC   D2A20092  42.379   8.965   8.264
 1364POPC   C3A20093  42.335   9.018   7.964
 1364POPC   C4A20094  42.351   8.927   7.664
 1364POPC   C1B20095  42.115   8.899   8.564
 1364POPC   C2B20096  42.098   8.881   8.264
 1364POPC   C3B20097  42.133   8.855   7.964
 1364POPC   C4B20098  42.084   8.899   7.664
 1365POPC   NC320099   1.184   0.461   9.464
 1365POPC   PO420100   1.261   0.395   9.164
 1365POPC   GL120101   1.264   0.488   8.864
 1365POPC   GL220102   1.281   0.386   8.864
 1365POPC   C1A20103   1.177   0.478   8.564
 1365POPC   D2A20104   1.233   0.469   8.264
 1365POPC   C3A20105   1.168   0.478   7.964
 1365POPC   C4A20106   1.244   0.429   7.664
 1365POPC   C1B20107   1.402   0.279   8.564
 1365POPC   C2B20108   1.440   0.354   8.264
 1365POPC   C3B20109   1.384   0.327   7.964
 1365POPC   C4B20110   1.458   0.357   7.664
 1366POPC   NC320111  19.820  26.017   9.464
 1366POPC   PO420112  19.864  25.992   9.164
 1366POPC   GL120113  19.873  26.050   8.864
 1366POPC   GL220114  19.726  25.984   8.864
 1366POPC   C1A20115  19.838  26.053   8.564
 1366POPC   D2A20116  19.792  26.078   8.264
 1366POPC   C3A20117  19.884  26.089   7.964
 1366POPC   C4A20118  19.813  26.007   7.664
 1366POPC   C1B20119  19.722  25.861   8.564
 1366POPC   C2B20120  19.640  25.851   8.264
 1366POPC   C3B20121  19.686  25.868   7.964
 1366POPC   C4B20122  19.692  25.802   7.664
 1367POPC   NC320123   8.161  26.039   9.464
 1367POPC   PO420124   8.149  26.075   9.164
 1367POPC   GL120125   8.208  26.078   8.864
 1367POPC   GL220126   8.065  26.154   8.864
 1367POPC   C1A20127   8.231  26.038   8.564
 1367POPC   D2A20128   8.227  26.004   8.264
 1367POPC   C3A20129   8.191  26.054   7.964
 1367POPC   C4A20130   8.180  26.047   7.664
 1367POPC   C1B20131   8.038  26.211   8.564
 1367POPC   C2B20132   7.993  26.212   8.264
 1367POPC   C3B20133   7.996  26.212   7.964
 1367POPC   C4B20134   8.034  26.202   7.664
 1368POPC   NC320135  19.107   1.963   9.464
 1368POPC   PO420136  19.046   2.032   9.164
 1368POPC   GL120137  19.080   1.994   8.864
 1368POPC   GL220138  18.997   1.927   8.864
 1368POPC   C1A20139  19.033   1.991   8.564
 1368POPC   D2A20140  19.048   2.020   8.264
 1368POPC   C3A20141  19.070   1.963   7.964
 1368POPC   C4A20142  19.103   1.940   7.664
 1368POPC   C1B20143  18.907   1.839   8.564
 1368POPC   C2B20144  18.869   1.825   8.264
 1368POPC   C3B20145  18.895   1.796   7.964
 1368POPC   C4B20146  18.863   1.810   7.664
 1369POPC   NC320147  40.828  42.374   9.464
 1369POPC   PO420148  40.790  42.365   9.164
 1369POPC   GL120149  40.747  42.365   8.864
 1369POPC   GL220150  40.904  42.285   8.864
 1369POPC   C1A20151  40.824  42.346   8.564
 1369POPC   D2A20152  40.737  42.297   8.264
 1369POPC   C3A20153  40.779  42.364   7.964
 1369POPC   C4A20154  40.778  42.337   7.664
 1369POPC   C1B20155  41.030  42.259   8.564
 1369POPC   C2B20156  40.986  42.222   8.264
 1369POPC   C3B20157  41.025  42.211   7.964
 1369POPC   C4B20158  40.969  42.212   7.664
 1370POPC   NC320159  35.337  43.093   9.464
 1370POPC   PO420160  35.387  43.133   9.164
 1370POPC   GL120161  35.361  43.124   8.864
 1370POPC   GL220162  35.443  43.037   8.864
 1370POPC   C1A20163  35.338  43.097   8.564
 1370POPC   D2A20164  35.347  43.131   8.264
 1370POPC   C3A20165  35.314  43.078   7.964
 1370POPC   C4A20166  35.356  43.080   7.664
 1370POPC   C1B20167  35.581  43.067   8.564
 1370POPC   C2B20168  35.608  43.087   8.264
 1370POPC   C3B20169  35.613  43.041   7.964
 1370POPC   C4B20170  35.621  43.058   7.664
 1371POPC   NC320171   0.411   5.133   9.464
 1371POPC   PO420172   0.486   5.069   9.164
 1371POPC   GL120173   0.451   5.134   8.864
 1371POPC   GL220174   0.388   5.045   8.864
 1371POPC   C1A20175   0.444   5.073   8.564
 1371POPC   D2A20176   0.406   5.124   8.264
 1371POPC   C3A20177   0.442   5.112   7.964
 1371POPC   C4A20178   0.421   5.122   7.664
 1371POPC   C1B20179   0.251   4.933   8.564
 1371POPC   C2B20180   0.245   4.925   8.264
 1371POPC   C3B20181   0.253   4.901   7.964
 1371POPC   C4B20182   0.258   4.971   7.664
 1372POPC   NC320183  36.100  40.794   9.464
 1372POPC   PO420184  36.128  40.795   9.164
 1372POPC   GL120185  36.119  40.796   8.864
 1372POPC   GL220186  36.150  40.933   8.864
 1372POPC   C1A20187  36.115  40.778   8.564
 1372POPC   D2A20188  36.108  40.816   8.264
 1372POPC   C3A20189  36.082  40.781   7.964
 1372POPC   C4A20190  36.136  40.785   7.664
 1372POPC   C1B20191  36.114  41.048   8.564
 1372POPC   C2B20192  36.069  41.049   8.264
 1372POPC   C3B20193  36.157  40.992   7.964
 1372POPC   C4B20194  36.076  41.019   7.664
 1373POPC   NC320195  35.388  28.356   9.464
 1373POPC   PO420196  35.345  28.348   9.164
 1373POPC   GL120197  35.401  28.396   8.864
 1373POPC   GL220198  35.275  28.306   8.864
 1373POPC   C1A20199  35.388  28.412   8.564
 1373POPC   D2A20200  35.334  28.397   8.264
 1373POPC   C3A20201  35.348  28.328   7.964
 1373POPC   C4A20202  35.315  28.403   7.664
 1373POPC   C1B20203  35.272  28.126   8.564
 1373POPC   C2B20204  35.194  28.181   8.264
 1373POPC   C3B20205  35.268  28.182   7.964
 1373POPC   C4B20206  35.188  28.191   7.664
 1374POPC   NC320207  35.388   1.182   9.464
 1374POPC   PO420208  35.381   1.262   9.164
 1374POPC   GL120209  35.367   1.173   8.864
 1374POPC   GL220210  35.297   1.138   8.864
 1374POPC   C1A20211  35.322   1.176   8.564
 1374POPC   D2A20212  35.361   1.199   8.264
 1374POPC   C3A20213  35.376   1.207   7.964
 1374POPC   C4A20214  35.332   1.241   7.664
 1374POPC   C1B20215  35.247   1.014   8.564
 1374POPC   C2B20216  35.226   1.005   8.264
 1374POPC   C3B20217  35.262   0.990   7.964
 1374POPC   C4B20218  35.174   0.975   7.664
 1375POPC   NC320219  35.391   7.451   9.464
 1375POPC   PO420220  35.323   7.374   9.164
 1375POPC   GL120221  35.395   7.450   8.864
 1375POPC   GL220222  35.225   7.465   8.864
 1375POPC   C1A20223  35.387   7.463   8.564
 1375POPC   D2A20224  35.357   7.449   8.264
 1375POPC   C3A20225  35.380   7.421   7.964
 1375POPC   C4A20226  35.381   7.384   7.664
 1375POPC   C1B20227  35.170   7.573   8.564
 1375POPC   C2B20228  35.180   7.561   8.264
 1375POPC   C3B20229  35.153   7.591   7.964
 1375POPC   C4B20230  35.177   7.562   7.664
 1376POPC   NC320231  32.979   3.536   9.464
 1376POPC   PO420232  33.071   3.525   9.164
 1376POPC   GL120233  32.974   3.587   8.864
 1376POPC   GL220234  33.005   3.711   8.864
 1376POPC   C1A20235  33.064   3.519   8.564
 1376POPC   D2A20236  32.996   3.567   8.264
 1376POPC   C3A20237  33.051   3.535   7.964
 1376POPC   C4A20238  32.993   3.494   7.664
 1376POPC   C1B20239  32.930   3.760   8.564
 1376POPC   C2B20240  32.990   3.745   8.264
 1376POPC   C3B20241  32.962   3.780   7.964
 1376POPC   C4B20242  33.001   3.753   7.664
 1377POPC   NC320243  32.219  14.368   9.464
 1377POPC   PO420244  32.264  14.389   9.164
 1377POPC   GL120245  32.212  14.373   8.864
 1377POPC   GL220246  32.312  14.318   8.864
 1377POPC   C1A20247  32.216  14.433   8.564
 1377POPC   D2A20248  32.247  14.355   8.264
 1377POPC   C3A20249  32.244  14.414   7.964
 1377POPC   C4A20250  32.209  14.385   7.664
 1377POPC   C1B20251  32.377  14.226   8.564
 1377POPC   C2B20252  32.412  14.176   8.264
 1377POPC   C3B20253  32.352  14.193   7.964
 1377POPC   C4B20254  32.373  14.207   7.664
 1378POPC   NC320255  40.752  25.293   9.464
 1378POPC   PO420256  40.780  25.301   9.164
 1378POPC   GL120257  40.745  25.297   8.864
 1378POPC   GL220258  40.942  25.232   8.864
 1378POPC   C1A20259  40.793  25.243   8.564
 1378POPC   D2A20260  40.763  25.263   8.264
 1378POPC   C3A20261  40.810  25.284   7.964
 1378POPC   C4A20262  40.738  25.298   7.664
 1378POPC   C1B20263  41.015  25.238   8.564
 1378POPC   C2B20264  41.025  25.255   8.264
 1378POPC   C3B20265  41.058  25.268   7.964
 1378POPC   C4B20266  41.073  25.241   7.664
 1379POPC   NC320267   6.665  31.500   9.464
 1379POPC   PO420268   6.612  31.512   9.164
 1379POPC   GL120269   6.622  31.522   8.864
 1379POPC   GL220270   6.603  31.426   8.864
 1379POPC   C1A20271   6.665  31.517   8.564
 1379POPC   D2A20272   6.604  31.462   8.264
 1379POPC   C3A20273   6.661  31.467   7.964
 1379POPC   C4A20274   6.634  31.493   7.664
 1379POPC   C1B20275   6.436  31.234   8.564
 1379POPC   C2B20276   6.488  31.246   8.264
 1379POPC   C3B20277   6.480  31.328   7.964
 1379POPC   C4B20278   6.521  31.285   7.664
 1380POPC   NC320279  29.915  29.966   9.464
 1380POPC   PO420280  29.873  29.938   9.164
 1380POPC   GL120281  29.951  29.939   8.864
 1380POPC   GL220282  29.790  29.963   8.864
 1380POPC   C1A20283  29.945  29.938   8.564
 1380POPC   D2A20284  29.969  29.915   8.264
 1380POPC   C3A20285  29.965  29.928   7.964
 1380POPC   C4A20286  29.875  29.896   7.664
 1380POPC   C1B20287  29.701  29.935   8.564
 1380POPC   C2B20288  29.637  29.968   8.264
 1380POPC   C3B20289  29.636  29.945   7.964
 1380POPC   C4B20290  29.625  29.914   7.664
 1381POPC   NC320291  43.066  36.856   9.464
 1381POPC   PO420292  43.079  36.923   9.164
 1381POPC   GL120293  43.076  36.926   8.864
 1381POPC   GL220294  43.051  36.847   8.864
 1381POPC   C1A20295  43.122  36.950   8.564
 1381POPC   D2A20296  43.112  36.906   8.264
 1381POPC   C3A20297  43.068  36.892   7.964
 1381POPC   C4A20298  43.134  36.920   7.664
 1381POPC   C1B20299  42.925  36.671   8.564
 1381POPC   C2B20300  42.948  36.706   8.264
 1381POPC   C3B20301  42.983  36.723   7.964
 1381POPC   C4B20302  42.995  36.747   7.664
 1382POPC   NC320303  28.321  10.477   9.464
 1382POPC   PO420304  28.328  10.533   9.164
 1382POPC   GL120305  28.320  10.490   8.864
 1382POPC   GL220306  28.204  10.575   8.864
 1382POPC   C1A20307  28.416  10.492   8.564
 1382POPC   D2A20308  28.349  10.499   8.264
 1382POPC   C3A20309  28.386  10.517   7.964
 1382POPC   C4A20310  28.339  10.571   7.664
 1382POPC   C1B20311  28.118  10.549   8.564
 1382POPC   C2B20312  28.116  10.552   8.264
 1382POPC   C3B20313  28.130  10.526   7.964
 1382POPC   C4B20314  28.155  10.506   7.664
 1383POPC   NC320315  26.068  34.547   9.464
 1383POPC   PO420316  26.017  34.558   9.164
 1383POPC   GL120317  26.056  34.553   8.864
 1383POPC   GL220318  25.961  34.473   8.864
 1383POPC   C1A20319  26.045  34.609   8.564
 1383POPC   D2A20320  26.088  34.554   8.264
 1383POPC   C3A20321  26.070  34.619   7.964
 1383POPC   C4A20322  26.046  34.536   7.664
 1383POPC   C1B20323  25.833  34.440   8.564
 1383POPC   C2B20324  25.835  34.358   8.264
 1383POPC   C3B20325  25.823  34.407   7.964
 1383POPC   C4B20326  25.866  34.409   7.664
 1384POPC   NC320327  30.647  29.934   9.464
 1384POPC   PO420328  30.651  29.960   9.164
 1384POPC   GL120329  30.652  29.914   8.864
 1384POPC   GL220330  30.624  29.848   8.864
 1384POPC   C1A20331  30.742  29.937   8.564
 1384POPC   D2A20332  30.712  29.934   8.264
 1384POPC   C3A20333  30.689  29.946   7.964
 1384POPC   C4A20334  30.668  29.959   7.664
 1384POPC   C1B20335  30.577  29.693   8.564
 1384POPC   C2B20336  30.616  29.704   8.264
 1384POPC   C3B20337  30.586  29.714   7.964
 1384POPC   C4B20338  30.611  29.729   7.664
 1385POPC   NC320339  29.927   2.739   9.464
 1385POPC   PO420340  29.877   2.809   9.164
 1385POPC   GL120341  29.957   2.755   8.864
 1385POPC   GL220342  29.943   2.632   8.864
 1385POPC   C1A20343  29.901   2.719   8.564
 1385POPC   D2A20344  29.965   2.794   8.264
 1385POPC   C3A20345  29.897   2.768   7.964
 1385POPC   C4A20346  29.966   2.804   7.664
 1385POPC   C1B20347  30.018   2.512   8.564
 1385POPC   C2B20348  29.981   2.576   8.264
 1385POPC   C3B20349  29.972   2.561   7.964
 1385POPC   C4B20350  29.983   2.496   7.664
 1386POPC   NC320351  39.965  42.315   9.464
 1386POPC   PO420352  39.978  42.291   9.164
 1386POPC   GL120353  39.960  42.358   8.864
 1386POPC   GL220354  39.986  42.427   8.864
 1386POPC   C1A20355  40.041  42.377   8.564
 1386POPC   D2A20356  40.044  42.367   8.264
 1386POPC   C3A20357  40.015  42.346   7.964
 1386POPC   C4A20358  39.982  42.357   7.664
 1386POPC   C1B20359  40.028  42.570   8.564
 1386POPC   C2B20360  40.030  42.601   8.264
 1386POPC   C3B20361  40.041  42.548   7.964
 1386POPC   C4B20362  39.975  42.555   7.664
 1387POPC   NC320363  18.241   0.435   9.464
 1387POPC   PO420364  18.331   0.462   9.164
 1387POPC   GL120365  18.325   0.486   8.864
 1387POPC   GL220366  18.340   0.329   8.864
 1387POPC   C1A20367  18.242   0.478   8.564
 1387POPC   D2A20368  18.246   0.447   8.264
 1387POPC   C3A20369  18.271   0.398   7.964
 1387POPC   C4A20370  18.306   0.398   7.664
 1387POPC   C1B20371  18.505   0.247   8.564
 1387POPC   C2B20372  18.472   0.311   8.264
 1387POPC   C3B20373  18.516   0.237   7.964
 1387POPC   C4B20374  18.425   0.315   7.664
 1388POPC   NC320375  22.165   1.981   9.464
 1388POPC   PO420376  22.163   1.991   9.164
 1388POPC   GL120377  22.205   1.991   8.864
 1388POPC   GL220378  22.044   2.031   8.864
 1388POPC   C1A20379  22.193   2.015   8.564
 1388POPC   D2A20380  22.195   1.979   8.264
 1388POPC   C3A20381  22.151   2.008   7.964
 1388POPC   C4A20382  22.161   2.017   7.664
 1388POPC   C1B20383  21.959   2.016   8.564
 1388POPC   C2B20384  21.960   1.970   8.264
 1388POPC   C3B20385  21.864   2.027   7.964
 1388POPC   C4B20386  21.930   2.024   7.664
 1389POPC   NC320387  24.529  25.227   9.464
 1389POPC   PO420388  24.456  25.280   9.164
 1389POPC   GL120389  24.446  25.267   8.864
 1389POPC   GL220390  24.328  25.264   8.864
 1389POPC   C1A20391  24.445  25.287   8.564
 1389POPC   D2A20392  24.501  25.306   8.264
 1389POPC   C3A20393  24.490  25.217   7.964
 1389POPC   C4A20394  24.521  25.272   7.664
 1389POPC   C1B20395  24.270  25.374   8.564
 1389POPC   C2B20396  24.249  25.315   8.264
 1389POPC   C3B20397  24.239  25.383   7.964
 1389POPC   C4B20398  24.211  25.392   7.664
 1390POPC   NC320399  33.017  38.453   9.464
 1390POPC   PO420400  33.068  38.406   9.164
 1390POPC   GL120401  33.071  38.421   8.864
 1390POPC   GL220402  33.093  38.595   8.864
 1390POPC   C1A20403  33.025  38.499   8.564
 1390POPC   D2A20404  33.002  38.418   8.264
 1390POPC   C3A20405  32.984  38.418   7.964
 1390POPC   C4A20406  33.056  38.427   7.664
 1390POPC   C1B20407  33.150  38.618   8.564
 1390POPC   C2B20408  33.221  38.650   8.264
 1390POPC   C3B20409  33.212  38.667   7.964
 1390POPC   C4B20410  33.219  38.686   7.664
 1391POPC   NC320411  41.551  16.735   9.464
 1391POPC   PO420412  41.528  16.708   9.164
 1391POPC   GL120413  41.584  16.686   8.864
 1391POPC   GL220414  41.556  16.820   8.864
 1391POPC   C1A20415  41.510  16.697   8.564
 1391POPC   D2A20416  41.558  16.779   8.264
 1391POPC   C3A20417  41.539  16.763   7.964
 1391POPC   C4A20418  41.578  16.763   7.664
 1391POPC   C1B20419  41.493  16.998   8.564
 1391POPC   C2B20420  41.455  16.997   8.264
 1391POPC   C3B20421  41.432  16.996   7.964
 1391POPC   C4B20422  41.415  16.956   7.664
 1392POPC   NC320423  34.560  30.725   9.464
 1392POPC   PO420424  34.597  30.733   9.164
 1392POPC   GL120425  34.572  30.669   8.864
 1392POPC   GL220426  34.572  30.808   8.864
 1392POPC   C1A20427  34.623  30.651   8.564
 1392POPC   D2A20428  34.540  30.651   8.264
 1392POPC   C3A20429  34.576  30.729   7.964
 1392POPC   C4A20430  34.620  30.695   7.664
 1392POPC   C1B20431  34.521  30.939   8.564
 1392POPC   C2B20432  34.488  30.986   8.264
 1392POPC   C3B20433  34.498  30.917   7.964
 1392POPC   C4B20434  34.499  30.977   7.664
 1393POPC   NC320435  39.201  34.605   9.464
 1393POPC   PO420436  39.269  34.542   9.164
 1393POPC   GL120437  39.255  34.620   8.864
 1393POPC   GL220438  39.141  34.489   8.864
 1393POPC   C1A20439  39.229  34.544   8.564
 1393POPC   D2A20440  39.273  34.561   8.264
 1393POPC   C3A20441  39.203  34.556   7.964
 1393POPC   C4A20442  39.243  34.622   7.664
 1393POPC   C1B20443  39.010  34.407   8.564
 1393POPC   C2B20444  39.035  34.434   8.264
 1393POPC   C3B20445  39.070  34.382   7.964
 1393POPC   C4B20446  39.070  34.454   7.664
 1394POPC   NC320447  18.320  12.845   9.464
 1394POPC   PO420448  18.239  12.848   9.164
 1394POPC   GL120449  18.308  12.858   8.864
 1394POPC   GL220450  18.377  12.840   8.864
 1394POPC   C1A20451  18.303  12.877   8.564
 1394POPC   D2A20452  18.248  12.863   8.264
 1394POPC   C3A20453  18.262  12.893   7.964
 1394POPC   C4A20454  18.263  12.886   7.664
 1394POPC   C1B20455  18.570  12.869   8.564
 1394POPC   C2B20456  18.560  12.943   8.264
 1394POPC   C3B20457  18.570  12.882   7.964
 1394POPC   C4B20458  18.490  12.904   7.664
 1395POPC   NC320459  10.480  22.975   9.464
 1395POPC   PO420460  10.545  22.903   9.164
 1395POPC   GL120461  10.541  22.951   8.864
 1395POPC   GL220462  10.496  23.092   8.864
 1395POPC   C1A20463  10.540  22.945   8.564
 1395POPC   D2A20464  10.483  22.951   8.264
 1395POPC   C3A20465  10.522  22.949   7.964
 1395POPC   C4A20466  10.560  22.915   7.664
 1395POPC   C1B20467  10.492  23.202   8.564
 1395POPC   C2B20468  10.488  23.199   8.264
 1395POPC   C3B20469  10.501  23.215   7.964
 1395POPC   C4B20470  10.521  23.151   7.664
 1396POPC   NC320471  38.427  31.472   9.464
 1396POPC   PO420472  38.504  31.462   9.164
 1396POPC   GL120473  38.484  31.498   8.864
 1396POPC   GL220474  38.409  31.392   8.864
 1396POPC   C1A20475  38.440  31.505   8.564
 1396POPC   D2A20476  38.434  31.511   8.264
 1396POPC   C3A20477  38.457  31.468   7.964
 1396POPC   C4A20478  38.415  31.457   7.664
 1396POPC   C1B20479  38.312  31.322   8.564
 1396POPC   C2B20480  38.288  31.263   8.264
 1396POPC   C3B20481  38.318  31.251   7.964
 1396POPC   C4B20482  38.309  31.255   7.664
 1397POPC   NC320483  22.131  25.302   9.464
 1397POPC   PO420484  22.142  25.303   9.164
 1397POPC   GL120485  22.199  25.304   8.864
 1397POPC   GL220486  22.290  25.226   8.864
 1397POPC   C1A20487  22.205  25.231   8.564
 1397POPC   D2A20488  22.120  25.298   8.264
 1397POPC   C3A20489  22.188  25.315   7.964
 1397POPC   C4A20490  22.138  25.282   7.664
 1397POPC   C1B20491  22.392  25.057   8.564
 1397POPC   C2B20492  22.311  25.113   8.264
 1397POPC   C3B20493  22.328  25.090   7.964
 1397POPC   C4B20494  22.302  25.135   7.664
 1398POPC   NC320495   2.721  28.323   9.464
 1398POPC   PO420496   2.784  28.338   9.164
 1398POPC   GL120497   2.764  28.372   8.864
 1398POPC   GL220498   2.670  28.499   8.864
 1398POPC   C1A20499   2.802  28.335   8.564
 1398POPC   D2A20500   2.741  28.344   8.264
 1398POPC   C3A20501   2.785  28.408   7.964
 1398POPC   C4A20502   2.800  28.389   7.664
 1398POPC   C1B20503   2.631  28.605   8.564
 1398POPC   C2B20504   2.650  28.518   8.264
 1398POPC   C3B20505   2.573  28.581   7.964
 1398POPC   C4B20506   2.584  28.521   7.664
 1399POPC   NC320507  38.429  30.746   9.464
 1399POPC   PO420508  38.450  30.647   9.164
 1399POPC   GL120509  38.497  30.725   8.864
 1399POPC   GL220510  38.333  30.737   8.864
 1399POPC   C1A20511  38.452  30.692   8.564
 1399POPC   D2A20512  38.433  30.672   8.264
 1399POPC   C3A20513  38.416  30.717   7.964
 1399POPC   C4A20514  38.421  30.664   7.664
 1399POPC   C1B20515  38.205  30.848   8.564
 1399POPC   C2B20516  38.215  30.788   8.264
 1399POPC   C3B20517  38.193  30.834   7.964
 1399POPC   C4B20518  38.217  30.844   7.664
 1400POPC   NC320519  43.905  31.468   9.464
 1400POPC   PO420520  43.838  31.488   9.164
 1400POPC   GL120521  43.892  31.486   8.864
 1400POPC   GL220522  43.991  31.468   8.864
 1400POPC   C1A20523  43.926  31.512   8.564
 1400POPC   D2A20524  43.929  31.446   8.264
 1400POPC   C3A20525  43.902  31.451   7.964
 1400POPC   C4A20526  43.926  31.442   7.664
 1400POPC   C1B20527  44.112  31.506   8.564
 1400POPC   C2B20528  44.171  31.496   8.264
 1400POPC   C3B20529  44.140  31.512   7.964
 1400POPC   C4B20530  44.094  31.517   7.664
 1401POPC   NC320531  18.248  38.457   9.464
 1401POPC   PO420532  18.318  38.487   9.164
 1401POPC   GL120533  18.233  38.469   8.864
 1401POPC   GL220534  18.442  38.380   8.864
 1401POPC   C1A20535  18.265  38.465   8.564
 1401POPC   D2A20536  18.293  38.493   8.264
 1401POPC   C3A20537  18.298  38.432   7.964
 1401POPC   C4A20538  18.245  38.493   7.664
 1401POPC   C1B20539  18.508  38.309   8.564
 1401POPC   C2B20540  18.532  38.375   8.264
 1401POPC   C3B20541  18.527  38.347   7.964
 1401POPC   C4B20542  18.517  38.294   7.664
 1402POPC   NC320543  19.049  22.165   9.464
 1402POPC   PO420544  19.045  22.131   9.164
 1402POPC   GL120545  19.052  22.175   8.864
 1402POPC   GL220546  18.949  22.125   8.864
 1402POPC   C1A20547  19.069  22.137   8.564
 1402POPC   D2A20548  19.021  22.159   8.264
 1402POPC   C3A20549  19.078  22.123   7.964
 1402POPC   C4A20550  19.094  22.211   7.664
 1402POPC   C1B20551  18.863  22.072   8.564
 1402POPC   C2B20552  18.789  22.074   8.264
 1402POPC   C3B20553  18.820  22.091   7.964
 1402POPC   C4B20554  18.859  22.088   7.664
 1403POPC   NC320555  28.392  39.184   9.464
 1403POPC   PO420556  28.336  39.236   9.164
 1403POPC   GL120557  28.400  39.197   8.864
 1403POPC   GL220558  28.232  39.287   8.864
 1403POPC   C1A20559  28.321  39.189   8.564
 1403POPC   D2A20560  28.380  39.200   8.264
 1403POPC   C3A20561  28.379  39.234   7.964
 1403POPC   C4A20562  28.385  39.194   7.664
 1403POPC   C1B20563  28.222  39.437   8.564
 1403POPC   C2B20564  28.217  39.356   8.264
 1403POPC   C3B20565  28.200  39.416   7.964
 1403POPC   C4B20566  28.219  39.372   7.664
 1404POPC   NC320567  12.885  13.607   9.464
 1404POPC   PO420568  12.901  13.634   9.164
 1404POPC   GL120569  12.868  13.613   8.864
 1404POPC   GL220570  12.750  13.596   8.864
 1404POPC   C1A20571  12.856  13.629   8.564
 1404POPC   D2A20572  12.867  13.593   8.264
 1404POPC   C3A20573  12.836  13.671   7.964
 1404POPC   C4A20574  12.818  13.588   7.664
 1404POPC   C1B20575  12.588  13.536   8.564
 1404POPC   C2B20576  12.664  13.579   8.264
 1404POPC   C3B20577  12.645  13.495   7.964
 1404POPC   C4B20578  12.653  13.572   7.664
 1405POPC   NC320579  26.783  13.660   9.464
 1405POPC   PO420580  26.829  13.647   9.164
 1405POPC   GL120581  26.832  13.663   8.864
 1405POPC   GL220582  26.736  13.684   8.864
 1405POPC   C1A20583  26.768  13.641   8.564
 1405POPC   D2A20584  26.804  13.659   8.264
 1405POPC   C3A20585  26.840  13.616   7.964
 1405POPC   C4A20586  26.771  13.593   7.664
 1405POPC   C1B20587  26.606  13.828   8.564
 1405POPC   C2B20588  26.606  13.773   8.264
 1405POPC   C3B20589  26.607  13.835   7.964
 1405POPC   C4B20590  26.670  13.776   7.664
 1406POPC   NC320591   9.791   7.431   9.464
 1406POPC   PO420592   9.740   7.434   9.164
 1406POPC   GL120593   9.741   7.418   8.864
 1406POPC   GL220594   9.765   7.574   8.864
 1406POPC   C1A20595   9.729   7.374   8.564
 1406POPC   D2A20596   9.765   7.458   8.264
 1406POPC   C3A20597   9.726   7.433   7.964
 1406POPC   C4A20598   9.744   7.424   7.664
 1406POPC   C1B20599   9.849   7.656   8.564
 1406POPC   C2B20600   9.795   7.634   8.264
 1406POPC   C3B20601   9.810   7.637   7.964
 1406POPC   C4B20602   9.823   7.690   7.664
 1407POPC   NC320603  21.342  29.163   9.464
 1407POPC   PO420604  21.398  29.157   9.164
 1407POPC   GL120605  21.363  29.170   8.864
 1407POPC   GL220606  21.421  29.294   8.864
 1407POPC   C1A20607  21.346  29.141   8.564
 1407POPC   D2A20608  21.423  29.184   8.264
 1407POPC   C3A20609  21.393  29.177   7.964
 1407POPC   C4A20610  21.417  29.096   7.664
 1407POPC   C1B20611  21.481  29.340   8.564
 1407POPC   C2B20612  21.463  29.353   8.264
 1407POPC   C3B20613  21.528  29.383   7.964
 1407POPC   C4B20614  21.464  29.366   7.664
 1408POPC   NC320615   6.643  36.932   9.464
 1408POPC   PO420616   6.687  36.923   9.164
 1408POPC   GL120617   6.664  36.905   8.864
 1408POPC   GL220618   6.515  36.776   8.864
 1408POPC   C1A20619   6.664  36.900   8.564
 1408POPC   D2A20620   6.654  36.864   8.264
 1408POPC   C3A20621   6.695  36.853   7.964
 1408POPC   C4A20622   6.624  36.871   7.664
 1408POPC   C1B20623   6.432  36.740   8.564
 1408POPC   C2B20624   6.454  36.703   8.264
 1408POPC   C3B20625   6.438  36.749   7.964
 1408POPC   C4B20626   6.509  36.778   7.664
 1409POPC   NC320627  39.241  27.586   9.464
 1409POPC   PO420628  39.186  27.592   9.164
 1409POPC   GL120629  39.206  27.634   8.864
 1409POPC   GL220630  39.221  27.466   8.864
 1409POPC   C1A20631  39.186  27.593   8.564
 1409POPC   D2A20632  39.201  27.632   8.264
 1409POPC   C3A20633  39.235  27.620   7.964
 1409POPC   C4A20634  39.206  27.634   7.664
 1409POPC   C1B20635  39.275  27.379   8.564
 1409POPC   C2B20636  39.313  27.327   8.264
 1409POPC   C3B20637  39.272  27.301   7.964
 1409POPC   C4B20638  39.237  27.354   7.664
 1410POPC   NC320639   9.738  14.431   9.464
 1410POPC   PO420640   9.737  14.441   9.164
 1410POPC   GL120641   9.795  14.368   8.864
 1410POPC   GL220642   9.704  14.554   8.864
 1410POPC   C1A20643   9.750  14.427   8.564
 1410POPC   D2A20644   9.737  14.380   8.264
 1410POPC   C3A20645   9.739  14.420   7.964
 1410POPC   C4A20646   9.797  14.452   7.664
 1410POPC   C1B20647   9.713  14.605   8.564
 1410POPC   C2B20648   9.710  14.641   8.264
 1410POPC   C3B20649   9.696  14.665   7.964
 1410POPC   C4B20650   9.728  14.639   7.664
 1411POPC   NC320651   5.833  35.321   9.464
 1411POPC   PO420652   5.914  35.329   9.164
 1411POPC   GL120653   5.848  35.352   8.864
 1411POPC   GL220654   5.921  35.193   8.864
 1411POPC   C1A20655   5.844  35.395   8.564
 1411POPC   D2A20656   5.836  35.369   8.264
 1411POPC   C3A20657   5.849  35.363   7.964
 1411POPC   C4A20658   5.880  35.325   7.664
 1411POPC   C1B20659   6.005  35.117   8.564
 1411POPC   C2B20660   5.965  35.097   8.264
 1411POPC   C3B20661   5.956  35.164   7.964
 1411POPC   C4B20662   6.019  35.156   7.664
 1412POPC   NC320663  24.450  13.664   9.464
 1412POPC   PO420664  24.448  13.663   9.164
 1412POPC   GL120665  24.461  13.639   8.864
 1412POPC   GL220666  24.522  13.462   8.864
 1412POPC   C1A20667  24.449  13.656   8.564
 1412POPC   D2A20668  24.467  13.667   8.264
 1412POPC   C3A20669  24.525  13.668   7.964
 1412POPC   C4A20670  24.440  13.650   7.664
 1412POPC   C1B20671  24.599  13.398   8.564
 1412POPC   C2B20672  24.613  13.434   8.264
 1412POPC   C3B20673  24.601  13.371   7.964
 1412POPC   C4B20674  24.590  13.408   7.664
 1413POPC   NC320675   4.349  39.273   9.464
 1413POPC   PO420676   4.270  39.205   9.164
 1413POPC   GL120677   4.325  39.209   8.864
 1413POPC   GL220678   4.254  39.065   8.864
 1413POPC   C1A20679   4.362  39.209   8.564
 1413POPC   D2A20680   4.277  39.226   8.264
 1413POPC   C3A20681   4.346  39.211   7.964
 1413POPC   C4A20682   4.327  39.280   7.664
 1413POPC   C1B20683   4.243  39.002   8.564
 1413POPC   C2B20684   4.207  39.008   8.264
 1413POPC   C3B20685   4.211  38.954   7.964
 1413POPC   C4B20686   4.217  38.949   7.664
 1414POPC   NC320687  22.925  28.406   9.464
 1414POPC   PO420688  22.918  28.386   9.164
 1414POPC   GL120689  22.962  28.406   8.864
 1414POPC   GL220690  23.045  28.330   8.864
 1414POPC   C1A20691  22.930  28.376   8.564
 1414POPC   D2A20692  22.935  28.382   8.264
 1414POPC   C3A20693  22.935  28.407   7.964
 1414POPC   C4A20694  22.891  28.342   7.664
 1414POPC   C1B20695  23.134  28.223   8.564
 1414POPC   C2B20696  23.139  28.262   8.264
 1414POPC   C3B20697  23.122  28.277   7.964
 1414POPC   C4B20698  23.145  28.293   7.664
 1415POPC   NC320699  19.032  44.615   9.464
 1415POPC   PO420700  19.081  44.616   9.164
 1415POPC   GL120701  19.051  44.645   8.864
 1415POPC   GL220702  19.129  44.702   8.864
 1415POPC   C1A20703  19.068  44.636   8.564
 1415POPC   D2A20704  19.051  44.671   8.264
 1415POPC   C3A20705  19.065  44.654   7.964
 1415POPC   C4A20706  19.106  44.616   7.664
 1415POPC   C1B20707  19.271  44.791   8.564
 1415POPC   C2B20708  19.251  44.727   8.264
 1415POPC   C3B20709  19.298  44.800   7.964
 1415POPC   C4B20710  19.312  44.773   7.664
 1416POPC   NC320711   4.329   1.260   9.464
 1416POPC   PO420712   4.292   1.183   9.164
 1416POPC   GL120713   4.319   1.191   8.864
 1416POPC   GL220714   4.384   1.305   8.864
 1416POPC   C1A20715   4.349   1.245   8.564
 1416POPC   D2A20716   4.360   1.165   8.264
 1416POPC   C3A20717   4.296   1.186   7.964
 1416POPC   C4A20718   4.348   1.190   7.664
 1416POPC   C1B20719   4.380   1.416   8.564
 1416POPC   C2B20720   4.443   1.473   8.264
 1416POPC   C3B20721   4.435   1.493   7.964
 1416POPC   C4B20722   4.393   1.445   7.664
 1417POPC   NC320723   7.395  22.190   9.464
 1417POPC   PO420724   7.373  22.140   9.164
 1417POPC   GL120725   7.438  22.161   8.864
 1417POPC   GL220726   7.556  22.121   8.864
 1417POPC   C1A20727   7.426  22.195   8.564
 1417POPC   D2A20728   7.382  22.207   8.264
 1417POPC   C3A20729   7.395  22.158   7.964
 1417POPC   C4A20730   7.449  22.183   7.664
 1417POPC   C1B20731   7.565  22.007   8.564
 1417POPC   C2B20732   7.651  22.038   8.264
 1417POPC   C3B20733   7.571  22.016   7.964
 1417POPC   C4B20734   7.639  21.997   7.664
 1418POPC   NC320735  19.058  40.035   9.464
 1418POPC   PO420736  19.080  39.975   9.164
 1418POPC   GL120737  19.010  39.991   8.864
 1418POPC   GL220738  19.182  39.966   8.864
 1418POPC   C1A20739  19.078  39.961   8.564
 1418POPC   D2A20740  19.054  40.036   8.264
 1418POPC   C3A20741  19.106  40.010   7.964
 1418POPC   C4A20742  19.022  39.987   7.664
 1418POPC   C1B20743  19.352  39.976   8.564
 1418POPC   C2B20744  19.341  39.918   8.264
 1418POPC   C3B20745  19.274  39.935   7.964
 1418POPC   C4B20746  19.293  39.972   7.664
 1419POPC   NC320747   0.467  27.629   9.464
 1419POPC   PO420748   0.442  27.631   9.164
 1419POPC   GL120749   0.459  27.556   8.864
 1419POPC   GL220750   0.398  27.529   8.864
 1419POPC   C1A20751   0.416  27.567   8.564
 1419POPC   D2A20752   0.446  27.608   8.264
 1419POPC   C3A20753   0.423  27.640   7.964
 1419POPC   C4A20754   0.475  27.634   7.664
 1419POPC   C1B20755   0.294  27.430   8.564
 1419POPC   C2B20756   0.274  27.385   8.264
 1419POPC   C3B20757   0.297  27.370   7.964
 1419POPC   C4B20758   0.287  27.398   7.664
 1420POPC   NC320759  39.257  22.135   9.464
 1420POPC   PO420760  39.278  22.176   9.164
 1420POPC   GL120761  39.225  22.137   8.864
 1420POPC   GL220762  39.362  22.243   8.864
 1420POPC   C1A20763  39.186  22.208   8.564
 1420POPC   D2A20764  39.191  22.171   8.264
 1420POPC   C3A20765  39.211  22.162   7.964
 1420POPC   C4A20766  39.224  22.112   7.664
 1420POPC   C1B20767  39.376  22.301   8.564
 1420POPC   C2B20768  39.425  22.376   8.264
 1420POPC   C3B20769  39.360  22.346   7.964
 1420POPC   C4B20770  39.443  22.357   7.664
 1421POPC   NC320771  22.207  27.612   9.464
 1421POPC   PO420772  22.190  27.600   9.164
 1421POPC   GL120773  22.142  27.595   8.864
 1421POPC   GL220774  22.197  27.755   8.864
 1421POPC   C1A20775  22.118  27.586   8.564
 1421POPC   D2A20776  22.137  27.615   8.264
 1421POPC   C3A20777  22.192  27.566   7.964
 1421POPC   C4A20778  22.129  27.567   7.664
 1421POPC   C1B20779  22.146  27.863   8.564
 1421POPC   C2B20780  22.150  27.852   8.264
 1421POPC   C3B20781  22.194  27.862   7.964
 1421POPC   C4B20782  22.206  27.818   7.664
 1422POPC   NC320783  12.834  41.530   9.464
 1422POPC   PO420784  12.856  41.586   9.164
 1422POPC   GL120785  12.807  41.593   8.864
 1422POPC   GL220786  12.821  41.473   8.864
 1422POPC   C1A20787  12.820  41.575   8.564
 1422POPC   D2A20788  12.846  41.587   8.264
 1422POPC   C3A20789  12.808  41.581   7.964
 1422POPC   C4A20790  12.850  41.593   7.664
 1422POPC   C1B20791  12.800  41.336   8.564
 1422POPC   C2B20792  12.808  41.342   8.264
 1422POPC   C3B20793  12.772  41.312   7.964
 1422POPC   C4B20794  12.795  41.280   7.664
 1423POPC   NC320795  40.831   4.320   9.464
 1423POPC   PO420796  40.778   4.332   9.164
 1423POPC   GL120797  40.784   4.323   8.864
 1423POPC   GL220798  40.723   4.177   8.864
 1423POPC   C1A20799  40.768   4.282   8.564
 1423POPC   D2A20800  40.815   4.358   8.264
 1423POPC   C3A20801  40.791   4.313   7.964
 1423POPC   C4A20802  40.749   4.340   7.664
 1423POPC   C1B20803  40.696   4.056   8.564
 1423POPC   C2B20804  40.703   4.082   8.264
 1423POPC   C3B20805  40.701   4.130   7.964
 1423POPC   C4B20806  40.643   4.112   7.664
 1424POPC   NC320807  31.494  24.475   9.464
 1424POPC   PO420808  31.433  24.473   9.164
 1424POPC   GL120809  31.486  24.442   8.864
 1424POPC   GL220810  31.320  24.408   8.864
 1424POPC   C1A20811  31.480  24.477   8.564
 1424POPC   D2A20812  31.436  24.453   8.264
 1424POPC   C3A20813  31.507  24.540   7.964
 1424POPC   C4A20814  31.471  24.489   7.664
 1424POPC   C1B20815  31.293  24.398   8.564
 1424POPC   C2B20816  31.238  24.327   8.264
 1424POPC   C3B20817  31.249  24.336   7.964
 1424POPC   C4B20818  31.275  24.331   7.664
 1425POPC   NC320819   8.992  26.048   9.464
 1425POPC   PO420820   8.948  26.009   9.164
 1425POPC   GL120821   9.016  26.012   8.864
 1425POPC   GL220822   8.866  26.113   8.864
 1425POPC   C1A20823   8.931  26.000   8.564
 1425POPC   D2A20824   8.966  26.041   8.264
 1425POPC   C3A20825   9.004  26.014   7.964
 1425POPC   C4A20826   8.954  26.039   7.664
 1425POPC   C1B20827   8.804  26.176   8.564
 1425POPC   C2B20828   8.803  26.185   8.264
 1425POPC   C3B20829   8.749  26.128   7.964
 1425POPC   C4B20830   8.721  26.121   7.664
 1426POPC   NC320831  20.621   2.760   9.464
 1426POPC   PO420832  20.642   2.806   9.164
 1426POPC   GL120833  20.582   2.786   8.864
 1426POPC   GL220834  20.583   2.651   8.864
 1426POPC   C1A20835  20.645   2.774   8.564
 1426POPC   D2A20836  20.589   2.737   8.264
 1426POPC   C3A20837  20.653   2.780   7.964
 1426POPC   C4A20838  20.599   2.759   7.664
 1426POPC   C1B20839  20.492   2.590   8.564
 1426POPC   C2B20840  20.476   2.566   8.264
 1426POPC   C3B20841  20.497   2.569   7.964
 1426POPC   C4B20842  20.487   2.584   7.664
 1427POPC   NC320843  38.441  41.564   9.464
 1427POPC   PO420844  38.477  41.593   9.164
 1427POPC   GL120845  38.496  41.587   8.864
 1427POPC   GL220846  38.556  41.509   8.864
 1427POPC   C1A20847  38.437  41.542   8.564
 1427POPC   D2A20848  38.458  41.516   8.264
 1427POPC   C3A20849  38.474  41.551   7.964
 1427POPC   C4A20850  38.460  41.609   7.664
 1427POPC   C1B20851  38.608  41.354   8.564
 1427POPC   C2B20852  38.632  41.391   8.264
 1427POPC   C3B20853  38.593  41.325   7.964
 1427POPC   C4B20854  38.602  41.342   7.664
 1428POPC   NC320855  16.714   8.194   9.464
 1428POPC   PO420856  16.683   8.200   9.164
 1428POPC   GL120857  16.767   8.223   8.864
 1428POPC   GL220858  16.819   8.327   8.864
 1428POPC   C1A20859  16.714   8.168   8.564
 1428POPC   D2A20860  16.715   8.231   8.264
 1428POPC   C3A20861  16.780   8.223   7.964
 1428POPC   C4A20862  16.682   8.168   7.664
 1428POPC   C1B20863  16.787   8.430   8.564
 1428POPC   C2B20864  16.840   8.465   8.264
 1428POPC   C3B20865  16.790   8.403   7.964
 1428POPC   C4B20866  16.810   8.456   7.664
 1429POPC   NC320867   9.768  22.975   9.464
 1429POPC   PO420868   9.797  22.945   9.164
 1429POPC   GL120869   9.753  22.978   8.864
 1429POPC   GL220870   9.626  23.040   8.864
 1429POPC   C1A20871   9.767  22.897   8.564
 1429POPC   D2A20872   9.790  22.939   8.264
 1429POPC   C3A20873   9.750  22.962   7.964
 1429POPC   C4A20874   9.735  22.908   7.664
 1429POPC   C1B20875   9.498  23.055   8.564
 1429POPC   C2B20876   9.512  23.077   8.264
 1429POPC   C3B20877   9.567  23.035   7.964
 1429POPC   C4B20878   9.478  23.021   7.664
 1430POPC   NC320879  34.558   7.403   9.464
 1430POPC   PO420880  34.539   7.419   9.164
 1430POPC   GL120881  34.545   7.437   8.864
 1430POPC   GL220882  34.582   7.332   8.864
 1430POPC   C1A20883  34.591   7.395   8.564
 1430POPC   D2A20884  34.526   7.455   8.264
 1430POPC   C3A20885  34.616   7.431   7.964
 1430POPC   C4A20886  34.582   7.456   7.664
 1430POPC   C1B20887  34.543   7.223   8.564
 1430POPC   C2B20888  34.504   7.181   8.264
 1430POPC   C3B20889  34.528   7.147   7.964
 1430POPC   C4B20890  34.496   7.170   7.664
 1431POPC   NC320891  24.466   6.602   9.464
 1431POPC   PO420892  24.472   6.604   9.164
 1431POPC   GL120893  24.497   6.604   8.864
 1431POPC   GL220894  24.555   6.803   8.864
 1431POPC   C1A20895  24.502   6.627   8.564
 1431POPC   D2A20896  24.470   6.674   8.264
 1431POPC   C3A20897  24.525   6.655   7.964
 1431POPC   C4A20898  24.536   6.644   7.664
 1431POPC   C1B20899  24.535   6.933   8.564
 1431POPC   C2B20900  24.565   6.844   8.264
 1431POPC   C3B20901  24.554   6.855   7.964
 1431POPC   C4B20902  24.586   6.840   7.664
 1432POPC   NC320903  15.987  42.295   9.464
 1432POPC   PO420904  15.925  42.296   9.164
 1432POPC   GL120905  15.980  42.384   8.864
 1432POPC   GL220906  15.968  42.240   8.864
 1432POPC   C1A20907  15.999  42.368   8.564
 1432POPC   D2A20908  15.956  42.359   8.264
 1432POPC   C3A20909  15.928  42.316   7.964
 1432POPC   C4A20910  15.997  42.316   7.664
 1432POPC   C1B20911  16.048  42.076   8.564
 1432POPC   C2B20912  16.046  42.120   8.264
 1432POPC   C3B20913  16.058  42.086   7.964
 1432POPC   C4B20914  16.054  42.124   7.664
 1433POPC   NC320915  26.793  33.847   9.464
 1433POPC   PO420916  26.825  33.819   9.164
 1433POPC   GL120917  26.831  33.827   8.864
 1433POPC   GL220918  26.684  33.808   8.864
 1433POPC   C1A20919  26.803  33.763   8.564
 1433POPC   D2A20920  26.809  33.813   8.264
 1433POPC   C3A20921  26.768  33.773   7.964
 1433POPC   C4A20922  26.774  33.801   7.664
 1433POPC   C1B20923  26.532  33.779   8.564
 1433POPC   C2B20924  26.601  33.799   8.264
 1433POPC   C3B20925  26.541  33.775   7.964
 1433POPC   C4B20926  26.531  33.758   7.664
 1434POPC   NC320927   1.250   5.909   9.464
 1434POPC   PO420928   1.189   5.869   9.164
 1434POPC   GL120929   1.258   5.872   8.864
 1434POPC   GL220930   1.102   5.969   8.864
 1434POPC   C1A20931   1.200   5.894   8.564
 1434POPC   D2A20932   1.190   5.872   8.264
 1434POPC   C3A20933   1.240   5.902   7.964
 1434POPC   C4A20934   1.261   5.910   7.664
 1434POPC   C1B20935   1.019   6.030   8.564
 1434POPC   C2B20936   1.083   6.006   8.264
 1434POPC   C3B20937   1.019   6.072   7.964
 1434POPC   C4B20938   1.016   6.088   7.664
 1435POPC   NC320939  16.704  19.082   9.464
 1435POPC   PO420940  16.759  19.084   9.164
 1435POPC   GL120941  16.728  19.040   8.864
 1435POPC   GL220942  16.824  18.927   8.864
 1435POPC   C1A20943  16.688  19.089   8.564
 1435POPC   D2A20944  16.745  19.052   8.264
 1435POPC   C3A20945  16.714  19.038   7.964
 1435POPC   C4A20946  16.713  19.054   7.664
 1435POPC   C1B20947  16.898  18.803   8.564
 1435POPC   C2B20948  16.889  18.823   8.264
 1435POPC   C3B20949  16.839  18.802   7.964
 1435POPC   C4B20950  16.849  18.858   7.664
 1436POPC   NC320951  30.677  26.053   9.464
 1436POPC   PO420952  30.716  26.028   9.164
 1436POPC   GL120953  30.706  26.008   8.864
 1436POPC   GL220954  30.654  26.136   8.864
 1436POPC   C1A20955  30.736  26.019   8.564
 1436POPC   D2A20956  30.700  26.025   8.264
 1436POPC   C3A20957  30.691  26.051   7.964
 1436POPC   C4A20958  30.724  26.071   7.664
 1436POPC   C1B20959  30.562  26.224   8.564
 1436POPC   C2B20960  30.483  26.249   8.264
 1436POPC   C3B20961  30.484  26.199   7.964
 1436POPC   C4B20962  30.486  26.207   7.664
 1437POPC   NC320963  19.786   2.031   9.464
 1437POPC   PO420964  19.799   2.039   9.164
 1437POPC   GL120965  19.845   1.982   8.864
 1437POPC   GL220966  19.967   1.992   8.864
 1437POPC   C1A20967  19.881   1.954   8.564
 1437POPC   D2A20968  19.840   1.947   8.264
 1437POPC   C3A20969  19.825   2.034   7.964
 1437POPC   C4A20970  19.793   2.025   7.664
 1437POPC   C1B20971  20.046   1.960   8.564
 1437POPC   C2B20972  20.042   1.973   8.264
 1437POPC   C3B20973  20.055   1.992   7.964
 1437POPC   C4B20974  20.111   1.952   7.664
 1438POPC   NC320975  28.333  20.623   9.464
 1438POPC   PO420976  28.379  20.660   9.164
 1438POPC   GL120977  28.351  20.655   8.864
 1438POPC   GL220978  28.303  20.475   8.864
 1438POPC   C1A20979  28.333  20.579   8.564
 1438POPC   D2A20980  28.417  20.633   8.264
 1438POPC   C3A20981  28.343  20.637   7.964
 1438POPC   C4A20982  28.344  20.590   7.664
 1438POPC   C1B20983  28.186  20.392   8.564
 1438POPC   C2B20984  28.173  20.463   8.264
 1438POPC   C3B20985  28.202  20.453   7.964
 1438POPC   C4B20986  28.151  20.404   7.664
 1439POPC   NC320987   3.577  15.142   9.464
 1439POPC   PO420988   3.510  15.203   9.164
 1439POPC   GL120989   3.576  15.167   8.864
 1439POPC   GL220990   3.548  15.040   8.864
 1439POPC   C1A20991   3.587  15.139   8.564
 1439POPC   D2A20992   3.495  15.225   8.264
 1439POPC   C3A20993   3.493  15.210   7.964
 1439POPC   C4A20994   3.547  15.198   7.664
 1439POPC   C1B20995   3.555  14.896   8.564
 1439POPC   C2B20996   3.512  14.891   8.264
 1439POPC   C3B20997   3.531  14.890   7.964
 1439POPC   C4B20998   3.539  14.930   7.664
 1440POPC   NC320999  12.899   9.715   9.464
 1440POPC   PO421000  12.827   9.713   9.164
 1440POPC   GL121001  12.889   9.707   8.864
 1440POPC   GL221002  12.705   9.850   8.864
 1440POPC   C1A21003  12.873   9.763   8.564
 1440POPC   D2A21004  12.834   9.702   8.264
 1440POPC   C3A21005  12.872   9.717   7.964
 1440POPC   C4A21006  12.852   9.770   7.664
 1440POPC   C1B21007  12.685   9.824   8.564
 1440POPC   C2B21008  12.623   9.900   8.264
 1440POPC   C3B21009  12.623   9.849   7.964
 1440POPC   C4B21010  12.647   9.922   7.664
 1441POPC   NC321011   3.523  26.066   9.464
 1441POPC   PO421012   3.539  26.012   9.164
 1441POPC   GL121013   3.548  26.066   8.864
 1441POPC   GL221014   3.572  25.894   8.864
 1441POPC   C1A21015   3.527  26.036   8.564
 1441POPC   D2A21016   3.570  26.013   8.264
 1441POPC   C3A21017   3.528  26.027   7.964
 1441POPC   C4A21018   3.543  25.997   7.664
 1441POPC   C1B21019   3.570  25.825   8.564
 1441POPC   C2B21020   3.588  25.827   8.264
 1441POPC   C3B21021   3.574  25.744   7.964
 1441POPC   C4B21022   3.581  25.812   7.664
 1442POPC   NC321023  21.354  20.615   9.464
 1442POPC   PO421024  21.435  20.652   9.164
 1442POPC   GL121025  21.362  20.610   8.864
 1442POPC   GL221026  21.537  20.545   8.864
 1442POPC   C1A21027  21.342  20.567   8.564
 1442POPC   D2A21028  21.357  20.589   8.264
 1442POPC   C3A21029  21.356  20.632   7.964
 1442POPC   C4A21030  21.404  20.586   7.664
 1442POPC   C1B21031  21.653  20.530   8.564
 1442POPC   C2B21032  21.636  20.530   8.264
 1442POPC   C3B21033  21.669  20.524   7.964
 1442POPC   C4B21034  21.625  20.516   7.664
 1443POPC   NC321035  36.085   2.733   9.464
 1443POPC   PO421036  36.128   2.792   9.164
 1443POPC   GL121037  36.173   2.761   8.864
 1443POPC   GL221038  36.213   2.785   8.864
 1443POPC   C1A21039  36.171   2.791   8.564
 1443POPC   D2A21040  36.140   2.742   8.264
 1443POPC   C3A21041  36.168   2.788   7.964
 1443POPC   C4A21042  36.148   2.803   7.664
 1443POPC   C1B21043  36.411   2.805   8.564
 1443POPC   C2B21044  36.321   2.825   8.264
 1443POPC   C3B21045  36.400   2.894   7.964
 1443POPC   C4B21046  36.364   2.849   7.664
 1444POPC   NC321047   8.958  38.496   9.464
 1444POPC   PO421048   8.955  38.422   9.164
 1444POPC   GL121049   9.021  38.439   8.864
 1444POPC   GL221050   8.978  38.555   8.864
 1444POPC   C1A21051   9.012  38.411   8.564
 1444POPC   D2A21052   8.981  38.411   8.264
 1444POPC   C3A21053   8.973  38.440   7.964
 1444POPC   C4A21054   8.973  38.455   7.664
 1444POPC   C1B21055   9.074  38.737   8.564
 1444POPC   C2B21056   9.062  38.728   8.264
 1444POPC   C3B21057   9.104  38.685   7.964
 1444POPC   C4B21058   9.077  38.682   7.664
 1445POPC   NC321059   5.084  28.328   9.464
 1445POPC   PO421060   5.108  28.364   9.164
 1445POPC   GL121061   5.058  28.402   8.864
 1445POPC   GL221062   5.197  28.472   8.864
 1445POPC   C1A21063   5.142  28.385   8.564
 1445POPC   D2A21064   5.134  28.413   8.264
 1445POPC   C3A21065   5.077  28.385   7.964
 1445POPC   C4A21066   5.105  28.349   7.664
 1445POPC   C1B21067   5.289  28.553   8.564
 1445POPC   C2B21068   5.276  28.545   8.264
 1445POPC   C3B21069   5.214  28.520   7.964
 1445POPC   C4B21070   5.275  28.527   7.664
 1446POPC   NC321071  18.320   1.164   9.464
 1446POPC   PO421072  18.316   1.238   9.164
 1446POPC   GL121073  18.310   1.221   8.864
 1446POPC   GL221074  18.156   1.190   8.864
 1446POPC   C1A21075  18.281   1.219   8.564
 1446POPC   D2A21076  18.320   1.196   8.264
 1446POPC   C3A21077  18.279   1.181   7.964
 1446POPC   C4A21078  18.286   1.189   7.664
 1446POPC   C1B21079  18.105   1.153   8.564
 1446POPC   C2B21080  18.101   1.066   8.264
 1446POPC   C3B21081  18.017   1.083   7.964
 1446POPC   C4B21082  18.098   1.084   7.664
 1447POPC   NC321083   1.992  38.432   9.464
 1447POPC   PO421084   2.036  38.473   9.164
 1447POPC   GL121085   1.979  38.413   8.864
 1447POPC   GL221086   1.876  38.411   8.864
 1447POPC   C1A21087   1.993  38.437   8.564
 1447POPC   D2A21088   1.988  38.442   8.264
 1447POPC   C3A21089   1.995  38.406   7.964
 1447POPC   C4A21090   2.037  38.431   7.664
 1447POPC   C1B21091   1.776  38.409   8.564
 1447POPC   C2B21092   1.737  38.333   8.264
 1447POPC   C3B21093   1.711  38.366   7.964
 1447POPC   C4B21094   1.786  38.410   7.664
 1448POPC   NC321095  30.721  22.128   9.464
 1448POPC   PO421096  30.664  22.114   9.164
 1448POPC   GL121097  30.711  22.123   8.864
 1448POPC   GL221098  30.805  22.208   8.864
 1448POPC   C1A21099  30.715  22.181   8.564
 1448POPC   D2A21100  30.706  22.135   8.264
 1448POPC   C3A21101  30.726  22.122   7.964
 1448POPC   C4A21102  30.713  22.126   7.664
 1448POPC   C1B21103  30.901  22.224   8.564
 1448POPC   C2B21104  30.941  22.294   8.264
 1448POPC   C3B21105  30.932  22.223   7.964
 1448POPC   C4B21106  30.918  22.294   7.664
 1449POPC   NC321107   8.967  33.018   9.464
 1449POPC   PO421108   8.936  33.011   9.164
 1449POPC   GL121109   8.928  32.998   8.864
 1449POPC   GL221110   9.093  32.973   8.864
 1449POPC   C1A21111   8.997  33.073   8.564
 1449POPC   D2A21112   8.991  33.006   8.264
 1449POPC   C3A21113   8.971  33.057   7.964
 1449POPC   C4A21114   8.981  33.061   7.664
 1449POPC   C1B21115   9.232  32.973   8.564
 1449POPC   C2B21116   9.220  33.035   8.264
 1449POPC   C3B21117   9.210  32.975   7.964
 1449POPC   C4B21118   9.250  32.993   7.664
 1450POPC   NC321119  14.403   4.330   9.464
 1450POPC   PO421120  14.390   4.344   9.164
 1450POPC   GL121121  14.438   4.297   8.864
 1450POPC   GL221122  14.428   4.223   8.864
 1450POPC   C1A21123  14.408   4.358   8.564
 1450POPC   D2A21124  14.438   4.359   8.264
 1450POPC   C3A21125  14.421   4.355   7.964
 1450POPC   C4A21126  14.405   4.338   7.664
 1450POPC   C1B21127  14.458   4.034   8.564
 1450POPC   C2B21128  14.471   4.020   8.264
 1450POPC   C3B21129  14.457   4.104   7.964
 1450POPC   C4B21130  14.432   4.071   7.664
 1451POPC   NC321131  42.352  12.846   9.464
 1451POPC   PO421132  42.302  12.817   9.164
 1451POPC   GL121133  42.375  12.841   8.864
 1451POPC   GL221134  42.267  12.986   8.864
 1451POPC   C1A21135  42.376  12.806   8.564
 1451POPC   D2A21136  42.376  12.824   8.264
 1451POPC   C3A21137  42.347  12.847   7.964
 1451POPC   C4A21138  42.289  12.809   7.664
 1451POPC   C1B21139  42.278  13.094   8.564
 1451POPC   C2B21140  42.279  13.041   8.264
 1451POPC   C3B21141  42.267  13.062   7.964
 1451POPC   C4B21142  42.226  13.085   7.664
 1452POPC   NC321143  11.278  38.435   9.464
 1452POPC   PO421144  11.346  38.462   9.164
 1452POPC   GL121145  11.323  38.427   8.864
 1452POPC   GL221146  11.372  38.580   8.864
 1452POPC   C1A21147  11.313  38.467   8.564
 1452POPC   D2A21148  11.261  38.419   8.264
 1452POPC   C3A21149  11.288  38.442   7.964
 1452POPC   C4A21150  11.325  38.440   7.664
 1452POPC   C1B21151  11.487  38.613   8.564
 1452POPC   C2B21152  11.492  38.617   8.264
 1452POPC   C3B21153  11.533  38.594   7.964
 1452POPC   C4B21154  11.486  38.604   7.664
 1453POPC   NC321155  16.000  13.663   9.464
 1453POPC   PO421156  15.908  13.618   9.164
 1453POPC   GL121157  15.973  13.676   8.864
 1453POPC   GL221158  15.938  13.725   8.864
 1453POPC   C1A21159  15.946  13.623   8.564
 1453POPC   D2A21160  15.961  13.630   8.264
 1453POPC   C3A21161  15.993  13.601   7.964
 1453POPC   C4A21162  16.001  13.602   7.664
 1453POPC   C1B21163  15.873  13.799   8.564
 1453POPC   C2B21164  15.812  13.856   8.264
 1453POPC   C3B21165  15.812  13.836   7.964
 1453POPC   C4B21166  15.868  13.873   7.664
 1454POPC   NC321167  30.726   9.728   9.464
 1454POPC   PO421168  30.743   9.776   9.164
 1454POPC   GL121169  30.719   9.744   8.864
 1454POPC   GL221170  30.753   9.867   8.864
 1454POPC   C1A21171  30.662   9.756   8.564
 1454POPC   D2A21172  30.714   9.753   8.264
 1454POPC   C3A21173  30.688   9.739   7.964
 1454POPC   C4A21174  30.705   9.751   7.664
 1454POPC   C1B21175  30.863   9.984   8.564
 1454POPC   C2B21176  30.849   9.908   8.264
 1454POPC   C3B21177  30.884   9.954   7.964
 1454POPC   C4B21178  30.878   9.968   7.664
 1455POPC   NC321179  20.631  36.081   9.464
 1455POPC   PO421180  20.570  36.171   9.164
 1455POPC   GL121181  20.624  36.155   8.864
 1455POPC   GL221182  20.622  36.256   8.864
 1455POPC   C1A21183  20.613  36.103   8.564
 1455POPC   D2A21184  20.590  36.177   8.264
 1455POPC   C3A21185  20.649  36.089   7.964
 1455POPC   C4A21186  20.586  36.103   7.664
 1455POPC   C1B21187  20.734  36.338   8.564
 1455POPC   C2B21188  20.698  36.327   8.264
 1455POPC   C3B21189  20.729  36.386   7.964
 1455POPC   C4B21190  20.720  36.370   7.664
 1456POPC   NC321191  40.020  30.701   9.464
 1456POPC   PO421192  39.963  30.702   9.164
 1456POPC   GL121193  40.029  30.746   8.864
 1456POPC   GL221194  40.139  30.667   8.864
 1456POPC   C1A21195  40.055  30.729   8.564
 1456POPC   D2A21196  40.035  30.741   8.264
 1456POPC   C3A21197  39.999  30.722   7.964
 1456POPC   C4A21198  39.996  30.742   7.664
 1456POPC   C1B21199  40.160  30.539   8.564
 1456POPC   C2B21200  40.179  30.503   8.264
 1456POPC   C3B21201  40.180  30.568   7.964
 1456POPC   C4B21202  40.222  30.595   7.664
 1457POPC   NC321203  44.675   5.122   9.464
 1457POPC   PO421204  44.694   5.108   9.164
 1457POPC   GL121205  44.681   5.097   8.864
 1457POPC   GL221206  44.549   5.015   8.864
 1457POPC   C1A21207  44.694   5.063   8.564
 1457POPC   D2A21208  44.631   5.085   8.264
 1457POPC   C3A21209  44.657   5.098   7.964
 1457POPC   C4A21210  44.627   5.139   7.664
 1457POPC   C1B21211  44.481   4.953   8.564
 1457POPC   C2B21212  44.512   4.869   8.264
 1457POPC   C3B21213  44.447   4.947   7.964
 1457POPC   C4B21214  44.534   4.930   7.664
 1458POPC   NC321215  33.760  36.859   9.464
 1458POPC   PO421216  33.777  36.862   9.164
 1458POPC   GL121217  33.759  36.859   8.864
 1458POPC   GL221218  33.741  37.024   8.864
 1458POPC   C1A21219  33.758  36.862   8.564
 1458POPC   D2A21220  33.773  36.902   8.264
 1458POPC   C3A21221  33.843  36.935   7.964
 1458POPC   C4A21222  33.796  36.921   7.664
 1458POPC   C1B21223  33.745  37.191   8.564
 1458POPC   C2B21224  33.734  37.157   8.264
 1458POPC   C3B21225  33.719  37.185   7.964
 1458POPC   C4B21226  33.763  37.125   7.664
 1459POPC   NC321227  27.593  12.823   9.464
 1459POPC   PO421228  27.597  12.818   9.164
 1459POPC   GL121229  27.551  12.873   8.864
 1459POPC   GL221230  27.664  12.992   8.864
 1459POPC   C1A21231  27.571  12.844   8.564
 1459POPC   D2A21232  27.622  12.871   8.264
 1459POPC   C3A21233  27.557  12.873   7.964
 1459POPC   C4A21234  27.583  12.890   7.664
 1459POPC   C1B21235  27.668  13.107   8.564
 1459POPC   C2B21236  27.676  13.119   8.264
 1459POPC   C3B21237  27.676  13.064   7.964
 1459POPC   C4B21238  27.718  13.103   7.664
 1460POPC   NC321239  16.713   5.138   9.464
 1460POPC   PO421240  16.722   5.102   9.164
 1460POPC   GL121241  16.717   5.139   8.864
 1460POPC   GL221242  16.650   5.199   8.864
 1460POPC   C1A21243  16.728   5.136   8.564
 1460POPC   D2A21244  16.722   5.044   8.264
 1460POPC   C3A21245  16.744   5.084   7.964
 1460POPC   C4A21246  16.682   5.095   7.664
 1460POPC   C1B21247  16.480   5.181   8.564
 1460POPC   C2B21248  16.533   5.217   8.264
 1460POPC   C3B21249  16.545   5.240   7.964
 1460POPC   C4B21250  16.481   5.225   7.664
 1461POPC   NC321251   6.601  19.027   9.464
 1461POPC   PO421252   6.674  19.058   9.164
 1461POPC   GL121253   6.611  19.052   8.864
 1461POPC   GL221254   6.732  18.913   8.864
 1461POPC   C1A21255   6.658  19.073   8.564
 1461POPC   D2A21256   6.684  19.085   8.264
 1461POPC   C3A21257   6.632  19.026   7.964
 1461POPC   C4A21258   6.620  19.057   7.664
 1461POPC   C1B21259   6.795  18.809   8.564
 1461POPC   C2B21260   6.811  18.795   8.264
 1461POPC   C3B21261   6.808  18.884   7.964
 1461POPC   C4B21262   6.791  18.844   7.664
 1462POPC   NC321263  16.717   6.623   9.464
 1462POPC   PO421264  16.773   6.636   9.164
 1462POPC   GL121265  16.770   6.628   8.864
 1462POPC   GL221266  16.802   6.724   8.864
 1462POPC   C1A21267  16.721   6.682   8.564
 1462POPC   D2A21268  16.780   6.666   8.264
 1462POPC   C3A21269  16.742   6.621   7.964
 1462POPC   C4A21270  16.716   6.651   7.664
 1462POPC   C1B21271  16.996   6.773   8.564
 1462POPC   C2B21272  16.976   6.687   8.264
 1462POPC   C3B21273  16.954   6.698   7.964
 1462POPC   C4B21274  17.004   6.709   7.664
 1463POPC   NC321275  26.005  38.483   9.464
 1463POPC   PO421276  26.069  38.425   9.164
 1463POPC   GL121277  26.048  38.433   8.864
 1463POPC   GL221278  25.989  38.384   8.864
 1463POPC   C1A21279  26.040  38.458   8.564
 1463POPC   D2A21280  26.072  38.490   8.264
 1463POPC   C3A21281  26.087  38.450   7.964
 1463POPC   C4A21282  26.042  38.501   7.664
 1463POPC   C1B21283  25.901  38.287   8.564
 1463POPC   C2B21284  25.840  38.312   8.264
 1463POPC   C3B21285  25.837  38.232   7.964
 1463POPC   C4B21286  25.850  38.230   7.664
 1464POPC   NC321287   5.087  18.250   9.464
 1464POPC   PO421288   5.110  18.310   9.164
 1464POPC   GL121289   5.054  18.234   8.864
 1464POPC   GL221290   5.181  18.285   8.864
 1464POPC   C1A21291   5.055  18.302   8.564
 1464POPC   D2A21292   5.120  18.235   8.264
 1464POPC   C3A21293   5.127  18.284   7.964
 1464POPC   C4A21294   5.115  18.317   7.664
 1464POPC   C1B21295   5.387  18.214   8.564
 1464POPC   C2B21296   5.367  18.184   8.264
 1464POPC   C3B21297   5.297  18.231   7.964
 1464POPC   C4B21298   5.291  18.200   7.664
 1465POPC   NC321299  33.027   6.657   9.464
 1465POPC   PO421300  33.007   6.637   9.164
 1465POPC   GL121301  33.069   6.686   8.864
 1465POPC   GL221302  32.992   6.794   8.864
 1465POPC   C1A21303  32.991   6.660   8.564
 1465POPC   D2A21304  33.051   6.595   8.264
 1465POPC   C3A21305  33.038   6.641   7.964
 1465POPC   C4A21306  33.030   6.608   7.664
 1465POPC   C1B21307  32.934   6.912   8.564
 1465POPC   C2B21308  32.901   6.865   8.264
 1465POPC   C3B21309  32.919   6.901   7.964
 1465POPC   C4B21310  32.895   6.858   7.664
 1466POPC   NC321311   5.900   5.100   9.464
 1466POPC   PO421312   5.840   5.120   9.164
 1466POPC   GL121313   5.863   5.109   8.864
 1466POPC   GL221314   5.928   5.191   8.864
 1466POPC   C1A21315   5.891   5.077   8.564
 1466POPC   D2A21316   5.828   5.065   8.264
 1466POPC   C3A21317   5.819   5.115   7.964
 1466POPC   C4A21318   5.829   5.107   7.664
 1466POPC   C1B21319   6.084   5.244   8.564
 1466POPC   C2B21320   6.132   5.194   8.264
 1466POPC   C3B21321   6.084   5.263   7.964
 1466POPC   C4B21322   6.105   5.244   7.664
 1467POPC   NC321323  15.946  26.058   9.464
 1467POPC   PO421324  15.942  26.062   9.164
 1467POPC   GL121325  15.945  26.013   8.864
 1467POPC   GL221326  16.042  25.926   8.864
 1467POPC   C1A21327  15.963  26.020   8.564
 1467POPC   D2A21328  15.982  26.021   8.264
 1467POPC   C3A21329  15.980  26.046   7.964
 1467POPC   C4A21330  15.954  26.010   7.664
 1467POPC   C1B21331  16.195  25.932   8.564
 1467POPC   C2B21332  16.128  25.912   8.264
 1467POPC   C3B21333  16.110  25.909   7.964
 1467POPC   C4B21334  16.150  25.905   7.664
 1468POPC   NC321335  25.249  19.802   9.464
 1468POPC   PO421336  25.292  19.838   9.164
 1468POPC   GL121337  25.256  19.794   8.864
 1468POPC   GL221338  25.331  19.760   8.864
 1468POPC   C1A21339  25.256  19.798   8.564
 1468POPC   D2A21340  25.229  19.792   8.264
 1468POPC   C3A21341  25.253  19.814   7.964
 1468POPC   C4A21342  25.311  19.872   7.664
 1468POPC   C1B21343  25.516  19.717   8.564
 1468POPC   C2B21344  25.476  19.691   8.264
 1468POPC   C3B21345  25.486  19.698   7.964
 1468POPC   C4B21346  25.523  19.699   7.664
 1469POPC   NC321347  15.152  30.699   9.464
 1469POPC   PO421348  15.140  30.733   9.164
 1469POPC   GL121349  15.216  30.721   8.864
 1469POPC   GL221350  15.085  30.613   8.864
 1469POPC   C1A21351  15.134  30.729   8.564
 1469POPC   D2A21352  15.219  30.658   8.264
 1469POPC   C3A21353  15.193  30.734   7.964
 1469POPC   C4A21354  15.190  30.692   7.664
 1469POPC   C1B21355  14.917  30.576   8.564
 1469POPC   C2B21356  14.977  30.535   8.264
 1469POPC   C3B21357  14.991  30.552   7.964
 1469POPC   C4B21358  15.004  30.545   7.664
 1470POPC   NC321359  17.510   4.347   9.464
 1470POPC   PO421360  17.549   4.336   9.164
 1470POPC   GL121361  17.539   4.366   8.864
 1470POPC   GL221362  17.663   4.306   8.864
 1470POPC   C1A21363  17.462   4.348   8.564
 1470POPC   D2A21364  17.542   4.273   8.264
 1470POPC   C3A21365  17.512   4.367   7.964
 1470POPC   C4A21366  17.548   4.341   7.664
 1470POPC   C1B21367  17.699   4.270   8.564
 1470POPC   C2B21368  17.783   4.283   8.264
 1470POPC   C3B21369  17.718   4.237   7.964
 1470POPC   C4B21370  17.739   4.242   7.664
 1471POPC   NC321371  34.543   6.672   9.464
 1471POPC   PO421372  34.607   6.611   9.164
 1471POPC   GL121373  34.567   6.617   8.864
 1471POPC   GL221374  34.541   6.780   8.864
 1471POPC   C1A21375  34.586   6.655   8.564
 1471POPC   D2A21376  34.602   6.640   8.264
 1471POPC   C3A21377  34.626   6.640   7.964
 1471POPC   C4A21378  34.588   6.624   7.664
 1471POPC   C1B21379  34.418   6.843   8.564
 1471POPC   C2B21380  34.439   6.825   8.264
 1471POPC   C3B21381  34.391   6.836   7.964
 1471POPC   C4B21382  34.407   6.809   7.664
 1472POPC   NC321383  17.466  11.296   9.464
 1472POPC   PO421384  17.511  11.315   9.164
 1472POPC   GL121385  17.535  11.273   8.864
 1472POPC   GL221386  17.615  11.287   8.864
 1472POPC   C1A21387  17.538  11.267   8.564
 1472POPC   D2A21388  17.537  11.278   8.264
 1472POPC   C3A21389  17.462  11.317   7.964
 1472POPC   C4A21390  17.478  11.296   7.664
 1472POPC   C1B21391  17.720  11.380   8.564
 1472POPC   C2B21392  17.785  11.296   8.264
 1472POPC   C3B21393  17.755  11.367   7.964
 1472POPC   C4B21394  17.748  11.343   7.664
 1473POPC   NC321395  11.345  12.068   9.464
 1473POPC   PO421396  11.282  12.048   9.164
 1473POPC   GL121397  11.252  12.065   8.864
 1473POPC   GL221398  11.304  11.915   8.864
 1473POPC   C1A21399  11.334  12.065   8.564
 1473POPC   D2A21400  11.271  12.061   8.264
 1473POPC   C3A21401  11.340  12.079   7.964
 1473POPC   C4A21402  11.291  12.098   7.664
 1473POPC   C1B21403  11.209  11.850   8.564
 1473POPC   C2B21404  11.189  11.866   8.264
 1473POPC   C3B21405  11.268  11.866   7.964
 1473POPC   C4B21406  11.204  11.879   7.664
 1474POPC   NC321407  33.040  26.859   9.464
 1474POPC   PO421408  33.020  26.781   9.164
 1474POPC   GL121409  32.985  26.846   8.864
 1474POPC   GL221410  33.024  26.972   8.864
 1474POPC   C1A21411  33.012  26.845   8.564
 1474POPC   D2A21412  33.067  26.837   8.264
 1474POPC   C3A21413  33.000  26.826   7.964
 1474POPC   C4A21414  33.027  26.776   7.664
 1474POPC   C1B21415  33.066  27.063   8.564
 1474POPC   C2B21416  33.038  27.030   8.264
 1474POPC   C3B21417  33.121  27.070   7.964
 1474POPC   C4B21418  33.100  27.068   7.664
 1475POPC   NC321419  34.541  22.920   9.464
 1475POPC   PO421420  34.567  22.983   9.164
 1475POPC   GL121421  34.592  22.925   8.864
 1475POPC   GL221422  34.476  23.036   8.864
 1475POPC   C1A21423  34.616  22.891   8.564
 1475POPC   D2A21424  34.535  22.974   8.264
 1475POPC   C3A21425  34.605  22.977   7.964
 1475POPC   C4A21426  34.549  22.918   7.664
 1475POPC   C1B21427  34.397  23.063   8.564
 1475POPC   C2B21428  34.354  23.097   8.264
 1475POPC   C3B21429  34.417  23.122   7.964
 1475POPC   C4B21430  34.362  23.126   7.664
 1476POPC   NC321431  36.084  42.365   9.464
 1476POPC   PO421432  36.083  42.380   9.164
 1476POPC   GL121433  36.142  42.350   8.864
 1476POPC   GL221434  36.204  42.266   8.864
 1476POPC   C1A21435  36.142  42.375   8.564
 1476POPC   D2A21436  36.133  42.340   8.264
 1476POPC   C3A21437  36.152  42.373   7.964
 1476POPC   C4A21438  36.174  42.357   7.664
 1476POPC   C1B21439  36.227  42.136   8.564
 1476POPC   C2B21440  36.293  42.111   8.264
 1476POPC   C3B21441  36.252  42.121   7.964
 1476POPC   C4B21442  36.260  42.107   7.664
 1477POPC   NC321443  15.214  10.494   9.464
 1477POPC   PO421444  15.168  10.496   9.164
 1477POPC   GL121445  15.195  10.500   8.864
 1477POPC   GL221446  15.282  10.574   8.864
 1477POPC   C1A21447  15.194  10.547   8.564
 1477POPC   D2A21448  15.163  10.487   8.264
 1477POPC   C3A21449  15.164  10.562   7.964
 1477POPC   C4A21450  15.140  10.523   7.664
 1477POPC   C1B21451  15.428  10.574   8.564
 1477POPC   C2B21452  15.430  10.580   8.264
 1477POPC   C3B21453  15.414  10.567   7.964
 1477POPC   C4B21454  15.429  10.620   7.664
 1478POPC   NC321455   8.955  44.699   9.464
 1478POPC   PO421456   9.007  44.705   9.164
 1478POPC   GL121457   8.970  44.627   8.864
 1478POPC   GL221458   8.959  44.830   8.864
 1478POPC   C1A21459   8.935  44.642   8.564
 1478POPC   D2A21460   8.946  44.668   8.264
 1478POPC   C3A21461   8.976  44.711   7.964
 1478POPC   C4A21462   8.928  44.702   7.664
 1478POPC   C1B21463   8.957  44.916   8.564
 1478POPC   C2B21464   8.922  44.914   8.264
 1478POPC   C3B21465   8.892  44.894   7.964
 1478POPC   C4B21466   8.964  44.946   7.664
 1479POPC   NC321467  24.479  32.254   9.464
 1479POPC   PO421468  24.459  32.236   9.164
 1479POPC   GL121469  24.522  32.220   8.864
 1479POPC   GL221470  24.604  32.360   8.864
 1479POPC   C1A21471  24.538  32.261   8.564
 1479POPC   D2A21472  24.520  32.235   8.264
 1479POPC   C3A21473  24.499  32.256   7.964
 1479POPC   C4A21474  24.476  32.297   7.664
 1479POPC   C1B21475  24.614  32.473   8.564
 1479POPC   C2B21476  24.607  32.405   8.264
 1479POPC   C3B21477  24.631  32.440   7.964
 1479POPC   C4B21478  24.644  32.401   7.664
 1480POPC   NC321479  28.387  12.837   9.464
 1480POPC   PO421480  28.319  12.850   9.164
 1480POPC   GL121481  28.347  12.828   8.864
 1480POPC   GL221482  28.364  13.009   8.864
 1480POPC   C1A21483  28.371  12.886   8.564
 1480POPC   D2A21484  28.342  12.810   8.264
 1480POPC   C3A21485  28.327  12.875   7.964
 1480POPC   C4A21486  28.329  12.809   7.664
 1480POPC   C1B21487  28.315  13.111   8.564
 1480POPC   C2B21488  28.275  13.106   8.264
 1480POPC   C3B21489  28.307  13.045   7.964
 1480POPC   C4B21490  28.251  13.089   7.664
 1481POPC   NC321491  14.361   1.995   9.464
 1481POPC   PO421492  14.354   2.010   9.164
 1481POPC   GL121493  14.452   1.965   8.864
 1481POPC   GL221494  14.252   1.970   8.864
 1481POPC   C1A21495  14.410   2.016   8.564
 1481POPC   D2A21496  14.445   2.006   8.264
 1481POPC   C3A21497  14.361   1.948   7.964
 1481POPC   C4A21498  14.365   2.026   7.664
 1481POPC   C1B21499  14.179   1.920   8.564
 1481POPC   C2B21500  14.173   1.863   8.264
 1481POPC   C3B21501  14.172   1.889   7.964
 1481POPC   C4B21502  14.193   1.900   7.664
 1482POPC   NC321503  28.370  31.479   9.464
 1482POPC   PO421504  28.330  31.454   9.164
 1482POPC   GL121505  28.348  31.473   8.864
 1482POPC   GL221506  28.516  31.507   8.864
 1482POPC   C1A21507  28.418  31.467   8.564
 1482POPC   D2A21508  28.370  31.423   8.264
 1482POPC   C3A21509  28.385  31.522   7.964
 1482POPC   C4A21510  28.382  31.468   7.664
 1482POPC   C1B21511  28.662  31.544   8.564
 1482POPC   C2B21512  28.594  31.493   8.264
 1482POPC   C3B21513  28.593  31.553   7.964
 1482POPC   C4B21514  28.651  31.493   7.664
 1483POPC   NC321515   4.329  27.545   9.464
 1483POPC   PO421516   4.278  27.597   9.164
 1483POPC   GL121517   4.320  27.595   8.864
 1483POPC   GL221518   4.339  27.675   8.864
 1483POPC   C1A21519   4.365  27.613   8.564
 1483POPC   D2A21520   4.319  27.628   8.264
 1483POPC   C3A21521   4.272  27.608   7.964
 1483POPC   C4A21522   4.312  27.600   7.664
 1483POPC   C1B21523   4.382  27.794   8.564
 1483POPC   C2B21524   4.351  27.789   8.264
 1483POPC   C3B21525   4.340  27.858   7.964
 1483POPC   C4B21526   4.372  27.809   7.664
 1484POPC   NC321527  16.779  28.374   9.464
 1484POPC   PO421528  16.738  28.396   9.164
 1484POPC   GL121529  16.706  28.410   8.864
 1484POPC   GL221530  16.666  28.253   8.864
 1484POPC   C1A21531  16.766  28.373   8.564
 1484POPC   D2A21532  16.712  28.369   8.264
 1484POPC   C3A21533  16.779  28.374   7.964
 1484POPC   C4A21534  16.694  28.333   7.664
 1484POPC   C1B21535  16.576  28.185   8.564
 1484POPC   C2B21536  16.551  28.228   8.264
 1484POPC   C3B21537  16.572  28.231   7.964
 1484POPC   C4B21538  16.532  28.196   7.664
 1485POPC   NC321539   0.432   7.394   9.464
 1485POPC   PO421540   0.435   7.375   9.164
 1485POPC   GL121541   0.425   7.409   8.864
 1485POPC   GL221542   0.394   7.306   8.864
 1485POPC   C1A21543   0.481   7.431   8.564
 1485POPC   D2A21544   0.429   7.451   8.264
 1485POPC   C3A21545   0.407   7.430   7.964
 1485POPC   C4A21546   0.398   7.457   7.664
 1485POPC   C1B21547   0.330   7.240   8.564
 1485POPC   C2B21548   0.330   7.169   8.264
 1485POPC   C3B21549   0.316   7.181   7.964
 1485POPC   C4B21550   0.305   7.250   7.664
 1486POPC   NC321551  13.653  38.435   9.464
 1486POPC   PO421552  13.636  38.418   9.164
 1486POPC   GL121553  13.580  38.424   8.864
 1486POPC   GL221554  13.772  38.452   8.864
 1486POPC   C1A21555  13.652  38.470   8.564
 1486POPC   D2A21556  13.613  38.418   8.264
 1486POPC   C3A21557  13.617  38.489   7.964
 1486POPC   C4A21558  13.603  38.499   7.664
 1486POPC   C1B21559  13.898  38.510   8.564
 1486POPC   C2B21560  13.904  38.590   8.264
 1486POPC   C3B21561  13.815  38.578   7.964
 1486POPC   C4B21562  13.849  38.504   7.664
 1487POPC   NC321563  41.516  25.278   9.464
 1487POPC   PO421564  41.575  25.221   9.164
 1487POPC   GL121565  41.548  25.263   8.864
 1487POPC   GL221566  41.431  25.303   8.864
 1487POPC   C1A21567  41.602  25.249   8.564
 1487POPC   D2A21568  41.535  25.220   8.264
 1487POPC   C3A21569  41.530  25.228   7.964
 1487POPC   C4A21570  41.556  25.283   7.664
 1487POPC   C1B21571  41.274  25.315   8.564
 1487POPC   C2B21572  41.306  25.280   8.264
 1487POPC   C3B21573  41.277  25.256   7.964
 1487POPC   C4B21574  41.329  25.261   7.664
 1488POPC   NC321575  35.388  44.681   9.464
 1488POPC   PO421576  35.374  44.669   9.164
 1488POPC   GL121577  35.398  44.661   8.864
 1488POPC   GL221578  35.241  44.581   8.864
 1488POPC   C1A21579  35.340  44.643   8.564
 1488POPC   D2A21580  35.334  44.658   8.264
 1488POPC   C3A21581  35.361  44.623   7.964
 1488POPC   C4A21582  35.317  44.669   7.664
 1488POPC   C1B21583  35.163  44.482   8.564
 1488POPC   C2B21584  35.217  44.453   8.264
 1488POPC   C3B21585  35.228  44.505   7.964
 1488POPC   C4B21586  35.179  44.492   7.664
 1489POPC   NC321587  21.370  24.524   9.464
 1489POPC   PO421588  21.421  24.533   9.164
 1489POPC   GL121589  21.423  24.488   8.864
 1489POPC   GL221590  21.449  24.417   8.864
 1489POPC   C1A21591  21.358  24.527   8.564
 1489POPC   D2A21592  21.402  24.503   8.264
 1489POPC   C3A21593  21.378  24.482   7.964
 1489POPC   C4A21594  21.418  24.445   7.664
 1489POPC   C1B21595  21.657  24.388   8.564
 1489POPC   C2B21596  21.607  24.339   8.264
 1489POPC   C3B21597  21.636  24.423   7.964
 1489POPC   C4B21598  21.575  24.417   7.664
 1490POPC   NC321599  12.045  16.701   9.464
 1490POPC   PO421600  12.092  16.755   9.164
 1490POPC   GL121601  12.028  16.686   8.864
 1490POPC   GL221602  12.224  16.773   8.864
 1490POPC   C1A21603  12.068  16.728   8.564
 1490POPC   D2A21604  12.124  16.732   8.264
 1490POPC   C3A21605  12.051  16.695   7.964
 1490POPC   C4A21606  12.099  16.714   7.664
 1490POPC   C1B21607  12.345  16.863   8.564
 1490POPC   C2B21608  12.285  16.865   8.264
 1490POPC   C3B21609  12.348  16.797   7.964
 1490POPC   C4B21610  12.255  16.860   7.664
 1491POPC   NC321611   1.225  26.794   9.464
 1491POPC   PO421612   1.253  26.841   9.164
 1491POPC   GL121613   1.186  26.834   8.864
 1491POPC   GL221614   1.314  26.970   8.864
 1491POPC   C1A21615   1.198  26.794   8.564
 1491POPC   D2A21616   1.207  26.840   8.264
 1491POPC   C3A21617   1.180  26.801   7.964
 1491POPC   C4A21618   1.216  26.833   7.664
 1491POPC   C1B21619   1.365  26.990   8.564
 1491POPC   C2B21620   1.354  27.076   8.264
 1491POPC   C3B21621   1.315  27.078   7.964
 1491POPC   C4B21622   1.349  27.006   7.664
 1492POPC   NC321623  37.692  21.405   9.464
 1492POPC   PO421624  37.706  21.338   9.164
 1492POPC   GL121625  37.649  21.395   8.864
 1492POPC   GL221626  37.652  21.221   8.864
 1492POPC   C1A21627  37.699  21.414   8.564
 1492POPC   D2A21628  37.720  21.404   8.264
 1492POPC   C3A21629  37.704  21.424   7.964
 1492POPC   C4A21630  37.679  21.406   7.664
 1492POPC   C1B21631  37.607  21.153   8.564
 1492POPC   C2B21632  37.580  21.150   8.264
 1492POPC   C3B21633  37.633  21.155   7.964
 1492POPC   C4B21634  37.563  21.181   7.664
 1493POPC   NC321635  22.901  20.564   9.464
 1493POPC   PO421636  22.971  20.566   9.164
 1493POPC   GL121637  22.977  20.616   8.864
 1493POPC   GL221638  23.055  20.512   8.864
 1493POPC   C1A21639  22.899  20.598   8.564
 1493POPC   D2A21640  22.966  20.610   8.264
 1493POPC   C3A21641  22.921  20.602   7.964
 1493POPC   C4A21642  22.901  20.616   7.664
 1493POPC   C1B21643  23.128  20.525   8.564
 1493POPC   C2B21644  23.146  20.510   8.264
 1493POPC   C3B21645  23.148  20.502   7.964
 1493POPC   C4B21646  23.192  20.514   7.664
 1494POPC   NC321647  28.333  33.810   9.464
 1494POPC   PO421648  28.379  33.772   9.164
 1494POPC   GL121649  28.369  33.834   8.864
 1494POPC   GL221650  28.448  33.822   8.864
 1494POPC   C1A21651  28.349  33.774   8.564
 1494POPC   D2A21652  28.342  33.840   8.264
 1494POPC   C3A21653  28.390  33.819   7.964
 1494POPC   C4A21654  28.358  33.772   7.664
 1494POPC   C1B21655  28.590  33.798   8.564
 1494POPC   C2B21656  28.583  33.830   8.264
 1494POPC   C3B21657  28.575  33.756   7.964
 1494POPC   C4B21658  28.655  33.776   7.664
 1495POPC   NC321659   5.911   8.172   9.464
 1495POPC   PO421660   5.885   8.178   9.164
 1495POPC   GL121661   5.859   8.207   8.864
 1495POPC   GL221662   5.887   8.105   8.864
 1495POPC   C1A21663   5.905   8.210   8.564
 1495POPC   D2A21664   5.884   8.237   8.264
 1495POPC   C3A21665   5.919   8.181   7.964
 1495POPC   C4A21666   5.907   8.220   7.664
 1495POPC   C1B21667   6.003   7.988   8.564
 1495POPC   C2B21668   5.947   7.980   8.264
 1495POPC   C3B21669   6.015   8.013   7.964
 1495POPC   C4B21670   5.945   8.016   7.664
 1496POPC   NC321671  44.666  27.619   9.464
 1496POPC   PO421672  44.645  27.582   9.164
 1496POPC   GL121673  44.705  27.554   8.864
 1496POPC   GL221674  44.733  27.491   8.864
 1496POPC   C1A21675  44.692  27.616   8.564
 1496POPC   D2A21676  44.682  27.613   8.264
 1496POPC   C3A21677  44.670  27.544   7.964
 1496POPC   C4A21678  44.654  27.595   7.664
 1496POPC   C1B21679  44.837  27.397   8.564
 1496POPC   C2B21680  44.770  27.377   8.264
 1496POPC   C3B21681  44.829  27.426   7.964
 1496POPC   C4B21682  44.810  27.394   7.664
 1497POPC   NC321683  29.167  12.877   9.464
 1497POPC   PO421684  29.134  12.810   9.164
 1497POPC   GL121685  29.134  12.852   8.864
 1497POPC   GL221686  29.107  12.769   8.864
 1497POPC   C1A21687  29.097  12.857   8.564
 1497POPC   D2A21688  29.188  12.802   8.264
 1497POPC   C3A21689  29.106  12.833   7.964
 1497POPC   C4A21690  29.153  12.871   7.664
 1497POPC   C1B21691  29.118  12.617   8.564
 1497POPC   C2B21692  29.118  12.606   8.264
 1497POPC   C3B21693  29.141  12.652   7.964
 1497POPC   C4B21694  29.136  12.583   7.664
 1498POPC   NC321695  38.423  17.507   9.464
 1498POPC   PO421696  38.480  17.510   9.164
 1498POPC   GL121697  38.457  17.543   8.864
 1498POPC   GL221698  38.474  17.675   8.864
 1498POPC   C1A21699  38.494  17.538   8.564
 1498POPC   D2A21700  38.504  17.466   8.264
 1498POPC   C3A21701  38.453  17.527   7.964
 1498POPC   C4A21702  38.464  17.482   7.664
 1498POPC   C1B21703  38.442  17.772   8.564
 1498POPC   C2B21704  38.388  17.722   8.264
 1498POPC   C3B21705  38.465  17.756   7.964
 1498POPC   C4B21706  38.469  17.779   7.664
 1499POPC   NC321707   6.678  17.556   9.464
 1499POPC   PO421708   6.658  17.464   9.164
 1499POPC   GL121709   6.610  17.527   8.864
 1499POPC   GL221710   6.493  17.493   8.864
 1499POPC   C1A21711   6.624  17.477   8.564
 1499POPC   D2A21712   6.625  17.521   8.264
 1499POPC   C3A21713   6.692  17.460   7.964
 1499POPC   C4A21714   6.619  17.531   7.664
 1499POPC   C1B21715   6.365  17.513   8.564
 1499POPC   C2B21716   6.401  17.514   8.264
 1499POPC   C3B21717   6.358  17.520   7.964
 1499POPC   C4B21718   6.361  17.578   7.664
 1500POPC   NC321719  28.332   8.233   9.464
 1500POPC   PO421720  28.320   8.204   9.164
 1500POPC   GL121721  28.357   8.206   8.864
 1500POPC   GL221722  28.445   8.284   8.864
 1500POPC   C1A21723  28.405   8.231   8.564
 1500POPC   D2A21724  28.362   8.241   8.264
 1500POPC   C3A21725  28.399   8.168   7.964
 1500POPC   C4A21726  28.357   8.150   7.664
 1500POPC   C1B21727  28.492   8.429   8.564
 1500POPC   C2B21728  28.472   8.428   8.264
 1500POPC   C3B21729  28.509   8.400   7.964
 1500POPC   C4B21730  28.541   8.382   7.664
 1501POPC   NC321731  19.013  22.894   9.464
 1501POPC   PO421732  19.058  22.945   9.164
 1501POPC   GL121733  19.025  22.946   8.864
 1501POPC   GL221734  18.984  22.978   8.864
 1501POPC   C1A21735  19.009  22.932   8.564
 1501POPC   D2A21736  19.101  22.946   8.264
 1501POPC   C3A21737  19.075  22.921   7.964
 1501POPC   C4A21738  19.074  22.898   7.664
 1501POPC   C1B21739  18.779  22.972   8.564
 1501POPC   C2B21740  18.838  22.984   8.264
 1501POPC   C3B21741  18.837  23.028   7.964
 1501POPC   C4B21742  18.774  23.019   7.664
 1502POPC   NC321743   2.753  27.549   9.464
 1502POPC   PO421744   2.756  27.568   9.164
 1502POPC   GL121745   2.812  27.613   8.864
 1502POPC   GL221746   2.857  27.675   8.864
 1502POPC   C1A21747   2.801  27.600   8.564
 1502POPC   D2A21748   2.777  27.588   8.264
 1502POPC   C3A21749   2.740  27.581   7.964
 1502POPC   C4A21750   2.732  27.601   7.664
 1502POPC   C1B21751   2.983  27.611   8.564
 1502POPC   C2B21752   3.010  27.702   8.264
 1502POPC   C3B21753   2.980  27.694   7.964
 1502POPC   C4B21754   3.039  27.627   7.664
 1503POPC   NC321755   8.199  23.700   9.464
 1503POPC   PO421756   8.190  23.687   9.164
 1503POPC   GL121757   8.245  23.720   8.864
 1503POPC   GL221758   8.027  23.738   8.864
 1503POPC   C1A21759   8.154  23.748   8.564
 1503POPC   D2A21760   8.163  23.720   8.264
 1503POPC   C3A21761   8.174  23.703   7.964
 1503POPC   C4A21762   8.231  23.761   7.664
 1503POPC   C1B21763   7.970  23.789   8.564
 1503POPC   C2B21764   7.969  23.723   8.264
 1503POPC   C3B21765   7.930  23.701   7.964
 1503POPC   C4B21766   7.963  23.770   7.664
 1504POPC   NC321767  21.398   3.550   9.464
 1504POPC   PO421768  21.353   3.530   9.164
 1504POPC   GL121769  21.343   3.567   8.864
 1504POPC   GL221770  21.297   3.460   8.864
 1504POPC   C1A21771  21.339   3.553   8.564
 1504POPC   D2A21772  21.399   3.554   8.264
 1504POPC   C3A21773  21.384   3.537   7.964
 1504POPC   C4A21774  21.380   3.502   7.664
 1504POPC   C1B21775  21.233   3.429   8.564
 1504POPC   C2B21776  21.183   3.368   8.264
 1504POPC   C3B21777  21.149   3.439   7.964
 1504POPC   C4B21778  21.153   3.375   7.664
 1505POPC   NC321779   8.951  28.349   9.464
 1505POPC   PO421780   8.936  28.347   9.164
 1505POPC   GL121781   8.976  28.377   8.864
 1505POPC   GL221782   9.047  28.288   8.864
 1505POPC   C1A21783   8.984  28.326   8.564
 1505POPC   D2A21784   8.936  28.362   8.264
 1505POPC   C3A21785   8.965  28.327   7.964
 1505POPC   C4A21786   8.974  28.387   7.664
 1505POPC   C1B21787   9.104  28.179   8.564
 1505POPC   C2B21788   9.112  28.138   8.264
 1505POPC   C3B21789   9.093  28.117   7.964
 1505POPC   C4B21790   9.092  28.165   7.664
 1506POPC   NC321791  33.796   8.152   9.464
 1506POPC   PO421792  33.818   8.213   9.164
 1506POPC   GL121793  33.768   8.181   8.864
 1506POPC   GL221794  33.655   8.215   8.864
 1506POPC   C1A21795  33.827   8.236   8.564
 1506POPC   D2A21796  33.834   8.216   8.264
 1506POPC   C3A21797  33.781   8.243   7.964
 1506POPC   C4A21798  33.796   8.182   7.664
 1506POPC   C1B21799  33.542   8.179   8.564
 1506POPC   C2B21800  33.541   8.167   8.264
 1506POPC   C3B21801  33.578   8.153   7.964
 1506POPC   C4B21802  33.559   8.149   7.664
 1507POPC   NC321803  29.158  43.922   9.464
 1507POPC   PO421804  29.169  43.882   9.164
 1507POPC   GL121805  29.124  43.881   8.864
 1507POPC   GL221806  29.211  43.970   8.864
 1507POPC   C1A21807  29.191  43.837   8.564
 1507POPC   D2A21808  29.137  43.854   8.264
 1507POPC   C3A21809  29.192  43.933   7.964
 1507POPC   C4A21810  29.115  43.915   7.664
 1507POPC   C1B21811  29.156  44.103   8.564
 1507POPC   C2B21812  29.245  44.114   8.264
 1507POPC   C3B21813  29.147  44.146   7.964
 1507POPC   C4B21814  29.215  44.115   7.664
 1508POPC   NC321815  38.444  39.251   9.464
 1508POPC   PO421816  38.493  39.240   9.164
 1508POPC   GL121817  38.417  39.185   8.864
 1508POPC   GL221818  38.539  39.103   8.864
 1508POPC   C1A21819  38.480  39.236   8.564
 1508POPC   D2A21820  38.461  39.211   8.264
 1508POPC   C3A21821  38.504  39.247   7.964
 1508POPC   C4A21822  38.477  39.233   7.664
 1508POPC   C1B21823  38.637  38.996   8.564
 1508POPC   C2B21824  38.651  39.053   8.264
 1508POPC   C3B21825  38.645  39.032   7.964
 1508POPC   C4B21826  38.629  39.035   7.664
 1509POPC   NC321827  12.114   6.624   9.464
 1509POPC   PO421828  12.100   6.668   9.164
 1509POPC   GL121829  12.121   6.612   8.864
 1509POPC   GL221830  12.036   6.511   8.864
 1509POPC   C1A21831  12.072   6.636   8.564
 1509POPC   D2A21832  12.095   6.646   8.264
 1509POPC   C3A21833  12.093   6.640   7.964
 1509POPC   C4A21834  12.110   6.620   7.664
 1509POPC   C1B21835  11.992   6.409   8.564
 1509POPC   C2B21836  12.015   6.435   8.264
 1509POPC   C3B21837  12.022   6.388   7.964
 1509POPC   C4B21838  11.977   6.375   7.664
 1510POPC   NC321839  33.049   8.193   9.464
 1510POPC   PO421840  33.012   8.237   9.164
 1510POPC   GL121841  33.020   8.149   8.864
 1510POPC   GL221842  33.153   8.189   8.864
 1510POPC   C1A21843  32.995   8.230   8.564
 1510POPC   D2A21844  33.014   8.223   8.264
 1510POPC   C3A21845  33.064   8.198   7.964
 1510POPC   C4A21846  32.991   8.227   7.664
 1510POPC   C1B21847  33.298   8.185   8.564
 1510POPC   C2B21848  33.241   8.190   8.264
 1510POPC   C3B21849  33.267   8.159   7.964
 1510POPC   C4B21850  33.260   8.125   7.664
 1511POPC   NC321851  10.574  11.303   9.464
 1511POPC   PO421852  10.573  11.278   9.164
 1511POPC   GL121853  10.546  11.349   8.864
 1511POPC   GL221854  10.628  11.364   8.864
 1511POPC   C1A21855  10.551  11.256   8.564
 1511POPC   D2A21856  10.478  11.332   8.264
 1511POPC   C3A21857  10.527  11.336   7.964
 1511POPC   C4A21858  10.481  11.275   7.664
 1511POPC   C1B21859  10.685  11.560   8.564
 1511POPC   C2B21860  10.686  11.492   8.264
 1511POPC   C3B21861  10.613  11.474   7.964
 1511POPC   C4B21862  10.663  11.534   7.664
 1512POPC   NC321863  12.805  38.464   9.464
 1512POPC   PO421864  12.824  38.439   9.164
 1512POPC   GL121865  12.889  38.496   8.864
 1512POPC   GL221866  12.812  38.338   8.864
 1512POPC   C1A21867  12.893  38.449   8.564
 1512POPC   D2A21868  12.834  38.442   8.264
 1512POPC   C3A21869  12.821  38.503   7.964
 1512POPC   C4A21870  12.901  38.423   7.664
 1512POPC   C1B21871  12.656  38.272   8.564
 1512POPC   C2B21872  12.723  38.294   8.264
 1512POPC   C3B21873  12.661  38.275   7.964
 1512POPC   C4B21874  12.705  38.268   7.664
 1513POPC   NC321875  26.807  31.438   9.464
 1513POPC   PO421876  26.842  31.484   9.164
 1513POPC   GL121877  26.800  31.465   8.864
 1513POPC   GL221878  26.819  31.639   8.864
 1513POPC   C1A21879  26.830  31.479   8.564
 1513POPC   D2A21880  26.813  31.473   8.264
 1513POPC   C3A21881  26.821  31.469   7.964
 1513POPC   C4A21882  26.770  31.425   7.664
 1513POPC   C1B21883  26.856  31.737   8.564
 1513POPC   C2B21884  26.866  31.670   8.264
 1513POPC   C3B21885  26.895  31.702   7.964
 1513POPC   C4B21886  26.865  31.696   7.664
 1514POPC   NC321887   5.860  29.970   9.464
 1514POPC   PO421888   5.827  29.914   9.164
 1514POPC   GL121889   5.847  29.942   8.864
 1514POPC   GL221890   5.871  30.033   8.864
 1514POPC   C1A21891   5.869  29.892   8.564
 1514POPC   D2A21892   5.899  29.934   8.264
 1514POPC   C3A21893   5.830  29.922   7.964
 1514POPC   C4A21894   5.833  29.954   7.664
 1514POPC   C1B21895   5.966  30.208   8.564
 1514POPC   C2B21896   5.931  30.204   8.264
 1514POPC   C3B21897   5.900  30.210   7.964
 1514POPC   C4B21898   5.954  30.169   7.664
 1515POPC   NC321899   9.006  12.803   9.464
 1515POPC   PO421900   9.011  12.859   9.164
 1515POPC   GL121901   8.931  12.848   8.864
 1515POPC   GL221902   9.049  12.961   8.864
 1515POPC   C1A21903   8.936  12.813   8.564
 1515POPC   D2A21904   8.941  12.899   8.264
 1515POPC   C3A21905   8.925  12.894   7.964
 1515POPC   C4A21906   8.952  12.845   7.664
 1515POPC   C1B21907   9.038  13.049   8.564
 1515POPC   C2B21908   9.063  13.046   8.264
 1515POPC   C3B21909   9.074  13.062   7.964
 1515POPC   C4B21910   9.074  13.075   7.664
 1516POPC   NC321911  24.463  20.614   9.464
 1516POPC   PO421912  24.526  20.658   9.164
 1516POPC   GL121913  24.523  20.573   8.864
 1516POPC   GL221914  24.624  20.664   8.864
 1516POPC   C1A21915  24.514  20.626   8.564
 1516POPC   D2A21916  24.535  20.583   8.264
 1516POPC   C3A21917  24.496  20.659   7.964
 1516POPC   C4A21918  24.496  20.649   7.664
 1516POPC   C1B21919  24.759  20.640   8.564
 1516POPC   C2B21920  24.689  20.626   8.264
 1516POPC   C3B21921  24.784  20.642   7.964
 1516POPC   C4B21922  24.782  20.576   7.664
 1517POPC   NC321923   8.926  40.054   9.464
 1517POPC   PO421924   8.954  40.030   9.164
 1517POPC   GL121925   9.008  40.036   8.864
 1517POPC   GL221926   8.896  39.955   8.864
 1517POPC   C1A21927   9.010  39.967   8.564
 1517POPC   D2A21928   8.958  39.974   8.264
 1517POPC   C3A21929   8.927  40.023   7.964
 1517POPC   C4A21930   8.987  40.023   7.664
 1517POPC   C1B21931   8.772  39.919   8.564
 1517POPC   C2B21932   8.778  39.857   8.264
 1517POPC   C3B21933   8.719  39.864   7.964
 1517POPC   C4B21934   8.756  39.891   7.664
 1518POPC   NC321935  42.331   9.700   9.464
 1518POPC   PO421936  42.322   9.797   9.164
 1518POPC   GL121937  42.329   9.751   8.864
 1518POPC   GL221938  42.260   9.760   8.864
 1518POPC   C1A21939  42.374   9.794   8.564
 1518POPC   D2A21940  42.340   9.714   8.264
 1518POPC   C3A21941  42.310   9.747   7.964
 1518POPC   C4A21942  42.369   9.769   7.664
 1518POPC   C1B21943  42.059   9.858   8.564
 1518POPC   C2B21944  42.060   9.855   8.264
 1518POPC   C3B21945  42.102   9.874   7.964
 1518POPC   C4B21946  42.154   9.905   7.664
 1519POPC   NC321947  31.436  44.661   9.464
 1519POPC   PO421948  31.493  44.659   9.164
 1519POPC   GL121949  31.426  44.628   8.864
 1519POPC   GL221950  31.407  44.561   8.864
 1519POPC   C1A21951  31.436  44.709   8.564
 1519POPC   D2A21952  31.502  44.703   8.264
 1519POPC   C3A21953  31.515  44.635   7.964
 1519POPC   C4A21954  31.519  44.682   7.664
 1519POPC   C1B21955  31.373  44.480   8.564
 1519POPC   C2B21956  31.391  44.429   8.264
 1519POPC   C3B21957  31.324  44.488   7.964
 1519POPC   C4B21958  31.347  44.481   7.664
 1520POPC   NC321959  40.044  29.894   9.464
 1520POPC   PO421960  39.970  29.934   9.164
 1520POPC   GL121961  39.990  29.927   8.864
 1520POPC   GL221962  40.154  29.880   8.864
 1520POPC   C1A21963  40.052  29.941   8.564
 1520POPC   D2A21964  39.970  29.896   8.264
 1520POPC   C3A21965  39.985  29.968   7.964
 1520POPC   C4A21966  39.998  29.877   7.664
 1520POPC   C1B21967  40.239  29.887   8.564
 1520POPC   C2B21968  40.253  29.892   8.264
 1520POPC   C3B21969  40.299  29.969   7.964
 1520POPC   C4B21970  40.212  29.937   7.664
 1521POPC   NC321971  33.781  26.839   9.464
 1521POPC   PO421972  33.756  26.805   9.164
 1521POPC   GL121973  33.762  26.821   8.864
 1521POPC   GL221974  33.847  26.954   8.864
 1521POPC   C1A21975  33.771  26.811   8.564
 1521POPC   D2A21976  33.750  26.806   8.264
 1521POPC   C3A21977  33.754  26.768   7.964
 1521POPC   C4A21978  33.792  26.831   7.664
 1521POPC   C1B21979  33.928  26.956   8.564
 1521POPC   C2B21980  33.985  26.977   8.264
 1521POPC   C3B21981  33.956  26.964   7.964
 1521POPC   C4B21982  33.957  26.980   7.664
 1522POPC   NC321983   3.586  35.389   9.464
 1522POPC   PO421984   3.578  35.306   9.164
 1522POPC   GL121985   3.532  35.331   8.864
 1522POPC   GL221986   3.626  35.305   8.864
 1522POPC   C1A21987   3.551  35.370   8.564
 1522POPC   D2A21988   3.537  35.386   8.264
 1522POPC   C3A21989   3.505  35.335   7.964
 1522POPC   C4A21990   3.565  35.336   7.664
 1522POPC   C1B21991   3.740  35.203   8.564
 1522POPC   C2B21992   3.763  35.171   8.264
 1522POPC   C3B21993   3.759  35.182   7.964
 1522POPC   C4B21994   3.698  35.243   7.664
 1523POPC   NC321995   1.198  44.652   9.464
 1523POPC   PO421996   1.258  44.673   9.164
 1523POPC   GL121997   1.168  44.698   8.864
 1523POPC   GL221998   1.261  44.806   8.864
 1523POPC   C1A21999   1.166  44.647   8.564
 1523POPC   D2A22000   1.228  44.638   8.264
 1523POPC   C3A22001   1.185  44.697   7.964
 1523POPC   C4A22002   1.216  44.633   7.664
 1523POPC   C1B22003   1.225  44.902   8.564
 1523POPC   C2B22004   1.233  44.908   8.264
 1523POPC   C3B22005   1.165  44.924   7.964
 1523POPC   C4B22006   1.230  44.944   7.664
 1524POPC   NC322007  28.418  40.011   9.464
 1524POPC   PO422008  28.411  39.973   9.164
 1524POPC   GL122009  28.329  39.989   8.864
 1524POPC   GL222010  28.297  39.994   8.864
 1524POPC   C1A22011  28.322  40.008   8.564
 1524POPC   D2A22012  28.352  40.044   8.264
 1524POPC   C3A22013  28.403  40.037   7.964
 1524POPC   C4A22014  28.358  39.982   7.664
 1524POPC   C1B22015  28.131  39.922   8.564
 1524POPC   C2B22016  28.175  39.888   8.264
 1524POPC   C3B22017  28.141  39.927   7.964
 1524POPC   C4B22018  28.135  39.926   7.664
 1525POPC   NC322019  19.864  29.914   9.464
 1525POPC   PO422020  19.789  29.894   9.164
 1525POPC   GL122021  19.847  29.873   8.864
 1525POPC   GL222022  19.844  30.062   8.864
 1525POPC   C1A22023  19.881  29.925   8.564
 1525POPC   D2A22024  19.860  29.897   8.264
 1525POPC   C3A22025  19.844  29.925   7.964
 1525POPC   C4A22026  19.833  29.913   7.664
 1525POPC   C1B22027  19.935  30.114   8.564
 1525POPC   C2B22028  19.889  30.135   8.264
 1525POPC   C3B22029  19.941  30.122   7.964
 1525POPC   C4B22030  19.977  30.136   7.664
 1526POPC   NC322031  30.732   5.086   9.464
 1526POPC   PO422032  30.732   5.077   9.164
 1526POPC   GL122033  30.728   5.065   8.864
 1526POPC   GL222034  30.704   5.014   8.864
 1526POPC   C1A22035  30.722   5.049   8.564
 1526POPC   D2A22036  30.711   5.141   8.264
 1526POPC   C3A22037  30.668   5.141   7.964
 1526POPC   C4A22038  30.658   5.067   7.664
 1526POPC   C1B22039  30.597   4.817   8.564
 1526POPC   C2B22040  30.650   4.837   8.264
 1526POPC   C3B22041  30.607   4.859   7.964
 1526POPC   C4B22042  30.599   4.838   7.664
 1527POPC   NC322043   5.901  19.804   9.464
 1527POPC   PO422044   5.843  19.796   9.164
 1527POPC   GL122045   5.873  19.851   8.864
 1527POPC   GL222046   5.778  19.698   8.864
 1527POPC   C1A22047   5.825  19.822   8.564
 1527POPC   D2A22048   5.884  19.858   8.264
 1527POPC   C3A22049   5.884  19.852   7.964
 1527POPC   C4A22050   5.877  19.802   7.664
 1527POPC   C1B22051   5.716  19.657   8.564
 1527POPC   C2B22052   5.733  19.600   8.264
 1527POPC   C3B22053   5.742  19.641   7.964
 1527POPC   C4B22054   5.793  19.642   7.664
 1528POPC   NC322055  29.194   1.979   9.464
 1528POPC   PO422056  29.100   2.009   9.164
 1528POPC   GL122057  29.189   2.036   8.864
 1528POPC   GL222058  29.179   2.129   8.864
 1528POPC   C1A22059  29.149   1.996   8.564
 1528POPC   D2A22060  29.139   1.945   8.264
 1528POPC   C3A22061  29.130   2.028   7.964
 1528POPC   C4A22062  29.099   1.978   7.664
 1528POPC   C1B22063  29.235   2.221   8.564
 1528POPC   C2B22064  29.282   2.266   8.264
 1528POPC   C3B22065  29.230   2.253   7.964
 1528POPC   C4B22066  29.280   2.261   7.664
 1529POPC   NC322067  44.703  10.479   9.464
 1529POPC   PO422068  44.682  10.525   9.164
 1529POPC   GL122069  44.669  10.560   8.864
 1529POPC   GL222070  44.779  10.565   8.864
 1529POPC   C1A22071  44.638  10.571   8.564
 1529POPC   D2A22072  44.627  10.573   8.264
 1529POPC   C3A22073  44.675  10.565   7.964
 1529POPC   C4A22074  44.709  10.513   7.664
 1529POPC   C1B22075  44.836  10.676   8.564
 1529POPC   C2B22076  44.876  10.607   8.264
 1529POPC   C3B22077  44.880  10.645   7.964
 1529POPC   C4B22078  44.860  10.642   7.664
 1530POPC   NC322079  33.043   5.835   9.464
 1530POPC   PO422080  33.069   5.884   9.164
 1530POPC   GL122081  32.990   5.904   8.864
 1530POPC   GL222082  32.952   5.757   8.864
 1530POPC   C1A22083  33.023   5.897   8.564
 1530POPC   D2A22084  33.072   5.874   8.264
 1530POPC   C3A22085  32.980   5.893   7.964
 1530POPC   C4A22086  32.997   5.910   7.664
 1530POPC   C1B22087  32.952   5.608   8.564
 1530POPC   C2B22088  33.021   5.629   8.264
 1530POPC   C3B22089  33.020   5.601   7.964
 1530POPC   C4B22090  32.977   5.607   7.664
 1531POPC   NC322091   1.231  28.379   9.464
 1531POPC   PO422092   1.193  28.375   9.164
 1531POPC   GL122093   1.239  28.409   8.864
 1531POPC   GL222094   1.135  28.283   8.864
 1531POPC   C1A22095   1.220  28.345   8.564
 1531POPC   D2A22096   1.230  28.334   8.264
 1531POPC   C3A22097   1.193  28.401   7.964
 1531POPC   C4A22098   1.240  28.322   7.664
 1531POPC   C1B22099   1.082  28.107   8.564
 1531POPC   C2B22100   1.091  28.097   8.264
 1531POPC   C3B22101   1.142  28.180   7.964
 1531POPC   C4B22102   1.131  28.088   7.664
 1532POPC   NC322103  27.549   5.102   9.464
 1532POPC   PO422104  27.599   5.093   9.164
 1532POPC   GL122105  27.633   5.131   8.864
 1532POPC   GL222106  27.655   4.962   8.864
 1532POPC   C1A22107  27.599   5.061   8.564
 1532POPC   D2A22108  27.629   5.073   8.264
 1532POPC   C3A22109  27.577   5.111   7.964
 1532POPC   C4A22110  27.596   5.135   7.664
 1532POPC   C1B22111  27.737   4.899   8.564
 1532POPC   C2B22112  27.785   4.973   8.264
 1532POPC   C3B22113  27.819   4.916   7.964
 1532POPC   C4B22114  27.805   4.942   7.664
 1533POPC   NC322115  33.803   4.289   9.464
 1533POPC   PO422116  33.792   4.365   9.164
 1533POPC   GL122117  33.806   4.298   8.864
 1533POPC   GL222118  33.955   4.318   8.864
 1533POPC   C1A22119  33.821   4.353   8.564
 1533POPC   D2A22120  33.791   4.341   8.264
 1533POPC   C3A22121  33.762   4.363   7.964
 1533POPC   C4A22122  33.816   4.363   7.664
 1533POPC   C1B22123  34.022   4.335   8.564
 1533POPC   C2B22124  34.092   4.347   8.264
 1533POPC   C3B22125  34.027   4.301   7.964
 1533POPC   C4B22126  34.037   4.337   7.664
 1534POPC   NC322127  12.804   9.019   9.464
 1534POPC   PO422128  12.850   8.960   9.164
 1534POPC   GL122129  12.874   8.943   8.864
 1534POPC   GL222130  13.000   9.001   8.864
 1534POPC   C1A22131  12.807   9.014   8.564
 1534POPC   D2A22132  12.828   8.935   8.264
 1534POPC   C3A22133  12.879   8.967   7.964
 1534POPC   C4A22134  12.857   8.986   7.664
 1534POPC   C1B22135  13.095   9.071   8.564
 1534POPC   C2B22136  13.116   9.093   8.264
 1534POPC   C3B22137  13.100   9.127   7.964
 1534POPC   C4B22138  13.080   9.081   7.664
 1535POPC   NC322139   0.444  19.037   9.464
 1535POPC   PO422140   0.486  19.016   9.164
 1535POPC   GL122141   0.428  19.047   8.864
 1535POPC   GL222142   0.408  18.968   8.864
 1535POPC   C1A22143   0.443  19.059   8.564
 1535POPC   D2A22144   0.477  19.055   8.264
 1535POPC   C3A22145   0.459  19.057   7.964
 1535POPC   C4A22146   0.479  19.045   7.664
 1535POPC   C1B22147   0.377  18.836   8.564
 1535POPC   C2B22148   0.402  18.843   8.264
 1535POPC   C3B22149   0.361  18.810   7.964
 1535POPC   C4B22150   0.420  18.790   7.664
 1536POPC   NC322151   2.017  26.063   9.464
 1536POPC   PO422152   2.016  26.018   9.164
 1536POPC   GL122153   1.995  25.995   8.864
 1536POPC   GL222154   1.961  26.190   8.864
 1536POPC   C1A22155   2.011  26.020   8.564
 1536POPC   D2A22156   1.980  26.051   8.264
 1536POPC   C3A22157   1.947  25.996   7.964
 1536POPC   C4A22158   1.975  26.078   7.664
 1536POPC   C1B22159   1.955  26.291   8.564
 1536POPC   C2B22160   2.014  26.322   8.264
 1536POPC   C3B22161   2.004  26.284   7.964
 1536POPC   C4B22162   2.001  26.329   7.664
 1537POPC   NC322163  28.326  44.657   9.464
 1537POPC   PO422164  28.409  44.667   9.164
 1537POPC   GL122165  28.357  44.630   8.864
 1537POPC   GL222166  28.495  44.632   8.864
 1537POPC   C1A22167  28.358  44.655   8.564
 1537POPC   D2A22168  28.418  44.635   8.264
 1537POPC   C3A22169  28.377  44.633   7.964
 1537POPC   C4A22170  28.349  44.658   7.664
 1537POPC   C1B22171  28.600  44.675   8.564
 1537POPC   C2B22172  28.660  44.716   8.264
 1537POPC   C3B22173  28.632  44.661   7.964
 1537POPC   C4B22174  28.655  44.738   7.664
 1538POPC   NC322175  16.690  20.591   9.464
 1538POPC   PO422176  16.714  20.586   9.164
 1538POPC   GL122177  16.703  20.616   8.864
 1538POPC   GL222178  16.712  20.526   8.864
 1538POPC   C1A22179  16.713  20.656   8.564
 1538POPC   D2A22180  16.754  20.563   8.264
 1538POPC   C3A22181  16.737  20.583   7.964
 1538POPC   C4A22182  16.689  20.589   7.664
 1538POPC   C1B22183  16.665  20.313   8.564
 1538POPC   C2B22184  16.664  20.394   8.264
 1538POPC   C3B22185  16.730  20.370   7.964
 1538POPC   C4B22186  16.659  20.373   7.664
 1539POPC   NC322187  27.574  39.246   9.464
 1539POPC   PO422188  27.643  39.199   9.164
 1539POPC   GL122189  27.610  39.221   8.864
 1539POPC   GL222190  27.444  39.205   8.864
 1539POPC   C1A22191  27.585  39.276   8.564
 1539POPC   D2A22192  27.628  39.256   8.264
 1539POPC   C3A22193  27.608  39.233   7.964
 1539POPC   C4A22194  27.610  39.215   7.664
 1539POPC   C1B22195  27.369  39.233   8.564
 1539POPC   C2B22196  27.312  39.317   8.264
 1539POPC   C3B22197  27.332  39.276   7.964
 1539POPC   C4B22198  27.325  39.230   7.664
 1540POPC   NC322199  38.451  33.017   9.464
 1540POPC   PO422200  38.501  33.038   9.164
 1540POPC   GL122201  38.407  33.058   8.864
 1540POPC   GL222202  38.554  33.024   8.864
 1540POPC   C1A22203  38.412  33.003   8.564
 1540POPC   D2A22204  38.466  33.036   8.264
 1540POPC   C3A22205  38.448  33.048   7.964
 1540POPC   C4A22206  38.437  32.985   7.664
 1540POPC   C1B22207  38.745  33.088   8.564
 1540POPC   C2B22208  38.682  33.089   8.264
 1540POPC   C3B22209  38.711  33.121   7.964
 1540POPC   C4B22210  38.681  33.096   7.664
 1541POPC   NC322211  23.714  44.663   9.464
 1541POPC   PO422212  23.744  44.656   9.164
 1541POPC   GL122213  23.747  44.652   8.864
 1541POPC   GL222214  23.866  44.711   8.864
 1541POPC   C1A22215  23.698  44.679   8.564
 1541POPC   D2A22216  23.752  44.674   8.264
 1541POPC   C3A22217  23.664  44.652   7.964
 1541POPC   C4A22218  23.678  44.667   7.664
 1541POPC   C1B22219  23.920  44.682   8.564
 1541POPC   C2B22220  23.991  44.748   8.264
 1541POPC   C3B22221  23.998  44.748   7.964
 1541POPC   C4B22222  24.006  44.667   7.664
 1542POPC   NC322223  31.510  11.271   9.464
 1542POPC   PO422224  31.504  11.285   9.164
 1542POPC   GL122225  31.433  11.296   8.864
 1542POPC   GL222226  31.497  11.399   8.864
 1542POPC   C1A22227  31.513  11.345   8.564
 1542POPC   D2A22228  31.424  11.263   8.264
 1542POPC   C3A22229  31.423  11.320   7.964
 1542POPC   C4A22230  31.430  11.282   7.664
 1542POPC   C1B22231  31.463  11.511   8.564
 1542POPC   C2B22232  31.442  11.533   8.264
 1542POPC   C3B22233  31.484  11.582   7.964
 1542POPC   C4B22234  31.466  11.550   7.664
 1543POPC   NC322235  20.619  22.126   9.464
 1543POPC   PO422236  20.641  22.191   9.164
 1543POPC   GL122237  20.651  22.179   8.864
 1543POPC   GL222238  20.528  22.270   8.864
 1543POPC   C1A22239  20.567  22.182   8.564
 1543POPC   D2A22240  20.592  22.176   8.264
 1543POPC   C3A22241  20.620  22.161   7.964
 1543POPC   C4A22242  20.652  22.148   7.664
 1543POPC   C1B22243  20.469  22.354   8.564
 1543POPC   C2B22244  20.455  22.417   8.264
 1543POPC   C3B22245  20.479  22.381   7.964
 1543POPC   C4B22246  20.493  22.417   7.664
 1544POPC   NC322247   1.229  17.553   9.464
 1544POPC   PO422248   1.236  17.514   9.164
 1544POPC   GL122249   1.182  17.521   8.864
 1544POPC   GL222250   1.266  17.643   8.864
 1544POPC   C1A22251   1.260  17.510   8.564
 1544POPC   D2A22252   1.218  17.485   8.264
 1544POPC   C3A22253   1.209  17.532   7.964
 1544POPC   C4A22254   1.166  17.469   7.664
 1544POPC   C1B22255   1.259  17.711   8.564
 1544POPC   C2B22256   1.241  17.727   8.264
 1544POPC   C3B22257   1.248  17.737   7.964
 1544POPC   C4B22258   1.196  17.781   7.664
 1545POPC   NC322259   9.720   6.603   9.464
 1545POPC   PO422260   9.788   6.603   9.164
 1545POPC   GL122261   9.705   6.664   8.864
 1545POPC   GL222262   9.737   6.477   8.864
 1545POPC   C1A22263   9.772   6.681   8.564
 1545POPC   D2A22264   9.731   6.667   8.264
 1545POPC   C3A22265   9.784   6.692   7.964
 1545POPC   C4A22266   9.795   6.634   7.664
 1545POPC   C1B22267   9.663   6.359   8.564
 1545POPC   C2B22268   9.729   6.398   8.264
 1545POPC   C3B22269   9.729   6.412   7.964
 1545POPC   C4B22270   9.710   6.426   7.664
 1546POPC   NC322271  26.047  35.370   9.464
 1546POPC   PO422272  25.992  35.357   9.164
 1546POPC   GL122273  26.022  35.400   8.864
 1546POPC   GL222274  26.050  35.198   8.864
 1546POPC   C1A22275  25.993  35.384   8.564
 1546POPC   D2A22276  26.091  35.377   8.264
 1546POPC   C3A22277  26.057  35.348   7.964
 1546POPC   C4A22278  26.017  35.370   7.664
 1546POPC   C1B22279  26.151  35.120   8.564
 1546POPC   C2B22280  26.153  35.158   8.264
 1546POPC   C3B22281  26.097  35.077   7.964
 1546POPC   C4B22282  26.102  35.116   7.664
 1547POPC   NC322283  11.325  33.006   9.464
 1547POPC   PO422284  11.257  32.980   9.164
 1547POPC   GL122285  11.312  33.014   8.864
 1547POPC   GL222286  11.466  33.043   8.864
 1547POPC   C1A22287  11.272  33.013   8.564
 1547POPC   D2A22288  11.298  33.031   8.264
 1547POPC   C3A22289  11.283  33.016   7.964
 1547POPC   C4A22290  11.331  33.062   7.664
 1547POPC   C1B22291  11.577  33.024   8.564
 1547POPC   C2B22292  11.588  33.004   8.264
 1547POPC   C3B22293  11.586  33.015   7.964
 1547POPC   C4B22294  11.550  32.969   7.664
 1548POPC   NC322295  22.116  29.951   9.464
 1548POPC   PO422296  22.121  29.951   9.164
 1548POPC   GL122297  22.194  29.963   8.864
 1548POPC   GL222298  22.189  29.819   8.864
 1548POPC   C1A22299  22.173  29.927   8.564
 1548POPC   D2A22300  22.161  29.871   8.264
 1548POPC   C3A22301  22.159  29.924   7.964
 1548POPC   C4A22302  22.132  29.936   7.664
 1548POPC   C1B22303  22.205  29.683   8.564
 1548POPC   C2B22304  22.238  29.697   8.264
 1548POPC   C3B22305  22.201  29.730   7.964
 1548POPC   C4B22306  22.218  29.636   7.664
 1549POPC   NC322307   2.776  29.152   9.464
 1549POPC   PO422308   2.810  29.111   9.164
 1549POPC   GL122309   2.801  29.112   8.864
 1549POPC   GL222310   2.648  29.231   8.864
 1549POPC   C1A22311   2.808  29.178   8.564
 1549POPC   D2A22312   2.751  29.141   8.264
 1549POPC   C3A22313   2.740  29.194   7.964
 1549POPC   C4A22314   2.782  29.141   7.664
 1549POPC   C1B22315   2.556  29.286   8.564
 1549POPC   C2B22316   2.627  29.347   8.264
 1549POPC   C3B22317   2.584  29.312   7.964
 1549POPC   C4B22318   2.617  29.348   7.664
 1550POPC   NC322319  14.379  10.509   9.464
 1550POPC   PO422320  14.434  10.525   9.164
 1550POPC   GL122321  14.384  10.561   8.864
 1550POPC   GL222322  14.289  10.597   8.864
 1550POPC   C1A22323  14.385  10.493   8.564
 1550POPC   D2A22324  14.430  10.508   8.264
 1550POPC   C3A22325  14.362  10.490   7.964
 1550POPC   C4A22326  14.416  10.520   7.664
 1550POPC   C1B22327  14.183  10.646   8.564
 1550POPC   C2B22328  14.251  10.673   8.264
 1550POPC   C3B22329  14.231  10.681   7.964
 1550POPC   C4B22330  14.221  10.643   7.664
 1551POPC   NC322331  17.487   8.236   9.464
 1551POPC   PO422332  17.466   8.245   9.164
 1551POPC   GL122333  17.491   8.209   8.864
 1551POPC   GL222334  17.534   8.328   8.864
 1551POPC   C1A22335  17.471   8.190   8.564
 1551POPC   D2A22336  17.525   8.209   8.264
 1551POPC   C3A22337  17.506   8.205   7.964
 1551POPC   C4A22338  17.457   8.216   7.664
 1551POPC   C1B22339  17.550   8.412   8.564
 1551POPC   C2B22340  17.493   8.456   8.264
 1551POPC   C3B22341  17.500   8.468   7.964
 1551POPC   C4B22342  17.523   8.446   7.664
 1552POPC   NC322343  33.006  22.929   9.464
 1552POPC   PO422344  33.004  22.893   9.164
 1552POPC   GL122345  33.055  22.941   8.864
 1552POPC   GL222346  33.048  23.070   8.864
 1552POPC   C1A22347  33.051  22.894   8.564
 1552POPC   D2A22348  33.044  22.985   8.264
 1552POPC   C3A22349  33.040  22.903   7.964
 1552POPC   C4A22350  33.002  22.940   7.664
 1552POPC   C1B22351  32.940  23.169   8.564
 1552POPC   C2B22352  32.972  23.135   8.264
 1552POPC   C3B22353  32.937  23.189   7.964
 1552POPC   C4B22354  32.963  23.215   7.664
 1553POPC   NC322355   5.902  10.522   9.464
 1553POPC   PO422356   5.863  10.528   9.164
 1553POPC   GL122357   5.881  10.523   8.864
 1553POPC   GL222358   5.824  10.374   8.864
 1553POPC   C1A22359   5.857  10.542   8.564
 1553POPC   D2A22360   5.885  10.503   8.264
 1553POPC   C3A22361   5.829  10.488   7.964
 1553POPC   C4A22362   5.893  10.500   7.664
 1553POPC   C1B22363   5.832  10.309   8.564
 1553POPC   C2B22364   5.811  10.321   8.264
 1553POPC   C3B22365   5.894  10.317   7.964
 1553POPC   C4B22366   5.860  10.273   7.664
 1554POPC   NC322367  36.143  32.244   9.464
 1554POPC   PO422368  36.098  32.249   9.164
 1554POPC   GL122369  36.083  32.212   8.864
 1554POPC   GL222370  36.236  32.141   8.864
 1554POPC   C1A22371  36.176  32.298   8.564
 1554POPC   D2A22372  36.116  32.230   8.264
 1554POPC   C3A22373  36.166  32.205   7.964
 1554POPC   C4A22374  36.123  32.285   7.664
 1554POPC   C1B22375  36.374  32.081   8.564
 1554POPC   C2B22376  36.319  32.138   8.264
 1554POPC   C3B22377  36.296  32.128   7.964
 1554POPC   C4B22378  36.349  32.104   7.664
 1555POPC   NC322379  29.163  18.298   9.464
 1555POPC   PO422380  29.112  18.247   9.164
 1555POPC   GL122381  29.172  18.302   8.864
 1555POPC   GL222382  29.185  18.148   8.864
 1555POPC   C1A22383  29.155  18.277   8.564
 1555POPC   D2A22384  29.175  18.302   8.264
 1555POPC   C3A22385  29.113  18.294   7.964
 1555POPC   C4A22386  29.125  18.309   7.664
 1555POPC   C1B22387  29.272  18.102   8.564
 1555POPC   C2B22388  29.311  18.121   8.264
 1555POPC   C3B22389  29.334  18.075   7.964
 1555POPC   C4B22390  29.278  18.084   7.664
 1556POPC   NC322391  41.592   1.188   9.464
 1556POPC   PO422392  41.603   1.178   9.164
 1556POPC   GL122393  41.538   1.219   8.864
 1556POPC   GL222394  41.627   1.356   8.864
 1556POPC   C1A22395  41.555   1.217   8.564
 1556POPC   D2A22396  41.510   1.217   8.264
 1556POPC   C3A22397  41.557   1.203   7.964
 1556POPC   C4A22398  41.567   1.186   7.664
 1556POPC   C1B22399  41.623   1.428   8.564
 1556POPC   C2B22400  41.627   1.431   8.264
 1556POPC   C3B22401  41.631   1.477   7.964
 1556POPC   C4B22402  41.678   1.456   7.664
 1557POPC   NC322403  15.211  32.998   9.464
 1557POPC   PO422404  15.218  33.037   9.164
 1557POPC   GL122405  15.131  33.015   8.864
 1557POPC   GL222406  15.252  32.957   8.864
 1557POPC   C1A22407  15.167  33.041   8.564
 1557POPC   D2A22408  15.211  33.018   8.264
 1557POPC   C3A22409  15.173  33.003   7.964
 1557POPC   C4A22410  15.169  33.036   7.664
 1557POPC   C1B22411  15.390  32.873   8.564
 1557POPC   C2B22412  15.394  32.941   8.264
 1557POPC   C3B22413  15.435  32.897   7.964
 1557POPC   C4B22414  15.359  32.927   7.664
 1558POPC   NC322415  30.648  39.987   9.464
 1558POPC   PO422416  30.665  39.962   9.164
 1558POPC   GL122417  30.739  39.995   8.864
 1558POPC   GL222418  30.742  40.123   8.864
 1558POPC   C1A22419  30.720  40.057   8.564
 1558POPC   D2A22420  30.712  40.028   8.264
 1558POPC   C3A22421  30.714  40.035   7.964
 1558POPC   C4A22422  30.735  40.033   7.664
 1558POPC   C1B22423  30.913  40.227   8.564
 1558POPC   C2B22424  30.890  40.189   8.264
 1558POPC   C3B22425  30.913  40.215   7.964
 1558POPC   C4B22426  30.871  40.163   7.664
 1559POPC   NC322427  15.968  22.123   9.464
 1559POPC   PO422428  16.000  22.139   9.164
 1559POPC   GL122429  15.938  22.169   8.864
 1559POPC   GL222430  15.898  22.226   8.864
 1559POPC   C1A22431  15.961  22.148   8.564
 1559POPC   D2A22432  15.913  22.142   8.264
 1559POPC   C3A22433  15.953  22.132   7.964
 1559POPC   C4A22434  15.938  22.160   7.664
 1559POPC   C1B22435  15.715  22.270   8.564
 1559POPC   C2B22436  15.742  22.293   8.264
 1559POPC   C3B22437  15.769  22.292   7.964
 1559POPC   C4B22438  15.783  22.269   7.664
 1560POPC   NC322439  43.136  13.616   9.464
 1560POPC   PO422440  43.070  13.597   9.164
 1560POPC   GL122441  43.126  13.644   8.864
 1560POPC   GL222442  43.021  13.723   8.864
 1560POPC   C1A22443  43.101  13.582   8.564
 1560POPC   D2A22444  43.146  13.608   8.264
 1560POPC   C3A22445  43.108  13.590   7.964
 1560POPC   C4A22446  43.098  13.660   7.664
 1560POPC   C1B22447  42.927  13.763   8.564
 1560POPC   C2B22448  42.885  13.769   8.264
 1560POPC   C3B22449  42.964  13.811   7.964
 1560POPC   C4B22450  42.913  13.790   7.664
 1561POPC   NC322451  38.447  40.010   9.464
 1561POPC   PO422452  38.444  40.033   9.164
 1561POPC   GL122453  38.442  39.998   8.864
 1561POPC   GL222454  38.448  39.835   8.864
 1561POPC   C1A22455  38.499  40.045   8.564
 1561POPC   D2A22456  38.423  40.027   8.264
 1561POPC   C3A22457  38.465  39.974   7.964
 1561POPC   C4A22458  38.483  40.036   7.664
 1561POPC   C1B22459  38.449  39.734   8.564
 1561POPC   C2B22460  38.469  39.776   8.264
 1561POPC   C3B22461  38.431  39.754   7.964
 1561POPC   C4B22462  38.430  39.785   7.664
 1562POPC   NC322463  22.901   8.939   9.464
 1562POPC   PO422464  22.901   9.011   9.164
 1562POPC   GL122465  22.944   8.962   8.864
 1562POPC   GL222466  23.101   8.965   8.864
 1562POPC   C1A22467  22.943   9.002   8.564
 1562POPC   D2A22468  22.915   8.972   8.264
 1562POPC   C3A22469  22.977   8.947   7.964
 1562POPC   C4A22470  22.921   8.972   7.664
 1562POPC   C1B22471  23.206   8.872   8.564
 1562POPC   C2B22472  23.174   8.839   8.264
 1562POPC   C3B22473  23.164   8.901   7.964
 1562POPC   C4B22474  23.217   8.900   7.664
 1563POPC   NC322475  34.590  19.855   9.464
 1563POPC   PO422476  34.591  19.821   9.164
 1563POPC   GL122477  34.546  19.841   8.864
 1563POPC   GL222478  34.611  20.006   8.864
 1563POPC   C1A22479  34.557  19.877   8.564
 1563POPC   D2A22480  34.545  19.799   8.264
 1563POPC   C3A22481  34.569  19.868   7.964
 1563POPC   C4A22482  34.550  19.863   7.664
 1563POPC   C1B22483  34.537  20.064   8.564
 1563POPC   C2B22484  34.539  20.046   8.264
 1563POPC   C3B22485  34.538  20.043   7.964
 1563POPC   C4B22486  34.562  20.119   7.664
 1564POPC   NC322487  43.935  37.679   9.464
 1564POPC   PO422488  43.885  37.673   9.164
 1564POPC   GL122489  43.880  37.680   8.864
 1564POPC   GL222490  43.905  37.594   8.864
 1564POPC   C1A22491  43.873  37.675   8.564
 1564POPC   D2A22492  43.880  37.676   8.264
 1564POPC   C3A22493  43.866  37.720   7.964
 1564POPC   C4A22494  43.872  37.685   7.664
 1564POPC   C1B22495  43.933  37.473   8.564
 1564POPC   C2B22496  43.910  37.456   8.264
 1564POPC   C3B22497  43.837  37.445   7.964
 1564POPC   C4B22498  43.926  37.382   7.664
 1565POPC   NC322499  32.216  27.562   9.464
 1565POPC   PO422500  32.246  27.595   9.164
 1565POPC   GL122501  32.282  27.567   8.864
 1565POPC   GL222502  32.120  27.503   8.864
 1565POPC   C1A22503  32.218  27.628   8.564
 1565POPC   D2A22504  32.250  27.576   8.264
 1565POPC   C3A22505  32.278  27.549   7.964
 1565POPC   C4A22506  32.200  27.602   7.664
 1565POPC   C1B22507  32.071  27.484   8.564
 1565POPC   C2B22508  32.038  27.422   8.264
 1565POPC   C3B22509  32.042  27.462   7.964
 1565POPC   C4B22510  32.070  27.479   7.664
 1566POPC   NC322511  11.286  36.158   9.464
 1566POPC   PO422512  11.287  36.094   9.164
 1566POPC   GL122513  11.283  36.116   8.864
 1566POPC   GL222514  11.410  35.979   8.864
 1566POPC   C1A22515  11.259  36.100   8.564
 1566POPC   D2A22516  11.287  36.159   8.264
 1566POPC   C3A22517  11.334  36.142   7.964
 1566POPC   C4A22518  11.254  36.165   7.664
 1566POPC   C1B22519  11.399  35.886   8.564
 1566POPC   C2B22520  11.443  35.906   8.264
 1566POPC   C3B22521  11.413  35.914   7.964
 1566POPC   C4B22522  11.432  35.948   7.664
 1567POPC   NC322523   9.767  26.040   9.464
 1567POPC   PO422524   9.748  26.090   9.164
 1567POPC   GL122525   9.759  26.070   8.864
 1567POPC   GL222526   9.831  26.018   8.864
 1567POPC   C1A22527   9.794  26.039   8.564
 1567POPC   D2A22528   9.751  26.018   8.264
 1567POPC   C3A22529   9.743  26.077   7.964
 1567POPC   C4A22530   9.732  26.012   7.664
 1567POPC   C1B22531   9.956  25.904   8.564
 1567POPC   C2B22532   9.978  25.899   8.264
 1567POPC   C3B22533   9.950  25.915   7.964
 1567POPC   C4B22534   9.982  25.920   7.664
 1568POPC   NC322535  21.354   5.052   9.464
 1568POPC   PO422536  21.400   5.054   9.164
 1568POPC   GL122537  21.371   5.130   8.864
 1568POPC   GL222538  21.314   5.160   8.864
 1568POPC   C1A22539  21.424   5.109   8.564
 1568POPC   D2A22540  21.410   5.121   8.264
 1568POPC   C3A22541  21.424   5.095   7.964
 1568POPC   C4A22542  21.367   5.137   7.664
 1568POPC   C1B22543  21.322   5.348   8.564
 1568POPC   C2B22544  21.294   5.326   8.264
 1568POPC   C3B22545  21.285   5.288   7.964
 1568POPC   C4B22546  21.262   5.302   7.664
 1569POPC   NC322547  25.253   7.462   9.464
 1569POPC   PO422548  25.267   7.413   9.164
 1569POPC   GL122549  25.299   7.453   8.864
 1569POPC   GL222550  25.319   7.327   8.864
 1569POPC   C1A22551  25.307   7.386   8.564
 1569POPC   D2A22552  25.295   7.371   8.264
 1569POPC   C3A22553  25.277   7.438   7.964
 1569POPC   C4A22554  25.266   7.385   7.664
 1569POPC   C1B22555  25.489   7.274   8.564
 1569POPC   C2B22556  25.440   7.298   8.264
 1569POPC   C3B22557  25.428   7.317   7.964
 1569POPC   C4B22558  25.513   7.287   7.664
 1570POPC   NC322559   8.969  26.837   9.464
 1570POPC   PO422560   8.982  26.863   9.164
 1570POPC   GL122561   8.947  26.814   8.864
 1570POPC   GL222562   9.040  26.895   8.864
 1570POPC   C1A22563   8.957  26.867   8.564
 1570POPC   D2A22564   8.940  26.788   8.264
 1570POPC   C3A22565   8.926  26.821   7.964
 1570POPC   C4A22566   8.938  26.789   7.664
 1570POPC   C1B22567   9.006  27.080   8.564
 1570POPC   C2B22568   9.017  27.080   8.264
 1570POPC   C3B22569   8.977  27.109   7.964
 1570POPC   C4B22570   9.046  27.045   7.664
 1571POPC   NC322571  38.441   5.046   9.464
 1571POPC   PO422572  38.472   5.095   9.164
 1571POPC   GL122573  38.426   5.066   8.864
 1571POPC   GL222574  38.459   5.264   8.864
 1571POPC   C1A22575  38.491   5.073   8.564
 1571POPC   D2A22576  38.473   5.076   8.264
 1571POPC   C3A22577  38.463   5.107   7.964
 1571POPC   C4A22578  38.417   5.060   7.664
 1571POPC   C1B22579  38.414   5.308   8.564
 1571POPC   C2B22580  38.487   5.339   8.264
 1571POPC   C3B22581  38.485   5.296   7.964
 1571POPC   C4B22582  38.504   5.366   7.664
 1572POPC   NC322583  32.209  29.118   9.464
 1572POPC   PO422584  32.229  29.186   9.164
 1572POPC   GL122585  32.233  29.141   8.864
 1572POPC   GL222586  32.229  29.032   8.864
 1572POPC   C1A22587  32.250  29.159   8.564
 1572POPC   D2A22588  32.210  29.188   8.264
 1572POPC   C3A22589  32.260  29.159   7.964
 1572POPC   C4A22590  32.234  29.115   7.664
 1572POPC   C1B22591  32.175  28.892   8.564
 1572POPC   C2B22592  32.146  28.959   8.264
 1572POPC   C3B22593  32.123  28.935   7.964
 1572POPC   C4B22594  32.171  28.956   7.664
 1573POPC   NC322595  40.819  21.346   9.464
 1573POPC   PO422596  40.740  21.373   9.164
 1573POPC   GL122597  40.774  21.387   8.864
 1573POPC   GL222598  40.891  21.435   8.864
 1573POPC   C1A22599  40.753  21.368   8.564
 1573POPC   D2A22600  40.801  21.342   8.264
 1573POPC   C3A22601  40.811  21.382   7.964
 1573POPC   C4A22602  40.796  21.349   7.664
 1573POPC   C1B22603  41.056  21.413   8.564
 1573POPC   C2B22604  41.043  21.397   8.264
 1573POPC   C3B22605  41.054  21.401   7.964
 1573POPC   C4B22606  41.070  21.382   7.664
 1574POPC   NC322607  36.857   3.586   9.464
 1574POPC   PO422608  36.889   3.524   9.164
 1574POPC   GL122609  36.870   3.585   8.864
 1574POPC   GL222610  36.984   3.661   8.864
 1574POPC   C1A22611  36.913   3.499   8.564
 1574POPC   D2A22612  36.895   3.558   8.264
 1574POPC   C3A22613  36.946   3.517   7.964
 1574POPC   C4A22614  36.862   3.498   7.664
 1574POPC   C1B22615  37.073   3.716   8.564
 1574POPC   C2B22616  37.086   3.714   8.264
 1574POPC   C3B22617  37.025   3.770   7.964
 1574POPC   C4B22618  37.087   3.776   7.664
 1575POPC   NC322619  13.651  42.339   9.464
 1575POPC   PO422620  13.587  42.318   9.164
 1575POPC   GL122621  13.590  42.341   8.864
 1575POPC   GL222622  13.497  42.288   8.864
 1575POPC   C1A22623  13.578  42.383   8.564
 1575POPC   D2A22624  13.647  42.384   8.264
 1575POPC   C3A22625  13.661  42.378   7.964
 1575POPC   C4A22626  13.644  42.384   7.664
 1575POPC   C1B22627  13.389  42.262   8.564
 1575POPC   C2B22628  13.375  42.274   8.264
 1575POPC   C3B22629  13.441  42.233   7.964
 1575POPC   C4B22630  13.424  42.283   7.664
 1576POPC   NC322631   1.957  37.637   9.464
 1576POPC   PO422632   1.946  37.716   9.164
 1576POPC   GL122633   1.957  37.704   8.864
 1576POPC   GL222634   2.034  37.784   8.864
 1576POPC   C1A22635   1.991  37.648   8.564
 1576POPC   D2A22636   1.950  37.662   8.264
 1576POPC   C3A22637   2.029  37.670   7.964
 1576POPC   C4A22638   2.011  37.660   7.664
 1576POPC   C1B22639   1.972  37.924   8.564
 1576POPC   C2B22640   2.043  37.968   8.264
 1576POPC   C3B22641   1.950  37.882   7.964
 1576POPC   C4B22642   1.993  37.945   7.664
 1577POPC   NC322643   5.890  33.787   9.464
 1577POPC   PO422644   5.885  33.791   9.164
 1577POPC   GL122645   5.892  33.787   8.864
 1577POPC   GL222646   5.807  33.886   8.864
 1577POPC   C1A22647   5.830  33.752   8.564
 1577POPC   D2A22648   5.829  33.801   8.264
 1577POPC   C3A22649   5.851  33.817   7.964
 1577POPC   C4A22650   5.883  33.762   7.664
 1577POPC   C1B22651   5.675  33.947   8.564
 1577POPC   C2B22652   5.663  34.010   8.264
 1577POPC   C3B22653   5.677  33.954   7.964
 1577POPC   C4B22654   5.652  33.947   7.664
 1578POPC   NC322655  37.727  42.327   9.464
 1578POPC   PO422656  37.716  42.378   9.164
 1578POPC   GL122657  37.727  42.298   8.864
 1578POPC   GL222658  37.528  42.412   8.864
 1578POPC   C1A22659  37.634  42.381   8.564
 1578POPC   D2A22660  37.641  42.308   8.264
 1578POPC   C3A22661  37.688  42.353   7.964
 1578POPC   C4A22662  37.657  42.333   7.664
 1578POPC   C1B22663  37.457  42.456   8.564
 1578POPC   C2B22664  37.416  42.471   8.264
 1578POPC   C3B22665  37.500  42.455   7.964
 1578POPC   C4B22666  37.438  42.470   7.664
 1579POPC   NC322667  26.786   7.463   9.464
 1579POPC   PO422668  26.858   7.456   9.164
 1579POPC   GL122669  26.837   7.432   8.864
 1579POPC   GL222670  26.748   7.427   8.864
 1579POPC   C1A22671  26.850   7.382   8.564
 1579POPC   D2A22672  26.785   7.404   8.264
 1579POPC   C3A22673  26.787   7.400   7.964
 1579POPC   C4A22674  26.783   7.439   7.664
 1579POPC   C1B22675  26.583   7.351   8.564
 1579POPC   C2B22676  26.540   7.302   8.264
 1579POPC   C3B22677  26.570   7.355   7.964
 1579POPC   C4B22678  26.585   7.333   7.664
 1580POPC   NC322679  25.243  32.257   9.464
 1580POPC   PO422680  25.225  32.284   9.164
 1580POPC   GL122681  25.232  32.201   8.864
 1580POPC   GL222682  25.193  32.117   8.864
 1580POPC   C1A22683  25.270  32.218   8.564
 1580POPC   D2A22684  25.301  32.238   8.264
 1580POPC   C3A22685  25.246  32.249   7.964
 1580POPC   C4A22686  25.256  32.220   7.664
 1580POPC   C1B22687  25.174  32.049   8.564
 1580POPC   C2B22688  25.212  31.979   8.264
 1580POPC   C3B22689  25.204  31.997   7.964
 1580POPC   C4B22690  25.180  32.057   7.664
 1581POPC   NC322691  12.063  18.249   9.464
 1581POPC   PO422692  12.050  18.320   9.164
 1581POPC   GL122693  12.098  18.290   8.864
 1581POPC   GL222694  12.000  18.173   8.864
 1581POPC   C1A22695  12.070  18.316   8.564
 1581POPC   D2A22696  12.065  18.297   8.264
 1581POPC   C3A22697  12.042  18.319   7.964
 1581POPC   C4A22698  12.092  18.331   7.664
 1581POPC   C1B22699  11.969  18.003   8.564
 1581POPC   C2B22700  12.011  18.077   8.264
 1581POPC   C3B22701  12.011  18.012   7.964
 1581POPC   C4B22702  12.009  18.013   7.664
 1582POPC   NC322703  16.772  10.521   9.464
 1582POPC   PO422704  16.760  10.523   9.164
 1582POPC   GL122705  16.690  10.518   8.864
 1582POPC   GL222706  16.601  10.518   8.864
 1582POPC   C1A22707  16.699  10.492   8.564
 1582POPC   D2A22708  16.756  10.481   8.264
 1582POPC   C3A22709  16.754  10.523   7.964
 1582POPC   C4A22710  16.768  10.524   7.664
 1582POPC   C1B22711  16.529  10.429   8.564
 1582POPC   C2B22712  16.513  10.468   8.264
 1582POPC   C3B22713  16.438  10.450   7.964
 1582POPC   C4B22714  16.535  10.524   7.664
 1583POPC   NC322715  29.970   5.072   9.464
 1583POPC   PO422716  29.879   5.045   9.164
 1583POPC   GL122717  29.969   5.135   8.864
 1583POPC   GL222718  29.949   5.261   8.864
 1583POPC   C1A22719  29.932   5.130   8.564
 1583POPC   D2A22720  29.909   5.047   8.264
 1583POPC   C3A22721  29.893   5.103   7.964
 1583POPC   C4A22722  29.960   5.138   7.664
 1583POPC   C1B22723  29.946   5.369   8.564
 1583POPC   C2B22724  29.937   5.354   8.264
 1583POPC   C3B22725  29.919   5.388   7.964
 1583POPC   C4B22726  29.903   5.296   7.664
 1584POPC   NC322727   1.178  34.620   9.464
 1584POPC   PO422728   1.208  34.620   9.164
 1584POPC   GL122729   1.244  34.560   8.864
 1584POPC   GL222730   1.162  34.489   8.864
 1584POPC   C1A22731   1.259  34.557   8.564
 1584POPC   D2A22732   1.167  34.620   8.264
 1584POPC   C3A22733   1.175  34.535   7.964
 1584POPC   C4A22734   1.264  34.542   7.664
 1584POPC   C1B22735   1.151  34.377   8.564
 1584POPC   C2B22736   1.182  34.356   8.264
 1584POPC   C3B22737   1.170  34.376   7.964
 1584POPC   C4B22738   1.214  34.286   7.664
 1585POPC   NC322739  42.297  19.031   9.464
 1585POPC   PO422740  42.297  19.094   9.164
 1585POPC   GL122741  42.337  19.039   8.864
 1585POPC   GL222742  42.176  19.085   8.864
 1585POPC   C1A22743  42.362  19.066   8.564
 1585POPC   D2A22744  42.310  19.056   8.264
 1585POPC   C3A22745  42.369  19.043   7.964
 1585POPC   C4A22746  42.346  19.059   7.664
 1585POPC   C1B22747  42.115  19.044   8.564
 1585POPC   C2B22748  42.108  19.041   8.264
 1585POPC   C3B22749  42.106  19.008   7.964
 1585POPC   C4B22750  42.076  19.009   7.664
 1586POPC   NC322751   8.190  39.205   9.464
 1586POPC   PO422752   8.194  39.187   9.164
 1586POPC   GL122753   8.193  39.213   8.864
 1586POPC   GL222754   8.195  39.330   8.864
 1586POPC   C1A22755   8.178  39.208   8.564
 1586POPC   D2A22756   8.189  39.201   8.264
 1586POPC   C3A22757   8.167  39.190   7.964
 1586POPC   C4A22758   8.225  39.251   7.664
 1586POPC   C1B22759   8.188  39.488   8.564
 1586POPC   C2B22760   8.174  39.464   8.264
 1586POPC   C3B22761   8.217  39.515   7.964
 1586POPC   C4B22762   8.193  39.517   7.664
 1587POPC   NC322763   8.194  22.198   9.464
 1587POPC   PO422764   8.197  22.179   9.164
 1587POPC   GL122765   8.214  22.197   8.864
 1587POPC   GL222766   8.206  22.042   8.864
 1587POPC   C1A22767   8.187  22.140   8.564
 1587POPC   D2A22768   8.151  22.136   8.264
 1587POPC   C3A22769   8.159  22.139   7.964
 1587POPC   C4A22770   8.222  22.169   7.664
 1587POPC   C1B22771   8.227  21.890   8.564
 1587POPC   C2B22772   8.296  21.945   8.264
 1587POPC   C3B22773   8.257  21.954   7.964
 1587POPC   C4B22774   8.243  21.949   7.664
 1588POPC   NC322775  29.924  30.674   9.464
 1588POPC   PO422776  29.899  30.686   9.164
 1588POPC   GL122777  29.872  30.745   8.864
 1588POPC   GL222778  30.039  30.799   8.864
 1588POPC   C1A22779  29.948  30.711   8.564
 1588POPC   D2A22780  29.906  30.726   8.264
 1588POPC   C3A22781  29.907  30.684   7.964
 1588POPC   C4A22782  29.956  30.724   7.664
 1588POPC   C1B22783  30.113  30.867   8.564
 1588POPC   C2B22784  30.114  30.917   8.264
 1588POPC   C3B22785  30.080  30.854   7.964
 1588POPC   C4B22786  30.056  30.844   7.664
 1589POPC   NC322787  15.948   8.214   9.464
 1589POPC   PO422788  15.962   8.231   9.164
 1589POPC   GL122789  15.941   8.246   8.864
 1589POPC   GL222790  15.980   8.275   8.864
 1589POPC   C1A22791  15.910   8.228   8.564
 1589POPC   D2A22792  15.917   8.210   8.264
 1589POPC   C3A22793  15.930   8.214   7.964
 1589POPC   C4A22794  15.931   8.218   7.664
 1589POPC   C1B22795  15.970   8.488   8.564
 1589POPC   C2B22796  15.965   8.483   8.264
 1589POPC   C3B22797  15.920   8.437   7.964
 1589POPC   C4B22798  15.977   8.424   7.664
 1590POPC   NC322799  36.938  25.303   9.464
 1590POPC   PO422800  36.880  25.267   9.164
 1590POPC   GL122801  36.879  25.297   8.864
 1590POPC   GL222802  36.928  25.421   8.864
 1590POPC   C1A22803  36.885  25.276   8.564
 1590POPC   D2A22804  36.894  25.267   8.264
 1590POPC   C3A22805  36.943  25.306   7.964
 1590POPC   C4A22806  36.936  25.298   7.664
 1590POPC   C1B22807  36.939  25.503   8.564
 1590POPC   C2B22808  36.883  25.530   8.264
 1590POPC   C3B22809  36.931  25.493   7.964
 1590POPC   C4B22810  36.872  25.475   7.664
 1591POPC   NC322811   5.864  40.779   9.464
 1591POPC   PO422812   5.843  40.743   9.164
 1591POPC   GL122813   5.917  40.790   8.864
 1591POPC   GL222814   5.893  40.880   8.864
 1591POPC   C1A22815   5.826  40.785   8.564
 1591POPC   D2A22816   5.900  40.775   8.264
 1591POPC   C3A22817   5.864  40.821   7.964
 1591POPC   C4A22818   5.890  40.801   7.664
 1591POPC   C1B22819   5.898  41.049   8.564
 1591POPC   C2B22820   5.918  41.013   8.264
 1591POPC   C3B22821   5.912  41.011   7.964
 1591POPC   C4B22822   5.892  41.040   7.664
 1592POPC   NC322823  12.078  41.565   9.464
 1592POPC   PO422824  12.117  41.535   9.164
 1592POPC   GL122825  12.111  41.539   8.864
 1592POPC   GL222826  12.189  41.451   8.864
 1592POPC   C1A22827  12.071  41.516   8.564
 1592POPC   D2A22828  12.124  41.528   8.264
 1592POPC   C3A22829  12.042  41.596   7.964
 1592POPC   C4A22830  12.106  41.521   7.664
 1592POPC   C1B22831  12.268  41.373   8.564
 1592POPC   C2B22832  12.267  41.369   8.264
 1592POPC   C3B22833  12.189  41.386   7.964
 1592POPC   C4B22834  12.204  41.367   7.664
 1593POPC   NC322835  39.957   0.417   9.464
 1593POPC   PO422836  40.024   0.418   9.164
 1593POPC   GL122837  40.029   0.391   8.864
 1593POPC   GL222838  39.904   0.406   8.864
 1593POPC   C1A22839  39.968   0.456   8.564
 1593POPC   D2A22840  40.027   0.469   8.264
 1593POPC   C3A22841  40.043   0.400   7.964
 1593POPC   C4A22842  40.056   0.471   7.664
 1593POPC   C1B22843  39.735   0.429   8.564
 1593POPC   C2B22844  39.764   0.404   8.264
 1593POPC   C3B22845  39.774   0.434   7.964
 1593POPC   C4B22846  39.731   0.419   7.664
 1594POPC   NC322847  43.889  19.028   9.464
 1594POPC   PO422848  43.879  19.015   9.164
 1594POPC   GL122849  43.840  19.044   8.864
 1594POPC   GL222850  43.945  19.146   8.864
 1594POPC   C1A22851  43.906  19.077   8.564
 1594POPC   D2A22852  43.899  19.024   8.264
 1594POPC   C3A22853  43.927  19.038   7.964
 1594POPC   C4A22854  43.902  19.022   7.664
 1594POPC   C1B22855  43.961  19.281   8.564
 1594POPC   C2B22856  44.026  19.292   8.264
 1594POPC   C3B22857  44.013  19.267   7.964
 1594POPC   C4B22858  43.990  19.250   7.664
 1595POPC   NC322859  27.557  20.606   9.464
 1595POPC   PO422860  27.577  20.612   9.164
 1595POPC   GL122861  27.605  20.565   8.864
 1595POPC   GL222862  27.664  20.518   8.864
 1595POPC   C1A22863  27.613  20.599   8.564
 1595POPC   D2A22864  27.614  20.566   8.264
 1595POPC   C3A22865  27.629  20.628   7.964
 1595POPC   C4A22866  27.544  20.568   7.664
 1595POPC   C1B22867  27.714  20.427   8.564
 1595POPC   C2B22868  27.720  20.362   8.264
 1595POPC   C3B22869  27.716  20.401   7.964
 1595POPC   C4B22870  27.710  20.398   7.664
 1596POPC   NC322871   5.911  34.534   9.464
 1596POPC   PO422872   5.860  34.547   9.164
 1596POPC   GL122873   5.918  34.544   8.864
 1596POPC   GL222874   5.953  34.433   8.864
 1596POPC   C1A22875   5.918  34.611   8.564
 1596POPC   D2A22876   5.828  34.610   8.264
 1596POPC   C3A22877   5.907  34.551   7.964
 1596POPC   C4A22878   5.832  34.564   7.664
 1596POPC   C1B22879   6.016  34.314   8.564
 1596POPC   C2B22880   6.002  34.343   8.264
 1596POPC   C3B22881   5.970  34.363   7.964
 1596POPC   C4B22882   5.995  34.350   7.664
 1597POPC   NC322883   8.171   4.272   9.464
 1597POPC   PO422884   8.147   4.349   9.164
 1597POPC   GL122885   8.238   4.354   8.864
 1597POPC   GL222886   8.104   4.378   8.864
 1597POPC   C1A22887   8.244   4.366   8.564
 1597POPC   D2A22888   8.171   4.292   8.264
 1597POPC   C3A22889   8.191   4.301   7.964
 1597POPC   C4A22890   8.192   4.328   7.664
 1597POPC   C1B22891   7.993   4.337   8.564
 1597POPC   C2B22892   7.957   4.373   8.264
 1597POPC   C3B22893   8.001   4.327   7.964
 1597POPC   C4B22894   7.978   4.329   7.664
 1598POPC   NC322895  14.373  42.381   9.464
 1598POPC   PO422896  14.385  42.298   9.164
 1598POPC   GL122897  14.435  42.360   8.864
 1598POPC   GL222898  14.406  42.177   8.864
 1598POPC   C1A22899  14.442  42.300   8.564
 1598POPC   D2A22900  14.389  42.323   8.264
 1598POPC   C3A22901  14.376  42.323   7.964
 1598POPC   C4A22902  14.412  42.286   7.664
 1598POPC   C1B22903  14.315  42.114   8.564
 1598POPC   C2B22904  14.355  42.077   8.264
 1598POPC   C3B22905  14.286  42.129   7.964
 1598POPC   C4B22906  14.279  42.089   7.664
 1599POPC   NC322907  19.050   7.393   9.464
 1599POPC   PO422908  19.051   7.377   9.164
 1599POPC   GL122909  19.033   7.435   8.864
 1599POPC   GL222910  19.152   7.503   8.864
 1599POPC   C1A22911  19.020   7.389   8.564
 1599POPC   D2A22912  19.060   7.423   8.264
 1599POPC   C3A22913  19.102   7.372   7.964
 1599POPC   C4A22914  19.014   7.409   7.664
 1599POPC   C1B22915  19.236   7.544   8.564
 1599POPC   C2B22916  19.253   7.563   8.264
 1599POPC   C3B22917  19.198   7.635   7.964
 1599POPC   C4B22918  19.251   7.575   7.664
 1600POPC   NC322919  16.683  44.653   9.464
 1600POPC   PO422920  16.753  44.625   9.164
 1600POPC   GL122921  16.728  44.635   8.864
 1600POPC   GL222922  16.796  44.551   8.864
 1600POPC   C1A22923  16.748  44.651   8.564
 1600POPC   D2A22924  16.761  44.650   8.264
 1600POPC   C3A22925  16.768  44.685   7.964
 1600POPC   C4A22926  16.776  44.640   7.664
 1600POPC   C1B22927  16.759  44.379   8.564
 1600POPC   C2B22928  16.767  44.440   8.264
 1600POPC   C3B22929  16.796  44.378   7.964
 1600POPC   C4B22930  16.810  44.436   7.664
 1601POPC   NC322931  38.448  36.138   9.464
 1601POPC   PO422932  38.479  36.143   9.164
 1601POPC   GL122933  38.481  36.114   8.864
 1601POPC   GL222934  38.330  36.232   8.864
 1601POPC   C1A22935  38.452  36.108   8.564
 1601POPC   D2A22936  38.421  36.120   8.264
 1601POPC   C3A22937  38.490  36.135   7.964
 1601POPC   C4A22938  38.482  36.129   7.664
 1601POPC   C1B22939  38.324  36.359   8.564
 1601POPC   C2B22940  38.258  36.310   8.264
 1601POPC   C3B22941  38.333  36.326   7.964
 1601POPC   C4B22942  38.332  36.359   7.664
 1602POPC   NC322943  19.047  16.747   9.464
 1602POPC   PO422944  19.103  16.764   9.164
 1602POPC   GL122945  19.081  16.747   8.864
 1602POPC   GL222946  18.898  16.734   8.864
 1602POPC   C1A22947  19.048  16.725   8.564
 1602POPC   D2A22948  19.068  16.759   8.264
 1602POPC   C3A22949  19.106  16.727   7.964
 1602POPC   C4A22950  19.064  16.760   7.664
 1602POPC   C1B22951  18.776  16.748   8.564
 1602POPC   C2B22952  18.860  16.664   8.264
 1602POPC   C3B22953  18.810  16.745   7.964
 1602POPC   C4B22954  18.823  16.671   7.664
 1603POPC   NC322955  29.877  17.496   9.464
 1603POPC   PO422956  29.912  17.487   9.164
 1603POPC   GL122957  29.965  17.502   8.864
 1603POPC   GL222958  29.827  17.556   8.864
 1603POPC   C1A22959  29.967  17.472   8.564
 1603POPC   D2A22960  29.932  17.489   8.264
 1603POPC   C3A22961  29.875  17.458   7.964
 1603POPC   C4A22962  29.914  17.495   7.664
 1603POPC   C1B22963  29.653  17.589   8.564
 1603POPC   C2B22964  29.663  17.553   8.264
 1603POPC   C3B22965  29.688  17.595   7.964
 1603POPC   C4B22966  29.704  17.571   7.664
 1604POPC   NC322967  30.739  36.921   9.464
 1604POPC   PO422968  30.746  36.908   9.164
 1604POPC   GL122969  30.667  36.902   8.864
 1604POPC   GL222970  30.597  37.022   8.864
 1604POPC   C1A22971  30.695  36.950   8.564
 1604POPC   D2A22972  30.731  36.933   8.264
 1604POPC   C3A22973  30.711  36.891   7.964
 1604POPC   C4A22974  30.679  36.929   7.664
 1604POPC   C1B22975  30.637  37.117   8.564
 1604POPC   C2B22976  30.549  37.092   8.264
 1604POPC   C3B22977  30.599  37.133   7.964
 1604POPC   C4B22978  30.619  37.107   7.664
 1605POPC   NC322979  19.057   5.863   9.464
 1605POPC   PO422980  19.092   5.824   9.164
 1605POPC   GL122981  19.054   5.837   8.864
 1605POPC   GL222982  18.931   5.766   8.864
 1605POPC   C1A22983  19.033   5.851   8.564
 1605POPC   D2A22984  19.105   5.902   8.264
 1605POPC   C3A22985  19.033   5.857   7.964
 1605POPC   C4A22986  19.031   5.838   7.664
 1605POPC   C1B22987  18.895   5.684   8.564
 1605POPC   C2B22988  18.885   5.734   8.264
 1605POPC   C3B22989  18.802   5.687   7.964
 1605POPC   C4B22990  18.827   5.724   7.664
 1606POPC   NC322991   1.978  28.355   9.464
 1606POPC   PO422992   1.971  28.415   9.164
 1606POPC   GL122993   1.976  28.327   8.864
 1606POPC   GL222994   1.907  28.406   8.864
 1606POPC   C1A22995   1.952  28.394   8.564
 1606POPC   D2A22996   1.959  28.349   8.264
 1606POPC   C3A22997   1.995  28.380   7.964
 1606POPC   C4A22998   1.951  28.330   7.664
 1606POPC   C1B22999   1.759  28.535   8.564
 1606POPC   C2B23000   1.789  28.510   8.264
 1606POPC   C3B23001   1.764  28.472   7.964
 1606POPC   C4B23002   1.781  28.542   7.664
 1607POPC   NC323003  44.685  25.246   9.464
 1607POPC   PO423004  44.631  25.269   9.164
 1607POPC   GL123005  44.710  25.312   8.864
 1607POPC   GL223006  44.723  25.299   8.864
 1607POPC   C1A23007  44.631  25.290   8.564
 1607POPC   D2A23008  44.625  25.281   8.264
 1607POPC   C3A23009  44.642  25.286   7.964
 1607POPC   C4A23010  44.709  25.275   7.664
 1607POPC   C1B23011  44.850  25.381   8.564
 1607POPC   C2B23012  44.828  25.374   8.264
 1607POPC   C3B23013  44.831  25.382   7.964
 1607POPC   C4B23014  44.879  25.422   7.664
 1608POPC   NC323015  25.224  43.111   9.464
 1608POPC   PO423016  25.232  43.136   9.164
 1608POPC   GL123017  25.272  43.060   8.864
 1608POPC   GL223018  25.344  43.137   8.864
 1608POPC   C1A23019  25.242  43.135   8.564
 1608POPC   D2A23020  25.305  43.134   8.264
 1608POPC   C3A23021  25.315  43.119   7.964
 1608POPC   C4A23022  25.253  43.102   7.664
 1608POPC   C1B23023  25.476  43.218   8.564
 1608POPC   C2B23024  25.528  43.203   8.264
 1608POPC   C3B23025  25.511  43.176   7.964
 1608POPC   C4B23026  25.519  43.143   7.664
 1609POPC   NC323027  21.432  16.720   9.464
 1609POPC   PO423028  21.378  16.749   9.164
 1609POPC   GL123029  21.356  16.713   8.864
 1609POPC   GL223030  21.286  16.748   8.864
 1609POPC   C1A23031  21.370  16.683   8.564
 1609POPC   D2A23032  21.341  16.737   8.264
 1609POPC   C3A23033  21.406  16.718   7.964
 1609POPC   C4A23034  21.408  16.752   7.664
 1609POPC   C1B23035  21.154  16.817   8.564
 1609POPC   C2B23036  21.154  16.861   8.264
 1609POPC   C3B23037  21.106  16.825   7.964
 1609POPC   C4B23038  21.197  16.815   7.664
 1610POPC   NC323039   5.143  15.911   9.464
 1610POPC   PO423040   5.098  15.920   9.164
 1610POPC   GL123041   5.073  15.916   8.864
 1610POPC   GL223042   5.132  15.878   8.864
 1610POPC   C1A23043   5.079  15.949   8.564
 1610POPC   D2A23044   5.142  15.908   8.264
 1610POPC   C3A23045   5.067  15.933   7.964
 1610POPC   C4A23046   5.047  15.950   7.664
 1610POPC   C1B23047   5.215  15.693   8.564
 1610POPC   C2B23048   5.128  15.721   8.264
 1610POPC   C3B23049   5.149  15.753   7.964
 1610POPC   C4B23050   5.154  15.731   7.664
 1611POPC   NC323051  39.966  40.749   9.464
 1611POPC   PO423052  40.004  40.785   9.164
 1611POPC   GL123053  40.020  40.755   8.864
 1611POPC   GL223054  40.140  40.828   8.864
 1611POPC   C1A23055  39.987  40.805   8.564
 1611POPC   D2A23056  39.977  40.759   8.264
 1611POPC   C3A23057  40.040  40.833   7.964
 1611POPC   C4A23058  40.023  40.763   7.664
 1611POPC   C1B23059  40.215  40.831   8.564
 1611POPC   C2B23060  40.242  40.843   8.264
 1611POPC   C3B23061  40.226  40.757   7.964
 1611POPC   C4B23062  40.269  40.782   7.664
 1612POPC   NC323063  21.399  27.564   9.464
 1612POPC   PO423064  21.412  27.639   9.164
 1612POPC   GL123065  21.411  27.599   8.864
 1612POPC   GL223066  21.230  27.622   8.864
 1612POPC   C1A23067  21.350  27.601   8.564
 1612POPC   D2A23068  21.416  27.625   8.264
 1612POPC   C3A23069  21.336  27.552   7.964
 1612POPC   C4A23070  21.338  27.607   7.664
 1612POPC   C1B23071  21.158  27.542   8.564
 1612POPC   C2B23072  21.147  27.530   8.264
 1612POPC   C3B23073  21.090  27.593   7.964
 1612POPC   C4B23074  21.181  27.583   7.664
 1613POPC   NC323075  43.844   8.949   9.464
 1613POPC   PO423076  43.854   9.007   9.164
 1613POPC   GL123077  43.887   8.984   8.864
 1613POPC   GL223078  43.937   8.901   8.864
 1613POPC   C1A23079  43.894   8.964   8.564
 1613POPC   D2A23080  43.838   8.958   8.264
 1613POPC   C3A23081  43.911   8.936   7.964
 1613POPC   C4A23082  43.908   8.990   7.664
 1613POPC   C1B23083  44.068   8.834   8.564
 1613POPC   C2B23084  44.007   8.762   8.264
 1613POPC   C3B23085  44.066   8.820   7.964
 1613POPC   C4B23086  44.024   8.775   7.664
 1614POPC   NC323087  43.871  25.234   9.464
 1614POPC   PO423088  43.875  25.307   9.164
 1614POPC   GL123089  43.839  25.280   8.864
 1614POPC   GL223090  43.876  25.109   8.864
 1614POPC   C1A23091  43.915  25.282   8.564
 1614POPC   D2A23092  43.856  25.278   8.264
 1614POPC   C3A23093  43.840  25.308   7.964
 1614POPC   C4A23094  43.920  25.230   7.664
 1614POPC   C1B23095  44.002  24.981   8.564
 1614POPC   C2B23096  43.997  25.006   8.264
 1614POPC   C3B23097  43.973  25.067   7.964
 1614POPC   C4B23098  43.998  25.016   7.664
 1615POPC   NC323099  36.904  41.599   9.464
 1615POPC   PO423100  36.931  41.588   9.164
 1615POPC   GL123101  36.921  41.560   8.864
 1615POPC   GL223102  36.919  41.439   8.864
 1615POPC   C1A23103  36.860  41.511   8.564
 1615POPC   D2A23104  36.865  41.605   8.264
 1615POPC   C3A23105  36.889  41.545   7.964
 1615POPC   C4A23106  36.856  41.543   7.664
 1615POPC   C1B23107  36.853  41.265   8.564
 1615POPC   C2B23108  36.917  41.310   8.264
 1615POPC   C3B23109  36.923  41.278   7.964
 1615POPC   C4B23110  36.908  41.297   7.664
 1616POPC   NC323111  31.468  12.066   9.464
 1616POPC   PO423112  31.487  12.095   9.164
 1616POPC   GL123113  31.464  12.105   8.864
 1616POPC   GL223114  31.434  11.916   8.864
 1616POPC   C1A23115  31.449  12.119   8.564
 1616POPC   D2A23116  31.509  12.029   8.264
 1616POPC   C3A23117  31.446  12.054   7.964
 1616POPC   C4A23118  31.465  12.067   7.664
 1616POPC   C1B23119  31.476  11.875   8.564
 1616POPC   C2B23120  31.486  11.829   8.264
 1616POPC   C3B23121  31.468  11.813   7.964
 1616POPC   C4B23122  31.516  11.808   7.664
 1617POPC   NC323123  44.680   7.407   9.464
 1617POPC   PO423124  44.663   7.412   9.164
 1617POPC   GL123125  44.670   7.415   8.864
 1617POPC   GL223126  44.608   7.499   8.864
 1617POPC   C1A23127  44.685   7.414   8.564
 1617POPC   D2A23128  44.712   7.449   8.264
 1617POPC   C3A23129  44.649   7.458   7.964
 1617POPC   C4A23130  44.650   7.407   7.664
 1617POPC   C1B23131  44.630   7.690   8.564
 1617POPC   C2B23132  44.652   7.664   8.264
 1617POPC   C3B23133  44.627   7.665   7.964
 1617POPC   C4B23134  44.609   7.636   7.664
 1618POPC   NC323135   6.652  35.344   9.464
 1618POPC   PO423136   6.604  35.389   9.164
 1618POPC   GL123137   6.631  35.401   8.864
 1618POPC   GL223138   6.507  35.358   8.864
 1618POPC   C1A23139   6.599  35.303   8.564
 1618POPC   D2A23140   6.627  35.337   8.264
 1618POPC   C3A23141   6.687  35.318   7.964
 1618POPC   C4A23142   6.639  35.375   7.664
 1618POPC   C1B23143   6.366  35.307   8.564
 1618POPC   C2B23144   6.382  35.282   8.264
 1618POPC   C3B23145   6.354  35.311   7.964
 1618POPC   C4B23146   6.427  35.305   7.664
 1619POPC   NC323147  36.861  29.183   9.464
 1619POPC   PO423148  36.916  29.154   9.164
 1619POPC   GL123149  36.912  29.101   8.864
 1619POPC   GL223150  36.830  29.151   8.864
 1619POPC   C1A23151  36.893  29.167   8.564
 1619POPC   D2A23152  36.888  29.162   8.264
 1619POPC   C3A23153  36.904  29.166   7.964
 1619POPC   C4A23154  36.890  29.178   7.664
 1619POPC   C1B23155  36.677  29.129   8.564
 1619POPC   C2B23156  36.695  29.107   8.264
 1619POPC   C3B23157  36.655  29.061   7.964
 1619POPC   C4B23158  36.641  29.061   7.664
 1620POPC   NC323159   1.189  35.388   9.464
 1620POPC   PO423160   1.213  35.393   9.164
 1620POPC   GL123161   1.193  35.365   8.864
 1620POPC   GL223162   1.203  35.512   8.864
 1620POPC   C1A23163   1.172  35.312   8.564
 1620POPC   D2A23164   1.255  35.337   8.264
 1620POPC   C3A23165   1.257  35.305   7.964
 1620POPC   C4A23166   1.177  35.385   7.664
 1620POPC   C1B23167   1.234  35.559   8.564
 1620POPC   C2B23168   1.192  35.618   8.264
 1620POPC   C3B23169   1.209  35.650   7.964
 1620POPC   C4B23170   1.151  35.573   7.664
 1621POPC   NC323171  36.863  27.550   9.464
 1621POPC   PO423172  36.856  27.597   9.164
 1621POPC   GL123173  36.855  27.641   8.864
 1621POPC   GL223174  36.771  27.607   8.864
 1621POPC   C1A23175  36.876  27.557   8.564
 1621POPC   D2A23176  36.908  27.574   8.264
 1621POPC   C3A23177  36.901  27.606   7.964
 1621POPC   C4A23178  36.921  27.596   7.664
 1621POPC   C1B23179  36.651  27.616   8.564
 1621POPC   C2B23180  36.645  27.676   8.264
 1621POPC   C3B23181  36.662  27.632   7.964
 1621POPC   C4B23182  36.611  27.642   7.664
 1622POPC   NC323183  39.958   9.733   9.464
 1622POPC   PO423184  40.017   9.748   9.164
 1622POPC   GL123185  40.011   9.749   8.864
 1622POPC   GL223186  40.040   9.865   8.864
 1622POPC   C1A23187  40.016   9.779   8.564
 1622POPC   D2A23188  40.002   9.766   8.264
 1622POPC   C3A23189  40.038   9.791   7.964
 1622POPC   C4A23190  39.992   9.701   7.664
 1622POPC   C1B23191  40.021  10.015   8.564
 1622POPC   C2B23192  40.092   9.963   8.264
 1622POPC   C3B23193  40.062   9.949   7.964
 1622POPC   C4B23194  40.014   9.998   7.664
 1623POPC   NC323195   2.037  25.276   9.464
 1623POPC   PO423196   1.973  25.267   9.164
 1623POPC   GL123197   1.999  25.310   8.864
 1623POPC   GL223198   1.908  25.179   8.864
 1623POPC   C1A23199   2.028  25.228   8.564
 1623POPC   D2A23200   1.962  25.260   8.264
 1623POPC   C3A23201   2.018  25.273   7.964
 1623POPC   C4A23202   1.974  25.254   7.664
 1623POPC   C1B23203   1.787  25.166   8.564
 1623POPC   C2B23204   1.793  25.212   8.264
 1623POPC   C3B23205   1.713  25.150   7.964
 1623POPC   C4B23206   1.759  25.222   7.664
 1624POPC   NC323207  36.886   1.260   9.464
 1624POPC   PO423208  36.898   1.212   9.164
 1624POPC   GL123209  36.947   1.204   8.864
 1624POPC   GL223210  37.010   1.338   8.864
 1624POPC   C1A23211  36.920   1.218   8.564
 1624POPC   D2A23212  36.939   1.213   8.264
 1624POPC   C3A23213  36.875   1.241   7.964
 1624POPC   C4A23214  36.861   1.242   7.664
 1624POPC   C1B23215  37.120   1.394   8.564
 1624POPC   C2B23216  37.077   1.343   8.264
 1624POPC   C3B23217  37.106   1.366   7.964
 1624POPC   C4B23218  37.057   1.410   7.664
 1625POPC   NC323219  11.342   8.992   9.464
 1625POPC   PO423220  11.338   8.930   9.164
 1625POPC   GL123221  11.305   8.940   8.864
 1625POPC   GL223222  11.407   9.038   8.864
 1625POPC   C1A23223  11.262   8.985   8.564
 1625POPC   D2A23224  11.271   8.924   8.264
 1625POPC   C3A23225  11.318   9.004   7.964
 1625POPC   C4A23226  11.288   8.934   7.664
 1625POPC   C1B23227  11.436   9.145   8.564
 1625POPC   C2B23228  11.426   9.128   8.264
 1625POPC   C3B23229  11.416   9.220   7.964
 1625POPC   C4B23230  11.447   9.129   7.664
 1626POPC   NC323231  29.112   6.688   9.464
 1626POPC   PO423232  29.098   6.690   9.164
 1626POPC   GL123233  29.175   6.645   8.864
 1626POPC   GL223234  29.076   6.602   8.864
 1626POPC   C1A23235  29.187   6.680   8.564
 1626POPC   D2A23236  29.113   6.695   8.264
 1626POPC   C3A23237  29.129   6.637   7.964
 1626POPC   C4A23238  29.174   6.600   7.664
 1626POPC   C1B23239  28.884   6.604   8.564
 1626POPC   C2B23240  28.953   6.530   8.264
 1626POPC   C3B23241  28.898   6.521   7.964
 1626POPC   C4B23242  28.937   6.604   7.664
 1627POPC   NC323243  29.129  36.100   9.464
 1627POPC   PO423244  29.123  36.169   9.164
 1627POPC   GL123245  29.168  36.096   8.864
 1627POPC   GL223246  29.220  36.103   8.864
 1627POPC   C1A23247  29.157  36.078   8.564
 1627POPC   D2A23248  29.190  36.157   8.264
 1627POPC   C3A23249  29.191  36.129   7.964
 1627POPC   C4A23250  29.107  36.087   7.664
 1627POPC   C1B23251  29.417  36.094   8.564
 1627POPC   C2B23252  29.435  36.105   8.264
 1627POPC   C3B23253  29.408  36.026   7.964
 1627POPC   C4B23254  29.421  36.123   7.664
 1628POPC   NC323255  31.451  28.320   9.464
 1628POPC   PO423256  31.501  28.402   9.164
 1628POPC   GL123257  31.424  28.384   8.864
 1628POPC   GL223258  31.537  28.449   8.864
 1628POPC   C1A23259  31.476  28.384   8.564
 1628POPC   D2A23260  31.492  28.338   8.264
 1628POPC   C3A23261  31.463  28.361   7.964
 1628POPC   C4A23262  31.504  28.343   7.664
 1628POPC   C1B23263  31.683  28.509   8.564
 1628POPC   C2B23264  31.675  28.482   8.264
 1628POPC   C3B23265  31.661  28.535   7.964
 1628POPC   C4B23266  31.706  28.512   7.664
 1629POPC   NC323267  35.378   4.322   9.464
 1629POPC   PO423268  35.364   4.299   9.164
 1629POPC   GL123269  35.334   4.317   8.864
 1629POPC   GL223270  35.506   4.256   8.864
 1629POPC   C1A23271  35.360   4.268   8.564
 1629POPC   D2A23272  35.312   4.338   8.264
 1629POPC   C3A23273  35.306   4.316   7.964
 1629POPC   C4A23274  35.355   4.347   7.664
 1629POPC   C1B23275  35.619   4.230   8.564
 1629POPC   C2B23276  35.531   4.216   8.264
 1629POPC   C3B23277  35.589   4.175   7.964
 1629POPC   C4B23278  35.569   4.212   7.664
 1630POPC   NC323279  19.788  41.538   9.464
 1630POPC   PO423280  19.807  41.543   9.164
 1630POPC   GL123281  19.878  41.513   8.864
 1630POPC   GL223282  19.722  41.510   8.864
 1630POPC   C1A23283  19.823  41.542   8.564
 1630POPC   D2A23284  19.799  41.548   8.264
 1630POPC   C3A23285  19.788  41.519   7.964
 1630POPC   C4A23286  19.834  41.519   7.664
 1630POPC   C1B23287  19.642  41.379   8.564
 1630POPC   C2B23288  19.658  41.401   8.264
 1630POPC   C3B23289  19.626  41.438   7.964
 1630POPC   C4B23290  19.622  41.357   7.664
 1631POPC   NC323291  19.822  43.151   9.464
 1631POPC   PO423292  19.829  43.082   9.164
 1631POPC   GL123293  19.875  43.083   8.864
 1631POPC   GL223294  19.935  43.233   8.864
 1631POPC   C1A23295  19.877  43.100   8.564
 1631POPC   D2A23296  19.852  43.088   8.264
 1631POPC   C3A23297  19.843  43.154   7.964
 1631POPC   C4A23298  19.878  43.070   7.664
 1631POPC   C1B23299  19.939  43.359   8.564
 1631POPC   C2B23300  20.024  43.309   8.264
 1631POPC   C3B23301  19.967  43.342   7.964
 1631POPC   C4B23302  19.939  43.341   7.664
 1632POPC   NC323303  43.884   3.577   9.464
 1632POPC   PO423304  43.902   3.556   9.164
 1632POPC   GL123305  43.892   3.555   8.864
 1632POPC   GL223306  43.850   3.409   8.864
 1632POPC   C1A23307  43.837   3.512   8.564
 1632POPC   D2A23308  43.848   3.521   8.264
 1632POPC   C3A23309  43.838   3.494   7.964
 1632POPC   C4A23310  43.852   3.529   7.664
 1632POPC   C1B23311  43.749   3.350   8.564
 1632POPC   C2B23312  43.727   3.329   8.264
 1632POPC   C3B23313  43.725   3.337   7.964
 1632POPC   C4B23314  43.789   3.371   7.664
 1633POPC   NC323315  17.525  19.843   9.464
 1633POPC   PO423316  17.477  19.865   9.164
 1633POPC   GL123317  17.524  19.796   8.864
 1633POPC   GL223318  17.647  19.956   8.864
 1633POPC   C1A23319  17.461  19.861   8.564
 1633POPC   D2A23320  17.538  19.806   8.264
 1633POPC   C3A23321  17.510  19.820   7.964
 1633POPC   C4A23322  17.526  19.827   7.664
 1633POPC   C1B23323  17.685  19.985   8.564
 1633POPC   C2B23324  17.670  19.986   8.264
 1633POPC   C3B23325  17.734  20.007   7.964
 1633POPC   C4B23326  17.684  19.961   7.664
 1634POPC   NC323327   3.517  36.907   9.464
 1634POPC   PO423328   3.507  36.923   9.164
 1634POPC   GL123329   3.512  36.928   8.864
 1634POPC   GL223330   3.469  36.994   8.864
 1634POPC   C1A23331   3.508  36.904   8.564
 1634POPC   D2A23332   3.494  36.913   8.264
 1634POPC   C3A23333   3.566  36.855   7.964
 1634POPC   C4A23334   3.590  36.879   7.664
 1634POPC   C1B23335   3.322  37.069   8.564
 1634POPC   C2B23336   3.380  37.057   8.264
 1634POPC   C3B23337   3.399  37.074   7.964
 1634POPC   C4B23338   3.378  37.068   7.664
 1635POPC   NC323339  22.204  22.905   9.464
 1635POPC   PO423340  22.191  22.970   9.164
 1635POPC   GL123341  22.164  22.914   8.864
 1635POPC   GL223342  22.330  22.887   8.864
 1635POPC   C1A23343  22.148  22.941   8.564
 1635POPC   D2A23344  22.192  22.941   8.264
 1635POPC   C3A23345  22.180  22.895   7.964
 1635POPC   C4A23346  22.131  22.898   7.664
 1635POPC   C1B23347  22.404  22.965   8.564
 1635POPC   C2B23348  22.414  22.899   8.264
 1635POPC   C3B23349  22.446  22.978   7.964
 1635POPC   C4B23350  22.388  22.922   7.664
 1636POPC   NC323351   1.212  15.195   9.464
 1636POPC   PO423352   1.186  15.226   9.164
 1636POPC   GL123353   1.192  15.225   8.864
 1636POPC   GL223354   1.281  15.254   8.864
 1636POPC   C1A23355   1.172  15.134   8.564
 1636POPC   D2A23356   1.200  15.152   8.264
 1636POPC   C3A23357   1.254  15.184   7.964
 1636POPC   C4A23358   1.246  15.165   7.664
 1636POPC   C1B23359   1.275  15.463   8.564
 1636POPC   C2B23360   1.276  15.440   8.264
 1636POPC   C3B23361   1.306  15.376   7.964
 1636POPC   C4B23362   1.222  15.451   7.664
 1637POPC   NC323363   8.217  17.511   9.464
 1637POPC   PO423364   8.238  17.479   9.164
 1637POPC   GL123365   8.217  17.556   8.864
 1637POPC   GL223366   8.205  17.373   8.864
 1637POPC   C1A23367   8.187  17.465   8.564
 1637POPC   D2A23368   8.228  17.543   8.264
 1637POPC   C3A23369   8.183  17.533   7.964
 1637POPC   C4A23370   8.188  17.555   7.664
 1637POPC   C1B23371   8.092  17.248   8.564
 1637POPC   C2B23372   8.082  17.253   8.264
 1637POPC   C3B23373   8.118  17.266   7.964
 1637POPC   C4B23374   8.087  17.239   7.664
 1638POPC   NC323375  30.736  20.616   9.464
 1638POPC   PO423376  30.662  20.660   9.164
 1638POPC   GL123377  30.692  20.562   8.864
 1638POPC   GL223378  30.637  20.558   8.864
 1638POPC   C1A23379  30.700  20.595   8.564
 1638POPC   D2A23380  30.734  20.599   8.264
 1638POPC   C3A23381  30.719  20.635   7.964
 1638POPC   C4A23382  30.653  20.608   7.664
 1638POPC   C1B23383  30.493  20.447   8.564
 1638POPC   C2B23384  30.530  20.462   8.264
 1638POPC   C3B23385  30.540  20.403   7.964
 1638POPC   C4B23386  30.568  20.453   7.664
 1639POPC   NC323387  33.786  25.995   9.464
 1639POPC   PO423388  33.841  26.005   9.164
 1639POPC   GL123389  33.848  26.028   8.864
 1639POPC   GL223390  33.820  25.963   8.864
 1639POPC   C1A23391  33.756  26.060   8.564
 1639POPC   D2A23392  33.830  26.056   8.264
 1639POPC   C3A23393  33.762  26.025   7.964
 1639POPC   C4A23394  33.799  26.021   7.664
 1639POPC   C1B23395  33.792  25.806   8.564
 1639POPC   C2B23396  33.746  25.838   8.264
 1639POPC   C3B23397  33.788  25.783   7.964
 1639POPC   C4B23398  33.786  25.816   7.664
 1640POPC   NC323399   5.888  27.574   9.464
 1640POPC   PO423400   5.823  27.549   9.164
 1640POPC   GL123401   5.896  27.598   8.864
 1640POPC   GL223402   5.947  27.546   8.864
 1640POPC   C1A23403   5.880  27.553   8.564
 1640POPC   D2A23404   5.871  27.549   8.264
 1640POPC   C3A23405   5.819  27.594   7.964
 1640POPC   C4A23406   5.898  27.595   7.664
 1640POPC   C1B23407   6.073  27.505   8.564
 1640POPC   C2B23408   6.084  27.505   8.264
 1640POPC   C3B23409   6.130  27.464   7.964
 1640POPC   C4B23410   6.140  27.456   7.664
 1641POPC   NC323411  41.598  17.551   9.464
 1641POPC   PO423412  41.553  17.493   9.164
 1641POPC   GL123413  41.596  17.477   8.864
 1641POPC   GL223414  41.481  17.500   8.864
 1641POPC   C1A23415  41.524  17.553   8.564
 1641POPC   D2A23416  41.583  17.457   8.264
 1641POPC   C3A23417  41.535  17.482   7.964
 1641POPC   C4A23418  41.580  17.487   7.664
 1641POPC   C1B23419  41.359  17.445   8.564
 1641POPC   C2B23420  41.332  17.484   8.264
 1641POPC   C3B23421  41.289  17.447   7.964
 1641POPC   C4B23422  41.300  17.463   7.664
 1642POPC   NC323423  12.026  43.854   9.464
 1642POPC   PO423424  12.079  43.897   9.164
 1642POPC   GL123425  12.070  43.934   8.864
 1642POPC   GL223426  12.139  44.005   8.864
 1642POPC   C1A23427  12.057  43.906   8.564
 1642POPC   D2A23428  12.096  43.934   8.264
 1642POPC   C3A23429  12.112  43.863   7.964
 1642POPC   C4A23430  12.121  43.856   7.664
 1642POPC   C1B23431  12.189  44.128   8.564
 1642POPC   C2B23432  12.155  44.150   8.264
 1642POPC   C3B23433  12.143  44.110   7.964
 1642POPC   C4B23434  12.154  44.088   7.664
 1643POPC   NC323435  12.842  17.534   9.464
 1643POPC   PO423436  12.864  17.543   9.164
 1643POPC   GL123437  12.878  17.511   8.864
 1643POPC   GL223438  12.766  17.600   8.864
 1643POPC   C1A23439  12.805  17.548   8.564
 1643POPC   D2A23440  12.822  17.552   8.264
 1643POPC   C3A23441  12.869  17.508   7.964
 1643POPC   C4A23442  12.842  17.477   7.664
 1643POPC   C1B23443  12.661  17.696   8.564
 1643POPC   C2B23444  12.669  17.701   8.264
 1643POPC   C3B23445  12.717  17.696   7.964
 1643POPC   C4B23446  12.746  17.664   7.664
 1644POPC   NC323447  36.926   5.089   9.464
 1644POPC   PO423448  36.953   5.126   9.164
 1644POPC   GL123449  36.894   5.081   8.864
 1644POPC   GL223450  36.943   5.215   8.864
 1644POPC   C1A23451  36.905   5.116   8.564
 1644POPC   D2A23452  36.854   5.053   8.264
 1644POPC   C3A23453  36.885   5.080   7.964
 1644POPC   C4A23454  36.950   5.076   7.664
 1644POPC   C1B23455  37.071   5.354   8.564
 1644POPC   C2B23456  37.032   5.355   8.264
 1644POPC   C3B23457  37.015   5.292   7.964
 1644POPC   C4B23458  37.061   5.313   7.664
 1645POPC   NC323459  19.792  31.501   9.464
 1645POPC   PO423460  19.855  31.433   9.164
 1645POPC   GL123461  19.786  31.503   8.864
 1645POPC   GL223462  19.705  31.539   8.864
 1645POPC   C1A23463  19.857  31.507   8.564
 1645POPC   D2A23464  19.856  31.428   8.264
 1645POPC   C3A23465  19.846  31.511   7.964
 1645POPC   C4A23466  19.863  31.425   7.664
 1645POPC   C1B23467  19.628  31.596   8.564
 1645POPC   C2B23468  19.637  31.624   8.264
 1645POPC   C3B23469  19.668  31.631   7.964
 1645POPC   C4B23470  19.594  31.673   7.664
 1646POPC   NC323471   5.102  10.494   9.464
 1646POPC   PO423472   5.111  10.491   9.164
 1646POPC   GL123473   5.109  10.481   8.864
 1646POPC   GL223474   4.987  10.449   8.864
 1646POPC   C1A23475   5.111  10.524   8.564
 1646POPC   D2A23476   5.051  10.566   8.264
 1646POPC   C3A23477   5.119  10.519   7.964
 1646POPC   C4A23478   5.048  10.487   7.664
 1646POPC   C1B23479   4.889  10.438   8.564
 1646POPC   C2B23480   4.899  10.472   8.264
 1646POPC   C3B23481   4.881  10.512   7.964
 1646POPC   C4B23482   4.883  10.490   7.664
 1647POPC   NC323483  40.817  29.917   9.464
 1647POPC   PO423484  40.822  29.877   9.164
 1647POPC   GL123485  40.772  29.934   8.864
 1647POPC   GL223486  40.870  29.906   8.864
 1647POPC   C1A23487  40.807  29.892   8.564
 1647POPC   D2A23488  40.811  29.915   8.264
 1647POPC   C3A23489  40.813  29.936   7.964
 1647POPC   C4A23490  40.769  29.917   7.664
 1647POPC   C1B23491  41.053  29.865   8.564
 1647POPC   C2B23492  41.037  29.905   8.264
 1647POPC   C3B23493  41.070  29.843   7.964
 1647POPC   C4B23494  41.003  29.873   7.664
 1648POPC   NC323495  36.090  21.398   9.464
 1648POPC   PO423496  36.096  21.353   9.164
 1648POPC   GL123497  36.145  21.396   8.864
 1648POPC   GL223498  36.238  21.494   8.864
 1648POPC   C1A23499  36.101  21.338   8.564
 1648POPC   D2A23500  36.174  21.434   8.264
 1648POPC   C3A23501  36.114  21.360   7.964
 1648POPC   C4A23502  36.168  21.414   7.664
 1648POPC   C1B23503  36.295  21.565   8.564
 1648POPC   C2B23504  36.244  21.569   8.264
 1648POPC   C3B23505  36.224  21.619   7.964
 1648POPC   C4B23506  36.286  21.561   7.664
 1649POPC   NC323507  11.287   4.304   9.464
 1649POPC   PO423508  11.286   4.363   9.164
 1649POPC   GL123509  11.254   4.278   8.864
 1649POPC   GL223510  11.426   4.281   8.864
 1649POPC   C1A23511  11.273   4.273   8.564
 1649POPC   D2A23512  11.342   4.289   8.264
 1649POPC   C3A23513  11.251   4.358   7.964
 1649POPC   C4A23514  11.300   4.343   7.664
 1649POPC   C1B23515  11.557   4.188   8.564
 1649POPC   C2B23516  11.515   4.225   8.264
 1649POPC   C3B23517  11.564   4.256   7.964
 1649POPC   C4B23518  11.507   4.240   7.664
 1650POPC   NC323519  36.142  31.459   9.464
 1650POPC   PO423520  36.144  31.504   9.164
 1650POPC   GL123521  36.115  31.423   8.864
 1650POPC   GL223522  36.078  31.586   8.864
 1650POPC   C1A23523  36.140  31.511   8.564
 1650POPC   D2A23524  36.109  31.448   8.264
 1650POPC   C3A23525  36.121  31.471   7.964
 1650POPC   C4A23526  36.108  31.518   7.664
 1650POPC   C1B23527  36.092  31.742   8.564
 1650POPC   C2B23528  36.070  31.759   8.264
 1650POPC   C3B23529  36.114  31.678   7.964
 1650POPC   C4B23530  36.063  31.701   7.664
 1651POPC   NC323531   2.747   0.456   9.464
 1651POPC   PO423532   2.717   0.414   9.164
 1651POPC   GL123533   2.809   0.479   8.864
 1651POPC   GL223534   2.691   0.510   8.864
 1651POPC   C1A23535   2.784   0.414   8.564
 1651POPC   D2A23536   2.730   0.464   8.264
 1651POPC   C3A23537   2.799   0.437   7.964
 1651POPC   C4A23538   2.767   0.451   7.664
 1651POPC   C1B23539   2.507   0.545   8.564
 1651POPC   C2B23540   2.558   0.516   8.264
 1651POPC   C3B23541   2.542   0.579   7.964
 1651POPC   C4B23542   2.532   0.595   7.664
 1652POPC   NC323543  17.508  41.554   9.464
 1652POPC   PO423544  17.514  41.555   9.164
 1652POPC   GL123545  17.519  41.556   8.864
 1652POPC   GL223546  17.537  41.680   8.864
 1652POPC   C1A23547  17.518  41.587   8.564
 1652POPC   D2A23548  17.555  41.563   8.264
 1652POPC   C3A23549  17.530  41.599   7.964
 1652POPC   C4A23550  17.536  41.583   7.664
 1652POPC   C1B23551  17.583  41.803   8.564
 1652POPC   C2B23552  17.596  41.819   8.264
 1652POPC   C3B23553  17.566  41.804   7.964
 1652POPC   C4B23554  17.611  41.808   7.664
 1653POPC   NC323555  24.531   7.378   9.464
 1653POPC   PO423556  24.477   7.439   9.164
 1653POPC   GL123557  24.455   7.381   8.864
 1653POPC   GL223558  24.556   7.413   8.864
 1653POPC   C1A23559  24.534   7.433   8.564
 1653POPC   D2A23560  24.524   7.381   8.264
 1653POPC   C3A23561  24.520   7.470   7.964
 1653POPC   C4A23562  24.520   7.457   7.664
 1653POPC   C1B23563  24.741   7.328   8.564
 1653POPC   C2B23564  24.675   7.312   8.264
 1653POPC   C3B23565  24.729   7.279   7.964
 1653POPC   C4B23566  24.716   7.308   7.664
 1654POPC   NC323567  44.648  43.906   9.464
 1654POPC   PO423568  44.644  43.929   9.164
 1654POPC   GL123569  44.675  43.852   8.864
 1654POPC   GL223570  44.684  43.720   8.864
 1654POPC   C1A23571  44.705  43.911   8.564
 1654POPC   D2A23572  44.630  43.846   8.264
 1654POPC   C3A23573  44.665  43.841   7.964
 1654POPC   C4A23574  44.674  43.884   7.664
 1654POPC   C1B23575  44.640  43.588   8.564
 1654POPC   C2B23576  44.604  43.615   8.264
 1654POPC   C3B23577  44.666  43.624   7.964
 1654POPC   C4B23578  44.644  43.675   7.664
 1655POPC   NC323579  31.451   0.392   9.464
 1655POPC   PO423580  31.427   0.430   9.164
 1655POPC   GL123581  31.493   0.417   8.864
 1655POPC   GL223582  31.527   0.531   8.864
 1655POPC   C1A23583  31.508   0.451   8.564
 1655POPC   D2A23584  31.443   0.440   8.264
 1655POPC   C3A23585  31.501   0.428   7.964
 1655POPC   C4A23586  31.439   0.469   7.664
 1655POPC   C1B23587  31.603   0.656   8.564
 1655POPC   C2B23588  31.584   0.652   8.264
 1655POPC   C3B23589  31.604   0.716   7.964
 1655POPC   C4B23590  31.523   0.648   7.664
 1656POPC   NC323591  26.776  44.672   9.464
 1656POPC   PO423592  26.775  44.614   9.164
 1656POPC   GL123593  26.770  44.707   8.864
 1656POPC   GL223594  26.970  44.619   8.864
 1656POPC   C1A23595  26.847  44.644   8.564
 1656POPC   D2A23596  26.781  44.627   8.264
 1656POPC   C3A23597  26.827  44.678   7.964
 1656POPC   C4A23598  26.811  44.650   7.664
 1656POPC   C1B23599  27.006  44.522   8.564
 1656POPC   C2B23600  27.055  44.522   8.264
 1656POPC   C3B23601  27.037  44.533   7.964
 1656POPC   C4B23602  27.008  44.573   7.664
 1657POPC   NC323603  31.507   5.842   9.464
 1657POPC   PO423604  31.425   5.829   9.164
 1657POPC   GL123605  31.489   5.901   8.864
 1657POPC   GL223606  31.418   5.999   8.864
 1657POPC   C1A23607  31.514   5.857   8.564
 1657POPC   D2A23608  31.448   5.914   8.264
 1657POPC   C3A23609  31.461   5.867   7.964
 1657POPC   C4A23610  31.450   5.824   7.664
 1657POPC   C1B23611  31.371   6.143   8.564
 1657POPC   C2B23612  31.403   6.158   8.264
 1657POPC   C3B23613  31.456   6.121   7.964
 1657POPC   C4B23614  31.405   6.123   7.664
 1658POPC   NC323615  38.464  21.403   9.464
 1658POPC   PO423616  38.423  21.406   9.164
 1658POPC   GL123617  38.504  21.417   8.864
 1658POPC   GL223618  38.308  21.344   8.864
 1658POPC   C1A23619  38.475  21.351   8.564
 1658POPC   D2A23620  38.427  21.360   8.264
 1658POPC   C3A23621  38.430  21.367   7.964
 1658POPC   C4A23622  38.498  21.390   7.664
 1658POPC   C1B23623  38.255  21.374   8.564
 1658POPC   C2B23624  38.246  21.394   8.264
 1658POPC   C3B23625  38.251  21.358   7.964
 1658POPC   C4B23626  38.240  21.334   7.664
 1659POPC   NC323627   7.439  12.824   9.464
 1659POPC   PO423628   7.374  12.830   9.164
 1659POPC   GL123629   7.422  12.825   8.864
 1659POPC   GL223630   7.567  12.780   8.864
 1659POPC   C1A23631   7.448  12.838   8.564
 1659POPC   D2A23632   7.404  12.862   8.264
 1659POPC   C3A23633   7.438  12.803   7.964
 1659POPC   C4A23634   7.452  12.870   7.664
 1659POPC   C1B23635   7.682  12.770   8.564
 1659POPC   C2B23636   7.691  12.716   8.264
 1659POPC   C3B23637   7.676  12.753   7.964
 1659POPC   C4B23638   7.604  12.757   7.664
 1660POPC   NC323639  39.250  42.329   9.464
 1660POPC   PO423640  39.219  42.310   9.164
 1660POPC   GL123641  39.260  42.359   8.864
 1660POPC   GL223642  39.099  42.285   8.864
 1660POPC   C1A23643  39.184  42.364   8.564
 1660POPC   D2A23644  39.254  42.315   8.264
 1660POPC   C3A23645  39.192  42.297   7.964
 1660POPC   C4A23646  39.224  42.380   7.664
 1660POPC   C1B23647  38.999  42.167   8.564
 1660POPC   C2B23648  39.010  42.142   8.264
 1660POPC   C3B23649  39.033  42.165   7.964
 1660POPC   C4B23650  39.013  42.178   7.664
 1661POPC   NC323651  26.830   5.073   9.464
 1661POPC   PO423652  26.789   5.105   9.164
 1661POPC   GL123653  26.811   5.136   8.864
 1661POPC   GL223654  26.849   4.971   8.864
 1661POPC   C1A23655  26.824   5.053   8.564
 1661POPC   D2A23656  26.836   5.122   8.264
 1661POPC   C3A23657  26.774   5.048   7.964
 1661POPC   C4A23658  26.812   5.080   7.664
 1661POPC   C1B23659  26.845   4.821   8.564
 1661POPC   C2B23660  26.875   4.807   8.264
 1661POPC   C3B23661  26.844   4.812   7.964
 1661POPC   C4B23662  26.841   4.862   7.664
 1662POPC   NC323663   6.605  13.639   9.464
 1662POPC   PO423664   6.632  13.578   9.164
 1662POPC   GL123665   6.625  13.668   8.864
 1662POPC   GL223666   6.542  13.567   8.864
 1662POPC   C1A23667   6.607  13.619   8.564
 1662POPC   D2A23668   6.628  13.658   8.264
 1662POPC   C3A23669   6.656  13.596   7.964
 1662POPC   C4A23670   6.663  13.676   7.664
 1662POPC   C1B23671   6.444  13.581   8.564
 1662POPC   C2B23672   6.407  13.590   8.264
 1662POPC   C3B23673   6.360  13.551   7.964
 1662POPC   C4B23674   6.364  13.519   7.664
 1663POPC   NC323675   6.683  38.438   9.464
 1663POPC   PO423676   6.675  38.452   9.164
 1663POPC   GL123677   6.641  38.417   8.864
 1663POPC   GL223678   6.618  38.530   8.864
 1663POPC   C1A23679   6.687  38.499   8.564
 1663POPC   D2A23680   6.618  38.484   8.264
 1663POPC   C3A23681   6.602  38.480   7.964
 1663POPC   C4A23682   6.691  38.495   7.664
 1663POPC   C1B23683   6.469  38.641   8.564
 1663POPC   C2B23684   6.449  38.681   8.264
 1663POPC   C3B23685   6.543  38.700   7.964
 1663POPC   C4B23686   6.490  38.698   7.664
 1664POPC   NC323687   1.169  16.751   9.464
 1664POPC   PO423688   1.186  16.779   9.164
 1664POPC   GL123689   1.241  16.737   8.864
 1664POPC   GL223690   1.306  16.646   8.864
 1664POPC   C1A23691   1.185  16.714   8.564
 1664POPC   D2A23692   1.233  16.750   8.264
 1664POPC   C3A23693   1.205  16.742   7.964
 1664POPC   C4A23694   1.222  16.764   7.664
 1664POPC   C1B23695   1.340  16.528   8.564
 1664POPC   C2B23696   1.357  16.531   8.264
 1664POPC   C3B23697   1.353  16.581   7.964
 1664POPC   C4B23698   1.405  16.535   7.664
 1665POPC   NC323699  23.713   9.785   9.464
 1665POPC   PO423700  23.734   9.749   9.164
 1665POPC   GL123701  23.691   9.698   8.864
 1665POPC   GL223702  23.810   9.805   8.864
 1665POPC   C1A23703  23.681   9.714   8.564
 1665POPC   D2A23704  23.732   9.763   8.264
 1665POPC   C3A23705  23.730   9.749   7.964
 1665POPC   C4A23706  23.721   9.725   7.664
 1665POPC   C1B23707  23.924   9.870   8.564
 1665POPC   C2B23708  23.943   9.916   8.264
 1665POPC   C3B23709  23.940   9.883   7.964
 1665POPC   C4B23710  23.893   9.868   7.664
 1666POPC   NC323711  36.907  43.868   9.464
 1666POPC   PO423712  36.924  43.845   9.164
 1666POPC   GL123713  36.887  43.853   8.864
 1666POPC   GL223714  36.984  44.015   8.864
 1666POPC   C1A23715  36.943  43.868   8.564
 1666POPC   D2A23716  36.886  43.919   8.264
 1666POPC   C3A23717  36.949  43.862   7.964
 1666POPC   C4A23718  36.889  43.901   7.664
 1666POPC   C1B23719  37.058  44.099   8.564
 1666POPC   C2B23720  37.079  44.115   8.264
 1666POPC   C3B23721  37.114  44.100   7.964
 1666POPC   C4B23722  37.101  44.112   7.664
 1667POPC   NC323723   5.114  44.694   9.464
 1667POPC   PO423724   5.117  44.658   9.164
 1667POPC   GL123725   5.085  44.703   8.864
 1667POPC   GL223726   5.020  44.736   8.864
 1667POPC   C1A23727   5.117  44.622   8.564
 1667POPC   D2A23728   5.071  44.627   8.264
 1667POPC   C3A23729   5.107  44.661   7.964
 1667POPC   C4A23730   5.102  44.620   7.664
 1667POPC   C1B23731   4.913  44.745   8.564
 1667POPC   C2B23732   4.870  44.752   8.264
 1667POPC   C3B23733   4.855  44.781   7.964
 1667POPC   C4B23734   4.820  44.816   7.664
 1668POPC   NC323735   6.659  39.225   9.464
 1668POPC   PO423736   6.653  39.270   9.164
 1668POPC   GL123737   6.672  39.264   8.864
 1668POPC   GL223738   6.628  39.341   8.864
 1668POPC   C1A23739   6.632  39.279   8.564
 1668POPC   D2A23740   6.609  39.232   8.264
 1668POPC   C3A23741   6.648  39.274   7.964
 1668POPC   C4A23742   6.657  39.253   7.664
 1668POPC   C1B23743   6.567  39.401   8.564
 1668POPC   C2B23744   6.515  39.436   8.264
 1668POPC   C3B23745   6.536  39.430   7.964
 1668POPC   C4B23746   6.497  39.433   7.664
 1669POPC   NC323747  20.595  10.478   9.464
 1669POPC   PO423748  20.580  10.549   9.164
 1669POPC   GL123749  20.570  10.523   8.864
 1669POPC   GL223750  20.513  10.526   8.864
 1669POPC   C1A23751  20.566  10.537   8.564
 1669POPC   D2A23752  20.649  10.509   8.264
 1669POPC   C3A23753  20.564  10.486   7.964
 1669POPC   C4A23754  20.640  10.549   7.664
 1669POPC   C1B23755  20.357  10.461   8.564
 1669POPC   C2B23756  20.329  10.408   8.264
 1669POPC   C3B23757  20.331  10.438   7.964
 1669POPC   C4B23758  20.390  10.408   7.664
 1670POPC   NC323759  44.633  12.869   9.464
 1670POPC   PO423760  44.673  12.899   9.164
 1670POPC   GL123761  44.699  12.898   8.864
 1670POPC   GL223762  44.671  12.988   8.864
 1670POPC   C1A23763  44.670  12.808   8.564
 1670POPC   D2A23764  44.626  12.854   8.264
 1670POPC   C3A23765  44.617  12.883   7.964
 1670POPC   C4A23766  44.703  12.840   7.664
 1670POPC   C1B23767  44.767  13.028   8.564
 1670POPC   C2B23768  44.817  13.108   8.264
 1670POPC   C3B23769  44.790  13.028   7.964
 1670POPC   C4B23770  44.815  13.064   7.664
 1671POPC   NC323771  11.302   8.166   9.464
 1671POPC   PO423772  11.281   8.165   9.164
 1671POPC   GL123773  11.272   8.215   8.864
 1671POPC   GL223774  11.224   8.086   8.864
 1671POPC   C1A23775  11.290   8.164   8.564
 1671POPC   D2A23776  11.277   8.156   8.264
 1671POPC   C3A23777  11.288   8.182   7.964
 1671POPC   C4A23778  11.338   8.165   7.664
 1671POPC   C1B23779  11.178   7.924   8.564
 1671POPC   C2B23780  11.219   7.935   8.264
 1671POPC   C3B23781  11.189   7.938   7.964
 1671POPC   C4B23782  11.183   7.967   7.664
 1672POPC   NC323783  13.657  30.712   9.464
 1672POPC   PO423784  13.672  30.732   9.164
 1672POPC   GL123785  13.637  30.711   8.864
 1672POPC   GL223786  13.618  30.846   8.864
 1672POPC   C1A23787  13.638  30.653   8.564
 1672POPC   D2A23788  13.650  30.652   8.264
 1672POPC   C3A23789  13.600  30.735   7.964
 1672POPC   C4A23790  13.642  30.678   7.664
 1672POPC   C1B23791  13.623  30.941   8.564
 1672POPC   C2B23792  13.640  30.941   8.264
 1672POPC   C3B23793  13.614  30.976   7.964
 1672POPC   C4B23794  13.639  30.947   7.664
 1673POPC   NC323795  36.921  18.307   9.464
 1673POPC   PO423796  36.891  18.312   9.164
 1673POPC   GL123797  36.894  18.280   8.864
 1673POPC   GL223798  36.793  18.273   8.864
 1673POPC   C1A23799  36.941  18.239   8.564
 1673POPC   D2A23800  36.876  18.307   8.264
 1673POPC   C3A23801  36.930  18.256   7.964
 1673POPC   C4A23802  36.888  18.240   7.664
 1673POPC   C1B23803  36.695  18.162   8.564
 1673POPC   C2B23804  36.644  18.172   8.264
 1673POPC   C3B23805  36.685  18.142   7.964
 1673POPC   C4B23806  36.660  18.144   7.664
 1674POPC   NC323807  22.975  19.869   9.464
 1674POPC   PO423808  22.952  19.844   9.164
 1674POPC   GL123809  22.942  19.868   8.864
 1674POPC   GL223810  22.977  19.698   8.864
 1674POPC   C1A23811  22.988  19.818   8.564
 1674POPC   D2A23812  22.975  19.862   8.264
 1674POPC   C3A23813  22.925  19.822   7.964
 1674POPC   C4A23814  22.981  19.882   7.664
 1674POPC   C1B23815  23.121  19.672   8.564
 1674POPC   C2B23816  23.124  19.624   8.264
 1674POPC   C3B23817  23.111  19.644   7.964
 1674POPC   C4B23818  23.107  19.684   7.664
 1675POPC   NC323819   1.221  33.012   9.464
 1675POPC   PO423820   1.208  33.062   9.164
 1675POPC   GL123821   1.185  33.004   8.864
 1675POPC   GL223822   1.285  33.187   8.864
 1675POPC   C1A23823   1.171  33.004   8.564
 1675POPC   D2A23824   1.213  33.014   8.264
 1675POPC   C3A23825   1.252  32.983   7.964
 1675POPC   C4A23826   1.167  32.981   7.664
 1675POPC   C1B23827   1.341  33.239   8.564
 1675POPC   C2B23828   1.262  33.274   8.264
 1675POPC   C3B23829   1.322  33.276   7.964
 1675POPC   C4B23830   1.281  33.216   7.664
 1676POPC   NC323831  39.251  13.622   9.464
 1676POPC   PO423832  39.250  13.608   9.164
 1676POPC   GL123833  39.270  13.648   8.864
 1676POPC   GL223834  39.165  13.569   8.864
 1676POPC   C1A23835  39.280  13.606   8.564
 1676POPC   D2A23836  39.254  13.610   8.264
 1676POPC   C3A23837  39.266  13.635   7.964
 1676POPC   C4A23838  39.280  13.670   7.664
 1676POPC   C1B23839  38.986  13.511   8.564
 1676POPC   C2B23840  39.010  13.530   8.264
 1676POPC   C3B23841  39.052  13.472   7.964
 1676POPC   C4B23842  39.066  13.501   7.664
 1677POPC   NC323843  33.013  21.342   9.464
 1677POPC   PO423844  33.071  21.390   9.164
 1677POPC   GL123845  33.068  21.395   8.864
 1677POPC   GL223846  33.035  21.287   8.864
 1677POPC   C1A23847  33.001  21.372   8.564
 1677POPC   D2A23848  32.996  21.410   8.264
 1677POPC   C3A23849  33.030  21.368   7.964
 1677POPC   C4A23850  33.040  21.434   7.664
 1677POPC   C1B23851  33.080  21.136   8.564
 1677POPC   C2B23852  33.046  21.166   8.264
 1677POPC   C3B23853  33.043  21.102   7.964
 1677POPC   C4B23854  33.022  21.156   7.664
 1678POPC   NC323855  10.500  19.860   9.464
 1678POPC   PO423856  10.534  19.828   9.164
 1678POPC   GL123857  10.500  19.833   8.864
 1678POPC   GL223858  10.614  19.754   8.864
 1678POPC   C1A23859  10.501  19.865   8.564
 1678POPC   D2A23860  10.565  19.836   8.264
 1678POPC   C3A23861  10.510  19.805   7.964
 1678POPC   C4A23862  10.490  19.817   7.664
 1678POPC   C1B23863  10.684  19.675   8.564
 1678POPC   C2B23864  10.692  19.649   8.264
 1678POPC   C3B23865  10.720  19.612   7.964
 1678POPC   C4B23866  10.691  19.590   7.664
 1679POPC   NC323867   5.060   7.408   9.464
 1679POPC   PO423868   5.112   7.436   9.164
 1679POPC   GL123869   5.057   7.450   8.864
 1679POPC   GL223870   5.096   7.565   8.864
 1679POPC   C1A23871   5.074   7.422   8.564
 1679POPC   D2A23872   5.084   7.397   8.264
 1679POPC   C3A23873   5.118   7.435   7.964
 1679POPC   C4A23874   5.127   7.411   7.664
 1679POPC   C1B23875   5.160   7.630   8.564
 1679POPC   C2B23876   5.136   7.645   8.264
 1679POPC   C3B23877   5.137   7.693   7.964
 1679POPC   C4B23878   5.127   7.674   7.664
 1680POPC   NC323879  31.494   7.445   9.464
 1680POPC   PO423880  31.485   7.373   9.164
 1680POPC   GL123881  31.480   7.445   8.864
 1680POPC   GL223882  31.303   7.500   8.864
 1680POPC   C1A23883  31.474   7.426   8.564
 1680POPC   D2A23884  31.497   7.426   8.264
 1680POPC   C3A23885  31.436   7.401   7.964
 1680POPC   C4A23886  31.474   7.456   7.664
 1680POPC   C1B23887  31.183   7.444   8.564
 1680POPC   C2B23888  31.239   7.512   8.264
 1680POPC   C3B23889  31.186   7.521   7.964
 1680POPC   C4B23890  31.224   7.537   7.664
 1681POPC   NC323891  32.251  38.453   9.464
 1681POPC   PO423892  32.212  38.501   9.164
 1681POPC   GL123893  32.264  38.471   8.864
 1681POPC   GL223894  32.167  38.572   8.864
 1681POPC   C1A23895  32.242  38.420   8.564
 1681POPC   D2A23896  32.268  38.501   8.264
 1681POPC   C3A23897  32.232  38.496   7.964
 1681POPC   C4A23898  32.297  38.431   7.664
 1681POPC   C1B23899  32.188  38.657   8.564
 1681POPC   C2B23900  32.142  38.725   8.264
 1681POPC   C3B23901  32.167  38.678   7.964
 1681POPC   C4B23902  32.161  38.716   7.664
 1682POPC   NC323903   3.511  42.287   9.464
 1682POPC   PO423904   3.493  42.288   9.164
 1682POPC   GL123905   3.574  42.303   8.864
 1682POPC   GL223906   3.608  42.440   8.864
 1682POPC   C1A23907   3.555  42.329   8.564
 1682POPC   D2A23908   3.523  42.373   8.264
 1682POPC   C3A23909   3.571  42.374   7.964
 1682POPC   C4A23910   3.492  42.375   7.664
 1682POPC   C1B23911   3.726  42.476   8.564
 1682POPC   C2B23912   3.714  42.454   8.264
 1682POPC   C3B23913   3.748  42.504   7.964
 1682POPC   C4B23914   3.752  42.418   7.664
 1683POPC   NC323915  43.855  36.138   9.464
 1683POPC   PO423916  43.857  36.175   9.164
 1683POPC   GL123917  43.889  36.143   8.864
 1683POPC   GL223918  44.027  36.138   8.864
 1683POPC   C1A23919  43.854  36.101   8.564
 1683POPC   D2A23920  43.877  36.121   8.264
 1683POPC   C3A23921  43.872  36.127   7.964
 1683POPC   C4A23922  43.921  36.121   7.664
 1683POPC   C1B23923  44.175  36.094   8.564
 1683POPC   C2B23924  44.117  36.089   8.264
 1683POPC   C3B23925  44.179  36.098   7.964
 1683POPC   C4B23926  44.143  36.146   7.664
 1684POPC   NC323927  39.268  36.865   9.464
 1684POPC   PO423928  39.226  36.934   9.164
 1684POPC   GL123929  39.229  36.856   8.864
 1684POPC   GL223930  39.372  36.840   8.864
 1684POPC   C1A23931  39.206  36.889   8.564
 1684POPC   D2A23932  39.212  36.871   8.264
 1684POPC   C3A23933  39.242  36.898   7.964
 1684POPC   C4A23934  39.277  36.927   7.664
 1684POPC   C1B23935  39.482  36.883   8.564
 1684POPC   C2B23936  39.433  36.910   8.264
 1684POPC   C3B23937  39.515  36.867   7.964
 1684POPC   C4B23938  39.510  36.889   7.664
 1685POPC   NC323939  16.731   5.914   9.464
 1685POPC   PO423940  16.686   5.851   9.164
 1685POPC   GL123941  16.724   5.883   8.864
 1685POPC   GL223942  16.661   5.924   8.864
 1685POPC   C1A23943  16.776   5.854   8.564
 1685POPC   D2A23944  16.685   5.885   8.264
 1685POPC   C3A23945  16.701   5.845   7.964
 1685POPC   C4A23946  16.765   5.893   7.664
 1685POPC   C1B23947  16.622   6.046   8.564
 1685POPC   C2B23948  16.560   6.080   8.264
 1685POPC   C3B23949  16.609   6.091   7.964
 1685POPC   C4B23950  16.552   6.052   7.664
 1686POPC   NC323951  39.986  11.282   9.464
 1686POPC   PO423952  40.009  11.286   9.164
 1686POPC   GL123953  40.032  11.315   8.864
 1686POPC   GL223954  40.040  11.404   8.864
 1686POPC   C1A23955  39.996  11.264   8.564
 1686POPC   D2A23956  39.972  11.296   8.264
 1686POPC   C3A23957  40.042  11.255   7.964
 1686POPC   C4A23958  40.005  11.259   7.664
 1686POPC   C1B23959  40.047  11.518   8.564
 1686POPC   C2B23960  40.066  11.567   8.264
 1686POPC   C3B23961  39.993  11.572   7.964
 1686POPC   C4B23962  40.028  11.560   7.664
 1687POPC   NC323963  34.527   2.726   9.464
 1687POPC   PO423964  34.550   2.796   9.164
 1687POPC   GL123965  34.600   2.716   8.864
 1687POPC   GL223966  34.691   2.811   8.864
 1687POPC   C1A23967  34.618   2.766   8.564
 1687POPC   D2A23968  34.528   2.795   8.264
 1687POPC   C3A23969  34.526   2.781   7.964
 1687POPC   C4A23970  34.582   2.732   7.664
 1687POPC   C1B23971  34.833   2.869   8.564
 1687POPC   C2B23972  34.831   2.807   8.264
 1687POPC   C3B23973  34.777   2.875   7.964
 1687POPC   C4B23974  34.789   2.826   7.664
 1688POPC   NC323975  30.707   3.547   9.464
 1688POPC   PO423976  30.724   3.509   9.164
 1688POPC   GL123977  30.696   3.494   8.864
 1688POPC   GL223978  30.733   3.600   8.864
 1688POPC   C1A23979  30.741   3.549   8.564
 1688POPC   D2A23980  30.699   3.532   8.264
 1688POPC   C3A23981  30.685   3.532   7.964
 1688POPC   C4A23982  30.653   3.569   7.664
 1688POPC   C1B23983  30.821   3.710   8.564
 1688POPC   C2B23984  30.826   3.757   8.264
 1688POPC   C3B23985  30.833   3.733   7.964
 1688POPC   C4B23986  30.841   3.778   7.664
 1689POPC   NC323987  42.379  29.118   9.464
 1689POPC   PO423988  42.324  29.153   9.164
 1689POPC   GL123989  42.323  29.153   8.864
 1689POPC   GL223990  42.282  29.239   8.864
 1689POPC   C1A23991  42.344  29.152   8.564
 1689POPC   D2A23992  42.311  29.178   8.264
 1689POPC   C3A23993  42.351  29.192   7.964
 1689POPC   C4A23994  42.308  29.165   7.664
 1689POPC   C1B23995  42.305  29.413   8.564
 1689POPC   C2B23996  42.314  29.366   8.264
 1689POPC   C3B23997  42.322  29.352   7.964
 1689POPC   C4B23998  42.330  29.412   7.664
 1690POPC   NC323999  36.116  14.419   9.464
 1690POPC   PO424000  36.136  14.410   9.164
 1690POPC   GL124001  36.115  14.407   8.864
 1690POPC   GL224002  36.150  14.501   8.864
 1690POPC   C1A24003  36.091  14.393   8.564
 1690POPC   D2A24004  36.167  14.357   8.264
 1690POPC   C3A24005  36.086  14.364   7.964
 1690POPC   C4A24006  36.086  14.416   7.664
 1690POPC   C1B24007  36.241  14.666   8.564
 1690POPC   C2B24008  36.285  14.630   8.264
 1690POPC   C3B24009  36.214  14.636   7.964
 1690POPC   C4B24010  36.287  14.588   7.664
 1691POPC   NC324011  17.474  25.230   9.464
 1691POPC   PO424012  17.482  25.262   9.164
 1691POPC   GL124013  17.466  25.270   8.864
 1691POPC   GL224014  17.467  25.136   8.864
 1691POPC   C1A24015  17.553  25.285   8.564
 1691POPC   D2A24016  17.533  25.306   8.264
 1691POPC   C3A24017  17.540  25.292   7.964
 1691POPC   C4A24018  17.484  25.248   7.664
 1691POPC   C1B24019  17.456  24.970   8.564
 1691POPC   C2B24020  17.441  24.984   8.264
 1691POPC   C3B24021  17.477  25.022   7.964
 1691POPC   C4B24022  17.454  25.032   7.664
 1692POPC   NC324023   1.186  31.453   9.464
 1692POPC   PO424024   1.188  31.495   9.164
 1692POPC   GL124025   1.209  31.465   8.864
 1692POPC   GL224026   1.088  31.467   8.864
 1692POPC   C1A24027   1.193  31.427   8.564
 1692POPC   D2A24028   1.225  31.476   8.264
 1692POPC   C3A24029   1.174  31.464   7.964
 1692POPC   C4A24030   1.230  31.456   7.664
 1692POPC   C1B24031   0.982  31.588   8.564
 1692POPC   C2B24032   0.980  31.578   8.264
 1692POPC   C3B24033   1.002  31.554   7.964
 1692POPC   C4B24034   0.927  31.531   7.664
 1693POPC   NC324035  42.349  25.276   9.464
 1693POPC   PO424036  42.360  25.292   9.164
 1693POPC   GL124037  42.312  25.300   8.864
 1693POPC   GL224038  42.280  25.222   8.864
 1693POPC   C1A24039  42.380  25.307   8.564
 1693POPC   D2A24040  42.318  25.248   8.264
 1693POPC   C3A24041  42.296  25.265   7.964
 1693POPC   C4A24042  42.355  25.242   7.664
 1693POPC   C1B24043  42.178  25.108   8.564
 1693POPC   C2B24044  42.193  25.130   8.264
 1693POPC   C3B24045  42.113  25.054   7.964
 1693POPC   C4B24046  42.201  25.050   7.664
 1694POPC   NC324047  36.087   1.247   9.464
 1694POPC   PO424048  36.170   1.246   9.164
 1694POPC   GL124049  36.117   1.169   8.864
 1694POPC   GL224050  36.262   1.241   8.864
 1694POPC   C1A24051  36.154   1.171   8.564
 1694POPC   D2A24052  36.153   1.242   8.264
 1694POPC   C3A24053  36.144   1.201   7.964
 1694POPC   C4A24054  36.140   1.206   7.664
 1694POPC   C1B24055  36.303   1.341   8.564
 1694POPC   C2B24056  36.341   1.404   8.264
 1694POPC   C3B24057  36.369   1.387   7.964
 1694POPC   C4B24058  36.352   1.401   7.664
 1695POPC   NC324059  31.483   6.600   9.464
 1695POPC   PO424060  31.424   6.642   9.164
 1695POPC   GL124061  31.501   6.680   8.864
 1695POPC   GL224062  31.569   6.756   8.864
 1695POPC   C1A24063  31.496   6.659   8.564
 1695POPC   D2A24064  31.508   6.660   8.264
 1695POPC   C3A24065  31.471   6.621   7.964
 1695POPC   C4A24066  31.491   6.604   7.664
 1695POPC   C1B24067  31.630   6.825   8.564
 1695POPC   C2B24068  31.567   6.815   8.264
 1695POPC   C3B24069  31.632   6.889   7.964
 1695POPC   C4B24070  31.624   6.852   7.664
 1696POPC   NC324071  29.179  35.326   9.464
 1696POPC   PO424072  29.114  35.397   9.164
 1696POPC   GL124073  29.126  35.371   8.864
 1696POPC   GL224074  29.073  35.432   8.864
 1696POPC   C1A24075  29.139  35.389   8.564
 1696POPC   D2A24076  29.192  35.351   8.264
 1696POPC   C3A24077  29.106  35.397   7.964
 1696POPC   C4A24078  29.106  35.312   7.664
 1696POPC   C1B24079  29.151  35.594   8.564
 1696POPC   C2B24080  29.124  35.594   8.264
 1696POPC   C3B24081  29.149  35.571   7.964
 1696POPC   C4B24082  29.111  35.610   7.664
 1697POPC   NC324083   3.506   5.098   9.464
 1697POPC   PO424084   3.554   5.119   9.164
 1697POPC   GL124085   3.544   5.100   8.864
 1697POPC   GL224086   3.510   5.197   8.864
 1697POPC   C1A24087   3.501   5.111   8.564
 1697POPC   D2A24088   3.589   5.083   8.264
 1697POPC   C3A24089   3.525   5.132   7.964
 1697POPC   C4A24090   3.494   5.113   7.664
 1697POPC   C1B24091   3.384   5.321   8.564
 1697POPC   C2B24092   3.360   5.314   8.264
 1697POPC   C3B24093   3.344   5.285   7.964
 1697POPC   C4B24094   3.343   5.242   7.664
 1698POPC   NC324095  21.387  22.130   9.464
 1698POPC   PO424096  21.425  22.138   9.164
 1698POPC   GL124097  21.363  22.141   8.864
 1698POPC   GL224098  21.370  22.060   8.864
 1698POPC   C1A24099  21.374  22.123   8.564
 1698POPC   D2A24100  21.372  22.178   8.264
 1698POPC   C3A24101  21.425  22.176   7.964
 1698POPC   C4A24102  21.356  22.115   7.664
 1698POPC   C1B24103  21.427  21.924   8.564
 1698POPC   C2B24104  21.401  21.939   8.264
 1698POPC   C3B24105  21.397  21.873   7.964
 1698POPC   C4B24106  21.421  21.888   7.664
 1699POPC   NC324107  42.294  39.210   9.464
 1699POPC   PO424108  42.316  39.227   9.164
 1699POPC   GL124109  42.320  39.213   8.864
 1699POPC   GL224110  42.289  39.288   8.864
 1699POPC   C1A24111  42.302  39.252   8.564
 1699POPC   D2A24112  42.308  39.265   8.264
 1699POPC   C3A24113  42.292  39.255   7.964
 1699POPC   C4A24114  42.332  39.218   7.664
 1699POPC   C1B24115  42.195  39.441   8.564
 1699POPC   C2B24116  42.186  39.444   8.264
 1699POPC   C3B24117  42.133  39.455   7.964
 1699POPC   C4B24118  42.161  39.452   7.664
 1700POPC   NC324119  39.183   1.220   9.464
 1700POPC   PO424120  39.253   1.256   9.164
 1700POPC   GL124121  39.216   1.248   8.864
 1700POPC   GL224122  39.198   1.159   8.864
 1700POPC   C1A24123  39.221   1.207   8.564
 1700POPC   D2A24124  39.187   1.179   8.264
 1700POPC   C3A24125  39.238   1.216   7.964
 1700POPC   C4A24126  39.279   1.215   7.664
 1700POPC   C1B24127  39.042   1.070   8.564
 1700POPC   C2B24128  39.106   1.014   8.264
 1700POPC   C3B24129  39.030   1.036   7.964
 1700POPC   C4B24130  39.103   1.037   7.664
 1701POPC   NC324131  12.077  42.334   9.464
 1701POPC   PO424132  12.052  42.289   9.164
 1701POPC   GL124133  12.061  42.321   8.864
 1701POPC   GL224134  11.997  42.184   8.864
 1701POPC   C1A24135  12.098  42.333   8.564
 1701POPC   D2A24136  12.097  42.331   8.264
 1701POPC   C3A24137  12.073  42.371   7.964
 1701POPC   C4A24138  12.121  42.302   7.664
 1701POPC   C1B24139  12.037  42.045   8.564
 1701POPC   C2B24140  12.002  42.045   8.264
 1701POPC   C3B24141  12.017  42.065   7.964
 1701POPC   C4B24142  11.986  42.047   7.664
 1702POPC   NC324143  32.266  20.607   9.464
 1702POPC   PO424144  32.264  20.601   9.164
 1702POPC   GL124145  32.265  20.608   8.864
 1702POPC   GL224146  32.146  20.692   8.864
 1702POPC   C1A24147  32.289  20.576   8.564
 1702POPC   D2A24148  32.232  20.580   8.264
 1702POPC   C3A24149  32.242  20.574   7.964
 1702POPC   C4A24150  32.245  20.606   7.664
 1702POPC   C1B24151  32.166  20.869   8.564
 1702POPC   C2B24152  32.153  20.861   8.264
 1702POPC   C3B24153  32.086  20.829   7.964
 1702POPC   C4B24154  32.121  20.801   7.664
 1703POPC   NC324155  39.261  17.461   9.464
 1703POPC   PO424156  39.250  17.499   9.164
 1703POPC   GL124157  39.219  17.471   8.864
 1703POPC   GL224158  39.344  17.515   8.864
 1703POPC   C1A24159  39.272  17.536   8.564
 1703POPC   D2A24160  39.219  17.498   8.264
 1703POPC   C3A24161  39.255  17.512   7.964
 1703POPC   C4A24162  39.246  17.556   7.664
 1703POPC   C1B24163  39.482  17.546   8.564
 1703POPC   C2B24164  39.445  17.584   8.264
 1703POPC   C3B24165  39.498  17.564   7.964
 1703POPC   C4B24166  39.430  17.614   7.664
 1704POPC   NC324167  37.707  14.442   9.464
 1704POPC   PO424168  37.701  14.401   9.164
 1704POPC   GL124169  37.640  14.372   8.864
 1704POPC   GL224170  37.706  14.539   8.864
 1704POPC   C1A24171  37.649  14.392   8.564
 1704POPC   D2A24172  37.669  14.437   8.264
 1704POPC   C3A24173  37.640  14.401   7.964
 1704POPC   C4A24174  37.657  14.354   7.664
 1704POPC   C1B24175  37.692  14.611   8.564
 1704POPC   C2B24176  37.693  14.628   8.264
 1704POPC   C3B24177  37.709  14.644   7.964
 1704POPC   C4B24178  37.720  14.611   7.664
 1705POPC   NC324179  30.647  39.239   9.464
 1705POPC   PO424180  30.664  39.262   9.164
 1705POPC   GL124181  30.710  39.267   8.864
 1705POPC   GL224182  30.642  39.177   8.864
 1705POPC   C1A24183  30.701  39.260   8.564
 1705POPC   D2A24184  30.681  39.228   8.264
 1705POPC   C3A24185  30.657  39.235   7.964
 1705POPC   C4A24186  30.719  39.258   7.664
 1705POPC   C1B24187  30.486  39.074   8.564
 1705POPC   C2B24188  30.482  39.080   8.264
 1705POPC   C3B24189  30.511  39.088   7.964
 1705POPC   C4B24190  30.523  39.084   7.664
 1706POPC   NC324191  34.608   8.151   9.464
 1706POPC   PO424192  34.610   8.205   9.164
 1706POPC   GL124193  34.560   8.211   8.864
 1706POPC   GL224194  34.531   8.057   8.864
 1706POPC   C1A24195  34.607   8.147   8.564
 1706POPC   D2A24196  34.624   8.200   8.264
 1706POPC   C3A24197  34.545   8.167   7.964
 1706POPC   C4A24198  34.548   8.234   7.664
 1706POPC   C1B24199  34.583   7.927   8.564
 1706POPC   C2B24200  34.546   7.946   8.264
 1706POPC   C3B24201  34.592   7.943   7.964
 1706POPC   C4B24202  34.541   7.944   7.664
 1707POPC   NC324203  40.038  38.416   9.464
 1707POPC   PO424204  39.975  38.475   9.164
 1707POPC   GL124205  40.054  38.420   8.864
 1707POPC   GL224206  40.132  38.519   8.864
 1707POPC   C1A24207  40.048  38.416   8.564
 1707POPC   D2A24208  39.976  38.428   8.264
 1707POPC   C3A24209  40.040  38.414   7.964
 1707POPC   C4A24210  40.025  38.420   7.664
 1707POPC   C1B24211  40.280  38.515   8.564
 1707POPC   C2B24212  40.226  38.461   8.264
 1707POPC   C3B24213  40.223  38.503   7.964
 1707POPC   C4B24214  40.303  38.463   7.664
 1708POPC   NC324215   7.419  10.476   9.464
 1708POPC   PO424216   7.380  10.566   9.164
 1708POPC   GL124217   7.374  10.552   8.864
 1708POPC   GL224218   7.351  10.432   8.864
 1708POPC   C1A24219   7.394  10.529   8.564
 1708POPC   D2A24220   7.435  10.490   8.264
 1708POPC   C3A24221   7.415  10.559   7.964
 1708POPC   C4A24222   7.371  10.522   7.664
 1708POPC   C1B24223   7.220  10.360   8.564
 1708POPC   C2B24224   7.317  10.315   8.264
 1708POPC   C3B24225   7.270  10.349   7.964
 1708POPC   C4B24226   7.240  10.281   7.664
 1709POPC   NC324227  23.709  31.486   9.464
 1709POPC   PO424228  23.740  31.512   9.164
 1709POPC   GL124229  23.679  31.429   8.864
 1709POPC   GL224230  23.805  31.494   8.864
 1709POPC   C1A24231  23.738  31.496   8.564
 1709POPC   D2A24232  23.717  31.505   8.264
 1709POPC   C3A24233  23.674  31.431   7.964
 1709POPC   C4A24234  23.717  31.458   7.664
 1709POPC   C1B24235  23.910  31.592   8.564
 1709POPC   C2B24236  23.971  31.566   8.264
 1709POPC   C3B24237  23.937  31.574   7.964
 1709POPC   C4B24238  23.929  31.622   7.664
 1710POPC   NC324239  19.813  42.332   9.464
 1710POPC   PO424240  19.879  42.302   9.164
 1710POPC   GL124241  19.786  42.371   8.864
 1710POPC   GL224242  19.928  42.316   8.864
 1710POPC   C1A24243  19.879  42.379   8.564
 1710POPC   D2A24244  19.838  42.302   8.264
 1710POPC   C3A24245  19.787  42.337   7.964
 1710POPC   C4A24246  19.794  42.316   7.664
 1710POPC   C1B24247  20.109  42.306   8.564
 1710POPC   C2B24248  20.079  42.314   8.264
 1710POPC   C3B24249  20.068  42.321   7.964
 1710POPC   C4B24250  20.069  42.272   7.664
 1711POPC   NC324251  26.073   0.480   9.464
 1711POPC   PO424252  26.047   0.481   9.164
 1711POPC   GL124253  26.069   0.412   8.864
 1711POPC   GL224254  26.208   0.446   8.864
 1711POPC   C1A24255  26.050   0.417   8.564
 1711POPC   D2A24256  26.069   0.474   8.264
 1711POPC   C3A24257  26.009   0.463   7.964
 1711POPC   C4A24258  26.061   0.420   7.664
 1711POPC   C1B24259  26.270   0.462   8.564
 1711POPC   C2B24260  26.304   0.439   8.264
 1711POPC   C3B24261  26.263   0.527   7.964
 1711POPC   C4B24262  26.330   0.484   7.664
 1712POPC   NC324263  35.390  29.918   9.464
 1712POPC   PO424264  35.333  29.875   9.164
 1712POPC   GL124265  35.318  29.894   8.864
 1712POPC   GL224266  35.299  29.945   8.864
 1712POPC   C1A24267  35.312  29.929   8.564
 1712POPC   D2A24268  35.355  29.920   8.264
 1712POPC   C3A24269  35.389  29.891   7.964
 1712POPC   C4A24270  35.313  29.918   7.664
 1712POPC   C1B24271  35.127  30.085   8.564
 1712POPC   C2B24272  35.161  30.042   8.264
 1712POPC   C3B24273  35.179  30.035   7.964
 1712POPC   C4B24274  35.155  30.106   7.664
 1713POPC   NC324275  41.592  29.181   9.464
 1713POPC   PO424276  41.546  29.171   9.164
 1713POPC   GL124277  41.532  29.105   8.864
 1713POPC   GL224278  41.508  29.079   8.864
 1713POPC   C1A24279  41.573  29.187   8.564
 1713POPC   D2A24280  41.607  29.147   8.264
 1713POPC   C3A24281  41.562  29.120   7.964
 1713POPC   C4A24282  41.601  29.152   7.664
 1713POPC   C1B24283  41.474  28.946   8.564
 1713POPC   C2B24284  41.405  28.953   8.264
 1713POPC   C3B24285  41.462  28.882   7.964
 1713POPC   C4B24286  41.414  28.944   7.664
 1714POPC   NC324287  22.894  31.464   9.464
 1714POPC   PO424288  22.891  31.485   9.164
 1714POPC   GL124289  22.971  31.504   8.864
 1714POPC   GL224290  23.028  31.597   8.864
 1714POPC   C1A24291  22.932  31.486   8.564
 1714POPC   D2A24292  22.953  31.436   8.264
 1714POPC   C3A24293  22.969  31.430   7.964
 1714POPC   C4A24294  22.928  31.492   7.664
 1714POPC   C1B24295  23.116  31.623   8.564
 1714POPC   C2B24296  23.103  31.647   8.264
 1714POPC   C3B24297  23.084  31.617   7.964
 1714POPC   C4B24298  23.161  31.633   7.664
 1715POPC   NC324299  25.995   4.289   9.464
 1715POPC   PO424300  26.071   4.296   9.164
 1715POPC   GL124301  26.043   4.340   8.864
 1715POPC   GL224302  26.197   4.420   8.864
 1715POPC   C1A24303  26.006   4.327   8.564
 1715POPC   D2A24304  26.035   4.315   8.264
 1715POPC   C3A24305  26.030   4.322   7.964
 1715POPC   C4A24306  26.082   4.311   7.664
 1715POPC   C1B24307  26.234   4.427   8.564
 1715POPC   C2B24308  26.290   4.476   8.264
 1715POPC   C3B24309  26.254   4.451   7.964
 1715POPC   C4B24310  26.300   4.466   7.664
 1716POPC   NC324311  33.054  33.041   9.464
 1716POPC   PO424312  32.992  33.055   9.164
 1716POPC   GL124313  33.012  32.976   8.864
 1716POPC   GL224314  33.101  32.994   8.864
 1716POPC   C1A24315  33.055  32.999   8.564
 1716POPC   D2A24316  32.977  32.989   8.264
 1716POPC   C3A24317  33.008  33.009   7.964
 1716POPC   C4A24318  33.024  32.991   7.664
 1716POPC   C1B24319  33.275  33.067   8.564
 1716POPC   C2B24320  33.267  33.039   8.264
 1716POPC   C3B24321  33.284  32.992   7.964
 1716POPC   C4B24322  33.289  33.031   7.664
 1717POPC   NC324323   4.277  33.757   9.464
 1717POPC   PO424324   4.344  33.771   9.164
 1717POPC   GL124325   4.307  33.837   8.864
 1717POPC   GL224326   4.338  33.920   8.864
 1717POPC   C1A24327   4.344  33.778   8.564
 1717POPC   D2A24328   4.319  33.798   8.264
 1717POPC   C3A24329   4.314  33.775   7.964
 1717POPC   C4A24330   4.366  33.786   7.664
 1717POPC   C1B24331   4.245  34.008   8.564
 1717POPC   C2B24332   4.279  34.073   8.264
 1717POPC   C3B24333   4.273  34.059   7.964
 1717POPC   C4B24334   4.317  34.065   7.664
 1718POPC   NC324335   7.421  39.219   9.464
 1718POPC   PO424336   7.449  39.258   9.164
 1718POPC   GL124337   7.410  39.277   8.864
 1718POPC   GL224338   7.398  39.320   8.864
 1718POPC   C1A24339   7.390  39.194   8.564
 1718POPC   D2A24340   7.464  39.242   8.264
 1718POPC   C3A24341   7.390  39.203   7.964
 1718POPC   C4A24342   7.387  39.233   7.664
 1718POPC   C1B24343   7.361  39.520   8.564
 1718POPC   C2B24344   7.442  39.461   8.264
 1718POPC   C3B24345   7.360  39.495   7.964
 1718POPC   C4B24346   7.394  39.507   7.664
 1719POPC   NC324347  11.260  10.572   9.464
 1719POPC   PO424348  11.335  10.503   9.164
 1719POPC   GL124349  11.345  10.553   8.864
 1719POPC   GL224350  11.333  10.629   8.864
 1719POPC   C1A24351  11.298  10.503   8.564
 1719POPC   D2A24352  11.286  10.561   8.264
 1719POPC   C3A24353  11.287  10.498   7.964
 1719POPC   C4A24354  11.297  10.478   7.664
 1719POPC   C1B24355  11.352  10.757   8.564
 1719POPC   C2B24356  11.360  10.813   8.264
 1719POPC   C3B24357  11.295  10.737   7.964
 1719POPC   C4B24358  11.306  10.724   7.664
 1720POPC   NC324359  10.556  40.825   9.464
 1720POPC   PO424360  10.562  40.742   9.164
 1720POPC   GL124361  10.499  40.777   8.864
 1720POPC   GL224362  10.446  40.781   8.864
 1720POPC   C1A24363  10.499  40.822   8.564
 1720POPC   D2A24364  10.520  40.790   8.264
 1720POPC   C3A24365  10.500  40.767   7.964
 1720POPC   C4A24366  10.491  40.827   7.664
 1720POPC   C1B24367  10.324  40.830   8.564
 1720POPC   C2B24368  10.266  40.791   8.264
 1720POPC   C3B24369  10.254  40.808   7.964
 1720POPC   C4B24370  10.240  40.865   7.664
 1721POPC   NC324371  23.725   4.313   9.464
 1721POPC   PO424372  23.695   4.315   9.164
 1721POPC   GL124373  23.677   4.275   8.864
 1721POPC   GL224374  23.689   4.164   8.864
 1721POPC   C1A24375  23.702   4.349   8.564
 1721POPC   D2A24376  23.669   4.327   8.264
 1721POPC   C3A24377  23.691   4.358   7.964
 1721POPC   C4A24378  23.737   4.287   7.664
 1721POPC   C1B24379  23.760   4.117   8.564
 1721POPC   C2B24380  23.702   4.111   8.264
 1721POPC   C3B24381  23.699   4.062   7.964
 1721POPC   C4B24382  23.735   4.086   7.664
 1722POPC   NC324383  34.541  23.734   9.464
 1722POPC   PO424384  34.578  23.759   9.164
 1722POPC   GL124385  34.572  23.683   8.864
 1722POPC   GL224386  34.687  23.842   8.864
 1722POPC   C1A24387  34.602  23.691   8.564
 1722POPC   D2A24388  34.599  23.695   8.264
 1722POPC   C3A24389  34.607  23.730   7.964
 1722POPC   C4A24390  34.566  23.746   7.664
 1722POPC   C1B24391  34.733  23.883   8.564
 1722POPC   C2B24392  34.712  23.973   8.264
 1722POPC   C3B24393  34.665  23.933   7.964
 1722POPC   C4B24394  34.704  23.951   7.664
 1723POPC   NC324395  10.541  41.583   9.464
 1723POPC   PO424396  10.556  41.608   9.164
 1723POPC   GL124397  10.498  41.542   8.864
 1723POPC   GL224398  10.434  41.550   8.864
 1723POPC   C1A24399  10.485  41.566   8.564
 1723POPC   D2A24400  10.483  41.519   8.264
 1723POPC   C3A24401  10.568  41.544   7.964
 1723POPC   C4A24402  10.479  41.586   7.664
 1723POPC   C1B24403  10.277  41.581   8.564
 1723POPC   C2B24404  10.320  41.632   8.264
 1723POPC   C3B24405  10.246  41.594   7.964
 1723POPC   C4B24406  10.231  41.595   7.664
 1724POPC   NC324407  10.478  36.903   9.464
 1724POPC   PO424408  10.519  36.908   9.164
 1724POPC   GL124409  10.555  36.931   8.864
 1724POPC   GL224410  10.619  37.002   8.864
 1724POPC   C1A24411  10.532  36.915   8.564
 1724POPC   D2A24412  10.501  36.879   8.264
 1724POPC   C3A24413  10.477  36.865   7.964
 1724POPC   C4A24414  10.529  36.900   7.664
 1724POPC   C1B24415  10.684  37.043   8.564
 1724POPC   C2B24416  10.733  37.065   8.264
 1724POPC   C3B24417  10.751  37.029   7.964
 1724POPC   C4B24418  10.753  37.001   7.664
 1725POPC   NC324419  33.828  28.372   9.464
 1725POPC   PO424420  33.797  28.340   9.164
 1725POPC   GL124421  33.751  28.350   8.864
 1725POPC   GL224422  33.949  28.348   8.864
 1725POPC   C1A24423  33.768  28.369   8.564
 1725POPC   D2A24424  33.798  28.366   8.264
 1725POPC   C3A24425  33.769  28.375   7.964
 1725POPC   C4A24426  33.840  28.386   7.664
 1725POPC   C1B24427  34.068  28.274   8.564
 1725POPC   C2B24428  34.034  28.318   8.264
 1725POPC   C3B24429  34.010  28.337   7.964
 1725POPC   C4B24430  33.999  28.295   7.664
 1726POPC   NC324431  17.476  10.536   9.464
 1726POPC   PO424432  17.481  10.556   9.164
 1726POPC   GL124433  17.479  10.476   8.864
 1726POPC   GL224434  17.533  10.360   8.864
 1726POPC   C1A24435  17.555  10.492   8.564
 1726POPC   D2A24436  17.496  10.565   8.264
 1726POPC   C3A24437  17.524  10.550   7.964
 1726POPC   C4A24438  17.457  10.559   7.664
 1726POPC   C1B24439  17.563  10.296   8.564
 1726POPC   C2B24440  17.559  10.304   8.264
 1726POPC   C3B24441  17.550  10.287   7.964
 1726POPC   C4B24442  17.594  10.258   7.664
 1727POPC   NC324443  19.107  13.583   9.464
 1727POPC   PO424444  19.014  13.634   9.164
 1727POPC   GL124445  19.064  13.625   8.864
 1727POPC   GL224446  18.906  13.640   8.864
 1727POPC   C1A24447  19.015  13.617   8.564
 1727POPC   D2A24448  19.051  13.669   8.264
 1727POPC   C3A24449  19.057  13.647   7.964
 1727POPC   C4A24450  19.108  13.655   7.664
 1727POPC   C1B24451  18.836  13.677   8.564
 1727POPC   C2B24452  18.793  13.661   8.264
 1727POPC   C3B24453  18.784  13.596   7.964
 1727POPC   C4B24454  18.833  13.677   7.664
 1728POPC   NC324455  41.543   5.861   9.464
 1728POPC   PO424456  41.603   5.838   9.164
 1728POPC   GL124457  41.511   5.883   8.864
 1728POPC   GL224458  41.593   5.785   8.864
 1728POPC   C1A24459  41.534   5.845   8.564
 1728POPC   D2A24460  41.607   5.879   8.264
 1728POPC   C3A24461  41.525   5.839   7.964
 1728POPC   C4A24462  41.597   5.858   7.664
 1728POPC   C1B24463  41.565   5.575   8.564
 1728POPC   C2B24464  41.578   5.632   8.264
 1728POPC   C3B24465  41.570   5.624   7.964
 1728POPC   C4B24466  41.553   5.635   7.664
 1729POPC   NC324467   5.086   0.427   9.464
 1729POPC   PO424468   5.063   0.421   9.164
 1729POPC   GL124469   5.109   0.416   8.864
 1729POPC   GL224470   4.974   0.368   8.864
 1729POPC   C1A24471   5.071   0.435   8.564
 1729POPC   D2A24472   5.116   0.398   8.264
 1729POPC   C3A24473   5.069   0.390   7.964
 1729POPC   C4A24474   5.117   0.405   7.664
 1729POPC   C1B24475   4.999   0.270   8.564
 1729POPC   C2B24476   4.976   0.242   8.264
 1729POPC   C3B24477   4.937   0.203   7.964
 1729POPC   C4B24478   4.939   0.183   7.664
 1730POPC   NC324479  38.430  26.026   9.464
 1730POPC   PO424480  38.414  26.088   9.164
 1730POPC   GL124481  38.451  26.004   8.864
 1730POPC   GL224482  38.364  26.063   8.864
 1730POPC   C1A24483  38.415  26.080   8.564
 1730POPC   D2A24484  38.490  26.065   8.264
 1730POPC   C3A24485  38.462  26.047   7.964
 1730POPC   C4A24486  38.410  26.028   7.664
 1730POPC   C1B24487  38.210  26.042   8.564
 1730POPC   C2B24488  38.213  26.026   8.264
 1730POPC   C3B24489  38.172  26.081   7.964
 1730POPC   C4B24490  38.176  26.049   7.664
 1731POPC   NC324491  15.942  39.199   9.464
 1731POPC   PO424492  15.938  39.262   9.164
 1731POPC   GL124493  15.926  39.236   8.864
 1731POPC   GL224494  15.858  39.193   8.864
 1731POPC   C1A24495  15.991  39.264   8.564
 1731POPC   D2A24496  15.925  39.248   8.264
 1731POPC   C3A24497  15.910  39.230   7.964
 1731POPC   C4A24498  15.917  39.227   7.664
 1731POPC   C1B24499  15.689  39.084   8.564
 1731POPC   C2B24500  15.765  39.139   8.264
 1731POPC   C3B24501  15.694  39.124   7.964
 1731POPC   C4B24502  15.775  39.131   7.664
 1732POPC   NC324503  14.422  18.318   9.464
 1732POPC   PO424504  14.451  18.240   9.164
 1732POPC   GL124505  14.444  18.286   8.864
 1732POPC   GL224506  14.387  18.203   8.864
 1732POPC   C1A24507  14.356  18.245   8.564
 1732POPC   D2A24508  14.394  18.311   8.264
 1732POPC   C3A24509  14.360  18.292   7.964
 1732POPC   C4A24510  14.369  18.235   7.664
 1732POPC   C1B24511  14.411  18.001   8.564
 1732POPC   C2B24512  14.361  18.001   8.264
 1732POPC   C3B24513  14.334  18.078   7.964
 1732POPC   C4B24514  14.347  17.994   7.664
 1733POPC   NC324515  44.701   8.997   9.464
 1733POPC   PO424516  44.684   8.967   9.164
 1733POPC   GL124517  44.621   8.969   8.864
 1733POPC   GL224518  44.769   8.863   8.864
 1733POPC   C1A24519  44.637   8.924   8.564
 1733POPC   D2A24520  44.702   9.002   8.264
 1733POPC   C3A24521  44.711   9.014   7.964
 1733POPC   C4A24522  44.678   9.001   7.664
 1733POPC   C1B24523  44.744   8.716   8.564
 1733POPC   C2B24524  44.771   8.709   8.264
 1733POPC   C3B24525  44.793   8.799   7.964
 1733POPC   C4B24526  44.804   8.740   7.664
 1734POPC   NC324527  17.532   1.171   9.464
 1734POPC   PO424528  17.547   1.210   9.164
 1734POPC   GL124529  17.464   1.173   8.864
 1734POPC   GL224530  17.506   1.122   8.864
 1734POPC   C1A24531  17.540   1.247   8.564
 1734POPC   D2A24532  17.519   1.252   8.264
 1734POPC   C3A24533  17.478   1.165   7.964
 1734POPC   C4A24534  17.474   1.234   7.664
 1734POPC   C1B24535  17.500   0.948   8.564
 1734POPC   C2B24536  17.463   0.940   8.264
 1734POPC   C3B24537  17.515   0.989   7.964
 1734POPC   C4B24538  17.441   0.949   7.664
 1735POPC   NC324539  10.572  33.830   9.464
 1735POPC   PO424540  10.483  33.805   9.164
 1735POPC   GL124541  10.544  33.791   8.864
 1735POPC   GL224542  10.412  33.855   8.864
 1735POPC   C1A24543  10.553  33.819   8.564
 1735POPC   D2A24544  10.552  33.821   8.264
 1735POPC   C3A24545  10.572  33.798   7.964
 1735POPC   C4A24546  10.562  33.845   7.664
 1735POPC   C1B24547  10.276  33.813   8.564
 1735POPC   C2B24548  10.248  33.807   8.264
 1735POPC   C3B24549  10.235  33.855   7.964
 1735POPC   C4B24550  10.317  33.845   7.664
 1736POPC   NC324551  26.835  42.383   9.464
 1736POPC   PO424552  26.798  42.368   9.164
 1736POPC   GL124553  26.831  42.348   8.864
 1736POPC   GL224554  26.928  42.288   8.864
 1736POPC   C1A24555  26.833  42.360   8.564
 1736POPC   D2A24556  26.846  42.361   8.264
 1736POPC   C3A24557  26.797  42.298   7.964
 1736POPC   C4A24558  26.801  42.322   7.664
 1736POPC   C1B24559  27.051  42.201   8.564
 1736POPC   C2B24560  27.053  42.133   8.264
 1736POPC   C3B24561  26.995  42.172   7.964
 1736POPC   C4B24562  27.026  42.126   7.664
 1737POPC   NC324563  43.934  34.593   9.464
 1737POPC   PO424564  43.851  34.573   9.164
 1737POPC   GL124565  43.855  34.612   8.864
 1737POPC   GL224566  44.023  34.545   8.864
 1737POPC   C1A24567  43.854  34.594   8.564
 1737POPC   D2A24568  43.904  34.620   8.264
 1737POPC   C3A24569  43.887  34.618   7.964
 1737POPC   C4A24570  43.852  34.599   7.664
 1737POPC   C1B24571  44.154  34.566   8.564
 1737POPC   C2B24572  44.117  34.576   8.264
 1737POPC   C3B24573  44.156  34.519   7.964
 1737POPC   C4B24574  44.121  34.491   7.664
 1738POPC   NC324575  42.364  20.638   9.464
 1738POPC   PO424576  42.373  20.575   9.164
 1738POPC   GL124577  42.310  20.596   8.864
 1738POPC   GL224578  42.261  20.693   8.864
 1738POPC   C1A24579  42.314  20.659   8.564
 1738POPC   D2A24580  42.348  20.599   8.264
 1738POPC   C3A24581  42.375  20.602   7.964
 1738POPC   C4A24582  42.343  20.568   7.664
 1738POPC   C1B24583  42.202  20.809   8.564
 1738POPC   C2B24584  42.267  20.817   8.264
 1738POPC   C3B24585  42.269  20.816   7.964
 1738POPC   C4B24586  42.204  20.813   7.664
 1739POPC   NC324587  43.093   5.082   9.464
 1739POPC   PO424588  43.130   5.089   9.164
 1739POPC   GL124589  43.149   5.092   8.864
 1739POPC   GL224590  43.219   5.074   8.864
 1739POPC   C1A24591  43.104   5.073   8.564
 1739POPC   D2A24592  43.089   5.086   8.264
 1739POPC   C3A24593  43.068   5.134   7.964
 1739POPC   C4A24594  43.064   5.129   7.664
 1739POPC   C1B24595  43.334   4.965   8.564
 1739POPC   C2B24596  43.349   4.949   8.264
 1739POPC   C3B24597  43.362   4.937   7.964
 1739POPC   C4B24598  43.374   4.958   7.664
 1740POPC   NC324599  15.157   2.788   9.464
 1740POPC   PO424600  15.197   2.798   9.164
 1740POPC   GL124601  15.215   2.760   8.864
 1740POPC   GL224602  15.211   2.663   8.864
 1740POPC   C1A24603  15.133   2.742   8.564
 1740POPC   D2A24604  15.192   2.755   8.264
 1740POPC   C3A24605  15.223   2.808   7.964
 1740POPC   C4A24606  15.163   2.751   7.664
 1740POPC   C1B24607  15.277   2.549   8.564
 1740POPC   C2B24608  15.288   2.589   8.264
 1740POPC   C3B24609  15.347   2.520   7.964
 1740POPC   C4B24610  15.324   2.530   7.664
 1741POPC   NC324611   7.426  24.482   9.464
 1741POPC   PO424612   7.460  24.462   9.164
 1741POPC   GL124613   7.398  24.509   8.864
 1741POPC   GL224614   7.327  24.420   8.864
 1741POPC   C1A24615   7.460  24.530   8.564
 1741POPC   D2A24616   7.397  24.491   8.264
 1741POPC   C3A24617   7.388  24.523   7.964
 1741POPC   C4A24618   7.458  24.523   7.664
 1741POPC   C1B24619   7.181  24.471   8.564
 1741POPC   C2B24620   7.203  24.428   8.264
 1741POPC   C3B24621   7.167  24.408   7.964
 1741POPC   C4B24622   7.212  24.453   7.664
 1742POPC   NC324623  34.601  12.828   9.464
 1742POPC   PO424624  34.534  12.859   9.164
 1742POPC   GL124625  34.577  12.821   8.864
 1742POPC   GL224626  34.486  12.746   8.864
 1742POPC   C1A24627  34.590  12.819   8.564
 1742POPC   D2A24628  34.555  12.820   8.264
 1742POPC   C3A24629  34.597  12.867   7.964
 1742POPC   C4A24630  34.538  12.854   7.664
 1742POPC   C1B24631  34.468  12.686   8.564
 1742POPC   C2B24632  34.479  12.680   8.264
 1742POPC   C3B24633  34.401  12.691   7.964
 1742POPC   C4B24634  34.416  12.616   7.664
 1743POPC   NC324635  33.037  19.829   9.464
 1743POPC   PO424636  33.050  19.796   9.164
 1743POPC   GL124637  32.988  19.878   8.864
 1743POPC   GL224638  33.155  19.921   8.864
 1743POPC   C1A24639  33.029  19.796   8.564
 1743POPC   D2A24640  33.018  19.868   8.264
 1743POPC   C3A24641  32.994  19.847   7.964
 1743POPC   C4A24642  33.018  19.861   7.664
 1743POPC   C1B24643  33.228  19.920   8.564
 1743POPC   C2B24644  33.231  19.959   8.264
 1743POPC   C3B24645  33.293  19.892   7.964
 1743POPC   C4B24646  33.251  19.914   7.664
 1744POPC   NC324647  31.448  40.810   9.464
 1744POPC   PO424648  31.509  40.766   9.164
 1744POPC   GL124649  31.521  40.746   8.864
 1744POPC   GL224650  31.550  40.799   8.864
 1744POPC   C1A24651  31.423  40.800   8.564
 1744POPC   D2A24652  31.452  40.818   8.264
 1744POPC   C3A24653  31.441  40.791   7.964
 1744POPC   C4A24654  31.463  40.832   7.664
 1744POPC   C1B24655  31.740  40.791   8.564
 1744POPC   C2B24656  31.724  40.801   8.264
 1744POPC   C3B24657  31.710  40.733   7.964
 1744POPC   C4B24658  31.723  40.769   7.664
 1745POPC   NC324659  12.843  28.397   9.464
 1745POPC   PO424660  12.894  28.401   9.164
 1745POPC   GL124661  12.901  28.404   8.864
 1745POPC   GL224662  12.928  28.409   8.864
 1745POPC   C1A24663  12.846  28.398   8.564
 1745POPC   D2A24664  12.863  28.402   8.264
 1745POPC   C3A24665  12.822  28.336   7.964
 1745POPC   C4A24666  12.843  28.384   7.664
 1745POPC   C1B24667  13.078  28.350   8.564
 1745POPC   C2B24668  13.086  28.387   8.264
 1745POPC   C3B24669  13.073  28.345   7.964
 1745POPC   C4B24670  13.131  28.416   7.664
 1746POPC   NC324671  33.779  32.276   9.464
 1746POPC   PO424672  33.842  32.287   9.164
 1746POPC   GL124673  33.834  32.248   8.864
 1746POPC   GL224674  33.697  32.204   8.864
 1746POPC   C1A24675  33.762  32.249   8.564
 1746POPC   D2A24676  33.848  32.291   8.264
 1746POPC   C3A24677  33.832  32.297   7.964
 1746POPC   C4A24678  33.815  32.221   7.664
 1746POPC   C1B24679  33.655  32.056   8.564
 1746POPC   C2B24680  33.612  32.100   8.264
 1746POPC   C3B24681  33.634  32.076   7.964
 1746POPC   C4B24682  33.649  32.103   7.664
 1747POPC   NC324683  29.893  40.051   9.464
 1747POPC   PO424684  29.910  40.011   9.164
 1747POPC   GL124685  29.904  40.056   8.864
 1747POPC   GL224686  29.873  39.868   8.864
 1747POPC   C1A24687  29.887  40.001   8.564
 1747POPC   D2A24688  29.898  39.959   8.264
 1747POPC   C3A24689  29.927  39.986   7.964
 1747POPC   C4A24690  29.890  39.969   7.664
 1747POPC   C1B24691  29.725  39.833   8.564
 1747POPC   C2B24692  29.813  39.849   8.264
 1747POPC   C3B24693  29.742  39.847   7.964
 1747POPC   C4B24694  29.743  39.839   7.664
 1748POPC   NC324695  22.202  24.513   9.464
 1748POPC   PO424696  22.162  24.498   9.164
 1748POPC   GL124697  22.130  24.533   8.864
 1748POPC   GL224698  22.076  24.598   8.864
 1748POPC   C1A24699  22.124  24.517   8.564
 1748POPC   D2A24700  22.146  24.526   8.264
 1748POPC   C3A24701  22.186  24.525   7.964
 1748POPC   C4A24702  22.209  24.469   7.664
 1748POPC   C1B24703  22.018  24.668   8.564
 1748POPC   C2B24704  22.079  24.686   8.264
 1748POPC   C3B24705  22.109  24.740   7.964
 1748POPC   C4B24706  22.033  24.732   7.664
 1749POPC   NC324707  25.238  40.755   9.464
 1749POPC   PO424708  25.237  40.759   9.164
 1749POPC   GL124709  25.291  40.781   8.864
 1749POPC   GL224710  25.396  40.821   8.864
 1749POPC   C1A24711  25.261  40.801   8.564
 1749POPC   D2A24712  25.225  40.825   8.264
 1749POPC   C3A24713  25.244  40.742   7.964
 1749POPC   C4A24714  25.270  40.786   7.664
 1749POPC   C1B24715  25.506  40.894   8.564
 1749POPC   C2B24716  25.485  40.861   8.264
 1749POPC   C3B24717  25.467  40.835   7.964
 1749POPC   C4B24718  25.470  40.904   7.664
 1750POPC   NC324719   8.946  40.769   9.464
 1750POPC   PO424720   8.936  40.788   9.164
 1750POPC   GL124721   8.982  40.741   8.864
 1750POPC   GL224722   8.859  40.694   8.864
 1750POPC   C1A24723   8.988  40.829   8.564
 1750POPC   D2A24724   9.004  40.826   8.264
 1750POPC   C3A24725   8.959  40.810   7.964
 1750POPC   C4A24726   8.930  40.758   7.664
 1750POPC   C1B24727   8.776  40.589   8.564
 1750POPC   C2B24728   8.764  40.605   8.264
 1750POPC   C3B24729   8.767  40.645   7.964
 1750POPC   C4B24730   8.751  40.628   7.664
 1751POPC   NC324731  17.514  20.595   9.464
 1751POPC   PO424732  17.485  20.652   9.164
 1751POPC   GL124733  17.556  20.630   8.864
 1751POPC   GL224734  17.625  20.543   8.864
 1751POPC   C1A24735  17.538  20.657   8.564
 1751POPC   D2A24736  17.519  20.592   8.264
 1751POPC   C3A24737  17.538  20.562   7.964
 1751POPC   C4A24738  17.557  20.616   7.664
 1751POPC   C1B24739  17.758  20.444   8.564
 1751POPC   C2B24740  17.776  20.502   8.264
 1751POPC   C3B24741  17.711  20.531   7.964
 1751POPC   C4B24742  17.748  20.499   7.664
 1752POPC   NC324743  36.093   3.565   9.464
 1752POPC   PO424744  36.103   3.517   9.164
 1752POPC   GL124745  36.119   3.567   8.864
 1752POPC   GL224746  36.241   3.461   8.864
 1752POPC   C1A24747  36.099   3.583   8.564
 1752POPC   D2A24748  36.176   3.514   8.264
 1752POPC   C3A24749  36.109   3.578   7.964
 1752POPC   C4A24750  36.108   3.560   7.664
 1752POPC   C1B24751  36.312   3.330   8.564
 1752POPC   C2B24752  36.254   3.343   8.264
 1752POPC   C3B24753  36.321   3.358   7.964
 1752POPC   C4B24754  36.261   3.360   7.664
 1753POPC   NC324755  33.042  20.633   9.464
 1753POPC   PO424756  32.989  20.602   9.164
 1753POPC   GL124757  32.991  20.589   8.864
 1753POPC   GL224758  32.902  20.678   8.864
 1753POPC   C1A24759  33.018  20.655   8.564
 1753POPC   D2A24760  33.053  20.618   8.264
 1753POPC   C3A24761  32.977  20.656   7.964
 1753POPC   C4A24762  33.061  20.607   7.664
 1753POPC   C1B24763  32.795  20.658   8.564
 1753POPC   C2B24764  32.757  20.657   8.264
 1753POPC   C3B24765  32.742  20.708   7.964
 1753POPC   C4B24766  32.792  20.646   7.664
 1754POPC   NC324767  43.923  14.421   9.464
 1754POPC   PO424768  43.874  14.446   9.164
 1754POPC   GL124769  43.850  14.388   8.864
 1754POPC   GL224770  43.729  14.450   8.864
 1754POPC   C1A24771  43.911  14.423   8.564
 1754POPC   D2A24772  43.899  14.364   8.264
 1754POPC   C3A24773  43.887  14.364   7.964
 1754POPC   C4A24774  43.845  14.424   7.664
 1754POPC   C1B24775  43.611  14.488   8.564
 1754POPC   C2B24776  43.648  14.427   8.264
 1754POPC   C3B24777  43.628  14.470   7.964
 1754POPC   C4B24778  43.684  14.459   7.664
 1755POPC   NC324779  15.195   2.012   9.464
 1755POPC   PO424780  15.173   1.965   9.164
 1755POPC   GL124781  15.170   2.014   8.864
 1755POPC   GL224782  15.014   1.978   8.864
 1755POPC   C1A24783  15.161   2.012   8.564
 1755POPC   D2A24784  15.189   1.941   8.264
 1755POPC   C3A24785  15.148   2.006   7.964
 1755POPC   C4A24786  15.221   2.022   7.664
 1755POPC   C1B24787  14.932   1.885   8.564
 1755POPC   C2B24788  14.974   1.922   8.264
 1755POPC   C3B24789  14.951   1.904   7.964
 1755POPC   C4B24790  14.902   1.855   7.664
 1756POPC   NC324791  15.945  33.825   9.464
 1756POPC   PO424792  15.970  33.808   9.164
 1756POPC   GL124793  15.939  33.793   8.864
 1756POPC   GL224794  15.981  33.893   8.864
 1756POPC   C1A24795  15.991  33.786   8.564
 1756POPC   D2A24796  15.999  33.819   8.264
 1756POPC   C3A24797  15.939  33.765   7.964
 1756POPC   C4A24798  15.961  33.818   7.664
 1756POPC   C1B24799  15.960  34.072   8.564
 1756POPC   C2B24800  15.912  34.015   8.264
 1756POPC   C3B24801  15.886  34.007   7.964
 1756POPC   C4B24802  15.925  34.087   7.664
 1757POPC   NC324803  33.753  31.490   9.464
 1757POPC   PO424804  33.827  31.512   9.164
 1757POPC   GL124805  33.805  31.493   8.864
 1757POPC   GL224806  33.901  31.436   8.864
 1757POPC   C1A24807  33.822  31.510   8.564
 1757POPC   D2A24808  33.799  31.487   8.264
 1757POPC   C3A24809  33.827  31.457   7.964
 1757POPC   C4A24810  33.822  31.499   7.664
 1757POPC   C1B24811  34.028  31.454   8.564
 1757POPC   C2B24812  34.033  31.437   8.264
 1757POPC   C3B24813  34.033  31.508   7.964
 1757POPC   C4B24814  34.015  31.430   7.664
 1758POPC   NC324815  20.593  26.789   9.464
 1758POPC   PO424816  20.593  26.771   9.164
 1758POPC   GL124817  20.566  26.841   8.864
 1758POPC   GL224818  20.691  26.756   8.864
 1758POPC   C1A24819  20.585  26.794   8.564
 1758POPC   D2A24820  20.652  26.864   8.264
 1758POPC   C3A24821  20.573  26.837   7.964
 1758POPC   C4A24822  20.580  26.813   7.664
 1758POPC   C1B24823  20.777  26.613   8.564
 1758POPC   C2B24824  20.801  26.670   8.264
 1758POPC   C3B24825  20.741  26.649   7.964
 1758POPC   C4B24826  20.727  26.641   7.664
 1759POPC   NC324827  29.925  36.177   9.464
 1759POPC   PO424828  29.916  36.133   9.164
 1759POPC   GL124829  29.907  36.149   8.864
 1759POPC   GL224830  30.067  36.122   8.864
 1759POPC   C1A24831  29.945  36.169   8.564
 1759POPC   D2A24832  29.902  36.174   8.264
 1759POPC   C3A24833  29.886  36.129   7.964
 1759POPC   C4A24834  29.902  36.167   7.664
 1759POPC   C1B24835  30.209  36.138   8.564
 1759POPC   C2B24836  30.171  36.185   8.264
 1759POPC   C3B24837  30.119  36.164   7.964
 1759POPC   C4B24838  30.181  36.209   7.664
 1760POPC   NC324839  14.442   6.667   9.464
 1760POPC   PO424840  14.423   6.690   9.164
 1760POPC   GL124841  14.410   6.636   8.864
 1760POPC   GL224842  14.445   6.530   8.864
 1760POPC   C1A24843  14.364   6.605   8.564
 1760POPC   D2A24844  14.445   6.661   8.264
 1760POPC   C3A24845  14.394   6.676   7.964
 1760POPC   C4A24846  14.361   6.636   7.664
 1760POPC   C1B24847  14.525   6.372   8.564
 1760POPC   C2B24848  14.493   6.438   8.264
 1760POPC   C3B24849  14.516   6.382   7.964
 1760POPC   C4B24850  14.561   6.465   7.664
 1761POPC   NC324851   1.993  41.584   9.464
 1761POPC   PO424852   1.978  41.596   9.164
 1761POPC   GL124853   1.951  41.525   8.864
 1761POPC   GL224854   1.950  41.700   8.864
 1761POPC   C1A24855   2.000  41.567   8.564
 1761POPC   D2A24856   2.035  41.522   8.264
 1761POPC   C3A24857   1.957  41.574   7.964
 1761POPC   C4A24858   2.019  41.570   7.664
 1761POPC   C1B24859   2.054  41.785   8.564
 1761POPC   C2B24860   2.023  41.775   8.264
 1761POPC   C3B24861   1.986  41.856   7.964
 1761POPC   C4B24862   2.035  41.784   7.664
 1762POPC   NC324863  39.992  12.812   9.464
 1762POPC   PO424864  39.967  12.892   9.164
 1762POPC   GL124865  39.977  12.826   8.864
 1762POPC   GL224866  40.119  12.767   8.864
 1762POPC   C1A24867  39.987  12.804   8.564
 1762POPC   D2A24868  39.968  12.895   8.264
 1762POPC   C3A24869  40.052  12.838   7.964
 1762POPC   C4A24870  39.960  12.884   7.664
 1762POPC   C1B24871  40.208  12.692   8.564
 1762POPC   C2B24872  40.217  12.633   8.264
 1762POPC   C3B24873  40.135  12.699   7.964
 1762POPC   C4B24874  40.156  12.627   7.664
 1763POPC   NC324875  15.202  24.467   9.464
 1763POPC   PO424876  15.199  24.482   9.164
 1763POPC   GL124877  15.167  24.499   8.864
 1763POPC   GL224878  15.157  24.599   8.864
 1763POPC   C1A24879  15.156  24.453   8.564
 1763POPC   D2A24880  15.189  24.462   8.264
 1763POPC   C3A24881  15.182  24.442   7.964
 1763POPC   C4A24882  15.143  24.447   7.664
 1763POPC   C1B24883  15.064  24.721   8.564
 1763POPC   C2B24884  15.114  24.683   8.264
 1763POPC   C3B24885  15.089  24.734   7.964
 1763POPC   C4B24886  15.121  24.722   7.664
 1764POPC   NC324887  25.262   2.024   9.464
 1764POPC   PO424888  25.258   1.953   9.164
 1764POPC   GL124889  25.297   1.965   8.864
 1764POPC   GL224890  25.418   2.003   8.864
 1764POPC   C1A24891  25.302   1.979   8.564
 1764POPC   D2A24892  25.217   1.965   8.264
 1764POPC   C3A24893  25.303   1.991   7.964
 1764POPC   C4A24894  25.291   1.945   7.664
 1764POPC   C1B24895  25.471   1.941   8.564
 1764POPC   C2B24896  25.513   2.001   8.264
 1764POPC   C3B24897  25.515   1.999   7.964
 1764POPC   C4B24898  25.535   1.971   7.664
 1765POPC   NC324899  21.350  26.054   9.464
 1765POPC   PO424900  21.387  26.068   9.164
 1765POPC   GL124901  21.400  26.047   8.864
 1765POPC   GL224902  21.303  25.948   8.864
 1765POPC   C1A24903  21.349  26.089   8.564
 1765POPC   D2A24904  21.411  26.045   8.264
 1765POPC   C3A24905  21.367  26.067   7.964
 1765POPC   C4A24906  21.351  26.069   7.664
 1765POPC   C1B24907  21.223  25.830   8.564
 1765POPC   C2B24908  21.303  25.781   8.264
 1765POPC   C3B24909  21.230  25.826   7.964
 1765POPC   C4B24910  21.236  25.787   7.664
 1766POPC   NC324911  29.963  20.657   9.464
 1766POPC   PO424912  29.884  20.646   9.164
 1766POPC   GL124913  29.888  20.571   8.864
 1766POPC   GL224914  29.984  20.596   8.864
 1766POPC   C1A24915  29.917  20.624   8.564
 1766POPC   D2A24916  29.929  20.645   8.264
 1766POPC   C3A24917  29.885  20.587   7.964
 1766POPC   C4A24918  29.953  20.629   7.664
 1766POPC   C1B24919  30.172  20.499   8.564
 1766POPC   C2B24920  30.129  20.455   8.264
 1766POPC   C3B24921  30.124  20.465   7.964
 1766POPC   C4B24922  30.151  20.449   7.664
 1767POPC   NC324923  13.642  14.374   9.464
 1767POPC   PO424924  13.612  14.373   9.164
 1767POPC   GL124925  13.622  14.389   8.864
 1767POPC   GL224926  13.523  14.304   8.864
 1767POPC   C1A24927  13.610  14.453   8.564
 1767POPC   D2A24928  13.582  14.414   8.264
 1767POPC   C3A24929  13.589  14.397   7.964
 1767POPC   C4A24930  13.640  14.395   7.664
 1767POPC   C1B24931  13.416  14.283   8.564
 1767POPC   C2B24932  13.416  14.252   8.264
 1767POPC   C3B24933  13.439  14.229   7.964
 1767POPC   C4B24934  13.407  14.297   7.664
 1768POPC   NC324935  36.864  36.909   9.464
 1768POPC   PO424936  36.881  36.888   9.164
 1768POPC   GL124937  36.941  36.899   8.864
 1768POPC   GL224938  36.925  37.060   8.864
 1768POPC   C1A24939  36.942  36.952   8.564
 1768POPC   D2A24940  36.904  36.945   8.264
 1768POPC   C3A24941  36.887  36.898   7.964
 1768POPC   C4A24942  36.914  36.946   7.664
 1768POPC   C1B24943  36.880  37.201   8.564
 1768POPC   C2B24944  36.912  37.126   8.264
 1768POPC   C3B24945  36.918  37.171   7.964
 1768POPC   C4B24946  36.901  37.157   7.664
 1769POPC   NC324947  25.994  39.963   9.464
 1769POPC   PO424948  26.044  39.961   9.164
 1769POPC   GL124949  26.061  40.035   8.864
 1769POPC   GL224950  26.029  39.889   8.864
 1769POPC   C1A24951  26.082  40.030   8.564
 1769POPC   D2A24952  26.018  39.962   8.264
 1769POPC   C3A24953  26.006  40.033   7.964
 1769POPC   C4A24954  26.019  39.975   7.664
 1769POPC   C1B24955  25.956  39.761   8.564
 1769POPC   C2B24956  25.978  39.738   8.264
 1769POPC   C3B24957  26.012  39.777   7.964
 1769POPC   C4B24958  26.023  39.794   7.664
 1770POPC   NC324959  16.720   4.332   9.464
 1770POPC   PO424960  16.781   4.334   9.164
 1770POPC   GL124961  16.775   4.341   8.864
 1770POPC   GL224962  16.897   4.285   8.864
 1770POPC   C1A24963  16.753   4.284   8.564
 1770POPC   D2A24964  16.734   4.359   8.264
 1770POPC   C3A24965  16.698   4.313   7.964
 1770POPC   C4A24966  16.735   4.281   7.664
 1770POPC   C1B24967  16.928   4.257   8.564
 1770POPC   C2B24968  16.945   4.228   8.264
 1770POPC   C3B24969  16.952   4.298   7.964
 1770POPC   C4B24970  16.931   4.235   7.664
 1771POPC   NC324971  16.764  34.546   9.464
 1771POPC   PO424972  16.727  34.602   9.164
 1771POPC   GL124973  16.700  34.562   8.864
 1771POPC   GL224974  16.861  34.524   8.864
 1771POPC   C1A24975  16.688  34.549   8.564
 1771POPC   D2A24976  16.712  34.539   8.264
 1771POPC   C3A24977  16.777  34.551   7.964
 1771POPC   C4A24978  16.764  34.537   7.664
 1771POPC   C1B24979  16.872  34.382   8.564
 1771POPC   C2B24980  16.900  34.383   8.264
 1771POPC   C3B24981  16.849  34.362   7.964
 1771POPC   C4B24982  16.851  34.418   7.664
 1772POPC   NC324983  40.805  32.245   9.464
 1772POPC   PO424984  40.775  32.282   9.164
 1772POPC   GL124985  40.770  32.285   8.864
 1772POPC   GL224986  40.870  32.240   8.864
 1772POPC   C1A24987  40.766  32.241   8.564
 1772POPC   D2A24988  40.805  32.273   8.264
 1772POPC   C3A24989  40.757  32.202   7.964
 1772POPC   C4A24990  40.774  32.199   7.664
 1772POPC   C1B24991  41.059  32.163   8.564
 1772POPC   C2B24992  41.018  32.231   8.264
 1772POPC   C3B24993  41.058  32.243   7.964
 1772POPC   C4B24994  41.036  32.176   7.664
 1773POPC   NC324995  27.622  10.555   9.464
 1773POPC   PO424996  27.630  10.552   9.164
 1773POPC   GL124997  27.600  10.519   8.864
 1773POPC   GL224998  27.502  10.577   8.864
 1773POPC   C1A24999  27.569  10.534   8.564
 1773POPC   D2A25000  27.636  10.530   8.264
 1773POPC   C3A25001  27.620  10.555   7.964
 1773POPC   C4A25002  27.572  10.564   7.664
 1773POPC   C1B25003  27.350  10.549   8.564
 1773POPC   C2B25004  27.341  10.586   8.264
 1773POPC   C3B25005  27.374  10.592   7.964
 1773POPC   C4B25006  27.333  10.606   7.664
 1774POPC   NC325007  40.758  16.725   9.464
 1774POPC   PO425008  40.736  16.738   9.164
 1774POPC   GL125009  40.761  16.778   8.864
 1774POPC   GL225010  40.934  16.722   8.864
 1774POPC   C1A25011  40.803  16.768   8.564
 1774POPC   D2A25012  40.830  16.723   8.264
 1774POPC   C3A25013  40.745  16.718   7.964
 1774POPC   C4A25014  40.734  16.688   7.664
 1774POPC   C1B25015  41.046  16.619   8.564
 1774POPC   C2B25016  40.979  16.642   8.264
 1774POPC   C3B25017  41.007  16.653   7.964
 1774POPC   C4B25018  40.991  16.607   7.664
 1775POPC   NC325019  29.180   4.291   9.464
 1775POPC   PO425020  29.101   4.298   9.164
 1775POPC   GL125021  29.144   4.290   8.864
 1775POPC   GL225022  29.129   4.228   8.864
 1775POPC   C1A25023  29.113   4.299   8.564
 1775POPC   D2A25024  29.172   4.298   8.264
 1775POPC   C3A25025  29.123   4.324   7.964
 1775POPC   C4A25026  29.101   4.326   7.664
 1775POPC   C1B25027  29.052   4.093   8.564
 1775POPC   C2B25028  29.101   4.056   8.264
 1775POPC   C3B25029  29.090   4.025   7.964
 1775POPC   C4B25030  29.115   4.033   7.664
 1776POPC   NC325031  41.521  40.052   9.464
 1776POPC   PO425032  41.548  40.046   9.164
 1776POPC   GL125033  41.586  40.006   8.864
 1776POPC   GL225034  41.413  40.026   8.864
 1776POPC   C1A25035  41.577  40.004   8.564
 1776POPC   D2A25036  41.587  39.985   8.264
 1776POPC   C3A25037  41.591  40.002   7.964
 1776POPC   C4A25038  41.520  39.984   7.664
 1776POPC   C1B25039  41.319  40.013   8.564
 1776POPC   C2B25040  41.314  39.993   8.264
 1776POPC   C3B25041  41.296  40.007   7.964
 1776POPC   C4B25042  41.331  40.000   7.664
 1777POPC   NC325043  13.614  20.568   9.464
 1777POPC   PO425044  13.613  20.563   9.164
 1777POPC   GL125045  13.612  20.606   8.864
 1777POPC   GL225046  13.672  20.450   8.864
 1777POPC   C1A25047  13.665  20.599   8.564
 1777POPC   D2A25048  13.665  20.622   8.264
 1777POPC   C3A25049  13.589  20.656   7.964
 1777POPC   C4A25050  13.643  20.619   7.664
 1777POPC   C1B25051  13.730  20.393   8.564
 1777POPC   C2B25052  13.755  20.352   8.264
 1777POPC   C3B25053  13.718  20.330   7.964
 1777POPC   C4B25054  13.659  20.350   7.664
 1778POPC   NC325055   1.222  19.064   9.464
 1778POPC   PO425056   1.171  19.096   9.164
 1778POPC   GL125057   1.228  19.096   8.864
 1778POPC   GL225058   1.203  19.207   8.864
 1778POPC   C1A25059   1.241  19.048   8.564
 1778POPC   D2A25060   1.257  19.030   8.264
 1778POPC   C3A25061   1.204  19.074   7.964
 1778POPC   C4A25062   1.259  19.023   7.664
 1778POPC   C1B25063   1.133  19.265   8.564
 1778POPC   C2B25064   1.187  19.278   8.264
 1778POPC   C3B25065   1.188  19.327   7.964
 1778POPC   C4B25066   1.144  19.309   7.664
 1779POPC   NC325067   2.001  40.744   9.464
 1779POPC   PO425068   1.952  40.792   9.164
 1779POPC   GL125069   1.969  40.785   8.864
 1779POPC   GL225070   1.886  40.765   8.864
 1779POPC   C1A25071   2.009  40.784   8.564
 1779POPC   D2A25072   1.981  40.831   8.264
 1779POPC   C3A25073   2.001  40.787   7.964
 1779POPC   C4A25074   1.944  40.747   7.664
 1779POPC   C1B25075   1.774  40.782   8.564
 1779POPC   C2B25076   1.759  40.753   8.264
 1779POPC   C3B25077   1.724  40.746   7.964
 1779POPC   C4B25078   1.726  40.731   7.664
 1780POPC   NC325079  21.342  18.249   9.464
 1780POPC   PO425080  21.406  18.260   9.164
 1780POPC   GL125081  21.347  18.325   8.864
 1780POPC   GL225082  21.366  18.386   8.864
 1780POPC   C1A25083  21.424  18.238   8.564
 1780POPC   D2A25084  21.351  18.304   8.264
 1780POPC   C3A25085  21.351  18.251   7.964
 1780POPC   C4A25086  21.432  18.294   7.664
 1780POPC   C1B25087  21.370  18.539   8.564
 1780POPC   C2B25088  21.318  18.541   8.264
 1780POPC   C3B25089  21.405  18.496   7.964
 1780POPC   C4B25090  21.390  18.513   7.664
 1781POPC   NC325091   8.161  15.955   9.464
 1781POPC   PO425092   8.209  15.996   9.164
 1781POPC   GL125093   8.159  15.908   8.864
 1781POPC   GL225094   8.108  16.097   8.864
 1781POPC   C1A25095   8.212  15.969   8.564
 1781POPC   D2A25096   8.217  15.951   8.264
 1781POPC   C3A25097   8.168  15.907   7.964
 1781POPC   C4A25098   8.232  15.920   7.664
 1781POPC   C1B25099   8.071  16.194   8.564
 1781POPC   C2B25100   7.992  16.167   8.264
 1781POPC   C3B25101   8.001  16.141   7.964
 1781POPC   C4B25102   7.994  16.196   7.664
 1782POPC   NC325103  39.216  21.354   9.464
 1782POPC   PO425104  39.225  21.403   9.164
 1782POPC   GL125105  39.194  21.348   8.864
 1782POPC   GL225106  39.331  21.355   8.864
 1782POPC   C1A25107  39.208  21.355   8.564
 1782POPC   D2A25108  39.245  21.415   8.264
 1782POPC   C3A25109  39.188  21.387   7.964
 1782POPC   C4A25110  39.222  21.431   7.664
 1782POPC   C1B25111  39.473  21.347   8.564
 1782POPC   C2B25112  39.454  21.393   8.264
 1782POPC   C3B25113  39.487  21.405   7.964
 1782POPC   C4B25114  39.466  21.357   7.664
 1783POPC   NC325115  35.392  43.898   9.464
 1783POPC   PO425116  35.349  43.864   9.164
 1783POPC   GL125117  35.388  43.884   8.864
 1783POPC   GL225118  35.500  43.907   8.864
 1783POPC   C1A25119  35.372  43.924   8.564
 1783POPC   D2A25120  35.307  43.934   8.264
 1783POPC   C3A25121  35.367  43.851   7.964
 1783POPC   C4A25122  35.336  43.895   7.664
 1783POPC   C1B25123  35.561  44.004   8.564
 1783POPC   C2B25124  35.552  43.965   8.264
 1783POPC   C3B25125  35.551  44.026   7.964
 1783POPC   C4B25126  35.533  44.042   7.664
 1784POPC   NC325127   5.050   8.953   9.464
 1784POPC   PO425128   5.107   8.941   9.164
 1784POPC   GL125129   5.092   8.927   8.864
 1784POPC   GL225130   5.136   9.046   8.864
 1784POPC   C1A25131   5.128   8.940   8.564
 1784POPC   D2A25132   5.048   8.960   8.264
 1784POPC   C3A25133   5.086   8.930   7.964
 1784POPC   C4A25134   5.106   8.936   7.664
 1784POPC   C1B25135   5.186   9.228   8.564
 1784POPC   C2B25136   5.167   9.242   8.264
 1784POPC   C3B25137   5.192   9.204   7.964
 1784POPC   C4B25138   5.127   9.217   7.664
 1785POPC   NC325139  43.932  33.072   9.464
 1785POPC   PO425140  43.932  33.043   9.164
 1785POPC   GL125141  43.932  33.003   8.864
 1785POPC   GL225142  43.887  32.908   8.864
 1785POPC   C1A25143  43.871  33.049   8.564
 1785POPC   D2A25144  43.860  33.050   8.264
 1785POPC   C3A25145  43.925  32.975   7.964
 1785POPC   C4A25146  43.926  33.034   7.664
 1785POPC   C1B25147  43.907  32.829   8.564
 1785POPC   C2B25148  43.928  32.774   8.264
 1785POPC   C3B25149  43.940  32.785   7.964
 1785POPC   C4B25150  43.961  32.772   7.664
 1786POPC   NC325151   9.724  29.874   9.464
 1786POPC   PO425152   9.756  29.920   9.164
 1786POPC   GL125153   9.790  29.893   8.864
 1786POPC   GL225154   9.580  29.868   8.864
 1786POPC   C1A25155   9.734  29.935   8.564
 1786POPC   D2A25156   9.790  29.885   8.264
 1786POPC   C3A25157   9.798  29.964   7.964
 1786POPC   C4A25158   9.710  29.970   7.664
 1786POPC   C1B25159   9.538  29.917   8.564
 1786POPC   C2B25160   9.481  29.880   8.264
 1786POPC   C3B25161   9.472  29.869   7.964
 1786POPC   C4B25162   9.518  29.840   7.664
 1787POPC   NC325163  20.606   6.625   9.464
 1787POPC   PO425164  20.602   6.692   9.164
 1787POPC   GL125165  20.606   6.663   8.864
 1787POPC   GL225166  20.584   6.730   8.864
 1787POPC   C1A25167  20.618   6.692   8.564
 1787POPC   D2A25168  20.581   6.693   8.264
 1787POPC   C3A25169  20.657   6.686   7.964
 1787POPC   C4A25170  20.600   6.604   7.664
 1787POPC   C1B25171  20.584   6.918   8.564
 1787POPC   C2B25172  20.549   6.879   8.264
 1787POPC   C3B25173  20.552   6.863   7.964
 1787POPC   C4B25174  20.578   6.864   7.664
 1788POPC   NC325175   4.346  43.122   9.464
 1788POPC   PO425176   4.277  43.084   9.164
 1788POPC   GL125177   4.330  43.082   8.864
 1788POPC   GL225178   4.427  43.183   8.864
 1788POPC   C1A25179   4.343  43.145   8.564
 1788POPC   D2A25180   4.337  43.111   8.264
 1788POPC   C3A25181   4.273  43.114   7.964
 1788POPC   C4A25182   4.322  43.070   7.664
 1788POPC   C1B25183   4.558  43.173   8.564
 1788POPC   C2B25184   4.572  43.222   8.264
 1788POPC   C3B25185   4.526  43.176   7.964
 1788POPC   C4B25186   4.568  43.225   7.664
 1789POPC   NC325187  19.853  38.504   9.464
 1789POPC   PO425188  19.847  38.496   9.164
 1789POPC   GL125189  19.880  38.439   8.864
 1789POPC   GL225190  19.866  38.345   8.864
 1789POPC   C1A25191  19.832  38.455   8.564
 1789POPC   D2A25192  19.810  38.433   8.264
 1789POPC   C3A25193  19.866  38.450   7.964
 1789POPC   C4A25194  19.797  38.470   7.664
 1789POPC   C1B25195  19.959  38.267   8.564
 1789POPC   C2B25196  19.924  38.285   8.264
 1789POPC   C3B25197  19.962  38.197   7.964
 1789POPC   C4B25198  20.001  38.270   7.664
 1790POPC   NC325199  17.480  22.954   9.464
 1790POPC   PO425200  17.463  22.902   9.164
 1790POPC   GL125201  17.492  22.924   8.864
 1790POPC   GL225202  17.597  23.033   8.864
 1790POPC   C1A25203  17.509  22.918   8.564
 1790POPC   D2A25204  17.549  22.950   8.264
 1790POPC   C3A25205  17.495  22.985   7.964
 1790POPC   C4A25206  17.481  22.944   7.664
 1790POPC   C1B25207  17.701  23.087   8.564
 1790POPC   C2B25208  17.710  23.133   8.264
 1790POPC   C3B25209  17.671  23.080   7.964
 1790POPC   C4B25210  17.660  23.108   7.664
 1791POPC   NC325211   1.226  27.603   9.464
 1791POPC   PO425212   1.262  27.583   9.164
 1791POPC   GL125213   1.248  27.584   8.864
 1791POPC   GL225214   1.052  27.563   8.864
 1791POPC   C1A25215   1.218  27.574   8.564
 1791POPC   D2A25216   1.179  27.587   8.264
 1791POPC   C3A25217   1.253  27.570   7.964
 1791POPC   C4A25218   1.171  27.587   7.664
 1791POPC   C1B25219   0.952  27.558   8.564
 1791POPC   C2B25220   1.000  27.544   8.264
 1791POPC   C3B25221   0.953  27.545   7.964
 1791POPC   C4B25222   0.965  27.591   7.664
 1792POPC   NC325223  36.941  15.155   9.464
 1792POPC   PO425224  36.934  15.223   9.164
 1792POPC   GL125225  36.863  15.157   8.864
 1792POPC   GL225226  36.893  15.038   8.864
 1792POPC   C1A25227  36.863  15.149   8.564
 1792POPC   D2A25228  36.945  15.202   8.264
 1792POPC   C3A25229  36.900  15.151   7.964
 1792POPC   C4A25230  36.949  15.150   7.664
 1792POPC   C1B25231  36.794  14.968   8.564
 1792POPC   C2B25232  36.846  14.976   8.264
 1792POPC   C3B25233  36.873  14.976   7.964
 1792POPC   C4B25234  36.873  14.917   7.664
 1793POPC   NC325235  33.071  12.029   9.464
 1793POPC   PO425236  33.048  12.066   9.164
 1793POPC   GL125237  33.050  12.032   8.864
 1793POPC   GL225238  32.892  12.028   8.864
 1793POPC   C1A25239  33.008  12.081   8.564
 1793POPC   D2A25240  32.993  12.088   8.264
 1793POPC   C3A25241  33.026  12.096   7.964
 1793POPC   C4A25242  33.029  12.034   7.664
 1793POPC   C1B25243  32.835  11.993   8.564
 1793POPC   C2B25244  32.792  11.982   8.264
 1793POPC   C3B25245  32.783  11.975   7.964
 1793POPC   C4B25246  32.837  11.960   7.664
 1794POPC   NC325247  40.758  24.460   9.464
 1794POPC   PO425248  40.734  24.461   9.164
 1794POPC   GL125249  40.748  24.503   8.864
 1794POPC   GL225250  40.723  24.414   8.864
 1794POPC   C1A25251  40.813  24.464   8.564
 1794POPC   D2A25252  40.755  24.455   8.264
 1794POPC   C3A25253  40.760  24.489   7.964
 1794POPC   C4A25254  40.808  24.451   7.664
 1794POPC   C1B25255  40.743  24.283   8.564
 1794POPC   C2B25256  40.722  24.248   8.264
 1794POPC   C3B25257  40.667  24.280   7.964
 1794POPC   C4B25258  40.744  24.291   7.664
 1795POPC   NC325259  14.407  32.260   9.464
 1795POPC   PO425260  14.447  32.236   9.164
 1795POPC   GL125261  14.384  32.208   8.864
 1795POPC   GL225262  14.285  32.138   8.864
 1795POPC   C1A25263  14.413  32.284   8.564
 1795POPC   D2A25264  14.428  32.202   8.264
 1795POPC   C3A25265  14.419  32.289   7.964
 1795POPC   C4A25266  14.438  32.271   7.664
 1795POPC   C1B25267  14.165  32.116   8.564
 1795POPC   C2B25268  14.188  32.147   8.264
 1795POPC   C3B25269  14.211  32.121   7.964
 1795POPC   C4B25270  14.143  32.166   7.664
 1796POPC   NC325271   5.872  16.689   9.464
 1796POPC   PO425272   5.916  16.705   9.164
 1796POPC   GL125273   5.863  16.748   8.864
 1796POPC   GL225274   5.880  16.615   8.864
 1796POPC   C1A25275   5.869  16.767   8.564
 1796POPC   D2A25276   5.850  16.695   8.264
 1796POPC   C3A25277   5.911  16.750   7.964
 1796POPC   C4A25278   5.883  16.766   7.664
 1796POPC   C1B25279   5.911  16.511   8.564
 1796POPC   C2B25280   5.958  16.498   8.264
 1796POPC   C3B25281   5.949  16.460   7.964
 1796POPC   C4B25282   5.879  16.449   7.664
 1797POPC   NC325283  38.449   6.668   9.464
 1797POPC   PO425284  38.406   6.643   9.164
 1797POPC   GL125285  38.432   6.606   8.864
 1797POPC   GL225286  38.453   6.532   8.864
 1797POPC   C1A25287  38.422   6.648   8.564
 1797POPC   D2A25288  38.497   6.600   8.264
 1797POPC   C3A25289  38.412   6.636   7.964
 1797POPC   C4A25290  38.477   6.619   7.664
 1797POPC   C1B25291  38.500   6.425   8.564
 1797POPC   C2B25292  38.535   6.423   8.264
 1797POPC   C3B25293  38.501   6.389   7.964
 1797POPC   C4B25294  38.501   6.416   7.664
 1798POPC   NC325295  23.695  26.033   9.464
 1798POPC   PO425296  23.733  26.090   9.164
 1798POPC   GL125297  23.761  26.029   8.864
 1798POPC   GL225298  23.782  26.010   8.864
 1798POPC   C1A25299  23.716  26.056   8.564
 1798POPC   D2A25300  23.677  26.078   8.264
 1798POPC   C3A25301  23.687  26.063   7.964
 1798POPC   C4A25302  23.719  26.009   7.664
 1798POPC   C1B25303  23.967  25.896   8.564
 1798POPC   C2B25304  23.920  25.910   8.264
 1798POPC   C3B25305  23.951  25.885   7.964
 1798POPC   C4B25306  23.916  25.923   7.664
 1799POPC   NC325307  36.159  29.179   9.464
 1799POPC   PO425308  36.117  29.169   9.164
 1799POPC   GL125309  36.105  29.178   8.864
 1799POPC   GL225310  36.201  29.213   8.864
 1799POPC   C1A25311  36.123  29.104   8.564
 1799POPC   D2A25312  36.087  29.159   8.264
 1799POPC   C3A25313  36.149  29.167   7.964
 1799POPC   C4A25314  36.156  29.125   7.664
 1799POPC   C1B25315  36.334  29.196   8.564
 1799POPC   C2B25316  36.380  29.183   8.264
 1799POPC   C3B25317  36.400  29.209   7.964
 1799POPC   C4B25318  36.391  29.200   7.664
 1800POPC   NC325319  15.932  32.270   9.464
 1800POPC   PO425320  16.004  32.231   9.164
 1800POPC   GL125321  15.963  32.230   8.864
 1800POPC   GL225322  15.959  32.398   8.864
 1800POPC   C1A25323  15.975  32.231   8.564
 1800POPC   D2A25324  15.997  32.284   8.264
 1800POPC   C3A25325  15.966  32.222   7.964
 1800POPC   C4A25326  15.961  32.224   7.664
 1800POPC   C1B25327  16.002  32.483   8.564
 1800POPC   C2B25328  16.017  32.477   8.264
 1800POPC   C3B25329  16.027  32.531   7.964
 1800POPC   C4B25330  16.004  32.465   7.664
 1801POPC   NC325331  25.283  35.346   9.464
 1801POPC   PO425332  25.305  35.378   9.164
 1801POPC   GL125333  25.242  35.369   8.864
 1801POPC   GL225334  25.205  35.229   8.864
 1801POPC   C1A25335  25.278  35.365   8.564
 1801POPC   D2A25336  25.242  35.374   8.264
 1801POPC   C3A25337  25.228  35.318   7.964
 1801POPC   C4A25338  25.305  35.374   7.664
 1801POPC   C1B25339  25.173  35.098   8.564
 1801POPC   C2B25340  25.154  35.114   8.264
 1801POPC   C3B25341  25.157  35.113   7.964
 1801POPC   C4B25342  25.122  35.135   7.664
 1802POPC   NC325343  19.078  26.812   9.464
 1802POPC   PO425344  19.070  26.865   9.164
 1802POPC   GL125345  19.059  26.794   8.864
 1802POPC   GL225346  18.957  26.701   8.864
 1802POPC   C1A25347  19.105  26.774   8.564
 1802POPC   D2A25348  19.035  26.835   8.264
 1802POPC   C3A25349  19.077  26.842   7.964
 1802POPC   C4A25350  19.089  26.858   7.664
 1802POPC   C1B25351  18.921  26.597   8.564
 1802POPC   C2B25352  18.965  26.570   8.264
 1802POPC   C3B25353  18.949  26.627   7.964
 1802POPC   C4B25354  18.895  26.586   7.664
 1803POPC   NC325355  23.698   5.917   9.464
 1803POPC   PO425356  23.718   5.881   9.164
 1803POPC   GL125357  23.705   5.825   8.864
 1803POPC   GL225358  23.563   5.880   8.864
 1803POPC   C1A25359  23.751   5.828   8.564
 1803POPC   D2A25360  23.746   5.846   8.264
 1803POPC   C3A25361  23.731   5.830   7.964
 1803POPC   C4A25362  23.684   5.854   7.664
 1803POPC   C1B25363  23.509   5.903   8.564
 1803POPC   C2B25364  23.458   5.924   8.264
 1803POPC   C3B25365  23.483   5.898   7.964
 1803POPC   C4B25366  23.511   5.917   7.664
 1804POPC   NC325367  19.024  19.105   9.464
 1804POPC   PO425368  19.081  19.107   9.164
 1804POPC   GL125369  19.044  19.044   8.864
 1804POPC   GL225370  19.119  19.210   8.864
 1804POPC   C1A25371  19.029  19.058   8.564
 1804POPC   D2A25372  19.053  19.055   8.264
 1804POPC   C3A25373  19.043  19.076   7.964
 1804POPC   C4A25374  19.092  19.085   7.664
 1804POPC   C1B25375  19.206  19.266   8.564
 1804POPC   C2B25376  19.252  19.237   8.264
 1804POPC   C3B25377  19.213  19.231   7.964
 1804POPC   C4B25378  19.209  19.302   7.664
 1805POPC   NC325379  22.162  18.288   9.464
 1805POPC   PO425380  22.206  18.264   9.164
 1805POPC   GL125381  22.210  18.261   8.864
 1805POPC   GL225382  22.287  18.250   8.864
 1805POPC   C1A25383  22.139  18.325   8.564
 1805POPC   D2A25384  22.203  18.237   8.264
 1805POPC   C3A25385  22.163  18.239   7.964
 1805POPC   C4A25386  22.169  18.242   7.664
 1805POPC   C1B25387  22.388  18.281   8.564
 1805POPC   C2B25388  22.371  18.271   8.264
 1805POPC   C3B25389  22.366  18.348   7.964
 1805POPC   C4B25390  22.415  18.352   7.664
 1806POPC   NC325391  15.989  19.799   9.464
 1806POPC   PO425392  15.949  19.810   9.164
 1806POPC   GL125393  15.965  19.801   8.864
 1806POPC   GL225394  16.080  19.890   8.864
 1806POPC   C1A25395  15.998  19.858   8.564
 1806POPC   D2A25396  15.970  19.841   8.264
 1806POPC   C3A25397  15.993  19.849   7.964
 1806POPC   C4A25398  15.932  19.868   7.664
 1806POPC   C1B25399  16.112  19.941   8.564
 1806POPC   C2B25400  16.185  20.022   8.264
 1806POPC   C3B25401  16.202  19.964   7.964
 1806POPC   C4B25402  16.113  19.929   7.664
 1807POPC   NC325403  35.349  21.356   9.464
 1807POPC   PO425404  35.331  21.356   9.164
 1807POPC   GL125405  35.350  21.368   8.864
 1807POPC   GL225406  35.314  21.489   8.864
 1807POPC   C1A25407  35.334  21.397   8.564
 1807POPC   D2A25408  35.373  21.353   8.264
 1807POPC   C3A25409  35.322  21.338   7.964
 1807POPC   C4A25410  35.359  21.423   7.664
 1807POPC   C1B25411  35.236  21.604   8.564
 1807POPC   C2B25412  35.241  21.564   8.264
 1807POPC   C3B25413  35.267  21.627   7.964
 1807POPC   C4B25414  35.259  21.572   7.664
 1808POPC   NC325415  26.862   8.218   9.464
 1808POPC   PO425416  26.819   8.223   9.164
 1808POPC   GL125417  26.863   8.204   8.864
 1808POPC   GL225418  26.857   8.305   8.864
 1808POPC   C1A25419  26.773   8.149   8.564
 1808POPC   D2A25420  26.768   8.171   8.264
 1808POPC   C3A25421  26.794   8.158   7.964
 1808POPC   C4A25422  26.851   8.161   7.664
 1808POPC   C1B25423  26.911   8.380   8.564
 1808POPC   C2B25424  26.904   8.452   8.264
 1808POPC   C3B25425  26.920   8.376   7.964
 1808POPC   C4B25426  26.964   8.462   7.664
 1809POPC   NC325427  17.514  29.109   9.464
 1809POPC   PO425428  17.556  29.163   9.164
 1809POPC   GL125429  17.515  29.170   8.864
 1809POPC   GL225430  17.362  29.096   8.864
 1809POPC   C1A25431  17.480  29.166   8.564
 1809POPC   D2A25432  17.513  29.179   8.264
 1809POPC   C3A25433  17.551  29.140   7.964
 1809POPC   C4A25434  17.543  29.129   7.664
 1809POPC   C1B25435  17.280  28.993   8.564
 1809POPC   C2B25436  17.231  29.053   8.264
 1809POPC   C3B25437  17.279  28.993   7.964
 1809POPC   C4B25438  17.322  29.030   7.664
 1810POPC   NC325439  30.711  38.488   9.464
 1810POPC   PO425440  30.705  38.451   9.164
 1810POPC   GL125441  30.726  38.474   8.864
 1810POPC   GL225442  30.712  38.370   8.864
 1810POPC   C1A25443  30.699  38.470   8.564
 1810POPC   D2A25444  30.670  38.425   8.264
 1810POPC   C3A25445  30.690  38.457   7.964
 1810POPC   C4A25446  30.666  38.441   7.664
 1810POPC   C1B25447  30.850  38.243   8.564
 1810POPC   C2B25448  30.761  38.253   8.264
 1810POPC   C3B25449  30.857  38.270   7.964
 1810POPC   C4B25450  30.761  38.215   7.664
 1811POPC   NC325451   6.684   4.287   9.464
 1811POPC   PO425452   6.621   4.321   9.164
 1811POPC   GL125453   6.634   4.298   8.864
 1811POPC   GL225454   6.623   4.450   8.864
 1811POPC   C1A25455   6.629   4.333   8.564
 1811POPC   D2A25456   6.625   4.277   8.264
 1811POPC   C3A25457   6.648   4.319   7.964
 1811POPC   C4A25458   6.646   4.364   7.664
 1811POPC   C1B25459   6.680   4.601   8.564
 1811POPC   C2B25460   6.639   4.550   8.264
 1811POPC   C3B25461   6.659   4.526   7.964
 1811POPC   C4B25462   6.611   4.527   7.664
 1812POPC   NC325463  12.049  31.490   9.464
 1812POPC   PO425464  12.071  31.445   9.164
 1812POPC   GL125465  12.044  31.470   8.864
 1812POPC   GL225466  12.119  31.390   8.864
 1812POPC   C1A25467  12.110  31.492   8.564
 1812POPC   D2A25468  12.107  31.450   8.264
 1812POPC   C3A25469  12.088  31.423   7.964
 1812POPC   C4A25470  12.089  31.439   7.664
 1812POPC   C1B25471  12.306  31.319   8.564
 1812POPC   C2B25472  12.222  31.278   8.264
 1812POPC   C3B25473  12.241  31.350   7.964
 1812POPC   C4B25474  12.255  31.345   7.664
 1813POPC   NC325475  42.310  16.708   9.464
 1813POPC   PO425476  42.369  16.769   9.164
 1813POPC   GL125477  42.320  16.710   8.864
 1813POPC   GL225478  42.281  16.815   8.864
 1813POPC   C1A25479  42.359  16.700   8.564
 1813POPC   D2A25480  42.340  16.705   8.264
 1813POPC   C3A25481  42.310  16.766   7.964
 1813POPC   C4A25482  42.292  16.737   7.664
 1813POPC   C1B25483  42.324  16.954   8.564
 1813POPC   C2B25484  42.354  16.979   8.264
 1813POPC   C3B25485  42.325  16.969   7.964
 1813POPC   C4B25486  42.295  16.934   7.664
 1814POPC   NC325487   9.016  19.822   9.464
 1814POPC   PO425488   8.964  19.883   9.164
 1814POPC   GL125489   8.959  19.855   8.864
 1814POPC   GL225490   8.856  19.867   8.864
 1814POPC   C1A25491   9.019  19.791   8.564
 1814POPC   D2A25492   8.935  19.830   8.264
 1814POPC   C3A25493   8.932  19.882   7.964
 1814POPC   C4A25494   9.015  19.884   7.664
 1814POPC   C1B25495   8.791  19.942   8.564
 1814POPC   C2B25496   8.791  19.924   8.264
 1814POPC   C3B25497   8.739  19.904   7.964
 1814POPC   C4B25498   8.746  19.927   7.664
 1815POPC   NC325499  18.305  13.672   9.464
 1815POPC   PO425500  18.324  13.613   9.164
 1815POPC   GL125501  18.320  13.595   8.864
 1815POPC   GL225502  18.116  13.662   8.864
 1815POPC   C1A25503  18.297  13.659   8.564
 1815POPC   D2A25504  18.321  13.642   8.264
 1815POPC   C3A25505  18.266  13.654   7.964
 1815POPC   C4A25506  18.267  13.603   7.664
 1815POPC   C1B25507  18.031  13.562   8.564
 1815POPC   C2B25508  18.015  13.633   8.264
 1815POPC   C3B25509  18.009  13.561   7.964
 1815POPC   C4B25510  18.071  13.577   7.664
 1816POPC   NC325511  16.726   8.973   9.464
 1816POPC   PO425512  16.738   8.946   9.164
 1816POPC   GL125513  16.691   9.000   8.864
 1816POPC   GL225514  16.646   8.916   8.864
 1816POPC   C1A25515  16.767   8.957   8.564
 1816POPC   D2A25516  16.778   8.942   8.264
 1816POPC   C3A25517  16.747   8.998   7.964
 1816POPC   C4A25518  16.736   8.941   7.664
 1816POPC   C1B25519  16.525   8.808   8.564
 1816POPC   C2B25520  16.523   8.827   8.264
 1816POPC   C3B25521  16.518   8.842   7.964
 1816POPC   C4B25522  16.576   8.784   7.664
 1817POPC   NC325523   3.564  14.447   9.464
 1817POPC   PO425524   3.528  14.390   9.164
 1817POPC   GL125525   3.552  14.441   8.864
 1817POPC   GL225526   3.417  14.345   8.864
 1817POPC   C1A25527   3.542  14.424   8.564
 1817POPC   D2A25528   3.588  14.433   8.264
 1817POPC   C3A25529   3.550  14.375   7.964
 1817POPC   C4A25530   3.501  14.422   7.664
 1817POPC   C1B25531   3.292  14.222   8.564
 1817POPC   C2B25532   3.349  14.278   8.264
 1817POPC   C3B25533   3.376  14.217   7.964
 1817POPC   C4B25534   3.302  14.262   7.664
 1818POPC   NC325535  16.717  12.804   9.464
 1818POPC   PO425536  16.691  12.887   9.164
 1818POPC   GL125537  16.729  12.875   8.864
 1818POPC   GL225538  16.829  12.941   8.864
 1818POPC   C1A25539  16.751  12.809   8.564
 1818POPC   D2A25540  16.708  12.822   8.264
 1818POPC   C3A25541  16.767  12.841   7.964
 1818POPC   C4A25542  16.739  12.864   7.664
 1818POPC   C1B25543  16.960  13.019   8.564
 1818POPC   C2B25544  16.897  12.998   8.264
 1818POPC   C3B25545  16.961  12.937   7.964
 1818POPC   C4B25546  16.995  13.005   7.664
 1819POPC   NC325547  22.149  22.130   9.464
 1819POPC   PO425548  22.207  22.162   9.164
 1819POPC   GL125549  22.157  22.113   8.864
 1819POPC   GL225550  22.106  22.239   8.864
 1819POPC   C1A25551  22.185  22.128   8.564
 1819POPC   D2A25552  22.171  22.162   8.264
 1819POPC   C3A25553  22.170  22.134   7.964
 1819POPC   C4A25554  22.153  22.160   7.664
 1819POPC   C1B25555  21.993  22.401   8.564
 1819POPC   C2B25556  22.037  22.406   8.264
 1819POPC   C3B25557  21.991  22.322   7.964
 1819POPC   C4B25558  22.009  22.377   7.664
 1820POPC   NC325559  31.454  15.968   9.464
 1820POPC   PO425560  31.459  15.921   9.164
 1820POPC   GL125561  31.516  15.914   8.864
 1820POPC   GL225562  31.384  15.948   8.864
 1820POPC   C1A25563  31.434  15.938   8.564
 1820POPC   D2A25564  31.437  16.003   8.264
 1820POPC   C3A25565  31.449  15.980   7.964
 1820POPC   C4A25566  31.460  15.906   7.664
 1820POPC   C1B25567  31.202  15.894   8.564
 1820POPC   C2B25568  31.268  15.889   8.264
 1820POPC   C3B25569  31.244  15.882   7.964
 1820POPC   C4B25570  31.259  15.798   7.664
 1821POPC   NC325571  26.839  43.136   9.464
 1821POPC   PO425572  26.858  43.137   9.164
 1821POPC   GL125573  26.845  43.072   8.864
 1821POPC   GL225574  26.786  42.978   8.864
 1821POPC   C1A25575  26.830  43.130   8.564
 1821POPC   D2A25576  26.845  43.121   8.264
 1821POPC   C3A25577  26.855  43.151   7.964
 1821POPC   C4A25578  26.773  43.154   7.664
 1821POPC   C1B25579  26.664  42.898   8.564
 1821POPC   C2B25580  26.676  42.872   8.264
 1821POPC   C3B25581  26.668  42.936   7.964
 1821POPC   C4B25582  26.617  42.923   7.664
 1822POPC   NC325583  37.687  33.836   9.464
 1822POPC   PO425584  37.712  33.774   9.164
 1822POPC   GL125585  37.674  33.815   8.864
 1822POPC   GL225586  37.741  33.891   8.864
 1822POPC   C1A25587  37.660  33.786   8.564
 1822POPC   D2A25588  37.688  33.815   8.264
 1822POPC   C3A25589  37.707  33.817   7.964
 1822POPC   C4A25590  37.660  33.841   7.664
 1822POPC   C1B25591  37.706  34.014   8.564
 1822POPC   C2B25592  37.770  34.086   8.264
 1822POPC   C3B25593  37.756  34.064   7.964
 1822POPC   C4B25594  37.746  34.057   7.664
 1823POPC   NC325595  26.052  36.129   9.464
 1823POPC   PO425596  26.083  36.177   9.164
 1823POPC   GL125597  26.073  36.146   8.864
 1823POPC   GL225598  25.984  35.980   8.864
 1823POPC   C1A25599  26.037  36.130   8.564
 1823POPC   D2A25600  26.020  36.098   8.264
 1823POPC   C3A25601  26.036  36.136   7.964
 1823POPC   C4A25602  26.077  36.109   7.664
 1823POPC   C1B25603  26.053  35.855   8.564
 1823POPC   C2B25604  25.985  35.873   8.264
 1823POPC   C3B25605  25.988  35.876   7.964
 1823POPC   C4B25606  26.034  35.852   7.664
 1824POPC   NC325607   9.791  42.361   9.464
 1824POPC   PO425608   9.726  42.307   9.164
 1824POPC   GL125609   9.761  42.315   8.864
 1824POPC   GL225610   9.873  42.219   8.864
 1824POPC   C1A25611   9.796  42.328   8.564
 1824POPC   D2A25612   9.754  42.313   8.264
 1824POPC   C3A25613   9.766  42.341   7.964
 1824POPC   C4A25614   9.771  42.312   7.664
 1824POPC   C1B25615   9.923  42.200   8.564
 1824POPC   C2B25616   9.992  42.223   8.264
 1824POPC   C3B25617   9.961  42.247   7.964
 1824POPC   C4B25618   9.979  42.238   7.664
 1825POPC   NC325619   2.805  44.641   9.464
 1825POPC   PO425620   2.723  44.704   9.164
 1825POPC   GL125621   2.771  44.666   8.864
 1825POPC   GL225622   2.788  44.596   8.864
 1825POPC   C1A25623   2.762  44.637   8.564
 1825POPC   D2A25624   2.772  44.686   8.264
 1825POPC   C3A25625   2.795  44.625   7.964
 1825POPC   C4A25626   2.810  44.670   7.664
 1825POPC   C1B25627   2.920  44.452   8.564
 1825POPC   C2B25628   2.829  44.404   8.264
 1825POPC   C3B25629   2.849  44.476   7.964
 1825POPC   C4B25630   2.914  44.441   7.664
 1826POPC   NC325631  36.913  42.313   9.464
 1826POPC   PO425632  36.950  42.334   9.164
 1826POPC   GL125633  36.899  42.290   8.864
 1826POPC   GL225634  36.907  42.464   8.864
 1826POPC   C1A25635  36.888  42.298   8.564
 1826POPC   D2A25636  36.918  42.288   8.264
 1826POPC   C3A25637  36.859  42.372   7.964
 1826POPC   C4A25638  36.944  42.331   7.664
 1826POPC   C1B25639  36.987  42.562   8.564
 1826POPC   C2B25640  36.961  42.583   8.264
 1826POPC   C3B25641  36.937  42.606   7.964
 1826POPC   C4B25642  36.917  42.614   7.664
 1827POPC   NC325643  30.683  13.645   9.464
 1827POPC   PO425644  30.713  13.630   9.164
 1827POPC   GL125645  30.701  13.635   8.864
 1827POPC   GL225646  30.527  13.604   8.864
 1827POPC   C1A25647  30.686  13.632   8.564
 1827POPC   D2A25648  30.735  13.600   8.264
 1827POPC   C3A25649  30.723  13.601   7.964
 1827POPC   C4A25650  30.659  13.630   7.664
 1827POPC   C1B25651  30.430  13.644   8.564
 1827POPC   C2B25652  30.468  13.560   8.264
 1827POPC   C3B25653  30.473  13.602   7.964
 1827POPC   C4B25654  30.397  13.604   7.664
 1828POPC   NC325655  23.707  34.596   9.464
 1828POPC   PO425656  23.680  34.604   9.164
 1828POPC   GL125657  23.722  34.540   8.864
 1828POPC   GL225658  23.624  34.630   8.864
 1828POPC   C1A25659  23.685  34.566   8.564
 1828POPC   D2A25660  23.762  34.577   8.264
 1828POPC   C3A25661  23.675  34.532   7.964
 1828POPC   C4A25662  23.736  34.544   7.664
 1828POPC   C1B25663  23.546  34.778   8.564
 1828POPC   C2B25664  23.527  34.786   8.264
 1828POPC   C3B25665  23.545  34.755   7.964
 1828POPC   C4B25666  23.569  34.756   7.664
 1829POPC   NC325667  41.517  12.086   9.464
 1829POPC   PO425668  41.568  12.059   9.164
 1829POPC   GL125669  41.586  12.080   8.864
 1829POPC   GL225670  41.555  12.207   8.864
 1829POPC   C1A25671  41.575  12.091   8.564
 1829POPC   D2A25672  41.560  12.068   8.264
 1829POPC   C3A25673  41.529  12.032   7.964
 1829POPC   C4A25674  41.552  12.041   7.664
 1829POPC   C1B25675  41.610  12.343   8.564
 1829POPC   C2B25676  41.577  12.283   8.264
 1829POPC   C3B25677  41.608  12.297   7.964
 1829POPC   C4B25678  41.607  12.286   7.664
 1830POPC   NC325679  17.515  27.607   9.464
 1830POPC   PO425680  17.506  27.606   9.164
 1830POPC   GL125681  17.532  27.554   8.864
 1830POPC   GL225682  17.605  27.559   8.864
 1830POPC   C1A25683  17.507  27.578   8.564
 1830POPC   D2A25684  17.524  27.595   8.264
 1830POPC   C3A25685  17.497  27.611   7.964
 1830POPC   C4A25686  17.536  27.642   7.664
 1830POPC   C1B25687  17.731  27.481   8.564
 1830POPC   C2B25688  17.684  27.493   8.264
 1830POPC   C3B25689  17.772  27.464   7.964
 1830POPC   C4B25690  17.708  27.451   7.664
 1831POPC   NC325691  12.874  43.881   9.464
 1831POPC   PO425692  12.849  43.877   9.164
 1831POPC   GL125693  12.804  43.918   8.864
 1831POPC   GL225694  12.826  43.748   8.864
 1831POPC   C1A25695  12.874  43.915   8.564
 1831POPC   D2A25696  12.865  43.936   8.264
 1831POPC   C3A25697  12.849  43.844   7.964
 1831POPC   C4A25698  12.836  43.923   7.664
 1831POPC   C1B25699  12.830  43.650   8.564
 1831POPC   C2B25700  12.825  43.656   8.264
 1831POPC   C3B25701  12.887  43.658   7.964
 1831POPC   C4B25702  12.883  43.658   7.664
 1832POPC   NC325703  43.075  22.964   9.464
 1832POPC   PO425704  43.080  22.935   9.164
 1832POPC   GL125705  43.126  22.891   8.864
 1832POPC   GL225706  43.095  23.042   8.864
 1832POPC   C1A25707  43.159  22.949   8.564
 1832POPC   D2A25708  43.077  22.944   8.264
 1832POPC   C3A25709  43.084  22.935   7.964
 1832POPC   C4A25710  43.156  22.913   7.664
 1832POPC   C1B25711  43.189  23.154   8.564
 1832POPC   C2B25712  43.114  23.210   8.264
 1832POPC   C3B25713  43.131  23.178   7.964
 1832POPC   C4B25714  43.093  23.207   7.664
 1833POPC   NC325715  30.701  40.753   9.464
 1833POPC   PO425716  30.683  40.754   9.164
 1833POPC   GL125717  30.694  40.804   8.864
 1833POPC   GL225718  30.580  40.772   8.864
 1833POPC   C1A25719  30.666  40.742   8.564
 1833POPC   D2A25720  30.668  40.735   8.264
 1833POPC   C3A25721  30.703  40.788   7.964
 1833POPC   C4A25722  30.666  40.824   7.664
 1833POPC   C1B25723  30.455  40.838   8.564
 1833POPC   C2B25724  30.446  40.804   8.264
 1833POPC   C3B25725  30.425  40.801   7.964
 1833POPC   C4B25726  30.502  40.857   7.664
 1834POPC   NC325727  15.169  27.571   9.464
 1834POPC   PO425728  15.189  27.639   9.164
 1834POPC   GL125729  15.199  27.609   8.864
 1834POPC   GL225730  15.272  27.496   8.864
 1834POPC   C1A25731  15.211  27.588   8.564
 1834POPC   D2A25732  15.180  27.618   8.264
 1834POPC   C3A25733  15.159  27.586   7.964
 1834POPC   C4A25734  15.172  27.643   7.664
 1834POPC   C1B25735  15.361  27.440   8.564
 1834POPC   C2B25736  15.410  27.460   8.264
 1834POPC   C3B25737  15.347  27.416   7.964
 1834POPC   C4B25738  15.356  27.472   7.664
 1835POPC   NC325739  35.371  18.285   9.464
 1835POPC   PO425740  35.358  18.269   9.164
 1835POPC   GL125741  35.384  18.235   8.864
 1835POPC   GL225742  35.460  18.215   8.864
 1835POPC   C1A25743  35.307  18.303   8.564
 1835POPC   D2A25744  35.368  18.286   8.264
 1835POPC   C3A25745  35.395  18.330   7.964
 1835POPC   C4A25746  35.306  18.248   7.664
 1835POPC   C1B25747  35.522  18.140   8.564
 1835POPC   C2B25748  35.562  18.148   8.264
 1835POPC   C3B25749  35.529  18.094   7.964
 1835POPC   C4B25750  35.564  18.139   7.664
 1836POPC   NC325751  22.974  25.220   9.464
 1836POPC   PO425752  22.987  25.252   9.164
 1836POPC   GL125753  22.907  25.246   8.864
 1836POPC   GL225754  22.826  25.326   8.864
 1836POPC   C1A25755  22.911  25.275   8.564
 1836POPC   D2A25756  22.934  25.280   8.264
 1836POPC   C3A25757  22.921  25.279   7.964
 1836POPC   C4A25758  22.937  25.243   7.664
 1836POPC   C1B25759  22.770  25.401   8.564
 1836POPC   C2B25760  22.805  25.461   8.264
 1836POPC   C3B25761  22.783  25.493   7.964
 1836POPC   C4B25762  22.718  25.432   7.664
 1837POPC   NC325763  10.570  21.369   9.464
 1837POPC   PO425764  10.516  21.377   9.164
 1837POPC   GL125765  10.494  21.350   8.864
 1837POPC   GL225766  10.414  21.304   8.864
 1837POPC   C1A25767  10.566  21.395   8.564
 1837POPC   D2A25768  10.479  21.362   8.264
 1837POPC   C3A25769  10.551  21.377   7.964
 1837POPC   C4A25770  10.564  21.405   7.664
 1837POPC   C1B25771  10.371  21.245   8.564
 1837POPC   C2B25772  10.305  21.253   8.264
 1837POPC   C3B25773  10.327  21.227   7.964
 1837POPC   C4B25774  10.383  21.266   7.664
 1838POPC   NC325775  25.298  22.922   9.464
 1838POPC   PO425776  25.301  22.944   9.164
 1838POPC   GL125777  25.311  22.937   8.864
 1838POPC   GL225778  25.306  23.030   8.864
 1838POPC   C1A25779  25.304  22.980   8.564
 1838POPC   D2A25780  25.284  22.935   8.264
 1838POPC   C3A25781  25.246  22.893   7.964
 1838POPC   C4A25782  25.242  22.910   7.664
 1838POPC   C1B25783  25.423  23.169   8.564
 1838POPC   C2B25784  25.357  23.105   8.264
 1838POPC   C3B25785  25.367  23.129   7.964
 1838POPC   C4B25786  25.444  23.184   7.664
 1839POPC   NC325787  42.288  40.777   9.464
 1839POPC   PO425788  42.330  40.744   9.164
 1839POPC   GL125789  42.347  40.749   8.864
 1839POPC   GL225790  42.425  40.798   8.864
 1839POPC   C1A25791  42.303  40.801   8.564
 1839POPC   D2A25792  42.344  40.802   8.264
 1839POPC   C3A25793  42.305  40.829   7.964
 1839POPC   C4A25794  42.343  40.817   7.664
 1839POPC   C1B25795  42.569  40.755   8.564
 1839POPC   C2B25796  42.583  40.852   8.264
 1839POPC   C3B25797  42.599  40.779   7.964
 1839POPC   C4B25798  42.551  40.845   7.664
 1840POPC   NC325799   5.099  16.694   9.464
 1840POPC   PO425800   5.129  16.742   9.164
 1840POPC   GL125801   5.071  16.757   8.864
 1840POPC   GL225802   4.969  16.662   8.864
 1840POPC   C1A25803   5.048  16.708   8.564
 1840POPC   D2A25804   5.102  16.701   8.264
 1840POPC   C3A25805   5.108  16.703   7.964
 1840POPC   C4A25806   5.084  16.689   7.664
 1840POPC   C1B25807   4.954  16.568   8.564
 1840POPC   C2B25808   4.952  16.579   8.264
 1840POPC   C3B25809   4.897  16.581   7.964
 1840POPC   C4B25810   4.934  16.587   7.664
 1841POPC   NC325811  29.174  11.318   9.464
 1841POPC   PO425812  29.148  11.306   9.164
 1841POPC   GL125813  29.129  11.328   8.864
 1841POPC   GL225814  29.246  11.236   8.864
 1841POPC   C1A25815  29.189  11.320   8.564
 1841POPC   D2A25816  29.120  11.283   8.264
 1841POPC   C3A25817  29.111  11.349   7.964
 1841POPC   C4A25818  29.125  11.282   7.664
 1841POPC   C1B25819  29.266  11.061   8.564
 1841POPC   C2B25820  29.317  11.143   8.264
 1841POPC   C3B25821  29.298  11.100   7.964
 1841POPC   C4B25822  29.277  11.118   7.664
 1842POPC   NC325823  15.913  18.245   9.464
 1842POPC   PO425824  15.972  18.287   9.164
 1842POPC   GL125825  15.933  18.304   8.864
 1842POPC   GL225826  15.848  18.187   8.864
 1842POPC   C1A25827  15.958  18.278   8.564
 1842POPC   D2A25828  15.996  18.300   8.264
 1842POPC   C3A25829  15.967  18.287   7.964
 1842POPC   C4A25830  15.937  18.242   7.664
 1842POPC   C1B25831  15.772  18.133   8.564
 1842POPC   C2B25832  15.740  18.109   8.264
 1842POPC   C3B25833  15.701  18.185   7.964
 1842POPC   C4B25834  15.708  18.166   7.664
 1843POPC   NC325835  31.423  42.339   9.464
 1843POPC   PO425836  31.425  42.359   9.164
 1843POPC   GL125837  31.479  42.326   8.864
 1843POPC   GL225838  31.381  42.304   8.864
 1843POPC   C1A25839  31.428  42.331   8.564
 1843POPC   D2A25840  31.460  42.343   8.264
 1843POPC   C3A25841  31.443  42.351   7.964
 1843POPC   C4A25842  31.464  42.299   7.664
 1843POPC   C1B25843  31.238  42.198   8.564
 1843POPC   C2B25844  31.270  42.223   8.264
 1843POPC   C3B25845  31.286  42.185   7.964
 1843POPC   C4B25846  31.279  42.167   7.664
 1844POPC   NC325847  41.593  43.132   9.464
 1844POPC   PO425848  41.584  43.086   9.164
 1844POPC   GL125849  41.578  43.128   8.864
 1844POPC   GL225850  41.449  43.052   8.864
 1844POPC   C1A25851  41.511  43.116   8.564
 1844POPC   D2A25852  41.594  43.133   8.264
 1844POPC   C3A25853  41.526  43.122   7.964
 1844POPC   C4A25854  41.544  43.156   7.664
 1844POPC   C1B25855  41.334  43.093   8.564
 1844POPC   C2B25856  41.337  43.102   8.264
 1844POPC   C3B25857  41.297  43.043   7.964
 1844POPC   C4B25858  41.294  43.053   7.664
 1845POPC   NC325859  24.520  29.939   9.464
 1845POPC   PO425860  24.533  29.958   9.164
 1845POPC   GL125861  24.538  29.922   8.864
 1845POPC   GL225862  24.569  29.857   8.864
 1845POPC   C1A25863  24.508  29.944   8.564
 1845POPC   D2A25864  24.505  29.913   8.264
 1845POPC   C3A25865  24.505  29.946   7.964
 1845POPC   C4A25866  24.534  29.969   7.664
 1845POPC   C1B25867  24.679  29.768   8.564
 1845POPC   C2B25868  24.665  29.734   8.264
 1845POPC   C3B25869  24.642  29.703   7.964
 1845POPC   C4B25870  24.644  29.762   7.664
 1846POPC   NC325871   3.552  19.874   9.464
 1846POPC   PO425872   3.543  19.851   9.164
 1846POPC   GL125873   3.537  19.802   8.864
 1846POPC   GL225874   3.623  19.961   8.864
 1846POPC   C1A25875   3.568  19.835   8.564
 1846POPC   D2A25876   3.574  19.835   8.264
 1846POPC   C3A25877   3.493  19.869   7.964
 1846POPC   C4A25878   3.523  19.815   7.664
 1846POPC   C1B25879   3.695  20.028   8.564
 1846POPC   C2B25880   3.665  20.067   8.264
 1846POPC   C3B25881   3.656  20.060   7.964
 1846POPC   C4B25882   3.713  19.988   7.664
 1847POPC   NC325883  10.564   3.503   9.464
 1847POPC   PO425884  10.556   3.571   9.164
 1847POPC   GL125885  10.545   3.527   8.864
 1847POPC   GL225886  10.499   3.688   8.864
 1847POPC   C1A25887  10.514   3.547   8.564
 1847POPC   D2A25888  10.546   3.504   8.264
 1847POPC   C3A25889  10.559   3.552   7.964
 1847POPC   C4A25890  10.562   3.556   7.664
 1847POPC   C1B25891  10.604   3.797   8.564
 1847POPC   C2B25892  10.577   3.742   8.264
 1847POPC   C3B25893  10.536   3.756   7.964
 1847POPC   C4B25894  10.540   3.806   7.664
 1848POPC   NC325895   8.987  39.182   9.464
 1848POPC   PO425896   8.980  39.250   9.164
 1848POPC   GL125897   9.007  39.184   8.864
 1848POPC   GL225898   8.828  39.202   8.864
 1848POPC   C1A25899   8.946  39.218   8.564
 1848POPC   D2A25900   8.975  39.198   8.264
 1848POPC   C3A25901   8.942  39.211   7.964
 1848POPC   C4A25902   8.944  39.218   7.664
 1848POPC   C1B25903   8.764  39.125   8.564
 1848POPC   C2B25904   8.794  39.089   8.264
 1848POPC   C3B25905   8.741  39.085   7.964
 1848POPC   C4B25906   8.787  39.076   7.664
 1849POPC   NC325907  29.139  44.666   9.464
 1849POPC   PO425908  29.194  44.673   9.164
 1849POPC   GL125909  29.168  44.665   8.864
 1849POPC   GL225910  29.243  44.778   8.864
 1849POPC   C1A25911  29.107  44.708   8.564
 1849POPC   D2A25912  29.104  44.633   8.264
 1849POPC   C3A25913  29.152  44.708   7.964
 1849POPC   C4A25914  29.185  44.683   7.664
 1849POPC   C1B25915  29.344  44.787   8.564
 1849POPC   C2B25916  29.372  44.777   8.264
 1849POPC   C3B25917  29.370  44.776   7.964
 1849POPC   C4B25918  29.396  44.830   7.664
 1850POPC   NC325919  29.921  35.369   9.464
 1850POPC   PO425920  29.911  35.362   9.164
 1850POPC   GL125921  29.880  35.348   8.864
 1850POPC   GL225922  29.935  35.456   8.864
 1850POPC   C1A25923  29.941  35.314   8.564
 1850POPC   D2A25924  29.930  35.311   8.264
 1850POPC   C3A25925  29.947  35.305   7.964
 1850POPC   C4A25926  29.947  35.384   7.664
 1850POPC   C1B25927  29.893  35.582   8.564
 1850POPC   C2B25928  29.947  35.607   8.264
 1850POPC   C3B25929  29.965  35.602   7.964
 1850POPC   C4B25930  29.905  35.568   7.664
 1851POPC   NC325931  10.524   1.170   9.464
 1851POPC   PO425932  10.477   1.260   9.164
 1851POPC   GL125933  10.551   1.182   8.864
 1851POPC   GL225934  10.571   1.053   8.864
 1851POPC   C1A25935  10.556   1.235   8.564
 1851POPC   D2A25936  10.511   1.222   8.264
 1851POPC   C3A25937  10.515   1.202   7.964
 1851POPC   C4A25938  10.570   1.185   7.664
 1851POPC   C1B25939  10.602   0.975   8.564
 1851POPC   C2B25940  10.508   0.982   8.264
 1851POPC   C3B25941  10.507   0.937   7.964
 1851POPC   C4B25942  10.548   0.982   7.664
 1852POPC   NC325943  22.926   5.102   9.464
 1852POPC   PO425944  22.974   5.060   9.164
 1852POPC   GL125945  22.964   5.088   8.864
 1852POPC   GL225946  22.932   4.972   8.864
 1852POPC   C1A25947  22.967   5.076   8.564
 1852POPC   D2A25948  22.935   5.115   8.264
 1852POPC   C3A25949  22.930   5.123   7.964
 1852POPC   C4A25950  22.891   5.078   7.664
 1852POPC   C1B25951  22.964   4.840   8.564
 1852POPC   C2B25952  22.978   4.848   8.264
 1852POPC   C3B25953  22.959   4.810   7.964
 1852POPC   C4B25954  22.984   4.881   7.664
 1853POPC   NC325955   7.419  43.148   9.464
 1853POPC   PO425956   7.431  43.082   9.164
 1853POPC   GL125957   7.469  43.137   8.864
 1853POPC   GL225958   7.344  43.194   8.864
 1853POPC   C1A25959   7.465  43.093   8.564
 1853POPC   D2A25960   7.416  43.152   8.264
 1853POPC   C3A25961   7.399  43.084   7.964
 1853POPC   C4A25962   7.420  43.104   7.664
 1853POPC   C1B25963   7.387  43.373   8.564
 1853POPC   C2B25964   7.340  43.380   8.264
 1853POPC   C3B25965   7.383  43.388   7.964
 1853POPC   C4B25966   7.302  43.359   7.664
 1854POPC   NC325967  15.941  28.367   9.464
 1854POPC   PO425968  15.989  28.337   9.164
 1854POPC   GL125969  15.990  28.360   8.864
 1854POPC   GL225970  16.065  28.448   8.864
 1854POPC   C1A25971  15.925  28.366   8.564
 1854POPC   D2A25972  15.977  28.399   8.264
 1854POPC   C3A25973  15.977  28.353   7.964
 1854POPC   C4A25974  15.922  28.376   7.664
 1854POPC   C1B25975  16.168  28.481   8.564
 1854POPC   C2B25976  16.140  28.490   8.264
 1854POPC   C3B25977  16.163  28.478   7.964
 1854POPC   C4B25978  16.229  28.488   7.664
 1855POPC   NC325979  18.321  20.578   9.464
 1855POPC   PO425980  18.242  20.645   9.164
 1855POPC   GL125981  18.268  20.609   8.864
 1855POPC   GL225982  18.383  20.570   8.864
 1855POPC   C1A25983  18.284  20.630   8.564
 1855POPC   D2A25984  18.306  20.605   8.264
 1855POPC   C3A25985  18.322  20.629   7.964
 1855POPC   C4A25986  18.248  20.636   7.664
 1855POPC   C1B25987  18.494  20.480   8.564
 1855POPC   C2B25988  18.540  20.518   8.264
 1855POPC   C3B25989  18.483  20.475   7.964
 1855POPC   C4B25990  18.516  20.454   7.664
 1856POPC   NC325991   0.447   5.842   9.464
 1856POPC   PO425992   0.460   5.885   9.164
 1856POPC   GL125993   0.446   5.882   8.864
 1856POPC   GL225994   0.378   5.985   8.864
 1856POPC   C1A25995   0.401   5.891   8.564
 1856POPC   D2A25996   0.422   5.838   8.264
 1856POPC   C3A25997   0.467   5.833   7.964
 1856POPC   C4A25998   0.439   5.855   7.664
 1856POPC   C1B25999   0.292   6.071   8.564
 1856POPC   C2B26000   0.317   6.111   8.264
 1856POPC   C3B26001   0.335   6.100   7.964
 1856POPC   C4B26002   0.295   6.054   7.664
 1857POPC   NC326003  27.585  14.376   9.464
 1857POPC   PO426004  27.583  14.448   9.164
 1857POPC   GL126005  27.550  14.424   8.864
 1857POPC   GL226006  27.534  14.313   8.864
 1857POPC   C1A26007  27.580  14.358   8.564
 1857POPC   D2A26008  27.568  14.405   8.264
 1857POPC   C3A26009  27.601  14.453   7.964
 1857POPC   C4A26010  27.625  14.408   7.664
 1857POPC   C1B26011  27.427  14.227   8.564
 1857POPC   C2B26012  27.439  14.234   8.264
 1857POPC   C3B26013  27.481  14.172   7.964
 1857POPC   C4B26014  27.499  14.191   7.664
 1858POPC   NC326015  34.537  26.822   9.464
 1858POPC   PO426016  34.544  26.783   9.164
 1858POPC   GL126017  34.614  26.839   8.864
 1858POPC   GL226018  34.441  26.732   8.864
 1858POPC   C1A26019  34.536  26.787   8.564
 1858POPC   D2A26020  34.603  26.814   8.264
 1858POPC   C3A26021  34.608  26.831   7.964
 1858POPC   C4A26022  34.576  26.827   7.664
 1858POPC   C1B26023  34.318  26.706   8.564
 1858POPC   C2B26024  34.366  26.765   8.264
 1858POPC   C3B26025  34.362  26.782   7.964
 1858POPC   C4B26026  34.356  26.750   7.664
 1859POPC   NC326027  14.431  13.611   9.464
 1859POPC   PO426028  14.400  13.627   9.164
 1859POPC   GL126029  14.391  13.653   8.864
 1859POPC   GL226030  14.332  13.749   8.864
 1859POPC   C1A26031  14.426  13.596   8.564
 1859POPC   D2A26032  14.406  13.630   8.264
 1859POPC   C3A26033  14.367  13.638   7.964
 1859POPC   C4A26034  14.380  13.627   7.664
 1859POPC   C1B26035  14.310  13.834   8.564
 1859POPC   C2B26036  14.338  13.893   8.264
 1859POPC   C3B26037  14.294  13.884   7.964
 1859POPC   C4B26038  14.266  13.896   7.664
 1860POPC   NC326039  38.427  20.627   9.464
 1860POPC   PO426040  38.428  20.613   9.164
 1860POPC   GL126041  38.407  20.604   8.864
 1860POPC   GL226042  38.390  20.669   8.864
 1860POPC   C1A26043  38.416  20.573   8.564
 1860POPC   D2A26044  38.491  20.639   8.264
 1860POPC   C3A26045  38.453  20.561   7.964
 1860POPC   C4A26046  38.474  20.601   7.664
 1860POPC   C1B26047  38.333  20.776   8.564
 1860POPC   C2B26048  38.262  20.834   8.264
 1860POPC   C3B26049  38.314  20.814   7.964
 1860POPC   C4B26050  38.312  20.771   7.664
 1861POPC   NC326051  32.230  36.926   9.464
 1861POPC   PO426052  32.277  36.861   9.164
 1861POPC   GL126053  32.217  36.945   8.864
 1861POPC   GL226054  32.306  36.841   8.864
 1861POPC   C1A26055  32.215  36.933   8.564
 1861POPC   D2A26056  32.250  36.888   8.264
 1861POPC   C3A26057  32.201  36.890   7.964
 1861POPC   C4A26058  32.277  36.871   7.664
 1861POPC   C1B26059  32.455  36.795   8.564
 1861POPC   C2B26060  32.472  36.741   8.264
 1861POPC   C3B26061  32.415  36.723   7.964
 1861POPC   C4B26062  32.411  36.726   7.664
 1862POPC   NC326063   5.901   3.563   9.464
 1862POPC   PO426064   5.916   3.584   9.164
 1862POPC   GL126065   5.840   3.558   8.864
 1862POPC   GL226066   5.842   3.643   8.864
 1862POPC   C1A26067   5.868   3.582   8.564
 1862POPC   D2A26068   5.872   3.572   8.264
 1862POPC   C3A26069   5.853   3.516   7.964
 1862POPC   C4A26070   5.830   3.501   7.664
 1862POPC   C1B26071   5.691   3.759   8.564
 1862POPC   C2B26072   5.774   3.742   8.264
 1862POPC   C3B26073   5.778   3.801   7.964
 1862POPC   C4B26074   5.741   3.759   7.664
 1863POPC   NC326075   0.423  39.978   9.464
 1863POPC   PO426076   0.441  39.963   9.164
 1863POPC   GL126077   0.459  40.011   8.864
 1863POPC   GL226078   0.331  40.052   8.864
 1863POPC   C1A26079   0.442  39.978   8.564
 1863POPC   D2A26080   0.418  40.028   8.264
 1863POPC   C3A26081   0.482  40.030   7.964
 1863POPC   C4A26082   0.458  39.995   7.664
 1863POPC   C1B26083   0.220  40.204   8.564
 1863POPC   C2B26084   0.241  40.226   8.264
 1863POPC   C3B26085   0.305  40.194   7.964
 1863POPC   C4B26086   0.266  40.157   7.664
 1864POPC   NC326087  29.944   1.967   9.464
 1864POPC   PO426088  29.905   2.004   9.164
 1864POPC   GL126089  29.921   1.943   8.864
 1864POPC   GL226090  29.821   1.988   8.864
 1864POPC   C1A26091  29.916   2.019   8.564
 1864POPC   D2A26092  29.967   2.002   8.264
 1864POPC   C3A26093  29.934   2.032   7.964
 1864POPC   C4A26094  29.945   2.029   7.664
 1864POPC   C1B26095  29.686   2.037   8.564
 1864POPC   C2B26096  29.655   2.071   8.264
 1864POPC   C3B26097  29.687   2.028   7.964
 1864POPC   C4B26098  29.634   2.011   7.664
 1865POPC   NC326099  30.676   0.428   9.464
 1865POPC   PO426100  30.736   0.463   9.164
 1865POPC   GL126101  30.656   0.409   8.864
 1865POPC   GL226102  30.582   0.531   8.864
 1865POPC   C1A26103  30.726   0.451   8.564
 1865POPC   D2A26104  30.690   0.402   8.264
 1865POPC   C3A26105  30.716   0.437   7.964
 1865POPC   C4A26106  30.682   0.461   7.664
 1865POPC   C1B26107  30.427   0.547   8.564
 1865POPC   C2B26108  30.475   0.600   8.264
 1865POPC   C3B26109  30.452   0.569   7.964
 1865POPC   C4B26110  30.499   0.531   7.664
 1866POPC   NC326111   5.122  11.289   9.464
 1866POPC   PO426112   5.051  11.291   9.164
 1866POPC   GL126113   5.073  11.306   8.864
 1866POPC   GL226114   4.997  11.307   8.864
 1866POPC   C1A26115   5.069  11.328   8.564
 1866POPC   D2A26116   5.122  11.284   8.264
 1866POPC   C3A26117   5.050  11.310   7.964
 1866POPC   C4A26118   5.052  11.260   7.664
 1866POPC   C1B26119   4.910  11.408   8.564
 1866POPC   C2B26120   4.831  11.365   8.264
 1866POPC   C3B26121   4.894  11.436   7.964
 1866POPC   C4B26122   4.837  11.387   7.664
 1867POPC   NC326123  25.237   4.285   9.464
 1867POPC   PO426124  25.311   4.361   9.164
 1867POPC   GL126125  25.305   4.366   8.864
 1867POPC   GL226126  25.132   4.288   8.864
 1867POPC   C1A26127  25.313   4.320   8.564
 1867POPC   D2A26128  25.255   4.290   8.264
 1867POPC   C3A26129  25.228   4.270   7.964
 1867POPC   C4A26130  25.257   4.314   7.664
 1867POPC   C1B26131  25.063   4.353   8.564
 1867POPC   C2B26132  25.021   4.285   8.264
 1867POPC   C3B26133  24.967   4.341   7.964
 1867POPC   C4B26134  25.038   4.377   7.664
 1868POPC   NC326135  16.743  43.141   9.464
 1868POPC   PO426136  16.778  43.079   9.164
 1868POPC   GL126137  16.750  43.065   8.864
 1868POPC   GL226138  16.770  43.033   8.864
 1868POPC   C1A26139  16.710  43.117   8.564
 1868POPC   D2A26140  16.688  43.092   8.264
 1868POPC   C3A26141  16.771  43.133   7.964
 1868POPC   C4A26142  16.746  43.103   7.664
 1868POPC   C1B26143  16.912  42.936   8.564
 1868POPC   C2B26144  16.850  42.928   8.264
 1868POPC   C3B26145  16.831  42.924   7.964
 1868POPC   C4B26146  16.853  42.919   7.664
 1869POPC   NC326147  32.199  40.832   9.464
 1869POPC   PO426148  32.216  40.746   9.164
 1869POPC   GL126149  32.214  40.818   8.864
 1869POPC   GL226150  32.093  40.826   8.864
 1869POPC   C1A26151  32.233  40.829   8.564
 1869POPC   D2A26152  32.284  40.737   8.264
 1869POPC   C3A26153  32.248  40.798   7.964
 1869POPC   C4A26154  32.205  40.824   7.664
 1869POPC   C1B26155  31.964  40.777   8.564
 1869POPC   C2B26156  32.014  40.873   8.264
 1869POPC   C3B26157  32.022  40.830   7.964
 1869POPC   C4B26158  31.982  40.799   7.664
 1870POPC   NC326159   8.963  41.581   9.464
 1870POPC   PO426160   8.980  41.548   9.164
 1870POPC   GL126161   8.993  41.531   8.864
 1870POPC   GL226162   8.867  41.651   8.864
 1870POPC   C1A26163   8.937  41.600   8.564
 1870POPC   D2A26164   8.970  41.532   8.264
 1870POPC   C3A26165   8.965  41.541   7.964
 1870POPC   C4A26166   8.948  41.583   7.664
 1870POPC   C1B26167   8.891  41.754   8.564
 1870POPC   C2B26168   8.835  41.802   8.264
 1870POPC   C3B26169   8.815  41.801   7.964
 1870POPC   C4B26170   8.892  41.744   7.664
 1871POPC   NC326171   9.714   5.911   9.464
 1871POPC   PO426172   9.768   5.867   9.164
 1871POPC   GL126173   9.790   5.819   8.864
 1871POPC   GL226174   9.857   5.756   8.864
 1871POPC   C1A26175   9.751   5.882   8.564
 1871POPC   D2A26176   9.702   5.833   8.264
 1871POPC   C3A26177   9.711   5.893   7.964
 1871POPC   C4A26178   9.777   5.828   7.664
 1871POPC   C1B26179   9.889   5.716   8.564
 1871POPC   C2B26180   9.901   5.698   8.264
 1871POPC   C3B26181   9.920   5.680   7.964
 1871POPC   C4B26182   9.915   5.753   7.664
 1872POPC   NC326183  37.640  26.799   9.464
 1872POPC   PO426184  37.727  26.824   9.164
 1872POPC   GL126185  37.700  26.798   8.864
 1872POPC   GL226186  37.774  26.890   8.864
 1872POPC   C1A26187  37.646  26.830   8.564
 1872POPC   D2A26188  37.681  26.808   8.264
 1872POPC   C3A26189  37.642  26.782   7.964
 1872POPC   C4A26190  37.694  26.850   7.664
 1872POPC   C1B26191  37.876  26.955   8.564
 1872POPC   C2B26192  37.907  26.919   8.264
 1872POPC   C3B26193  37.934  26.883   7.964
 1872POPC   C4B26194  37.892  26.946   7.664
 1873POPC   NC326195  22.898   9.774   9.464
 1873POPC   PO426196  22.952   9.762   9.164
 1873POPC   GL126197  22.970   9.737   8.864
 1873POPC   GL226198  22.871   9.780   8.864
 1873POPC   C1A26199  22.925   9.788   8.564
 1873POPC   D2A26200  22.940   9.753   8.264
 1873POPC   C3A26201  22.953   9.792   7.964
 1873POPC   C4A26202  22.921   9.791   7.664
 1873POPC   C1B26203  22.718   9.956   8.564
 1873POPC   C2B26204  22.739   9.926   8.264
 1873POPC   C3B26205  22.726   9.944   7.964
 1873POPC   C4B26206  22.747   9.892   7.664
 1874POPC   NC326207  41.561  32.979   9.464
 1874POPC   PO426208  41.556  32.974   9.164
 1874POPC   GL126209  41.567  32.990   8.864
 1874POPC   GL226210  41.422  33.067   8.864
 1874POPC   C1A26211  41.529  33.060   8.564
 1874POPC   D2A26212  41.587  32.994   8.264
 1874POPC   C3A26213  41.605  33.057   7.964
 1874POPC   C4A26214  41.607  33.006   7.664
 1874POPC   C1B26215  41.315  33.104   8.564
 1874POPC   C2B26216  41.341  33.109   8.264
 1874POPC   C3B26217  41.314  33.121   7.964
 1874POPC   C4B26218  41.352  33.106   7.664
 1875POPC   NC326219   4.291  20.569   9.464
 1875POPC   PO426220   4.303  20.572   9.164
 1875POPC   GL126221   4.326  20.624   8.864
 1875POPC   GL226222   4.172  20.628   8.864
 1875POPC   C1A26223   4.314  20.620   8.564
 1875POPC   D2A26224   4.300  20.645   8.264
 1875POPC   C3A26225   4.298  20.635   7.964
 1875POPC   C4A26226   4.273  20.653   7.664
 1875POPC   C1B26227   4.071  20.706   8.564
 1875POPC   C2B26228   4.112  20.683   8.264
 1875POPC   C3B26229   4.116  20.721   7.964
 1875POPC   C4B26230   4.144  20.721   7.664
 1876POPC   NC326231  18.284  37.683   9.464
 1876POPC   PO426232  18.256  37.659   9.164
 1876POPC   GL126233  18.296  37.643   8.864
 1876POPC   GL226234  18.390  37.703   8.864
 1876POPC   C1A26235  18.263  37.718   8.564
 1876POPC   D2A26236  18.306  37.644   8.264
 1876POPC   C3A26237  18.249  37.649   7.964
 1876POPC   C4A26238  18.294  37.700   7.664
 1876POPC   C1B26239  18.557  37.780   8.564
 1876POPC   C2B26240  18.523  37.800   8.264
 1876POPC   C3B26241  18.531  37.751   7.964
 1876POPC   C4B26242  18.542  37.775   7.664
 1877POPC   NC326243  32.977  17.469   9.464
 1877POPC   PO426244  33.051  17.534   9.164
 1877POPC   GL126245  33.013  17.485   8.864
 1877POPC   GL226246  32.959  17.613   8.864
 1877POPC   C1A26247  32.992  17.550   8.564
 1877POPC   D2A26248  33.036  17.517   8.264
 1877POPC   C3A26249  33.029  17.509   7.964
 1877POPC   C4A26250  33.047  17.478   7.664
 1877POPC   C1B26251  32.903  17.707   8.564
 1877POPC   C2B26252  32.856  17.700   8.264
 1877POPC   C3B26253  32.875  17.708   7.964
 1877POPC   C4B26254  32.861  17.696   7.664
 1878POPC   NC326255  32.223  33.818   9.464
 1878POPC   PO426256  32.248  33.770   9.164
 1878POPC   GL126257  32.229  33.792   8.864
 1878POPC   GL226258  32.161  33.726   8.864
 1878POPC   C1A26259  32.218  33.770   8.564
 1878POPC   D2A26260  32.243  33.753   8.264
 1878POPC   C3A26261  32.229  33.794   7.964
 1878POPC   C4A26262  32.227  33.793   7.664
 1878POPC   C1B26263  32.107  33.528   8.564
 1878POPC   C2B26264  32.144  33.602   8.264
 1878POPC   C3B26265  32.141  33.519   7.964
 1878POPC   C4B26266  32.138  33.584   7.664
 1879POPC   NC326267  18.302  11.264   9.464
 1879POPC   PO426268  18.250  11.296   9.164
 1879POPC   GL126269  18.315  11.284   8.864
 1879POPC   GL226270  18.199  11.219   8.864
 1879POPC   C1A26271  18.277  11.283   8.564
 1879POPC   D2A26272  18.288  11.270   8.264
 1879POPC   C3A26273  18.254  11.297   7.964
 1879POPC   C4A26274  18.293  11.294   7.664
 1879POPC   C1B26275  18.222  11.076   8.564
 1879POPC   C2B26276  18.227  11.103   8.264
 1879POPC   C3B26277  18.211  11.036   7.964
 1879POPC   C4B26278  18.183  11.103   7.664
 1880POPC   NC326279  39.996   5.861   9.464
 1880POPC   PO426280  39.992   5.827   9.164
 1880POPC   GL126281  39.986   5.838   8.864
 1880POPC   GL226282  39.932   5.841   8.864
 1880POPC   C1A26283  39.969   5.909   8.564
 1880POPC   D2A26284  40.021   5.917   8.264
 1880POPC   C3A26285  40.001   5.876   7.964
 1880POPC   C4A26286  40.032   5.910   7.664
 1880POPC   C1B26287  39.748   5.940   8.564
 1880POPC   C2B26288  39.737   5.858   8.264
 1880POPC   C3B26289  39.713   5.849   7.964
 1880POPC   C4B26290  39.715   5.875   7.664
 1881POPC   NC326291  17.531  24.501   9.464
 1881POPC   PO426292  17.469  24.480   9.164
 1881POPC   GL126293  17.506  24.526   8.864
 1881POPC   GL226294  17.576  24.515   8.864
 1881POPC   C1A26295  17.491  24.519   8.564
 1881POPC   D2A26296  17.485  24.474   8.264
 1881POPC   C3A26297  17.506  24.536   7.964
 1881POPC   C4A26298  17.537  24.492   7.664
 1881POPC   C1B26299  17.739  24.626   8.564
 1881POPC   C2B26300  17.669  24.660   8.264
 1881POPC   C3B26301  17.715  24.626   7.964
 1881POPC   C4B26302  17.675  24.593   7.664
 1882POPC   NC326303  38.417   2.784   9.464
 1882POPC   PO426304  38.484   2.728   9.164
 1882POPC   GL126305  38.442   2.762   8.864
 1882POPC   GL226306  38.505   2.610   8.864
 1882POPC   C1A26307  38.479   2.753   8.564
 1882POPC   D2A26308  38.455   2.733   8.264
 1882POPC   C3A26309  38.469   2.730   7.964
 1882POPC   C4A26310  38.465   2.771   7.664
 1882POPC   C1B26311  38.572   2.515   8.564
 1882POPC   C2B26312  38.561   2.572   8.264
 1882POPC   C3B26313  38.548   2.565   7.964
 1882POPC   C4B26314  38.573   2.595   7.664
 1883POPC   NC326315   2.751  25.291   9.464
 1883POPC   PO426316   2.764  25.299   9.164
 1883POPC   GL126317   2.783  25.259   8.864
 1883POPC   GL226318   2.707  25.411   8.864
 1883POPC   C1A26319   2.742  25.269   8.564
 1883POPC   D2A26320   2.792  25.281   8.264
 1883POPC   C3A26321   2.794  25.310   7.964
 1883POPC   C4A26322   2.734  25.292   7.664
 1883POPC   C1B26323   2.610  25.481   8.564
 1883POPC   C2B26324   2.640  25.436   8.264
 1883POPC   C3B26325   2.618  25.455   7.964
 1883POPC   C4B26326   2.603  25.478   7.664
 1884POPC   NC326327  20.609  40.768   9.464
 1884POPC   PO426328  20.582  40.798   9.164
 1884POPC   GL126329  20.645  40.815   8.864
 1884POPC   GL226330  20.535  40.876   8.864
 1884POPC   C1A26331  20.564  40.830   8.564
 1884POPC   D2A26332  20.598  40.830   8.264
 1884POPC   C3A26333  20.655  40.809   7.964
 1884POPC   C4A26334  20.573  40.738   7.664
 1884POPC   C1B26335  20.503  41.045   8.564
 1884POPC   C2B26336  20.450  41.002   8.264
 1884POPC   C3B26337  20.448  41.049   7.964
 1884POPC   C4B26338  20.477  40.958   7.664
 1885POPC   NC326339  33.013   0.410   9.464
 1885POPC   PO426340  33.073   0.439   9.164
 1885POPC   GL126341  33.051   0.459   8.864
 1885POPC   GL226342  32.921   0.333   8.864
 1885POPC   C1A26343  32.981   0.484   8.564
 1885POPC   D2A26344  33.004   0.450   8.264
 1885POPC   C3A26345  32.999   0.419   7.964
 1885POPC   C4A26346  33.008   0.427   7.664
 1885POPC   C1B26347  32.831   0.206   8.564
 1885POPC   C2B26348  32.840   0.253   8.264
 1885POPC   C3B26349  32.906   0.211   7.964
 1885POPC   C4B26350  32.908   0.235   7.664
 1886POPC   NC326351  32.222  32.296   9.464
 1886POPC   PO426352  32.220  32.207   9.164
 1886POPC   GL126353  32.215  32.203   8.864
 1886POPC   GL226354  32.110  32.324   8.864
 1886POPC   C1A26355  32.259  32.233   8.564
 1886POPC   D2A26356  32.289  32.228   8.264
 1886POPC   C3A26357  32.292  32.270   7.964
 1886POPC   C4A26358  32.257  32.239   7.664
 1886POPC   C1B26359  31.990  32.284   8.564
 1886POPC   C2B26360  32.033  32.314   8.264
 1886POPC   C3B26361  32.018  32.339   7.964
 1886POPC   C4B26362  32.000  32.358   7.664
 1887POPC   NC326363  14.426  43.135   9.464
 1887POPC   PO426364  14.403  43.078   9.164
 1887POPC   GL126365  14.355  43.138   8.864
 1887POPC   GL226366  14.361  42.963   8.864
 1887POPC   C1A26367  14.407  43.152   8.564
 1887POPC   D2A26368  14.403  43.083   8.264
 1887POPC   C3A26369  14.403  43.096   7.964
 1887POPC   C4A26370  14.373  43.145   7.664
 1887POPC   C1B26371  14.359  42.870   8.564
 1887POPC   C2B26372  14.396  42.848   8.264
 1887POPC   C3B26373  14.441  42.873   7.964
 1887POPC   C4B26374  14.425  42.816   7.664
 1888POPC   NC326375   3.507  29.190   9.464
 1888POPC   PO426376   3.532  29.108   9.164
 1888POPC   GL126377   3.501  29.161   8.864
 1888POPC   GL226378   3.708  29.083   8.864
 1888POPC   C1A26379   3.561  29.160   8.564
 1888POPC   D2A26380   3.565  29.096   8.264
 1888POPC   C3A26381   3.574  29.105   7.964
 1888POPC   C4A26382   3.572  29.186   7.664
 1888POPC   C1B26383   3.764  29.124   8.564
 1888POPC   C2B26384   3.759  29.128   8.264
 1888POPC   C3B26385   3.757  29.136   7.964
 1888POPC   C4B26386   3.773  29.109   7.664
 1889POPC   NC326387  24.500  36.899   9.464
 1889POPC   PO426388  24.534  36.889   9.164
 1889POPC   GL126389  24.490  36.875   8.864
 1889POPC   GL226390  24.649  36.985   8.864
 1889POPC   C1A26391  24.497  36.866   8.564
 1889POPC   D2A26392  24.462  36.882   8.264
 1889POPC   C3A26393  24.518  36.938   7.964
 1889POPC   C4A26394  24.485  36.942   7.664
 1889POPC   C1B26395  24.703  36.993   8.564
 1889POPC   C2B26396  24.731  36.985   8.264
 1889POPC   C3B26397  24.694  37.003   7.964
 1889POPC   C4B26398  24.738  37.031   7.664
 1890POPC   NC326399  15.151  43.089   9.464
 1890POPC   PO426400  15.187  43.078   9.164
 1890POPC   GL126401  15.147  43.096   8.864
 1890POPC   GL226402  15.158  43.220   8.864
 1890POPC   C1A26403  15.172  43.136   8.564
 1890POPC   D2A26404  15.206  43.098   8.264
 1890POPC   C3A26405  15.140  43.110   7.964
 1890POPC   C4A26406  15.170  43.105   7.664
 1890POPC   C1B26407  15.215  43.336   8.564
 1890POPC   C2B26408  15.140  43.376   8.264
 1890POPC   C3B26409  15.185  43.331   7.964
 1890POPC   C4B26410  15.159  43.330   7.664
 1891POPC   NC326411  12.872   1.234   9.464
 1891POPC   PO426412  12.867   1.242   9.164
 1891POPC   GL126413  12.855   1.253   8.864
 1891POPC   GL226414  12.875   1.305   8.864
 1891POPC   C1A26415  12.843   1.252   8.564
 1891POPC   D2A26416  12.848   1.210   8.264
 1891POPC   C3A26417  12.863   1.242   7.964
 1891POPC   C4A26418  12.804   1.232   7.664
 1891POPC   C1B26419  12.990   1.490   8.564
 1891POPC   C2B26420  12.968   1.453   8.264
 1891POPC   C3B26421  12.967   1.481   7.964
 1891POPC   C4B26422  12.987   1.490   7.664
 1892POPC   NC326423   2.729  30.721   9.464
 1892POPC   PO426424   2.795  30.697   9.164
 1892POPC   GL126425   2.729  30.745   8.864
 1892POPC   GL226426   2.880  30.595   8.864
 1892POPC   C1A26427   2.716  30.726   8.564
 1892POPC   D2A26428   2.807  30.707   8.264
 1892POPC   C3A26429   2.717  30.699   7.964
 1892POPC   C4A26430   2.785  30.726   7.664
 1892POPC   C1B26431   2.915  30.512   8.564
 1892POPC   C2B26432   2.930  30.488   8.264
 1892POPC   C3B26433   2.994  30.568   7.964
 1892POPC   C4B26434   2.944  30.508   7.664
 1893POPC   NC326435  41.568  39.215   9.464
 1893POPC   PO426436  41.514  39.209   9.164
 1893POPC   GL126437  41.545  39.228   8.864
 1893POPC   GL226438  41.474  39.123   8.864
 1893POPC   C1A26439  41.594  39.250   8.564
 1893POPC   D2A26440  41.555  39.198   8.264
 1893POPC   C3A26441  41.531  39.253   7.964
 1893POPC   C4A26442  41.515  39.226   7.664
 1893POPC   C1B26443  41.396  39.023   8.564
 1893POPC   C2B26444  41.353  39.019   8.264
 1893POPC   C3B26445  41.419  39.077   7.964
 1893POPC   C4B26446  41.333  39.086   7.664
 1894POPC   NC326447   1.169  25.238   9.464
 1894POPC   PO426448   1.237  25.256   9.164
 1894POPC   GL126449   1.165  25.304   8.864
 1894POPC   GL226450   1.279  25.098   8.864
 1894POPC   C1A26451   1.176  25.233   8.564
 1894POPC   D2A26452   1.244  25.268   8.264
 1894POPC   C3A26453   1.172  25.281   7.964
 1894POPC   C4A26454   1.205  25.304   7.664
 1894POPC   C1B26455   1.284  25.019   8.564
 1894POPC   C2B26456   1.240  25.051   8.264
 1894POPC   C3B26457   1.276  25.058   7.964
 1894POPC   C4B26458   1.265  25.049   7.664
 1895POPC   NC326459   2.735  29.953   9.464
 1895POPC   PO426460   2.796  29.937   9.164
 1895POPC   GL126461   2.790  29.882   8.864
 1895POPC   GL226462   2.706  30.064   8.864
 1895POPC   C1A26463   2.778  29.913   8.564
 1895POPC   D2A26464   2.738  29.935   8.264
 1895POPC   C3A26465   2.734  29.965   7.964
 1895POPC   C4A26466   2.784  29.875   7.664
 1895POPC   C1B26467   2.711  30.208   8.564
 1895POPC   C2B26468   2.698  30.206   8.264
 1895POPC   C3B26469   2.718  30.165   7.964
 1895POPC   C4B26470   2.759  30.145   7.664
 1896POPC   NC326471   5.824   9.002   9.464
 1896POPC   PO426472   5.915   9.019   9.164
 1896POPC   GL126473   5.874   9.002   8.864
 1896POPC   GL226474   6.007   8.987   8.864
 1896POPC   C1A26475   5.889   8.955   8.564
 1896POPC   D2A26476   5.877   8.941   8.264
 1896POPC   C3A26477   5.877   8.931   7.964
 1896POPC   C4A26478   5.893   8.934   7.664
 1896POPC   C1B26479   6.156   8.967   8.564
 1896POPC   C2B26480   6.080   8.998   8.264
 1896POPC   C3B26481   6.158   8.946   7.964
 1896POPC   C4B26482   6.166   8.944   7.664
 1897POPC   NC326483  30.717  43.138   9.464
 1897POPC   PO426484  30.717  43.151   9.164
 1897POPC   GL126485  30.734  43.127   8.864
 1897POPC   GL226486  30.644  43.271   8.864
 1897POPC   C1A26487  30.668  43.069   8.564
 1897POPC   D2A26488  30.685  43.144   8.264
 1897POPC   C3A26489  30.718  43.151   7.964
 1897POPC   C4A26490  30.744  43.092   7.664
 1897POPC   C1B26491  30.659  43.320   8.564
 1897POPC   C2B26492  30.633  43.334   8.264
 1897POPC   C3B26493  30.592  43.333   7.964
 1897POPC   C4B26494  30.652  43.297   7.664
 1898POPC   NC326495  43.091  39.187   9.464
 1898POPC   PO426496  43.105  39.224   9.164
 1898POPC   GL126497  43.075  39.183   8.864
 1898POPC   GL226498  43.264  39.231   8.864
 1898POPC   C1A26499  43.114  39.221   8.564
 1898POPC   D2A26500  43.114  39.281   8.264
 1898POPC   C3A26501  43.068  39.234   7.964
 1898POPC   C4A26502  43.079  39.222   7.664
 1898POPC   C1B26503  43.361  39.172   8.564
 1898POPC   C2B26504  43.380  39.159   8.264
 1898POPC   C3B26505  43.378  39.169   7.964
 1898POPC   C4B26506  43.390  39.174   7.664
 1899POPC   NC326507   3.512  19.027   9.464
 1899POPC   PO426508   3.562  19.072   9.164
 1899POPC   GL126509   3.513  19.094   8.864
 1899POPC   GL226510   3.569  19.146   8.864
 1899POPC   C1A26511   3.578  19.058   8.564
 1899POPC   D2A26512   3.573  19.023   8.264
 1899POPC   C3A26513   3.555  19.072   7.964
 1899POPC   C4A26514   3.573  19.043   7.664
 1899POPC   C1B26515   3.547  19.326   8.564
 1899POPC   C2B26516   3.525  19.333   8.264
 1899POPC   C3B26517   3.555  19.298   7.964
 1899POPC   C4B26518   3.506  19.331   7.664
 1900POPC   NC326519  21.368   1.238   9.464
 1900POPC   PO426520  21.412   1.253   9.164
 1900POPC   GL126521  21.392   1.211   8.864
 1900POPC   GL226522  21.318   1.328   8.864
 1900POPC   C1A26523  21.357   1.241   8.564
 1900POPC   D2A26524  21.416   1.168   8.264
 1900POPC   C3A26525  21.383   1.243   7.964
 1900POPC   C4A26526  21.364   1.209   7.664
 1900POPC   C1B26527  21.279   1.500   8.564
 1900POPC   C2B26528  21.348   1.489   8.264
 1900POPC   C3B26529  21.367   1.451   7.964
 1900POPC   C4B26530  21.297   1.420   7.664
 1901POPC   NC326531  44.697  19.019   9.464
 1901POPC   PO426532  44.707  19.015   9.164
 1901POPC   GL126533  44.636  19.019   8.864
 1901POPC   GL226534  44.622  18.945   8.864
 1901POPC   C1A26535  44.661  19.018   8.564
 1901POPC   D2A26536  44.634  19.015   8.264
 1901POPC   C3A26537  44.660  19.059   7.964
 1901POPC   C4A26538  44.695  19.085   7.664
 1901POPC   C1B26539  44.512  18.897   8.564
 1901POPC   C2B26540  44.485  18.871   8.264
 1901POPC   C3B26541  44.519  18.895   7.964
 1901POPC   C4B26542  44.491  18.864   7.664
 1902POPC   NC326543  28.387  22.185   9.464
 1902POPC   PO426544  28.397  22.133   9.164
 1902POPC   GL126545  28.343  22.187   8.864
 1902POPC   GL226546  28.471  22.035   8.864
 1902POPC   C1A26547  28.341  22.151   8.564
 1902POPC   D2A26548  28.330  22.155   8.264
 1902POPC   C3A26549  28.416  22.132   7.964
 1902POPC   C4A26550  28.346  22.134   7.664
 1902POPC   C1B26551  28.576  22.014   8.564
 1902POPC   C2B26552  28.489  21.997   8.264
 1902POPC   C3B26553  28.556  21.999   7.964
 1902POPC   C4B26554  28.529  21.998   7.664
 1903POPC   NC326555   5.910  44.667   9.464
 1903POPC   PO426556   5.854  44.700   9.164
 1903POPC   GL126557   5.879  44.629   8.864
 1903POPC   GL226558   5.739  44.636   8.864
 1903POPC   C1A26559   5.895  44.626   8.564
 1903POPC   D2A26560   5.891  44.659   8.264
 1903POPC   C3A26561   5.900  44.665   7.964
 1903POPC   C4A26562   5.881  44.642   7.664
 1903POPC   C1B26563   5.592  44.602   8.564
 1903POPC   C2B26564   5.607  44.538   8.264
 1903POPC   C3B26565   5.631  44.592   7.964
 1903POPC   C4B26566   5.604  44.517   7.664
 1904POPC   NC326567   8.188  10.507   9.464
 1904POPC   PO426568   8.230  10.561   9.164
 1904POPC   GL126569   8.223  10.515   8.864
 1904POPC   GL226570   8.156  10.605   8.864
 1904POPC   C1A26571   8.212  10.489   8.564
 1904POPC   D2A26572   8.234  10.490   8.264
 1904POPC   C3A26573   8.172  10.554   7.964
 1904POPC   C4A26574   8.154  10.493   7.664
 1904POPC   C1B26575   8.031  10.723   8.564
 1904POPC   C2B26576   8.022  10.686   8.264
 1904POPC   C3B26577   8.002  10.666   7.964
 1904POPC   C4B26578   8.018  10.672   7.664
 1905POPC   NC326579  29.901  44.677   9.464
 1905POPC   PO426580  29.906  44.638   9.164
 1905POPC   GL126581  29.946  44.619   8.864
 1905POPC   GL226582  30.000  44.698   8.864
 1905POPC   C1A26583  29.915  44.633   8.564
 1905POPC   D2A26584  29.943  44.686   8.264
 1905POPC   C3A26585  29.966  44.681   7.964
 1905POPC   C4A26586  29.906  44.645   7.664
 1905POPC   C1B26587  30.132  44.758   8.564
 1905POPC   C2B26588  30.142  44.689   8.264
 1905POPC   C3B26589  30.198  44.705   7.964
 1905POPC   C4B26590  30.154  44.753   7.664
 1906POPC   NC326591  39.958  25.305   9.464
 1906POPC   PO426592  40.002  25.307   9.164
 1906POPC   GL126593  39.977  25.224   8.864
 1906POPC   GL226594  39.911  25.292   8.864
 1906POPC   C1A26595  39.977  25.264   8.564
 1906POPC   D2A26596  39.960  25.281   8.264
 1906POPC   C3A26597  39.993  25.238   7.964
 1906POPC   C4A26598  39.981  25.282   7.664
 1906POPC   C1B26599  39.758  25.303   8.564
 1906POPC   C2B26600  39.763  25.245   8.264
 1906POPC   C3B26601  39.766  25.305   7.964
 1906POPC   C4B26602  39.753  25.223   7.664
 1907POPC   NC326603  16.741  29.170   9.464
 1907POPC   PO426604  16.771  29.131   9.164
 1907POPC   GL126605  16.709  29.191   8.864
 1907POPC   GL226606  16.771  29.247   8.864
 1907POPC   C1A26607  16.733  29.097   8.564
 1907POPC   D2A26608  16.780  29.152   8.264
 1907POPC   C3A26609  16.763  29.137   7.964
 1907POPC   C4A26610  16.748  29.160   7.664
 1907POPC   C1B26611  16.811  29.379   8.564
 1907POPC   C2B26612  16.832  29.344   8.264
 1907POPC   C3B26613  16.809  29.363   7.964
 1907POPC   C4B26614  16.755  29.346   7.664
 1908POPC   NC326615  15.183  22.185   9.464
 1908POPC   PO426616  15.211  22.180   9.164
 1908POPC   GL126617  15.210  22.139   8.864
 1908POPC   GL226618  15.166  22.022   8.864
 1908POPC   C1A26619  15.208  22.185   8.564
 1908POPC   D2A26620  15.223  22.118   8.264
 1908POPC   C3A26621  15.175  22.210   7.964
 1908POPC   C4A26622  15.147  22.153   7.664
 1908POPC   C1B26623  15.110  21.932   8.564
 1908POPC   C2B26624  15.136  21.880   8.264
 1908POPC   C3B26625  15.118  21.921   7.964
 1908POPC   C4B26626  15.113  21.976   7.664
 1909POPC   NC326627  33.812  22.185   9.464
 1909POPC   PO426628  33.769  22.177   9.164
 1909POPC   GL126629  33.840  22.119   8.864
 1909POPC   GL226630  33.746  22.282   8.864
 1909POPC   C1A26631  33.828  22.191   8.564
 1909POPC   D2A26632  33.759  22.132   8.264
 1909POPC   C3A26633  33.846  22.123   7.964
 1909POPC   C4A26634  33.779  22.195   7.664
 1909POPC   C1B26635  33.592  22.360   8.564
 1909POPC   C2B26636  33.649  22.325   8.264
 1909POPC   C3B26637  33.571  22.367   7.964
 1909POPC   C4B26638  33.628  22.304   7.664
 1910POPC   NC326639  26.857  34.581   9.464
 1910POPC   PO426640  26.806  34.576   9.164
 1910POPC   GL126641  26.783  34.545   8.864
 1910POPC   GL226642  26.912  34.667   8.864
 1910POPC   C1A26643  26.855  34.564   8.564
 1910POPC   D2A26644  26.785  34.540   8.264
 1910POPC   C3A26645  26.807  34.528   7.964
 1910POPC   C4A26646  26.770  34.564   7.664
 1910POPC   C1B26647  26.941  34.741   8.564
 1910POPC   C2B26648  26.983  34.806   8.264
 1910POPC   C3B26649  26.959  34.774   7.964
 1910POPC   C4B26650  26.944  34.818   7.664
 1911POPC   NC326651  39.974  15.993   9.464
 1911POPC   PO426652  40.019  15.975   9.164
 1911POPC   GL126653  40.013  15.989   8.864
 1911POPC   GL226654  39.917  15.969   8.864
 1911POPC   C1A26655  39.998  16.001   8.564
 1911POPC   D2A26656  40.004  15.968   8.264
 1911POPC   C3A26657  40.033  15.969   7.964
 1911POPC   C4A26658  40.008  15.928   7.664
 1911POPC   C1B26659  39.737  16.050   8.564
 1911POPC   C2B26660  39.759  16.018   8.264
 1911POPC   C3B26661  39.714  15.971   7.964
 1911POPC   C4B26662  39.735  16.005   7.664
 1912POPC   NC326663  33.778  43.838   9.464
 1912POPC   PO426664  33.802  43.915   9.164
 1912POPC   GL126665  33.817  43.859   8.864
 1912POPC   GL226666  33.779  43.726   8.864
 1912POPC   C1A26667  33.838  43.886   8.564
 1912POPC   D2A26668  33.838  43.918   8.264
 1912POPC   C3A26669  33.838  43.932   7.964
 1912POPC   C4A26670  33.772  43.884   7.664
 1912POPC   C1B26671  33.784  43.663   8.564
 1912POPC   C2B26672  33.808  43.607   8.264
 1912POPC   C3B26673  33.835  43.670   7.964
 1912POPC   C4B26674  33.781  43.655   7.664
 1913POPC   NC326675   9.005  43.113   9.464
 1913POPC   PO426676   8.979  43.068   9.164
 1913POPC   GL126677   8.969  43.131   8.864
 1913POPC   GL226678   9.116  43.152   8.864
 1913POPC   C1A26679   8.940  43.160   8.564
 1913POPC   D2A26680   8.970  43.065   8.264
 1913POPC   C3A26681   8.990  43.138   7.964
 1913POPC   C4A26682   8.979  43.078   7.664
 1913POPC   C1B26683   9.195  43.111   8.564
 1913POPC   C2B26684   9.263  43.083   8.264
 1913POPC   C3B26685   9.207  43.148   7.964
 1913POPC   C4B26686   9.249  43.104   7.664
 1914POPC   NC326687  29.127  14.383   9.464
 1914POPC   PO426688  29.160  14.435   9.164
 1914POPC   GL126689  29.192  14.410   8.864
 1914POPC   GL226690  29.161  14.264   8.864
 1914POPC   C1A26691  29.144  14.383   8.564
 1914POPC   D2A26692  29.170  14.429   8.264
 1914POPC   C3A26693  29.153  14.366   7.964
 1914POPC   C4A26694  29.190  14.375   7.664
 1914POPC   C1B26695  29.231  14.200   8.564
 1914POPC   C2B26696  29.239  14.156   8.264
 1914POPC   C3B26697  29.156  14.146   7.964
 1914POPC   C4B26698  29.218  14.153   7.664
 1915POPC   NC326699  37.687  19.081   9.464
 1915POPC   PO426700  37.668  19.085   9.164
 1915POPC   GL126701  37.657  19.107   8.864
 1915POPC   GL226702  37.704  19.121   8.864
 1915POPC   C1A26703  37.709  19.025   8.564
 1915POPC   D2A26704  37.675  19.056   8.264
 1915POPC   C3A26705  37.666  19.039   7.964
 1915POPC   C4A26706  37.677  19.036   7.664
 1915POPC   C1B26707  37.835  19.227   8.564
 1915POPC   C2B26708  37.819  19.279   8.264
 1915POPC   C3B26709  37.795  19.225   7.964
 1915POPC   C4B26710  37.806  19.317   7.664
 1916POPC   NC326711  16.721  26.040   9.464
 1916POPC   PO426712  16.695  26.043   9.164
 1916POPC   GL126713  16.729  26.014   8.864
 1916POPC   GL226714  16.859  26.065   8.864
 1916POPC   C1A26715  16.751  26.072   8.564
 1916POPC   D2A26716  16.687  25.994   8.264
 1916POPC   C3A26717  16.696  26.020   7.964
 1916POPC   C4A26718  16.707  26.052   7.664
 1916POPC   C1B26719  16.983  26.127   8.564
 1916POPC   C2B26720  16.966  26.141   8.264
 1916POPC   C3B26721  16.988  26.164   7.964
 1916POPC   C4B26722  17.003  26.193   7.664
 1917POPC   NC326723  12.867  32.289   9.464
 1917POPC   PO426724  12.810  32.289   9.164
 1917POPC   GL126725  12.857  32.223   8.864
 1917POPC   GL226726  12.952  32.335   8.864
 1917POPC   C1A26727  12.824  32.282   8.564
 1917POPC   D2A26728  12.803  32.290   8.264
 1917POPC   C3A26729  12.893  32.292   7.964
 1917POPC   C4A26730  12.815  32.237   7.664
 1917POPC   C1B26731  13.058  32.310   8.564
 1917POPC   C2B26732  13.035  32.393   8.264
 1917POPC   C3B26733  13.097  32.323   7.964
 1917POPC   C4B26734  13.045  32.299   7.664
 1918POPC   NC326735  42.318   2.759   9.464
 1918POPC   PO426736  42.378   2.794   9.164
 1918POPC   GL126737  42.344   2.741   8.864
 1918POPC   GL226738  42.312   2.838   8.864
 1918POPC   C1A26739  42.380   2.790   8.564
 1918POPC   D2A26740  42.345   2.717   8.264
 1918POPC   C3A26741  42.297   2.773   7.964
 1918POPC   C4A26742  42.310   2.769   7.664
 1918POPC   C1B26743  42.288   2.986   8.564
 1918POPC   C2B26744  42.299   3.033   8.264
 1918POPC   C3B26745  42.313   3.016   7.964
 1918POPC   C4B26746  42.271   3.020   7.664
 1919POPC   NC326747  22.158  44.648   9.464
 1919POPC   PO426748  22.147  44.710   9.164
 1919POPC   GL126749  22.211  44.697   8.864
 1919POPC   GL226750  22.105  44.520   8.864
 1919POPC   C1A26751  22.183  44.706   8.564
 1919POPC   D2A26752  22.197  44.696   8.264
 1919POPC   C3A26753  22.130  44.652   7.964
 1919POPC   C4A26754  22.115  44.648   7.664
 1919POPC   C1B26755  22.046  44.490   8.564
 1919POPC   C2B26756  22.034  44.429   8.264
 1919POPC   C3B26757  21.995  44.478   7.964
 1919POPC   C4B26758  22.041  44.460   7.664
 1920POPC   NC326759  32.276  23.689   9.464
 1920POPC   PO426760  32.245  23.719   9.164
 1920POPC   GL126761  32.240  23.712   8.864
 1920POPC   GL226762  32.180  23.636   8.864
 1920POPC   C1A26763  32.226  23.678   8.564
 1920POPC   D2A26764  32.249  23.683   8.264
 1920POPC   C3A26765  32.225  23.668   7.964
 1920POPC   C4A26766  32.293  23.726   7.664
 1920POPC   C1B26767  32.157  23.479   8.564
 1920POPC   C2B26768  32.139  23.516   8.264
 1920POPC   C3B26769  32.168  23.483   7.964
 1920POPC   C4B26770  32.204  23.513   7.664
 1921POPC   NC326771   8.180  36.078   9.464
 1921POPC   PO426772   8.216  36.152   9.164
 1921POPC   GL126773   8.236  36.151   8.864
 1921POPC   GL226774   8.362  36.142   8.864
 1921POPC   C1A26775   8.180  36.097   8.564
 1921POPC   D2A26776   8.154  36.096   8.264
 1921POPC   C3A26777   8.241  36.127   7.964
 1921POPC   C4A26778   8.162  36.116   7.664
 1921POPC   C1B26779   8.417  36.093   8.564
 1921POPC   C2B26780   8.414  36.120   8.264
 1921POPC   C3B26781   8.442  36.142   7.964
 1921POPC   C4B26782   8.483  36.068   7.664
 1922POPC   NC326783  42.351  36.160   9.464
 1922POPC   PO426784  42.336  36.161   9.164
 1922POPC   GL126785  42.351  36.152   8.864
 1922POPC   GL226786  42.429  35.983   8.864
 1922POPC   C1A26787  42.308  36.172   8.564
 1922POPC   D2A26788  42.375  36.102   8.264
 1922POPC   C3A26789  42.363  36.096   7.964
 1922POPC   C4A26790  42.364  36.170   7.664
 1922POPC   C1B26791  42.477  35.855   8.564
 1922POPC   C2B26792  42.447  35.952   8.264
 1922POPC   C3B26793  42.457  35.917   7.964
 1922POPC   C4B26794  42.399  35.860   7.664
 1923POPC   NC326795  19.855  13.651   9.464
 1923POPC   PO426796  19.852  13.622   9.164
 1923POPC   GL126797  19.807  13.617   8.864
 1923POPC   GL226798  19.974  13.717   8.864
 1923POPC   C1A26799  19.857  13.646   8.564
 1923POPC   D2A26800  19.836  13.673   8.264
 1923POPC   C3A26801  19.875  13.651   7.964
 1923POPC   C4A26802  19.803  13.644   7.664
 1923POPC   C1B26803  20.009  13.807   8.564
 1923POPC   C2B26804  20.087  13.780   8.264
 1923POPC   C3B26805  20.035  13.798   7.964
 1923POPC   C4B26806  20.068  13.821   7.664
 1924POPC   NC326807  36.858  30.682   9.464
 1924POPC   PO426808  36.949  30.705   9.164
 1924POPC   GL126809  36.939  30.689   8.864
 1924POPC   GL226810  36.824  30.708   8.864
 1924POPC   C1A26811  36.871  30.676   8.564
 1924POPC   D2A26812  36.854  30.703   8.264
 1924POPC   C3A26813  36.900  30.740   7.964
 1924POPC   C4A26814  36.889  30.738   7.664
 1924POPC   C1B26815  36.688  30.735   8.564
 1924POPC   C2B26816  36.663  30.674   8.264
 1924POPC   C3B26817  36.689  30.667   7.964
 1924POPC   C4B26818  36.620  30.679   7.664
 1925POPC   NC326819   5.054  43.866   9.464
 1925POPC   PO426820   5.048  43.865   9.164
 1925POPC   GL126821   5.082  43.900   8.864
 1925POPC   GL226822   5.232  43.854   8.864
 1925POPC   C1A26823   5.117  43.875   8.564
 1925POPC   D2A26824   5.069  43.920   8.264
 1925POPC   C3A26825   5.118  43.898   7.964
 1925POPC   C4A26826   5.127  43.843   7.664
 1925POPC   C1B26827   5.341  43.806   8.564
 1925POPC   C2B26828   5.302  43.766   8.264
 1925POPC   C3B26829   5.331  43.776   7.964
 1925POPC   C4B26830   5.351  43.752   7.664
 1926POPC   NC326831   6.642  26.080   9.464
 1926POPC   PO426832   6.644  26.015   9.164
 1926POPC   GL126833   6.611  26.024   8.864
 1926POPC   GL226834   6.801  26.055   8.864
 1926POPC   C1A26835   6.675  26.070   8.564
 1926POPC   D2A26836   6.682  26.073   8.264
 1926POPC   C3A26837   6.624  26.074   7.964
 1926POPC   C4A26838   6.633  26.071   7.664
 1926POPC   C1B26839   6.878  26.145   8.564
 1926POPC   C2B26840   6.906  26.139   8.264
 1926POPC   C3B26841   6.846  26.150   7.964
 1926POPC   C4B26842   6.837  26.074   7.664
 1927POPC   NC326843  19.013   1.175   9.464
 1927POPC   PO426844  19.078   1.205   9.164
 1927POPC   GL126845  19.072   1.257   8.864
 1927POPC   GL226846  19.097   1.369   8.864
 1927POPC   C1A26847  19.019   1.198   8.564
 1927POPC   D2A26848  19.016   1.251   8.264
 1927POPC   C3A26849  19.038   1.260   7.964
 1927POPC   C4A26850  19.021   1.208   7.664
 1927POPC   C1B26851  19.103   1.420   8.564
 1927POPC   C2B26852  19.146   1.421   8.264
 1927POPC   C3B26853  19.076   1.467   7.964
 1927POPC   C4B26854  19.106   1.449   7.664
 1928POPC   NC326855   8.221   6.631   9.464
 1928POPC   PO426856   8.196   6.638   9.164
 1928POPC   GL126857   8.162   6.693   8.864
 1928POPC   GL226858   8.050   6.675   8.864
 1928POPC   C1A26859   8.235   6.637   8.564
 1928POPC   D2A26860   8.213   6.654   8.264
 1928POPC   C3A26861   8.185   6.595   7.964
 1928POPC   C4A26862   8.213   6.694   7.664
 1928POPC   C1B26863   7.982   6.715   8.564
 1928POPC   C2B26864   7.963   6.715   8.264
 1928POPC   C3B26865   7.975   6.728   7.964
 1928POPC   C4B26866   7.981   6.762   7.664
 1929POPC   NC326867  19.081  12.812   9.464
 1929POPC   PO426868  19.018  12.812   9.164
 1929POPC   GL126869  19.095  12.867   8.864
 1929POPC   GL226870  19.199  12.857   8.864
 1929POPC   C1A26871  19.078  12.865   8.564
 1929POPC   D2A26872  19.041  12.874   8.264
 1929POPC   C3A26873  19.042  12.866   7.964
 1929POPC   C4A26874  19.091  12.865   7.664
 1929POPC   C1B26875  19.302  12.954   8.564
 1929POPC   C2B26876  19.297  12.958   8.264
 1929POPC   C3B26877  19.325  12.881   7.964
 1929POPC   C4B26878  19.271  12.910   7.664
 1930POPC   NC326879   7.410  44.615   9.464
 1930POPC   PO426880   7.374  44.661   9.164
 1930POPC   GL126881   7.438  44.709   8.864
 1930POPC   GL226882   7.423  44.784   8.864
 1930POPC   C1A26883   7.380  44.621   8.564
 1930POPC   D2A26884   7.457  44.619   8.264
 1930POPC   C3A26885   7.466  44.641   7.964
 1930POPC   C4A26886   7.405  44.636   7.664
 1930POPC   C1B26887   7.342  44.876   8.564
 1930POPC   C2B26888   7.331  44.934   8.264
 1930POPC   C3B26889   7.360  44.904   7.964
 1930POPC   C4B26890   7.280  44.895   7.664
 1931POPC   NC326891  32.999  41.518   9.464
 1931POPC   PO426892  32.997  41.591   9.164
 1931POPC   GL126893  32.982  41.532   8.864
 1931POPC   GL226894  33.149  41.519   8.864
 1931POPC   C1A26895  33.050  41.535   8.564
 1931POPC   D2A26896  33.061  41.524   8.264
 1931POPC   C3A26897  32.976  41.572   7.964
 1931POPC   C4A26898  33.037  41.589   7.664
 1931POPC   C1B26899  33.280  41.478   8.564
 1931POPC   C2B26900  33.276  41.453   8.264
 1931POPC   C3B26901  33.281  41.430   7.964
 1931POPC   C4B26902  33.241  41.431   7.664
 1932POPC   NC326903  26.035   6.597   9.464
 1932POPC   PO426904  26.029   6.612   9.164
 1932POPC   GL126905  26.013   6.598   8.864
 1932POPC   GL226906  26.066   6.761   8.864
 1932POPC   C1A26907  26.060   6.662   8.564
 1932POPC   D2A26908  26.081   6.673   8.264
 1932POPC   C3A26909  26.076   6.613   7.964
 1932POPC   C4A26910  26.053   6.641   7.664
 1932POPC   C1B26911  26.064   6.853   8.564
 1932POPC   C2B26912  26.003   6.849   8.264
 1932POPC   C3B26913  26.046   6.903   7.964
 1932POPC   C4B26914  26.046   6.856   7.664
 1933POPC   NC326915   7.404   7.409   9.464
 1933POPC   PO426916   7.438   7.379   9.164
 1933POPC   GL126917   7.437   7.444   8.864
 1933POPC   GL226918   7.328   7.310   8.864
 1933POPC   C1A26919   7.406   7.446   8.564
 1933POPC   D2A26920   7.458   7.371   8.264
 1933POPC   C3A26921   7.407   7.406   7.964
 1933POPC   C4A26922   7.421   7.380   7.664
 1933POPC   C1B26923   7.308   7.225   8.564
 1933POPC   C2B26924   7.313   7.198   8.264
 1933POPC   C3B26925   7.232   7.244   7.964
 1933POPC   C4B26926   7.278   7.223   7.664
 1934POPC   NC326927   0.426  13.641   9.464
 1934POPC   PO426928   0.454  13.618   9.164
 1934POPC   GL126929   0.407  13.645   8.864
 1934POPC   GL226930   0.538  13.634   8.864
 1934POPC   C1A26931   0.422  13.620   8.564
 1934POPC   D2A26932   0.458  13.629   8.264
 1934POPC   C3A26933   0.404  13.622   7.964
 1934POPC   C4A26934   0.410  13.599   7.664
 1934POPC   C1B26935   0.688  13.554   8.564
 1934POPC   C2B26936   0.650  13.578   8.264
 1934POPC   C3B26937   0.658  13.561   7.964
 1934POPC   C4B26938   0.670  13.515   7.664
 1935POPC   NC326939  43.852  16.000   9.464
 1935POPC   PO426940  43.909  15.949   9.164
 1935POPC   GL126941  43.842  15.945   8.864
 1935POPC   GL226942  43.899  16.109   8.864
 1935POPC   C1A26943  43.919  15.992   8.564
 1935POPC   D2A26944  43.918  15.948   8.264
 1935POPC   C3A26945  43.878  15.966   7.964
 1935POPC   C4A26946  43.836  15.989   7.664
 1935POPC   C1B26947  43.984  16.236   8.564
 1935POPC   C2B26948  43.896  16.238   8.264
 1935POPC   C3B26949  43.932  16.188   7.964
 1935POPC   C4B26950  43.964  16.232   7.664
 1936POPC   NC326951  41.598  23.694   9.464
 1936POPC   PO426952  41.591  23.758   9.164
 1936POPC   GL126953  41.546  23.675   8.864
 1936POPC   GL226954  41.417  23.709   8.864
 1936POPC   C1A26955  41.581  23.723   8.564
 1936POPC   D2A26956  41.532  23.707   8.264
 1936POPC   C3A26957  41.605  23.672   7.964
 1936POPC   C4A26958  41.531  23.674   7.664
 1936POPC   C1B26959  41.350  23.720   8.564
 1936POPC   C2B26960  41.332  23.678   8.264
 1936POPC   C3B26961  41.317  23.665   7.964
 1936POPC   C4B26962  41.306  23.688   7.664
 1937POPC   NC326963  12.901  19.856   9.464
 1937POPC   PO426964  12.874  19.836   9.164
 1937POPC   GL126965  12.844  19.872   8.864
 1937POPC   GL226966  12.750  19.846   8.864
 1937POPC   C1A26967  12.849  19.800   8.564
 1937POPC   D2A26968  12.860  19.882   8.264
 1937POPC   C3A26969  12.856  19.854   7.964
 1937POPC   C4A26970  12.902  19.792   7.664
 1937POPC   C1B26971  12.648  19.829   8.564
 1937POPC   C2B26972  12.637  19.775   8.264
 1937POPC   C3B26973  12.556  19.803   7.964
 1937POPC   C4B26974  12.587  19.788   7.664
 1938POPC   NC326975  15.991   1.180   9.464
 1938POPC   PO426976  15.922   1.178   9.164
 1938POPC   GL126977  15.996   1.172   8.864
 1938POPC   GL226978  16.072   1.201   8.864
 1938POPC   C1A26979  15.956   1.233   8.564
 1938POPC   D2A26980  15.965   1.240   8.264
 1938POPC   C3A26981  15.972   1.209   7.964
 1938POPC   C4A26982  15.990   1.185   7.664
 1938POPC   C1B26983  16.209   1.063   8.564
 1938POPC   C2B26984  16.162   1.072   8.264
 1938POPC   C3B26985  16.172   1.096   7.964
 1938POPC   C4B26986  16.195   1.141   7.664
 1939POPC   NC326987   9.777  21.401   9.464
 1939POPC   PO426988   9.750  21.405   9.164
 1939POPC   GL126989   9.744  21.408   8.864
 1939POPC   GL226990   9.757  21.502   8.864
 1939POPC   C1A26991   9.706  21.347   8.564
 1939POPC   D2A26992   9.766  21.370   8.264
 1939POPC   C3A26993   9.796  21.391   7.964
 1939POPC   C4A26994   9.737  21.382   7.664
 1939POPC   C1B26995   9.660  21.592   8.564
 1939POPC   C2B26996   9.700  21.606   8.264
 1939POPC   C3B26997   9.657  21.644   7.964
 1939POPC   C4B26998   9.671  21.586   7.664
 1940POPC   NC326999  39.249  30.714   9.464
 1940POPC   PO427000  39.235  30.723   9.164
 1940POPC   GL127001  39.227  30.664   8.864
 1940POPC   GL227002  39.129  30.541   8.864
 1940POPC   C1A27003  39.211  30.706   8.564
 1940POPC   D2A27004  39.208  30.705   8.264
 1940POPC   C3A27005  39.250  30.654   7.964
 1940POPC   C4A27006  39.220  30.741   7.664
 1940POPC   C1B27007  39.108  30.466   8.564
 1940POPC   C2B27008  39.139  30.456   8.264
 1940POPC   C3B27009  39.093  30.478   7.964
 1940POPC   C4B27010  39.083  30.454   7.664
 1941POPC   NC327011  28.404  19.875   9.464
 1941POPC   PO427012  28.363  19.848   9.164
 1941POPC   GL127013  28.345  19.862   8.864
 1941POPC   GL227014  28.504  19.748   8.864
 1941POPC   C1A27015  28.323  19.832   8.564
 1941POPC   D2A27016  28.415  19.838   8.264
 1941POPC   C3A27017  28.394  19.813   7.964
 1941POPC   C4A27018  28.397  19.815   7.664
 1941POPC   C1B27019  28.581  19.650   8.564
 1941POPC   C2B27020  28.532  19.640   8.264
 1941POPC   C3B27021  28.566  19.623   7.964
 1941POPC   C4B27022  28.583  19.650   7.664
 1942POPC   NC327023   1.955  19.858   9.464
 1942POPC   PO427024   2.027  19.839   9.164
 1942POPC   GL127025   2.020  19.790   8.864
 1942POPC   GL227026   1.875  19.780   8.864
 1942POPC   C1A27027   2.005  19.875   8.564
 1942POPC   D2A27028   1.997  19.841   8.264
 1942POPC   C3A27029   2.038  19.881   7.964
 1942POPC   C4A27030   2.011  19.826   7.664
 1942POPC   C1B27031   1.766  19.800   8.564
 1942POPC   C2B27032   1.736  19.791   8.264
 1942POPC   C3B27033   1.719  19.760   7.964
 1942POPC   C4B27034   1.771  19.782   7.664
 1943POPC   NC327035  43.855  19.864   9.464
 1943POPC   PO427036  43.863  19.874   9.164
 1943POPC   GL127037  43.891  19.797   8.864
 1943POPC   GL227038  44.057  19.890   8.864
 1943POPC   C1A27039  43.871  19.878   8.564
 1943POPC   D2A27040  43.896  19.837   8.264
 1943POPC   C3A27041  43.849  19.883   7.964
 1943POPC   C4A27042  43.899  19.867   7.664
 1943POPC   C1B27043  44.179  19.808   8.564
 1943POPC   C2B27044  44.164  19.896   8.264
 1943POPC   C3B27045  44.119  19.846   7.964
 1943POPC   C4B27046  44.166  19.889   7.664
 1944POPC   NC327047   6.607  29.123   9.464
 1944POPC   PO427048   6.681  29.160   9.164
 1944POPC   GL127049   6.685  29.098   8.864
 1944POPC   GL227050   6.508  29.158   8.864
 1944POPC   C1A27051   6.603  29.180   8.564
 1944POPC   D2A27052   6.666  29.147   8.264
 1944POPC   C3A27053   6.662  29.108   7.964
 1944POPC   C4A27054   6.658  29.179   7.664
 1944POPC   C1B27055   6.448  29.121   8.564
 1944POPC   C2B27056   6.367  29.131   8.264
 1944POPC   C3B27057   6.377  29.079   7.964
 1944POPC   C4B27058   6.387  29.098   7.664
 1945POPC   NC327059  30.677   2.002   9.464
 1945POPC   PO427060  30.684   1.953   9.164
 1945POPC   GL127061  30.672   2.017   8.864
 1945POPC   GL227062  30.554   1.907   8.864
 1945POPC   C1A27063  30.657   1.959   8.564
 1945POPC   D2A27064  30.670   1.969   8.264
 1945POPC   C3A27065  30.740   2.031   7.964
 1945POPC   C4A27066  30.732   1.948   7.664
 1945POPC   C1B27067  30.505   1.874   8.564
 1945POPC   C2B27068  30.465   1.839   8.264
 1945POPC   C3B27069  30.504   1.915   7.964
 1945POPC   C4B27070  30.498   1.872   7.664
 1946POPC   NC327071  27.623   8.240   9.464
 1946POPC   PO427072  27.599   8.223   9.164
 1946POPC   GL127073  27.595   8.192   8.864
 1946POPC   GL227074  27.479   8.124   8.864
 1946POPC   C1A27075  27.612   8.229   8.564
 1946POPC   D2A27076  27.603   8.208   8.264
 1946POPC   C3A27077  27.552   8.164   7.964
 1946POPC   C4A27078  27.590   8.207   7.664
 1946POPC   C1B27079  27.436   7.986   8.564
 1946POPC   C2B27080  27.447   8.039   8.264
 1946POPC   C3B27081  27.373   8.034   7.964
 1946POPC   C4B27082  27.398   8.030   7.664
 1947POPC   NC327083  15.194  22.947   9.464
 1947POPC   PO427084  15.172  22.930   9.164
 1947POPC   GL127085  15.226  22.957   8.864
 1947POPC   GL227086  15.191  23.016   8.864
 1947POPC   C1A27087  15.229  22.915   8.564
 1947POPC   D2A27088  15.145  22.908   8.264
 1947POPC   C3A27089  15.133  22.909   7.964
 1947POPC   C4A27090  15.147  22.945   7.664
 1947POPC   C1B27091  15.187  23.234   8.564
 1947POPC   C2B27092  15.169  23.160   8.264
 1947POPC   C3B27093  15.163  23.188   7.964
 1947POPC   C4B27094  15.178  23.157   7.664
 1948POPC   NC327095  35.379  10.522   9.464
 1948POPC   PO427096  35.345  10.510   9.164
 1948POPC   GL127097  35.337  10.483   8.864
 1948POPC   GL227098  35.272  10.509   8.864
 1948POPC   C1A27099  35.401  10.508   8.564
 1948POPC   D2A27100  35.366  10.544   8.264
 1948POPC   C3A27101  35.401  10.538   7.964
 1948POPC   C4A27102  35.353  10.537   7.664
 1948POPC   C1B27103  35.134  10.561   8.564
 1948POPC   C2B27104  35.096  10.545   8.264
 1948POPC   C3B27105  35.067  10.626   7.964
 1948POPC   C4B27106  35.159  10.551   7.664
 1949POPC   NC327107  37.727   0.440   9.464
 1949POPC   PO427108  37.706   0.396   9.164
 1949POPC   GL127109  37.649   0.461   8.864
 1949POPC   GL227110  37.707   0.319   8.864
 1949POPC   C1A27111  37.683   0.429   8.564
 1949POPC   D2A27112  37.658   0.410   8.264
 1949POPC   C3A27113  37.674   0.391   7.964
 1949POPC   C4A27114  37.719   0.438   7.664
 1949POPC   C1B27115  37.711   0.156   8.564
 1949POPC   C2B27116  37.680   0.154   8.264
 1949POPC   C3B27117  37.629   0.202   7.964
 1949POPC   C4B27118  37.641   0.158   7.664
 1950POPC   NC327119  31.467  26.042   9.464
 1950POPC   PO427120  31.511  26.002   9.164
 1950POPC   GL127121  31.434  26.068   8.864
 1950POPC   GL227122  31.391  25.926   8.864
 1950POPC   C1A27123  31.460  26.038   8.564
 1950POPC   D2A27124  31.505  26.035   8.264
 1950POPC   C3A27125  31.453  26.033   7.964
 1950POPC   C4A27126  31.440  26.072   7.664
 1950POPC   C1B27127  31.331  25.851   8.564
 1950POPC   C2B27128  31.371  25.830   8.264
 1950POPC   C3B27129  31.382  25.805   7.964
 1950POPC   C4B27130  31.387  25.822   7.664
 1951POPC   NC327131  42.341  41.597   9.464
 1951POPC   PO427132  42.306  41.568   9.164
 1951POPC   GL127133  42.303  41.568   8.864
 1951POPC   GL227134  42.284  41.693   8.864
 1951POPC   C1A27135  42.310  41.518   8.564
 1951POPC   D2A27136  42.344  41.555   8.264
 1951POPC   C3A27137  42.292  41.561   7.964
 1951POPC   C4A27138  42.324  41.544   7.664
 1951POPC   C1B27139  42.186  41.795   8.564
 1951POPC   C2B27140  42.154  41.723   8.264
 1951POPC   C3B27141  42.184  41.812   7.964
 1951POPC   C4B27142  42.201  41.745   7.664
 1952POPC   NC327143   9.777  37.661   9.464
 1952POPC   PO427144   9.776  37.657   9.164
 1952POPC   GL127145   9.763  37.648   8.864
 1952POPC   GL227146   9.786  37.569   8.864
 1952POPC   C1A27147   9.785  37.699   8.564
 1952POPC   D2A27148   9.723  37.718   8.264
 1952POPC   C3A27149   9.704  37.695   7.964
 1952POPC   C4A27150   9.718  37.707   7.664
 1952POPC   C1B27151   9.746  37.391   8.564
 1952POPC   C2B27152   9.773  37.431   8.264
 1952POPC   C3B27153   9.790  37.395   7.964
 1952POPC   C4B27154   9.717  37.383   7.664
 1953POPC   NC327155  42.298   4.311   9.464
 1953POPC   PO427156  42.295   4.290   9.164
 1953POPC   GL127157  42.307   4.294   8.864
 1953POPC   GL227158  42.225   4.337   8.864
 1953POPC   C1A27159  42.361   4.345   8.564
 1953POPC   D2A27160  42.369   4.301   8.264
 1953POPC   C3A27161  42.348   4.311   7.964
 1953POPC   C4A27162  42.296   4.296   7.664
 1953POPC   C1B27163  42.113   4.278   8.564
 1953POPC   C2B27164  42.064   4.275   8.264
 1953POPC   C3B27165  42.099   4.304   7.964
 1953POPC   C4B27166  42.041   4.271   7.664
 1954POPC   NC327167   6.652  23.706   9.464
 1954POPC   PO427168   6.666  23.737   9.164
 1954POPC   GL127169   6.678  23.709   8.864
 1954POPC   GL227170   6.772  23.737   8.864
 1954POPC   C1A27171   6.596  23.760   8.564
 1954POPC   D2A27172   6.601  23.745   8.264
 1954POPC   C3A27173   6.679  23.689   7.964
 1954POPC   C4A27174   6.597  23.733   7.664
 1954POPC   C1B27175   6.890  23.747   8.564
 1954POPC   C2B27176   6.850  23.765   8.264
 1954POPC   C3B27177   6.908  23.692   7.964
 1954POPC   C4B27178   6.920  23.765   7.664
 1955POPC   NC327179  36.089  26.832   9.464
 1955POPC   PO427180  36.174  26.796   9.164
 1955POPC   GL127181  36.108  26.848   8.864
 1955POPC   GL227182  36.070  26.763   8.864
 1955POPC   C1A27183  36.143  26.768   8.564
 1955POPC   D2A27184  36.175  26.816   8.264
 1955POPC   C3A27185  36.090  26.857   7.964
 1955POPC   C4A27186  36.105  26.804   7.664
 1955POPC   C1B27187  35.930  26.670   8.564
 1955POPC   C2B27188  35.968  26.638   8.264
 1955POPC   C3B27189  35.904  26.686   7.964
 1955POPC   C4B27190  35.964  26.657   7.664
 1956POPC   NC327191  31.466  20.595   9.464
 1956POPC   PO427192  31.427  20.647   9.164
 1956POPC   GL127193  31.439  20.648   8.864
 1956POPC   GL227194  31.514  20.721   8.864
 1956POPC   C1A27195  31.476  20.632   8.564
 1956POPC   D2A27196  31.490  20.572   8.264
 1956POPC   C3A27197  31.498  20.601   7.964
 1956POPC   C4A27198  31.443  20.632   7.664
 1956POPC   C1B27199  31.545  20.842   8.564
 1956POPC   C2B27200  31.493  20.842   8.264
 1956POPC   C3B27201  31.551  20.891   7.964
 1956POPC   C4B27202  31.547  20.849   7.664
 1957POPC   NC327203   1.973  13.660   9.464
 1957POPC   PO427204   1.986  13.674   9.164
 1957POPC   GL127205   1.987  13.672   8.864
 1957POPC   GL227206   1.850  13.678   8.864
 1957POPC   C1A27207   1.986  13.646   8.564
 1957POPC   D2A27208   2.024  13.664   8.264
 1957POPC   C3A27209   1.958  13.600   7.964
 1957POPC   C4A27210   1.949  13.666   7.664
 1957POPC   C1B27211   1.767  13.773   8.564
 1957POPC   C2B27212   1.818  13.754   8.264
 1957POPC   C3B27213   1.812  13.808   7.964
 1957POPC   C4B27214   1.778  13.735   7.664
 1958POPC   NC327215  12.068   7.400   9.464
 1958POPC   PO427216  12.057   7.382   9.164
 1958POPC   GL127217  12.105   7.408   8.864
 1958POPC   GL227218  12.175   7.382   8.864
 1958POPC   C1A27219  12.038   7.443   8.564
 1958POPC   D2A27220  12.080   7.425   8.264
 1958POPC   C3A27221  12.052   7.466   7.964
 1958POPC   C4A27222  12.125   7.446   7.664
 1958POPC   C1B27223  12.267   7.344   8.564
 1958POPC   C2B27224  12.308   7.284   8.264
 1958POPC   C3B27225  12.270   7.316   7.964
 1958POPC   C4B27226  12.267   7.311   7.664
 1959POPC   NC327227  42.300   5.827   9.464
 1959POPC   PO427228  42.315   5.876   9.164
 1959POPC   GL127229  42.320   5.856   8.864
 1959POPC   GL227230  42.333   5.756   8.864
 1959POPC   C1A27231  42.292   5.858   8.564
 1959POPC   D2A27232  42.297   5.910   8.264
 1959POPC   C3A27233  42.383   5.870   7.964
 1959POPC   C4A27234  42.354   5.822   7.664
 1959POPC   C1B27235  42.412   5.618   8.564
 1959POPC   C2B27236  42.354   5.651   8.264
 1959POPC   C3B27237  42.433   5.643   7.964
 1959POPC   C4B27238  42.385   5.621   7.664
 1960POPC   NC327239  38.495  28.371   9.464
 1960POPC   PO427240  38.425  28.336   9.164
 1960POPC   GL127241  38.454  28.356   8.864
 1960POPC   GL227242  38.563  28.315   8.864
 1960POPC   C1A27243  38.453  28.374   8.564
 1960POPC   D2A27244  38.410  28.325   8.264
 1960POPC   C3A27245  38.439  28.362   7.964
 1960POPC   C4A27246  38.422  28.360   7.664
 1960POPC   C1B27247  38.659  28.205   8.564
 1960POPC   C2B27248  38.700  28.193   8.264
 1960POPC   C3B27249  38.642  28.277   7.964
 1960POPC   C4B27250  38.665  28.238   7.664
 1961POPC   NC327251  34.601  20.609   9.464
 1961POPC   PO427252  34.547  20.647   9.164
 1961POPC   GL127253  34.567  20.599   8.864
 1961POPC   GL227254  34.481  20.506   8.864
 1961POPC   C1A27255  34.532  20.656   8.564
 1961POPC   D2A27256  34.597  20.656   8.264
 1961POPC   C3A27257  34.582  20.654   7.964
 1961POPC   C4A27258  34.538  20.637   7.664
 1961POPC   C1B27259  34.374  20.412   8.564
 1961POPC   C2B27260  34.370  20.412   8.264
 1961POPC   C3B27261  34.377  20.436   7.964
 1961POPC   C4B27262  34.435  20.467   7.664
 1962POPC   NC327263   7.402  42.356   9.464
 1962POPC   PO427264   7.470  42.286   9.164
 1962POPC   GL127265   7.415  42.352   8.864
 1962POPC   GL227266   7.364  42.459   8.864
 1962POPC   C1A27267   7.449  42.327   8.564
 1962POPC   D2A27268   7.391  42.367   8.264
 1962POPC   C3A27269   7.463  42.331   7.964
 1962POPC   C4A27270   7.459  42.317   7.664
 1962POPC   C1B27271   7.200  42.520   8.564
 1962POPC   C2B27272   7.213  42.496   8.264
 1962POPC   C3B27273   7.297  42.470   7.964
 1962POPC   C4B27274   7.207  42.473   7.664
 1963POPC   NC327275  19.074  39.188   9.464
 1963POPC   PO427276  19.024  39.260   9.164
 1963POPC   GL127277  19.096  39.252   8.864
 1963POPC   GL227278  19.160  39.162   8.864
 1963POPC   C1A27279  19.078  39.262   8.564
 1963POPC   D2A27280  19.012  39.254   8.264
 1963POPC   C3A27281  19.062  39.219   7.964
 1963POPC   C4A27282  19.016  39.190   7.664
 1963POPC   C1B27283  19.265  39.119   8.564
 1963POPC   C2B27284  19.348  39.157   8.264
 1963POPC   C3B27285  19.259  39.159   7.964
 1963POPC   C4B27286  19.269  39.131   7.664
 1964POPC   NC327287  19.024  31.488   9.464
 1964POPC   PO427288  19.058  31.487   9.164
 1964POPC   GL127289  19.062  31.432   8.864
 1964POPC   GL227290  18.972  31.441   8.864
 1964POPC   C1A27291  19.038  31.480   8.564
 1964POPC   D2A27292  19.076  31.446   8.264
 1964POPC   C3A27293  19.048  31.453   7.964
 1964POPC   C4A27294  19.030  31.511   7.664
 1964POPC   C1B27295  18.784  31.466   8.564
 1964POPC   C2B27296  18.850  31.524   8.264
 1964POPC   C3B27297  18.795  31.512   7.964
 1964POPC   C4B27298  18.784  31.447   7.664
 1965POPC   NC327299   0.391  43.870   9.464
 1965POPC   PO427300   0.469  43.876   9.164
 1965POPC   GL127301   0.418  43.846   8.864
 1965POPC   GL227302   0.374  43.945   8.864
 1965POPC   C1A27303   0.401  43.886   8.564
 1965POPC   D2A27304   0.444  43.842   8.264
 1965POPC   C3A27305   0.389  43.935   7.964
 1965POPC   C4A27306   0.457  43.863   7.664
 1965POPC   C1B27307   0.279  44.122   8.564
 1965POPC   C2B27308   0.283  44.057   8.264
 1965POPC   C3B27309   0.249  44.093   7.964
 1965POPC   C4B27310   0.321  44.075   7.664
 1966POPC   NC327311  20.616  22.974   9.464
 1966POPC   PO427312  20.653  22.904   9.164
 1966POPC   GL127313  20.638  22.955   8.864
 1966POPC   GL227314  20.459  22.909   8.864
 1966POPC   C1A27315  20.594  22.901   8.564
 1966POPC   D2A27316  20.614  22.961   8.264
 1966POPC   C3A27317  20.582  22.901   7.964
 1966POPC   C4A27318  20.584  22.940   7.664
 1966POPC   C1B27319  20.379  22.758   8.564
 1966POPC   C2B27320  20.368  22.821   8.264
 1966POPC   C3B27321  20.372  22.837   7.964
 1966POPC   C4B27322  20.447  22.801   7.664
 1967POPC   NC327323  37.680  26.012   9.464
 1967POPC   PO427324  37.660  25.996   9.164
 1967POPC   GL127325  37.717  26.061   8.864
 1967POPC   GL227326  37.645  26.136   8.864
 1967POPC   C1A27327  37.727  26.059   8.564
 1967POPC   D2A27328  37.668  26.036   8.264
 1967POPC   C3A27329  37.637  26.069   7.964
 1967POPC   C4A27330  37.688  26.020   7.664
 1967POPC   C1B27331  37.672  26.251   8.564
 1967POPC   C2B27332  37.667  26.301   8.264
 1967POPC   C3B27333  37.592  26.256   7.964
 1967POPC   C4B27334  37.665  26.305   7.664
 1968POPC   NC327335  22.933  29.123   9.464
 1968POPC   PO427336  22.922  29.176   9.164
 1968POPC   GL127337  22.912  29.162   8.864
 1968POPC   GL227338  22.962  29.051   8.864
 1968POPC   C1A27339  22.920  29.146   8.564
 1968POPC   D2A27340  22.907  29.124   8.264
 1968POPC   C3A27341  22.958  29.188   7.964
 1968POPC   C4A27342  22.922  29.127   7.664
 1968POPC   C1B27343  22.908  28.944   8.564
 1968POPC   C2B27344  22.909  28.906   8.264
 1968POPC   C3B27345  22.887  28.916   7.964
 1968POPC   C4B27346  22.887  28.901   7.664
 1969POPC   NC327347  22.937   6.662   9.464
 1969POPC   PO427348  22.975   6.616   9.164
 1969POPC   GL127349  22.904   6.599   8.864
 1969POPC   GL227350  22.818   6.509   8.864
 1969POPC   C1A27351  22.934   6.675   8.564
 1969POPC   D2A27352  22.967   6.645   8.264
 1969POPC   C3A27353  22.931   6.622   7.964
 1969POPC   C4A27354  22.903   6.658   7.664
 1969POPC   C1B27355  22.765   6.507   8.564
 1969POPC   C2B27356  22.772   6.440   8.264
 1969POPC   C3B27357  22.735   6.496   7.964
 1969POPC   C4B27358  22.792   6.457   7.664
 1970POPC   NC327359  22.895  33.005   9.464
 1970POPC   PO427360  22.920  33.051   9.164
 1970POPC   GL127361  22.955  33.021   8.864
 1970POPC   GL227362  22.988  32.857   8.864
 1970POPC   C1A27363  22.973  33.013   8.564
 1970POPC   D2A27364  22.899  32.979   8.264
 1970POPC   C3A27365  22.907  33.023   7.964
 1970POPC   C4A27366  22.960  33.029   7.664
 1970POPC   C1B27367  22.986  32.818   8.564
 1970POPC   C2B27368  22.973  32.781   8.264
 1970POPC   C3B27369  22.935  32.810   7.964
 1970POPC   C4B27370  22.992  32.790   7.664
 1971POPC   NC327371  32.978  13.668   9.464
 1971POPC   PO427372  32.996  13.670   9.164
 1971POPC   GL127373  32.994  13.627   8.864
 1971POPC   GL227374  32.902  13.579   8.864
 1971POPC   C1A27375  33.046  13.599   8.564
 1971POPC   D2A27376  33.000  13.588   8.264
 1971POPC   C3A27377  33.051  13.631   7.964
 1971POPC   C4A27378  33.018  13.661   7.664
 1971POPC   C1B27379  32.736  13.512   8.564
 1971POPC   C2B27380  32.815  13.544   8.264
 1971POPC   C3B27381  32.834  13.521   7.964
 1971POPC   C4B27382  32.834  13.552   7.664
 1972POPC   NC327383  11.265  30.699   9.464
 1972POPC   PO427384  11.323  30.661   9.164
 1972POPC   GL127385  11.327  30.675   8.864
 1972POPC   GL227386  11.375  30.664   8.864
 1972POPC   C1A27387  11.313  30.665   8.564
 1972POPC   D2A27388  11.342  30.698   8.264
 1972POPC   C3A27389  11.348  30.699   7.964
 1972POPC   C4A27390  11.267  30.718   7.664
 1972POPC   C1B27391  11.500  30.659   8.564
 1972POPC   C2B27392  11.492  30.623   8.264
 1972POPC   C3B27393  11.535  30.589   7.964
 1972POPC   C4B27394  11.586  30.597   7.664
 1973POPC   NC327395  43.885   9.759   9.464
 1973POPC   PO427396  43.905   9.768   9.164
 1973POPC   GL127397  43.856   9.703   8.864
 1973POPC   GL227398  43.990   9.879   8.864
 1973POPC   C1A27399  43.861   9.710   8.564
 1973POPC   D2A27400  43.919   9.777   8.264
 1973POPC   C3A27401  43.922   9.709   7.964
 1973POPC   C4A27402  43.884   9.754   7.664
 1973POPC   C1B27403  44.062   9.874   8.564
 1973POPC   C2B27404  44.122   9.909   8.264
 1973POPC   C3B27405  44.109   9.936   7.964
 1973POPC   C4B27406  44.060   9.958   7.664
 1974POPC   NC327407  22.149   4.363   9.464
 1974POPC   PO427408  22.203   4.269   9.164
 1974POPC   GL127409  22.136   4.304   8.864
 1974POPC   GL227410  22.055   4.437   8.864
 1974POPC   C1A27411  22.180   4.319   8.564
 1974POPC   D2A27412  22.172   4.320   8.264
 1974POPC   C3A27413  22.137   4.269   7.964
 1974POPC   C4A27414  22.119   4.304   7.664
 1974POPC   C1B27415  22.068   4.504   8.564
 1974POPC   C2B27416  22.041   4.543   8.264
 1974POPC   C3B27417  22.059   4.524   7.964
 1974POPC   C4B27418  22.040   4.510   7.664
 1975POPC   NC327419   1.984   6.647   9.464
 1975POPC   PO427420   1.987   6.651   9.164
 1975POPC   GL127421   1.972   6.687   8.864
 1975POPC   GL227422   2.037   6.587   8.864
 1975POPC   C1A27423   2.002   6.660   8.564
 1975POPC   D2A27424   1.980   6.597   8.264
 1975POPC   C3A27425   1.947   6.633   7.964
 1975POPC   C4A27426   2.013   6.613   7.664
 1975POPC   C1B27427   2.200   6.435   8.564
 1975POPC   C2B27428   2.134   6.476   8.264
 1975POPC   C3B27429   2.186   6.455   7.964
 1975POPC   C4B27430   2.159   6.473   7.664
 1976POPC   NC327431  41.564  29.900   9.464
 1976POPC   PO427432  41.518  29.919   9.164
 1976POPC   GL127433  41.526  29.877   8.864
 1976POPC   GL227434  41.480  29.966   8.864
 1976POPC   C1A27435  41.553  29.925   8.564
 1976POPC   D2A27436  41.608  29.877   8.264
 1976POPC   C3A27437  41.554  29.911   7.964
 1976POPC   C4A27438  41.542  29.961   7.664
 1976POPC   C1B27439  41.312  30.049   8.564
 1976POPC   C2B27440  41.303  29.995   8.264
 1976POPC   C3B27441  41.373  30.028   7.964
 1976POPC   C4B27442  41.283  30.038   7.664
 1977POPC   NC327443  15.160  15.956   9.464
 1977POPC   PO427444  15.140  15.940   9.164
 1977POPC   GL127445  15.190  15.920   8.864
 1977POPC   GL227446  15.050  15.917   8.864
 1977POPC   C1A27447  15.148  15.991   8.564
 1977POPC   D2A27448  15.200  15.919   8.264
 1977POPC   C3A27449  15.165  15.962   7.964
 1977POPC   C4A27450  15.169  15.929   7.664
 1977POPC   C1B27451  14.985  15.776   8.564
 1977POPC   C2B27452  14.954  15.826   8.264
 1977POPC   C3B27453  14.977  15.835   7.964
 1977POPC   C4B27454  15.023  15.766   7.664
 1978POPC   NC327455   8.222  43.131   9.464
 1978POPC   PO427456   8.176  43.094   9.164
 1978POPC   GL127457   8.224  43.111   8.864
 1978POPC   GL227458   8.176  43.259   8.864
 1978POPC   C1A27459   8.232  43.117   8.564
 1978POPC   D2A27460   8.159  43.143   8.264
 1978POPC   C3A27461   8.162  43.125   7.964
 1978POPC   C4A27462   8.202  43.095   7.664
 1978POPC   C1B27463   8.205  43.329   8.564
 1978POPC   C2B27464   8.206  43.327   8.264
 1978POPC   C3B27465   8.241  43.400   7.964
 1978POPC   C4B27466   8.234  43.317   7.664
 1979POPC   NC327467  26.855   4.324   9.464
 1979POPC   PO427468  26.863   4.278   9.164
 1979POPC   GL127469  26.792   4.310   8.864
 1979POPC   GL227470  26.688   4.408   8.864
 1979POPC   C1A27471  26.792   4.348   8.564
 1979POPC   D2A27472  26.845   4.269   8.264
 1979POPC   C3A27473  26.814   4.312   7.964
 1979POPC   C4A27474  26.816   4.330   7.664
 1979POPC   C1B27475  26.641   4.492   8.564
 1979POPC   C2B27476  26.616   4.516   8.264
 1979POPC   C3B27477  26.664   4.485   7.964
 1979POPC   C4B27478  26.680   4.552   7.664
 1980POPC   NC327479  20.643  18.283   9.464
 1980POPC   PO427480  20.657  18.319   9.164
 1980POPC   GL127481  20.611  18.322   8.864
 1980POPC   GL227482  20.466  18.406   8.864
 1980POPC   C1A27483  20.635  18.298   8.564
 1980POPC   D2A27484  20.622  18.242   8.264
 1980POPC   C3A27485  20.599  18.282   7.964
 1980POPC   C4A27486  20.628  18.328   7.664
 1980POPC   C1B27487  20.415  18.452   8.564
 1980POPC   C2B27488  20.373  18.463   8.264
 1980POPC   C3B27489  20.425  18.479   7.964
 1980POPC   C4B27490  20.362  18.476   7.664
 1981POPC   NC327491  26.840   5.918   9.464
 1981POPC   PO427492  26.809   5.824   9.164
 1981POPC   GL127493  26.775   5.828   8.864
 1981POPC   GL227494  26.909   5.926   8.864
 1981POPC   C1A27495  26.864   5.841   8.564
 1981POPC   D2A27496  26.792   5.828   8.264
 1981POPC   C3A27497  26.788   5.840   7.964
 1981POPC   C4A27498  26.795   5.875   7.664
 1981POPC   C1B27499  27.016   5.904   8.564
 1981POPC   C2B27500  27.094   5.937   8.264
 1981POPC   C3B27501  27.081   5.903   7.964
 1981POPC   C4B27502  27.067   5.899   7.664
 1982POPC   NC327503  43.868  42.379   9.464
 1982POPC   PO427504  43.845  42.289   9.164
 1982POPC   GL127505  43.837  42.336   8.864
 1982POPC   GL227506  44.008  42.348   8.864
 1982POPC   C1A27507  43.916  42.335   8.564
 1982POPC   D2A27508  43.850  42.353   8.264
 1982POPC   C3A27509  43.861  42.321   7.964
 1982POPC   C4A27510  43.894  42.332   7.664
 1982POPC   C1B27511  44.125  42.374   8.564
 1982POPC   C2B27512  44.138  42.373   8.264
 1982POPC   C3B27513  44.119  42.334   7.964
 1982POPC   C4B27514  44.185  42.381   7.664
 1983POPC   NC327515   7.447  40.796   9.464
 1983POPC   PO427516   7.434  40.820   9.164
 1983POPC   GL127517   7.425  40.737   8.864
 1983POPC   GL227518   7.279  40.832   8.864
 1983POPC   C1A27519   7.465  40.833   8.564
 1983POPC   D2A27520   7.459  40.779   8.264
 1983POPC   C3A27521   7.447  40.800   7.964
 1983POPC   C4A27522   7.380  40.813   7.664
 1983POPC   C1B27523   7.188  40.898   8.564
 1983POPC   C2B27524   7.155  40.883   8.264
 1983POPC   C3B27525   7.161  40.840   7.964
 1983POPC   C4B27526   7.153  40.853   7.664
 1984POPC   NC327527  29.899  18.263   9.464
 1984POPC   PO427528  29.910  18.311   9.164
 1984POPC   GL127529  29.901  18.241   8.864
 1984POPC   GL227530  29.765  18.190   8.864
 1984POPC   C1A27531  29.903  18.282   8.564
 1984POPC   D2A27532  29.900  18.260   8.264
 1984POPC   C3A27533  29.879  18.258   7.964
 1984POPC   C4A27534  29.961  18.331   7.664
 1984POPC   C1B27535  29.726  18.142   8.564
 1984POPC   C2B27536  29.714  18.228   8.264
 1984POPC   C3B27537  29.708  18.175   7.964
 1984POPC   C4B27538  29.661  18.143   7.664
 1985POPC   NC327539   0.400  19.857   9.464
 1985POPC   PO427540   0.448  19.877   9.164
 1985POPC   GL127541   0.403  19.853   8.864
 1985POPC   GL227542   0.362  19.852   8.864
 1985POPC   C1A27543   0.447  19.819   8.564
 1985POPC   D2A27544   0.449  19.790   8.264
 1985POPC   C3A27545   0.467  19.792   7.964
 1985POPC   C4A27546   0.447  19.869   7.664
 1985POPC   C1B27547   0.151  19.913   8.564
 1985POPC   C2B27548   0.152  19.871   8.264
 1985POPC   C3B27549   0.180  19.874   7.964
 1985POPC   C4B27550   0.191  19.893   7.664
 1986POPC   NC327551   6.622  42.289   9.464
 1986POPC   PO427552   6.601  42.354   9.164
 1986POPC   GL127553   6.675  42.305   8.864
 1986POPC   GL227554   6.603  42.471   8.864
 1986POPC   C1A27555   6.665  42.286   8.564
 1986POPC   D2A27556   6.608  42.381   8.264
 1986POPC   C3A27557   6.628  42.338   7.964
 1986POPC   C4A27558   6.653  42.376   7.664
 1986POPC   C1B27559   6.595  42.556   8.564
 1986POPC   C2B27560   6.591  42.550   8.264
 1986POPC   C3B27561   6.525  42.603   7.964
 1986POPC   C4B27562   6.518  42.579   7.664
 1987POPC   NC327563  43.100  36.170   9.464
 1987POPC   PO427564  43.096  36.089   9.164
 1987POPC   GL127565  43.153  36.123   8.864
 1987POPC   GL227566  42.948  36.167   8.864
 1987POPC   C1A27567  43.067  36.140   8.564
 1987POPC   D2A27568  43.108  36.122   8.264
 1987POPC   C3A27569  43.109  36.148   7.964
 1987POPC   C4A27570  43.143  36.135   7.664
 1987POPC   C1B27571  42.856  36.104   8.564
 1987POPC   C2B27572  42.839  36.139   8.264
 1987POPC   C3B27573  42.858  36.096   7.964
 1987POPC   C4B27574  42.889  36.122   7.664
 1988POPC   NC327575  26.081  36.871   9.464
 1988POPC   PO427576  26.090  36.883   9.164
 1988POPC   GL127577  26.086  36.878   8.864
 1988POPC   GL227578  26.125  36.988   8.864
 1988POPC   C1A27579  26.088  36.916   8.564
 1988POPC   D2A27580  26.060  36.949   8.264
 1988POPC   C3A27581  26.064  36.913   7.964
 1988POPC   C4A27582  26.060  36.858   7.664
 1988POPC   C1B27583  26.256  37.030   8.564
 1988POPC   C2B27584  26.234  36.937   8.264
 1988POPC   C3B27585  26.254  36.969   7.964
 1988POPC   C4B27586  26.274  36.942   7.664
 1989POPC   NC327587  32.214   8.970   9.464
 1989POPC   PO427588  32.270   8.973   9.164
 1989POPC   GL127589  32.222   8.978   8.864
 1989POPC   GL227590  32.138   9.037   8.864
 1989POPC   C1A27591  32.242   8.990   8.564
 1989POPC   D2A27592  32.290   8.943   8.264
 1989POPC   C3A27593  32.278   8.969   7.964
 1989POPC   C4A27594  32.279   8.962   7.664
 1989POPC   C1B27595  32.047   9.070   8.564
 1989POPC   C2B27596  32.002   9.067   8.264
 1989POPC   C3B27597  31.966   9.038   7.964
 1989POPC   C4B27598  32.033   9.009   7.664
 1990POPC   NC327599   7.453   1.232   9.464
 1990POPC   PO427600   7.414   1.203   9.164
 1990POPC   GL127601   7.429   1.165   8.864
 1990POPC   GL227602   7.460   1.072   8.864
 1990POPC   C1A27603   7.433   1.200   8.564
 1990POPC   D2A27604   7.410   1.198   8.264
 1990POPC   C3A27605   7.388   1.261   7.964
 1990POPC   C4A27606   7.416   1.229   7.664
 1990POPC   C1B27607   7.516   1.027   8.564
 1990POPC   C2B27608   7.566   1.004   8.264
 1990POPC   C3B27609   7.588   0.985   7.964
 1990POPC   C4B27610   7.504   0.972   7.664
 1991POPC   NC327611  18.311   8.203   9.464
 1991POPC   PO427612  18.260   8.183   9.164
 1991POPC   GL127613  18.326   8.234   8.864
 1991POPC   GL227614  18.368   8.271   8.864
 1991POPC   C1A27615  18.281   8.148   8.564
 1991POPC   D2A27616  18.275   8.237   8.264
 1991POPC   C3A27617  18.239   8.208   7.964
 1991POPC   C4A27618  18.294   8.164   7.664
 1991POPC   C1B27619  18.466   8.428   8.564
 1991POPC   C2B27620  18.454   8.456   8.264
 1991POPC   C3B27621  18.455   8.386   7.964
 1991POPC   C4B27622  18.467   8.360   7.664
 1992POPC   NC327623  18.239  32.228   9.464
 1992POPC   PO427624  18.328  32.222   9.164
 1992POPC   GL127625  18.237  32.241   8.864
 1992POPC   GL227626  18.248  32.119   8.864
 1992POPC   C1A27627  18.323  32.227   8.564
 1992POPC   D2A27628  18.323  32.293   8.264
 1992POPC   C3A27629  18.247  32.268   7.964
 1992POPC   C4A27630  18.236  32.205   7.664
 1992POPC   C1B27631  18.278  31.955   8.564
 1992POPC   C2B27632  18.270  31.985   8.264
 1992POPC   C3B27633  18.280  31.968   7.964
 1992POPC   C4B27634  18.272  32.035   7.664
 1993POPC   NC327635  16.707  41.542   9.464
 1993POPC   PO427636  16.725  41.547   9.164
 1993POPC   GL127637  16.721  41.515   8.864
 1993POPC   GL227638  16.794  41.476   8.864
 1993POPC   C1A27639  16.685  41.557   8.564
 1993POPC   D2A27640  16.718  41.588   8.264
 1993POPC   C3A27641  16.716  41.575   7.964
 1993POPC   C4A27642  16.770  41.593   7.664
 1993POPC   C1B27643  16.892  41.317   8.564
 1993POPC   C2B27644  16.885  41.359   8.264
 1993POPC   C3B27645  16.874  41.370   7.964
 1993POPC   C4B27646  16.870  41.293   7.664
 1994POPC   NC327647  44.700  15.135   9.464
 1994POPC   PO427648  44.618  15.171   9.164
 1994POPC   GL127649  44.676  15.166   8.864
 1994POPC   GL227650  44.745  15.094   8.864
 1994POPC   C1A27651  44.646  15.168   8.564
 1994POPC   D2A27652  44.689  15.168   8.264
 1994POPC   C3A27653  44.625  15.211   7.964
 1994POPC   C4A27654  44.700  15.191   7.664
 1994POPC   C1B27655  44.880  15.023   8.564
 1994POPC   C2B27656  44.857  15.063   8.264
 1994POPC   C3B27657  44.896  15.025   7.964
 1994POPC   C4B27658  44.864  15.069   7.664
 1995POPC   NC327659  14.437  21.339   9.464
 1995POPC   PO427660  14.372  21.409   9.164
 1995POPC   GL127661  14.404  21.397   8.864
 1995POPC   GL227662  14.570  21.370   8.864
 1995POPC   C1A27663  14.388  21.413   8.564
 1995POPC   D2A27664  14.360  21.401   8.264
 1995POPC   C3A27665  14.399  21.426   7.964
 1995POPC   C4A27666  14.389  21.398   7.664
 1995POPC   C1B27667  14.606  21.365   8.564
 1995POPC   C2B27668  14.628  21.356   8.264
 1995POPC   C3B27669  14.657  21.320   7.964
 1995POPC   C4B27670  14.627  21.404   7.664
 1996POPC   NC327671  22.205  10.554   9.464
 1996POPC   PO427672  22.204  10.546   9.164
 1996POPC   GL127673  22.209  10.482   8.864
 1996POPC   GL227674  22.242  10.598   8.864
 1996POPC   C1A27675  22.170  10.490   8.564
 1996POPC   D2A27676  22.179  10.563   8.264
 1996POPC   C3A27677  22.113  10.564   7.964
 1996POPC   C4A27678  22.151  10.508   7.664
 1996POPC   C1B27679  22.250  10.792   8.564
 1996POPC   C2B27680  22.223  10.738   8.264
 1996POPC   C3B27681  22.227  10.729   7.964
 1996POPC   C4B27682  22.240  10.803   7.664
 1997POPC   NC327683  29.879   1.208   9.464
 1997POPC   PO427684  29.873   1.241   9.164
 1997POPC   GL127685  29.880   1.166   8.864
 1997POPC   GL227686  29.926   1.306   8.864
 1997POPC   C1A27687  29.940   1.212   8.564
 1997POPC   D2A27688  29.956   1.179   8.264
 1997POPC   C3A27689  29.960   1.166   7.964
 1997POPC   C4A27690  29.919   1.234   7.664
 1997POPC   C1B27691  29.909   1.486   8.564
 1997POPC   C2B27692  29.839   1.489   8.264
 1997POPC   C3B27693  29.876   1.484   7.964
 1997POPC   C4B27694  29.884   1.446   7.664
 1998POPC   NC327695  39.977  10.488   9.464
 1998POPC   PO427696  39.981  10.515   9.164
 1998POPC   GL127697  40.049  10.510   8.864
 1998POPC   GL227698  39.858  10.548   8.864
 1998POPC   C1A27699  40.053  10.515   8.564
 1998POPC   D2A27700  40.033  10.540   8.264
 1998POPC   C3A27701  40.036  10.550   7.964
 1998POPC   C4A27702  40.025  10.487   7.664
 1998POPC   C1B27703  39.794  10.592   8.564
 1998POPC   C2B27704  39.797  10.567   8.264
 1998POPC   C3B27705  39.757  10.502   7.964
 1998POPC   C4B27706  39.784  10.529   7.664
 1999POPC   NC327707   8.205  42.287   9.464
 1999POPC   PO427708   8.187  42.339   9.164
 1999POPC   GL127709   8.212  42.321   8.864
 1999POPC   GL227710   8.285  42.302   8.864
 1999POPC   C1A27711   8.186  42.320   8.564
 1999POPC   D2A27712   8.202  42.285   8.264
 1999POPC   C3A27713   8.159  42.289   7.964
 1999POPC   C4A27714   8.230  42.322   7.664
 1999POPC   C1B27715   8.493  42.407   8.564
 1999POPC   C2B27716   8.399  42.383   8.264
 1999POPC   C3B27717   8.402  42.325   7.964
 1999POPC   C4B27718   8.444  42.326   7.664
 2000POPC   NC327719  37.630  33.006   9.464
 2000POPC   PO427720  37.652  33.033   9.164
 2000POPC   GL127721  37.680  33.070   8.864
 2000POPC   GL227722  37.845  33.019   8.864
 2000POPC   C1A27723  37.715  33.000   8.564
 2000POPC   D2A27724  37.665  33.073   8.264
 2000POPC   C3A27725  37.661  33.028   7.964
 2000POPC   C4A27726  37.667  33.011   7.664
 2000POPC   C1B27727  37.952  32.897   8.564
 2000POPC   C2B27728  37.869  32.966   8.264
 2000POPC   C3B27729  37.890  32.902   7.964
 2000POPC   C4B27730  37.903  32.952   7.664
 2001POPC   NC327731   2.798  42.292   9.464
 2001POPC   PO427732   2.756  42.350   9.164
 2001POPC   GL127733   2.748  42.343   8.864
 2001POPC   GL227734   2.920  42.305   8.864
 2001POPC   C1A27735   2.762  42.381   8.564
 2001POPC   D2A27736   2.725  42.290   8.264
 2001POPC   C3A27737   2.755  42.379   7.964
 2001POPC   C4A27738   2.784  42.298   7.664
 2001POPC   C1B27739   3.049  42.351   8.564
 2001POPC   C2B27740   3.021  42.344   8.264
 2001POPC   C3B27741   2.983  42.364   7.964
 2001POPC   C4B27742   3.057  42.312   7.664
 2002POPC   NC327743  19.094  17.467   9.464
 2002POPC   PO427744  19.059  17.496   9.164
 2002POPC   GL127745  19.033  17.460   8.864
 2002POPC   GL227746  19.156  17.406   8.864
 2002POPC   C1A27747  19.086  17.547   8.564
 2002POPC   D2A27748  19.032  17.492   8.264
 2002POPC   C3A27749  19.034  17.512   7.964
 2002POPC   C4A27750  19.058  17.472   7.664
 2002POPC   C1B27751  19.213  17.405   8.564
 2002POPC   C2B27752  19.270  17.308   8.264
 2002POPC   C3B27753  19.300  17.309   7.964
 2002POPC   C4B27754  19.278  17.370   7.664
 2003POPC   NC327755  18.307  27.607   9.464
 2003POPC   PO427756  18.269  27.593   9.164
 2003POPC   GL127757  18.286  27.563   8.864
 2003POPC   GL227758  18.340  27.690   8.864
 2003POPC   C1A27759  18.260  27.547   8.564
 2003POPC   D2A27760  18.242  27.577   8.264
 2003POPC   C3A27761  18.325  27.577   7.964
 2003POPC   C4A27762  18.290  27.568   7.664
 2003POPC   C1B27763  18.345  27.799   8.564
 2003POPC   C2B27764  18.361  27.810   8.264
 2003POPC   C3B27765  18.331  27.827   7.964
 2003POPC   C4B27766  18.346  27.820   7.664
 2004POPC   NC327767  23.673  36.086   9.464
 2004POPC   PO427768  23.755  36.105   9.164
 2004POPC   GL127769  23.672  36.121   8.864
 2004POPC   GL227770  23.730  35.986   8.864
 2004POPC   C1A27771  23.715  36.136   8.564
 2004POPC   D2A27772  23.758  36.144   8.264
 2004POPC   C3A27773  23.761  36.167   7.964
 2004POPC   C4A27774  23.758  36.099   7.664
 2004POPC   C1B27775  23.798  35.901   8.564
 2004POPC   C2B27776  23.760  35.857   8.264
 2004POPC   C3B27777  23.841  35.889   7.964
 2004POPC   C4B27778  23.832  35.893   7.664
 2005POPC   NC327779   6.640   3.546   9.464
 2005POPC   PO427780   6.627   3.551   9.164
 2005POPC   GL127781   6.688   3.565   8.864
 2005POPC   GL227782   6.791   3.471   8.864
 2005POPC   C1A27783   6.623   3.536   8.564
 2005POPC   D2A27784   6.632   3.589   8.264
 2005POPC   C3A27785   6.640   3.565   7.964
 2005POPC   C4A27786   6.611   3.554   7.664
 2005POPC   C1B27787   6.867   3.440   8.564
 2005POPC   C2B27788   6.838   3.483   8.264
 2005POPC   C3B27789   6.863   3.486   7.964
 2005POPC   C4B27790   6.894   3.443   7.664
 2006POPC   NC327791  21.399  10.488   9.464
 2006POPC   PO427792  21.389  10.551   9.164
 2006POPC   GL127793  21.409  10.494   8.864
 2006POPC   GL227794  21.323  10.630   8.864
 2006POPC   C1A27795  21.348  10.560   8.564
 2006POPC   D2A27796  21.414  10.539   8.264
 2006POPC   C3A27797  21.380  10.570   7.964
 2006POPC   C4A27798  21.364  10.566   7.664
 2006POPC   C1B27799  21.230  10.758   8.564
 2006POPC   C2B27800  21.255  10.698   8.264
 2006POPC   C3B27801  21.222  10.740   7.964
 2006POPC   C4B27802  21.293  10.704   7.664
 2007POPC   NC327803   8.168  35.332   9.464
 2007POPC   PO427804   8.200  35.323   9.164
 2007POPC   GL127805   8.217  35.357   8.864
 2007POPC   GL227806   8.149  35.437   8.864
 2007POPC   C1A27807   8.192  35.321   8.564
 2007POPC   D2A27808   8.170  35.330   8.264
 2007POPC   C3A27809   8.168  35.312   7.964
 2007POPC   C4A27810   8.161  35.337   7.664
 2007POPC   C1B27811   8.138  35.629   8.564
 2007POPC   C2B27812   8.163  35.633   8.264
 2007POPC   C3B27813   8.114  35.629   7.964
 2007POPC   C4B27814   8.145  35.608   7.664
 2008POPC   NC327815  35.344  24.477   9.464
 2008POPC   PO427816  35.337  24.465   9.164
 2008POPC   GL127817  35.303  24.505   8.864
 2008POPC   GL227818  35.240  24.525   8.864
 2008POPC   C1A27819  35.336  24.485   8.564
 2008POPC   D2A27820  35.382  24.523   8.264
 2008POPC   C3A27821  35.329  24.440   7.964
 2008POPC   C4A27822  35.391  24.482   7.664
 2008POPC   C1B27823  35.159  24.670   8.564
 2008POPC   C2B27824  35.151  24.616   8.264
 2008POPC   C3B27825  35.165  24.610   7.964
 2008POPC   C4B27826  35.161  24.679   7.664
 2009POPC   NC327827  36.094  29.905   9.464
 2009POPC   PO427828  36.080  29.903   9.164
 2009POPC   GL127829  36.163  29.914   8.864
 2009POPC   GL227830  36.001  30.010   8.864
 2009POPC   C1A27831  36.112  29.941   8.564
 2009POPC   D2A27832  36.079  29.882   8.264
 2009POPC   C3A27833  36.168  29.965   7.964
 2009POPC   C4A27834  36.119  29.874   7.664
 2009POPC   C1B27835  35.884  30.023   8.564
 2009POPC   C2B27836  35.891  30.108   8.264
 2009POPC   C3B27837  35.899  30.067   7.964
 2009POPC   C4B27838  35.910  30.076   7.664
 2010POPC   NC327839   3.578  25.291   9.464
 2010POPC   PO427840   3.576  25.307   9.164
 2010POPC   GL127841   3.524  25.264   8.864
 2010POPC   GL227842   3.465  25.290   8.864
 2010POPC   C1A27843   3.512  25.255   8.564
 2010POPC   D2A27844   3.573  25.267   8.264
 2010POPC   C3A27845   3.524  25.303   7.964
 2010POPC   C4A27846   3.497  25.230   7.664
 2010POPC   C1B27847   3.335  25.244   8.564
 2010POPC   C2B27848   3.332  25.258   8.264
 2010POPC   C3B27849   3.327  25.174   7.964
 2010POPC   C4B27850   3.335  25.243   7.664
 2011POPC   NC327851   3.549  37.716   9.464
 2011POPC   PO427852   3.590  37.699   9.164
 2011POPC   GL127853   3.503  37.687   8.864
 2011POPC   GL227854   3.516  37.810   8.864
 2011POPC   C1A27855   3.540  37.705   8.564
 2011POPC   D2A27856   3.543  37.691   8.264
 2011POPC   C3A27857   3.534  37.651   7.964
 2011POPC   C4A27858   3.542  37.630   7.664
 2011POPC   C1B27859   3.541  37.926   8.564
 2011POPC   C2B27860   3.560  37.898   8.264
 2011POPC   C3B27861   3.568  37.948   7.964
 2011POPC   C4B27862   3.548  37.932   7.664
 2012POPC   NC327863  20.645  28.395   9.464
 2012POPC   PO427864  20.571  28.348   9.164
 2012POPC   GL127865  20.606  28.325   8.864
 2012POPC   GL227866  20.511  28.343   8.864
 2012POPC   C1A27867  20.639  28.321   8.564
 2012POPC   D2A27868  20.601  28.340   8.264
 2012POPC   C3A27869  20.629  28.357   7.964
 2012POPC   C4A27870  20.606  28.346   7.664
 2012POPC   C1B27871  20.357  28.238   8.564
 2012POPC   C2B27872  20.422  28.237   8.264
 2012POPC   C3B27873  20.393  28.269   7.964
 2012POPC   C4B27874  20.408  28.296   7.664
 2013POPC   NC327875  16.705  14.399   9.464
 2013POPC   PO427876  16.753  14.399   9.164
 2013POPC   GL127877  16.727  14.379   8.864
 2013POPC   GL227878  16.694  14.496   8.864
 2013POPC   C1A27879  16.705  14.391   8.564
 2013POPC   D2A27880  16.689  14.416   8.264
 2013POPC   C3A27881  16.753  14.377   7.964
 2013POPC   C4A27882  16.705  14.373   7.664
 2013POPC   C1B27883  16.566  14.595   8.564
 2013POPC   C2B27884  16.590  14.597   8.264
 2013POPC   C3B27885  16.621  14.557   7.964
 2013POPC   C4B27886  16.592  14.638   7.664
 2014POPC   NC327887  21.374  43.866   9.464
 2014POPC   PO427888  21.421  43.900   9.164
 2014POPC   GL127889  21.337  43.859   8.864
 2014POPC   GL227890  21.450  43.735   8.864
 2014POPC   C1A27891  21.367  43.910   8.564
 2014POPC   D2A27892  21.369  43.926   8.264
 2014POPC   C3A27893  21.386  43.931   7.964
 2014POPC   C4A27894  21.392  43.914   7.664
 2014POPC   C1B27895  21.476  43.654   8.564
 2014POPC   C2B27896  21.537  43.632   8.264
 2014POPC   C3B27897  21.458  43.638   7.964
 2014POPC   C4B27898  21.522  43.696   7.664
 2015POPC   NC327899  22.189  43.887   9.464
 2015POPC   PO427900  22.156  43.891   9.164
 2015POPC   GL127901  22.168  43.893   8.864
 2015POPC   GL227902  22.058  43.842   8.864
 2015POPC   C1A27903  22.185  43.918   8.564
 2015POPC   D2A27904  22.210  43.859   8.264
 2015POPC   C3A27905  22.145  43.901   7.964
 2015POPC   C4A27906  22.182  43.890   7.664
 2015POPC   C1B27907  21.885  43.874   8.564
 2015POPC   C2B27908  21.951  43.906   8.264
 2015POPC   C3B27909  21.932  43.890   7.964
 2015POPC   C4B27910  21.891  43.840   7.664
 2016POPC   NC327911  39.205  43.128   9.464
 2016POPC   PO427912  39.249  43.090   9.164
 2016POPC   GL127913  39.213  43.082   8.864
 2016POPC   GL227914  39.208  43.275   8.864
 2016POPC   C1A27915  39.272  43.080   8.564
 2016POPC   D2A27916  39.209  43.082   8.264
 2016POPC   C3A27917  39.255  43.151   7.964
 2016POPC   C4A27918  39.228  43.103   7.664
 2016POPC   C1B27919  39.239  43.335   8.564
 2016POPC   C2B27920  39.235  43.364   8.264
 2016POPC   C3B27921  39.169  43.317   7.964
 2016POPC   C4B27922  39.205  43.395   7.664
 2017POPC   NC327923  20.585  29.173   9.464
 2017POPC   PO427924  20.616  29.113   9.164
 2017POPC   GL127925  20.584  29.129   8.864
 2017POPC   GL227926  20.729  29.176   8.864
 2017POPC   C1A27927  20.625  29.121   8.564
 2017POPC   D2A27928  20.649  29.180   8.264
 2017POPC   C3A27929  20.561  29.194   7.964
 2017POPC   C4A27930  20.588  29.156   7.664
 2017POPC   C1B27931  20.818  29.136   8.564
 2017POPC   C2B27932  20.893  29.176   8.264
 2017POPC   C3B27933  20.875  29.151   7.964
 2017POPC   C4B27934  20.854  29.115   7.664
 2018POPC   NC327935  37.662   7.427   9.464
 2018POPC   PO427936  37.700   7.458   9.164
 2018POPC   GL127937  37.691   7.451   8.864
 2018POPC   GL227938  37.591   7.274   8.864
 2018POPC   C1A27939  37.660   7.388   8.564
 2018POPC   D2A27940  37.723   7.416   8.264
 2018POPC   C3A27941  37.721   7.380   7.964
 2018POPC   C4A27942  37.684   7.452   7.664
 2018POPC   C1B27943  37.559   7.168   8.564
 2018POPC   C2B27944  37.561   7.186   8.264
 2018POPC   C3B27945  37.636   7.164   7.964
 2018POPC   C4B27946  37.570   7.222   7.664
 2019POPC   NC327947   3.509  24.457   9.464
 2019POPC   PO427948   3.589  24.517   9.164
 2019POPC   GL127949   3.556  24.487   8.864
 2019POPC   GL227950   3.586  24.592   8.864
 2019POPC   C1A27951   3.498  24.521   8.564
 2019POPC   D2A27952   3.564  24.484   8.264
 2019POPC   C3A27953   3.494  24.472   7.964
 2019POPC   C4A27954   3.567  24.495   7.664
 2019POPC   C1B27955   3.569  24.711   8.564
 2019POPC   C2B27956   3.554  24.766   8.264
 2019POPC   C3B27957   3.580  24.761   7.964
 2019POPC   C4B27958   3.532  24.697   7.664
 2020POPC   NC327959  37.696   1.956   9.464
 2020POPC   PO427960  37.719   1.988   9.164
 2020POPC   GL127961  37.651   2.032   8.864
 2020POPC   GL227962  37.618   1.864   8.864
 2020POPC   C1A27963  37.652   2.008   8.564
 2020POPC   D2A27964  37.721   1.988   8.264
 2020POPC   C3A27965  37.706   1.989   7.964
 2020POPC   C4A27966  37.728   1.978   7.664
 2020POPC   C1B27967  37.629   1.739   8.564
 2020POPC   C2B27968  37.572   1.752   8.264
 2020POPC   C3B27969  37.584   1.771   7.964
 2020POPC   C4B27970  37.604   1.774   7.664
 2021POPC   NC327971  17.458  34.597   9.464
 2021POPC   PO427972  17.553  34.563   9.164
 2021POPC   GL127973  17.533  34.559   8.864
 2021POPC   GL227974  17.421  34.553   8.864
 2021POPC   C1A27975  17.548  34.588   8.564
 2021POPC   D2A27976  17.495  34.601   8.264
 2021POPC   C3A27977  17.482  34.603   7.964
 2021POPC   C4A27978  17.508  34.593   7.664
 2021POPC   C1B27979  17.270  34.430   8.564
 2021POPC   C2B27980  17.247  34.444   8.264
 2021POPC   C3B27981  17.338  34.493   7.964
 2021POPC   C4B27982  17.277  34.445   7.664
 2022POPC   NC327983  15.226   6.685   9.464
 2022POPC   PO427984  15.188   6.607   9.164
 2022POPC   GL127985  15.186   6.638   8.864
 2022POPC   GL227986  15.068   6.593   8.864
 2022POPC   C1A27987  15.186   6.621   8.564
 2022POPC   D2A27988  15.214   6.611   8.264
 2022POPC   C3A27989  15.215   6.673   7.964
 2022POPC   C4A27990  15.159   6.679   7.664
 2022POPC   C1B27991  14.971   6.616   8.564
 2022POPC   C2B27992  14.938   6.570   8.264
 2022POPC   C3B27993  14.922   6.597   7.964
 2022POPC   C4B27994  14.893   6.644   7.664
 2023POPC   NC327995   5.113  29.102   9.464
 2023POPC   PO427996   5.079  29.117   9.164
 2023POPC   GL127997   5.044  29.115   8.864
 2023POPC   GL227998   4.991  29.257   8.864
 2023POPC   C1A27999   5.046  29.165   8.564
 2023POPC   D2A28000   5.127  29.105   8.264
 2023POPC   C3A28001   5.103  29.099   7.964
 2023POPC   C4A28002   5.058  29.150   7.664
 2023POPC   C1B28003   4.960  29.315   8.564
 2023POPC   C2B28004   4.920  29.325   8.264
 2023POPC   C3B28005   4.908  29.329   7.964
 2023POPC   C4B28006   4.958  29.298   7.664
 2024POPC   NC328007   0.416  25.225   9.464
 2024POPC   PO428008   0.412  25.244   9.164
 2024POPC   GL128009   0.411  25.302   8.864
 2024POPC   GL228010   0.443  25.435   8.864
 2024POPC   C1A28011   0.466  25.267   8.564
 2024POPC   D2A28012   0.474  25.241   8.264
 2024POPC   C3A28013   0.464  25.290   7.964
 2024POPC   C4A28014   0.408  25.300   7.664
 2024POPC   C1B28015   0.437  25.494   8.564
 2024POPC   C2B28016   0.441  25.508   8.264
 2024POPC   C3B28017   0.423  25.523   7.964
 2024POPC   C4B28018   0.461  25.561   7.664
 2025POPC   NC328019  15.958   2.026   9.464
 2025POPC   PO428020  15.915   1.989   9.164
 2025POPC   GL128021  15.977   2.039   8.864
 2025POPC   GL228022  16.011   2.033   8.864
 2025POPC   C1A28023  15.968   1.949   8.564
 2025POPC   D2A28024  15.957   2.002   8.264
 2025POPC   C3A28025  15.956   2.017   7.964
 2025POPC   C4A28026  15.977   1.948   7.664
 2025POPC   C1B28027  16.116   2.184   8.564
 2025POPC   C2B28028  16.079   2.131   8.264
 2025POPC   C3B28029  16.152   2.207   7.964
 2025POPC   C4B28030  16.094   2.188   7.664
 2026POPC   NC328031  17.523   5.068   9.464
 2026POPC   PO428032  17.480   5.134   9.164
 2026POPC   GL128033  17.534   5.049   8.864
 2026POPC   GL228034  17.565   4.957   8.864
 2026POPC   C1A28035  17.544   5.093   8.564
 2026POPC   D2A28036  17.507   5.081   8.264
 2026POPC   C3A28037  17.468   5.100   7.964
 2026POPC   C4A28038  17.461   5.058   7.664
 2026POPC   C1B28039  17.653   4.913   8.564
 2026POPC   C2B28040  17.691   4.885   8.264
 2026POPC   C3B28041  17.639   4.877   7.964
 2026POPC   C4B28042  17.695   4.914   7.664
 2027POPC   NC328043  10.496  40.051   9.464
 2027POPC   PO428044  10.571  40.055   9.164
 2027POPC   GL128045  10.483  39.975   8.864
 2027POPC   GL228046  10.420  39.992   8.864
 2027POPC   C1A28047  10.493  39.974   8.564
 2027POPC   D2A28048  10.554  39.988   8.264
 2027POPC   C3A28049  10.532  39.962   7.964
 2027POPC   C4A28050  10.503  39.992   7.664
 2027POPC   C1B28051  10.284  39.850   8.564
 2027POPC   C2B28052  10.263  39.880   8.264
 2027POPC   C3B28053  10.311  39.920   7.964
 2027POPC   C4B28054  10.303  39.851   7.664
 2028POPC   NC328055  25.284  22.162   9.464
 2028POPC   PO428056  25.299  22.201   9.164
 2028POPC   GL128057  25.252  22.177   8.864
 2028POPC   GL228058  25.118  22.227   8.864
 2028POPC   C1A28059  25.252  22.134   8.564
 2028POPC   D2A28060  25.272  22.178   8.264
 2028POPC   C3A28061  25.266  22.171   7.964
 2028POPC   C4A28062  25.301  22.201   7.664
 2028POPC   C1B28063  25.055  22.307   8.564
 2028POPC   C2B28064  25.099  22.330   8.264
 2028POPC   C3B28065  25.091  22.260   7.964
 2028POPC   C4B28066  25.091  22.340   7.664
 2029POPC   NC328067  32.286  39.967   9.464
 2029POPC   PO428068  32.211  40.003   9.164
 2029POPC   GL128069  32.238  40.012   8.864
 2029POPC   GL228070  32.311  40.089   8.864
 2029POPC   C1A28071  32.243  39.986   8.564
 2029POPC   D2A28072  32.279  40.040   8.264
 2029POPC   C3A28073  32.279  40.020   7.964
 2029POPC   C4A28074  32.204  40.008   7.664
 2029POPC   C1B28075  32.445  40.179   8.564
 2029POPC   C2B28076  32.490  40.116   8.264
 2029POPC   C3B28077  32.488  40.135   7.964
 2029POPC   C4B28078  32.450  40.153   7.664
 2030POPC   NC328079   1.173  25.995   9.464
 2030POPC   PO428080   1.174  26.063   9.164
 2030POPC   GL128081   1.215  26.050   8.864
 2030POPC   GL228082   1.363  26.030   8.864
 2030POPC   C1A28083   1.179  26.031   8.564
 2030POPC   D2A28084   1.183  26.075   8.264
 2030POPC   C3A28085   1.212  25.997   7.964
 2030POPC   C4A28086   1.242  26.018   7.664
 2030POPC   C1B28087   1.495  26.031   8.564
 2030POPC   C2B28088   1.415  26.077   8.264
 2030POPC   C3B28089   1.456  26.069   7.964
 2030POPC   C4B28090   1.469  26.093   7.664
 2031POPC   NC328091  30.720  35.330   9.464
 2031POPC   PO428092  30.679  35.338   9.164
 2031POPC   GL128093  30.679  35.383   8.864
 2031POPC   GL228094  30.599  35.482   8.864
 2031POPC   C1A28095  30.691  35.349   8.564
 2031POPC   D2A28096  30.724  35.351   8.264
 2031POPC   C3A28097  30.648  35.321   7.964
 2031POPC   C4A28098  30.738  35.304   7.664
 2031POPC   C1B28099  30.530  35.607   8.564
 2031POPC   C2B28100  30.538  35.532   8.264
 2031POPC   C3B28101  30.581  35.530   7.964
 2031POPC   C4B28102  30.534  35.570   7.664
 2032POPC   NC328103  22.125  21.407   9.464
 2032POPC   PO428104  22.118  21.356   9.164
 2032POPC   GL128105  22.172  21.427   8.864
 2032POPC   GL228106  22.283  21.307   8.864
 2032POPC   C1A28107  22.176  21.395   8.564
 2032POPC   D2A28108  22.188  21.406   8.264
 2032POPC   C3A28109  22.194  21.388   7.964
 2032POPC   C4A28110  22.142  21.390   7.664
 2032POPC   C1B28111  22.392  21.320   8.564
 2032POPC   C2B28112  22.413  21.267   8.264
 2032POPC   C3B28113  22.422  21.273   7.964
 2032POPC   C4B28114  22.369  21.276   7.664
 2033POPC   NC328115  42.384  36.912   9.464
 2033POPC   PO428116  42.335  36.924   9.164
 2033POPC   GL128117  42.369  36.876   8.864
 2033POPC   GL228118  42.422  36.976   8.864
 2033POPC   C1A28119  42.295  36.908   8.564
 2033POPC   D2A28120  42.353  36.888   8.264
 2033POPC   C3A28121  42.291  36.859   7.964
 2033POPC   C4A28122  42.348  36.889   7.664
 2033POPC   C1B28123  42.523  36.991   8.564
 2033POPC   C2B28124  42.534  37.058   8.264
 2033POPC   C3B28125  42.510  36.990   7.964
 2033POPC   C4B28126  42.579  36.989   7.664
 2034POPC   NC328127  40.767  39.238   9.464
 2034POPC   PO428128  40.754  39.281   9.164
 2034POPC   GL128129  40.827  39.261   8.864
 2034POPC   GL228130  40.696  39.175   8.864
 2034POPC   C1A28131  40.804  39.188   8.564
 2034POPC   D2A28132  40.803  39.258   8.264
 2034POPC   C3A28133  40.756  39.207   7.964
 2034POPC   C4A28134  40.746  39.219   7.664
 2034POPC   C1B28135  40.573  39.158   8.564
 2034POPC   C2B28136  40.518  39.194   8.264
 2034POPC   C3B28137  40.545  39.165   7.964
 2034POPC   C4B28138  40.529  39.225   7.664
 2035POPC   NC328139  33.812  41.598   9.464
 2035POPC   PO428140  33.800  41.596   9.164
 2035POPC   GL128141  33.847  41.600   8.864
 2035POPC   GL228142  33.839  41.413   8.864
 2035POPC   C1A28143  33.775  41.587   8.564
 2035POPC   D2A28144  33.832  41.535   8.264
 2035POPC   C3A28145  33.848  41.509   7.964
 2035POPC   C4A28146  33.830  41.593   7.664
 2035POPC   C1B28147  33.929  41.289   8.564
 2035POPC   C2B28148  33.893  41.333   8.264
 2035POPC   C3B28149  33.850  41.329   7.964
 2035POPC   C4B28150  33.881  41.371   7.664
 2036POPC   NC328151  36.079  19.051   9.464
 2036POPC   PO428152  36.082  19.049   9.164
 2036POPC   GL128153  36.162  19.079   8.864
 2036POPC   GL228154  36.100  18.965   8.864
 2036POPC   C1A28155  36.085  19.029   8.564
 2036POPC   D2A28156  36.114  19.075   8.264
 2036POPC   C3A28157  36.127  19.061   7.964
 2036POPC   C4A28158  36.174  19.030   7.664
 2036POPC   C1B28159  36.086  18.809   8.564
 2036POPC   C2B28160  36.063  18.795   8.264
 2036POPC   C3B28161  36.042  18.861   7.964
 2036POPC   C4B28162  36.031  18.809   7.664
 2037POPC   NC328163   4.310  21.355   9.464
 2037POPC   PO428164   4.270  21.350   9.164
 2037POPC   GL128165   4.324  21.436   8.864
 2037POPC   GL228166   4.453  21.295   8.864
 2037POPC   C1A28167   4.336  21.415   8.564
 2037POPC   D2A28168   4.299  21.365   8.264
 2037POPC   C3A28169   4.348  21.385   7.964
 2037POPC   C4A28170   4.319  21.381   7.664
 2037POPC   C1B28171   4.456  21.186   8.564
 2037POPC   C2B28172   4.495  21.243   8.264
 2037POPC   C3B28173   4.471  21.166   7.964
 2037POPC   C4B28174   4.526  21.214   7.664
 2038POPC   NC328175  17.461   2.033   9.464
 2038POPC   PO428176  17.543   1.987   9.164
 2038POPC   GL128177  17.492   2.021   8.864
 2038POPC   GL228178  17.600   2.033   8.864
 2038POPC   C1A28179  17.530   1.957   8.564
 2038POPC   D2A28180  17.491   1.983   8.264
 2038POPC   C3A28181  17.470   2.033   7.964
 2038POPC   C4A28182  17.553   1.941   7.664
 2038POPC   C1B28183  17.697   2.141   8.564
 2038POPC   C2B28184  17.724   2.126   8.264
 2038POPC   C3B28185  17.667   2.156   7.964
 2038POPC   C4B28186  17.684   2.194   7.664
 2039POPC   NC328187   8.203  37.634   9.464
 2039POPC   PO428188   8.151  37.705   9.164
 2039POPC   GL128189   8.227  37.639   8.864
 2039POPC   GL228190   8.305  37.803   8.864
 2039POPC   C1A28191   8.202  37.715   8.564
 2039POPC   D2A28192   8.240  37.639   8.264
 2039POPC   C3A28193   8.187  37.649   7.964
 2039POPC   C4A28194   8.167  37.659   7.664
 2039POPC   C1B28195   8.417  37.874   8.564
 2039POPC   C2B28196   8.419  37.855   8.264
 2039POPC   C3B28197   8.439  37.876   7.964
 2039POPC   C4B28198   8.381  37.880   7.664
 2040POPC   NC328199   1.945  31.507   9.464
 2040POPC   PO428200   2.004  31.475   9.164
 2040POPC   GL128201   1.992  31.470   8.864
 2040POPC   GL228202   1.911  31.526   8.864
 2040POPC   C1A28203   1.998  31.454   8.564
 2040POPC   D2A28204   1.975  31.502   8.264
 2040POPC   C3A28205   1.972  31.425   7.964
 2040POPC   C4A28206   1.998  31.469   7.664
 2040POPC   C1B28207   1.790  31.627   8.564
 2040POPC   C2B28208   1.761  31.581   8.264
 2040POPC   C3B28209   1.830  31.622   7.964
 2040POPC   C4B28210   1.761  31.645   7.664
 2041POPC   NC328211  12.896  12.036   9.464
 2041POPC   PO428212  12.856  12.102   9.164
 2041POPC   GL128213  12.805  12.038   8.864
 2041POPC   GL228214  12.842  11.902   8.864
 2041POPC   C1A28215  12.821  12.032   8.564
 2041POPC   D2A28216  12.862  12.085   8.264
 2041POPC   C3A28217  12.853  12.123   7.964
 2041POPC   C4A28218  12.841  12.044   7.664
 2041POPC   C1B28219  12.920  11.815   8.564
 2041POPC   C2B28220  12.871  11.871   8.264
 2041POPC   C3B28221  12.893  11.854   7.964
 2041POPC   C4B28222  12.917  11.836   7.664
 2042POPC   NC328223  38.472  26.813   9.464
 2042POPC   PO428224  38.416  26.767   9.164
 2042POPC   GL128225  38.485  26.843   8.864
 2042POPC   GL228226  38.556  26.791   8.864
 2042POPC   C1A28227  38.417  26.779   8.564
 2042POPC   D2A28228  38.446  26.829   8.264
 2042POPC   C3A28229  38.441  26.863   7.964
 2042POPC   C4A28230  38.440  26.837   7.664
 2042POPC   C1B28231  38.679  26.806   8.564
 2042POPC   C2B28232  38.675  26.843   8.264
 2042POPC   C3B28233  38.707  26.775   7.964
 2042POPC   C4B28234  38.655  26.860   7.664
 2043POPC   NC328235  19.841  14.362   9.464
 2043POPC   PO428236  19.858  14.366   9.164
 2043POPC   GL128237  19.805  14.440   8.864
 2043POPC   GL228238  19.877  14.572   8.864
 2043POPC   C1A28239  19.860  14.378   8.564
 2043POPC   D2A28240  19.802  14.437   8.264
 2043POPC   C3A28241  19.840  14.393   7.964
 2043POPC   C4A28242  19.876  14.453   7.664
 2043POPC   C1B28243  19.934  14.676   8.564
 2043POPC   C2B28244  19.872  14.650   8.264
 2043POPC   C3B28245  19.953  14.617   7.964
 2043POPC   C4B28246  19.954  14.619   7.664
 2044POPC   NC328247  36.951  31.467   9.464
 2044POPC   PO428248  36.917  31.472   9.164
 2044POPC   GL128249  36.921  31.499   8.864
 2044POPC   GL228250  37.016  31.508   8.864
 2044POPC   C1A28251  36.932  31.484   8.564
 2044POPC   D2A28252  36.908  31.429   8.264
 2044POPC   C3A28253  36.860  31.482   7.964
 2044POPC   C4A28254  36.930  31.508   7.664
 2044POPC   C1B28255  37.173  31.589   8.564
 2044POPC   C2B28256  37.149  31.541   8.264
 2044POPC   C3B28257  37.111  31.577   7.964
 2044POPC   C4B28258  37.092  31.596   7.664
 2045POPC   NC328259  32.221   5.907   9.464
 2045POPC   PO428260  32.249   5.831   9.164
 2045POPC   GL128261  32.242   5.819   8.864
 2045POPC   GL228262  32.308   5.741   8.864
 2045POPC   C1A28263  32.238   5.890   8.564
 2045POPC   D2A28264  32.276   5.869   8.264
 2045POPC   C3A28265  32.243   5.857   7.964
 2045POPC   C4A28266  32.257   5.838   7.664
 2045POPC   C1B28267  32.325   5.605   8.564
 2045POPC   C2B28268  32.281   5.663   8.264
 2045POPC   C3B28269  32.275   5.583   7.964
 2045POPC   C4B28270  32.332   5.593   7.664
 2046POPC   NC328271   6.660  40.045   9.464
 2046POPC   PO428272   6.670  40.035   9.164
 2046POPC   GL128273   6.676  40.025   8.864
 2046POPC   GL228274   6.773  40.102   8.864
 2046POPC   C1A28275   6.626  40.046   8.564
 2046POPC   D2A28276   6.607  39.988   8.264
 2046POPC   C3A28277   6.627  39.959   7.964
 2046POPC   C4A28278   6.601  40.052   7.664
 2046POPC   C1B28279   6.809  40.143   8.564
 2046POPC   C2B28280   6.878  40.173   8.264
 2046POPC   C3B28281   6.886  40.142   7.964
 2046POPC   C4B28282   6.845  40.135   7.664
 2047POPC   NC328283  13.620   1.978   9.464
 2047POPC   PO428284  13.615   1.994   9.164
 2047POPC   GL128285  13.586   2.015   8.864
 2047POPC   GL228286  13.697   1.952   8.864
 2047POPC   C1A28287  13.585   2.022   8.564
 2047POPC   D2A28288  13.596   1.992   8.264
 2047POPC   C3A28289  13.656   2.037   7.964
 2047POPC   C4A28290  13.654   1.949   7.664
 2047POPC   C1B28291  13.790   1.845   8.564
 2047POPC   C2B28292  13.861   1.867   8.264
 2047POPC   C3B28293  13.864   1.876   7.964
 2047POPC   C4B28294  13.827   1.846   7.664
 2048POPC   NC328295   8.967   5.134   9.464
 2048POPC   PO428296   8.999   5.140   9.164
 2048POPC   GL128297   8.970   5.116   8.864
 2048POPC   GL228298   9.065   4.996   8.864
 2048POPC   C1A28299   8.939   5.104   8.564
 2048POPC   D2A28300   9.021   5.066   8.264
 2048POPC   C3A28301   8.982   5.047   7.964
 2048POPC   C4A28302   9.020   5.085   7.664
 2048POPC   C1B28303   9.112   4.921   8.564
 2048POPC   C2B28304   9.106   4.904   8.264
 2048POPC   C3B28305   9.146   4.917   7.964
 2048POPC   C4B28306   9.100   4.927   7.664
 2049POPC   NC328307  21.392  13.614   9.464
 2049POPC   PO428308  21.427  13.631   9.164
 2049POPC   GL128309  21.339  13.588   8.864
 2049POPC   GL228310  21.488  13.572   8.864
 2049POPC   C1A28311  21.353  13.648   8.564
 2049POPC   D2A28312  21.401  13.666   8.264
 2049POPC   C3A28313  21.402  13.677   7.964
 2049POPC   C4A28314  21.392  13.607   7.664
 2049POPC   C1B28315  21.629  13.563   8.564
 2049POPC   C2B28316  21.657  13.626   8.264
 2049POPC   C3B28317  21.662  13.592   7.964
 2049POPC   C4B28318  21.652  13.627   7.664
 2050POPC   NC328319  13.626  31.462   9.464
 2050POPC   PO428320  13.629  31.453   9.164
 2050POPC   GL128321  13.589  31.455   8.864
 2050POPC   GL228322  13.780  31.402   8.864
 2050POPC   C1A28323  13.585  31.475   8.564
 2050POPC   D2A28324  13.593  31.486   8.264
 2050POPC   C3A28325  13.646  31.428   7.964
 2050POPC   C4A28326  13.632  31.499   7.664
 2050POPC   C1B28327  13.840  31.451   8.564
 2050POPC   C2B28328  13.830  31.371   8.264
 2050POPC   C3B28329  13.841  31.377   7.964
 2050POPC   C4B28330  13.831  31.391   7.664
 2051POPC   NC328331  19.094   9.706   9.464
 2051POPC   PO428332  19.019   9.773   9.164
 2051POPC   GL128333  19.105   9.760   8.864
 2051POPC   GL228334  19.087   9.640   8.864
 2051POPC   C1A28335  19.105   9.777   8.564
 2051POPC   D2A28336  19.033   9.736   8.264
 2051POPC   C3A28337  19.065   9.748   7.964
 2051POPC   C4A28338  19.067   9.702   7.664
 2051POPC   C1B28339  19.070   9.476   8.564
 2051POPC   C2B28340  19.019   9.505   8.264
 2051POPC   C3B28341  19.052   9.518   7.964
 2051POPC   C4B28342  19.042   9.509   7.664
 2052POPC   NC328343   4.332  42.317   9.464
 2052POPC   PO428344   4.324  42.348   9.164
 2052POPC   GL128345   4.292  42.326   8.864
 2052POPC   GL228346   4.427  42.468   8.864
 2052POPC   C1A28347   4.305  42.297   8.564
 2052POPC   D2A28348   4.323  42.298   8.264
 2052POPC   C3A28349   4.285  42.361   7.964
 2052POPC   C4A28350   4.327  42.294   7.664
 2052POPC   C1B28351   4.515  42.552   8.564
 2052POPC   C2B28352   4.465  42.506   8.264
 2052POPC   C3B28353   4.477  42.501   7.964
 2052POPC   C4B28354   4.480  42.483   7.664
 2053POPC   NC328355  40.831  35.336   9.464
 2053POPC   PO428356  40.765  35.346   9.164
 2053POPC   GL128357  40.750  35.334   8.864
 2053POPC   GL228358  40.693  35.339   8.864
 2053POPC   C1A28359  40.810  35.378   8.564
 2053POPC   D2A28360  40.798  35.357   8.264
 2053POPC   C3A28361  40.831  35.401   7.964
 2053POPC   C4A28362  40.811  35.356   7.664
 2053POPC   C1B28363  40.535  35.259   8.564
 2053POPC   C2B28364  40.562  35.219   8.264
 2053POPC   C3B28365  40.611  35.186   7.964
 2053POPC   C4B28366  40.529  35.265   7.664
 2054POPC   NC328367  30.671  10.524   9.464
 2054POPC   PO428368  30.717  10.551   9.164
 2054POPC   GL128369  30.673  10.528   8.864
 2054POPC   GL228370  30.616  10.615   8.864
 2054POPC   C1A28371  30.698  10.512   8.564
 2054POPC   D2A28372  30.648  10.499   8.264
 2054POPC   C3A28373  30.668  10.484   7.964
 2054POPC   C4A28374  30.675  10.510   7.664
 2054POPC   C1B28375  30.498  10.619   8.564
 2054POPC   C2B28376  30.468  10.603   8.264
 2054POPC   C3B28377  30.498  10.604   7.964
 2054POPC   C4B28378  30.434  10.602   7.664
 2055POPC   NC328379  28.406   2.796   9.464
 2055POPC   PO428380  28.418   2.780   9.164
 2055POPC   GL128381  28.328   2.765   8.864
 2055POPC   GL228382  28.374   2.607   8.864
 2055POPC   C1A28383  28.408   2.740   8.564
 2055POPC   D2A28384  28.370   2.760   8.264
 2055POPC   C3A28385  28.389   2.727   7.964
 2055POPC   C4A28386  28.338   2.783   7.664
 2055POPC   C1B28387  28.357   2.499   8.564
 2055POPC   C2B28388  28.315   2.483   8.264
 2055POPC   C3B28389  28.306   2.472   7.964
 2055POPC   C4B28390  28.303   2.507   7.664
 2056POPC   NC328391  40.759  18.323   9.464
 2056POPC   PO428392  40.782  18.327   9.164
 2056POPC   GL128393  40.820  18.305   8.864
 2056POPC   GL228394  40.933  18.316   8.864
 2056POPC   C1A28395  40.757  18.254   8.564
 2056POPC   D2A28396  40.828  18.324   8.264
 2056POPC   C3A28397  40.831  18.267   7.964
 2056POPC   C4A28398  40.791  18.328   7.664
 2056POPC   C1B28399  40.960  18.405   8.564
 2056POPC   C2B28400  41.000  18.401   8.264
 2056POPC   C3B28401  40.965  18.475   7.964
 2056POPC   C4B28402  40.945  18.425   7.664
 2057POPC   NC328403  18.319  35.390   9.464
 2057POPC   PO428404  18.315  35.383   9.164
 2057POPC   GL128405  18.290  35.370   8.864
 2057POPC   GL228406  18.142  35.481   8.864
 2057POPC   C1A28407  18.244  35.305   8.564
 2057POPC   D2A28408  18.293  35.343   8.264
 2057POPC   C3A28409  18.251  35.356   7.964
 2057POPC   C4A28410  18.293  35.339   7.664
 2057POPC   C1B28411  18.069  35.519   8.564
 2057POPC   C2B28412  18.057  35.519   8.264
 2057POPC   C3B28413  18.131  35.554   7.964
 2057POPC   C4B28414  18.107  35.473   7.664
 2058POPC   NC328415  25.279  18.318   9.464
 2058POPC   PO428416  25.297  18.294   9.164
 2058POPC   GL128417  25.234  18.298   8.864
 2058POPC   GL228418  25.188  18.294   8.864
 2058POPC   C1A28419  25.223  18.312   8.564
 2058POPC   D2A28420  25.222  18.324   8.264
 2058POPC   C3A28421  25.220  18.248   7.964
 2058POPC   C4A28422  25.265  18.317   7.664
 2058POPC   C1B28423  25.041  18.266   8.564
 2058POPC   C2B28424  24.995  18.245   8.264
 2058POPC   C3B28425  24.994  18.235   7.964
 2058POPC   C4B28426  25.061  18.249   7.664
 2059POPC   NC328427  15.982  31.475   9.464
 2059POPC   PO428428  15.967  31.504   9.164
 2059POPC   GL128429  15.933  31.502   8.864
 2059POPC   GL228430  16.084  31.425   8.864
 2059POPC   C1A28431  15.999  31.429   8.564
 2059POPC   D2A28432  15.984  31.448   8.264
 2059POPC   C3A28433  15.928  31.440   7.964
 2059POPC   C4A28434  15.962  31.500   7.664
 2059POPC   C1B28435  16.087  31.288   8.564
 2059POPC   C2B28436  16.116  31.334   8.264
 2059POPC   C3B28437  16.125  31.243   7.964
 2059POPC   C4B28438  16.158  31.333   7.664
 2060POPC   NC328439  18.253   5.913   9.464
 2060POPC   PO428440  18.330   5.826   9.164
 2060POPC   GL128441  18.274   5.879   8.864
 2060POPC   GL228442  18.436   5.909   8.864
 2060POPC   C1A28443  18.299   5.851   8.564
 2060POPC   D2A28444  18.251   5.905   8.264
 2060POPC   C3A28445  18.317   5.903   7.964
 2060POPC   C4A28446  18.253   5.910   7.664
 2060POPC   C1B28447  18.575   5.889   8.564
 2060POPC   C2B28448  18.499   5.924   8.264
 2060POPC   C3B28449  18.573   5.905   7.964
 2060POPC   C4B28450  18.512   5.860   7.664
 2061POPC   NC328451  43.102   2.754   9.464
 2061POPC   PO428452  43.099   2.721   9.164
 2061POPC   GL128453  43.083   2.796   8.864
 2061POPC   GL228454  43.083   2.924   8.864
 2061POPC   C1A28455  43.125   2.754   8.564
 2061POPC   D2A28456  43.152   2.771   8.264
 2061POPC   C3A28457  43.075   2.796   7.964
 2061POPC   C4A28458  43.078   2.762   7.664
 2061POPC   C1B28459  43.029   3.018   8.564
 2061POPC   C2B28460  43.084   2.995   8.264
 2061POPC   C3B28461  43.068   2.984   7.964
 2061POPC   C4B28462  43.071   3.006   7.664
 2062POPC   NC328463  38.497  40.829   9.464
 2062POPC   PO428464  38.414  40.788   9.164
 2062POPC   GL128465  38.443  40.817   8.864
 2062POPC   GL228466  38.298  40.751   8.864
 2062POPC   C1A28467  38.451  40.734   8.564
 2062POPC   D2A28468  38.414  40.766   8.264
 2062POPC   C3A28469  38.486  40.780   7.964
 2062POPC   C4A28470  38.498  40.805   7.664
 2062POPC   C1B28471  38.236  40.757   8.564
 2062POPC   C2B28472  38.190  40.768   8.264
 2062POPC   C3B28473  38.169  40.775   7.964
 2062POPC   C4B28474  38.207  40.710   7.664
 2063POPC   NC328475   7.384  13.587   9.464
 2063POPC   PO428476   7.447  13.645   9.164
 2063POPC   GL128477   7.398  13.619   8.864
 2063POPC   GL228478   7.498  13.697   8.864
 2063POPC   C1A28479   7.414  13.591   8.564
 2063POPC   D2A28480   7.375  13.677   8.264
 2063POPC   C3A28481   7.418  13.665   7.964
 2063POPC   C4A28482   7.393  13.636   7.664
 2063POPC   C1B28483   7.693  13.712   8.564
 2063POPC   C2B28484   7.641  13.701   8.264
 2063POPC   C3B28485   7.611  13.742   7.964
 2063POPC   C4B28486   7.610  13.695   7.664
 2064POPC   NC328487  27.578  23.723   9.464
 2064POPC   PO428488  27.615  23.665   9.164
 2064POPC   GL128489  27.586  23.753   8.864
 2064POPC   GL228490  27.676  23.703   8.864
 2064POPC   C1A28491  27.581  23.756   8.564
 2064POPC   D2A28492  27.594  23.716   8.264
 2064POPC   C3A28493  27.578  23.745   7.964
 2064POPC   C4A28494  27.594  23.715   7.664
 2064POPC   C1B28495  27.886  23.722   8.564
 2064POPC   C2B28496  27.787  23.754   8.264
 2064POPC   C3B28497  27.850  23.763   7.964
 2064POPC   C4B28498  27.793  23.724   7.664
 2065POPC   NC328499  32.277  26.815   9.464
 2065POPC   PO428500  32.222  26.831   9.164
 2065POPC   GL128501  32.296  26.819   8.864
 2065POPC   GL228502  32.335  26.794   8.864
 2065POPC   C1A28503  32.270  26.824   8.564
 2065POPC   D2A28504  32.201  26.848   8.264
 2065POPC   C3A28505  32.250  26.811   7.964
 2065POPC   C4A28506  32.250  26.819   7.664
 2065POPC   C1B28507  32.485  26.785   8.564
 2065POPC   C2B28508  32.511  26.754   8.264
 2065POPC   C3B28509  32.455  26.809   7.964
 2065POPC   C4B28510  32.466  26.740   7.664
 2066POPC   NC328511  14.385  22.142   9.464
 2066POPC   PO428512  14.381  22.149   9.164
 2066POPC   GL128513  14.401  22.147   8.864
 2066POPC   GL228514  14.432  22.008   8.864
 2066POPC   C1A28515  14.435  22.138   8.564
 2066POPC   D2A28516  14.449  22.146   8.264
 2066POPC   C3A28517  14.382  22.157   7.964
 2066POPC   C4A28518  14.397  22.191   7.664
 2066POPC   C1B28519  14.491  21.907   8.564
 2066POPC   C2B28520  14.444  21.895   8.264
 2066POPC   C3B28521  14.488  21.944   7.964
 2066POPC   C4B28522  14.445  21.944   7.664
 2067POPC   NC328523  12.085  22.180   9.464
 2067POPC   PO428524  12.114  22.139   9.164
 2067POPC   GL128525  12.109  22.188   8.864
 2067POPC   GL228526  12.173  22.168   8.864
 2067POPC   C1A28527  12.041  22.211   8.564
 2067POPC   D2A28528  12.036  22.192   8.264
 2067POPC   C3A28529  12.081  22.120   7.964
 2067POPC   C4A28530  12.063  22.123   7.664
 2067POPC   C1B28531  12.320  22.108   8.564
 2067POPC   C2B28532  12.348  22.103   8.264
 2067POPC   C3B28533  12.359  22.077   7.964
 2067POPC   C4B28534  12.280  22.139   7.664
 2068POPC   NC328535  41.538  24.474   9.464
 2068POPC   PO428536  41.587  24.477   9.164
 2068POPC   GL128537  41.579  24.452   8.864
 2068POPC   GL228538  41.695  24.454   8.864
 2068POPC   C1A28539  41.591  24.496   8.564
 2068POPC   D2A28540  41.604  24.445   8.264
 2068POPC   C3A28541  41.594  24.483   7.964
 2068POPC   C4A28542  41.515  24.462   7.664
 2068POPC   C1B28543  41.738  24.366   8.564
 2068POPC   C2B28544  41.782  24.348   8.264
 2068POPC   C3B28545  41.736  24.424   7.964
 2068POPC   C4B28546  41.816  24.376   7.664
 2069POPC   NC328547  13.628  18.296   9.464
 2069POPC   PO428548  13.601  18.283   9.164
 2069POPC   GL128549  13.595  18.251   8.864
 2069POPC   GL228550  13.554  18.331   8.864
 2069POPC   C1A28551  13.660  18.262   8.564
 2069POPC   D2A28552  13.666  18.255   8.264
 2069POPC   C3A28553  13.592  18.321   7.964
 2069POPC   C4A28554  13.583  18.269   7.664
 2069POPC   C1B28555  13.410  18.421   8.564
 2069POPC   C2B28556  13.412  18.396   8.264
 2069POPC   C3B28557  13.431  18.427   7.964
 2069POPC   C4B28558  13.435  18.439   7.664
 2070POPC   NC328559  25.268   8.179   9.464
 2070POPC   PO428560  25.294   8.188   9.164
 2070POPC   GL128561  25.228   8.216   8.864
 2070POPC   GL228562  25.356   8.103   8.864
 2070POPC   C1A28563  25.255   8.227   8.564
 2070POPC   D2A28564  25.309   8.158   8.264
 2070POPC   C3A28565  25.289   8.242   7.964
 2070POPC   C4A28566  25.274   8.226   7.664
 2070POPC   C1B28567  25.376   7.992   8.564
 2070POPC   C2B28568  25.385   8.036   8.264
 2070POPC   C3B28569  25.396   7.967   7.964
 2070POPC   C4B28570  25.378   8.023   7.664
 2071POPC   NC328571  10.491  30.701   9.464
 2071POPC   PO428572  10.482  30.740   9.164
 2071POPC   GL128573  10.491  30.704   8.864
 2071POPC   GL228574  10.616  30.836   8.864
 2071POPC   C1A28575  10.557  30.651   8.564
 2071POPC   D2A28576  10.502  30.737   8.264
 2071POPC   C3A28577  10.496  30.735   7.964
 2071POPC   C4A28578  10.564  30.717   7.664
 2071POPC   C1B28579  10.683  30.845   8.564
 2071POPC   C2B28580  10.715  30.858   8.264
 2071POPC   C3B28581  10.652  30.885   7.964
 2071POPC   C4B28582  10.704  30.846   7.664
 2072POPC   NC328583  22.983  43.121   9.464
 2072POPC   PO428584  22.942  43.151   9.164
 2072POPC   GL128585  22.938  43.085   8.864
 2072POPC   GL228586  22.920  43.269   8.864
 2072POPC   C1A28587  22.962  43.115   8.564
 2072POPC   D2A28588  22.888  43.067   8.264
 2072POPC   C3A28589  22.897  43.113   7.964
 2072POPC   C4A28590  22.946  43.141   7.664
 2072POPC   C1B28591  22.837  43.345   8.564
 2072POPC   C2B28592  22.878  43.355   8.264
 2072POPC   C3B28593  22.872  43.354   7.964
 2072POPC   C4B28594  22.803  43.379   7.664
 2073POPC   NC328595  30.713   2.719   9.464
 2073POPC   PO428596  30.724   2.761   9.164
 2073POPC   GL128597  30.671   2.722   8.864
 2073POPC   GL228598  30.714   2.843   8.864
 2073POPC   C1A28599  30.745   2.722   8.564
 2073POPC   D2A28600  30.680   2.730   8.264
 2073POPC   C3A28601  30.651   2.770   7.964
 2073POPC   C4A28602  30.724   2.760   7.664
 2073POPC   C1B28603  30.802   2.944   8.564
 2073POPC   C2B28604  30.834   3.010   8.264
 2073POPC   C3B28605  30.841   2.949   7.964
 2073POPC   C4B28606  30.837   3.018   7.664
 2074POPC   NC328607   2.029  18.293   9.464
 2074POPC   PO428608   1.969  18.307   9.164
 2074POPC   GL128609   1.952  18.329   8.864
 2074POPC   GL228610   1.931  18.195   8.864
 2074POPC   C1A28611   2.002  18.301   8.564
 2074POPC   D2A28612   1.947  18.261   8.264
 2074POPC   C3A28613   1.953  18.331   7.964
 2074POPC   C4A28614   2.021  18.249   7.664
 2074POPC   C1B28615   1.889  18.070   8.564
 2074POPC   C2B28616   1.956  18.071   8.264
 2074POPC   C3B28617   1.925  17.999   7.964
 2074POPC   C4B28618   1.937  17.998   7.664
 2075POPC   NC328619  26.027   8.973   9.464
 2075POPC   PO428620  25.994   9.009   9.164
 2075POPC   GL128621  26.077   8.989   8.864
 2075POPC   GL228622  26.045   8.845   8.864
 2075POPC   C1A28623  26.031   8.985   8.564
 2075POPC   D2A28624  26.035   8.924   8.264
 2075POPC   C3A28625  26.088   9.012   7.964
 2075POPC   C4A28626  26.020   8.978   7.664
 2075POPC   C1B28627  26.015   8.691   8.564
 2075POPC   C2B28628  26.083   8.729   8.264
 2075POPC   C3B28629  26.021   8.735   7.964
 2075POPC   C4B28630  26.039   8.728   7.664
 2076POPC   NC328631  41.604   0.393   9.464
 2076POPC   PO428632  41.513   0.486   9.164
 2076POPC   GL128633  41.578   0.409   8.864
 2076POPC   GL228634  41.576   0.606   8.864
 2076POPC   C1A28635  41.564   0.401   8.564
 2076POPC   D2A28636  41.585   0.418   8.264
 2076POPC   C3A28637  41.608   0.472   7.964
 2076POPC   C4A28638  41.575   0.452   7.664
 2076POPC   C1B28639  41.578   0.638   8.564
 2076POPC   C2B28640  41.609   0.698   8.264
 2076POPC   C3B28641  41.619   0.719   7.964
 2076POPC   C4B28642  41.610   0.641   7.664
 2077POPC   NC328643  40.012  25.993   9.464
 2077POPC   PO428644  40.039  26.046   9.164
 2077POPC   GL128645  39.983  26.087   8.864
 2077POPC   GL228646  39.919  26.059   8.864
 2077POPC   C1A28647  40.002  26.089   8.564
 2077POPC   D2A28648  40.034  26.011   8.264
 2077POPC   C3A28649  39.960  26.052   7.964
 2077POPC   C4A28650  39.982  26.050   7.664
 2077POPC   C1B28651  39.743  26.206   8.564
 2077POPC   C2B28652  39.831  26.185   8.264
 2077POPC   C3B28653  39.747  26.140   7.964
 2077POPC   C4B28654  39.821  26.142   7.664
 2078POPC   NC328655  18.290  21.351   9.464
 2078POPC   PO428656  18.296  21.403   9.164
 2078POPC   GL128657  18.245  21.429   8.864
 2078POPC   GL228658  18.366  21.248   8.864
 2078POPC   C1A28659  18.284  21.413   8.564
 2078POPC   D2A28660  18.261  21.346   8.264
 2078POPC   C3A28661  18.311  21.421   7.964
 2078POPC   C4A28662  18.282  21.405   7.664
 2078POPC   C1B28663  18.373  21.204   8.564
 2078POPC   C2B28664  18.392  21.143   8.264
 2078POPC   C3B28665  18.384  21.189   7.964
 2078POPC   C4B28666  18.409  21.160   7.664
 2079POPC   NC328667  13.587  10.488   9.464
 2079POPC   PO428668  13.630  10.541   9.164
 2079POPC   GL128669  13.671  10.508   8.864
 2079POPC   GL228670  13.651  10.432   8.864
 2079POPC   C1A28671  13.624  10.534   8.564
 2079POPC   D2A28672  13.604  10.477   8.264
 2079POPC   C3A28673  13.666  10.493   7.964
 2079POPC   C4A28674  13.634  10.523   7.664
 2079POPC   C1B28675  13.611  10.234   8.564
 2079POPC   C2B28676  13.609  10.287   8.264
 2079POPC   C3B28677  13.660  10.289   7.964
 2079POPC   C4B28678  13.615  10.292   7.664
 2080POPC   NC328679  13.652  13.578   9.464
 2080POPC   PO428680  13.658  13.667   9.164
 2080POPC   GL128681  13.619  13.639   8.864
 2080POPC   GL228682  13.725  13.542   8.864
 2080POPC   C1A28683  13.584  13.661   8.564
 2080POPC   D2A28684  13.648  13.592   8.264
 2080POPC   C3A28685  13.660  13.628   7.964
 2080POPC   C4A28686  13.605  13.615   7.664
 2080POPC   C1B28687  13.822  13.475   8.564
 2080POPC   C2B28688  13.766  13.469   8.264
 2080POPC   C3B28689  13.739  13.468   7.964
 2080POPC   C4B28690  13.747  13.404   7.664
 2081POPC   NC328691   8.234  25.217   9.464
 2081POPC   PO428692   8.182  25.304   9.164
 2081POPC   GL128693   8.186  25.264   8.864
 2081POPC   GL228694   8.292  25.165   8.864
 2081POPC   C1A28695   8.188  25.235   8.564
 2081POPC   D2A28696   8.245  25.303   8.264
 2081POPC   C3A28697   8.206  25.232   7.964
 2081POPC   C4A28698   8.180  25.244   7.664
 2081POPC   C1B28699   8.391  25.152   8.564
 2081POPC   C2B28700   8.427  25.180   8.264
 2081POPC   C3B28701   8.418  25.170   7.964
 2081POPC   C4B28702   8.368  25.138   7.664
 2082POPC   NC328703   0.450  20.618   9.464
 2082POPC   PO428704   0.426  20.637   9.164
 2082POPC   GL128705   0.443  20.632   8.864
 2082POPC   GL228706   0.322  20.501   8.864
 2082POPC   C1A28707   0.434  20.659   8.564
 2082POPC   D2A28708   0.450  20.622   8.264
 2082POPC   C3A28709   0.486  20.601   7.964
 2082POPC   C4A28710   0.437  20.642   7.664
 2082POPC   C1B28711   0.294  20.386   8.564
 2082POPC   C2B28712   0.271  20.391   8.264
 2082POPC   C3B28713   0.257  20.431   7.964
 2082POPC   C4B28714   0.279  20.432   7.664
 2083POPC   NC328715  18.294  19.011   9.464
 2083POPC   PO428716  18.250  19.108   9.164
 2083POPC   GL128717  18.316  19.060   8.864
 2083POPC   GL228718  18.347  18.999   8.864
 2083POPC   C1A28719  18.297  19.082   8.564
 2083POPC   D2A28720  18.296  19.071   8.264
 2083POPC   C3A28721  18.235  19.093   7.964
 2083POPC   C4A28722  18.325  19.065   7.664
 2083POPC   C1B28723  18.429  18.861   8.564
 2083POPC   C2B28724  18.462  18.822   8.264
 2083POPC   C3B28725  18.444  18.902   7.964
 2083POPC   C4B28726  18.396  18.887   7.664
 2084POPC   NC328727  23.732  35.324   9.464
 2084POPC   PO428728  23.680  35.373   9.164
 2084POPC   GL128729  23.672  35.378   8.864
 2084POPC   GL228730  23.578  35.341   8.864
 2084POPC   C1A28731  23.745  35.401   8.564
 2084POPC   D2A28732  23.727  35.366   8.264
 2084POPC   C3A28733  23.733  35.332   7.964
 2084POPC   C4A28734  23.681  35.303   7.664
 2084POPC   C1B28735  23.478  35.436   8.564
 2084POPC   C2B28736  23.460  35.453   8.264
 2084POPC   C3B28737  23.474  35.424   7.964
 2084POPC   C4B28738  23.510  35.400   7.664
 2085POPC   NC328739  26.791  33.067   9.464
 2085POPC   PO428740  26.826  33.002   9.164
 2085POPC   GL128741  26.851  33.050   8.864
 2085POPC   GL228742  26.803  33.108   8.864
 2085POPC   C1A28743  26.814  32.999   8.564
 2085POPC   D2A28744  26.858  33.023   8.264
 2085POPC   C3A28745  26.805  33.063   7.964
 2085POPC   C4A28746  26.858  33.053   7.664
 2085POPC   C1B28747  26.868  33.260   8.564
 2085POPC   C2B28748  26.794  33.246   8.264
 2085POPC   C3B28749  26.878  33.243   7.964
 2085POPC   C4B28750  26.813  33.247   7.664
 2086POPC   NC328751  12.037  33.064   9.464
 2086POPC   PO428752  12.078  33.027   9.164
 2086POPC   GL128753  12.082  32.992   8.864
 2086POPC   GL228754  12.175  33.120   8.864
 2086POPC   C1A28755  12.068  33.014   8.564
 2086POPC   D2A28756  12.032  33.009   8.264
 2086POPC   C3A28757  12.074  33.008   7.964
 2086POPC   C4A28758  12.072  33.025   7.664
 2086POPC   C1B28759  12.247  33.258   8.564
 2086POPC   C2B28760  12.200  33.231   8.264
 2086POPC   C3B28761  12.243  33.282   7.964
 2086POPC   C4B28762  12.255  33.274   7.664
 2087POPC   NC328763  32.263  15.168   9.464
 2087POPC   PO428764  32.269  15.190   9.164
 2087POPC   GL128765  32.284  15.198   8.864
 2087POPC   GL228766  32.315  15.203   8.864
 2087POPC   C1A28767  32.243  15.160   8.564
 2087POPC   D2A28768  32.230  15.133   8.264
 2087POPC   C3A28769  32.291  15.179   7.964
 2087POPC   C4A28770  32.273  15.140   7.664
 2087POPC   C1B28771  32.468  15.325   8.564
 2087POPC   C2B28772  32.517  15.255   8.264
 2087POPC   C3B28773  32.457  15.329   7.964
 2087POPC   C4B28774  32.510  15.288   7.664
 2088POPC   NC328775  43.125   2.003   9.464
 2088POPC   PO428776  43.093   1.992   9.164
 2088POPC   GL128777  43.150   1.950   8.864
 2088POPC   GL228778  43.192   2.064   8.864
 2088POPC   C1A28779  43.095   2.008   8.564
 2088POPC   D2A28780  43.099   2.004   8.264
 2088POPC   C3A28781  43.083   1.975   7.964
 2088POPC   C4A28782  43.100   1.980   7.664
 2088POPC   C1B28783  43.206   2.216   8.564
 2088POPC   C2B28784  43.215   2.178   8.264
 2088POPC   C3B28785  43.199   2.229   7.964
 2088POPC   C4B28786  43.195   2.223   7.664
 2089POPC   NC328787  13.587  16.765   9.464
 2089POPC   PO428788  13.602  16.710   9.164
 2089POPC   GL128789  13.602  16.688   8.864
 2089POPC   GL228790  13.681  16.786   8.864
 2089POPC   C1A28791  13.626  16.762   8.564
 2089POPC   D2A28792  13.645  16.718   8.264
 2089POPC   C3A28793  13.608  16.771   7.964
 2089POPC   C4A28794  13.592  16.693   7.664
 2089POPC   C1B28795  13.800  16.897   8.564
 2089POPC   C2B28796  13.751  16.914   8.264
 2089POPC   C3B28797  13.783  16.927   7.964
 2089POPC   C4B28798  13.742  16.932   7.664
 2090POPC   NC328799  26.036  12.084   9.464
 2090POPC   PO428800  26.029  12.079   9.164
 2090POPC   GL128801  26.053  12.029   8.864
 2090POPC   GL228802  26.081  12.160   8.864
 2090POPC   C1A28803  26.035  12.082   8.564
 2090POPC   D2A28804  26.068  12.049   8.264
 2090POPC   C3A28805  26.024  12.098   7.964
 2090POPC   C4A28806  26.054  12.088   7.664
 2090POPC   C1B28807  26.073  12.294   8.564
 2090POPC   C2B28808  26.039  12.314   8.264
 2090POPC   C3B28809  26.077  12.288   7.964
 2090POPC   C4B28810  25.999  12.315   7.664
 2091POPC   NC328811  29.164   0.455   9.464
 2091POPC   PO428812  29.098   0.412   9.164
 2091POPC   GL128813  29.151   0.437   8.864
 2091POPC   GL228814  29.285   0.440   8.864
 2091POPC   C1A28815  29.174   0.473   8.564
 2091POPC   D2A28816  29.153   0.474   8.264
 2091POPC   C3A28817  29.194   0.464   7.964
 2091POPC   C4A28818  29.124   0.460   7.664
 2091POPC   C1B28819  29.388   0.467   8.564
 2091POPC   C2B28820  29.408   0.444   8.264
 2091POPC   C3B28821  29.434   0.382   7.964
 2091POPC   C4B28822  29.419   0.425   7.664
 2092POPC   NC328823  12.825   5.118   9.464
 2092POPC   PO428824  12.832   5.077   9.164
 2092POPC   GL128825  12.849   5.047   8.864
 2092POPC   GL228826  12.833   5.019   8.864
 2092POPC   C1A28827  12.835   5.053   8.564
 2092POPC   D2A28828  12.866   5.130   8.264
 2092POPC   C3A28829  12.850   5.122   7.964
 2092POPC   C4A28830  12.825   5.082   7.664
 2092POPC   C1B28831  12.765   4.864   8.564
 2092POPC   C2B28832  12.854   4.837   8.264
 2092POPC   C3B28833  12.846   4.826   7.964
 2092POPC   C4B28834  12.842   4.837   7.664
 2093POPC   NC328835  30.698  33.071   9.464
 2093POPC   PO428836  30.685  33.045   9.164
 2093POPC   GL128837  30.708  33.074   8.864
 2093POPC   GL228838  30.599  33.103   8.864
 2093POPC   C1A28839  30.666  33.051   8.564
 2093POPC   D2A28840  30.730  33.073   8.264
 2093POPC   C3A28841  30.726  33.015   7.964
 2093POPC   C4A28842  30.730  33.004   7.664
 2093POPC   C1B28843  30.466  33.101   8.564
 2093POPC   C2B28844  30.515  33.124   8.264
 2093POPC   C3B28845  30.485  33.159   7.964
 2093POPC   C4B28846  30.499  33.154   7.664
 2094POPC   NC328847  17.522  39.958   9.464
 2094POPC   PO428848  17.529  40.007   9.164
 2094POPC   GL128849  17.515  39.985   8.864
 2094POPC   GL228850  17.394  39.963   8.864
 2094POPC   C1A28851  17.556  40.037   8.564
 2094POPC   D2A28852  17.460  39.982   8.264
 2094POPC   C3A28853  17.547  40.056   7.964
 2094POPC   C4A28854  17.519  39.958   7.664
 2094POPC   C1B28855  17.230  39.954   8.564
 2094POPC   C2B28856  17.260  39.970   8.264
 2094POPC   C3B28857  17.278  39.957   7.964
 2094POPC   C4B28858  17.288  39.922   7.664
 2095POPC   NC328859  19.031  20.598   9.464
 2095POPC   PO428860  19.033  20.623   9.164
 2095POPC   GL128861  19.060  20.615   8.864
 2095POPC   GL228862  18.971  20.606   8.864
 2095POPC   C1A28863  19.021  20.608   8.564
 2095POPC   D2A28864  19.092  20.624   8.264
 2095POPC   C3A28865  19.091  20.570   7.964
 2095POPC   C4A28866  19.014  20.621   7.664
 2095POPC   C1B28867  18.842  20.677   8.564
 2095POPC   C2B28868  18.796  20.680   8.264
 2095POPC   C3B28869  18.848  20.626   7.964
 2095POPC   C4B28870  18.813  20.673   7.664
 2096POPC   NC328871   7.466   0.423   9.464
 2096POPC   PO428872   7.451   0.476   9.164
 2096POPC   GL128873   7.441   0.467   8.864
 2096POPC   GL228874   7.328   0.435   8.864
 2096POPC   C1A28875   7.431   0.431   8.564
 2096POPC   D2A28876   7.382   0.408   8.264
 2096POPC   C3A28877   7.377   0.419   7.964
 2096POPC   C4A28878   7.415   0.421   7.664
 2096POPC   C1B28879   7.232   0.338   8.564
 2096POPC   C2B28880   7.166   0.324   8.264
 2096POPC   C3B28881   7.160   0.388   7.964
 2096POPC   C4B28882   7.187   0.315   7.664
 2097POPC   NC328883  10.547   2.770   9.464
 2097POPC   PO428884  10.520   2.789   9.164
 2097POPC   GL128885  10.513   2.814   8.864
 2097POPC   GL228886  10.393   2.706   8.864
 2097POPC   C1A28887  10.551   2.750   8.564
 2097POPC   D2A28888  10.553   2.770   8.264
 2097POPC   C3A28889  10.526   2.783   7.964
 2097POPC   C4A28890  10.542   2.727   7.664
 2097POPC   C1B28891  10.258   2.685   8.564
 2097POPC   C2B28892  10.335   2.639   8.264
 2097POPC   C3B28893  10.333   2.668   7.964
 2097POPC   C4B28894  10.322   2.650   7.664
 2098POPC   NC328895  30.656  42.341   9.464
 2098POPC   PO428896  30.726  42.350   9.164
 2098POPC   GL128897  30.666  42.335   8.864
 2098POPC   GL228898  30.576  42.322   8.864
 2098POPC   C1A28899  30.724  42.358   8.564
 2098POPC   D2A28900  30.694  42.337   8.264
 2098POPC   C3A28901  30.727  42.310   7.964
 2098POPC   C4A28902  30.651  42.324   7.664
 2098POPC   C1B28903  30.460  42.214   8.564
 2098POPC   C2B28904  30.512  42.237   8.264
 2098POPC   C3B28905  30.430  42.216   7.964
 2098POPC   C4B28906  30.512  42.265   7.664
 2099POPC   NC328907  43.906   2.813   9.464
 2099POPC   PO428908  43.876   2.772   9.164
 2099POPC   GL128909  43.922   2.723   8.864
 2099POPC   GL228910  43.957   2.830   8.864
 2099POPC   C1A28911  43.896   2.738   8.564
 2099POPC   D2A28912  43.856   2.735   8.264
 2099POPC   C3A28913  43.932   2.744   7.964
 2099POPC   C4A28914  43.854   2.762   7.664
 2099POPC   C1B28915  44.004   2.986   8.564
 2099POPC   C2B28916  44.028   3.009   8.264
 2099POPC   C3B28917  44.031   3.003   7.964
 2099POPC   C4B28918  43.987   3.020   7.664
 2100POPC   NC328919  15.177  26.041   9.464
 2100POPC   PO428920  15.210  26.001   9.164
 2100POPC   GL128921  15.154  26.018   8.864
 2100POPC   GL228922  15.105  25.916   8.864
 2100POPC   C1A28923  15.152  26.059   8.564
 2100POPC   D2A28924  15.177  26.086   8.264
 2100POPC   C3A28925  15.162  26.088   7.964
 2100POPC   C4A28926  15.221  26.020   7.664
 2100POPC   C1B28927  15.043  25.807   8.564
 2100POPC   C2B28928  15.115  25.855   8.264
 2100POPC   C3B28929  15.094  25.793   7.964
 2100POPC   C4B28930  15.090  25.811   7.664
 2101POPC   NC328931  29.102   9.761   9.464
 2101POPC   PO428932  29.189   9.763   9.164
 2101POPC   GL128933  29.192   9.707   8.864
 2101POPC   GL228934  29.035   9.707   8.864
 2101POPC   C1A28935  29.137   9.752   8.564
 2101POPC   D2A28936  29.180   9.793   8.264
 2101POPC   C3A28937  29.142   9.734   7.964
 2101POPC   C4A28938  29.177   9.724   7.664
 2101POPC   C1B28939  28.988   9.590   8.564
 2101POPC   C2B28940  28.976   9.547   8.264
 2101POPC   C3B28941  28.948   9.636   7.964
 2101POPC   C4B28942  28.942   9.582   7.664
 2102POPC   NC328943  36.861  17.481   9.464
 2102POPC   PO428944  36.913  17.490   9.164
 2102POPC   GL128945  36.919  17.548   8.864
 2102POPC   GL228946  36.816  17.602   8.864
 2102POPC   C1A28947  36.920  17.462   8.564
 2102POPC   D2A28948  36.907  17.503   8.264
 2102POPC   C3A28949  36.890  17.524   7.964
 2102POPC   C4A28950  36.909  17.507   7.664
 2102POPC   C1B28951  36.677  17.585   8.564
 2102POPC   C2B28952  36.689  17.595   8.264
 2102POPC   C3B28953  36.648  17.611   7.964
 2102POPC   C4B28954  36.684  17.564   7.664
 2103POPC   NC328955   9.770  40.008   9.464
 2103POPC   PO428956   9.711  39.993   9.164
 2103POPC   GL128957   9.724  39.992   8.864
 2103POPC   GL228958   9.859  40.121   8.864
 2103POPC   C1A28959   9.721  39.996   8.564
 2103POPC   D2A28960   9.752  40.050   8.264
 2103POPC   C3A28961   9.754  40.004   7.964
 2103POPC   C4A28962   9.725  40.044   7.664
 2103POPC   C1B28963   9.880  40.193   8.564
 2103POPC   C2B28964   9.914  40.209   8.264
 2103POPC   C3B28965   9.932  40.230   7.964
 2103POPC   C4B28966   9.956  40.237   7.664
 2104POPC   NC328967   5.124   5.128   9.464
 2104POPC   PO428968   5.094   5.088   9.164
 2104POPC   GL128969   5.082   5.047   8.864
 2104POPC   GL228970   4.963   4.965   8.864
 2104POPC   C1A28971   5.106   5.050   8.564
 2104POPC   D2A28972   5.089   5.056   8.264
 2104POPC   C3A28973   5.111   5.082   7.964
 2104POPC   C4A28974   5.075   5.073   7.664
 2104POPC   C1B28975   4.910   4.898   8.564
 2104POPC   C2B28976   4.956   4.894   8.264
 2104POPC   C3B28977   4.917   4.856   7.964
 2104POPC   C4B28978   4.889   4.916   7.664
 2105POPC   NC328979   5.826  22.972   9.464
 2105POPC   PO428980   5.848  22.921   9.164
 2105POPC   GL128981   5.875  22.965   8.864
 2105POPC   GL228982   6.027  22.846   8.864
 2105POPC   C1A28983   5.866  22.932   8.564
 2105POPC   D2A28984   5.913  22.958   8.264
 2105POPC   C3A28985   5.878  22.932   7.964
 2105POPC   C4A28986   5.916  22.974   7.664
 2105POPC   C1B28987   6.116  22.815   8.564
 2105POPC   C2B28988   6.079  22.823   8.264
 2105POPC   C3B28989   6.115  22.875   7.964
 2105POPC   C4B28990   6.116  22.867   7.664
 2106POPC   NC328991  15.166  39.239   9.464
 2106POPC   PO428992  15.169  39.198   9.164
 2106POPC   GL128993  15.167  39.276   8.864
 2106POPC   GL228994  15.271  39.177   8.864
 2106POPC   C1A28995  15.180  39.256   8.564
 2106POPC   D2A28996  15.181  39.182   8.264
 2106POPC   C3A28997  15.226  39.275   7.964
 2106POPC   C4A28998  15.149  39.254   7.664
 2106POPC   C1B28999  15.419  39.100   8.564
 2106POPC   C2B29000  15.405  39.089   8.264
 2106POPC   C3B29001  15.369  39.170   7.964
 2106POPC   C4B29002  15.410  39.126   7.664
 2107POPC   NC329003   9.021  22.121   9.464
 2107POPC   PO429004   9.016  22.164   9.164
 2107POPC   GL129005   8.979  22.154   8.864
 2107POPC   GL229006   8.926  22.305   8.864
 2107POPC   C1A29007   8.982  22.162   8.564
 2107POPC   D2A29008   9.001  22.206   8.264
 2107POPC   C3A29009   8.930  22.147   7.964
 2107POPC   C4A29010   8.955  22.117   7.664
 2107POPC   C1B29011   8.937  22.355   8.564
 2107POPC   C2B29012   8.887  22.419   8.264
 2107POPC   C3B29013   8.937  22.411   7.964
 2107POPC   C4B29014   8.950  22.359   7.664
 2108POPC   NC329015  26.023   1.178   9.464
 2108POPC   PO429016  26.025   1.228   9.164
 2108POPC   GL129017  26.026   1.167   8.864
 2108POPC   GL229018  25.923   1.157   8.864
 2108POPC   C1A29019  26.025   1.220   8.564
 2108POPC   D2A29020  26.024   1.221   8.264
 2108POPC   C3A29021  26.079   1.175   7.964
 2108POPC   C4A29022  26.058   1.194   7.664
 2108POPC   C1B29023  25.935   0.985   8.564
 2108POPC   C2B29024  25.929   0.974   8.264
 2108POPC   C3B29025  25.923   0.969   7.964
 2108POPC   C4B29026  25.875   0.967   7.664
 2109POPC   NC329027  14.422  30.696   9.464
 2109POPC   PO429028  14.415  30.688   9.164
 2109POPC   GL129029  14.394  30.713   8.864
 2109POPC   GL229030  14.456  30.781   8.864
 2109POPC   C1A29031  14.451  30.709   8.564
 2109POPC   D2A29032  14.439  30.730   8.264
 2109POPC   C3A29033  14.374  30.703   7.964
 2109POPC   C4A29034  14.434  30.667   7.664
 2109POPC   C1B29035  14.554  30.879   8.564
 2109POPC   C2B29036  14.574  30.885   8.264
 2109POPC   C3B29037  14.645  30.807   7.964
 2109POPC   C4B29038  14.582  30.833   7.664
 2110POPC   NC329039  13.590   9.716   9.464
 2110POPC   PO429040  13.643   9.749   9.164
 2110POPC   GL129041  13.598   9.730   8.864
 2110POPC   GL229042  13.482   9.745   8.864
 2110POPC   C1A29043  13.610   9.722   8.564
 2110POPC   D2A29044  13.669   9.777   8.264
 2110POPC   C3A29045  13.620   9.798   7.964
 2110POPC   C4A29046  13.590   9.742   7.664
 2110POPC   C1B29047  13.414   9.663   8.564
 2110POPC   C2B29048  13.422   9.688   8.264
 2110POPC   C3B29049  13.343   9.691   7.964
 2110POPC   C4B29050  13.348   9.701   7.664
 2111POPC   NC329051  29.922   5.890   9.464
 2111POPC   PO429052  29.964   5.872   9.164
 2111POPC   GL129053  29.878   5.831   8.864
 2111POPC   GL229054  29.911   5.726   8.864
 2111POPC   C1A29055  29.883   5.865   8.564
 2111POPC   D2A29056  29.884   5.888   8.264
 2111POPC   C3A29057  29.923   5.858   7.964
 2111POPC   C4A29058  29.937   5.912   7.664
 2111POPC   C1B29059  29.777   5.630   8.564
 2111POPC   C2B29060  29.849   5.603   8.264
 2111POPC   C3B29061  29.772   5.627   7.964
 2111POPC   C4B29062  29.843   5.618   7.664
 2112POPC   NC329063  12.086  20.641   9.464
 2112POPC   PO429064  12.093  20.590   9.164
 2112POPC   GL129065  12.063  20.592   8.864
 2112POPC   GL229066  12.191  20.567   8.864
 2112POPC   C1A29067  12.030  20.629   8.564
 2112POPC   D2A29068  12.073  20.617   8.264
 2112POPC   C3A29069  12.094  20.594   7.964
 2112POPC   C4A29070  12.071  20.617   7.664
 2112POPC   C1B29071  12.293  20.551   8.564
 2112POPC   C2B29072  12.324  20.578   8.264
 2112POPC   C3B29073  12.325  20.545   7.964
 2112POPC   C4B29074  12.284  20.539   7.664
 2113POPC   NC329075  11.327  22.124   9.464
 2113POPC   PO429076  11.331  22.177   9.164
 2113POPC   GL129077  11.348  22.120   8.864
 2113POPC   GL229078  11.159  22.176   8.864
 2113POPC   C1A29079  11.311  22.165   8.564
 2113POPC   D2A29080  11.306  22.181   8.264
 2113POPC   C3A29081  11.344  22.114   7.964
 2113POPC   C4A29082  11.278  22.191   7.664
 2113POPC   C1B29083  11.015  22.123   8.564
 2113POPC   C2B29084  11.084  22.074   8.264
 2113POPC   C3B29085  11.092  22.066   7.964
 2113POPC   C4B29086  11.051  22.081   7.664
 2114POPC   NC329087  13.619  29.944   9.464
 2114POPC   PO429088  13.584  29.871   9.164
 2114POPC   GL129089  13.616  29.876   8.864
 2114POPC   GL229090  13.517  30.034   8.864
 2114POPC   C1A29091  13.605  29.945   8.564
 2114POPC   D2A29092  13.610  29.878   8.264
 2114POPC   C3A29093  13.652  29.919   7.964
 2114POPC   C4A29094  13.670  29.906   7.664
 2114POPC   C1B29095  13.470  30.174   8.564
 2114POPC   C2B29096  13.485  30.116   8.264
 2114POPC   C3B29097  13.553  30.150   7.964
 2114POPC   C4B29098  13.502  30.109   7.664
 2115POPC   NC329099  43.123   8.940   9.464
 2115POPC   PO429100  43.073   8.935   9.164
 2115POPC   GL129101  43.074   8.967   8.864
 2115POPC   GL229102  43.230   9.052   8.864
 2115POPC   C1A29103  43.137   8.959   8.564
 2115POPC   D2A29104  43.106   8.957   8.264
 2115POPC   C3A29105  43.070   8.935   7.964
 2115POPC   C4A29106  43.071   8.927   7.664
 2115POPC   C1B29107  43.280   9.148   8.564
 2115POPC   C2B29108  43.338   9.152   8.264
 2115POPC   C3B29109  43.356   9.117   7.964
 2115POPC   C4B29110  43.298   9.139   7.664
 2116POPC   NC329111  39.232  22.922   9.464
 2116POPC   PO429112  39.221  22.918   9.164
 2116POPC   GL129113  39.214  22.966   8.864
 2116POPC   GL229114  39.296  22.868   8.864
 2116POPC   C1A29115  39.200  22.978   8.564
 2116POPC   D2A29116  39.202  22.924   8.264
 2116POPC   C3A29117  39.187  22.937   7.964
 2116POPC   C4A29118  39.251  22.969   7.664
 2116POPC   C1B29119  39.420  22.761   8.564
 2116POPC   C2B29120  39.445  22.770   8.264
 2116POPC   C3B29121  39.455  22.763   7.964
 2116POPC   C4B29122  39.459  22.727   7.664
 2117POPC   NC329123   5.869  28.398   9.464
 2117POPC   PO429124   5.824  28.383   9.164
 2117POPC   GL129125   5.829  28.390   8.864
 2117POPC   GL229126   5.777  28.449   8.864
 2117POPC   C1A29127   5.841  28.368   8.564
 2117POPC   D2A29128   5.861  28.392   8.264
 2117POPC   C3A29129   5.857  28.374   7.964
 2117POPC   C4A29130   5.839  28.354   7.664
 2117POPC   C1B29131   5.693  28.539   8.564
 2117POPC   C2B29132   5.672  28.499   8.264
 2117POPC   C3B29133   5.644  28.472   7.964
 2117POPC   C4B29134   5.695  28.501   7.664
 2118POPC   NC329135   0.441  29.933   9.464
 2118POPC   PO429136   0.414  29.877   9.164
 2118POPC   GL129137   0.443  29.894   8.864
 2118POPC   GL229138   0.515  29.973   8.864
 2118POPC   C1A29139   0.439  29.935   8.564
 2118POPC   D2A29140   0.390  29.941   8.264
 2118POPC   C3A29141   0.393  29.913   7.964
 2118POPC   C4A29142   0.420  29.902   7.664
 2118POPC   C1B29143   0.647  30.062   8.564
 2118POPC   C2B29144   0.622  29.991   8.264
 2118POPC   C3B29145   0.626  30.037   7.964
 2118POPC   C4B29146   0.695  30.033   7.664
 2119POPC   NC329147   1.997   8.927   9.464
 2119POPC   PO429148   1.998   8.990   9.164
 2119POPC   GL129149   1.998   9.015   8.864
 2119POPC   GL229150   1.927   8.840   8.864
 2119POPC   C1A29151   2.021   8.992   8.564
 2119POPC   D2A29152   1.965   8.970   8.264
 2119POPC   C3A29153   1.953   8.972   7.964
 2119POPC   C4A29154   2.008   8.950   7.664
 2119POPC   C1B29155   1.908   8.788   8.564
 2119POPC   C2B29156   1.910   8.746   8.264
 2119POPC   C3B29157   1.916   8.744   7.964
 2119POPC   C4B29158   1.898   8.708   7.664
 2120POPC   NC329159  19.837   5.139   9.464
 2120POPC   PO429160  19.873   5.131   9.164
 2120POPC   GL129161  19.858   5.058   8.864
 2120POPC   GL229162  19.970   5.071   8.864
 2120POPC   C1A29163  19.790   5.109   8.564
 2120POPC   D2A29164  19.821   5.066   8.264
 2120POPC   C3A29165  19.829   5.139   7.964
 2120POPC   C4A29166  19.791   5.088   7.664
 2120POPC   C1B29167  20.102   5.036   8.564
 2120POPC   C2B29168  20.030   5.008   8.264
 2120POPC   C3B29169  20.109   5.051   7.964
 2120POPC   C4B29170  20.091   5.040   7.664
 2121POPC   NC329171  28.357  38.475   9.464
 2121POPC   PO429172  28.320  38.426   9.164
 2121POPC   GL129173  28.378  38.483   8.864
 2121POPC   GL229174  28.445  38.553   8.864
 2121POPC   C1A29175  28.368  38.497   8.564
 2121POPC   D2A29176  28.382  38.504   8.264
 2121POPC   C3A29177  28.365  38.416   7.964
 2121POPC   C4A29178  28.374  38.406   7.664
 2121POPC   C1B29179  28.547  38.592   8.564
 2121POPC   C2B29180  28.545  38.573   8.264
 2121POPC   C3B29181  28.585  38.559   7.964
 2121POPC   C4B29182  28.546  38.570   7.664
 2122POPC   NC329183  37.674  34.600   9.464
 2122POPC   PO429184  37.643  34.539   9.164
 2122POPC   GL129185  37.703  34.569   8.864
 2122POPC   GL229186  37.722  34.473   8.864
 2122POPC   C1A29187  37.656  34.567   8.564
 2122POPC   D2A29188  37.656  34.531   8.264
 2122POPC   C3A29189  37.664  34.592   7.964
 2122POPC   C4A29190  37.643  34.580   7.664
 2122POPC   C1B29191  37.867  34.393   8.564
 2122POPC   C2B29192  37.824  34.341   8.264
 2122POPC   C3B29193  37.795  34.381   7.964
 2122POPC   C4B29194  37.837  34.338   7.664
 2123POPC   NC329195  10.516   4.341   9.464
 2123POPC   PO429196  10.478   4.338   9.164
 2123POPC   GL129197  10.524   4.293   8.864
 2123POPC   GL229198  10.532   4.175   8.864
 2123POPC   C1A29199  10.531   4.367   8.564
 2123POPC   D2A29200  10.555   4.289   8.264
 2123POPC   C3A29201  10.535   4.296   7.964
 2123POPC   C4A29202  10.526   4.338   7.664
 2123POPC   C1B29203  10.583   4.061   8.564
 2123POPC   C2B29204  10.518   4.034   8.264
 2123POPC   C3B29205  10.579   4.028   7.964
 2123POPC   C4B29206  10.538   4.078   7.664
 2124POPC   NC329207  19.062  11.252   9.464
 2124POPC   PO429208  19.106  11.344   9.164
 2124POPC   GL129209  19.058  11.349   8.864
 2124POPC   GL229210  19.006  11.193   8.864
 2124POPC   C1A29211  19.062  11.299   8.564
 2124POPC   D2A29212  19.030  11.299   8.264
 2124POPC   C3A29213  19.019  11.328   7.964
 2124POPC   C4A29214  19.081  11.281   7.664
 2124POPC   C1B29215  19.056  11.008   8.564
 2124POPC   C2B29216  19.092  11.019   8.264
 2124POPC   C3B29217  19.037  11.064   7.964
 2124POPC   C4B29218  19.052  11.087   7.664
 2125POPC   NC329219  31.469  19.010   9.464
 2125POPC   PO429220  31.455  19.098   9.164
 2125POPC   GL129221  31.462  19.021   8.864
 2125POPC   GL229222  31.347  19.065   8.864
 2125POPC   C1A29223  31.470  19.093   8.564
 2125POPC   D2A29224  31.461  19.047   8.264
 2125POPC   C3A29225  31.519  19.068   7.964
 2125POPC   C4A29226  31.451  19.030   7.664
 2125POPC   C1B29227  31.267  19.058   8.564
 2125POPC   C2B29228  31.177  19.032   8.264
 2125POPC   C3B29229  31.270  19.107   7.964
 2125POPC   C4B29230  31.226  19.125   7.664
 2126POPC   NC329231  34.582  22.147   9.464
 2126POPC   PO429232  34.573  22.115   9.164
 2126POPC   GL129233  34.556  22.143   8.864
 2126POPC   GL229234  34.634  22.300   8.864
 2126POPC   C1A29235  34.611  22.118   8.564
 2126POPC   D2A29236  34.579  22.130   8.264
 2126POPC   C3A29237  34.555  22.143   7.964
 2126POPC   C4A29238  34.622  22.123   7.664
 2126POPC   C1B29239  34.679  22.376   8.564
 2126POPC   C2B29240  34.702  22.420   8.264
 2126POPC   C3B29241  34.634  22.437   7.964
 2126POPC   C4B29242  34.670  22.365   7.664
 2127POPC   NC329243  19.806  19.073   9.464
 2127POPC   PO429244  19.883  19.086   9.164
 2127POPC   GL129245  19.806  19.033   8.864
 2127POPC   GL229246  19.663  19.087   8.864
 2127POPC   C1A29247  19.825  19.069   8.564
 2127POPC   D2A29248  19.790  19.034   8.264
 2127POPC   C3A29249  19.883  19.097   7.964
 2127POPC   C4A29250  19.807  19.108   7.664
 2127POPC   C1B29251  19.584  19.065   8.564
 2127POPC   C2B29252  19.564  19.054   8.264
 2127POPC   C3B29253  19.545  19.038   7.964
 2127POPC   C4B29254  19.579  19.072   7.664
 2128POPC   NC329255  43.848  28.330   9.464
 2128POPC   PO429256  43.899  28.334   9.164
 2128POPC   GL129257  43.926  28.419   8.864
 2128POPC   GL229258  43.903  28.484   8.864
 2128POPC   C1A29259  43.893  28.397   8.564
 2128POPC   D2A29260  43.910  28.392   8.264
 2128POPC   C3A29261  43.862  28.323   7.964
 2128POPC   C4A29262  43.909  28.337   7.664
 2128POPC   C1B29263  43.961  28.607   8.564
 2128POPC   C2B29264  43.953  28.615   8.264
 2128POPC   C3B29265  44.022  28.560   7.964
 2128POPC   C4B29266  44.015  28.549   7.664
 2129POPC   NC329267  25.239  19.036   9.464
 2129POPC   PO429268  25.245  19.025   9.164
 2129POPC   GL129269  25.246  19.053   8.864
 2129POPC   GL229270  25.247  18.968   8.864
 2129POPC   C1A29271  25.266  19.099   8.564
 2129POPC   D2A29272  25.229  19.105   8.264
 2129POPC   C3A29273  25.272  19.014   7.964
 2129POPC   C4A29274  25.315  19.038   7.664
 2129POPC   C1B29275  25.177  18.865   8.564
 2129POPC   C2B29276  25.158  18.813   8.264
 2129POPC   C3B29277  25.142  18.823   7.964
 2129POPC   C4B29278  25.143  18.863   7.664
 2130POPC   NC329279  30.698  43.847   9.464
 2130POPC   PO429280  30.659  43.925   9.164
 2130POPC   GL129281  30.744  43.884   8.864
 2130POPC   GL229282  30.804  43.771   8.864
 2130POPC   C1A29283  30.719  43.925   8.564
 2130POPC   D2A29284  30.666  43.866   8.264
 2130POPC   C3A29285  30.739  43.922   7.964
 2130POPC   C4A29286  30.673  43.836   7.664
 2130POPC   C1B29287  30.864  43.707   8.564
 2130POPC   C2B29288  30.858  43.729   8.264
 2130POPC   C3B29289  30.865  43.648   7.964
 2130POPC   C4B29290  30.800  43.720   7.664
 2131POPC   NC329291  27.567  30.725   9.464
 2131POPC   PO429292  27.629  30.695   9.164
 2131POPC   GL129293  27.621  30.728   8.864
 2131POPC   GL229294  27.625  30.810   8.864
 2131POPC   C1A29295  27.626  30.678   8.564
 2131POPC   D2A29296  27.588  30.684   8.264
 2131POPC   C3A29297  27.628  30.662   7.964
 2131POPC   C4A29298  27.582  30.714   7.664
 2131POPC   C1B29299  27.627  30.922   8.564
 2131POPC   C2B29300  27.606  30.929   8.264
 2131POPC   C3B29301  27.567  30.968   7.964
 2131POPC   C4B29302  27.560  30.959   7.664
 2132POPC   NC329303  15.204  15.182   9.464
 2132POPC   PO429304  15.130  15.178   9.164
 2132POPC   GL129305  15.204  15.202   8.864
 2132POPC   GL229306  15.233  15.332   8.864
 2132POPC   C1A29307  15.228  15.215   8.564
 2132POPC   D2A29308  15.167  15.130   8.264
 2132POPC   C3A29309  15.145  15.195   7.964
 2132POPC   C4A29310  15.196  15.224   7.664
 2132POPC   C1B29311  15.197  15.476   8.564
 2132POPC   C2B29312  15.178  15.441   8.264
 2132POPC   C3B29313  15.193  15.423   7.964
 2132POPC   C4B29314  15.224  15.435   7.664
 2133POPC   NC329315   8.168  44.641   9.464
 2133POPC   PO429316   8.193  44.682   9.164
 2133POPC   GL129317   8.187  44.685   8.864
 2133POPC   GL229318   8.317  44.603   8.864
 2133POPC   C1A29319   8.188  44.695   8.564
 2133POPC   D2A29320   8.222  44.650   8.264
 2133POPC   C3A29321   8.229  44.651   7.964
 2133POPC   C4A29322   8.197  44.684   7.664
 2133POPC   C1B29323   8.393  44.564   8.564
 2133POPC   C2B29324   8.405  44.591   8.264
 2133POPC   C3B29325   8.452  44.635   7.964
 2133POPC   C4B29326   8.461  44.648   7.664
 2134POPC   NC329327  15.150  43.909   9.464
 2134POPC   PO429328  15.157  43.901   9.164
 2134POPC   GL129329  15.153  43.899   8.864
 2134POPC   GL229330  15.091  43.823   8.864
 2134POPC   C1A29331  15.139  43.871   8.564
 2134POPC   D2A29332  15.206  43.922   8.264
 2134POPC   C3A29333  15.213  43.909   7.964
 2134POPC   C4A29334  15.167  43.890   7.664
 2134POPC   C1B29335  14.973  43.785   8.564
 2134POPC   C2B29336  14.959  43.779   8.264
 2134POPC   C3B29337  14.989  43.740   7.964
 2134POPC   C4B29338  14.975  43.726   7.664
 2135POPC   NC329339  40.810   1.952   9.464
 2135POPC   PO429340  40.813   1.977   9.164
 2135POPC   GL129341  40.765   2.010   8.864
 2135POPC   GL229342  40.792   2.072   8.864
 2135POPC   C1A29343  40.821   1.970   8.564
 2135POPC   D2A29344  40.740   2.026   8.264
 2135POPC   C3A29345  40.753   1.969   7.964
 2135POPC   C4A29346  40.823   2.005   7.664
 2135POPC   C1B29347  40.735   2.232   8.564
 2135POPC   C2B29348  40.744   2.265   8.264
 2135POPC   C3B29349  40.774   2.225   7.964
 2135POPC   C4B29350  40.724   2.270   7.664
 2136POPC   NC329351  18.297  26.007   9.464
 2136POPC   PO429352  18.320  26.078   9.164
 2136POPC   GL129353  18.305  26.030   8.864
 2136POPC   GL229354  18.346  25.934   8.864
 2136POPC   C1A29355  18.321  26.074   8.564
 2136POPC   D2A29356  18.234  26.044   8.264
 2136POPC   C3A29357  18.275  26.045   7.964
 2136POPC   C4A29358  18.236  26.002   7.664
 2136POPC   C1B29359  18.420  25.842   8.564
 2136POPC   C2B29360  18.451  25.804   8.264
 2136POPC   C3B29361  18.494  25.882   7.964
 2136POPC   C4B29362  18.464  25.843   7.664
 2137POPC   NC329363  40.752   9.785   9.464
 2137POPC   PO429364  40.791   9.730   9.164
 2137POPC   GL129365  40.760   9.742   8.864
 2137POPC   GL229366  40.745   9.579   8.864
 2137POPC   C1A29367  40.804   9.698   8.564
 2137POPC   D2A29368  40.740   9.712   8.264
 2137POPC   C3A29369  40.747   9.744   7.964
 2137POPC   C4A29370  40.819   9.780   7.664
 2137POPC   C1B29371  40.766   9.503   8.564
 2137POPC   C2B29372  40.745   9.490   8.264
 2137POPC   C3B29373  40.743   9.491   7.964
 2137POPC   C4B29374  40.678   9.486   7.664
 2138POPC   NC329375  28.340  43.846   9.464
 2138POPC   PO429376  28.328  43.905   9.164
 2138POPC   GL129377  28.349  43.849   8.864
 2138POPC   GL229378  28.532  43.932   8.864
 2138POPC   C1A29379  28.389  43.919   8.564
 2138POPC   D2A29380  28.388  43.886   8.264
 2138POPC   C3A29381  28.335  43.848   7.964
 2138POPC   C4A29382  28.400  43.886   7.664
 2138POPC   C1B29383  28.603  43.958   8.564
 2138POPC   C2B29384  28.606  44.018   8.264
 2138POPC   C3B29385  28.612  44.004   7.964
 2138POPC   C4B29386  28.564  43.939   7.664
 2139POPC   NC329387   1.957  36.926   9.464
 2139POPC   PO429388   2.017  36.876   9.164
 2139POPC   GL129389   2.017  36.880   8.864
 2139POPC   GL229390   2.088  36.957   8.864
 2139POPC   C1A29391   1.959  36.920   8.564
 2139POPC   D2A29392   1.958  36.928   8.264
 2139POPC   C3A29393   2.002  36.891   7.964
 2139POPC   C4A29394   2.004  36.906   7.664
 2139POPC   C1B29395   2.150  37.124   8.564
 2139POPC   C2B29396   2.199  37.032   8.264
 2139POPC   C3B29397   2.219  37.102   7.964
 2139POPC   C4B29398   2.179  37.125   7.664
 2140POPC   NC329399  16.744  21.362   9.464
 2140POPC   PO429400  16.746  21.420   9.164
 2140POPC   GL129401  16.710  21.386   8.864
 2140POPC   GL229402  16.620  21.439   8.864
 2140POPC   C1A29403  16.731  21.369   8.564
 2140POPC   D2A29404  16.746  21.356   8.264
 2140POPC   C3A29405  16.734  21.409   7.964
 2140POPC   C4A29406  16.736  21.356   7.664
 2140POPC   C1B29407  16.459  21.482   8.564
 2140POPC   C2B29408  16.483  21.483   8.264
 2140POPC   C3B29409  16.518  21.479   7.964
 2140POPC   C4B29410  16.465  21.465   7.664
 2141POPC   NC329411  10.568   8.965   9.464
 2141POPC   PO429412  10.557   9.005   9.164
 2141POPC   GL129413  10.560   8.924   8.864
 2141POPC   GL229414  10.389   8.938   8.864
 2141POPC   C1A29415  10.483   8.991   8.564
 2141POPC   D2A29416  10.548   8.994   8.264
 2141POPC   C3A29417  10.481   8.986   7.964
 2141POPC   C4A29418  10.487   8.970   7.664
 2141POPC   C1B29419  10.338   8.872   8.564
 2141POPC   C2B29420  10.310   8.861   8.264
 2141POPC   C3B29421  10.343   8.898   7.964
 2141POPC   C4B29422  10.317   8.855   7.664
 2142POPC   NC329423   6.692  33.074   9.464
 2142POPC   PO429424   6.650  32.996   9.164
 2142POPC   GL129425   6.598  33.050   8.864
 2142POPC   GL229426   6.747  33.057   8.864
 2142POPC   C1A29427   6.641  33.005   8.564
 2142POPC   D2A29428   6.687  32.989   8.264
 2142POPC   C3A29429   6.660  33.065   7.964
 2142POPC   C4A29430   6.612  32.982   7.664
 2142POPC   C1B29431   6.847  33.190   8.564
 2142POPC   C2B29432   6.851  33.131   8.264
 2142POPC   C3B29433   6.877  33.168   7.964
 2142POPC   C4B29434   6.836  33.183   7.664
 2143POPC   NC329435  20.658   8.194   9.464
 2143POPC   PO429436  20.584   8.236   9.164
 2143POPC   GL129437  20.580   8.183   8.864
 2143POPC   GL229438  20.497   8.280   8.864
 2143POPC   C1A29439  20.578   8.165   8.564
 2143POPC   D2A29440  20.657   8.221   8.264
 2143POPC   C3A29441  20.642   8.242   7.964
 2143POPC   C4A29442  20.580   8.192   7.664
 2143POPC   C1B29443  20.446   8.414   8.564
 2143POPC   C2B29444  20.422   8.425   8.264
 2143POPC   C3B29445  20.461   8.447   7.964
 2143POPC   C4B29446  20.434   8.418   7.664
 2144POPC   NC329447  41.591  38.408   9.464
 2144POPC   PO429448  41.544  38.487   9.164
 2144POPC   GL129449  41.538  38.496   8.864
 2144POPC   GL229450  41.667  38.495   8.864
 2144POPC   C1A29451  41.580  38.491   8.564
 2144POPC   D2A29452  41.538  38.412   8.264
 2144POPC   C3A29453  41.526  38.423   7.964
 2144POPC   C4A29454  41.512  38.501   7.664
 2144POPC   C1B29455  41.796  38.553   8.564
 2144POPC   C2B29456  41.812  38.515   8.264
 2144POPC   C3B29457  41.832  38.539   7.964
 2144POPC   C4B29458  41.835  38.500   7.664
 2145POPC   NC329459  31.431  16.758   9.464
 2145POPC   PO429460  31.471  16.684   9.164
 2145POPC   GL129461  31.490  16.736   8.864
 2145POPC   GL229462  31.390  16.734   8.864
 2145POPC   C1A29463  31.483  16.692   8.564
 2145POPC   D2A29464  31.474  16.694   8.264
 2145POPC   C3A29465  31.478  16.739   7.964
 2145POPC   C4A29466  31.517  16.764   7.664
 2145POPC   C1B29467  31.201  16.700   8.564
 2145POPC   C2B29468  31.177  16.765   8.264
 2145POPC   C3B29469  31.207  16.764   7.964
 2145POPC   C4B29470  31.208  16.711   7.664
 2146POPC   NC329471  23.673  43.907   9.464
 2146POPC   PO429472  23.710  43.928   9.164
 2146POPC   GL129473  23.695  43.868   8.864
 2146POPC   GL229474  23.599  43.817   8.864
 2146POPC   C1A29475  23.696  43.866   8.564
 2146POPC   D2A29476  23.740  43.914   8.264
 2146POPC   C3A29477  23.763  43.926   7.964
 2146POPC   C4A29478  23.716  43.837   7.664
 2146POPC   C1B29479  23.529  43.684   8.564
 2146POPC   C2B29480  23.520  43.706   8.264
 2146POPC   C3B29481  23.596  43.721   7.964
 2146POPC   C4B29482  23.537  43.720   7.664
 2147POPC   NC329483  43.901  32.234   9.464
 2147POPC   PO429484  43.899  32.224   9.164
 2147POPC   GL129485  43.923  32.214   8.864
 2147POPC   GL229486  43.905  32.326   8.864
 2147POPC   C1A29487  43.848  32.226   8.564
 2147POPC   D2A29488  43.871  32.268   8.264
 2147POPC   C3A29489  43.929  32.282   7.964
 2147POPC   C4A29490  43.841  32.220   7.664
 2147POPC   C1B29491  43.818  32.518   8.564
 2147POPC   C2B29492  43.843  32.531   8.264
 2147POPC   C3B29493  43.880  32.517   7.964
 2147POPC   C4B29494  43.859  32.482   7.664
 2148POPC   NC329495   8.173  26.863   9.464
 2148POPC   PO429496   8.177  26.792   9.164
 2148POPC   GL129497   8.198  26.821   8.864
 2148POPC   GL229498   8.127  26.757   8.864
 2148POPC   C1A29499   8.246  26.812   8.564
 2148POPC   D2A29500   8.178  26.839   8.264
 2148POPC   C3A29501   8.230  26.794   7.964
 2148POPC   C4A29502   8.205  26.862   7.664
 2148POPC   C1B29503   8.000  26.664   8.564
 2148POPC   C2B29504   7.943  26.692   8.264
 2148POPC   C3B29505   7.953  26.754   7.964
 2148POPC   C4B29506   7.951  26.711   7.664
 2149POPC   NC329507  15.942  38.437   9.464
 2149POPC   PO429508  15.978  38.471   9.164
 2149POPC   GL129509  15.946  38.408   8.864
 2149POPC   GL229510  15.877  38.443   8.864
 2149POPC   C1A29511  15.972  38.456   8.564
 2149POPC   D2A29512  15.945  38.482   8.264
 2149POPC   C3A29513  15.966  38.439   7.964
 2149POPC   C4A29514  15.995  38.414   7.664
 2149POPC   C1B29515  15.748  38.472   8.564
 2149POPC   C2B29516  15.739  38.499   8.264
 2149POPC   C3B29517  15.712  38.489   7.964
 2149POPC   C4B29518  15.721  38.516   7.664
 2150POPC   NC329519  17.516  44.659   9.464
 2150POPC   PO429520  17.506  44.669   9.164
 2150POPC   GL129521  17.486  44.686   8.864
 2150POPC   GL229522  17.519  44.784   8.864
 2150POPC   C1A29523  17.543  44.664   8.564
 2150POPC   D2A29524  17.549  44.637   8.264
 2150POPC   C3A29525  17.493  44.641   7.964
 2150POPC   C4A29526  17.514  44.644   7.664
 2150POPC   C1B29527  17.541  44.876   8.564
 2150POPC   C2B29528  17.564  44.902   8.264
 2150POPC   C3B29529  17.536  44.931   7.964
 2150POPC   C4B29530  17.471  44.951   7.664
 2151POPC   NC329531  21.426  44.658   9.464
 2151POPC   PO429532  21.354  44.617   9.164
 2151POPC   GL129533  21.364  44.681   8.864
 2151POPC   GL229534  21.416  44.577   8.864
 2151POPC   C1A29535  21.357  44.659   8.564
 2151POPC   D2A29536  21.378  44.676   8.264
 2151POPC   C3A29537  21.390  44.626   7.964
 2151POPC   C4A29538  21.340  44.694   7.664
 2151POPC   C1B29539  21.396  44.443   8.564
 2151POPC   C2B29540  21.432  44.410   8.264
 2151POPC   C3B29541  21.452  44.408   7.964
 2151POPC   C4B29542  21.449  44.437   7.664
 2152POPC   NC329543  41.547  40.761   9.464
 2152POPC   PO429544  41.608  40.815   9.164
 2152POPC   GL129545  41.518  40.789   8.864
 2152POPC   GL229546  41.522  40.919   8.864
 2152POPC   C1A29547  41.558  40.787   8.564
 2152POPC   D2A29548  41.513  40.745   8.264
 2152POPC   C3A29549  41.601  40.766   7.964
 2152POPC   C4A29550  41.540  40.749   7.664
 2152POPC   C1B29551  41.599  41.014   8.564
 2152POPC   C2B29552  41.617  41.051   8.264
 2152POPC   C3B29553  41.538  41.020   7.964
 2152POPC   C4B29554  41.604  41.053   7.664
 2153POPC   NC329555  19.818  18.248   9.464
 2153POPC   PO429556  19.846  18.280   9.164
 2153POPC   GL129557  19.807  18.238   8.864
 2153POPC   GL229558  19.662  18.307   8.864
 2153POPC   C1A29559  19.848  18.298   8.564
 2153POPC   D2A29560  19.837  18.288   8.264
 2153POPC   C3A29561  19.797  18.284   7.964
 2153POPC   C4A29562  19.814  18.310   7.664
 2153POPC   C1B29563  19.542  18.235   8.564
 2153POPC   C2B29564  19.557  18.249   8.264
 2153POPC   C3B29565  19.608  18.316   7.964
 2153POPC   C4B29566  19.556  18.305   7.664
 2154POPC   NC329567  22.173  40.768   9.464
 2154POPC   PO429568  22.139  40.796   9.164
 2154POPC   GL129569  22.143  40.785   8.864
 2154POPC   GL229570  22.235  40.899   8.864
 2154POPC   C1A29571  22.207  40.773   8.564
 2154POPC   D2A29572  22.127  40.770   8.264
 2154POPC   C3A29573  22.191  40.793   7.964
 2154POPC   C4A29574  22.173  40.778   7.664
 2154POPC   C1B29575  22.334  40.924   8.564
 2154POPC   C2B29576  22.367  40.998   8.264
 2154POPC   C3B29577  22.284  40.982   7.964
 2154POPC   C4B29578  22.353  40.927   7.664
 2155POPC   NC329579  12.897  31.445   9.464
 2155POPC   PO429580  12.890  31.470   9.164
 2155POPC   GL129581  12.824  31.453   8.864
 2155POPC   GL229582  12.935  31.518   8.864
 2155POPC   C1A29583  12.877  31.521   8.564
 2155POPC   D2A29584  12.837  31.454   8.264
 2155POPC   C3A29585  12.899  31.461   7.964
 2155POPC   C4A29586  12.856  31.476   7.664
 2155POPC   C1B29587  13.084  31.640   8.564
 2155POPC   C2B29588  13.028  31.631   8.264
 2155POPC   C3B29589  13.101  31.555   7.964
 2155POPC   C4B29590  13.058  31.583   7.664
 2156POPC   NC329591  35.325  29.107   9.464
 2156POPC   PO429592  35.355  29.192   9.164
 2156POPC   GL129593  35.332  29.113   8.864
 2156POPC   GL229594  35.447  29.180   8.864
 2156POPC   C1A29595  35.382  29.117   8.564
 2156POPC   D2A29596  35.351  29.096   8.264
 2156POPC   C3A29597  35.315  29.176   7.964
 2156POPC   C4A29598  35.377  29.179   7.664
 2156POPC   C1B29599  35.573  29.198   8.564
 2156POPC   C2B29600  35.640  29.183   8.264
 2156POPC   C3B29601  35.596  29.225   7.964
 2156POPC   C4B29602  35.552  29.197   7.664
 2157POPC   NC329603  19.800  23.715   9.464
 2157POPC   PO429604  19.864  23.720   9.164
 2157POPC   GL129605  19.822  23.703   8.864
 2157POPC   GL229606  19.917  23.824   8.864
 2157POPC   C1A29607  19.847  23.698   8.564
 2157POPC   D2A29608  19.809  23.710   8.264
 2157POPC   C3A29609  19.865  23.741   7.964
 2157POPC   C4A29610  19.793  23.762   7.664
 2157POPC   C1B29611  19.896  23.962   8.564
 2157POPC   C2B29612  19.976  23.955   8.264
 2157POPC   C3B29613  19.946  23.985   7.964
 2157POPC   C4B29614  19.891  23.920   7.664
 2158POPC   NC329615  35.362  25.254   9.464
 2158POPC   PO429616  35.318  25.288   9.164
 2158POPC   GL129617  35.381  25.302   8.864
 2158POPC   GL229618  35.283  25.291   8.864
 2158POPC   C1A29619  35.354  25.279   8.564
 2158POPC   D2A29620  35.311  25.266   8.264
 2158POPC   C3A29621  35.344  25.278   7.964
 2158POPC   C4A29622  35.344  25.306   7.664
 2158POPC   C1B29623  35.117  25.392   8.564
 2158POPC   C2B29624  35.094  25.414   8.264
 2158POPC   C3B29625  35.178  25.375   7.964
 2158POPC   C4B29626  35.084  25.418   7.664
 2159POPC   NC329627   2.027   5.888   9.464
 2159POPC   PO429628   2.001   5.919   9.164
 2159POPC   GL129629   1.947   5.901   8.864
 2159POPC   GL229630   2.153   5.805   8.864
 2159POPC   C1A29631   1.980   5.895   8.564
 2159POPC   D2A29632   2.005   5.863   8.264
 2159POPC   C3A29633   1.948   5.867   7.964
 2159POPC   C4A29634   1.970   5.834   7.664
 2159POPC   C1B29635   2.255   5.812   8.564
 2159POPC   C2B29636   2.234   5.785   8.264
 2159POPC   C3B29637   2.247   5.795   7.964
 2159POPC   C4B29638   2.215   5.828   7.664
 2160POPC   NC329639  15.910  14.439   9.464
 2160POPC   PO429640  15.984  14.417   9.164
 2160POPC   GL129641  15.966  14.406   8.864
 2160POPC   GL229642  15.858  14.437   8.864
 2160POPC   C1A29643  16.000  14.444   8.564
 2160POPC   D2A29644  15.942  14.400   8.264
 2160POPC   C3A29645  15.942  14.395   7.964
 2160POPC   C4A29646  15.935  14.357   7.664
 2160POPC   C1B29647  15.671  14.442   8.564
 2160POPC   C2B29648  15.664  14.399   8.264
 2160POPC   C3B29649  15.664  14.377   7.964
 2160POPC   C4B29650  15.737  14.375   7.664
 2161POPC   NC329651  15.974  11.324   9.464
 2161POPC   PO429652  15.975  11.331   9.164
 2161POPC   GL129653  15.938  11.310   8.864
 2161POPC   GL229654  16.106  11.273   8.864
 2161POPC   C1A29655  15.940  11.258   8.564
 2161POPC   D2A29656  15.918  11.348   8.264
 2161POPC   C3A29657  15.952  11.325   7.964
 2161POPC   C4A29658  15.962  11.252   7.664
 2161POPC   C1B29659  16.207  11.206   8.564
 2161POPC   C2B29660  16.211  11.150   8.264
 2161POPC   C3B29661  16.132  11.130   7.964
 2161POPC   C4B29662  16.149  11.199   7.664
 2162POPC   NC329663   5.859  30.674   9.464
 2162POPC   PO429664   5.854  30.703   9.164
 2162POPC   GL129665   5.850  30.662   8.864
 2162POPC   GL229666   5.737  30.698   8.864
 2162POPC   C1A29667   5.889  30.736   8.564
 2162POPC   D2A29668   5.866  30.673   8.264
 2162POPC   C3A29669   5.868  30.682   7.964
 2162POPC   C4A29670   5.859  30.715   7.664
 2162POPC   C1B29671   5.606  30.728   8.564
 2162POPC   C2B29672   5.628  30.781   8.264
 2162POPC   C3B29673   5.666  30.748   7.964
 2162POPC   C4B29674   5.647  30.729   7.664
 2163POPC   NC329675  42.354  11.277   9.464
 2163POPC   PO429676  42.377  11.290   9.164
 2163POPC   GL129677  42.336  11.270   8.864
 2163POPC   GL229678  42.367  11.396   8.864
 2163POPC   C1A29679  42.329  11.252   8.564
 2163POPC   D2A29680  42.379  11.342   8.264
 2163POPC   C3A29681  42.368  11.309   7.964
 2163POPC   C4A29682  42.340  11.332   7.664
 2163POPC   C1B29683  42.446  11.515   8.564
 2163POPC   C2B29684  42.427  11.563   8.264
 2163POPC   C3B29685  42.450  11.566   7.964
 2163POPC   C4B29686  42.418  11.571   7.664
 2164POPC   NC329687   5.904   0.451   9.464
 2164POPC   PO429688   5.835   0.433   9.164
 2164POPC   GL129689   5.844   0.451   8.864
 2164POPC   GL229690   5.894   0.532   8.864
 2164POPC   C1A29691   5.892   0.463   8.564
 2164POPC   D2A29692   5.906   0.410   8.264
 2164POPC   C3A29693   5.853   0.443   7.964
 2164POPC   C4A29694   5.907   0.416   7.664
 2164POPC   C1B29695   5.830   0.670   8.564
 2164POPC   C2B29696   5.810   0.732   8.264
 2164POPC   C3B29697   5.814   0.653   7.964
 2164POPC   C4B29698   5.824   0.699   7.664
 2165POPC   NC329699  27.569  16.763   9.464
 2165POPC   PO429700  27.560  16.773   9.164
 2165POPC   GL129701  27.618  16.701   8.864
 2165POPC   GL229702  27.717  16.784   8.864
 2165POPC   C1A29703  27.615  16.748   8.564
 2165POPC   D2A29704  27.551  16.717   8.264
 2165POPC   C3A29705  27.635  16.772   7.964
 2165POPC   C4A29706  27.627  16.739   7.664
 2165POPC   C1B29707  27.815  16.816   8.564
 2165POPC   C2B29708  27.800  16.827   8.264
 2165POPC   C3B29709  27.873  16.754   7.964
 2165POPC   C4B29710  27.815  16.818   7.664
 2166POPC   NC329711  26.042   7.430   9.464
 2166POPC   PO429712  26.071   7.376   9.164
 2166POPC   GL129713  26.013   7.378   8.864
 2166POPC   GL229714  25.939   7.357   8.864
 2166POPC   C1A29715  26.076   7.406   8.564
 2166POPC   D2A29716  26.038   7.468   8.264
 2166POPC   C3A29717  25.993   7.448   7.964
 2166POPC   C4A29718  25.997   7.457   7.664
 2166POPC   C1B29719  25.797   7.422   8.564
 2166POPC   C2B29720  25.769   7.360   8.264
 2166POPC   C3B29721  25.756   7.423   7.964
 2166POPC   C4B29722  25.789   7.415   7.664
 2167POPC   NC329723  25.280  20.603   9.464
 2167POPC   PO429724  25.270  20.628   9.164
 2167POPC   GL129725  25.276  20.583   8.864
 2167POPC   GL229726  25.183  20.627   8.864
 2167POPC   C1A29727  25.315  20.582   8.564
 2167POPC   D2A29728  25.270  20.633   8.264
 2167POPC   C3A29729  25.261  20.643   7.964
 2167POPC   C4A29730  25.225  20.643   7.664
 2167POPC   C1B29731  24.981  20.677   8.564
 2167POPC   C2B29732  25.065  20.637   8.264
 2167POPC   C3B29733  25.014  20.646   7.964
 2167POPC   C4B29734  25.051  20.707   7.664
 2168POPC   NC329735  14.423  15.166   9.464
 2168POPC   PO429736  14.369  15.140   9.164
 2168POPC   GL129737  14.365  15.201   8.864
 2168POPC   GL229738  14.404  15.249   8.864
 2168POPC   C1A29739  14.376  15.170   8.564
 2168POPC   D2A29740  14.376  15.211   8.264
 2168POPC   C3A29741  14.417  15.141   7.964
 2168POPC   C4A29742  14.413  15.153   7.664
 2168POPC   C1B29743  14.537  15.392   8.564
 2168POPC   C2B29744  14.508  15.436   8.264
 2168POPC   C3B29745  14.552  15.388   7.964
 2168POPC   C4B29746  14.545  15.444   7.664
 2169POPC   NC329747  44.664  16.758   9.464
 2169POPC   PO429748  44.711  16.687   9.164
 2169POPC   GL129749  44.648  16.740   8.864
 2169POPC   GL229750  44.523  16.637   8.864
 2169POPC   C1A29751  44.634  16.735   8.564
 2169POPC   D2A29752  44.678  16.750   8.264
 2169POPC   C3A29753  44.700  16.702   7.964
 2169POPC   C4A29754  44.709  16.698   7.664
 2169POPC   C1B29755  44.448  16.577   8.564
 2169POPC   C2B29756  44.460  16.604   8.264
 2169POPC   C3B29757  44.456  16.648   7.964
 2169POPC   C4B29758  44.396  16.636   7.664
 2170POPC   NC329759   8.194   5.072   9.464
 2170POPC   PO429760   8.207   5.122   9.164
 2170POPC   GL129761   8.184   5.127   8.864
 2170POPC   GL229762   8.202   4.993   8.864
 2170POPC   C1A29763   8.181   5.130   8.564
 2170POPC   D2A29764   8.192   5.050   8.264
 2170POPC   C3A29765   8.207   5.067   7.964
 2170POPC   C4A29766   8.168   5.098   7.664
 2170POPC   C1B29767   8.274   4.810   8.564
 2170POPC   C2B29768   8.242   4.854   8.264
 2170POPC   C3B29769   8.229   4.820   7.964
 2170POPC   C4B29770   8.239   4.889   7.664
 2171POPC   NC329771  25.270  25.288   9.464
 2171POPC   PO429772  25.273  25.245   9.164
 2171POPC   GL129773  25.218  25.303   8.864
 2171POPC   GL229774  25.196  25.108   8.864
 2171POPC   C1A29775  25.300  25.240   8.564
 2171POPC   D2A29776  25.273  25.293   8.264
 2171POPC   C3A29777  25.284  25.288   7.964
 2171POPC   C4A29778  25.292  25.312   7.664
 2171POPC   C1B29779  25.182  25.023   8.564
 2171POPC   C2B29780  25.125  25.033   8.264
 2171POPC   C3B29781  25.154  25.057   7.964
 2171POPC   C4B29782  25.161  25.055   7.664
 2172POPC   NC329783  23.705  13.606   9.464
 2172POPC   PO429784  23.742  13.580   9.164
 2172POPC   GL129785  23.709  13.673   8.864
 2172POPC   GL229786  23.837  13.659   8.864
 2172POPC   C1A29787  23.731  13.669   8.564
 2172POPC   D2A29788  23.736  13.660   8.264
 2172POPC   C3A29789  23.690  13.650   7.964
 2172POPC   C4A29790  23.690  13.581   7.664
 2172POPC   C1B29791  23.991  13.725   8.564
 2172POPC   C2B29792  23.975  13.751   8.264
 2172POPC   C3B29793  23.901  13.719   7.964
 2172POPC   C4B29794  23.948  13.676   7.664
 2173POPC   NC329795  40.819   1.213   9.464
 2173POPC   PO429796  40.770   1.185   9.164
 2173POPC   GL129797  40.764   1.177   8.864
 2173POPC   GL229798  40.704   1.123   8.864
 2173POPC   C1A29799  40.798   1.175   8.564
 2173POPC   D2A29800  40.796   1.263   8.264
 2173POPC   C3A29801  40.821   1.184   7.964
 2173POPC   C4A29802  40.808   1.165   7.664
 2173POPC   C1B29803  40.514   1.123   8.564
 2173POPC   C2B29804  40.553   1.070   8.264
 2173POPC   C3B29805  40.541   1.116   7.964
 2173POPC   C4B29806  40.557   1.087   7.664
 2174POPC   NC329807  29.169  17.511   9.464
 2174POPC   PO429808  29.175  17.521   9.164
 2174POPC   GL129809  29.191  17.556   8.864
 2174POPC   GL229810  29.093  17.440   8.864
 2174POPC   C1A29811  29.108  17.505   8.564
 2174POPC   D2A29812  29.132  17.533   8.264
 2174POPC   C3A29813  29.111  17.481   7.964
 2174POPC   C4A29814  29.168  17.513   7.664
 2174POPC   C1B29815  28.944  17.295   8.564
 2174POPC   C2B29816  29.001  17.287   8.264
 2174POPC   C3B29817  29.030  17.265   7.964
 2174POPC   C4B29818  29.008  17.261   7.664
 2175POPC   NC329819  40.016   8.953   9.464
 2175POPC   PO429820  39.981   9.006   9.164
 2175POPC   GL129821  40.024   8.976   8.864
 2175POPC   GL229822  39.980   8.802   8.864
 2175POPC   C1A29823  39.966   8.939   8.564
 2175POPC   D2A29824  39.999   8.975   8.264
 2175POPC   C3A29825  40.053   8.996   7.964
 2175POPC   C4A29826  40.041   9.008   7.664
 2175POPC   C1B29827  39.957   8.707   8.564
 2175POPC   C2B29828  39.957   8.720   8.264
 2175POPC   C3B29829  40.007   8.706   7.964
 2175POPC   C4B29830  39.934   8.724   7.664
 2176POPC   NC329831  29.120  23.664   9.464
 2176POPC   PO429832  29.128  23.691   9.164
 2176POPC   GL129833  29.170  23.697   8.864
 2176POPC   GL229834  29.269  23.613   8.864
 2176POPC   C1A29835  29.124  23.763   8.564
 2176POPC   D2A29836  29.117  23.724   8.264
 2176POPC   C3A29837  29.129  23.751   7.964
 2176POPC   C4A29838  29.116  23.688   7.664
 2176POPC   C1B29839  29.361  23.494   8.564
 2176POPC   C2B29840  29.329  23.519   8.264
 2176POPC   C3B29841  29.322  23.562   7.964
 2176POPC   C4B29842  29.346  23.516   7.664
 2177POPC   NC329843  29.156   5.881   9.464
 2177POPC   PO429844  29.109   5.908   9.164
 2177POPC   GL129845  29.141   5.842   8.864
 2177POPC   GL229846  29.018   5.935   8.864
 2177POPC   C1A29847  29.187   5.910   8.564
 2177POPC   D2A29848  29.096   5.847   8.264
 2177POPC   C3A29849  29.147   5.830   7.964
 2177POPC   C4A29850  29.109   5.888   7.664
 2177POPC   C1B29851  28.914   5.981   8.564
 2177POPC   C2B29852  28.917   5.979   8.264
 2177POPC   C3B29853  28.938   5.930   7.964
 2177POPC   C4B29854  28.953   5.932   7.664
 2178POPC   NC329855   8.233  13.591   9.464
 2178POPC   PO429856   8.170  13.579   9.164
 2178POPC   GL129857   8.221  13.612   8.864
 2178POPC   GL229858   8.116  13.538   8.864
 2178POPC   C1A29859   8.184  13.608   8.564
 2178POPC   D2A29860   8.217  13.617   8.264
 2178POPC   C3A29861   8.243  13.642   7.964
 2178POPC   C4A29862   8.174  13.639   7.664
 2178POPC   C1B29863   8.062  13.479   8.564
 2178POPC   C2B29864   7.993  13.438   8.264
 2178POPC   C3B29865   8.022  13.455   7.964
 2178POPC   C4B29866   7.983  13.485   7.664
 2179POPC   NC329867   4.334  17.537   9.464
 2179POPC   PO429868   4.272  17.522   9.164
 2179POPC   GL129869   4.329  17.532   8.864
 2179POPC   GL229870   4.354  17.360   8.864
 2179POPC   C1A29871   4.284  17.467   8.564
 2179POPC   D2A29872   4.364  17.550   8.264
 2179POPC   C3A29873   4.352  17.484   7.964
 2179POPC   C4A29874   4.306  17.493   7.664
 2179POPC   C1B29875   4.382  17.244   8.564
 2179POPC   C2B29876   4.398  17.293   8.264
 2179POPC   C3B29877   4.371  17.229   7.964
 2179POPC   C4B29878   4.438  17.259   7.664
 2180POPC   NC329879  33.036   5.137   9.464
 2180POPC   PO429880  32.986   5.138   9.164
 2180POPC   GL129881  33.060   5.141   8.864
 2180POPC   GL229882  32.895   5.070   8.864
 2180POPC   C1A29883  32.976   5.131   8.564
 2180POPC   D2A29884  32.986   5.085   8.264
 2180POPC   C3A29885  33.068   5.070   7.964
 2180POPC   C4A29886  33.041   5.063   7.664
 2180POPC   C1B29887  32.783   4.940   8.564
 2180POPC   C2B29888  32.833   4.936   8.264
 2180POPC   C3B29889  32.770   4.966   7.964
 2180POPC   C4B29890  32.856   5.004   7.664
 2181POPC   NC329891  15.955   5.051   9.464
 2181POPC   PO429892  15.978   5.094   9.164
 2181POPC   GL129893  15.978   5.095   8.864
 2181POPC   GL229894  16.036   5.229   8.864
 2181POPC   C1A29895  15.928   5.087   8.564
 2181POPC   D2A29896  15.978   5.053   8.264
 2181POPC   C3A29897  15.998   5.076   7.964
 2181POPC   C4A29898  15.935   5.128   7.664
 2181POPC   C1B29899  16.070   5.307   8.564
 2181POPC   C2B29900  16.101   5.305   8.264
 2181POPC   C3B29901  16.049   5.353   7.964
 2181POPC   C4B29902  16.091   5.269   7.664
 2182POPC   NC329903   5.085  23.759   9.464
 2182POPC   PO429904   5.056  23.715   9.164
 2182POPC   GL129905   5.108  23.721   8.864
 2182POPC   GL229906   5.139  23.846   8.864
 2182POPC   C1A29907   5.102  23.742   8.564
 2182POPC   D2A29908   5.142  23.740   8.264
 2182POPC   C3A29909   5.055  23.733   7.964
 2182POPC   C4A29910   5.067  23.758   7.664
 2182POPC   C1B29911   5.116  23.964   8.564
 2182POPC   C2B29912   5.060  23.982   8.264
 2182POPC   C3B29913   5.089  23.995   7.964
 2182POPC   C4B29914   5.057  23.941   7.664
 2183POPC   NC329915   8.930  17.497   9.464
 2183POPC   PO429916   9.016  17.487   9.164
 2183POPC   GL129917   8.971  17.518   8.864
 2183POPC   GL229918   9.137  17.508   8.864
 2183POPC   C1A29919   8.973  17.534   8.564
 2183POPC   D2A29920   8.950  17.514   8.264
 2183POPC   C3A29921   8.947  17.531   7.964
 2183POPC   C4A29922   8.946  17.536   7.664
 2183POPC   C1B29923   9.228  17.513   8.564
 2183POPC   C2B29924   9.188  17.484   8.264
 2183POPC   C3B29925   9.212  17.489   7.964
 2183POPC   C4B29926   9.177  17.546   7.664
 2184POPC   NC329927   7.407  21.424   9.464
 2184POPC   PO429928   7.384  21.360   9.164
 2184POPC   GL129929   7.460  21.427   8.864
 2184POPC   GL229930   7.536  21.238   8.864
 2184POPC   C1A29931   7.415  21.401   8.564
 2184POPC   D2A29932   7.469  21.336   8.264
 2184POPC   C3A29933   7.406  21.337   7.964
 2184POPC   C4A29934   7.402  21.361   7.664
 2184POPC   C1B29935   7.587  21.143   8.564
 2184POPC   C2B29936   7.510  21.158   8.264
 2184POPC   C3B29937   7.566  21.201   7.964
 2184POPC   C4B29938   7.537  21.176   7.664
 2185POPC   NC329939  10.541  44.619   9.464
 2185POPC   PO429940  10.536  44.650   9.164
 2185POPC   GL129941  10.493  44.675   8.864
 2185POPC   GL229942  10.651  44.679   8.864
 2185POPC   C1A29943  10.546  44.704   8.564
 2185POPC   D2A29944  10.504  44.670   8.264
 2185POPC   C3A29945  10.571  44.678   7.964
 2185POPC   C4A29946  10.565  44.707   7.664
 2185POPC   C1B29947  10.786  44.675   8.564
 2185POPC   C2B29948  10.742  44.689   8.264
 2185POPC   C3B29949  10.727  44.651   7.964
 2185POPC   C4B29950  10.767  44.648   7.664
 2186POPC   NC329951   5.116  17.550   9.464
 2186POPC   PO429952   5.103  17.547   9.164
 2186POPC   GL129953   5.125  17.479   8.864
 2186POPC   GL229954   5.046  17.621   8.864
 2186POPC   C1A29955   5.114  17.496   8.564
 2186POPC   D2A29956   5.082  17.493   8.264
 2186POPC   C3A29957   5.137  17.527   7.964
 2186POPC   C4A29958   5.091  17.480   7.664
 2186POPC   C1B29959   4.878  17.707   8.564
 2186POPC   C2B29960   4.893  17.654   8.264
 2186POPC   C3B29961   4.909  17.707   7.964
 2186POPC   C4B29962   4.887  17.634   7.664
 2187POPC   NC329963  41.589  36.926   9.464
 2187POPC   PO429964  41.599  36.925   9.164
 2187POPC   GL129965  41.605  36.870   8.864
 2187POPC   GL229966  41.503  36.784   8.864
 2187POPC   C1A29967  41.602  36.880   8.564
 2187POPC   D2A29968  41.608  36.868   8.264
 2187POPC   C3A29969  41.534  36.911   7.964
 2187POPC   C4A29970  41.509  36.910   7.664
 2187POPC   C1B29971  41.333  36.709   8.564
 2187POPC   C2B29972  41.393  36.743   8.264
 2187POPC   C3B29973  41.367  36.796   7.964
 2187POPC   C4B29974  41.369  36.745   7.664
 2188POPC   NC329975   5.903  13.669   9.464
 2188POPC   PO429976   5.830  13.585   9.164
 2188POPC   GL129977   5.917  13.650   8.864
 2188POPC   GL229978   5.748  13.691   8.864
 2188POPC   C1A29979   5.878  13.582   8.564
 2188POPC   D2A29980   5.869  13.649   8.264
 2188POPC   C3A29981   5.868  13.653   7.964
 2188POPC   C4A29982   5.827  13.606   7.664
 2188POPC   C1B29983   5.670  13.756   8.564
 2188POPC   C2B29984   5.639  13.688   8.264
 2188POPC   C3B29985   5.681  13.712   7.964
 2188POPC   C4B29986   5.642  13.731   7.664
 2189POPC   NC329987  12.114  19.078   9.464
 2189POPC   PO429988  12.034  19.013   9.164
 2189POPC   GL129989  12.087  19.042   8.864
 2189POPC   GL229990  11.944  19.119   8.864
 2189POPC   C1A29991  12.044  19.065   8.564
 2189POPC   D2A29992  12.107  19.021   8.264
 2189POPC   C3A29993  12.105  19.066   7.964
 2189POPC   C4A29994  12.119  19.093   7.664
 2189POPC   C1B29995  11.832  19.222   8.564
 2189POPC   C2B29996  11.822  19.204   8.264
 2189POPC   C3B29997  11.900  19.215   7.964
 2189POPC   C4B29998  11.894  19.184   7.664
 2190POPC   NC329999  27.637  19.016   9.464
 2190POPC   PO430000  27.627  19.080   9.164
 2190POPC   GL130001  27.592  19.056   8.864
 2190POPC   GL230002  27.653  18.957   8.864
 2190POPC   C1A30003  27.561  19.107   8.564
 2190POPC   D2A30004  27.549  19.051   8.264
 2190POPC   C3A30005  27.622  19.052   7.964
 2190POPC   C4A30006  27.593  19.023   7.664
 2190POPC   C1B30007  27.702  18.827   8.564
 2190POPC   C2B30008  27.724  18.874   8.264
 2190POPC   C3B30009  27.799  18.857   7.964
 2190POPC   C4B30010  27.783  18.841   7.664
 2191POPC   NC330011  12.060  28.357   9.464
 2191POPC   PO430012  12.110  28.383   9.164
 2191POPC   GL130013  12.108  28.366   8.864
 2191POPC   GL230014  12.040  28.483   8.864
 2191POPC   C1A30015  12.079  28.331   8.564
 2191POPC   D2A30016  12.040  28.336   8.264
 2191POPC   C3A30017  12.085  28.356   7.964
 2191POPC   C4A30018  12.109  28.379   7.664
 2191POPC   C1B30019  12.062  28.632   8.564
 2191POPC   C2B30020  12.091  28.630   8.264
 2191POPC   C3B30021  12.091  28.641   7.964
 2191POPC   C4B30022  12.067  28.663   7.664
 2192POPC   NC330023   9.705  15.217   9.464
 2192POPC   PO430024   9.729  15.146   9.164
 2192POPC   GL130025   9.703  15.148   8.864
 2192POPC   GL230026   9.829  15.079   8.864
 2192POPC   C1A30027   9.764  15.173   8.564
 2192POPC   D2A30028   9.738  15.213   8.264
 2192POPC   C3A30029   9.793  15.204   7.964
 2192POPC   C4A30030   9.762  15.137   7.664
 2192POPC   C1B30031   9.855  14.996   8.564
 2192POPC   C2B30032   9.926  15.019   8.264
 2192POPC   C3B30033   9.938  14.969   7.964
 2192POPC   C4B30034   9.878  14.966   7.664
 2193POPC   NC330035  17.540  12.048   9.464
 2193POPC   PO430036  17.477  12.106   9.164
 2193POPC   GL130037  17.534  12.075   8.864
 2193POPC   GL230038  17.439  12.025   8.864
 2193POPC   C1A30039  17.474  12.117   8.564
 2193POPC   D2A30040  17.466  12.067   8.264
 2193POPC   C3A30041  17.542  12.042   7.964
 2193POPC   C4A30042  17.495  12.085   7.664
 2193POPC   C1B30043  17.309  11.976   8.564
 2193POPC   C2B30044  17.247  11.979   8.264
 2193POPC   C3B30045  17.296  12.012   7.964
 2193POPC   C4B30046  17.252  12.011   7.664
 2194POPC   NC330047  29.168   7.399   9.464
 2194POPC   PO430048  29.181   7.380   9.164
 2194POPC   GL130049  29.191   7.383   8.864
 2194POPC   GL230050  29.277   7.512   8.864
 2194POPC   C1A30051  29.129   7.467   8.564
 2194POPC   D2A30052  29.123   7.421   8.264
 2194POPC   C3A30053  29.106   7.469   7.964
 2194POPC   C4A30054  29.114   7.451   7.664
 2194POPC   C1B30055  29.370   7.511   8.564
 2194POPC   C2B30056  29.345   7.484   8.264
 2194POPC   C3B30057  29.346   7.489   7.964
 2194POPC   C4B30058  29.423   7.473   7.664
 2195POPC   NC330059   5.063  19.824   9.464
 2195POPC   PO430060   5.050  19.796   9.164
 2195POPC   GL130061   5.131  19.829   8.864
 2195POPC   GL230062   5.069  19.987   8.864
 2195POPC   C1A30063   5.131  19.849   8.564
 2195POPC   D2A30064   5.110  19.823   8.264
 2195POPC   C3A30065   5.097  19.793   7.964
 2195POPC   C4A30066   5.131  19.849   7.664
 2195POPC   C1B30067   5.154  20.126   8.564
 2195POPC   C2B30068   5.153  20.086   8.264
 2195POPC   C3B30069   5.102  20.110   7.964
 2195POPC   C4B30070   5.165  20.086   7.664
 2196POPC   NC330071   9.015  30.716   9.464
 2196POPC   PO430072   9.010  30.732   9.164
 2196POPC   GL130073   8.930  30.670   8.864
 2196POPC   GL230074   8.835  30.755   8.864
 2196POPC   C1A30075   9.018  30.715   8.564
 2196POPC   D2A30076   8.992  30.667   8.264
 2196POPC   C3A30077   8.971  30.730   7.964
 2196POPC   C4A30078   8.987  30.737   7.664
 2196POPC   C1B30079   8.693  30.755   8.564
 2196POPC   C2B30080   8.714  30.734   8.264
 2196POPC   C3B30081   8.755  30.744   7.964
 2196POPC   C4B30082   8.730  30.712   7.664
 2197POPC   NC330083  22.137  19.060   9.464
 2197POPC   PO430084  22.115  19.028   9.164
 2197POPC   GL130085  22.189  19.020   8.864
 2197POPC   GL230086  22.093  18.953   8.864
 2197POPC   C1A30087  22.126  19.107   8.564
 2197POPC   D2A30088  22.140  19.041   8.264
 2197POPC   C3A30089  22.117  19.034   7.964
 2197POPC   C4A30090  22.191  19.078   7.664
 2197POPC   C1B30091  22.070  18.890   8.564
 2197POPC   C2B30092  22.075  18.897   8.264
 2197POPC   C3B30093  22.023  18.812   7.964
 2197POPC   C4B30094  22.012  18.858   7.664
 2198POPC   NC330095  25.253   6.684   9.464
 2198POPC   PO430096  25.302   6.646   9.164
 2198POPC   GL130097  25.255   6.598   8.864
 2198POPC   GL230098  25.376   6.701   8.864
 2198POPC   C1A30099  25.292   6.595   8.564
 2198POPC   D2A30100  25.290   6.694   8.264
 2198POPC   C3A30101  25.265   6.631   7.964
 2198POPC   C4A30102  25.285   6.626   7.664
 2198POPC   C1B30103  25.488   6.681   8.564
 2198POPC   C2B30104  25.528   6.655   8.264
 2198POPC   C3B30105  25.548   6.682   7.964
 2198POPC   C4B30106  25.530   6.741   7.664
 2199POPC   NC330107  25.221  40.046   9.464
 2199POPC   PO430108  25.314  39.988   9.164
 2199POPC   GL130109  25.285  40.011   8.864
 2199POPC   GL230110  25.151  40.003   8.864
 2199POPC   C1A30111  25.273  39.979   8.564
 2199POPC   D2A30112  25.305  39.997   8.264
 2199POPC   C3A30113  25.216  40.005   7.964
 2199POPC   C4A30114  25.236  39.963   7.664
 2199POPC   C1B30115  25.067  39.894   8.564
 2199POPC   C2B30116  25.039  39.950   8.264
 2199POPC   C3B30117  25.024  39.962   7.964
 2199POPC   C4B30118  25.069  39.882   7.664
 2200POPC   NC330119  39.966  32.285   9.464
 2200POPC   PO430120  39.971  32.218   9.164
 2200POPC   GL130121  39.999  32.247   8.864
 2200POPC   GL230122  39.928  32.100   8.864
 2200POPC   C1A30123  39.967  32.263   8.564
 2200POPC   D2A30124  40.009  32.294   8.264
 2200POPC   C3A30125  40.037  32.262   7.964
 2200POPC   C4A30126  40.023  32.249   7.664
 2200POPC   C1B30127  39.869  32.033   8.564
 2200POPC   C2B30128  39.913  32.054   8.264
 2200POPC   C3B30129  39.869  31.989   7.964
 2200POPC   C4B30130  39.858  32.079   7.664
 2201POPC   NC330131   2.746  31.454   9.464
 2201POPC   PO430132   2.750  31.468   9.164
 2201POPC   GL130133   2.749  31.483   8.864
 2201POPC   GL230134   2.803  31.545   8.864
 2201POPC   C1A30135   2.789  31.435   8.564
 2201POPC   D2A30136   2.766  31.434   8.264
 2201POPC   C3A30137   2.716  31.441   7.964
 2201POPC   C4A30138   2.747  31.521   7.664
 2201POPC   C1B30139   2.845  31.701   8.564
 2201POPC   C2B30140   2.867  31.675   8.264
 2201POPC   C3B30141   2.794  31.673   7.964
 2201POPC   C4B30142   2.866  31.687   7.664
 2202POPC   NC330143  19.842  39.281   9.464
 2202POPC   PO430144  19.882  39.231   9.164
 2202POPC   GL130145  19.808  39.197   8.864
 2202POPC   GL230146  19.906  39.324   8.864
 2202POPC   C1A30147  19.869  39.193   8.564
 2202POPC   D2A30148  19.838  39.258   8.264
 2202POPC   C3A30149  19.802  39.249   7.964
 2202POPC   C4A30150  19.871  39.186   7.664
 2202POPC   C1B30151  20.022  39.454   8.564
 2202POPC   C2B30152  19.988  39.429   8.264
 2202POPC   C3B30153  19.988  39.400   7.964
 2202POPC   C4B30154  20.021  39.455   7.664
 2203POPC   NC330155   3.556   5.859   9.464
 2203POPC   PO430156   3.545   5.896   9.164
 2203POPC   GL130157   3.589   5.868   8.864
 2203POPC   GL230158   3.699   5.921   8.864
 2203POPC   C1A30159   3.511   5.894   8.564
 2203POPC   D2A30160   3.575   5.828   8.264
 2203POPC   C3A30161   3.566   5.911   7.964
 2203POPC   C4A30162   3.546   5.900   7.664
 2203POPC   C1B30163   3.786   5.984   8.564
 2203POPC   C2B30164   3.780   5.925   8.264
 2203POPC   C3B30165   3.760   5.953   7.964
 2203POPC   C4B30166   3.732   5.966   7.664
 2204POPC   NC330167  36.080  40.048   9.464
 2204POPC   PO430168  36.171  40.001   9.164
 2204POPC   GL130169  36.125  40.030   8.864
 2204POPC   GL230170  36.285  39.966   8.864
 2204POPC   C1A30171  36.135  40.048   8.564
 2204POPC   D2A30172  36.164  40.000   8.264
 2204POPC   C3A30173  36.147  39.974   7.964
 2204POPC   C4A30174  36.125  40.026   7.664
 2204POPC   C1B30175  36.391  39.907   8.564
 2204POPC   C2B30176  36.377  39.917   8.264
 2204POPC   C3B30177  36.364  39.931   7.964
 2204POPC   C4B30178  36.338  39.898   7.664
 2205POPC   NC330179  39.252  32.978   9.464
 2205POPC   PO430180  39.266  32.984   9.164
 2205POPC   GL130181  39.197  32.985   8.864
 2205POPC   GL230182  39.168  32.927   8.864
 2205POPC   C1A30183  39.252  33.054   8.564
 2205POPC   D2A30184  39.243  32.980   8.264
 2205POPC   C3A30185  39.221  32.993   7.964
 2205POPC   C4A30186  39.218  33.037   7.664
 2205POPC   C1B30187  39.019  32.896   8.564
 2205POPC   C2B30188  39.059  32.856   8.264
 2205POPC   C3B30189  39.024  32.912   7.964
 2205POPC   C4B30190  39.002  32.824   7.664
 2206POPC   NC330191  44.707  17.528   9.464
 2206POPC   PO430192  44.647  17.464   9.164
 2206POPC   GL130193  44.614  17.549   8.864
 2206POPC   GL230194  44.520  17.604   8.864
 2206POPC   C1A30195  44.704  17.554   8.564
 2206POPC   D2A30196  44.626  17.463   8.264
 2206POPC   C3A30197  44.624  17.460   7.964
 2206POPC   C4A30198  44.630  17.508   7.664
 2206POPC   C1B30199  44.466  17.628   8.564
 2206POPC   C2B30200  44.433  17.663   8.264
 2206POPC   C3B30201  44.458  17.649   7.964
 2206POPC   C4B30202  44.403  17.663   7.664
 2207POPC   NC330203  22.956   3.526   9.464
 2207POPC   PO430204  22.905   3.587   9.164
 2207POPC   GL130205  22.978   3.534   8.864
 2207POPC   GL230206  23.041   3.524   8.864
 2207POPC   C1A30207  22.894   3.511   8.564
 2207POPC   D2A30208  22.948   3.520   8.264
 2207POPC   C3A30209  22.955   3.574   7.964
 2207POPC   C4A30210  22.897   3.527   7.664
 2207POPC   C1B30211  23.157   3.477   8.564
 2207POPC   C2B30212  23.136   3.481   8.264
 2207POPC   C3B30213  23.144   3.449   7.964
 2207POPC   C4B30214  23.208   3.471   7.664
 2208POPC   NC330215  32.264   0.439   9.464
 2208POPC   PO430216  32.281   0.428   9.164
 2208POPC   GL130217  32.250   0.443   8.864
 2208POPC   GL230218  32.312   0.552   8.864
 2208POPC   C1A30219  32.213   0.427   8.564
 2208POPC   D2A30220  32.212   0.392   8.264
 2208POPC   C3A30221  32.284   0.399   7.964
 2208POPC   C4A30222  32.209   0.458   7.664
 2208POPC   C1B30223  32.336   0.688   8.564
 2208POPC   C2B30224  32.332   0.720   8.264
 2208POPC   C3B30225  32.281   0.639   7.964
 2208POPC   C4B30226  32.353   0.632   7.664
 2209POPC   NC330227  20.600  14.367   9.464
 2209POPC   PO430228  20.623  14.388   9.164
 2209POPC   GL130229  20.593  14.361   8.864
 2209POPC   GL230230  20.594  14.497   8.864
 2209POPC   C1A30231  20.649  14.383   8.564
 2209POPC   D2A30232  20.642  14.394   8.264
 2209POPC   C3A30233  20.590  14.362   7.964
 2209POPC   C4A30234  20.624  14.397   7.664
 2209POPC   C1B30235  20.533  14.680   8.564
 2209POPC   C2B30236  20.559  14.686   8.264
 2209POPC   C3B30237  20.543  14.623   7.964
 2209POPC   C4B30238  20.519  14.603   7.664
 2210POPC   NC330239  27.549  36.889   9.464
 2210POPC   PO430240  27.614  36.861   9.164
 2210POPC   GL130241  27.620  36.854   8.864
 2210POPC   GL230242  27.648  37.022   8.864
 2210POPC   C1A30243  27.607  36.864   8.564
 2210POPC   D2A30244  27.635  36.937   8.264
 2210POPC   C3A30245  27.639  36.873   7.964
 2210POPC   C4A30246  27.580  36.862   7.664
 2210POPC   C1B30247  27.712  37.067   8.564
 2210POPC   C2B30248  27.742  37.109   8.264
 2210POPC   C3B30249  27.707  37.139   7.964
 2210POPC   C4B30250  27.751  37.127   7.664
 2211POPC   NC330251  13.589   7.386   9.464
 2211POPC   PO430252  13.596   7.416   9.164
 2211POPC   GL130253  13.654   7.379   8.864
 2211POPC   GL230254  13.539   7.432   8.864
 2211POPC   C1A30255  13.622   7.405   8.564
 2211POPC   D2A30256  13.607   7.432   8.264
 2211POPC   C3A30257  13.624   7.387   7.964
 2211POPC   C4A30258  13.622   7.421   7.664
 2211POPC   C1B30259  13.376   7.514   8.564
 2211POPC   C2B30260  13.362   7.430   8.264
 2211POPC   C3B30261  13.399   7.454   7.964
 2211POPC   C4B30262  13.350   7.506   7.664
 2212POPC   NC330263  42.318  37.663   9.464
 2212POPC   PO430264  42.303  37.712   9.164
 2212POPC   GL130265  42.335  37.659   8.864
 2212POPC   GL230266  42.386  37.729   8.864
 2212POPC   C1A30267  42.304  37.637   8.564
 2212POPC   D2A30268  42.378  37.712   8.264
 2212POPC   C3A30269  42.311  37.690   7.964
 2212POPC   C4A30270  42.294  37.672   7.664
 2212POPC   C1B30271  42.543  37.861   8.564
 2212POPC   C2B30272  42.531  37.828   8.264
 2212POPC   C3B30273  42.509  37.834   7.964
 2212POPC   C4B30274  42.539  37.860   7.664
 2213POPC   NC330275  40.767  26.799   9.464
 2213POPC   PO430276  40.741  26.831   9.164
 2213POPC   GL130277  40.812  26.864   8.864
 2213POPC   GL230278  40.928  26.748   8.864
 2213POPC   C1A30279  40.791  26.828   8.564
 2213POPC   D2A30280  40.831  26.775   8.264
 2213POPC   C3A30281  40.760  26.825   7.964
 2213POPC   C4A30282  40.735  26.771   7.664
 2213POPC   C1B30283  40.992  26.657   8.564
 2213POPC   C2B30284  41.011  26.633   8.264
 2213POPC   C3B30285  40.938  26.653   7.964
 2213POPC   C4B30286  40.958  26.691   7.664
 2214POPC   NC330287  18.246   2.785   9.464
 2214POPC   PO430288  18.298   2.762   9.164
 2214POPC   GL130289  18.233   2.718   8.864
 2214POPC   GL230290  18.365   2.804   8.864
 2214POPC   C1A30291  18.281   2.794   8.564
 2214POPC   D2A30292  18.264   2.773   8.264
 2214POPC   C3A30293  18.322   2.758   7.964
 2214POPC   C4A30294  18.299   2.730   7.664
 2214POPC   C1B30295  18.495   2.968   8.564
 2214POPC   C2B30296  18.491   2.948   8.264
 2214POPC   C3B30297  18.420   2.979   7.964
 2214POPC   C4B30298  18.497   2.973   7.664
 2215POPC   NC330299  26.847   1.229   9.464
 2215POPC   PO430300  26.837   1.193   9.164
 2215POPC   GL130301  26.852   1.225   8.864
 2215POPC   GL230302  26.925   1.291   8.864
 2215POPC   C1A30303  26.838   1.204   8.564
 2215POPC   D2A30304  26.794   1.238   8.264
 2215POPC   C3A30305  26.837   1.220   7.964
 2215POPC   C4A30306  26.816   1.172   7.664
 2215POPC   C1B30307  27.025   1.345   8.564
 2215POPC   C2B30308  27.089   1.323   8.264
 2215POPC   C3B30309  27.064   1.317   7.964
 2215POPC   C4B30310  26.996   1.331   7.664
 2216POPC   NC330311  41.580  31.502   9.464
 2216POPC   PO430312  41.604  31.490   9.164
 2216POPC   GL130313  41.569  31.431   8.864
 2216POPC   GL230314  41.625  31.385   8.864
 2216POPC   C1A30315  41.592  31.477   8.564
 2216POPC   D2A30316  41.577  31.446   8.264
 2216POPC   C3A30317  41.584  31.498   7.964
 2216POPC   C4A30318  41.521  31.470   7.664
 2216POPC   C1B30319  41.723  31.321   8.564
 2216POPC   C2B30320  41.795  31.363   8.264
 2216POPC   C3B30321  41.728  31.326   7.964
 2216POPC   C4B30322  41.709  31.266   7.664
 2217POPC   NC330323  37.655  22.195   9.464
 2217POPC   PO430324  37.647  22.193   9.164
 2217POPC   GL130325  37.695  22.153   8.864
 2217POPC   GL230326  37.580  22.089   8.864
 2217POPC   C1A30327  37.654  22.136   8.564
 2217POPC   D2A30328  37.723  22.140   8.264
 2217POPC   C3A30329  37.640  22.209   7.964
 2217POPC   C4A30330  37.718  22.143   7.664
 2217POPC   C1B30331  37.576  21.954   8.564
 2217POPC   C2B30332  37.578  21.985   8.264
 2217POPC   C3B30333  37.535  21.983   7.964
 2217POPC   C4B30334  37.567  21.957   7.664
 2218POPC   NC330335  42.338  40.012   9.464
 2218POPC   PO430336  42.366  40.032   9.164
 2218POPC   GL130337  42.313  40.046   8.864
 2218POPC   GL230338  42.420  39.883   8.864
 2218POPC   C1A30339  42.298  39.983   8.564
 2218POPC   D2A30340  42.309  39.988   8.264
 2218POPC   C3A30341  42.339  40.005   7.964
 2218POPC   C4A30342  42.326  39.971   7.664
 2218POPC   C1B30343  42.498  39.747   8.564
 2218POPC   C2B30344  42.481  39.810   8.264
 2218POPC   C3B30345  42.461  39.826   7.964
 2218POPC   C4B30346  42.446  39.830   7.664
 2219POPC   NC330347  19.797   6.664   9.464
 2219POPC   PO430348  19.851   6.627   9.164
 2219POPC   GL130349  19.862   6.634   8.864
 2219POPC   GL230350  19.917   6.653   8.864
 2219POPC   C1A30351  19.839   6.690   8.564
 2219POPC   D2A30352  19.815   6.649   8.264
 2219POPC   C3A30353  19.878   6.645   7.964
 2219POPC   C4A30354  19.806   6.615   7.664
 2219POPC   C1B30355  20.025   6.554   8.564
 2219POPC   C2B30356  20.024   6.604   8.264
 2219POPC   C3B30357  20.063   6.597   7.964
 2219POPC   C4B30358  20.077   6.575   7.664
 2220POPC   NC330359  28.324   6.695   9.464
 2220POPC   PO430360  28.341   6.630   9.164
 2220POPC   GL130361  28.383   6.691   8.864
 2220POPC   GL230362  28.352   6.584   8.864
 2220POPC   C1A30363  28.388   6.618   8.564
 2220POPC   D2A30364  28.410   6.645   8.264
 2220POPC   C3A30365  28.330   6.661   7.964
 2220POPC   C4A30366  28.403   6.637   7.664
 2220POPC   C1B30367  28.205   6.442   8.564
 2220POPC   C2B30368  28.298   6.418   8.264
 2220POPC   C3B30369  28.244   6.400   7.964
 2220POPC   C4B30370  28.273   6.396   7.664
 2221POPC   NC330371   8.983  32.242   9.464
 2221POPC   PO430372   9.020  32.256   9.164
 2221POPC   GL130373   8.934  32.292   8.864
 2221POPC   GL230374   8.870  32.291   8.864
 2221POPC   C1A30375   8.933  32.273   8.564
 2221POPC   D2A30376   9.010  32.243   8.264
 2221POPC   C3A30377   8.965  32.207   7.964
 2221POPC   C4A30378   8.992  32.240   7.664
 2221POPC   C1B30379   8.752  32.355   8.564
 2221POPC   C2B30380   8.712  32.377   8.264
 2221POPC   C3B30381   8.796  32.339   7.964
 2221POPC   C4B30382   8.804  32.380   7.664
 2222POPC   NC330383  28.327  36.137   9.464
 2222POPC   PO430384  28.411  36.153   9.164
 2222POPC   GL130385  28.332  36.156   8.864
 2222POPC   GL230386  28.304  36.237   8.864
 2222POPC   C1A30387  28.373  36.114   8.564
 2222POPC   D2A30388  28.339  36.158   8.264
 2222POPC   C3A30389  28.330  36.146   7.964
 2222POPC   C4A30390  28.377  36.173   7.664
 2222POPC   C1B30391  28.212  36.294   8.564
 2222POPC   C2B30392  28.216  36.291   8.264
 2222POPC   C3B30393  28.212  36.279   7.964
 2222POPC   C4B30394  28.132  36.274   7.664
 2223POPC   NC330395  18.328  22.147   9.464
 2223POPC   PO430396  18.303  22.165   9.164
 2223POPC   GL130397  18.277  22.211   8.864
 2223POPC   GL230398  18.289  22.320   8.864
 2223POPC   C1A30399  18.285  22.156   8.564
 2223POPC   D2A30400  18.321  22.185   8.264
 2223POPC   C3A30401  18.282  22.116   7.964
 2223POPC   C4A30402  18.316  22.146   7.664
 2223POPC   C1B30403  18.383  22.385   8.564
 2223POPC   C2B30404  18.361  22.368   8.264
 2223POPC   C3B30405  18.354  22.401   7.964
 2223POPC   C4B30406  18.419  22.414   7.664
 2224POPC   NC330407  23.703   8.238   9.464
 2224POPC   PO430408  23.666   8.243   9.164
 2224POPC   GL130409  23.709   8.155   8.864
 2224POPC   GL230410  23.672   8.110   8.864
 2224POPC   C1A30411  23.713   8.168   8.564
 2224POPC   D2A30412  23.717   8.150   8.264
 2224POPC   C3A30413  23.724   8.234   7.964
 2224POPC   C4A30414  23.705   8.160   7.664
 2224POPC   C1B30415  23.677   7.956   8.564
 2224POPC   C2B30416  23.668   7.921   8.264
 2224POPC   C3B30417  23.745   7.980   7.964
 2224POPC   C4B30418  23.660   7.906   7.664
 2225POPC   NC330419  13.674  22.949   9.464
 2225POPC   PO430420  13.655  22.892   9.164
 2225POPC   GL130421  13.655  22.961   8.864
 2225POPC   GL230422  13.583  23.095   8.864
 2225POPC   C1A30423  13.675  22.936   8.564
 2225POPC   D2A30424  13.634  22.924   8.264
 2225POPC   C3A30425  13.674  22.963   7.964
 2225POPC   C4A30426  13.620  22.981   7.664
 2225POPC   C1B30427  13.485  23.159   8.564
 2225POPC   C2B30428  13.536  23.187   8.264
 2225POPC   C3B30429  13.529  23.153   7.964
 2225POPC   C4B30430  13.559  23.213   7.664
 2226POPC   NC330431  31.497  36.949   9.464
 2226POPC   PO430432  31.519  36.916   9.164
 2226POPC   GL130433  31.428  36.878   8.864
 2226POPC   GL230434  31.529  36.788   8.864
 2226POPC   C1A30435  31.521  36.896   8.564
 2226POPC   D2A30436  31.445  36.904   8.264
 2226POPC   C3A30437  31.428  36.895   7.964
 2226POPC   C4A30438  31.513  36.933   7.664
 2226POPC   C1B30439  31.586  36.694   8.564
 2226POPC   C2B30440  31.623  36.666   8.264
 2226POPC   C3B30441  31.656  36.710   7.964
 2226POPC   C4B30442  31.607  36.736   7.664
 2227POPC   NC330443  23.710  42.309   9.464
 2227POPC   PO430444  23.692  42.342   9.164
 2227POPC   GL130445  23.757  42.326   8.864
 2227POPC   GL230446  23.853  42.454   8.864
 2227POPC   C1A30447  23.693  42.325   8.564
 2227POPC   D2A30448  23.666  42.376   8.264
 2227POPC   C3A30449  23.726  42.351   7.964
 2227POPC   C4A30450  23.741  42.360   7.664
 2227POPC   C1B30451  23.903  42.498   8.564
 2227POPC   C2B30452  23.929  42.513   8.264
 2227POPC   C3B30453  23.900  42.515   7.964
 2227POPC   C4B30454  23.879  42.505   7.664
 2228POPC   NC330455  24.529  34.581   9.464
 2228POPC   PO430456  24.505  34.565   9.164
 2228POPC   GL130457  24.466  34.546   8.864
 2228POPC   GL230458  24.582  34.659   8.864
 2228POPC   C1A30459  24.443  34.540   8.564
 2228POPC   D2A30460  24.531  34.613   8.264
 2228POPC   C3A30461  24.454  34.539   7.964
 2228POPC   C4A30462  24.496  34.566   7.664
 2228POPC   C1B30463  24.658  34.719   8.564
 2228POPC   C2B30464  24.688  34.794   8.264
 2228POPC   C3B30465  24.631  34.780   7.964
 2228POPC   C4B30466  24.674  34.799   7.664
 2229POPC   NC330467   6.656  22.953   9.464
 2229POPC   PO430468   6.624  22.961   9.164
 2229POPC   GL130469   6.652  22.971   8.864
 2229POPC   GL230470   6.581  22.874   8.864
 2229POPC   C1A30471   6.647  22.928   8.564
 2229POPC   D2A30472   6.630  22.946   8.264
 2229POPC   C3A30473   6.674  22.937   7.964
 2229POPC   C4A30474   6.619  22.962   7.664
 2229POPC   C1B30475   6.454  22.708   8.564
 2229POPC   C2B30476   6.509  22.743   8.264
 2229POPC   C3B30477   6.441  22.717   7.964
 2229POPC   C4B30478   6.480  22.778   7.664
 2230POPC   NC330479  33.061  14.433   9.464
 2230POPC   PO430480  33.054  14.387   9.164
 2230POPC   GL130481  33.002  14.384   8.864
 2230POPC   GL230482  33.125  14.363   8.864
 2230POPC   C1A30483  33.010  14.384   8.564
 2230POPC   D2A30484  33.031  14.373   8.264
 2230POPC   C3A30485  33.018  14.361   7.964
 2230POPC   C4A30486  33.066  14.361   7.664
 2230POPC   C1B30487  33.229  14.316   8.564
 2230POPC   C2B30488  33.261  14.284   8.264
 2230POPC   C3B30489  33.236  14.302   7.964
 2230POPC   C4B30490  33.243  14.356   7.664
 2231POPC   NC330491  21.366  15.146   9.464
 2231POPC   PO430492  21.411  15.209   9.164
 2231POPC   GL130493  21.354  15.209   8.864
 2231POPC   GL230494  21.528  15.293   8.864
 2231POPC   C1A30495  21.347  15.182   8.564
 2231POPC   D2A30496  21.367  15.168   8.264
 2231POPC   C3A30497  21.392  15.228   7.964
 2231POPC   C4A30498  21.392  15.182   7.664
 2231POPC   C1B30499  21.552  15.371   8.564
 2231POPC   C2B30500  21.629  15.354   8.264
 2231POPC   C3B30501  21.627  15.294   7.964
 2231POPC   C4B30502  21.583  15.359   7.664
 2232POPC   NC330503  39.990  22.905   9.464
 2232POPC   PO430504  39.962  22.913   9.164
 2232POPC   GL130505  40.033  22.929   8.864
 2232POPC   GL230506  39.917  22.847   8.864
 2232POPC   C1A30507  40.014  22.953   8.564
 2232POPC   D2A30508  39.994  22.941   8.264
 2232POPC   C3A30509  40.044  22.909   7.964
 2232POPC   C4A30510  40.031  22.905   7.664
 2232POPC   C1B30511  39.892  22.712   8.564
 2232POPC   C2B30512  39.885  22.718   8.264
 2232POPC   C3B30513  39.810  22.736   7.964
 2232POPC   C4B30514  39.869  22.697   7.664
 2233POPC   NC330515  35.355  19.069   9.464
 2233POPC   PO430516  35.363  19.040   9.164
 2233POPC   GL130517  35.395  19.091   8.864
 2233POPC   GL230518  35.480  19.038   8.864
 2233POPC   C1A30519  35.384  19.104   8.564
 2233POPC   D2A30520  35.306  19.080   8.264
 2233POPC   C3A30521  35.362  19.090   7.964
 2233POPC   C4A30522  35.335  19.054   7.664
 2233POPC   C1B30523  35.596  18.997   8.564
 2233POPC   C2B30524  35.576  18.964   8.264
 2233POPC   C3B30525  35.547  19.010   7.964
 2233POPC   C4B30526  35.614  18.976   7.664
 2234POPC   NC330527  20.570  43.068   9.464
 2234POPC   PO430528  20.595  43.109   9.164
 2234POPC   GL130529  20.636  43.135   8.864
 2234POPC   GL230530  20.750  42.997   8.864
 2234POPC   C1A30531  20.615  43.130   8.564
 2234POPC   D2A30532  20.591  43.081   8.264
 2234POPC   C3A30533  20.587  43.135   7.964
 2234POPC   C4A30534  20.656  43.104   7.664
 2234POPC   C1B30535  20.862  42.944   8.564
 2234POPC   C2B30536  20.797  42.982   8.264
 2234POPC   C3B30537  20.834  42.998   7.964
 2234POPC   C4B30538  20.861  43.007   7.664
 2235POPC   NC330539  38.442  43.857   9.464
 2235POPC   PO430540  38.430  43.848   9.164
 2235POPC   GL130541  38.489  43.895   8.864
 2235POPC   GL230542  38.367  44.011   8.864
 2235POPC   C1A30543  38.497  43.894   8.564
 2235POPC   D2A30544  38.416  43.877   8.264
 2235POPC   C3A30545  38.495  43.883   7.964
 2235POPC   C4A30546  38.494  43.852   7.664
 2235POPC   C1B30547  38.320  44.099   8.564
 2235POPC   C2B30548  38.333  44.071   8.264
 2235POPC   C3B30549  38.332  44.079   7.964
 2235POPC   C4B30550  38.327  44.071   7.664
 2236POPC   NC330551  33.053  31.509   9.464
 2236POPC   PO430552  33.073  31.471   9.164
 2236POPC   GL130553  33.048  31.468   8.864
 2236POPC   GL230554  32.875  31.435   8.864
 2236POPC   C1A30555  33.054  31.472   8.564
 2236POPC   D2A30556  33.059  31.520   8.264
 2236POPC   C3A30557  33.051  31.487   7.964
 2236POPC   C4A30558  33.049  31.503   7.664
 2236POPC   C1B30559  32.786  31.443   8.564
 2236POPC   C2B30560  32.766  31.392   8.264
 2236POPC   C3B30561  32.825  31.470   7.964
 2236POPC   C4B30562  32.728  31.405   7.664
 2237POPC   NC330563  27.616  15.968   9.464
 2237POPC   PO430564  27.544  15.930   9.164
 2237POPC   GL130565  27.549  15.929   8.864
 2237POPC   GL230566  27.491  15.831   8.864
 2237POPC   C1A30567  27.627  15.971   8.564
 2237POPC   D2A30568  27.628  15.982   8.264
 2237POPC   C3A30569  27.640  16.004   7.964
 2237POPC   C4A30570  27.556  15.923   7.664
 2237POPC   C1B30571  27.494  15.723   8.564
 2237POPC   C2B30572  27.522  15.765   8.264
 2237POPC   C3B30573  27.442  15.764   7.964
 2237POPC   C4B30574  27.504  15.768   7.664
 2238POPC   NC330575  23.758   3.508   9.464
 2238POPC   PO430576  23.714   3.524   9.164
 2238POPC   GL130577  23.671   3.566   8.864
 2238POPC   GL230578  23.613   3.500   8.864
 2238POPC   C1A30579  23.681   3.518   8.564
 2238POPC   D2A30580  23.711   3.539   8.264
 2238POPC   C3A30581  23.683   3.540   7.964
 2238POPC   C4A30582  23.665   3.525   7.664
 2238POPC   C1B30583  23.466   3.535   8.564
 2238POPC   C2B30584  23.437   3.485   8.264
 2238POPC   C3B30585  23.439   3.504   7.964
 2238POPC   C4B30586  23.445   3.530   7.664
 2239POPC   NC330587  20.587  39.272   9.464
 2239POPC   PO430588  20.582  39.211   9.164
 2239POPC   GL130589  20.572  39.201   8.864
 2239POPC   GL230590  20.707  39.294   8.864
 2239POPC   C1A30591  20.582  39.230   8.564
 2239POPC   D2A30592  20.567  39.196   8.264
 2239POPC   C3A30593  20.592  39.262   7.964
 2239POPC   C4A30594  20.601  39.274   7.664
 2239POPC   C1B30595  20.838  39.338   8.564
 2239POPC   C2B30596  20.843  39.354   8.264
 2239POPC   C3B30597  20.834  39.347   7.964
 2239POPC   C4B30598  20.869  39.367   7.664
 2240POPC   NC330599   6.657  24.494   9.464
 2240POPC   PO430600   6.664  24.517   9.164
 2240POPC   GL130601   6.602  24.470   8.864
 2240POPC   GL230602   6.496  24.514   8.864
 2240POPC   C1A30603   6.595  24.515   8.564
 2240POPC   D2A30604   6.645  24.487   8.264
 2240POPC   C3A30605   6.636  24.512   7.964
 2240POPC   C4A30606   6.690  24.480   7.664
 2240POPC   C1B30607   6.465  24.591   8.564
 2240POPC   C2B30608   6.376  24.574   8.264
 2240POPC   C3B30609   6.386  24.542   7.964
 2240POPC   C4B30610   6.451  24.597   7.664
 2241POPC   NC330611  13.641  43.086   9.464
 2241POPC   PO430612  13.601  43.086   9.164
 2241POPC   GL130613  13.615  43.118   8.864
 2241POPC   GL230614  13.702  43.224   8.864
 2241POPC   C1A30615  13.591  43.159   8.564
 2241POPC   D2A30616  13.627  43.136   8.264
 2241POPC   C3A30617  13.584  43.063   7.964
 2241POPC   C4A30618  13.608  43.102   7.664
 2241POPC   C1B30619  13.741  43.309   8.564
 2241POPC   C2B30620  13.768  43.375   8.264
 2241POPC   C3B30621  13.702  43.340   7.964
 2241POPC   C4B30622  13.696  43.391   7.664
 2242POPC   NC330623  29.155   5.136   9.464
 2242POPC   PO430624  29.176   5.133   9.164
 2242POPC   GL130625  29.146   5.126   8.864
 2242POPC   GL230626  29.057   5.238   8.864
 2242POPC   C1A30627  29.185   5.090   8.564
 2242POPC   D2A30628  29.164   5.133   8.264
 2242POPC   C3A30629  29.105   5.117   7.964
 2242POPC   C4A30630  29.192   5.097   7.664
 2242POPC   C1B30631  29.062   5.270   8.564
 2242POPC   C2B30632  29.032   5.329   8.264
 2242POPC   C3B30633  29.023   5.295   7.964
 2242POPC   C4B30634  29.062   5.293   7.664
 2243POPC   NC330635   7.464  25.299   9.464
 2243POPC   PO430636   7.371  25.312   9.164
 2243POPC   GL130637   7.405  25.263   8.864
 2243POPC   GL230638   7.447  25.346   8.864
 2243POPC   C1A30639   7.413  25.222   8.564
 2243POPC   D2A30640   7.390  25.277   8.264
 2243POPC   C3A30641   7.424  25.299   7.964
 2243POPC   C4A30642   7.378  25.259   7.664
 2243POPC   C1B30643   7.566  25.541   8.564
 2243POPC   C2B30644   7.491  25.479   8.264
 2243POPC   C3B30645   7.572  25.522   7.964
 2243POPC   C4B30646   7.492  25.513   7.664
 2244POPC   NC330647   4.314  32.264   9.464
 2244POPC   PO430648   4.273  32.261   9.164
 2244POPC   GL130649   4.361  32.268   8.864
 2244POPC   GL230650   4.234  32.348   8.864
 2244POPC   C1A30651   4.346  32.285   8.564
 2244POPC   D2A30652   4.353  32.279   8.264
 2244POPC   C3A30653   4.285  32.247   7.964
 2244POPC   C4A30654   4.330  32.296   7.664
 2244POPC   C1B30655   4.234  32.483   8.564
 2244POPC   C2B30656   4.159  32.459   8.264
 2244POPC   C3B30657   4.144  32.469   7.964
 2244POPC   C4B30658   4.152  32.491   7.664
 2245POPC   NC330659  21.377  19.077   9.464
 2245POPC   PO430660  21.393  19.043   9.164
 2245POPC   GL130661  21.340  19.035   8.864
 2245POPC   GL230662  21.389  19.133   8.864
 2245POPC   C1A30663  21.352  19.024   8.564
 2245POPC   D2A30664  21.407  19.034   8.264
 2245POPC   C3A30665  21.387  19.023   7.964
 2245POPC   C4A30666  21.384  19.084   7.664
 2245POPC   C1B30667  21.496  19.277   8.564
 2245POPC   C2B30668  21.436  19.335   8.264
 2245POPC   C3B30669  21.444  19.285   7.964
 2245POPC   C4B30670  21.462  19.349   7.664
 2246POPC   NC330671  36.935  22.200   9.464
 2246POPC   PO430672  36.856  22.137   9.164
 2246POPC   GL130673  36.940  22.129   8.864
 2246POPC   GL230674  36.984  22.311   8.864
 2246POPC   C1A30675  36.917  22.170   8.564
 2246POPC   D2A30676  36.940  22.147   8.264
 2246POPC   C3A30677  36.925  22.152   7.964
 2246POPC   C4A30678  36.903  22.205   7.664
 2246POPC   C1B30679  37.052  22.337   8.564
 2246POPC   C2B30680  37.007  22.412   8.264
 2246POPC   C3B30681  37.086  22.409   7.964
 2246POPC   C4B30682  37.030  22.362   7.664
 2247POPC   NC330683  42.352   6.638   9.464
 2247POPC   PO430684  42.332   6.616   9.164
 2247POPC   GL130685  42.362   6.630   8.864
 2247POPC   GL230686  42.407   6.708   8.864
 2247POPC   C1A30687  42.340   6.619   8.564
 2247POPC   D2A30688  42.305   6.691   8.264
 2247POPC   C3A30689  42.285   6.685   7.964
 2247POPC   C4A30690  42.383   6.673   7.664
 2247POPC   C1B30691  42.484   6.844   8.564
 2247POPC   C2B30692  42.493   6.882   8.264
 2247POPC   C3B30693  42.461   6.884   7.964
 2247POPC   C4B30694  42.486   6.828   7.664
 2248POPC   NC330695  10.561  38.494   9.464
 2248POPC   PO430696  10.500  38.493   9.164
 2248POPC   GL130697  10.541  38.438   8.864
 2248POPC   GL230698  10.626  38.462   8.864
 2248POPC   C1A30699  10.497  38.492   8.564
 2248POPC   D2A30700  10.534  38.458   8.264
 2248POPC   C3A30701  10.523  38.464   7.964
 2248POPC   C4A30702  10.509  38.438   7.664
 2248POPC   C1B30703  10.797  38.546   8.564
 2248POPC   C2B30704  10.752  38.558   8.264
 2248POPC   C3B30705  10.705  38.587   7.964
 2248POPC   C4B30706  10.719  38.583   7.664
 2249POPC   NC330707  20.645   5.843   9.464
 2249POPC   PO430708  20.566   5.897   9.164
 2249POPC   GL130709  20.620   5.867   8.864
 2249POPC   GL230710  20.621   5.995   8.864
 2249POPC   C1A30711  20.575   5.862   8.564
 2249POPC   D2A30712  20.606   5.830   8.264
 2249POPC   C3A30713  20.625   5.918   7.964
 2249POPC   C4A30714  20.624   5.826   7.664
 2249POPC   C1B30715  20.553   6.098   8.564
 2249POPC   C2B30716  20.563   6.073   8.264
 2249POPC   C3B30717  20.534   6.135   7.964
 2249POPC   C4B30718  20.537   6.062   7.664
 2250POPC   NC330719  32.274   4.327   9.464
 2250POPC   PO430720  32.241   4.348   9.164
 2250POPC   GL130721  32.287   4.274   8.864
 2250POPC   GL230722  32.273   4.208   8.864
 2250POPC   C1A30723  32.207   4.294   8.564
 2250POPC   D2A30724  32.257   4.340   8.264
 2250POPC   C3A30725  32.268   4.367   7.964
 2250POPC   C4A30726  32.261   4.364   7.664
 2250POPC   C1B30727  32.320   4.091   8.564
 2250POPC   C2B30728  32.317   4.119   8.264
 2250POPC   C3B30729  32.391   4.093   7.964
 2250POPC   C4B30730  32.356   4.041   7.664
 2251POPC   NC330731  38.443   7.468   9.464
 2251POPC   PO430732  38.494   7.404   9.164
 2251POPC   GL130733  38.438   7.437   8.864
 2251POPC   GL230734  38.544   7.299   8.864
 2251POPC   C1A30735  38.439   7.434   8.564
 2251POPC   D2A30736  38.465   7.468   8.264
 2251POPC   C3A30737  38.440   7.446   7.964
 2251POPC   C4A30738  38.484   7.448   7.664
 2251POPC   C1B30739  38.655   7.252   8.564
 2251POPC   C2B30740  38.607   7.276   8.264
 2251POPC   C3B30741  38.667   7.209   7.964
 2251POPC   C4B30742  38.642   7.278   7.664
 2252POPC   NC330743  21.338  33.775   9.464
 2252POPC   PO430744  21.383  33.817   9.164
 2252POPC   GL130745  21.358  33.771   8.864
 2252POPC   GL230746  21.516  33.724   8.864
 2252POPC   C1A30747  21.368  33.848   8.564
 2252POPC   D2A30748  21.410  33.798   8.264
 2252POPC   C3A30749  21.390  33.770   7.964
 2252POPC   C4A30750  21.410  33.786   7.664
 2252POPC   C1B30751  21.609  33.733   8.564
 2252POPC   C2B30752  21.661  33.747   8.264
 2252POPC   C3B30753  21.582  33.682   7.964
 2252POPC   C4B30754  21.630  33.669   7.664
 2253POPC   NC330755  43.156   7.434   9.464
 2253POPC   PO430756  43.112   7.442   9.164
 2253POPC   GL130757  43.148   7.415   8.864
 2253POPC   GL230758  43.074   7.502   8.864
 2253POPC   C1A30759  43.113   7.426   8.564
 2253POPC   D2A30760  43.084   7.406   8.264
 2253POPC   C3A30761  43.080   7.409   7.964
 2253POPC   C4A30762  43.104   7.433   7.664
 2253POPC   C1B30763  43.131   7.652   8.564
 2253POPC   C2B30764  43.103   7.678   8.264
 2253POPC   C3B30765  43.049   7.626   7.964
 2253POPC   C4B30766  43.058   7.651   7.664
 2254POPC   NC330767  36.875  22.904   9.464
 2254POPC   PO430768  36.952  22.920   9.164
 2254POPC   GL130769  36.864  22.917   8.864
 2254POPC   GL230770  36.887  23.038   8.864
 2254POPC   C1A30771  36.918  22.961   8.564
 2254POPC   D2A30772  36.947  22.904   8.264
 2254POPC   C3A30773  36.948  22.915   7.964
 2254POPC   C4A30774  36.908  22.914   7.664
 2254POPC   C1B30775  36.796  23.140   8.564
 2254POPC   C2B30776  36.794  23.180   8.264
 2254POPC   C3B30777  36.808  23.230   7.964
 2254POPC   C4B30778  36.859  23.209   7.664
 2255POPC   NC330779  28.354  14.358   9.464
 2255POPC   PO430780  28.354  14.385   9.164
 2255POPC   GL130781  28.375  14.376   8.864
 2255POPC   GL230782  28.458  14.270   8.864
 2255POPC   C1A30783  28.370  14.380   8.564
 2255POPC   D2A30784  28.388  14.425   8.264
 2255POPC   C3A30785  28.355  14.372   7.964
 2255POPC   C4A30786  28.377  14.436   7.664
 2255POPC   C1B30787  28.475  14.179   8.564
 2255POPC   C2B30788  28.431  14.208   8.264
 2255POPC   C3B30789  28.432  14.145   7.964
 2255POPC   C4B30790  28.511  14.223   7.664
 2256POPC   NC330791   8.926   8.185   9.464
 2256POPC   PO430792   8.939   8.225   9.164
 2256POPC   GL130793   8.973   8.156   8.864
 2256POPC   GL230794   9.019   8.319   8.864
 2256POPC   C1A30795   8.928   8.200   8.564
 2256POPC   D2A30796   8.938   8.181   8.264
 2256POPC   C3A30797   8.960   8.156   7.964
 2256POPC   C4A30798   8.927   8.170   7.664
 2256POPC   C1B30799   9.045   8.383   8.564
 2256POPC   C2B30800   9.041   8.422   8.264
 2256POPC   C3B30801   9.065   8.393   7.964
 2256POPC   C4B30802   9.054   8.471   7.664
 2257POPC   NC330803  22.936  42.334   9.464
 2257POPC   PO430804  22.945  42.326   9.164
 2257POPC   GL130805  22.904  42.351   8.864
 2257POPC   GL230806  23.050  42.274   8.864
 2257POPC   C1A30807  22.970  42.316   8.564
 2257POPC   D2A30808  22.909  42.353   8.264
 2257POPC   C3A30809  22.936  42.312   7.964
 2257POPC   C4A30810  22.956  42.340   7.664
 2257POPC   C1B30811  23.147  42.134   8.564
 2257POPC   C2B30812  23.090  42.186   8.264
 2257POPC   C3B30813  23.070  42.157   7.964
 2257POPC   C4B30814  23.162  42.191   7.664
 2258POPC   NC330815  27.600  24.528   9.464
 2258POPC   PO430816  27.553  24.474   9.164
 2258POPC   GL130817  27.580  24.448   8.864
 2258POPC   GL230818  27.752  24.438   8.864
 2258POPC   C1A30819  27.639  24.505   8.564
 2258POPC   D2A30820  27.550  24.529   8.264
 2258POPC   C3A30821  27.581  24.444   7.964
 2258POPC   C4A30822  27.579  24.465   7.664
 2258POPC   C1B30823  27.891  24.493   8.564
 2258POPC   C2B30824  27.870  24.434   8.264
 2258POPC   C3B30825  27.880  24.465   7.964
 2258POPC   C4B30826  27.865  24.447   7.664
 2259POPC   NC330827   0.468  29.161   9.464
 2259POPC   PO430828   0.388  29.188   9.164
 2259POPC   GL130829   0.419  29.161   8.864
 2259POPC   GL230830   0.500  29.024   8.864
 2259POPC   C1A30831   0.418  29.140   8.564
 2259POPC   D2A30832   0.418  29.121   8.264
 2259POPC   C3A30833   0.473  29.167   7.964
 2259POPC   C4A30834   0.440  29.162   7.664
 2259POPC   C1B30835   0.611  29.006   8.564
 2259POPC   C2B30836   0.598  28.960   8.264
 2259POPC   C3B30837   0.564  28.983   7.964
 2259POPC   C4B30838   0.619  28.984   7.664
 2260POPC   NC330839  29.153  10.479   9.464
 2260POPC   PO430840  29.133  10.550   9.164
 2260POPC   GL130841  29.131  10.565   8.864
 2260POPC   GL230842  29.187  10.661   8.864
 2260POPC   C1A30843  29.163  10.503   8.564
 2260POPC   D2A30844  29.160  10.503   8.264
 2260POPC   C3A30845  29.117  10.536   7.964
 2260POPC   C4A30846  29.149  10.553   7.664
 2260POPC   C1B30847  29.241  10.801   8.564
 2260POPC   C2B30848  29.264  10.797   8.264
 2260POPC   C3B30849  29.170  10.743   7.964
 2260POPC   C4B30850  29.254  10.720   7.664
 2261POPC   NC330851  19.075   3.517   9.464
 2261POPC   PO430852  19.054   3.535   9.164
 2261POPC   GL130853  19.107   3.549   8.864
 2261POPC   GL230854  19.114   3.472   8.864
 2261POPC   C1A30855  19.107   3.530   8.564
 2261POPC   D2A30856  19.022   3.537   8.264
 2261POPC   C3A30857  19.073   3.541   7.964
 2261POPC   C4A30858  19.030   3.542   7.664
 2261POPC   C1B30859  19.194   3.281   8.564
 2261POPC   C2B30860  19.192   3.360   8.264
 2261POPC   C3B30861  19.173   3.368   7.964
 2261POPC   C4B30862  19.207   3.288   7.664
 2262POPC   NC330863  12.115  13.591   9.464
 2262POPC   PO430864  12.088  13.612   9.164
 2262POPC   GL130865  12.091  13.616   8.864
 2262POPC   GL230866  12.172  13.502   8.864
 2262POPC   C1A30867  12.103  13.640   8.564
 2262POPC   D2A30868  12.111  13.609   8.264
 2262POPC   C3A30869  12.119  13.645   7.964
 2262POPC   C4A30870  12.040  13.593   7.664
 2262POPC   C1B30871  12.266  13.476   8.564
 2262POPC   C2B30872  12.222  13.471   8.264
 2262POPC   C3B30873  12.272  13.404   7.964
 2262POPC   C4B30874  12.206  13.451   7.664
 2263POPC   NC330875  22.981  22.952   9.464
 2263POPC   PO430876  22.956  22.920   9.164
 2263POPC   GL130877  22.981  22.987   8.864
 2263POPC   GL230878  22.990  22.853   8.864
 2263POPC   C1A30879  22.897  22.960   8.564
 2263POPC   D2A30880  22.905  22.988   8.264
 2263POPC   C3A30881  22.936  22.972   7.964
 2263POPC   C4A30882  22.962  22.920   7.664
 2263POPC   C1B30883  23.100  22.781   8.564
 2263POPC   C2B30884  23.174  22.751   8.264
 2263POPC   C3B30885  23.123  22.791   7.964
 2263POPC   C4B30886  23.129  22.773   7.664
 2264POPC   NC330887  26.064  30.700   9.464
 2264POPC   PO430888  26.083  30.666   9.164
 2264POPC   GL130889  26.091  30.712   8.864
 2264POPC   GL230890  26.144  30.707   8.864
 2264POPC   C1A30891  25.995  30.657   8.564
 2264POPC   D2A30892  26.005  30.723   8.264
 2264POPC   C3A30893  26.020  30.701   7.964
 2264POPC   C4A30894  25.995  30.700   7.664
 2264POPC   C1B30895  26.302  30.675   8.564
 2264POPC   C2B30896  26.266  30.657   8.264
 2264POPC   C3B30897  26.289  30.682   7.964
 2264POPC   C4B30898  26.295  30.658   7.664
 2265POPC   NC330899  43.094  41.529   9.464
 2265POPC   PO430900  43.081  41.514   9.164
 2265POPC   GL130901  43.077  41.523   8.864
 2265POPC   GL230902  43.170  41.674   8.864
 2265POPC   C1A30903  43.095  41.581   8.564
 2265POPC   D2A30904  43.160  41.576   8.264
 2265POPC   C3A30905  43.114  41.565   7.964
 2265POPC   C4A30906  43.153  41.566   7.664
 2265POPC   C1B30907  43.284  41.705   8.564
 2265POPC   C2B30908  43.327  41.702   8.264
 2265POPC   C3B30909  43.290  41.716   7.964
 2265POPC   C4B30910  43.328  41.680   7.664
 2266POPC   NC330911   9.729   5.115   9.464
 2266POPC   PO430912   9.775   5.050   9.164
 2266POPC   GL130913   9.779   5.110   8.864
 2266POPC   GL230914   9.709   5.240   8.864
 2266POPC   C1A30915   9.734   5.098   8.564
 2266POPC   D2A30916   9.700   5.047   8.264
 2266POPC   C3A30917   9.716   5.084   7.964
 2266POPC   C4A30918   9.754   5.097   7.664
 2266POPC   C1B30919   9.715   5.320   8.564
 2266POPC   C2B30920   9.774   5.358   8.264
 2266POPC   C3B30921   9.692   5.338   7.964
 2266POPC   C4B30922   9.781   5.382   7.664
 2267POPC   NC330923  40.821  41.547   9.464
 2267POPC   PO430924  40.745  41.541   9.164
 2267POPC   GL130925  40.762  41.578   8.864
 2267POPC   GL230926  40.852  41.607   8.864
 2267POPC   C1A30927  40.767  41.554   8.564
 2267POPC   D2A30928  40.740  41.521   8.264
 2267POPC   C3A30929  40.776  41.538   7.964
 2267POPC   C4A30930  40.819  41.568   7.664
 2267POPC   C1B30931  40.958  41.752   8.564
 2267POPC   C2B30932  40.969  41.723   8.264
 2267POPC   C3B30933  40.939  41.712   7.964
 2267POPC   C4B30934  40.994  41.777   7.664
 2268POPC   NC330935  15.944  36.081   9.464
 2268POPC   PO430936  15.915  36.150   9.164
 2268POPC   GL130937  15.922  36.137   8.864
 2268POPC   GL230938  16.040  36.116   8.864
 2268POPC   C1A30939  15.974  36.099   8.564
 2268POPC   D2A30940  15.916  36.082   8.264
 2268POPC   C3A30941  15.954  36.093   7.964
 2268POPC   C4A30942  15.981  36.146   7.664
 2268POPC   C1B30943  16.188  36.044   8.564
 2268POPC   C2B30944  16.234  36.078   8.264
 2268POPC   C3B30945  16.168  36.068   7.964
 2268POPC   C4B30946  16.185  36.062   7.664
 2269POPC   NC330947   4.363  18.324   9.464
 2269POPC   PO430948   4.361  18.303   9.164
 2269POPC   GL130949   4.365  18.254   8.864
 2269POPC   GL230950   4.413  18.317   8.864
 2269POPC   C1A30951   4.356  18.252   8.564
 2269POPC   D2A30952   4.324  18.301   8.264
 2269POPC   C3A30953   4.312  18.302   7.964
 2269POPC   C4A30954   4.280  18.266   7.664
 2269POPC   C1B30955   4.534  18.339   8.564
 2269POPC   C2B30956   4.580  18.350   8.264
 2269POPC   C3B30957   4.504  18.378   7.964
 2269POPC   C4B30958   4.558  18.380   7.664
 2270POPC   NC330959  17.548  42.337   9.464
 2270POPC   PO430960  17.546  42.355   9.164
 2270POPC   GL130961  17.514  42.289   8.864
 2270POPC   GL230962  17.440  42.382   8.864
 2270POPC   C1A30963  17.499  42.307   8.564
 2270POPC   D2A30964  17.520  42.333   8.264
 2270POPC   C3A30965  17.528  42.362   7.964
 2270POPC   C4A30966  17.468  42.341   7.664
 2270POPC   C1B30967  17.279  42.484   8.564
 2270POPC   C2B30968  17.345  42.468   8.264
 2270POPC   C3B30969  17.264  42.524   7.964
 2270POPC   C4B30970  17.319  42.532   7.664
 2271POPC   NC330971  27.642  18.243   9.464
 2271POPC   PO430972  27.600  18.272   9.164
 2271POPC   GL130973  27.551  18.310   8.864
 2271POPC   GL230974  27.665  18.157   8.864
 2271POPC   C1A30975  27.556  18.320   8.564
 2271POPC   D2A30976  27.564  18.309   8.264
 2271POPC   C3A30977  27.630  18.267   7.964
 2271POPC   C4A30978  27.610  18.271   7.664
 2271POPC   C1B30979  27.689  18.047   8.564
 2271POPC   C2B30980  27.659  18.019   8.264
 2271POPC   C3B30981  27.649  18.053   7.964
 2271POPC   C4B30982  27.621  18.078   7.664
 2272POPC   NC330983  19.825  36.876   9.464
 2272POPC   PO430984  19.804  36.904   9.164
 2272POPC   GL130985  19.876  36.857   8.864
 2272POPC   GL230986  19.890  36.760   8.864
 2272POPC   C1A30987  19.879  36.864   8.564
 2272POPC   D2A30988  19.859  36.950   8.264
 2272POPC   C3A30989  19.818  36.914   7.964
 2272POPC   C4A30990  19.877  36.951   7.664
 2272POPC   C1B30991  19.855  36.628   8.564
 2272POPC   C2B30992  19.947  36.670   8.264
 2272POPC   C3B30993  19.881  36.687   7.964
 2272POPC   C4B30994  19.952  36.680   7.664
 2273POPC   NC330995   2.762  18.299   9.464
 2273POPC   PO430996   2.742  18.258   9.164
 2273POPC   GL130997   2.749  18.314   8.864
 2273POPC   GL230998   2.898  18.292   8.864
 2273POPC   C1A30999   2.768  18.316   8.564
 2273POPC   D2A31000   2.787  18.260   8.264
 2273POPC   C3A31001   2.716  18.291   7.964
 2273POPC   C4A31002   2.732  18.246   7.664
 2273POPC   C1B31003   2.969  18.351   8.564
 2273POPC   C2B31004   3.001  18.318   8.264
 2273POPC   C3B31005   3.005  18.335   7.964
 2273POPC   C4B31006   2.991  18.359   7.664
 2274POPC   NC331007  12.084  36.942   9.464
 2274POPC   PO431008  12.068  36.894   9.164
 2274POPC   GL131009  12.054  36.918   8.864
 2274POPC   GL231010  12.177  36.981   8.864
 2274POPC   C1A31011  12.093  36.914   8.564
 2274POPC   D2A31012  12.097  36.904   8.264
 2274POPC   C3A31013  12.056  36.873   7.964
 2274POPC   C4A31014  12.070  36.945   7.664
 2274POPC   C1B31015  12.234  37.060   8.564
 2274POPC   C2B31016  12.262  37.064   8.264
 2274POPC   C3B31017  12.292  37.118   7.964
 2274POPC   C4B31018  12.297  37.097   7.664
 2275POPC   NC331019   8.163  11.339   9.464
 2275POPC   PO431020   8.226  11.345   9.164
 2275POPC   GL131021   8.164  11.260   8.864
 2275POPC   GL231022   8.335  11.270   8.864
 2275POPC   C1A31023   8.191  11.310   8.564
 2275POPC   D2A31024   8.199  11.310   8.264
 2275POPC   C3A31025   8.227  11.273   7.964
 2275POPC   C4A31026   8.184  11.296   7.664
 2275POPC   C1B31027   8.447  11.270   8.564
 2275POPC   C2B31028   8.417  11.221   8.264
 2275POPC   C3B31029   8.423  11.264   7.964
 2275POPC   C4B31030   8.425  11.270   7.664
 2276POPC   NC331031  19.845  15.997   9.464
 2276POPC   PO431032  19.821  16.003   9.164
 2276POPC   GL131033  19.833  15.958   8.864
 2276POPC   GL231034  19.791  16.008   8.864
 2276POPC   C1A31035  19.851  15.933   8.564
 2276POPC   D2A31036  19.808  15.980   8.264
 2276POPC   C3A31037  19.861  15.974   7.964
 2276POPC   C4A31038  19.869  15.980   7.664
 2276POPC   C1B31039  19.693  16.146   8.564
 2276POPC   C2B31040  19.680  16.166   8.264
 2276POPC   C3B31041  19.733  16.154   7.964
 2276POPC   C4B31042  19.674  16.113   7.664
 2277POPC   NC331043  43.063  35.337   9.464
 2277POPC   PO431044  43.068  35.313   9.164
 2277POPC   GL131045  43.075  35.328   8.864
 2277POPC   GL231046  43.086  35.270   8.864
 2277POPC   C1A31047  43.100  35.318   8.564
 2277POPC   D2A31048  43.155  35.370   8.264
 2277POPC   C3A31049  43.110  35.348   7.964
 2277POPC   C4A31050  43.149  35.370   7.664
 2277POPC   C1B31051  43.159  35.119   8.564
 2277POPC   C2B31052  43.152  35.061   8.264
 2277POPC   C3B31053  43.192  35.074   7.964
 2277POPC   C4B31054  43.194  35.070   7.664
 2278POPC   NC331055  24.536  42.332   9.464
 2278POPC   PO431056  24.456  42.332   9.164
 2278POPC   GL131057  24.519  42.299   8.864
 2278POPC   GL231058  24.535  42.219   8.864
 2278POPC   C1A31059  24.471  42.371   8.564
 2278POPC   D2A31060  24.486  42.299   8.264
 2278POPC   C3A31061  24.453  42.321   7.964
 2278POPC   C4A31062  24.446  42.294   7.664
 2278POPC   C1B31063  24.497  42.114   8.564
 2278POPC   C2B31064  24.538  42.110   8.264
 2278POPC   C3B31065  24.517  42.043   7.964
 2278POPC   C4B31066  24.539  42.097   7.664
 2279POPC   NC331067  10.525  36.163   9.464
 2279POPC   PO431068  10.503  36.146   9.164
 2279POPC   GL131069  10.563  36.087   8.864
 2279POPC   GL231070  10.392  36.089   8.864
 2279POPC   C1A31071  10.559  36.114   8.564
 2279POPC   D2A31072  10.505  36.160   8.264
 2279POPC   C3A31073  10.491  36.135   7.964
 2279POPC   C4A31074  10.570  36.133   7.664
 2279POPC   C1B31075  10.312  36.125   8.564
 2279POPC   C2B31076  10.235  36.134   8.264
 2279POPC   C3B31077  10.285  36.124   7.964
 2279POPC   C4B31078  10.274  36.101   7.664
 2280POPC   NC331079  33.021   1.231   9.464
 2280POPC   PO431080  33.048   1.231   9.164
 2280POPC   GL131081  33.021   1.256   8.864
 2280POPC   GL231082  33.026   1.291   8.864
 2280POPC   C1A31083  32.993   1.174   8.564
 2280POPC   D2A31084  33.002   1.204   8.264
 2280POPC   C3A31085  33.009   1.240   7.964
 2280POPC   C4A31086  33.073   1.255   7.664
 2280POPC   C1B31087  32.911   1.474   8.564
 2280POPC   C2B31088  32.916   1.494   8.264
 2280POPC   C3B31089  32.963   1.484   7.964
 2280POPC   C4B31090  32.971   1.432   7.664
 2281POPC   NC331091  12.846   0.400   9.464
 2281POPC   PO431092  12.831   0.451   9.164
 2281POPC   GL131093  12.879   0.436   8.864
 2281POPC   GL231094  12.824   0.528   8.864
 2281POPC   C1A31095  12.873   0.464   8.564
 2281POPC   D2A31096  12.816   0.441   8.264
 2281POPC   C3A31097  12.892   0.487   7.964
 2281POPC   C4A31098  12.893   0.465   7.664
 2281POPC   C1B31099  12.788   0.630   8.564
 2281POPC   C2B31100  12.751   0.676   8.264
 2281POPC   C3B31101  12.780   0.640   7.964
 2281POPC   C4B31102  12.724   0.625   7.664
 2282POPC   NC331103  41.513  30.665   9.464
 2282POPC   PO431104  41.523  30.714   9.164
 2282POPC   GL131105  41.543  30.650   8.864
 2282POPC   GL231106  41.679  30.659   8.864
 2282POPC   C1A31107  41.537  30.731   8.564
 2282POPC   D2A31108  41.527  30.677   8.264
 2282POPC   C3A31109  41.544  30.735   7.964
 2282POPC   C4A31110  41.607  30.739   7.664
 2282POPC   C1B31111  41.842  30.708   8.564
 2282POPC   C2B31112  41.843  30.702   8.264
 2282POPC   C3B31113  41.832  30.715   7.964
 2282POPC   C4B31114  41.773  30.656   7.664
 2283POPC   NC331115  27.590  42.364   9.464
 2283POPC   PO431116  27.546  42.303   9.164
 2283POPC   GL131117  27.602  42.363   8.864
 2283POPC   GL231118  27.602  42.407   8.864
 2283POPC   C1A31119  27.604  42.311   8.564
 2283POPC   D2A31120  27.586  42.322   8.264
 2283POPC   C3A31121  27.613  42.382   7.964
 2283POPC   C4A31122  27.592  42.301   7.664
 2283POPC   C1B31123  27.505  42.588   8.564
 2283POPC   C2B31124  27.511  42.588   8.264
 2283POPC   C3B31125  27.534  42.593   7.964
 2283POPC   C4B31126  27.477  42.587   7.664
 2284POPC   NC331127  41.599  44.637   9.464
 2284POPC   PO431128  41.608  44.670   9.164
 2284POPC   GL131129  41.517  44.624   8.864
 2284POPC   GL231130  41.679  44.709   8.864
 2284POPC   C1A31131  41.533  44.640   8.564
 2284POPC   D2A31132  41.575  44.673   8.264
 2284POPC   C3A31133  41.544  44.641   7.964
 2284POPC   C4A31134  41.562  44.671   7.664
 2284POPC   C1B31135  41.856  44.702   8.564
 2284POPC   C2B31136  41.850  44.675   8.264
 2284POPC   C3B31137  41.763  44.719   7.964
 2284POPC   C4B31138  41.810  44.707   7.664
 2285POPC   NC331139  40.808  23.701   9.464
 2285POPC   PO431140  40.792  23.681   9.164
 2285POPC   GL131141  40.796  23.729   8.864
 2285POPC   GL231142  40.771  23.618   8.864
 2285POPC   C1A31143  40.795  23.682   8.564
 2285POPC   D2A31144  40.760  23.748   8.264
 2285POPC   C3A31145  40.805  23.721   7.964
 2285POPC   C4A31146  40.739  23.713   7.664
 2285POPC   C1B31147  40.751  23.429   8.564
 2285POPC   C2B31148  40.821  23.417   8.264
 2285POPC   C3B31149  40.785  23.460   7.964
 2285POPC   C4B31150  40.814  23.473   7.664
 2286POPC   NC331151  19.018  15.135   9.464
 2286POPC   PO431152  19.021  15.208   9.164
 2286POPC   GL131153  19.058  15.206   8.864
 2286POPC   GL231154  19.098  15.090   8.864
 2286POPC   C1A31155  19.010  15.156   8.564
 2286POPC   D2A31156  19.057  15.149   8.264
 2286POPC   C3A31157  19.040  15.178   7.964
 2286POPC   C4A31158  19.092  15.206   7.664
 2286POPC   C1B31159  19.104  14.888   8.564
 2286POPC   C2B31160  19.131  14.924   8.264
 2286POPC   C3B31161  19.087  14.953   7.964
 2286POPC   C4B31162  19.162  14.914   7.664
 2287POPC   NC331163  39.981  36.892   9.464
 2287POPC   PO431164  39.990  36.909   9.164
 2287POPC   GL131165  39.959  36.908   8.864
 2287POPC   GL231166  39.892  36.911   8.864
 2287POPC   C1A31167  39.976  36.874   8.564
 2287POPC   D2A31168  39.995  36.884   8.264
 2287POPC   C3A31169  39.981  36.916   7.964
 2287POPC   C4A31170  40.015  36.887   7.664
 2287POPC   C1B31171  39.829  37.047   8.564
 2287POPC   C2B31172  39.794  36.991   8.264
 2287POPC   C3B31173  39.755  36.998   7.964
 2287POPC   C4B31174  39.809  36.966   7.664
 2288POPC   NC331175  37.636   1.165   9.464
 2288POPC   PO431176  37.684   1.237   9.164
 2288POPC   GL131177  37.715   1.230   8.864
 2288POPC   GL231178  37.797   1.267   8.864
 2288POPC   C1A31179  37.665   1.197   8.564
 2288POPC   D2A31180  37.673   1.233   8.264
 2288POPC   C3A31181  37.702   1.184   7.964
 2288POPC   C4A31182  37.691   1.186   7.664
 2288POPC   C1B31183  37.821   1.447   8.564
 2288POPC   C2B31184  37.780   1.377   8.264
 2288POPC   C3B31185  37.795   1.380   7.964
 2288POPC   C4B31186  37.792   1.452   7.664
 2289POPC   NC331187  22.966  32.228   9.464
 2289POPC   PO431188  22.982  32.290   9.164
 2289POPC   GL131189  22.914  32.293   8.864
 2289POPC   GL231190  22.882  32.144   8.864
 2289POPC   C1A31191  22.954  32.246   8.564
 2289POPC   D2A31192  22.950  32.245   8.264
 2289POPC   C3A31193  22.948  32.266   7.964
 2289POPC   C4A31194  22.985  32.202   7.664
 2289POPC   C1B31195  22.744  32.089   8.564
 2289POPC   C2B31196  22.740  32.060   8.264
 2289POPC   C3B31197  22.765  32.110   7.964
 2289POPC   C4B31198  22.793  32.071   7.664
 2290POPC   NC331199  25.265  41.597   9.464
 2290POPC   PO431200  25.270  41.562   9.164
 2290POPC   GL131201  25.219  41.594   8.864
 2290POPC   GL231202  25.142  41.526   8.864
 2290POPC   C1A31203  25.269  41.571   8.564
 2290POPC   D2A31204  25.275  41.569   8.264
 2290POPC   C3A31205  25.252  41.557   7.964
 2290POPC   C4A31206  25.261  41.531   7.664
 2290POPC   C1B31207  25.048  41.499   8.564
 2290POPC   C2B31208  24.985  41.500   8.264
 2290POPC   C3B31209  25.017  41.464   7.964
 2290POPC   C4B31210  25.015  41.453   7.664
 2291POPC   NC331211  28.387   1.177   9.464
 2291POPC   PO431212  28.335   1.245   9.164
 2291POPC   GL131213  28.341   1.209   8.864
 2291POPC   GL231214  28.478   1.349   8.864
 2291POPC   C1A31215  28.391   1.213   8.564
 2291POPC   D2A31216  28.363   1.250   8.264
 2291POPC   C3A31217  28.340   1.185   7.964
 2291POPC   C4A31218  28.353   1.210   7.664
 2291POPC   C1B31219  28.500   1.427   8.564
 2291POPC   C2B31220  28.543   1.390   8.264
 2291POPC   C3B31221  28.532   1.388   7.964
 2291POPC   C4B31222  28.585   1.399   7.664
 2292POPC   NC331223   9.715   8.174   9.464
 2292POPC   PO431224   9.764   8.220   9.164
 2292POPC   GL131225   9.751   8.185   8.864
 2292POPC   GL231226   9.681   8.297   8.864
 2292POPC   C1A31227   9.747   8.231   8.564
 2292POPC   D2A31228   9.722   8.185   8.264
 2292POPC   C3A31229   9.750   8.172   7.964
 2292POPC   C4A31230   9.771   8.239   7.664
 2292POPC   C1B31231   9.711   8.412   8.564
 2292POPC   C2B31232   9.662   8.396   8.264
 2292POPC   C3B31233   9.691   8.475   7.964
 2292POPC   C4B31234   9.714   8.471   7.664
 2293POPC   NC331235  16.000  36.869   9.464
 2293POPC   PO431236  15.955  36.873   9.164
 2293POPC   GL131237  15.957  36.932   8.864
 2293POPC   GL231238  15.912  36.784   8.864
 2293POPC   C1A31239  15.967  36.933   8.564
 2293POPC   D2A31240  15.909  36.865   8.264
 2293POPC   C3A31241  15.914  36.927   7.964
 2293POPC   C4A31242  15.958  36.904   7.664
 2293POPC   C1B31243  15.852  36.640   8.564
 2293POPC   C2B31244  15.877  36.674   8.264
 2293POPC   C3B31245  15.830  36.677   7.964
 2293POPC   C4B31246  15.851  36.647   7.664
 2294POPC   NC331247  39.265  19.038   9.464
 2294POPC   PO431248  39.195  19.054   9.164
 2294POPC   GL131249  39.264  19.065   8.864
 2294POPC   GL231250  39.150  19.201   8.864
 2294POPC   C1A31251  39.271  19.070   8.564
 2294POPC   D2A31252  39.239  19.098   8.264
 2294POPC   C3A31253  39.199  19.073   7.964
 2294POPC   C4A31254  39.244  19.097   7.664
 2294POPC   C1B31255  39.100  19.296   8.564
 2294POPC   C2B31256  39.111  19.312   8.264
 2294POPC   C3B31257  39.180  19.298   7.964
 2294POPC   C4B31258  39.104  19.300   7.664
 2295POPC   NC331259  38.502  29.146   9.464
 2295POPC   PO431260  38.443  29.168   9.164
 2295POPC   GL131261  38.427  29.156   8.864
 2295POPC   GL231262  38.381  29.083   8.864
 2295POPC   C1A31263  38.419  29.173   8.564
 2295POPC   D2A31264  38.470  29.104   8.264
 2295POPC   C3A31265  38.495  29.184   7.964
 2295POPC   C4A31266  38.476  29.097   7.664
 2295POPC   C1B31267  38.320  28.901   8.564
 2295POPC   C2B31268  38.292  28.905   8.264
 2295POPC   C3B31269  38.284  28.937   7.964
 2295POPC   C4B31270  38.336  28.896   7.664
 2296POPC   NC331271  19.061  23.745   9.464
 2296POPC   PO431272  19.102  23.701   9.164
 2296POPC   GL131273  19.013  23.684   8.864
 2296POPC   GL231274  19.073  23.548   8.864
 2296POPC   C1A31275  19.071  23.683   8.564
 2296POPC   D2A31276  19.100  23.741   8.264
 2296POPC   C3A31277  19.095  23.739   7.964
 2296POPC   C4A31278  19.065  23.755   7.664
 2296POPC   C1B31279  19.003  23.490   8.564
 2296POPC   C2B31280  18.969  23.455   8.264
 2296POPC   C3B31281  19.037  23.432   7.964
 2296POPC   C4B31282  19.022  23.514   7.664
 2297POPC   NC331283  14.414  27.575   9.464
 2297POPC   PO431284  14.376  27.605   9.164
 2297POPC   GL131285  14.389  27.557   8.864
 2297POPC   GL231286  14.296  27.687   8.864
 2297POPC   C1A31287  14.427  27.585   8.564
 2297POPC   D2A31288  14.364  27.581   8.264
 2297POPC   C3A31289  14.403  27.585   7.964
 2297POPC   C4A31290  14.413  27.577   7.664
 2297POPC   C1B31291  14.182  27.698   8.564
 2297POPC   C2B31292  14.181  27.657   8.264
 2297POPC   C3B31293  14.169  27.681   7.964
 2297POPC   C4B31294  14.166  27.697   7.664
 2298POPC   NC331295  25.277  27.643   9.464
 2298POPC   PO431296  25.303  27.557   9.164
 2298POPC   GL131297  25.222  27.557   8.864
 2298POPC   GL231298  25.289  27.727   8.864
 2298POPC   C1A31299  25.224  27.593   8.564
 2298POPC   D2A31300  25.306  27.638   8.264
 2298POPC   C3A31301  25.217  27.567   7.964
 2298POPC   C4A31302  25.314  27.577   7.664
 2298POPC   C1B31303  25.249  27.876   8.564
 2298POPC   C2B31304  25.266  27.853   8.264
 2298POPC   C3B31305  25.299  27.804   7.964
 2298POPC   C4B31306  25.307  27.873   7.664
 2299POPC   NC331307  43.872  12.098   9.464
 2299POPC   PO431308  43.846  12.090   9.164
 2299POPC   GL131309  43.852  12.027   8.864
 2299POPC   GL231310  43.785  12.123   8.864
 2299POPC   C1A31311  43.917  12.095   8.564
 2299POPC   D2A31312  43.908  12.122   8.264
 2299POPC   C3A31313  43.880  12.095   7.964
 2299POPC   C4A31314  43.908  12.072   7.664
 2299POPC   C1B31315  43.714  12.249   8.564
 2299POPC   C2B31316  43.685  12.210   8.264
 2299POPC   C3B31317  43.677  12.235   7.964
 2299POPC   C4B31318  43.726  12.204   7.664
 2300POPC   NC331319  40.803  28.350   9.464
 2300POPC   PO431320  40.757  28.371   9.164
 2300POPC   GL131321  40.752  28.377   8.864
 2300POPC   GL231322  40.661  28.321   8.864
 2300POPC   C1A31323  40.824  28.372   8.564
 2300POPC   D2A31324  40.755  28.418   8.264
 2300POPC   C3A31325  40.807  28.326   7.964
 2300POPC   C4A31326  40.786  28.409   7.664
 2300POPC   C1B31327  40.607  28.204   8.564
 2300POPC   C2B31328  40.609  28.187   8.264
 2300POPC   C3B31329  40.562  28.247   7.964
 2300POPC   C4B31330  40.543  28.239   7.664
 2301POPC   NC331331  28.369  12.108   9.464
 2301POPC   PO431332  28.340  12.037   9.164
 2301POPC   GL131333  28.371  12.034   8.864
 2301POPC   GL231334  28.361  11.924   8.864
 2301POPC   C1A31335  28.354  12.106   8.564
 2301POPC   D2A31336  28.357  12.057   8.264
 2301POPC   C3A31337  28.351  12.075   7.964
 2301POPC   C4A31338  28.361  12.072   7.664
 2301POPC   C1B31339  28.363  11.833   8.564
 2301POPC   C2B31340  28.349  11.868   8.264
 2301POPC   C3B31341  28.356  11.835   7.964
 2301POPC   C4B31342  28.324  11.862   7.664
 2302POPC   NC331343  37.696  36.124   9.464
 2302POPC   PO431344  37.661  36.096   9.164
 2302POPC   GL131345  37.675  36.094   8.864
 2302POPC   GL231346  37.671  35.993   8.864
 2302POPC   C1A31347  37.726  36.105   8.564
 2302POPC   D2A31348  37.657  36.111   8.264
 2302POPC   C3A31349  37.641  36.103   7.964
 2302POPC   C4A31350  37.671  36.175   7.664
 2302POPC   C1B31351  37.547  35.906   8.564
 2302POPC   C2B31352  37.631  35.885   8.264
 2302POPC   C3B31353  37.549  35.898   7.964
 2302POPC   C4B31354  37.574  35.894   7.664
 2303POPC   NC331355   2.777  34.601   9.464
 2303POPC   PO431356   2.763  34.526   9.164
 2303POPC   GL131357   2.717  34.607   8.864
 2303POPC   GL231358   2.802  34.678   8.864
 2303POPC   C1A31359   2.723  34.586   8.564
 2303POPC   D2A31360   2.746  34.594   8.264
 2303POPC   C3A31361   2.799  34.576   7.964
 2303POPC   C4A31362   2.811  34.562   7.664
 2303POPC   C1B31363   2.781  34.818   8.564
 2303POPC   C2B31364   2.847  34.857   8.264
 2303POPC   C3B31365   2.871  34.806   7.964
 2303POPC   C4B31366   2.853  34.771   7.664
 2304POPC   NC331367  33.766  30.683   9.464
 2304POPC   PO431368  33.839  30.741   9.164
 2304POPC   GL131369  33.821  30.706   8.864
 2304POPC   GL231370  33.654  30.737   8.864
 2304POPC   C1A31371  33.838  30.671   8.564
 2304POPC   D2A31372  33.847  30.729   8.264
 2304POPC   C3A31373  33.797  30.660   7.964
 2304POPC   C4A31374  33.819  30.680   7.664
 2304POPC   C1B31375  33.609  30.810   8.564
 2304POPC   C2B31376  33.521  30.774   8.264
 2304POPC   C3B31377  33.559  30.728   7.964
 2304POPC   C4B31378  33.549  30.819   7.664
 2305POPC   NC331379   2.758  33.022   9.464
 2305POPC   PO431380   2.737  33.058   9.164
 2305POPC   GL131381   2.781  32.987   8.864
 2305POPC   GL231382   2.852  33.135   8.864
 2305POPC   C1A31383   2.813  33.028   8.564
 2305POPC   D2A31384   2.716  32.985   8.264
 2305POPC   C3A31385   2.809  33.053   7.964
 2305POPC   C4A31386   2.753  33.062   7.664
 2305POPC   C1B31387   2.849  33.242   8.564
 2305POPC   C2B31388   2.846  33.252   8.264
 2305POPC   C3B31389   2.851  33.221   7.964
 2305POPC   C4B31390   2.856  33.232   7.664
 2306POPC   NC331391  33.835  40.827   9.464
 2306POPC   PO431392  33.784  40.753   9.164
 2306POPC   GL131393  33.815  40.764   8.864
 2306POPC   GL231394  33.886  40.736   8.864
 2306POPC   C1A31395  33.828  40.785   8.564
 2306POPC   D2A31396  33.834  40.746   8.264
 2306POPC   C3A31397  33.770  40.794   7.964
 2306POPC   C4A31398  33.842  40.814   7.664
 2306POPC   C1B31399  34.079  40.764   8.564
 2306POPC   C2B31400  34.030  40.718   8.264
 2306POPC   C3B31401  34.067  40.753   7.964
 2306POPC   C4B31402  34.044  40.746   7.664
 2307POPC   NC331403  43.868  21.380   9.464
 2307POPC   PO431404  43.927  21.351   9.164
 2307POPC   GL131405  43.918  21.354   8.864
 2307POPC   GL231406  43.781  21.303   8.864
 2307POPC   C1A31407  43.901  21.343   8.564
 2307POPC   D2A31408  43.893  21.351   8.264
 2307POPC   C3A31409  43.850  21.339   7.964
 2307POPC   C4A31410  43.847  21.423   7.664
 2307POPC   C1B31411  43.691  21.277   8.564
 2307POPC   C2B31412  43.674  21.227   8.264
 2307POPC   C3B31413  43.698  21.277   7.964
 2307POPC   C4B31414  43.669  21.251   7.664
 2308POPC   NC331415  21.389  17.487   9.464
 2308POPC   PO431416  21.401  17.459   9.164
 2308POPC   GL131417  21.434  17.544   8.864
 2308POPC   GL231418  21.341  17.622   8.864
 2308POPC   C1A31419  21.382  17.500   8.564
 2308POPC   D2A31420  21.358  17.458   8.264
 2308POPC   C3A31421  21.404  17.555   7.964
 2308POPC   C4A31422  21.388  17.491   7.664
 2308POPC   C1B31423  21.428  17.720   8.564
 2308POPC   C2B31424  21.424  17.778   8.264
 2308POPC   C3B31425  21.428  17.760   7.964
 2308POPC   C4B31426  21.374  17.737   7.664
 2309POPC   NC331427  11.264  19.043   9.464
 2309POPC   PO431428  11.271  19.067   9.164
 2309POPC   GL131429  11.260  19.009   8.864
 2309POPC   GL231430  11.282  18.995   8.864
 2309POPC   C1A31431  11.251  19.044   8.564
 2309POPC   D2A31432  11.328  19.107   8.264
 2309POPC   C3A31433  11.307  19.089   7.964
 2309POPC   C4A31434  11.260  19.013   7.664
 2309POPC   C1B31435  11.134  18.877   8.564
 2309POPC   C2B31436  11.166  18.838   8.264
 2309POPC   C3B31437  11.212  18.871   7.964
 2309POPC   C4B31438  11.183  18.864   7.664
 2310POPC   NC331439   2.033  12.851   9.464
 2310POPC   PO431440   1.945  12.838   9.164
 2310POPC   GL131441   2.012  12.814   8.864
 2310POPC   GL231442   2.116  12.728   8.864
 2310POPC   C1A31443   1.958  12.850   8.564
 2310POPC   D2A31444   1.965  12.897   8.264
 2310POPC   C3A31445   2.005  12.882   7.964
 2310POPC   C4A31446   2.011  12.834   7.664
 2310POPC   C1B31447   2.148  12.658   8.564
 2310POPC   C2B31448   2.184  12.658   8.264
 2310POPC   C3B31449   2.144  12.708   7.964
 2310POPC   C4B31450   2.139  12.686   7.664
 2311POPC   NC331451  43.065  39.985   9.464
 2311POPC   PO431452  43.071  39.963   9.164
 2311POPC   GL131453  43.103  40.001   8.864
 2311POPC   GL231454  42.939  39.999   8.864
 2311POPC   C1A31455  43.154  40.005   8.564
 2311POPC   D2A31456  43.062  40.035   8.264
 2311POPC   C3A31457  43.068  40.032   7.964
 2311POPC   C4A31458  43.069  39.969   7.664
 2311POPC   C1B31459  42.878  40.099   8.564
 2311POPC   C2B31460  42.897  40.067   8.264
 2311POPC   C3B31461  42.874  40.080   7.964
 2311POPC   C4B31462  42.887  40.084   7.664
 2312POPC   NC331463  26.041  18.297   9.464
 2312POPC   PO431464  26.010  18.237   9.164
 2312POPC   GL131465  26.046  18.291   8.864
 2312POPC   GL231466  26.093  18.416   8.864
 2312POPC   C1A31467  26.027  18.278   8.564
 2312POPC   D2A31468  26.088  18.270   8.264
 2312POPC   C3A31469  26.001  18.251   7.964
 2312POPC   C4A31470  26.021  18.299   7.664
 2312POPC   C1B31471  26.091  18.510   8.564
 2312POPC   C2B31472  26.079  18.562   8.264
 2312POPC   C3B31473  26.094  18.543   7.964
 2312POPC   C4B31474  26.103  18.534   7.664
 2313POPC   NC331475  11.313   1.207   9.464
 2313POPC   PO431476  11.299   1.246   9.164
 2313POPC   GL131477  11.256   1.188   8.864
 2313POPC   GL231478  11.209   1.202   8.864
 2313POPC   C1A31479  11.285   1.225   8.564
 2313POPC   D2A31480  11.331   1.251   8.264
 2313POPC   C3A31481  11.255   1.241   7.964
 2313POPC   C4A31482  11.285   1.196   7.664
 2313POPC   C1B31483  11.078   1.088   8.564
 2313POPC   C2B31484  11.090   1.156   8.264
 2313POPC   C3B31485  11.120   1.069   7.964
 2313POPC   C4B31486  11.055   1.121   7.664
 2314POPC   NC331487   7.418  15.912   9.464
 2314POPC   PO431488   7.393  15.941   9.164
 2314POPC   GL131489   7.382  15.958   8.864
 2314POPC   GL231490   7.482  15.854   8.864
 2314POPC   C1A31491   7.390  15.975   8.564
 2314POPC   D2A31492   7.429  15.927   8.264
 2314POPC   C3A31493   7.453  15.941   7.964
 2314POPC   C4A31494   7.417  15.927   7.664
 2314POPC   C1B31495   7.627  15.776   8.564
 2314POPC   C2B31496   7.651  15.807   8.264
 2314POPC   C3B31497   7.605  15.822   7.964
 2314POPC   C4B31498   7.628  15.870   7.664
 2315POPC   NC331499  35.352  40.791   9.464
 2315POPC   PO431500  35.311  40.796   9.164
 2315POPC   GL131501  35.386  40.771   8.864
 2315POPC   GL231502  35.428  40.861   8.864
 2315POPC   C1A31503  35.353  40.760   8.564
 2315POPC   D2A31504  35.337  40.804   8.264
 2315POPC   C3A31505  35.314  40.751   7.964
 2315POPC   C4A31506  35.392  40.760   7.664
 2315POPC   C1B31507  35.542  40.868   8.564
 2315POPC   C2B31508  35.610  40.874   8.264
 2315POPC   C3B31509  35.614  40.904   7.964
 2315POPC   C4B31510  35.539  40.850   7.664
 2316POPC   NC331511  17.556  17.537   9.464
 2316POPC   PO431512  17.522  17.540   9.164
 2316POPC   GL131513  17.490  17.482   8.864
 2316POPC   GL231514  17.549  17.601   8.864
 2316POPC   C1A31515  17.465  17.513   8.564
 2316POPC   D2A31516  17.529  17.494   8.264
 2316POPC   C3A31517  17.524  17.556   7.964
 2316POPC   C4A31518  17.499  17.512   7.664
 2316POPC   C1B31519  17.577  17.753   8.564
 2316POPC   C2B31520  17.540  17.764   8.264
 2316POPC   C3B31521  17.553  17.783   7.964
 2316POPC   C4B31522  17.525  17.786   7.664
 2317POPC   NC331523  39.980  31.455   9.464
 2317POPC   PO431524  39.997  31.462   9.164
 2317POPC   GL131525  39.985  31.439   8.864
 2317POPC   GL231526  40.121  31.502   8.864
 2317POPC   C1A31527  39.997  31.485   8.564
 2317POPC   D2A31528  40.056  31.455   8.264
 2317POPC   C3A31529  39.958  31.521   7.964
 2317POPC   C4A31530  40.046  31.465   7.664
 2317POPC   C1B31531  40.304  31.430   8.564
 2317POPC   C2B31532  40.275  31.447   8.264
 2317POPC   C3B31533  40.234  31.492   7.964
 2317POPC   C4B31534  40.249  31.521   7.664
 2318POPC   NC331535  43.921  33.771   9.464
 2318POPC   PO431536  43.922  33.824   9.164
 2318POPC   GL131537  43.841  33.813   8.864
 2318POPC   GL231538  43.774  33.818   8.864
 2318POPC   C1A31539  43.869  33.800   8.564
 2318POPC   D2A31540  43.860  33.843   8.264
 2318POPC   C3A31541  43.888  33.838   7.964
 2318POPC   C4A31542  43.916  33.783   7.664
 2318POPC   C1B31543  43.617  33.903   8.564
 2318POPC   C2B31544  43.706  33.901   8.264
 2318POPC   C3B31545  43.633  33.877   7.964
 2318POPC   C4B31546  43.624  33.953   7.664
 2319POPC   NC331547  31.508   2.787   9.464
 2319POPC   PO431548  31.453   2.771   9.164
 2319POPC   GL131549  31.423   2.807   8.864
 2319POPC   GL231550  31.494   2.621   8.864
 2319POPC   C1A31551  31.429   2.721   8.564
 2319POPC   D2A31552  31.515   2.754   8.264
 2319POPC   C3A31553  31.473   2.786   7.964
 2319POPC   C4A31554  31.515   2.803   7.664
 2319POPC   C1B31555  31.512   2.474   8.564
 2319POPC   C2B31556  31.505   2.508   8.264
 2319POPC   C3B31557  31.507   2.470   7.964
 2319POPC   C4B31558  31.455   2.526   7.664
 2320POPC   NC331559  27.559  36.099   9.464
 2320POPC   PO431560  27.619  36.174   9.164
 2320POPC   GL131561  27.555  36.171   8.864
 2320POPC   GL231562  27.712  36.202   8.864
 2320POPC   C1A31563  27.581  36.118   8.564
 2320POPC   D2A31564  27.619  36.103   8.264
 2320POPC   C3A31565  27.562  36.108   7.964
 2320POPC   C4A31566  27.623  36.133   7.664
 2320POPC   C1B31567  27.813  36.164   8.564
 2320POPC   C2B31568  27.823  36.187   8.264
 2320POPC   C3B31569  27.803  36.174   7.964
 2320POPC   C4B31570  27.821  36.226   7.664
 2321POPC   NC331571  23.689  30.692   9.464
 2321POPC   PO431572  23.701  30.712   9.164
 2321POPC   GL131573  23.704  30.693   8.864
 2321POPC   GL231574  23.678  30.785   8.864
 2321POPC   C1A31575  23.687  30.671   8.564
 2321POPC   D2A31576  23.680  30.723   8.264
 2321POPC   C3A31577  23.760  30.657   7.964
 2321POPC   C4A31578  23.739  30.694   7.664
 2321POPC   C1B31579  23.739  30.964   8.564
 2321POPC   C2B31580  23.779  30.974   8.264
 2321POPC   C3B31581  23.687  30.949   7.964
 2321POPC   C4B31582  23.748  30.921   7.664
 2322POPC   NC331583  15.980  16.774   9.464
 2322POPC   PO431584  15.939  16.735   9.164
 2322POPC   GL131585  15.945  16.735   8.864
 2322POPC   GL231586  16.030  16.755   8.864
 2322POPC   C1A31587  15.991  16.681   8.564
 2322POPC   D2A31588  15.911  16.718   8.264
 2322POPC   C3A31589  15.935  16.684   7.964
 2322POPC   C4A31590  15.971  16.705   7.664
 2322POPC   C1B31591  16.175  16.764   8.564
 2322POPC   C2B31592  16.170  16.695   8.264
 2322POPC   C3B31593  16.235  16.754   7.964
 2322POPC   C4B31594  16.167  16.772   7.664
 2323POPC   NC331595  14.435  44.692   9.464
 2323POPC   PO431596  14.365  44.617   9.164
 2323POPC   GL131597  14.391  44.653   8.864
 2323POPC   GL231598  14.361  44.577   8.864
 2323POPC   C1A31599  14.412  44.655   8.564
 2323POPC   D2A31600  14.355  44.685   8.264
 2323POPC   C3A31601  14.354  44.711   7.964
 2323POPC   C4A31602  14.405  44.695   7.664
 2323POPC   C1B31603  14.326  44.444   8.564
 2323POPC   C2B31604  14.272  44.475   8.264
 2323POPC   C3B31605  14.327  44.472   7.964
 2323POPC   C4B31606  14.238  44.460   7.664
 2324POPC   NC331607  10.522  31.459   9.464
 2324POPC   PO431608  10.539  31.469   9.164
 2324POPC   GL131609  10.478  31.502   8.864
 2324POPC   GL231610  10.668  31.459   8.864
 2324POPC   C1A31611  10.489  31.462   8.564
 2324POPC   D2A31612  10.516  31.430   8.264
 2324POPC   C3A31613  10.549  31.429   7.964
 2324POPC   C4A31614  10.483  31.447   7.664
 2324POPC   C1B31615  10.819  31.477   8.564
 2324POPC   C2B31616  10.768  31.456   8.264
 2324POPC   C3B31617  10.731  31.481   7.964
 2324POPC   C4B31618  10.748  31.520   7.664
 2325POPC   NC331619  22.987   1.222   9.464
 2325POPC   PO431620  22.956   1.202   9.164
 2325POPC   GL131621  22.943   1.184   8.864
 2325POPC   GL231622  22.904   1.325   8.864
 2325POPC   C1A31623  22.925   1.187   8.564
 2325POPC   D2A31624  22.973   1.246   8.264
 2325POPC   C3A31625  22.971   1.198   7.964
 2325POPC   C4A31626  22.892   1.218   7.664
 2325POPC   C1B31627  22.793   1.487   8.564
 2325POPC   C2B31628  22.849   1.413   8.264
 2325POPC   C3B31629  22.785   1.458   7.964
 2325POPC   C4B31630  22.870   1.406   7.664
 2326POPC   NC331631   6.686   5.905   9.464
 2326POPC   PO431632   6.633   5.891   9.164
 2326POPC   GL131633   6.681   5.883   8.864
 2326POPC   GL231634   6.694   5.803   8.864
 2326POPC   C1A31635   6.689   5.825   8.564
 2326POPC   D2A31636   6.668   5.837   8.264
 2326POPC   C3A31637   6.673   5.825   7.964
 2326POPC   C4A31638   6.686   5.909   7.664
 2326POPC   C1B31639   6.723   5.648   8.564
 2326POPC   C2B31640   6.797   5.659   8.264
 2326POPC   C3B31641   6.776   5.658   7.964
 2326POPC   C4B31642   6.771   5.634   7.664
 2327POPC   NC331643  23.740  20.640   9.464
 2327POPC   PO431644  23.686  20.562   9.164
 2327POPC   GL131645  23.741  20.644   8.864
 2327POPC   GL231646  23.783  20.548   8.864
 2327POPC   C1A31647  23.701  20.629   8.564
 2327POPC   D2A31648  23.705  20.607   8.264
 2327POPC   C3A31649  23.682  20.575   7.964
 2327POPC   C4A31650  23.751  20.648   7.664
 2327POPC   C1B31651  23.934  20.547   8.564
 2327POPC   C2B31652  23.951  20.472   8.264
 2327POPC   C3B31653  23.938  20.507   7.964
 2327POPC   C4B31654  23.974  20.497   7.664
 2328POPC   NC331655  38.498  16.719   9.464
 2328POPC   PO431656  38.465  16.729   9.164
 2328POPC   GL131657  38.462  16.721   8.864
 2328POPC   GL231658  38.488  16.561   8.864
 2328POPC   C1A31659  38.457  16.756   8.564
 2328POPC   D2A31660  38.463  16.713   8.264
 2328POPC   C3A31661  38.432  16.691   7.964
 2328POPC   C4A31662  38.411  16.702   7.664
 2328POPC   C1B31663  38.469  16.491   8.564
 2328POPC   C2B31664  38.514  16.518   8.264
 2328POPC   C3B31665  38.492  16.484   7.964
 2328POPC   C4B31666  38.440  16.503   7.664
 2329POPC   NC331667   4.353   8.958   9.464
 2329POPC   PO431668   4.333   8.965   9.164
 2329POPC   GL131669   4.323   8.958   8.864
 2329POPC   GL231670   4.225   8.991   8.864
 2329POPC   C1A31671   4.363   8.947   8.564
 2329POPC   D2A31672   4.284   8.936   8.264
 2329POPC   C3A31673   4.296   9.020   7.964
 2329POPC   C4A31674   4.358   8.984   7.664
 2329POPC   C1B31675   4.123   9.119   8.564
 2329POPC   C2B31676   4.067   9.046   8.264
 2329POPC   C3B31677   4.064   9.103   7.964
 2329POPC   C4B31678   4.084   9.125   7.664
 2330POPC   NC331679   0.412  11.269   9.464
 2330POPC   PO431680   0.426  11.272   9.164
 2330POPC   GL131681   0.442  11.294   8.864
 2330POPC   GL231682   0.332  11.269   8.864
 2330POPC   C1A31683   0.475  11.294   8.564
 2330POPC   D2A31684   0.405  11.332   8.264
 2330POPC   C3A31685   0.405  11.270   7.964
 2330POPC   C4A31686   0.479  11.311   7.664
 2330POPC   C1B31687   0.220  11.227   8.564
 2330POPC   C2B31688   0.257  11.165   8.264
 2330POPC   C3B31689   0.200  11.173   7.964
 2330POPC   C4B31690   0.173  11.167   7.664
 2331POPC   NC331691   8.935   5.842   9.464
 2331POPC   PO431692   8.997   5.849   9.164
 2331POPC   GL131693   8.992   5.854   8.864
 2331POPC   GL231694   8.858   5.816   8.864
 2331POPC   C1A31695   9.008   5.913   8.564
 2331POPC   D2A31696   8.926   5.844   8.264
 2331POPC   C3A31697   8.967   5.823   7.964
 2331POPC   C4A31698   8.957   5.825   7.664
 2331POPC   C1B31699   8.707   5.824   8.564
 2331POPC   C2B31700   8.760   5.837   8.264
 2331POPC   C3B31701   8.701   5.905   7.964
 2331POPC   C4B31702   8.772   5.867   7.664
 2332POPC   NC331703  33.779  39.207   9.464
 2332POPC   PO431704  33.795  39.213   9.164
 2332POPC   GL131705  33.776  39.270   8.864
 2332POPC   GL231706  33.885  39.312   8.864
 2332POPC   C1A31707  33.827  39.267   8.564
 2332POPC   D2A31708  33.813  39.212   8.264
 2332POPC   C3A31709  33.808  39.191   7.964
 2332POPC   C4A31710  33.826  39.275   7.664
 2332POPC   C1B31711  34.059  39.300   8.564
 2332POPC   C2B31712  34.003  39.313   8.264
 2332POPC   C3B31713  33.987  39.368   7.964
 2332POPC   C4B31714  34.048  39.374   7.664
 2333POPC   NC331715  31.482  39.224   9.464
 2333POPC   PO431716  31.442  39.247   9.164
 2333POPC   GL131717  31.486  39.262   8.864
 2333POPC   GL231718  31.600  39.269   8.864
 2333POPC   C1A31719  31.519  39.199   8.564
 2333POPC   D2A31720  31.454  39.189   8.264
 2333POPC   C3A31721  31.480  39.237   7.964
 2333POPC   C4A31722  31.428  39.216   7.664
 2333POPC   C1B31723  31.749  39.253   8.564
 2333POPC   C2B31724  31.728  39.279   8.264
 2333POPC   C3B31725  31.683  39.271   7.964
 2333POPC   C4B31726  31.765  39.236   7.664
 2334POPC   NC331727  26.078  10.553   9.464
 2334POPC   PO431728  26.019  10.493   9.164
 2334POPC   GL131729  26.066  10.484   8.864
 2334POPC   GL231730  26.052  10.369   8.864
 2334POPC   C1A31731  26.006  10.482   8.564
 2334POPC   D2A31732  26.078  10.524   8.264
 2334POPC   C3A31733  26.063  10.480   7.964
 2334POPC   C4A31734  26.074  10.556   7.664
 2334POPC   C1B31735  26.124  10.268   8.564
 2334POPC   C2B31736  26.142  10.301   8.264
 2334POPC   C3B31737  26.124  10.308   7.964
 2334POPC   C4B31738  26.106  10.281   7.664
 2335POPC   NC331739  43.860  15.216   9.464
 2335POPC   PO431740  43.935  15.169   9.164
 2335POPC   GL131741  43.900  15.210   8.864
 2335POPC   GL231742  43.888  15.324   8.864
 2335POPC   C1A31743  43.845  15.178   8.564
 2335POPC   D2A31744  43.849  15.213   8.264
 2335POPC   C3A31745  43.902  15.222   7.964
 2335POPC   C4A31746  43.908  15.154   7.664
 2335POPC   C1B31747  43.992  15.419   8.564
 2335POPC   C2B31748  43.986  15.430   8.264
 2335POPC   C3B31749  44.026  15.402   7.964
 2335POPC   C4B31750  43.995  15.374   7.664
 2336POPC   NC331751  40.819  20.621   9.464
 2336POPC   PO431752  40.740  20.566   9.164
 2336POPC   GL131753  40.734  20.592   8.864
 2336POPC   GL231754  40.890  20.580   8.864
 2336POPC   C1A31755  40.790  20.596   8.564
 2336POPC   D2A31756  40.831  20.597   8.264
 2336POPC   C3A31757  40.747  20.591   7.964
 2336POPC   C4A31758  40.765  20.562   7.664
 2336POPC   C1B31759  40.999  20.500   8.564
 2336POPC   C2B31760  41.042  20.542   8.264
 2336POPC   C3B31761  41.056  20.528   7.964
 2336POPC   C4B31762  41.039  20.470   7.664
 2337POPC   NC331763   0.398  21.400   9.464
 2337POPC   PO431764   0.400  21.413   9.164
 2337POPC   GL131765   0.479  21.431   8.864
 2337POPC   GL231766   0.517  21.533   8.864
 2337POPC   C1A31767   0.395  21.402   8.564
 2337POPC   D2A31768   0.401  21.340   8.264
 2337POPC   C3A31769   0.480  21.428   7.964
 2337POPC   C4A31770   0.397  21.354   7.664
 2337POPC   C1B31771   0.581  21.591   8.564
 2337POPC   C2B31772   0.535  21.625   8.264
 2337POPC   C3B31773   0.620  21.558   7.964
 2337POPC   C4B31774   0.562  21.597   7.664
 2338POPC   NC331775  19.048  41.571   9.464
 2338POPC   PO431776  19.081  41.579   9.164
 2338POPC   GL131777  19.059  41.589   8.864
 2338POPC   GL231778  19.049  41.726   8.864
 2338POPC   C1A31779  19.026  41.535   8.564
 2338POPC   D2A31780  19.019  41.523   8.264
 2338POPC   C3A31781  19.053  41.576   7.964
 2338POPC   C4A31782  19.096  41.540   7.664
 2338POPC   C1B31783  19.148  41.829   8.564
 2338POPC   C2B31784  19.167  41.843   8.264
 2338POPC   C3B31785  19.130  41.779   7.964
 2338POPC   C4B31786  19.148  41.765   7.664
 2339POPC   NC331787  17.460  43.143   9.464
 2339POPC   PO431788  17.552  43.091   9.164
 2339POPC   GL131789  17.497  43.094   8.864
 2339POPC   GL231790  17.559  43.033   8.864
 2339POPC   C1A31791  17.521  43.155   8.564
 2339POPC   D2A31792  17.530  43.098   8.264
 2339POPC   C3A31793  17.548  43.081   7.964
 2339POPC   C4A31794  17.551  43.106   7.664
 2339POPC   C1B31795  17.682  42.956   8.564
 2339POPC   C2B31796  17.655  42.950   8.264
 2339POPC   C3B31797  17.673  42.908   7.964
 2339POPC   C4B31798  17.742  42.989   7.664
 2340POPC   NC331799  17.554   5.850   9.464
 2340POPC   PO431800  17.549   5.894   9.164
 2340POPC   GL131801  17.491   5.839   8.864
 2340POPC   GL231802  17.439   5.947   8.864
 2340POPC   C1A31803  17.488   5.858   8.564
 2340POPC   D2A31804  17.535   5.905   8.264
 2340POPC   C3A31805  17.473   5.850   7.964
 2340POPC   C4A31806  17.553   5.868   7.664
 2340POPC   C1B31807  17.291   5.966   8.564
 2340POPC   C2B31808  17.315   5.999   8.264
 2340POPC   C3B31809  17.311   5.975   7.964
 2340POPC   C4B31810  17.224   5.995   7.664
 2341POPC   NC331811  15.961   2.720   9.464
 2341POPC   PO431812  15.959   2.763   9.164
 2341POPC   GL131813  15.950   2.732   8.864
 2341POPC   GL231814  16.048   2.690   8.864
 2341POPC   C1A31815  15.953   2.756   8.564
 2341POPC   D2A31816  15.930   2.776   8.264
 2341POPC   C3A31817  15.994   2.757   7.964
 2341POPC   C4A31818  15.971   2.748   7.664
 2341POPC   C1B31819  16.111   2.550   8.564
 2341POPC   C2B31820  16.104   2.561   8.264
 2341POPC   C3B31821  16.067   2.526   7.964
 2341POPC   C4B31822  16.051   2.548   7.664
 2342POPC   NC331823  12.061  29.952   9.464
 2342POPC   PO431824  12.121  29.941   9.164
 2342POPC   GL131825  12.121  29.871   8.864
 2342POPC   GL231826  12.191  30.017   8.864
 2342POPC   C1A31827  12.115  29.967   8.564
 2342POPC   D2A31828  12.094  29.941   8.264
 2342POPC   C3A31829  12.084  29.954   7.964
 2342POPC   C4A31830  12.039  29.938   7.664
 2342POPC   C1B31831  12.253  30.038   8.564
 2342POPC   C2B31832  12.313  30.063   8.264
 2342POPC   C3B31833  12.297  30.035   7.964
 2342POPC   C4B31834  12.283  30.081   7.664
 2343POPC   NC331835  16.689  39.988   9.464
 2343POPC   PO431836  16.732  40.019   9.164
 2343POPC   GL131837  16.690  39.975   8.864
 2343POPC   GL231838  16.854  39.999   8.864
 2343POPC   C1A31839  16.695  40.030   8.564
 2343POPC   D2A31840  16.757  39.985   8.264
 2343POPC   C3A31841  16.728  40.038   7.964
 2343POPC   C4A31842  16.756  39.982   7.664
 2343POPC   C1B31843  16.978  39.983   8.564
 2343POPC   C2B31844  16.971  39.997   8.264
 2343POPC   C3B31845  16.998  39.993   7.964
 2343POPC   C4B31846  17.022  39.995   7.664
 2344POPC   NC331847  12.026  14.415   9.464
 2344POPC   PO431848  12.031  14.431   9.164
 2344POPC   GL131849  12.116  14.363   8.864
 2344POPC   GL231850  12.182  14.300   8.864
 2344POPC   C1A31851  12.061  14.412   8.564
 2344POPC   D2A31852  12.065  14.385   8.264
 2344POPC   C3A31853  12.096  14.404   7.964
 2344POPC   C4A31854  12.029  14.378   7.664
 2344POPC   C1B31855  12.307  14.239   8.564
 2344POPC   C2B31856  12.302  14.210   8.264
 2344POPC   C3B31857  12.234  14.262   7.964
 2344POPC   C4B31858  12.303  14.201   7.664
 2345POPC   NC331859  19.803  22.978   9.464
 2345POPC   PO431860  19.833  22.933   9.164
 2345POPC   GL131861  19.793  22.912   8.864
 2345POPC   GL231862  19.974  22.879   8.864
 2345POPC   C1A31863  19.822  22.889   8.564
 2345POPC   D2A31864  19.875  22.964   8.264
 2345POPC   C3A31865  19.878  22.985   7.964
 2345POPC   C4A31866  19.814  22.971   7.664
 2345POPC   C1B31867  19.996  22.786   8.564
 2345POPC   C2B31868  20.050  22.809   8.264
 2345POPC   C3B31869  20.056  22.790   7.964
 2345POPC   C4B31870  19.997  22.743   7.664
 2346POPC   NC331871  27.573  41.568   9.464
 2346POPC   PO431872  27.632  41.535   9.164
 2346POPC   GL131873  27.553  41.550   8.864
 2346POPC   GL231874  27.719  41.612   8.864
 2346POPC   C1A31875  27.559  41.568   8.564
 2346POPC   D2A31876  27.605  41.536   8.264
 2346POPC   C3A31877  27.545  41.566   7.964
 2346POPC   C4A31878  27.551  41.606   7.664
 2346POPC   C1B31879  27.838  41.647   8.564
 2346POPC   C2B31880  27.837  41.668   8.264
 2346POPC   C3B31881  27.809  41.715   7.964
 2346POPC   C4B31882  27.781  41.665   7.664
 2347POPC   NC331883   1.244  40.811   9.464
 2347POPC   PO431884   1.194  40.744   9.164
 2347POPC   GL131885   1.183  40.760   8.864
 2347POPC   GL231886   1.340  40.815   8.864
 2347POPC   C1A31887   1.175  40.820   8.564
 2347POPC   D2A31888   1.173  40.780   8.264
 2347POPC   C3A31889   1.225  40.741   7.964
 2347POPC   C4A31890   1.181  40.831   7.664
 2347POPC   C1B31891   1.402  40.840   8.564
 2347POPC   C2B31892   1.486  40.895   8.264
 2347POPC   C3B31893   1.488  40.877   7.964
 2347POPC   C4B31894   1.422  40.879   7.664
 2348POPC   NC331895   5.094  14.432   9.464
 2348POPC   PO431896   5.110  14.402   9.164
 2348POPC   GL131897   5.096  14.399   8.864
 2348POPC   GL231898   5.022  14.242   8.864
 2348POPC   C1A31899   5.125  14.436   8.564
 2348POPC   D2A31900   5.096  14.420   8.264
 2348POPC   C3A31901   5.100  14.407   7.964
 2348POPC   C4A31902   5.143  14.450   7.664
 2348POPC   C1B31903   5.012  14.201   8.564
 2348POPC   C2B31904   5.024  14.184   8.264
 2348POPC   C3B31905   5.006  14.114   7.964
 2348POPC   C4B31906   4.992  14.139   7.664
 2349POPC   NC331907  42.351   7.380   9.464
 2349POPC   PO431908  42.291   7.407   9.164
 2349POPC   GL131909  42.315   7.434   8.864
 2349POPC   GL231910  42.357   7.298   8.864
 2349POPC   C1A31911  42.379   7.457   8.564
 2349POPC   D2A31912  42.289   7.418   8.264
 2349POPC   C3A31913  42.362   7.459   7.964
 2349POPC   C4A31914  42.322   7.380   7.664
 2349POPC   C1B31915  42.432   7.201   8.564
 2349POPC   C2B31916  42.464   7.142   8.264
 2349POPC   C3B31917  42.413   7.136   7.964
 2349POPC   C4B31918  42.435   7.215   7.664
 2350POPC   NC331919  15.174   0.411   9.464
 2350POPC   PO431920  15.206   0.391   9.164
 2350POPC   GL131921  15.211   0.460   8.864
 2350POPC   GL231922  15.105   0.367   8.864
 2350POPC   C1A31923  15.196   0.470   8.564
 2350POPC   D2A31924  15.131   0.399   8.264
 2350POPC   C3A31925  15.145   0.444   7.964
 2350POPC   C4A31926  15.163   0.422   7.664
 2350POPC   C1B31927  14.942   0.296   8.564
 2350POPC   C2B31928  15.023   0.288   8.264
 2350POPC   C3B31929  14.973   0.230   7.964
 2350POPC   C4B31930  15.016   0.287   7.664
 2351POPC   NC331931   8.963  12.084   9.464
 2351POPC   PO431932   8.939  12.034   9.164
 2351POPC   GL131933   9.009  12.124   8.864
 2351POPC   GL231934   8.903  12.096   8.864
 2351POPC   C1A31935   8.937  12.052   8.564
 2351POPC   D2A31936   9.011  12.086   8.264
 2351POPC   C3A31937   9.017  12.089   7.964
 2351POPC   C4A31938   9.022  12.112   7.664
 2351POPC   C1B31939   8.740  12.138   8.564
 2351POPC   C2B31940   8.771  12.170   8.264
 2351POPC   C3B31941   8.778  12.191   7.964
 2351POPC   C4B31942   8.785  12.187   7.664
 2352POPC   NC331943  36.108  30.657   9.464
 2352POPC   PO431944  36.167  30.716   9.164
 2352POPC   GL131945  36.098  30.723   8.864
 2352POPC   GL231946  35.967  30.670   8.864
 2352POPC   C1A31947  36.089  30.717   8.564
 2352POPC   D2A31948  36.097  30.653   8.264
 2352POPC   C3A31949  36.147  30.744   7.964
 2352POPC   C4A31950  36.078  30.704   7.664
 2352POPC   C1B31951  35.894  30.568   8.564
 2352POPC   C2B31952  35.884  30.577   8.264
 2352POPC   C3B31953  35.867  30.605   7.964
 2352POPC   C4B31954  35.915  30.583   7.664
 2353POPC   NC331955  25.220  34.588   9.464
 2353POPC   PO431956  25.275  34.626   9.164
 2353POPC   GL131957  25.262  34.590   8.864
 2353POPC   GL231958  25.157  34.462   8.864
 2353POPC   C1A31959  25.227  34.599   8.564
 2353POPC   D2A31960  25.243  34.608   8.264
 2353POPC   C3A31961  25.285  34.619   7.964
 2353POPC   C4A31962  25.233  34.572   7.664
 2353POPC   C1B31963  25.068  34.464   8.564
 2353POPC   C2B31964  25.036  34.494   8.264
 2353POPC   C3B31965  25.049  34.433   7.964
 2353POPC   C4B31966  25.024  34.491   7.664
 2354POPC   NC331967  30.668   5.895   9.464
 2354POPC   PO431968  30.676   5.885   9.164
 2354POPC   GL131969  30.682   5.827   8.864
 2354POPC   GL231970  30.648   5.799   8.864
 2354POPC   C1A31971  30.685   5.864   8.564
 2354POPC   D2A31972  30.699   5.882   8.264
 2354POPC   C3A31973  30.744   5.908   7.964
 2354POPC   C4A31974  30.722   5.846   7.664
 2354POPC   C1B31975  30.505   5.682   8.564
 2354POPC   C2B31976  30.572   5.638   8.264
 2354POPC   C3B31977  30.549   5.661   7.964
 2354POPC   C4B31978  30.486   5.693   7.664
 2355POPC   NC331979  40.788   8.990   9.464
 2355POPC   PO431980  40.791   8.981   9.164
 2355POPC   GL131981  40.778   9.001   8.864
 2355POPC   GL231982  40.774   8.828   8.864
 2355POPC   C1A31983  40.747   8.979   8.564
 2355POPC   D2A31984  40.783   8.981   8.264
 2355POPC   C3A31985  40.783   8.990   7.964
 2355POPC   C4A31986  40.809   8.930   7.664
 2355POPC   C1B31987  40.723   8.771   8.564
 2355POPC   C2B31988  40.662   8.765   8.264
 2355POPC   C3B31989  40.719   8.697   7.964
 2355POPC   C4B31990  40.726   8.776   7.664
 2356POPC   NC331991   1.955  26.867   9.464
 2356POPC   PO431992   1.960  26.829   9.164
 2356POPC   GL131993   2.003  26.803   8.864
 2356POPC   GL231994   1.868  26.767   8.864
 2356POPC   C1A31995   1.958  26.825   8.564
 2356POPC   D2A31996   1.944  26.831   8.264
 2356POPC   C3A31997   1.947  26.824   7.964
 2356POPC   C4A31998   1.963  26.794   7.664
 2356POPC   C1B31999   1.797  26.707   8.564
 2356POPC   C2B32000   1.706  26.779   8.264
 2356POPC   C3B32001   1.732  26.745   7.964
 2356POPC   C4B32002   1.713  26.780   7.664
 2357POPC   NC332003  19.103   2.793   9.464
 2357POPC   PO432004  19.091   2.804   9.164
 2357POPC   GL132005  19.105   2.805   8.864
 2357POPC   GL232006  19.081   2.635   8.864
 2357POPC   C1A32007  19.019   2.752   8.564
 2357POPC   D2A32008  19.057   2.734   8.264
 2357POPC   C3A32009  19.011   2.808   7.964
 2357POPC   C4A32010  19.031   2.720   7.664
 2357POPC   C1B32011  19.091   2.491   8.564
 2357POPC   C2B32012  19.091   2.547   8.264
 2357POPC   C3B32013  19.075   2.534   7.964
 2357POPC   C4B32014  19.021   2.473   7.664
 2358POPC   NC332015  34.563   8.923   9.464
 2358POPC   PO432016  34.558   8.926   9.164
 2358POPC   GL132017  34.566   8.960   8.864
 2358POPC   GL232018  34.647   9.095   8.864
 2358POPC   C1A32019  34.600   8.983   8.564
 2358POPC   D2A32020  34.596   8.940   8.264
 2358POPC   C3A32021  34.623   8.959   7.964
 2358POPC   C4A32022  34.600   8.990   7.664
 2358POPC   C1B32023  34.638   9.158   8.564
 2358POPC   C2B32024  34.698   9.247   8.264
 2358POPC   C3B32025  34.647   9.188   7.964
 2358POPC   C4B32026  34.643   9.195   7.664
 2359POPC   NC332027  19.031   4.294   9.464
 2359POPC   PO432028  19.028   4.302   9.164
 2359POPC   GL132029  19.047   4.276   8.864
 2359POPC   GL232030  19.036   4.463   8.864
 2359POPC   C1A32031  19.025   4.271   8.564
 2359POPC   D2A32032  19.067   4.340   8.264
 2359POPC   C3A32033  19.038   4.320   7.964
 2359POPC   C4A32034  19.102   4.308   7.664
 2359POPC   C1B32035  18.945   4.517   8.564
 2359POPC   C2B32036  18.970   4.535   8.264
 2359POPC   C3B32037  18.959   4.545   7.964
 2359POPC   C4B32038  18.925   4.491   7.664
 2360POPC   NC332039  43.153  32.995   9.464
 2360POPC   PO432040  43.104  33.071   9.164
 2360POPC   GL132041  43.120  33.010   8.864
 2360POPC   GL232042  43.015  33.122   8.864
 2360POPC   C1A32043  43.073  32.978   8.564
 2360POPC   D2A32044  43.134  33.022   8.264
 2360POPC   C3A32045  43.072  33.029   7.964
 2360POPC   C4A32046  43.102  33.013   7.664
 2360POPC   C1B32047  43.026  33.235   8.564
 2360POPC   C2B32048  43.005  33.256   8.264
 2360POPC   C3B32049  43.014  33.247   7.964
 2360POPC   C4B32050  42.983  33.278   7.664
 2361POPC   NC332051  41.566  15.976   9.464
 2361POPC   PO432052  41.552  15.944   9.164
 2361POPC   GL132053  41.535  15.988   8.864
 2361POPC   GL232054  41.626  16.065   8.864
 2361POPC   C1A32055  41.552  15.955   8.564
 2361POPC   D2A32056  41.549  15.981   8.264
 2361POPC   C3A32057  41.585  15.958   7.964
 2361POPC   C4A32058  41.592  15.928   7.664
 2361POPC   C1B32059  41.805  16.154   8.564
 2361POPC   C2B32060  41.793  16.119   8.264
 2361POPC   C3B32061  41.742  16.103   7.964
 2361POPC   C4B32062  41.744  16.065   7.664
 2362POPC   NC332063  40.766  34.614   9.464
 2362POPC   PO432064  40.751  34.614   9.164
 2362POPC   GL132065  40.786  34.607   8.864
 2362POPC   GL232066  40.755  34.439   8.864
 2362POPC   C1A32067  40.796  34.565   8.564
 2362POPC   D2A32068  40.820  34.545   8.264
 2362POPC   C3A32069  40.831  34.577   7.964
 2362POPC   C4A32070  40.829  34.553   7.664
 2362POPC   C1B32071  40.629  34.360   8.564
 2362POPC   C2B32072  40.623  34.390   8.264
 2362POPC   C3B32073  40.680  34.344   7.964
 2362POPC   C4B32074  40.607  34.354   7.664
 2363POPC   NC332075  20.562  29.949   9.464
 2363POPC   PO432076  20.592  29.881   9.164
 2363POPC   GL132077  20.628  29.941   8.864
 2363POPC   GL232078  20.750  29.942   8.864
 2363POPC   C1A32079  20.626  29.890   8.564
 2363POPC   D2A32080  20.571  29.913   8.264
 2363POPC   C3A32081  20.571  29.958   7.964
 2363POPC   C4A32082  20.646  29.912   7.664
 2363POPC   C1B32083  20.860  29.935   8.564
 2363POPC   C2B32084  20.836  29.971   8.264
 2363POPC   C3B32085  20.882  29.913   7.964
 2363POPC   C4B32086  20.894  29.898   7.664
 2364POPC   NC332087   0.394   4.338   9.464
 2364POPC   PO432088   0.442   4.333   9.164
 2364POPC   GL132089   0.458   4.329   8.864
 2364POPC   GL232090   0.565   4.389   8.864
 2364POPC   C1A32091   0.434   4.270   8.564
 2364POPC   D2A32092   0.468   4.348   8.264
 2364POPC   C3A32093   0.409   4.302   7.964
 2364POPC   C4A32094   0.450   4.298   7.664
 2364POPC   C1B32095   0.652   4.441   8.564
 2364POPC   C2B32096   0.660   4.467   8.264
 2364POPC   C3B32097   0.630   4.456   7.964
 2364POPC   C4B32098   0.644   4.469   7.664
 2365POPC   NC332099  28.337   5.819   9.464
 2365POPC   PO432100  28.331   5.883   9.164
 2365POPC   GL132101  28.339   5.841   8.864
 2365POPC   GL232102  28.487   5.902   8.864
 2365POPC   C1A32103  28.348   5.910   8.564
 2365POPC   D2A32104  28.362   5.850   8.264
 2365POPC   C3A32105  28.356   5.868   7.964
 2365POPC   C4A32106  28.340   5.884   7.664
 2365POPC   C1B32107  28.581   6.026   8.564
 2365POPC   C2B32108  28.626   6.023   8.264
 2365POPC   C3B32109  28.607   6.020   7.964
 2365POPC   C4B32110  28.548   5.959   7.664
 2366POPC   NC332111  44.708   1.189   9.464
 2366POPC   PO432112  44.686   1.220   9.164
 2366POPC   GL132113  44.678   1.201   8.864
 2366POPC   GL232114  44.624   1.082   8.864
 2366POPC   C1A32115  44.653   1.230   8.564
 2366POPC   D2A32116  44.693   1.261   8.264
 2366POPC   C3A32117  44.710   1.200   7.964
 2366POPC   C4A32118  44.643   1.183   7.664
 2366POPC   C1B32119  44.500   1.025   8.564
 2366POPC   C2B32120  44.550   0.978   8.264
 2366POPC   C3B32121  44.536   1.021   7.964
 2366POPC   C4B32122  44.489   1.051   7.664
 2367POPC   NC332123   1.982   7.387   9.464
 2367POPC   PO432124   2.014   7.462   9.164
 2367POPC   GL132125   2.000   7.417   8.864
 2367POPC   GL232126   2.107   7.293   8.864
 2367POPC   C1A32127   1.974   7.390   8.564
 2367POPC   D2A32128   2.020   7.411   8.264
 2367POPC   C3A32129   2.010   7.382   7.964
 2367POPC   C4A32130   2.010   7.402   7.664
 2367POPC   C1B32131   2.185   7.231   8.564
 2367POPC   C2B32132   2.135   7.248   8.264
 2367POPC   C3B32133   2.155   7.212   7.964
 2367POPC   C4B32134   2.156   7.231   7.664
 2368POPC   NC332135  15.170  44.640   9.464
 2368POPC   PO432136  15.226  44.621   9.164
 2368POPC   GL132137  15.150  44.711   8.864
 2368POPC   GL232138  15.151  44.811   8.864
 2368POPC   C1A32139  15.130  44.703   8.564
 2368POPC   D2A32140  15.211  44.698   8.264
 2368POPC   C3A32141  15.162  44.676   7.964
 2368POPC   C4A32142  15.169  44.629   7.664
 2368POPC   C1B32143  15.170  44.925   8.564
 2368POPC   C2B32144  15.233  44.917   8.264
 2368POPC   C3B32145  15.206  44.952   7.964
 2368POPC   C4B32146  15.140  44.962   7.664
 2369POPC   NC332147  17.514  29.950   9.464
 2369POPC   PO432148  17.463  29.873   9.164
 2369POPC   GL132149  17.475  29.912   8.864
 2369POPC   GL232150  17.403  29.842   8.864
 2369POPC   C1A32151  17.554  29.909   8.564
 2369POPC   D2A32152  17.463  29.884   8.264
 2369POPC   C3A32153  17.491  29.920   7.964
 2369POPC   C4A32154  17.471  29.935   7.664
 2369POPC   C1B32155  17.337  29.775   8.564
 2369POPC   C2B32156  17.366  29.695   8.264
 2369POPC   C3B32157  17.367  29.721   7.964
 2369POPC   C4B32158  17.332  29.677   7.664
 2370POPC   NC332159  15.154  29.114   9.464
 2370POPC   PO432160  15.178  29.165   9.164
 2370POPC   GL132161  15.214  29.190   8.864
 2370POPC   GL232162  15.128  29.066   8.864
 2370POPC   C1A32163  15.153  29.100   8.564
 2370POPC   D2A32164  15.170  29.096   8.264
 2370POPC   C3A32165  15.202  29.182   7.964
 2370POPC   C4A32166  15.146  29.180   7.664
 2370POPC   C1B32167  15.138  28.907   8.564
 2370POPC   C2B32168  15.137  28.854   8.264
 2370POPC   C3B32169  15.207  28.875   7.964
 2370POPC   C4B32170  15.131  28.876   7.664
 2371POPC   NC332171  43.103  11.296   9.464
 2371POPC   PO432172  43.113  11.323   9.164
 2371POPC   GL132173  43.120  11.324   8.864
 2371POPC   GL232174  43.206  11.398   8.864
 2371POPC   C1A32175  43.106  11.259   8.564
 2371POPC   D2A32176  43.114  11.326   8.264
 2371POPC   C3A32177  43.105  11.296   7.964
 2371POPC   C4A32178  43.073  11.337   7.664
 2371POPC   C1B32179  43.354  11.390   8.564
 2371POPC   C2B32180  43.313  11.396   8.264
 2371POPC   C3B32181  43.312  11.373   7.964
 2371POPC   C4B32182  43.300  11.468   7.664
 2372POPC   NC332183  20.630  12.078   9.464
 2372POPC   PO432184  20.564  12.110   9.164
 2372POPC   GL132185  20.604  12.069   8.864
 2372POPC   GL232186  20.702  12.037   8.864
 2372POPC   C1A32187  20.634  12.113   8.564
 2372POPC   D2A32188  20.561  12.095   8.264
 2372POPC   C3A32189  20.573  12.103   7.964
 2372POPC   C4A32190  20.570  12.044   7.664
 2372POPC   C1B32191  20.851  11.889   8.564
 2372POPC   C2B32192  20.784  11.940   8.264
 2372POPC   C3B32193  20.847  11.908   7.964
 2372POPC   C4B32194  20.759  11.944   7.664
 2373POPC   NC332195  17.520  12.860   9.464
 2373POPC   PO432196  17.457  12.852   9.164
 2373POPC   GL132197  17.540  12.839   8.864
 2373POPC   GL232198  17.592  12.790   8.864
 2373POPC   C1A32199  17.506  12.896   8.564
 2373POPC   D2A32200  17.469  12.883   8.264
 2373POPC   C3A32201  17.476  12.879   7.964
 2373POPC   C4A32202  17.508  12.898   7.664
 2373POPC   C1B32203  17.714  12.725   8.564
 2373POPC   C2B32204  17.724  12.688   8.264
 2373POPC   C3B32205  17.670  12.675   7.964
 2373POPC   C4B32206  17.752  12.683   7.664
 2374POPC   NC332207  15.198  40.783   9.464
 2374POPC   PO432208  15.129  40.820   9.164
 2374POPC   GL132209  15.146  40.785   8.864
 2374POPC   GL232210  15.246  40.720   8.864
 2374POPC   C1A32211  15.216  40.778   8.564
 2374POPC   D2A32212  15.184  40.821   8.264
 2374POPC   C3A32213  15.135  40.797   7.964
 2374POPC   C4A32214  15.160  40.802   7.664
 2374POPC   C1B32215  15.353  40.641   8.564
 2374POPC   C2B32216  15.400  40.654   8.264
 2374POPC   C3B32217  15.314  40.601   7.964
 2374POPC   C4B32218  15.386  40.634   7.664
 2375POPC   NC332219  19.810  24.532   9.464
 2375POPC   PO432220  19.843  24.529   9.164
 2375POPC   GL132221  19.786  24.483   8.864
 2375POPC   GL232222  19.911  24.533   8.864
 2375POPC   C1A32223  19.824  24.457   8.564
 2375POPC   D2A32224  19.793  24.450   8.264
 2375POPC   C3A32225  19.802  24.454   7.964
 2375POPC   C4A32226  19.861  24.510   7.664
 2375POPC   C1B32227  20.066  24.598   8.564
 2375POPC   C2B32228  20.037  24.590   8.264
 2375POPC   C3B32229  20.102  24.585   7.964
 2375POPC   C4B32230  20.065  24.587   7.664
 2376POPC   NC332231  11.334   0.439   9.464
 2376POPC   PO432232  11.348   0.469   9.164
 2376POPC   GL132233  11.262   0.452   8.864
 2376POPC   GL232234  11.224   0.408   8.864
 2376POPC   C1A32235  11.327   0.470   8.564
 2376POPC   D2A32236  11.261   0.390   8.264
 2376POPC   C3A32237  11.302   0.410   7.964
 2376POPC   C4A32238  11.252   0.441   7.664
 2376POPC   C1B32239  11.021   0.432   8.564
 2376POPC   C2B32240  11.041   0.366   8.264
 2376POPC   C3B32241  11.067   0.438   7.964
 2376POPC   C4B32242  11.038   0.439   7.664
 2377POPC   NC332243  44.678  21.337   9.464
 2377POPC   PO432244  44.682  21.341   9.164
 2377POPC   GL132245  44.632  21.360   8.864
 2377POPC   GL232246  44.545  21.291   8.864
 2377POPC   C1A32247  44.660  21.427   8.564
 2377POPC   D2A32248  44.626  21.400   8.264
 2377POPC   C3A32249  44.622  21.428   7.964
 2377POPC   C4A32250  44.670  21.405   7.664
 2377POPC   C1B32251  44.468  21.323   8.564
 2377POPC   C2B32252  44.477  21.276   8.264
 2377POPC   C3B32253  44.392  21.257   7.964
 2377POPC   C4B32254  44.405  21.314   7.664
 2378POPC   NC332255  19.808  12.804   9.464
 2378POPC   PO432256  19.812  12.866   9.164
 2378POPC   GL132257  19.817  12.850   8.864
 2378POPC   GL232258  19.949  12.745   8.864
 2378POPC   C1A32259  19.871  12.841   8.564
 2378POPC   D2A32260  19.883  12.803   8.264
 2378POPC   C3A32261  19.883  12.873   7.964
 2378POPC   C4A32262  19.827  12.870   7.664
 2378POPC   C1B32263  20.006  12.725   8.564
 2378POPC   C2B32264  20.012  12.755   8.264
 2378POPC   C3B32265  20.063  12.780   7.964
 2378POPC   C4B32266  20.038  12.715   7.664
 2379POPC   NC332267  28.322  18.246   9.464
 2379POPC   PO432268  28.398  18.329   9.164
 2379POPC   GL132269  28.357  18.301   8.864
 2379POPC   GL232270  28.258  18.188   8.864
 2379POPC   C1A32271  28.378  18.299   8.564
 2379POPC   D2A32272  28.354  18.311   8.264
 2379POPC   C3A32273  28.387  18.259   7.964
 2379POPC   C4A32274  28.361  18.280   7.664
 2379POPC   C1B32275  28.174  18.171   8.564
 2379POPC   C2B32276  28.151  18.196   8.264
 2379POPC   C3B32277  28.198  18.191   7.964
 2379POPC   C4B32278  28.156  18.151   7.664
 2380POPC   NC332279  41.591  34.538   9.464
 2380POPC   PO432280  41.569  34.625   9.164
 2380POPC   GL132281  41.520  34.543   8.864
 2380POPC   GL232282  41.568  34.667   8.864
 2380POPC   C1A32283  41.608  34.539   8.564
 2380POPC   D2A32284  41.584  34.530   8.264
 2380POPC   C3A32285  41.602  34.589   7.964
 2380POPC   C4A32286  41.524  34.597   7.664
 2380POPC   C1B32287  41.479  34.807   8.564
 2380POPC   C2B32288  41.436  34.850   8.264
 2380POPC   C3B32289  41.432  34.829   7.964
 2380POPC   C4B32290  41.448  34.791   7.664
 2381POPC   NC332291  44.666   6.661   9.464
 2381POPC   PO432292  44.614   6.664   9.164
 2381POPC   GL132293  44.681   6.600   8.864
 2381POPC   GL232294  44.553   6.529   8.864
 2381POPC   C1A32295  44.698   6.626   8.564
 2381POPC   D2A32296  44.635   6.675   8.264
 2381POPC   C3A32297  44.625   6.626   7.964
 2381POPC   C4A32298  44.619   6.649   7.664
 2381POPC   C1B32299  44.509   6.529   8.564
 2381POPC   C2B32300  44.468   6.451   8.264
 2381POPC   C3B32301  44.456   6.516   7.964
 2381POPC   C4B32302  44.457   6.529   7.664
 2382POPC   NC332303  39.984  26.795   9.464
 2382POPC   PO432304  39.964  26.856   9.164
 2382POPC   GL132305  40.033  26.796   8.864
 2382POPC   GL232306  40.034  26.926   8.864
 2382POPC   C1A32307  40.001  26.798   8.564
 2382POPC   D2A32308  39.979  26.768   8.264
 2382POPC   C3A32309  40.056  26.807   7.964
 2382POPC   C4A32310  40.057  26.825   7.664
 2382POPC   C1B32311  40.089  27.076   8.564
 2382POPC   C2B32312  40.076  27.086   8.264
 2382POPC   C3B32313  40.125  27.027   7.964
 2382POPC   C4B32314  40.041  27.092   7.664
 2383POPC   NC332315  11.265   2.786   9.464
 2383POPC   PO432316  11.257   2.811   9.164
 2383POPC   GL132317  11.270   2.720   8.864
 2383POPC   GL232318  11.344   2.641   8.864
 2383POPC   C1A32319  11.299   2.783   8.564
 2383POPC   D2A32320  11.303   2.807   8.264
 2383POPC   C3A32321  11.336   2.737   7.964
 2383POPC   C4A32322  11.321   2.796   7.664
 2383POPC   C1B32323  11.448   2.581   8.564
 2383POPC   C2B32324  11.491   2.565   8.264
 2383POPC   C3B32325  11.451   2.555   7.964
 2383POPC   C4B32326  11.492   2.573   7.664
 2384POPC   NC332327  30.726   4.276   9.464
 2384POPC   PO432328  30.667   4.327   9.164
 2384POPC   GL132329  30.726   4.311   8.864
 2384POPC   GL232330  30.831   4.446   8.864
 2384POPC   C1A32331  30.706   4.304   8.564
 2384POPC   D2A32332  30.673   4.268   8.264
 2384POPC   C3A32333  30.686   4.320   7.964
 2384POPC   C4A32334  30.671   4.314   7.664
 2384POPC   C1B32335  30.875   4.480   8.564
 2384POPC   C2B32336  30.914   4.472   8.264
 2384POPC   C3B32337  30.916   4.530   7.964
 2384POPC   C4B32338  30.843   4.460   7.664
 2385POPC   NC332339  13.618  23.717   9.464
 2385POPC   PO432340  13.615  23.734   9.164
 2385POPC   GL132341  13.658  23.681   8.864
 2385POPC   GL232342  13.696  23.745   8.864
 2385POPC   C1A32343  13.628  23.743   8.564
 2385POPC   D2A32344  13.611  23.676   8.264
 2385POPC   C3A32345  13.672  23.711   7.964
 2385POPC   C4A32346  13.601  23.685   7.664
 2385POPC   C1B32347  13.876  23.848   8.564
 2385POPC   C2B32348  13.892  23.845   8.264
 2385POPC   C3B32349  13.805  23.836   7.964
 2385POPC   C4B32350  13.894  23.805   7.664
 2386POPC   NC332351  36.171  15.161   9.464
 2386POPC   PO432352  36.160  15.142   9.164
 2386POPC   GL132353  36.122  15.153   8.864
 2386POPC   GL232354  36.180  15.253   8.864
 2386POPC   C1A32355  36.144  15.137   8.564
 2386POPC   D2A32356  36.089  15.207   8.264
 2386POPC   C3A32357  36.122  15.157   7.964
 2386POPC   C4A32358  36.094  15.153   7.664
 2386POPC   C1B32359  36.243  15.406   8.564
 2386POPC   C2B32360  36.166  15.408   8.264
 2386POPC   C3B32361  36.216  15.392   7.964
 2386POPC   C4B32362  36.258  15.436   7.664
 2387POPC   NC332363   5.122  15.226   9.464
 2387POPC   PO432364   5.135  15.161   9.164
 2387POPC   GL132365   5.084  15.186   8.864
 2387POPC   GL232366   5.084  15.014   8.864
 2387POPC   C1A32367   5.138  15.216   8.564
 2387POPC   D2A32368   5.045  15.188   8.264
 2387POPC   C3A32369   5.049  15.169   7.964
 2387POPC   C4A32370   5.127  15.187   7.664
 2387POPC   C1B32371   5.072  14.965   8.564
 2387POPC   C2B32372   5.052  14.896   8.264
 2387POPC   C3B32373   5.096  14.935   7.964
 2387POPC   C4B32374   5.077  14.939   7.664
 2388POPC   NC332375  23.713  19.106   9.464
 2388POPC   PO432376  23.707  19.032   9.164
 2388POPC   GL132377  23.740  19.035   8.864
 2388POPC   GL232378  23.805  19.036   8.864
 2388POPC   C1A32379  23.698  19.012   8.564
 2388POPC   D2A32380  23.753  19.094   8.264
 2388POPC   C3A32381  23.723  19.102   7.964
 2388POPC   C4A32382  23.709  19.014   7.664
 2388POPC   C1B32383  23.969  19.020   8.564
 2388POPC   C2B32384  23.945  19.007   8.264
 2388POPC   C3B32385  23.955  18.992   7.964
 2388POPC   C4B32386  23.970  19.007   7.664
 2389POPC   NC332387  11.307  28.388   9.464
 2389POPC   PO432388  11.334  28.403   9.164
 2389POPC   GL132389  11.270  28.411   8.864
 2389POPC   GL232390  11.168  28.409   8.864
 2389POPC   C1A32391  11.308  28.324   8.564
 2389POPC   D2A32392  11.313  28.359   8.264
 2389POPC   C3A32393  11.341  28.377   7.964
 2389POPC   C4A32394  11.338  28.328   7.664
 2389POPC   C1B32395  11.008  28.360   8.564
 2389POPC   C2B32396  11.070  28.353   8.264
 2389POPC   C3B32397  11.072  28.394   7.964
 2389POPC   C4B32398  11.021  28.364   7.664
 2390POPC   NC332399   2.751   5.880   9.464
 2390POPC   PO432400   2.737   5.837   9.164
 2390POPC   GL132401   2.756   5.896   8.864
 2390POPC   GL232402   2.886   5.919   8.864
 2390POPC   C1A32403   2.805   5.887   8.564
 2390POPC   D2A32404   2.755   5.855   8.264
 2390POPC   C3A32405   2.767   5.913   7.964
 2390POPC   C4A32406   2.760   5.918   7.664
 2390POPC   C1B32407   2.939   5.951   8.564
 2390POPC   C2B32408   3.006   5.998   8.264
 2390POPC   C3B32409   2.937   5.966   7.964
 2390POPC   C4B32410   2.989   5.966   7.664
 2391POPC   NC332411  16.729  27.610   9.464
 2391POPC   PO432412  16.771  27.558   9.164
 2391POPC   GL132413  16.718  27.639   8.864
 2391POPC   GL232414  16.846  27.619   8.864
 2391POPC   C1A32415  16.740  27.638   8.564
 2391POPC   D2A32416  16.684  27.593   8.264
 2391POPC   C3A32417  16.716  27.609   7.964
 2391POPC   C4A32418  16.702  27.564   7.664
 2391POPC   C1B32419  16.993  27.747   8.564
 2391POPC   C2B32420  16.984  27.764   8.264
 2391POPC   C3B32421  16.957  27.700   7.964
 2391POPC   C4B32422  16.909  27.708   7.664
 2392POPC   NC332423   8.236   2.780   9.464
 2392POPC   PO432424   8.184   2.802   9.164
 2392POPC   GL132425   8.164   2.727   8.864
 2392POPC   GL232426   8.215   2.614   8.864
 2392POPC   C1A32427   8.226   2.717   8.564
 2392POPC   D2A32428   8.204   2.793   8.264
 2392POPC   C3A32429   8.241   2.727   7.964
 2392POPC   C4A32430   8.225   2.735   7.664
 2392POPC   C1B32431   8.149   2.501   8.564
 2392POPC   C2B32432   8.161   2.524   8.264
 2392POPC   C3B32433   8.151   2.554   7.964
 2392POPC   C4B32434   8.118   2.487   7.664
 2393POPC   NC332435  44.624   1.976   9.464
 2393POPC   PO432436  44.620   1.959   9.164
 2393POPC   GL132437  44.674   1.984   8.864
 2393POPC   GL232438  44.585   1.958   8.864
 2393POPC   C1A32439  44.710   2.037   8.564
 2393POPC   D2A32440  44.614   2.003   8.264
 2393POPC   C3A32441  44.639   1.941   7.964
 2393POPC   C4A32442  44.693   1.951   7.664
 2393POPC   C1B32443  44.448   1.856   8.564
 2393POPC   C2B32444  44.446   1.901   8.264
 2393POPC   C3B32445  44.463   1.853   7.964
 2393POPC   C4B32446  44.456   1.896   7.664
 2394POPC   NC332447   1.221  29.143   9.464
 2394POPC   PO432448   1.228  29.163   9.164
 2394POPC   GL132449   1.248  29.145   8.864
 2394POPC   GL232450   1.294  29.095   8.864
 2394POPC   C1A32451   1.213  29.149   8.564
 2394POPC   D2A32452   1.261  29.155   8.264
 2394POPC   C3A32453   1.208  29.122   7.964
 2394POPC   C4A32454   1.191  29.117   7.664
 2394POPC   C1B32455   1.395  29.006   8.564
 2394POPC   C2B32456   1.393  28.964   8.264
 2394POPC   C3B32457   1.368  28.964   7.964
 2394POPC   C4B32458   1.436  28.973   7.664
 2395POPC   NC332459  41.558   9.738   9.464
 2395POPC   PO432460  41.593   9.729   9.164
 2395POPC   GL132461  41.541   9.749   8.864
 2395POPC   GL232462  41.530   9.842   8.864
 2395POPC   C1A32463  41.523   9.788   8.564
 2395POPC   D2A32464  41.533   9.748   8.264
 2395POPC   C3A32465  41.597   9.788   7.964
 2395POPC   C4A32466  41.604   9.698   7.664
 2395POPC   C1B32467  41.411  10.013   8.564
 2395POPC   C2B32468  41.485   9.994   8.264
 2395POPC   C3B32469  41.464   9.945   7.964
 2395POPC   C4B32470  41.437   9.995   7.664
 2396POPC   NC332471  21.426  35.397   9.464
 2396POPC   PO432472  21.389  35.354   9.164
 2396POPC   GL132473  21.371  35.321   8.864
 2396POPC   GL232474  21.447  35.464   8.864
 2396POPC   C1A32475  21.433  35.335   8.564
 2396POPC   D2A32476  21.406  35.349   8.264
 2396POPC   C3A32477  21.395  35.316   7.964
 2396POPC   C4A32478  21.397  35.387   7.664
 2396POPC   C1B32479  21.490  35.552   8.564
 2396POPC   C2B32480  21.537  35.591   8.264
 2396POPC   C3B32481  21.556  35.576   7.964
 2396POPC   C4B32482  21.556  35.593   7.664
 2397POPC   NC332483   2.734  40.033   9.464
 2397POPC   PO432484   2.802  40.016   9.164
 2397POPC   GL132485   2.815  39.983   8.864
 2397POPC   GL232486   2.725  39.851   8.864
 2397POPC   C1A32487   2.781  40.039   8.564
 2397POPC   D2A32488   2.729  40.025   8.264
 2397POPC   C3A32489   2.716  39.998   7.964
 2397POPC   C4A32490   2.764  40.023   7.664
 2397POPC   C1B32491   2.666  39.797   8.564
 2397POPC   C2B32492   2.624  39.824   8.264
 2397POPC   C3B32493   2.655  39.810   7.964
 2397POPC   C4B32494   2.625  39.756   7.664
 2398POPC   NC332495  36.158   5.821   9.464
 2398POPC   PO432496  36.107   5.893   9.164
 2398POPC   GL132497  36.123   5.906   8.864
 2398POPC   GL232498  36.144   5.787   8.864
 2398POPC   C1A32499  36.123   5.853   8.564
 2398POPC   D2A32500  36.132   5.906   8.264
 2398POPC   C3A32501  36.115   5.837   7.964
 2398POPC   C4A32502  36.103   5.881   7.664
 2398POPC   C1B32503  36.172   5.637   8.564
 2398POPC   C2B32504  36.262   5.662   8.264
 2398POPC   C3B32505  36.183   5.659   7.964
 2398POPC   C4B32506  36.174   5.663   7.664
 2399POPC   NC332507  40.783   8.201   9.464
 2399POPC   PO432508  40.814   8.154   9.164
 2399POPC   GL132509  40.780   8.206   8.864
 2399POPC   GL232510  40.859   8.073   8.864
 2399POPC   C1A32511  40.796   8.151   8.564
 2399POPC   D2A32512  40.786   8.226   8.264
 2399POPC   C3A32513  40.799   8.170   7.964
 2399POPC   C4A32514  40.810   8.213   7.664
 2399POPC   C1B32515  40.834   7.943   8.564
 2399POPC   C2B32516  40.853   7.940   8.264
 2399POPC   C3B32517  40.826   7.983   7.964
 2399POPC   C4B32518  40.870   7.981   7.664
 2400POPC   NC332519  44.690  26.824   9.464
 2400POPC   PO432520  44.683  26.832   9.164
 2400POPC   GL132521  44.695  26.838   8.864
 2400POPC   GL232522  44.667  26.720   8.864
 2400POPC   C1A32523  44.670  26.816   8.564
 2400POPC   D2A32524  44.625  26.821   8.264
 2400POPC   C3A32525  44.682  26.823   7.964
 2400POPC   C4A32526  44.689  26.834   7.664
 2400POPC   C1B32527  44.718  26.582   8.564
 2400POPC   C2B32528  44.663  26.532   8.264
 2400POPC   C3B32529  44.635  26.589   7.964
 2400POPC   C4B32530  44.669  26.603   7.664
 2401POPC   NC332531  44.682  42.351   9.464
 2401POPC   PO432532  44.682  42.364   9.164
 2401POPC   GL132533  44.645  42.329   8.864
 2401POPC   GL232534  44.763  42.356   8.864
 2401POPC   C1A32535  44.627  42.365   8.564
 2401POPC   D2A32536  44.636  42.329   8.264
 2401POPC   C3A32537  44.693  42.315   7.964
 2401POPC   C4A32538  44.699  42.352   7.664
 2401POPC   C1B32539  44.911  42.512   8.564
 2401POPC   C2B32540  44.836  42.443   8.264
 2401POPC   C3B32541  44.883  42.496   7.964
 2401POPC   C4B32542  44.902  42.448   7.664
 2402POPC   NC332543  39.238  36.098   9.464
 2402POPC   PO432544  39.223  36.080   9.164
 2402POPC   GL132545  39.192  36.092   8.864
 2402POPC   GL232546  39.282  36.015   8.864
 2402POPC   C1A32547  39.228  36.113   8.564
 2402POPC   D2A32548  39.187  36.143   8.264
 2402POPC   C3A32549  39.214  36.129   7.964
 2402POPC   C4A32550  39.188  36.089   7.664
 2402POPC   C1B32551  39.337  35.905   8.564
 2402POPC   C2B32552  39.385  35.927   8.264
 2402POPC   C3B32553  39.345  35.875   7.964
 2402POPC   C4B32554  39.373  35.901   7.664
 2403POPC   NC332555  25.262   3.512   9.464
 2403POPC   PO432556  25.305   3.503   9.164
 2403POPC   GL132557  25.298   3.569   8.864
 2403POPC   GL232558  25.200   3.645   8.864
 2403POPC   C1A32559  25.226   3.551   8.564
 2403POPC   D2A32560  25.227   3.512   8.264
 2403POPC   C3A32561  25.271   3.562   7.964
 2403POPC   C4A32562  25.248   3.504   7.664
 2403POPC   C1B32563  25.029   3.645   8.564
 2403POPC   C2B32564  25.018   3.691   8.264
 2403POPC   C3B32565  25.025   3.710   7.964
 2403POPC   C4B32566  25.018   3.658   7.664
 2404POPC   NC332567  24.536  12.069   9.464
 2404POPC   PO432568  24.530  12.122   9.164
 2404POPC   GL132569  24.506  12.120   8.864
 2404POPC   GL232570  24.633  12.127   8.864
 2404POPC   C1A32571  24.511  12.056   8.564
 2404POPC   D2A32572  24.454  12.111   8.264
 2404POPC   C3A32573  24.451  12.055   7.964
 2404POPC   C4A32574  24.497  12.079   7.664
 2404POPC   C1B32575  24.766  12.105   8.564
 2404POPC   C2B32576  24.696  12.111   8.264
 2404POPC   C3B32577  24.767  12.118   7.964
 2404POPC   C4B32578  24.747  12.074   7.664
 2405POPC   NC332579   7.402  14.432   9.464
 2405POPC   PO432580   7.465  14.384   9.164
 2405POPC   GL132581   7.373  14.373   8.864
 2405POPC   GL232582   7.467  14.310   8.864
 2405POPC   C1A32583   7.380  14.378   8.564
 2405POPC   D2A32584   7.425  14.424   8.264
 2405POPC   C3A32585   7.374  14.365   7.964
 2405POPC   C4A32586   7.421  14.374   7.664
 2405POPC   C1B32587   7.463  14.141   8.564
 2405POPC   C2B32588   7.448  14.124   8.264
 2405POPC   C3B32589   7.431  14.133   7.964
 2405POPC   C4B32590   7.498  14.122   7.664
 2406POPC   NC332591  39.202  15.963   9.464
 2406POPC   PO432592  39.271  15.977   9.164
 2406POPC   GL132593  39.205  15.944   8.864
 2406POPC   GL232594  39.225  15.862   8.864
 2406POPC   C1A32595  39.271  15.938   8.564
 2406POPC   D2A32596  39.253  15.923   8.264
 2406POPC   C3A32597  39.265  15.981   7.964
 2406POPC   C4A32598  39.214  15.967   7.664
 2406POPC   C1B32599  39.257  15.706   8.564
 2406POPC   C2B32600  39.288  15.733   8.264
 2406POPC   C3B32601  39.300  15.704   7.964
 2406POPC   C4B32602  39.272  15.739   7.664
 2407POPC   NC332603  14.429  37.723   9.464
 2407POPC   PO432604  14.405  37.710   9.164
 2407POPC   GL132605  14.361  37.716   8.864
 2407POPC   GL232606  14.323  37.592   8.864
 2407POPC   C1A32607  14.363  37.688   8.564
 2407POPC   D2A32608  14.386  37.727   8.264
 2407POPC   C3A32609  14.361  37.636   7.964
 2407POPC   C4A32610  14.363  37.708   7.664
 2407POPC   C1B32611  14.323  37.473   8.564
 2407POPC   C2B32612  14.298  37.478   8.264
 2407POPC   C3B32613  14.312  37.445   7.964
 2407POPC   C4B32614  14.306  37.450   7.664
 2408POPC   NC332615  37.659  44.669   9.464
 2408POPC   PO432616  37.713  44.614   9.164
 2408POPC   GL132617  37.702  44.688   8.864
 2408POPC   GL232618  37.792  44.692   8.864
 2408POPC   C1A32619  37.693  44.651   8.564
 2408POPC   D2A32620  37.720  44.651   8.264
 2408POPC   C3A32621  37.639  44.629   7.964
 2408POPC   C4A32622  37.713  44.656   7.664
 2408POPC   C1B32623  37.879  44.779   8.564
 2408POPC   C2B32624  37.939  44.773   8.264
 2408POPC   C3B32625  37.875  44.763   7.964
 2408POPC   C4B32626  37.897  44.710   7.664
 2409POPC   NC332627   7.386   4.350   9.464
 2409POPC   PO432628   7.403   4.346   9.164
 2409POPC   GL132629   7.462   4.333   8.864
 2409POPC   GL232630   7.474   4.438   8.864
 2409POPC   C1A32631   7.442   4.366   8.564
 2409POPC   D2A32632   7.451   4.306   8.264
 2409POPC   C3A32633   7.377   4.327   7.964
 2409POPC   C4A32634   7.415   4.321   7.664
 2409POPC   C1B32635   7.580   4.469   8.564
 2409POPC   C2B32636   7.670   4.454   8.264
 2409POPC   C3B32637   7.670   4.448   7.964
 2409POPC   C4B32638   7.581   4.511   7.664
 2410POPC   NC332639  26.856  39.220   9.464
 2410POPC   PO432640  26.842  39.234   9.164
 2410POPC   GL132641  26.818  39.189   8.864
 2410POPC   GL232642  26.645  39.265   8.864
 2410POPC   C1A32643  26.834  39.259   8.564
 2410POPC   D2A32644  26.818  39.214   8.264
 2410POPC   C3A32645  26.795  39.251   7.964
 2410POPC   C4A32646  26.818  39.224   7.664
 2410POPC   C1B32647  26.531  39.178   8.564
 2410POPC   C2B32648  26.612  39.248   8.264
 2410POPC   C3B32649  26.539  39.252   7.964
 2410POPC   C4B32650  26.548  39.246   7.664
 2411POPC   NC332651  40.001   7.377   9.464
 2411POPC   PO432652  40.029   7.376   9.164
 2411POPC   GL132653  39.984   7.424   8.864
 2411POPC   GL232654  40.176   7.399   8.864
 2411POPC   C1A32655  39.967   7.385   8.564
 2411POPC   D2A32656  40.050   7.464   8.264
 2411POPC   C3A32657  40.015   7.463   7.964
 2411POPC   C4A32658  39.957   7.407   7.664
 2411POPC   C1B32659  40.267   7.477   8.564
 2411POPC   C2B32660  40.284   7.459   8.264
 2411POPC   C3B32661  40.226   7.408   7.964
 2411POPC   C4B32662  40.294   7.459   7.664
 2412POPC   NC332663   4.313  36.159   9.464
 2412POPC   PO432664   4.296  36.105   9.164
 2412POPC   GL132665   4.337  36.117   8.864
 2412POPC   GL232666   4.206  36.103   8.864
 2412POPC   C1A32667   4.274  36.115   8.564
 2412POPC   D2A32668   4.329  36.090   8.264
 2412POPC   C3A32669   4.289  36.096   7.964
 2412POPC   C4A32670   4.367  36.085   7.664
 2412POPC   C1B32671   4.145  35.967   8.564
 2412POPC   C2B32672   4.080  36.024   8.264
 2412POPC   C3B32673   4.113  35.999   7.964
 2412POPC   C4B32674   4.120  35.957   7.664
 2413POPC   NC332675  40.754  15.166   9.464
 2413POPC   PO432676  40.764  15.218   9.164
 2413POPC   GL132677  40.818  15.137   8.864
 2413POPC   GL232678  40.777  15.279   8.864
 2413POPC   C1A32679  40.781  15.148   8.564
 2413POPC   D2A32680  40.792  15.204   8.264
 2413POPC   C3A32681  40.809  15.229   7.964
 2413POPC   C4A32682  40.813  15.205   7.664
 2413POPC   C1B32683  40.780  15.465   8.564
 2413POPC   C2B32684  40.771  15.452   8.264
 2413POPC   C3B32685  40.811  15.472   7.964
 2413POPC   C4B32686  40.823  15.446   7.664
 2414POPC   NC332687  39.979  43.935   9.464
 2414POPC   PO432688  39.962  43.916   9.164
 2414POPC   GL132689  39.986  43.845   8.864
 2414POPC   GL232690  40.080  44.015   8.864
 2414POPC   C1A32691  40.016  43.900   8.564
 2414POPC   D2A32692  40.013  43.873   8.264
 2414POPC   C3A32693  40.049  43.856   7.964
 2414POPC   C4A32694  40.022  43.848   7.664
 2414POPC   C1B32695  40.125  44.043   8.564
 2414POPC   C2B32696  40.142  44.077   8.264
 2414POPC   C3B32697  40.192  44.107   7.964
 2414POPC   C4B32698  40.160  44.118   7.664
 2415POPC   NC332699  14.358  16.705   9.464
 2415POPC   PO432700  14.452  16.718   9.164
 2415POPC   GL132701  14.383  16.740   8.864
 2415POPC   GL232702  14.382  16.604   8.864
 2415POPC   C1A32703  14.404  16.757   8.564
 2415POPC   D2A32704  14.441  16.778   8.264
 2415POPC   C3A32705  14.405  16.758   7.964
 2415POPC   C4A32706  14.420  16.698   7.664
 2415POPC   C1B32707  14.409  16.438   8.564
 2415POPC   C2B32708  14.398  16.512   8.264
 2415POPC   C3B32709  14.418  16.489   7.964
 2415POPC   C4B32710  14.460  16.454   7.664
 2416POPC   NC332711  38.453   3.590   9.464
 2416POPC   PO432712  38.418   3.498   9.164
 2416POPC   GL132713  38.500   3.528   8.864
 2416POPC   GL232714  38.391   3.591   8.864
 2416POPC   C1A32715  38.431   3.557   8.564
 2416POPC   D2A32716  38.413   3.531   8.264
 2416POPC   C3A32717  38.493   3.584   7.964
 2416POPC   C4A32718  38.458   3.494   7.664
 2416POPC   C1B32719  38.254   3.753   8.564
 2416POPC   C2B32720  38.283   3.749   8.264
 2416POPC   C3B32721  38.295   3.768   7.964
 2416POPC   C4B32722  38.280   3.739   7.664
 2417POPC   NC332723  19.011  43.088   9.464
 2417POPC   PO432724  19.107  43.094   9.164
 2417POPC   GL132725  19.048  43.091   8.864
 2417POPC   GL232726  19.141  42.976   8.864
 2417POPC   C1A32727  19.064  43.090   8.564
 2417POPC   D2A32728  19.065  43.085   8.264
 2417POPC   C3A32729  19.037  43.086   7.964
 2417POPC   C4A32730  19.028  43.136   7.664
 2417POPC   C1B32731  19.151  42.870   8.564
 2417POPC   C2B32732  19.113  42.841   8.264
 2417POPC   C3B32733  19.196  42.888   7.964
 2417POPC   C4B32734  19.125  42.862   7.664
 2418POPC   NC332735  19.852  34.556   9.464
 2418POPC   PO432736  19.787  34.597   9.164
 2418POPC   GL132737  19.877  34.532   8.864
 2418POPC   GL232738  19.795  34.716   8.864
 2418POPC   C1A32739  19.794  34.588   8.564
 2418POPC   D2A32740  19.835  34.526   8.264
 2418POPC   C3A32741  19.862  34.539   7.964
 2418POPC   C4A32742  19.790  34.603   7.664
 2418POPC   C1B32743  19.718  34.855   8.564
 2418POPC   C2B32744  19.744  34.762   8.264
 2418POPC   C3B32745  19.765  34.791   7.964
 2418POPC   C4B32746  19.773  34.796   7.664
 2419POPC   NC332747  25.996  22.125   9.464
 2419POPC   PO432748  26.029  22.150   9.164
 2419POPC   GL132749  26.091  22.133   8.864
 2419POPC   GL232750  25.974  22.112   8.864
 2419POPC   C1A32751  26.021  22.127   8.564
 2419POPC   D2A32752  26.080  22.190   8.264
 2419POPC   C3A32753  26.006  22.124   7.964
 2419POPC   C4A32754  26.050  22.206   7.664
 2419POPC   C1B32755  25.890  22.030   8.564
 2419POPC   C2B32756  25.848  21.947   8.264
 2419POPC   C3B32757  25.853  22.024   7.964
 2419POPC   C4B32758  25.874  22.012   7.664
 2420POPC   NC332759  19.051  38.444   9.464
 2420POPC   PO432760  19.086  38.465   9.164
 2420POPC   GL132761  19.012  38.468   8.864
 2420POPC   GL232762  19.151  38.501   8.864
 2420POPC   C1A32763  19.013  38.411   8.564
 2420POPC   D2A32764  19.103  38.418   8.264
 2420POPC   C3A32765  19.080  38.439   7.964
 2420POPC   C4A32766  19.030  38.484   7.664
 2420POPC   C1B32767  19.307  38.551   8.564
 2420POPC   C2B32768  19.243  38.628   8.264
 2420POPC   C3B32769  19.295  38.606   7.964
 2420POPC   C4B32770  19.260  38.575   7.664
 2421POPC   NC332771  20.595  20.636   9.464
 2421POPC   PO432772  20.611  20.644   9.164
 2421POPC   GL132773  20.641  20.643   8.864
 2421POPC   GL232774  20.534  20.514   8.864
 2421POPC   C1A32775  20.658  20.648   8.564
 2421POPC   D2A32776  20.563  20.643   8.264
 2421POPC   C3A32777  20.626  20.628   7.964
 2421POPC   C4A32778  20.575  20.602   7.664
 2421POPC   C1B32779  20.553  20.392   8.564
 2421POPC   C2B32780  20.591  20.356   8.264
 2421POPC   C3B32781  20.574  20.399   7.964
 2421POPC   C4B32782  20.593  20.407   7.664
 2422POPC   NC332783  13.668   3.517   9.464
 2422POPC   PO432784  13.648   3.533   9.164
 2422POPC   GL132785  13.661   3.530   8.864
 2422POPC   GL232786  13.700   3.627   8.864
 2422POPC   C1A32787  13.656   3.576   8.564
 2422POPC   D2A32788  13.644   3.526   8.264
 2422POPC   C3A32789  13.582   3.591   7.964
 2422POPC   C4A32790  13.612   3.552   7.664
 2422POPC   C1B32791  13.882   3.596   8.564
 2422POPC   C2B32792  13.904   3.600   8.264
 2422POPC   C3B32793  13.883   3.667   7.964
 2422POPC   C4B32794  13.816   3.622   7.664
 2423POPC   NC332795  14.421  19.854   9.464
 2423POPC   PO432796  14.359  19.869   9.164
 2423POPC   GL132797  14.384  19.816   8.864
 2423POPC   GL232798  14.437  19.938   8.864
 2423POPC   C1A32799  14.362  19.871   8.564
 2423POPC   D2A32800  14.409  19.866   8.264
 2423POPC   C3A32801  14.417  19.830   7.964
 2423POPC   C4A32802  14.357  19.806   7.664
 2423POPC   C1B32803  14.572  20.008   8.564
 2423POPC   C2B32804  14.590  19.993   8.264
 2423POPC   C3B32805  14.512  20.052   7.964
 2423POPC   C4B32806  14.517  20.007   7.664
 2424POPC   NC332807  40.048   6.687   9.464
 2424POPC   PO432808  39.984   6.601   9.164
 2424POPC   GL132809  39.993   6.636   8.864
 2424POPC   GL232810  40.084   6.596   8.864
 2424POPC   C1A32811  39.986   6.601   8.564
 2424POPC   D2A32812  39.981   6.608   8.264
 2424POPC   C3A32813  40.043   6.653   7.964
 2424POPC   C4A32814  40.014   6.601   7.664
 2424POPC   C1B32815  40.218   6.628   8.564
 2424POPC   C2B32816  40.285   6.609   8.264
 2424POPC   C3B32817  40.216   6.597   7.964
 2424POPC   C4B32818  40.292   6.593   7.664
 2425POPC   NC332819  12.059  39.213   9.464
 2425POPC   PO432820  12.121  39.188   9.164
 2425POPC   GL132821  12.078  39.233   8.864
 2425POPC   GL232822  12.001  39.080   8.864
 2425POPC   C1A32823  12.029  39.221   8.564
 2425POPC   D2A32824  12.029  39.209   8.264
 2425POPC   C3A32825  12.057  39.197   7.964
 2425POPC   C4A32826  12.068  39.186   7.664
 2425POPC   C1B32827  12.004  38.987   8.564
 2425POPC   C2B32828  11.971  39.041   8.264
 2425POPC   C3B32829  11.936  39.040   7.964
 2425POPC   C4B32830  12.008  39.048   7.664
 2426POPC   NC332831   3.500  39.228   9.464
 2426POPC   PO432832   3.573  39.184   9.164
 2426POPC   GL132833   3.504  39.246   8.864
 2426POPC   GL232834   3.459  39.146   8.864
 2426POPC   C1A32835   3.570  39.264   8.564
 2426POPC   D2A32836   3.506  39.240   8.264
 2426POPC   C3A32837   3.504  39.271   7.964
 2426POPC   C4A32838   3.590  39.274   7.664
 2426POPC   C1B32839   3.321  39.077   8.564
 2426POPC   C2B32840   3.342  39.144   8.264
 2426POPC   C3B32841   3.352  39.142   7.964
 2426POPC   C4B32842   3.350  39.135   7.664
 2427POPC   NC332843  18.296   9.753   9.464
 2427POPC   PO432844  18.274   9.759   9.164
 2427POPC   GL132845  18.280   9.771   8.864
 2427POPC   GL232846  18.198   9.833   8.864
 2427POPC   C1A32847  18.253   9.707   8.564
 2427POPC   D2A32848  18.236   9.750   8.264
 2427POPC   C3A32849  18.266   9.710   7.964
 2427POPC   C4A32850  18.303   9.742   7.664
 2427POPC   C1B32851  18.145   9.999   8.564
 2427POPC   C2B32852  18.188   9.924   8.264
 2427POPC   C3B32853  18.205   9.919   7.964
 2427POPC   C4B32854  18.189   9.993   7.664
 2428POPC   NC332855  22.177  23.736   9.464
 2428POPC   PO432856  22.147  23.742   9.164
 2428POPC   GL132857  22.207  23.739   8.864
 2428POPC   GL232858  22.067  23.610   8.864
 2428POPC   C1A32859  22.205  23.717   8.564
 2428POPC   D2A32860  22.148  23.732   8.264
 2428POPC   C3A32861  22.128  23.714   7.964
 2428POPC   C4A32862  22.180  23.704   7.664
 2428POPC   C1B32863  21.947  23.502   8.564
 2428POPC   C2B32864  21.946  23.504   8.264
 2428POPC   C3B32865  21.999  23.522   7.964
 2428POPC   C4B32866  21.949  23.478   7.664
 2429POPC   NC332867  39.247   7.438   9.464
 2429POPC   PO432868  39.241   7.413   9.164
 2429POPC   GL132869  39.266   7.414   8.864
 2429POPC   GL232870  39.362   7.398   8.864
 2429POPC   C1A32871  39.202   7.468   8.564
 2429POPC   D2A32872  39.203   7.389   8.264
 2429POPC   C3A32873  39.276   7.412   7.964
 2429POPC   C4A32874  39.254   7.412   7.664
 2429POPC   C1B32875  39.525   7.460   8.564
 2429POPC   C2B32876  39.449   7.439   8.264
 2429POPC   C3B32877  39.508   7.470   7.964
 2429POPC   C4B32878  39.526   7.466   7.664
 2430POPC   NC332879  17.552   2.736   9.464
 2430POPC   PO432880  17.463   2.787   9.164
 2430POPC   GL132881  17.489   2.784   8.864
 2430POPC   GL232882  17.491   2.637   8.864
 2430POPC   C1A32883  17.519   2.805   8.564
 2430POPC   D2A32884  17.494   2.772   8.264
 2430POPC   C3A32885  17.462   2.812   7.964
 2430POPC   C4A32886  17.541   2.773   7.664
 2430POPC   C1B32887  17.588   2.569   8.564
 2430POPC   C2B32888  17.618   2.567   8.264
 2430POPC   C3B32889  17.542   2.481   7.964
 2430POPC   C4B32890  17.585   2.519   7.664
 2431POPC   NC332891  44.705  30.707   9.464
 2431POPC   PO432892  44.669  30.662   9.164
 2431POPC   GL132893  44.687  30.689   8.864
 2431POPC   GL232894  44.579  30.571   8.864
 2431POPC   C1A32895  44.677  30.718   8.564
 2431POPC   D2A32896  44.704  30.686   8.264
 2431POPC   C3A32897  44.660  30.722   7.964
 2431POPC   C4A32898  44.626  30.651   7.664
 2431POPC   C1B32899  44.497  30.504   8.564
 2431POPC   C2B32900  44.510  30.520   8.264
 2431POPC   C3B32901  44.564  30.520   7.964
 2431POPC   C4B32902  44.544  30.534   7.664
 2432POPC   NC332903  34.591  38.445   9.464
 2432POPC   PO432904  34.596  38.408   9.164
 2432POPC   GL132905  34.616  38.412   8.864
 2432POPC   GL232906  34.541  38.349   8.864
 2432POPC   C1A32907  34.534  38.477   8.564
 2432POPC   D2A32908  34.581  38.431   8.264
 2432POPC   C3A32909  34.595  38.473   7.964
 2432POPC   C4A32910  34.556  38.445   7.664
 2432POPC   C1B32911  34.539  38.228   8.564
 2432POPC   C2B32912  34.601  38.169   8.264
 2432POPC   C3B32913  34.535  38.187   7.964
 2432POPC   C4B32914  34.596  38.209   7.664
 2433POPC   NC332915  11.307  15.971   9.464
 2433POPC   PO432916  11.289  15.957   9.164
 2433POPC   GL132917  11.258  15.923   8.864
 2433POPC   GL232918  11.137  15.976   8.864
 2433POPC   C1A32919  11.304  15.928   8.564
 2433POPC   D2A32920  11.336  15.961   8.264
 2433POPC   C3A32921  11.342  15.968   7.964
 2433POPC   C4A32922  11.259  15.932   7.664
 2433POPC   C1B32923  11.051  15.949   8.564
 2433POPC   C2B32924  11.078  15.933   8.264
 2433POPC   C3B32925  11.091  15.889   7.964
 2433POPC   C4B32926  11.069  15.906   7.664
 2434POPC   NC332927  25.238  31.483   9.464
 2434POPC   PO432928  25.262  31.473   9.164
 2434POPC   GL132929  25.275  31.498   8.864
 2434POPC   GL232930  25.130  31.477   8.864
 2434POPC   C1A32931  25.290  31.485   8.564
 2434POPC   D2A32932  25.296  31.476   8.264
 2434POPC   C3A32933  25.280  31.488   7.964
 2434POPC   C4A32934  25.276  31.470   7.664
 2434POPC   C1B32935  24.995  31.448   8.564
 2434POPC   C2B32936  24.992  31.436   8.264
 2434POPC   C3B32937  25.043  31.450   7.964
 2434POPC   C4B32938  25.058  31.488   7.664
 2435POPC   NC332939  40.811  14.388   9.464
 2435POPC   PO432940  40.733  14.453   9.164
 2435POPC   GL132941  40.753  14.385   8.864
 2435POPC   GL232942  40.749  14.252   8.864
 2435POPC   C1A32943  40.739  14.430   8.564
 2435POPC   D2A32944  40.824  14.380   8.264
 2435POPC   C3A32945  40.819  14.425   7.964
 2435POPC   C4A32946  40.830  14.367   7.664
 2435POPC   C1B32947  40.699  14.196   8.564
 2435POPC   C2B32948  40.738  14.185   8.264
 2435POPC   C3B32949  40.709  14.149   7.964
 2435POPC   C4B32950  40.714  14.130   7.664
 2436POPC   NC332951  28.358  15.940   9.464
 2436POPC   PO432952  28.409  16.002   9.164
 2436POPC   GL132953  28.354  15.970   8.864
 2436POPC   GL232954  28.337  15.784   8.864
 2436POPC   C1A32955  28.363  15.978   8.564
 2436POPC   D2A32956  28.408  15.915   8.264
 2436POPC   C3A32957  28.333  15.938   7.964
 2436POPC   C4A32958  28.344  15.936   7.664
 2436POPC   C1B32959  28.352  15.665   8.564
 2436POPC   C2B32960  28.300  15.741   8.264
 2436POPC   C3B32961  28.281  15.695   7.964
 2436POPC   C4B32962  28.358  15.722   7.664
 2437POPC   NC332963  36.149  44.697   9.464
 2437POPC   PO432964  36.157  44.711   9.164
 2437POPC   GL132965  36.167  44.674   8.864
 2437POPC   GL232966  36.240  44.736   8.864
 2437POPC   C1A32967  36.087  44.709   8.564
 2437POPC   D2A32968  36.079  44.712   8.264
 2437POPC   C3A32969  36.146  44.636   7.964
 2437POPC   C4A32970  36.152  44.631   7.664
 2437POPC   C1B32971  36.332  44.756   8.564
 2437POPC   C2B32972  36.400  44.796   8.264
 2437POPC   C3B32973  36.372  44.749   7.964
 2437POPC   C4B32974  36.348  44.731   7.664
 2438POPC   NC332975   5.868   7.428   9.464
 2438POPC   PO432976   5.865   7.404   9.164
 2438POPC   GL132977   5.886   7.386   8.864
 2438POPC   GL232978   5.718   7.407   8.864
 2438POPC   C1A32979   5.916   7.403   8.564
 2438POPC   D2A32980   5.845   7.390   8.264
 2438POPC   C3A32981   5.873   7.403   7.964
 2438POPC   C4A32982   5.919   7.435   7.664
 2438POPC   C1B32983   5.666   7.337   8.564
 2438POPC   C2B32984   5.622   7.386   8.264
 2438POPC   C3B32985   5.620   7.309   7.964
 2438POPC   C4B32986   5.610   7.345   7.664
 2439POPC   NC332987  12.868  15.948   9.464
 2439POPC   PO432988  12.824  15.923   9.164
 2439POPC   GL132989  12.880  15.920   8.864
 2439POPC   GL232990  12.939  15.815   8.864
 2439POPC   C1A32991  12.853  15.971   8.564
 2439POPC   D2A32992  12.893  15.952   8.264
 2439POPC   C3A32993  12.874  16.000   7.964
 2439POPC   C4A32994  12.845  15.914   7.664
 2439POPC   C1B32995  12.940  15.760   8.564
 2439POPC   C2B32996  12.932  15.737   8.264
 2439POPC   C3B32997  12.980  15.688   7.964
 2439POPC   C4B32998  12.935  15.681   7.664
 2440POPC   NC332999  42.345  25.992   9.464
 2440POPC   PO433000  42.326  26.086   9.164
 2440POPC   GL133001  42.296  26.001   8.864
 2440POPC   GL233002  42.329  26.157   8.864
 2440POPC   C1A33003  42.292  25.993   8.564
 2440POPC   D2A33004  42.299  26.044   8.264
 2440POPC   C3A33005  42.320  26.003   7.964
 2440POPC   C4A33006  42.350  26.078   7.664
 2440POPC   C1B33007  42.368  26.337   8.564
 2440POPC   C2B33008  42.301  26.279   8.264
 2440POPC   C3B33009  42.355  26.293   7.964
 2440POPC   C4B33010  42.331  26.286   7.664
 2441POPC   NC333011  20.601  43.857   9.464
 2441POPC   PO433012  20.561  43.854   9.164
 2441POPC   GL133013  20.621  43.925   8.864
 2441POPC   GL233014  20.546  43.905   8.864
 2441POPC   C1A33015  20.597  43.925   8.564
 2441POPC   D2A33016  20.575  43.883   8.264
 2441POPC   C3A33017  20.562  43.842   7.964
 2441POPC   C4A33018  20.653  43.861   7.664
 2441POPC   C1B33019  20.425  44.036   8.564
 2441POPC   C2B33020  20.398  44.014   8.264
 2441POPC   C3B33021  20.350  44.001   7.964
 2441POPC   C4B33022  20.349  44.056   7.664
 2442POPC   NC333023  32.251  24.535   9.464
 2442POPC   PO433024  32.218  24.461   9.164
 2442POPC   GL133025  32.204  24.517   8.864
 2442POPC   GL233026  32.123  24.548   8.864
 2442POPC   C1A33027  32.252  24.445   8.564
 2442POPC   D2A33028  32.280  24.519   8.264
 2442POPC   C3A33029  32.235  24.520   7.964
 2442POPC   C4A33030  32.250  24.441   7.664
 2442POPC   C1B33031  32.055  24.668   8.564
 2442POPC   C2B33032  32.019  24.598   8.264
 2442POPC   C3B33033  31.993  24.661   7.964
 2442POPC   C4B33034  32.012  24.666   7.664
 2443POPC   NC333035  13.638  17.537   9.464
 2443POPC   PO433036  13.675  17.535   9.164
 2443POPC   GL133037  13.624  17.468   8.864
 2443POPC   GL233038  13.527  17.410   8.864
 2443POPC   C1A33039  13.618  17.484   8.564
 2443POPC   D2A33040  13.657  17.534   8.264
 2443POPC   C3A33041  13.657  17.458   7.964
 2443POPC   C4A33042  13.675  17.477   7.664
 2443POPC   C1B33043  13.515  17.327   8.564
 2443POPC   C2B33044  13.495  17.257   8.264
 2443POPC   C3B33045  13.446  17.309   7.964
 2443POPC   C4B33046  13.457  17.284   7.664
 2444POPC   NC333047  15.956  24.471   9.464
 2444POPC   PO433048  15.985  24.447   9.164
 2444POPC   GL133049  15.959  24.501   8.864
 2444POPC   GL233050  15.972  24.367   8.864
 2444POPC   C1A33051  15.955  24.503   8.564
 2444POPC   D2A33052  15.954  24.539   8.264
 2444POPC   C3A33053  15.907  24.482   7.964
 2444POPC   C4A33054  15.913  24.458   7.664
 2444POPC   C1B33055  16.031  24.201   8.564
 2444POPC   C2B33056  16.055  24.273   8.264
 2444POPC   C3B33057  16.017  24.274   7.964
 2444POPC   C4B33058  16.021  24.296   7.664
 2445POPC   NC333059  22.175   9.704   9.464
 2445POPC   PO433060  22.170   9.728   9.164
 2445POPC   GL133061  22.208   9.789   8.864
 2445POPC   GL233062  22.072   9.696   8.864
 2445POPC   C1A33063  22.133   9.752   8.564
 2445POPC   D2A33064  22.207   9.777   8.264
 2445POPC   C3A33065  22.191   9.734   7.964
 2445POPC   C4A33066  22.138   9.738   7.664
 2445POPC   C1B33067  21.966   9.575   8.564
 2445POPC   C2B33068  21.961   9.640   8.264
 2445POPC   C3B33069  22.009   9.630   7.964
 2445POPC   C4B33070  21.916   9.630   7.664
 2446POPC   NC333071  24.497  26.080   9.464
 2446POPC   PO433072  24.520  26.062   9.164
 2446POPC   GL133073  24.460  26.006   8.864
 2446POPC   GL233074  24.359  26.174   8.864
 2446POPC   C1A33075  24.530  25.994   8.564
 2446POPC   D2A33076  24.527  26.079   8.264
 2446POPC   C3A33077  24.510  26.010   7.964
 2446POPC   C4A33078  24.501  26.051   7.664
 2446POPC   C1B33079  24.260  26.218   8.564
 2446POPC   C2B33080  24.289  26.252   8.264
 2446POPC   C3B33081  24.273  26.185   7.964
 2446POPC   C4B33082  24.299  26.220   7.664
 2447POPC   NC333083  23.737  29.946   9.464
 2447POPC   PO433084  23.763  29.940   9.164
 2447POPC   GL133085  23.754  29.879   8.864
 2447POPC   GL233086  23.708  30.086   8.864
 2447POPC   C1A33087  23.739  29.938   8.564
 2447POPC   D2A33088  23.670  29.964   8.264
 2447POPC   C3A33089  23.731  29.940   7.964
 2447POPC   C4A33090  23.674  29.937   7.664
 2447POPC   C1B33091  23.769  30.134   8.564
 2447POPC   C2B33092  23.729  30.170   8.264
 2447POPC   C3B33093  23.762  30.151   7.964
 2447POPC   C4B33094  23.794  30.183   7.664
 2448POPC   NC333095  24.527   2.791   9.464
 2448POPC   PO433096  24.469   2.772   9.164
 2448POPC   GL133097  24.444   2.788   8.864
 2448POPC   GL233098  24.458   2.895   8.864
 2448POPC   C1A33099  24.530   2.728   8.564
 2448POPC   D2A33100  24.492   2.750   8.264
 2448POPC   C3A33101  24.452   2.815   7.964
 2448POPC   C4A33102  24.511   2.799   7.664
 2448POPC   C1B33103  24.494   2.998   8.564
 2448POPC   C2B33104  24.534   2.991   8.264
 2448POPC   C3B33105  24.509   3.006   7.964
 2448POPC   C4B33106  24.468   3.057   7.664
 2449POPC   NC333107   9.751  12.078   9.464
 2449POPC   PO433108   9.715  12.059   9.164
 2449POPC   GL133109   9.716  12.043   8.864
 2449POPC   GL233110   9.730  11.935   8.864
 2449POPC   C1A33111   9.706  12.103   8.564
 2449POPC   D2A33112   9.703  12.108   8.264
 2449POPC   C3A33113   9.720  12.112   7.964
 2449POPC   C4A33114   9.773  12.117   7.664
 2449POPC   C1B33115   9.784  11.822   8.564
 2449POPC   C2B33116   9.708  11.802   8.264
 2449POPC   C3B33117   9.774  11.861   7.964
 2449POPC   C4B33118   9.779  11.795   7.664
 2450POPC   NC333119  27.569   4.343   9.464
 2450POPC   PO433120  27.611   4.282   9.164
 2450POPC   GL133121  27.581   4.352   8.864
 2450POPC   GL233122  27.578   4.401   8.864
 2450POPC   C1A33123  27.559   4.270   8.564
 2450POPC   D2A33124  27.554   4.268   8.264
 2450POPC   C3A33125  27.618   4.321   7.964
 2450POPC   C4A33126  27.611   4.365   7.664
 2450POPC   C1B33127  27.520   4.511   8.564
 2450POPC   C2B33128  27.474   4.566   8.264
 2450POPC   C3B33129  27.457   4.586   7.964
 2450POPC   C4B33130  27.487   4.526   7.664
 2451POPC   NC333131  42.323  27.580   9.464
 2451POPC   PO433132  42.326  27.621   9.164
 2451POPC   GL133133  42.323  27.609   8.864
 2451POPC   GL233134  42.432  27.694   8.864
 2451POPC   C1A33135  42.376  27.549   8.564
 2451POPC   D2A33136  42.380  27.600   8.264
 2451POPC   C3A33137  42.366  27.614   7.964
 2451POPC   C4A33138  42.301  27.574   7.664
 2451POPC   C1B33139  42.578  27.764   8.564
 2451POPC   C2B33140  42.569  27.710   8.264
 2451POPC   C3B33141  42.589  27.767   7.964
 2451POPC   C4B33142  42.534  27.759   7.664
 2452POPC   NC333143  25.232  28.385   9.464
 2452POPC   PO433144  25.286  28.332   9.164
 2452POPC   GL133145  25.230  28.328   8.864
 2452POPC   GL233146  25.365  28.381   8.864
 2452POPC   C1A33147  25.244  28.354   8.564
 2452POPC   D2A33148  25.246  28.393   8.264
 2452POPC   C3A33149  25.294  28.418   7.964
 2452POPC   C4A33150  25.228  28.386   7.664
 2452POPC   C1B33151  25.474  28.475   8.564
 2452POPC   C2B33152  25.457  28.432   8.264
 2452POPC   C3B33153  25.491  28.467   7.964
 2452POPC   C4B33154  25.470  28.492   7.664
 2453POPC   NC333155  30.720  31.429   9.464
 2453POPC   PO433156  30.672  31.516   9.164
 2453POPC   GL133157  30.719  31.522   8.864
 2453POPC   GL233158  30.560  31.458   8.864
 2453POPC   C1A33159  30.731  31.478   8.564
 2453POPC   D2A33160  30.678  31.475   8.264
 2453POPC   C3A33161  30.666  31.452   7.964
 2453POPC   C4A33162  30.715  31.431   7.664
 2453POPC   C1B33163  30.498  31.406   8.564
 2453POPC   C2B33164  30.446  31.329   8.264
 2453POPC   C3B33165  30.455  31.356   7.964
 2453POPC   C4B33166  30.425  31.336   7.664
 2454POPC   NC333167  29.954   4.330   9.464
 2454POPC   PO433168  29.912   4.338   9.164
 2454POPC   GL133169  29.907   4.275   8.864
 2454POPC   GL233170  29.820   4.408   8.864
 2454POPC   C1A33171  29.898   4.319   8.564
 2454POPC   D2A33172  29.883   4.345   8.264
 2454POPC   C3A33173  29.921   4.290   7.964
 2454POPC   C4A33174  29.912   4.328   7.664
 2454POPC   C1B33175  29.798   4.541   8.564
 2454POPC   C2B33176  29.749   4.546   8.264
 2454POPC   C3B33177  29.815   4.551   7.964
 2454POPC   C4B33178  29.777   4.549   7.664
 2455POPC   NC333179   8.923   0.437   9.464
 2455POPC   PO433180   8.964   0.410   9.164
 2455POPC   GL133181   8.976   0.472   8.864
 2455POPC   GL233182   8.933   0.270   8.864
 2455POPC   C1A33183   8.946   0.460   8.564
 2455POPC   D2A33184   8.963   0.423   8.264
 2455POPC   C3A33185   8.929   0.434   7.964
 2455POPC   C4A33186   8.926   0.465   7.664
 2455POPC   C1B33187   8.899   0.158   8.564
 2455POPC   C2B33188   8.912   0.242   8.264
 2455POPC   C3B33189   8.870   0.240   7.964
 2455POPC   C4B33190   8.922   0.247   7.664
 2456POPC   NC333191  24.445  22.168   9.464
 2456POPC   PO433192  24.466  22.171   9.164
 2456POPC   GL133193  24.516  22.128   8.864
 2456POPC   GL233194  24.446  22.264   8.864
 2456POPC   C1A33195  24.489  22.172   8.564
 2456POPC   D2A33196  24.537  22.183   8.264
 2456POPC   C3A33197  24.498  22.141   7.964
 2456POPC   C4A33198  24.461  22.189   7.664
 2456POPC   C1B33199  24.435  22.395   8.564
 2456POPC   C2B33200  24.455  22.441   8.264
 2456POPC   C3B33201  24.485  22.428   7.964
 2456POPC   C4B33202  24.484  22.438   7.664
 2457POPC   NC333203  15.907  43.899   9.464
 2457POPC   PO433204  15.972  43.848   9.164
 2457POPC   GL133205  16.000  43.867   8.864
 2457POPC   GL233206  15.878  43.998   8.864
 2457POPC   C1A33207  15.993  43.857   8.564
 2457POPC   D2A33208  15.955  43.842   8.264
 2457POPC   C3A33209  15.938  43.891   7.964
 2457POPC   C4A33210  15.944  43.862   7.664
 2457POPC   C1B33211  15.711  44.038   8.564
 2457POPC   C2B33212  15.764  44.070   8.264
 2457POPC   C3B33213  15.735  43.999   7.964
 2457POPC   C4B33214  15.750  44.043   7.664
 2458POPC   NC333215  16.767  32.272   9.464
 2458POPC   PO433216  16.754  32.298   9.164
 2458POPC   GL133217  16.689  32.252   8.864
 2458POPC   GL233218  16.797  32.185   8.864
 2458POPC   C1A33219  16.772  32.248   8.564
 2458POPC   D2A33220  16.686  32.255   8.264
 2458POPC   C3A33221  16.754  32.210   7.964
 2458POPC   C4A33222  16.775  32.232   7.664
 2458POPC   C1B33223  16.886  32.124   8.564
 2458POPC   C2B33224  16.956  32.129   8.264
 2458POPC   C3B33225  16.885  32.080   7.964
 2458POPC   C4B33226  16.902  32.054   7.664
 2459POPC   NC333227  44.707  41.566   9.464
 2459POPC   PO433228  44.704  41.594   9.164
 2459POPC   GL133229  44.664  41.608   8.864
 2459POPC   GL233230  44.767  41.559   8.864
 2459POPC   C1A33231  44.635  41.582   8.564
 2459POPC   D2A33232  44.679  41.580   8.264
 2459POPC   C3A33233  44.696  41.569   7.964
 2459POPC   C4A33234  44.632  41.579   7.664
 2459POPC   C1B33235  44.898  41.484   8.564
 2459POPC   C2B33236  44.940  41.526   8.264
 2459POPC   C3B33237  44.937  41.510   7.964
 2459POPC   C4B33238  44.948  41.519   7.664
 2460POPC   NC333239  32.203   9.721   9.464
 2460POPC   PO433240  32.238   9.702   9.164
 2460POPC   GL133241  32.216   9.742   8.864
 2460POPC   GL233242  32.220   9.587   8.864
 2460POPC   C1A33243  32.234   9.730   8.564
 2460POPC   D2A33244  32.289   9.724   8.264
 2460POPC   C3A33245  32.259   9.777   7.964
 2460POPC   C4A33246  32.267   9.702   7.664
 2460POPC   C1B33247  32.271   9.500   8.564
 2460POPC   C2B33248  32.293   9.466   8.264
 2460POPC   C3B33249  32.261   9.466   7.964
 2460POPC   C4B33250  32.259   9.498   7.664
 2461POPC   NC333251  19.871   4.359   9.464
 2461POPC   PO433252  19.810   4.294   9.164
 2461POPC   GL133253  19.831   4.366   8.864
 2461POPC   GL233254  19.776   4.439   8.864
 2461POPC   C1A33255  19.859   4.308   8.564
 2461POPC   D2A33256  19.870   4.348   8.264
 2461POPC   C3A33257  19.840   4.272   7.964
 2461POPC   C4A33258  19.818   4.303   7.664
 2461POPC   C1B33259  19.740   4.576   8.564
 2461POPC   C2B33260  19.740   4.501   8.264
 2461POPC   C3B33261  19.766   4.538   7.964
 2461POPC   C4B33262  19.679   4.538   7.664
 2462POPC   NC333263  25.262  36.100   9.464
 2462POPC   PO433264  25.302  36.104   9.164
 2462POPC   GL133265  25.278  36.127   8.864
 2462POPC   GL233266  25.095  36.186   8.864
 2462POPC   C1A33267  25.240  36.172   8.564
 2462POPC   D2A33268  25.290  36.080   8.264
 2462POPC   C3A33269  25.223  36.106   7.964
 2462POPC   C4A33270  25.284  36.162   7.664
 2462POPC   C1B33271  25.004  36.186   8.564
 2462POPC   C2B33272  25.069  36.194   8.264
 2462POPC   C3B33273  25.004  36.125   7.964
 2462POPC   C4B33274  25.003  36.167   7.664
 2463POPC   NC333275  39.270  38.425   9.464
 2463POPC   PO433276  39.280  38.438   9.164
 2463POPC   GL133277  39.238  38.474   8.864
 2463POPC   GL233278  39.294  38.321   8.864
 2463POPC   C1A33279  39.221  38.480   8.564
 2463POPC   D2A33280  39.223  38.464   8.264
 2463POPC   C3A33281  39.228  38.472   7.964
 2463POPC   C4A33282  39.195  38.446   7.664
 2463POPC   C1B33283  39.334  38.244   8.564
 2463POPC   C2B33284  39.356  38.229   8.264
 2463POPC   C3B33285  39.314  38.249   7.964
 2463POPC   C4B33286  39.300  38.192   7.664
 2464POPC   NC333287   4.349  35.386   9.464
 2464POPC   PO433288   4.273  35.358   9.164
 2464POPC   GL133289   4.317  35.389   8.864
 2464POPC   GL233290   4.399  35.288   8.864
 2464POPC   C1A33291   4.335  35.375   8.564
 2464POPC   D2A33292   4.339  35.333   8.264
 2464POPC   C3A33293   4.355  35.392   7.964
 2464POPC   C4A33294   4.312  35.305   7.664
 2464POPC   C1B33295   4.416  35.136   8.564
 2464POPC   C2B33296   4.420  35.128   8.264
 2464POPC   C3B33297   4.463  35.111   7.964
 2464POPC   C4B33298   4.503  35.164   7.664
 2465POPC   NC333299  26.858  18.239   9.464
 2465POPC   PO433300  26.770  18.264   9.164
 2465POPC   GL133301  26.811  18.237   8.864
 2465POPC   GL233302  26.713  18.253   8.864
 2465POPC   C1A33303  26.831  18.272   8.564
 2465POPC   D2A33304  26.783  18.277   8.264
 2465POPC   C3A33305  26.837  18.247   7.964
 2465POPC   C4A33306  26.849  18.300   7.664
 2465POPC   C1B33307  26.587  18.136   8.564
 2465POPC   C2B33308  26.580  18.140   8.264
 2465POPC   C3B33309  26.590  18.126   7.964
 2465POPC   C4B33310  26.625  18.154   7.664
 2466POPC   NC333311  19.804  16.780   9.464
 2466POPC   PO433312  19.810  16.757   9.164
 2466POPC   GL133313  19.787  16.711   8.864
 2466POPC   GL233314  19.715  16.803   8.864
 2466POPC   C1A33315  19.882  16.730   8.564
 2466POPC   D2A33316  19.798  16.756   8.264
 2466POPC   C3A33317  19.872  16.715   7.964
 2466POPC   C4A33318  19.845  16.712   7.664
 2466POPC   C1B33319  19.589  16.746   8.564
 2466POPC   C2B33320  19.629  16.806   8.264
 2466POPC   C3B33321  19.624  16.752   7.964
 2466POPC   C4B33322  19.624  16.783   7.664
 2467POPC   NC333323  26.015  37.726   9.464
 2467POPC   PO433324  26.013  37.652   9.164
 2467POPC   GL133325  26.041  37.643   8.864
 2467POPC   GL233326  26.013  37.591   8.864
 2467POPC   C1A33327  25.995  37.637   8.564
 2467POPC   D2A33328  25.996  37.662   8.264
 2467POPC   C3A33329  26.010  37.632   7.964
 2467POPC   C4A33330  26.066  37.715   7.664
 2467POPC   C1B33331  26.029  37.390   8.564
 2467POPC   C2B33332  26.016  37.430   8.264
 2467POPC   C3B33333  25.987  37.466   7.964
 2467POPC   C4B33334  25.950  37.402   7.664
 2468POPC   NC333335   3.520  29.877   9.464
 2468POPC   PO433336   3.547  29.899   9.164
 2468POPC   GL133337   3.580  29.938   8.864
 2468POPC   GL233338   3.475  30.021   8.864
 2468POPC   C1A33339   3.527  29.901   8.564
 2468POPC   D2A33340   3.540  29.951   8.264
 2468POPC   C3A33341   3.585  29.945   7.964
 2468POPC   C4A33342   3.589  29.877   7.664
 2468POPC   C1B33343   3.481  30.190   8.564
 2468POPC   C2B33344   3.499  30.162   8.264
 2468POPC   C3B33345   3.418  30.193   7.964
 2468POPC   C4B33346   3.497  30.150   7.664
 2469POPC   NC333347  34.602  17.512   9.464
 2469POPC   PO433348  34.568  17.534   9.164
 2469POPC   GL133349  34.572  17.528   8.864
 2469POPC   GL233350  34.433  17.473   8.864
 2469POPC   C1A33351  34.526  17.544   8.564
 2469POPC   D2A33352  34.565  17.505   8.264
 2469POPC   C3A33353  34.589  17.480   7.964
 2469POPC   C4A33354  34.620  17.509   7.664
 2469POPC   C1B33355  34.364  17.509   8.564
 2469POPC   C2B33356  34.364  17.531   8.264
 2469POPC   C3B33357  34.306  17.544   7.964
 2469POPC   C4B33358  34.365  17.541   7.664
 2470POPC   NC333359  33.771  14.361   9.464
 2470POPC   PO433360  33.778  14.361   9.164
 2470POPC   GL133361  33.817  14.439   8.864
 2470POPC   GL233362  33.734  14.534   8.864
 2470POPC   C1A33363  33.797  14.397   8.564
 2470POPC   D2A33364  33.786  14.354   8.264
 2470POPC   C3A33365  33.810  14.451   7.964
 2470POPC   C4A33366  33.761  14.392   7.664
 2470POPC   C1B33367  33.632  14.546   8.564
 2470POPC   C2B33368  33.617  14.625   8.264
 2470POPC   C3B33369  33.605  14.591   7.964
 2470POPC   C4B33370  33.593  14.552   7.664
 2471POPC   NC333371  39.980  39.973   9.464
 2471POPC   PO433372  39.998  40.035   9.164
 2471POPC   GL133373  40.039  40.036   8.864
 2471POPC   GL233374  39.911  39.912   8.864
 2471POPC   C1A33375  39.983  39.986   8.564
 2471POPC   D2A33376  39.999  39.977   8.264
 2471POPC   C3A33377  39.982  40.007   7.964
 2471POPC   C4A33378  39.967  40.028   7.664
 2471POPC   C1B33379  39.856  39.759   8.564
 2471POPC   C2B33380  39.862  39.750   8.264
 2471POPC   C3B33381  39.834  39.832   7.964
 2471POPC   C4B33382  39.833  39.809   7.664
 2472POPC   NC333383  17.485  18.263   9.464
 2472POPC   PO433384  17.499  18.240   9.164
 2472POPC   GL133385  17.506  18.267   8.864
 2472POPC   GL233386  17.500  18.159   8.864
 2472POPC   C1A33387  17.520  18.276   8.564
 2472POPC   D2A33388  17.534  18.302   8.264
 2472POPC   C3A33389  17.478  18.298   7.964
 2472POPC   C4A33390  17.500  18.251   7.664
 2472POPC   C1B33391  17.628  17.997   8.564
 2472POPC   C2B33392  17.596  18.031   8.264
 2472POPC   C3B33393  17.554  18.035   7.964
 2472POPC   C4B33394  17.542  18.020   7.664
 2473POPC   NC333395  26.026   2.814   9.464
 2473POPC   PO433396  26.042   2.768   9.164
 2473POPC   GL133397  26.087   2.775   8.864
 2473POPC   GL233398  26.056   2.627   8.864
 2473POPC   C1A33399  26.015   2.723   8.564
 2473POPC   D2A33400  26.038   2.792   8.264
 2473POPC   C3A33401  26.045   2.775   7.964
 2473POPC   C4A33402  26.031   2.769   7.664
 2473POPC   C1B33403  26.104   2.542   8.564
 2473POPC   C2B33404  26.137   2.560   8.264
 2473POPC   C3B33405  26.127   2.498   7.964
 2473POPC   C4B33406  26.100   2.548   7.664
 2474POPC   NC333407  12.874  29.903   9.464
 2474POPC   PO433408  12.894  29.894   9.164
 2474POPC   GL133409  12.872  29.878   8.864
 2474POPC   GL233410  13.008  29.924   8.864
 2474POPC   C1A33411  12.850  29.888   8.564
 2474POPC   D2A33412  12.821  29.934   8.264
 2474POPC   C3A33413  12.830  29.960   7.964
 2474POPC   C4A33414  12.873  29.884   7.664
 2474POPC   C1B33415  13.105  29.815   8.564
 2474POPC   C2B33416  13.055  29.786   8.264
 2474POPC   C3B33417  13.064  29.834   7.964
 2474POPC   C4B33418  13.068  29.828   7.664
 2475POPC   NC333419  41.551  22.167   9.464
 2475POPC   PO433420  41.526  22.180   9.164
 2475POPC   GL133421  41.587  22.134   8.864
 2475POPC   GL233422  41.613  22.299   8.864
 2475POPC   C1A33423  41.531  22.171   8.564
 2475POPC   D2A33424  41.522  22.143   8.264
 2475POPC   C3A33425  41.584  22.211   7.964
 2475POPC   C4A33426  41.561  22.133   7.664
 2475POPC   C1B33427  41.646  22.350   8.564
 2475POPC   C2B33428  41.632  22.365   8.264
 2475POPC   C3B33429  41.652  22.351   7.964
 2475POPC   C4B33430  41.673  22.352   7.664
 2476POPC   NC333431  11.252  42.303   9.464
 2476POPC   PO433432  11.292  42.295   9.164
 2476POPC   GL133433  11.307  42.383   8.864
 2476POPC   GL233434  11.337  42.263   8.864
 2476POPC   C1A33435  11.275  42.309   8.564
 2476POPC   D2A33436  11.309  42.309   8.264
 2476POPC   C3A33437  11.250  42.380   7.964
 2476POPC   C4A33438  11.266  42.297   7.664
 2476POPC   C1B33439  11.466  42.111   8.564
 2476POPC   C2B33440  11.402  42.164   8.264
 2476POPC   C3B33441  11.470  42.069   7.964
 2476POPC   C4B33442  11.424  42.141   7.664
 2477POPC   NC333443  44.703  29.140   9.464
 2477POPC   PO433444  44.676  29.159   9.164
 2477POPC   GL133445  44.617  29.095   8.864
 2477POPC   GL233446  44.592  29.200   8.864
 2477POPC   C1A33447  44.639  29.151   8.564
 2477POPC   D2A33448  44.627  29.097   8.264
 2477POPC   C3A33449  44.706  29.108   7.964
 2477POPC   C4A33450  44.643  29.148   7.664
 2477POPC   C1B33451  44.477  29.244   8.564
 2477POPC   C2B33452  44.395  29.265   8.264
 2477POPC   C3B33453  44.473  29.211   7.964
 2477POPC   C4B33454  44.446  29.286   7.664
 2478POPC   NC333455  21.357  28.347   9.464
 2478POPC   PO433456  21.338  28.332   9.164
 2478POPC   GL133457  21.348  28.355   8.864
 2478POPC   GL233458  21.535  28.435   8.864
 2478POPC   C1A33459  21.350  28.326   8.564
 2478POPC   D2A33460  21.370  28.412   8.264
 2478POPC   C3A33461  21.433  28.396   7.964
 2478POPC   C4A33462  21.411  28.371   7.664
 2478POPC   C1B33463  21.595  28.430   8.564
 2478POPC   C2B33464  21.601  28.503   8.264
 2478POPC   C3B33465  21.608  28.442   7.964
 2478POPC   C4B33466  21.588  28.477   7.664
 2479POPC   NC333467  43.086   8.218   9.464
 2479POPC   PO433468  43.137   8.164   9.164
 2479POPC   GL133469  43.074   8.245   8.864
 2479POPC   GL233470  43.094   8.060   8.864
 2479POPC   C1A33471  43.143   8.239   8.564
 2479POPC   D2A33472  43.081   8.200   8.264
 2479POPC   C3A33473  43.126   8.223   7.964
 2479POPC   C4A33474  43.159   8.151   7.664
 2479POPC   C1B33475  43.109   7.944   8.564
 2479POPC   C2B33476  43.029   7.946   8.264
 2479POPC   C3B33477  43.103   7.964   7.964
 2479POPC   C4B33478  43.109   7.910   7.664
 2480POPC   NC333479  36.893  16.702   9.464
 2480POPC   PO433480  36.914  16.738   9.164
 2480POPC   GL133481  36.950  16.714   8.864
 2480POPC   GL233482  36.754  16.747   8.864
 2480POPC   C1A33483  36.885  16.750   8.564
 2480POPC   D2A33484  36.950  16.702   8.264
 2480POPC   C3A33485  36.946  16.703   7.964
 2480POPC   C4A33486  36.909  16.750   7.664
 2480POPC   C1B33487  36.665  16.767   8.564
 2480POPC   C2B33488  36.619  16.759   8.264
 2480POPC   C3B33489  36.631  16.749   7.964
 2480POPC   C4B33490  36.679  16.767   7.664
 2481POPC   NC333491  32.290  17.459   9.464
 2481POPC   PO433492  32.204  17.507   9.164
 2481POPC   GL133493  32.268  17.501   8.864
 2481POPC   GL233494  32.198  17.477   8.864
 2481POPC   C1A33495  32.225  17.555   8.564
 2481POPC   D2A33496  32.198  17.503   8.264
 2481POPC   C3A33497  32.288  17.459   7.964
 2481POPC   C4A33498  32.210  17.518   7.664
 2481POPC   C1B33499  32.094  17.394   8.564
 2481POPC   C2B33500  32.003  17.356   8.264
 2481POPC   C3B33501  32.046  17.394   7.964
 2481POPC   C4B33502  32.058  17.390   7.664
 2482POPC   NC333503   2.019  17.533   9.464
 2482POPC   PO433504   2.029  17.501   9.164
 2482POPC   GL133505   2.004  17.519   8.864
 2482POPC   GL233506   2.091  17.476   8.864
 2482POPC   C1A33507   1.968  17.523   8.564
 2482POPC   D2A33508   2.025  17.464   8.264
 2482POPC   C3A33509   2.003  17.500   7.964
 2482POPC   C4A33510   1.992  17.540   7.664
 2482POPC   C1B33511   2.190  17.326   8.564
 2482POPC   C2B33512   2.190  17.380   8.264
 2482POPC   C3B33513   2.202  17.350   7.964
 2482POPC   C4B33514   2.133  17.306   7.664
 2483POPC   NC333515   0.455  15.203   9.464
 2483POPC   PO433516   0.447  15.184   9.164
 2483POPC   GL133517   0.434  15.169   8.864
 2483POPC   GL233518   0.446  15.353   8.864
 2483POPC   C1A33519   0.412  15.172   8.564
 2483POPC   D2A33520   0.424  15.221   8.264
 2483POPC   C3A33521   0.484  15.225   7.964
 2483POPC   C4A33522   0.406  15.216   7.664
 2483POPC   C1B33523   0.416  15.427   8.564
 2483POPC   C2B33524   0.383  15.414   8.264
 2483POPC   C3B33525   0.427  15.391   7.964
 2483POPC   C4B33526   0.403  15.389   7.664
 2484POPC   NC333527  29.931  31.486   9.464
 2484POPC   PO433528  29.938  31.510   9.164
 2484POPC   GL133529  29.881  31.461   8.864
 2484POPC   GL233530  30.075  31.426   8.864
 2484POPC   C1A33531  29.965  31.449   8.564
 2484POPC   D2A33532  29.880  31.502   8.264
 2484POPC   C3A33533  29.939  31.471   7.964
 2484POPC   C4A33534  29.965  31.437   7.664
 2484POPC   C1B33535  30.179  31.400   8.564
 2484POPC   C2B33536  30.103  31.357   8.264
 2484POPC   C3B33537  30.160  31.422   7.964
 2484POPC   C4B33538  30.118  31.333   7.664
 2485POPC   NC333539  17.543  33.003   9.464
 2485POPC   PO433540  17.531  32.995   9.164
 2485POPC   GL133541  17.512  33.004   8.864
 2485POPC   GL233542  17.421  32.907   8.864
 2485POPC   C1A33543  17.489  32.983   8.564
 2485POPC   D2A33544  17.539  33.047   8.264
 2485POPC   C3A33545  17.485  33.025   7.964
 2485POPC   C4A33546  17.505  33.027   7.664
 2485POPC   C1B33547  17.366  32.820   8.564
 2485POPC   C2B33548  17.433  32.748   8.264
 2485POPC   C3B33549  17.392  32.797   7.964
 2485POPC   C4B33550  17.356  32.798   7.664
 2486POPC   NC333551   6.694   2.771   9.464
 2486POPC   PO433552   6.596   2.776   9.164
 2486POPC   GL133553   6.671   2.734   8.864
 2486POPC   GL233554   6.656   2.935   8.864
 2486POPC   C1A33555   6.623   2.809   8.564
 2486POPC   D2A33556   6.661   2.748   8.264
 2486POPC   C3A33557   6.640   2.760   7.964
 2486POPC   C4A33558   6.643   2.788   7.664
 2486POPC   C1B33559   6.624   2.972   8.564
 2486POPC   C2B33560   6.653   3.047   8.264
 2486POPC   C3B33561   6.653   3.051   7.964
 2486POPC   C4B33562   6.636   3.055   7.664
 2487POPC   NC333563  29.934  42.295   9.464
 2487POPC   PO433564  29.922  42.294   9.164
 2487POPC   GL133565  29.890  42.295   8.864
 2487POPC   GL233566  30.010  42.404   8.864
 2487POPC   C1A33567  29.904  42.351   8.564
 2487POPC   D2A33568  29.901  42.371   8.264
 2487POPC   C3A33569  29.918  42.358   7.964
 2487POPC   C4A33570  29.943  42.341   7.664
 2487POPC   C1B33571  30.124  42.394   8.564
 2487POPC   C2B33572  30.174  42.405   8.264
 2487POPC   C3B33573  30.176  42.419   7.964
 2487POPC   C4B33574  30.136  42.340   7.664
 2488POPC   NC333575   9.705  28.378   9.464
 2488POPC   PO433576   9.723  28.372   9.164
 2488POPC   GL133577   9.755  28.326   8.864
 2488POPC   GL233578   9.717  28.244   8.864
 2488POPC   C1A33579   9.797  28.389   8.564
 2488POPC   D2A33580   9.771  28.381   8.264
 2488POPC   C3A33581   9.722  28.366   7.964
 2488POPC   C4A33582   9.773  28.366   7.664
 2488POPC   C1B33583   9.641  28.202   8.564
 2488POPC   C2B33584   9.609  28.136   8.264
 2488POPC   C3B33585   9.616  28.199   7.964
 2488POPC   C4B33586   9.575  28.156   7.664
 2489POPC   NC333587  19.844  44.626   9.464
 2489POPC   PO433588  19.824  44.675   9.164
 2489POPC   GL133589  19.871  44.700   8.864
 2489POPC   GL233590  19.703  44.717   8.864
 2489POPC   C1A33591  19.814  44.628   8.564
 2489POPC   D2A33592  19.833  44.640   8.264
 2489POPC   C3A33593  19.864  44.641   7.964
 2489POPC   C4A33594  19.786  44.708   7.664
 2489POPC   C1B33595  19.609  44.720   8.564
 2489POPC   C2B33596  19.598  44.677   8.264
 2489POPC   C3B33597  19.641  44.734   7.964
 2489POPC   C4B33598  19.576  44.754   7.664
 2490POPC   NC333599  15.956  30.710   9.464
 2490POPC   PO433600  15.912  30.738   9.164
 2490POPC   GL133601  16.003  30.735   8.864
 2490POPC   GL233602  15.908  30.589   8.864
 2490POPC   C1A33603  15.928  30.709   8.564
 2490POPC   D2A33604  16.003  30.656   8.264
 2490POPC   C3A33605  15.939  30.735   7.964
 2490POPC   C4A33606  15.986  30.701   7.664
 2490POPC   C1B33607  15.909  30.440   8.564
 2490POPC   C2B33608  15.875  30.474   8.264
 2490POPC   C3B33609  15.891  30.444   7.964
 2490POPC   C4B33610  15.938  30.491   7.664
 2491POPC   NC333611  19.876  26.854   9.464
 2491POPC   PO433612  19.795  26.792   9.164
 2491POPC   GL133613  19.849  26.817   8.864
 2491POPC   GL233614  19.871  26.966   8.864
 2491POPC   C1A33615  19.815  26.857   8.564
 2491POPC   D2A33616  19.878  26.854   8.264
 2491POPC   C3A33617  19.806  26.861   7.964
 2491POPC   C4A33618  19.864  26.815   7.664
 2491POPC   C1B33619  19.975  27.000   8.564
 2491POPC   C2B33620  20.031  26.973   8.264
 2491POPC   C3B33621  19.946  27.038   7.964
 2491POPC   C4B33622  19.959  26.984   7.664
 2492POPC   NC333623  20.659  23.758   9.464
 2492POPC   PO433624  20.619  23.707   9.164
 2492POPC   GL133625  20.613  23.671   8.864
 2492POPC   GL233626  20.716  23.674   8.864
 2492POPC   C1A33627  20.619  23.717   8.564
 2492POPC   D2A33628  20.577  23.721   8.264
 2492POPC   C3A33629  20.604  23.699   7.964
 2492POPC   C4A33630  20.599  23.730   7.664
 2492POPC   C1B33631  20.809  23.666   8.564
 2492POPC   C2B33632  20.898  23.661   8.264
 2492POPC   C3B33633  20.898  23.657   7.964
 2492POPC   C4B33634  20.882  23.654   7.664
 2493POPC   NC333635  15.933  10.568   9.464
 2493POPC   PO433636  15.951  10.511   9.164
 2493POPC   GL133637  15.990  10.495   8.864
 2493POPC   GL233638  16.023  10.556   8.864
 2493POPC   C1A33639  15.988  10.549   8.564
 2493POPC   D2A33640  15.990  10.485   8.264
 2493POPC   C3A33641  15.975  10.531   7.964
 2493POPC   C4A33642  15.950  10.500   7.664
 2493POPC   C1B33643  16.202  10.628   8.564
 2493POPC   C2B33644  16.196  10.588   8.264
 2493POPC   C3B33645  16.218  10.563   7.964
 2493POPC   C4B33646  16.160  10.587   7.664
 2494POPC   NC333647  37.674  31.463   9.464
 2494POPC   PO433648  37.670  31.451   9.164
 2494POPC   GL133649  37.662  31.481   8.864
 2494POPC   GL233650  37.780  31.527   8.864
 2494POPC   C1A33651  37.711  31.474   8.564
 2494POPC   D2A33652  37.672  31.436   8.264
 2494POPC   C3A33653  37.668  31.487   7.964
 2494POPC   C4A33654  37.692  31.445   7.664
 2494POPC   C1B33655  37.820  31.625   8.564
 2494POPC   C2B33656  37.889  31.681   8.264
 2494POPC   C3B33657  37.854  31.604   7.964
 2494POPC   C4B33658  37.909  31.620   7.664
 2495POPC   NC333659  19.821   1.183   9.464
 2495POPC   PO433660  19.832   1.236   9.164
 2495POPC   GL133661  19.809   1.220   8.864
 2495POPC   GL233662  19.920   1.125   8.864
 2495POPC   C1A33663  19.866   1.164   8.564
 2495POPC   D2A33664  19.811   1.199   8.264
 2495POPC   C3A33665  19.829   1.241   7.964
 2495POPC   C4A33666  19.865   1.172   7.664
 2495POPC   C1B33667  20.015   1.105   8.564
 2495POPC   C2B33668  20.072   1.066   8.264
 2495POPC   C3B33669  20.037   1.127   7.964
 2495POPC   C4B33670  20.099   1.109   7.664
 2496POPC   NC333671   5.095  20.613   9.464
 2496POPC   PO433672   5.132  20.581   9.164
 2496POPC   GL133673   5.076  20.577   8.864
 2496POPC   GL233674   5.219  20.620   8.864
 2496POPC   C1A33675   5.056  20.622   8.564
 2496POPC   D2A33676   5.095  20.589   8.264
 2496POPC   C3A33677   5.045  20.644   7.964
 2496POPC   C4A33678   5.105  20.570   7.664
 2496POPC   C1B33679   5.318  20.738   8.564
 2496POPC   C2B33680   5.331  20.692   8.264
 2496POPC   C3B33681   5.305  20.654   7.964
 2496POPC   C4B33682   5.369  20.681   7.664
 2497POPC   NC333683  12.842   4.310   9.464
 2497POPC   PO433684  12.851   4.270   9.164
 2497POPC   GL133685  12.808   4.333   8.864
 2497POPC   GL233686  12.893   4.175   8.864
 2497POPC   C1A33687  12.867   4.295   8.564
 2497POPC   D2A33688  12.887   4.298   8.264
 2497POPC   C3A33689  12.802   4.302   7.964
 2497POPC   C4A33690  12.897   4.367   7.664
 2497POPC   C1B33691  12.822   4.038   8.564
 2497POPC   C2B33692  12.853   4.091   8.264
 2497POPC   C3B33693  12.816   4.068   7.964
 2497POPC   C4B33694  12.863   4.114   7.664
 2498POPC   NC333695  32.278   7.455   9.464
 2498POPC   PO433696  32.237   7.406   9.164
 2498POPC   GL133697  32.279   7.454   8.864
 2498POPC   GL233698  32.098   7.419   8.864
 2498POPC   C1A33699  32.215   7.449   8.564
 2498POPC   D2A33700  32.232   7.470   8.264
 2498POPC   C3A33701  32.275   7.374   7.964
 2498POPC   C4A33702  32.210   7.464   7.664
 2498POPC   C1B33703  31.973   7.339   8.564
 2498POPC   C2B33704  31.978   7.361   8.264
 2498POPC   C3B33705  32.004   7.372   7.964
 2498POPC   C4B33706  31.973   7.326   7.664
 2499POPC   NC333707  33.782   9.703   9.464
 2499POPC   PO433708  33.792   9.713   9.164
 2499POPC   GL133709  33.820   9.757   8.864
 2499POPC   GL233710  33.842   9.631   8.864
 2499POPC   C1A33711  33.760   9.745   8.564
 2499POPC   D2A33712  33.818   9.788   8.264
 2499POPC   C3A33713  33.847   9.765   7.964
 2499POPC   C4A33714  33.776   9.722   7.664
 2499POPC   C1B33715  33.828   9.494   8.564
 2499POPC   C2B33716  33.829   9.536   8.264
 2499POPC   C3B33717  33.887   9.461   7.964
 2499POPC   C4B33718  33.905   9.495   7.664
 2500POPC   NC333719  19.052  12.054   9.464
 2500POPC   PO433720  19.105  12.027   9.164
 2500POPC   GL133721  19.107  12.060   8.864
 2500POPC   GL233722  19.090  11.936   8.864
 2500POPC   C1A33723  19.078  12.105   8.564
 2500POPC   D2A33724  19.051  12.053   8.264
 2500POPC   C3A33725  19.026  12.040   7.964
 2500POPC   C4A33726  19.040  12.124   7.664
 2500POPC   C1B33727  19.135  11.795   8.564
 2500POPC   C2B33728  19.077  11.803   8.264
 2500POPC   C3B33729  19.086  11.866   7.964
 2500POPC   C4B33730  19.055  11.833   7.664
 2501POPC   NC333731  29.949  29.140   9.464
 2501POPC   PO433732  29.948  29.143   9.164
 2501POPC   GL133733  29.908  29.139   8.864
 2501POPC   GL233734  29.918  29.285   8.864
 2501POPC   C1A33735  29.880  29.115   8.564
 2501POPC   D2A33736  29.910  29.188   8.264
 2501POPC   C3A33737  29.959  29.163   7.964
 2501POPC   C4A33738  29.894  29.103   7.664
 2501POPC   C1B33739  29.899  29.432   8.564
 2501POPC   C2B33740  29.923  29.361   8.264
 2501POPC   C3B33741  29.952  29.410   7.964
 2501POPC   C4B33742  29.919  29.366   7.664
 2502POPC   NC333743  22.121  26.002   9.464
 2502POPC   PO433744  22.138  26.048   9.164
 2502POPC   GL133745  22.176  26.008   8.864
 2502POPC   GL233746  22.054  26.018   8.864
 2502POPC   C1A33747  22.127  26.033   8.564
 2502POPC   D2A33748  22.133  26.020   8.264
 2502POPC   C3A33749  22.155  26.022   7.964
 2502POPC   C4A33750  22.117  25.997   7.664
 2502POPC   C1B33751  21.871  26.021   8.564
 2502POPC   C2B33752  21.922  25.995   8.264
 2502POPC   C3B33753  21.896  26.014   7.964
 2502POPC   C4B33754  21.946  25.977   7.664
 2503POPC   NC333755  37.709  37.720   9.464
 2503POPC   PO433756  37.726  37.631   9.164
 2503POPC   GL133757  37.651  37.676   8.864
 2503POPC   GL233758  37.755  37.639   8.864
 2503POPC   C1A33759  37.681  37.726   8.564
 2503POPC   D2A33760  37.634  37.727   8.264
 2503POPC   C3A33761  37.664  37.657   7.964
 2503POPC   C4A33762  37.637  37.640   7.664
 2503POPC   C1B33763  37.875  37.587   8.564
 2503POPC   C2B33764  37.917  37.646   8.264
 2503POPC   C3B33765  37.902  37.575   7.964
 2503POPC   C4B33766  37.927  37.607   7.664
 2504POPC   NC333767  41.517  37.682   9.464
 2504POPC   PO433768  41.545  37.667   9.164
 2504POPC   GL133769  41.530  37.708   8.864
 2504POPC   GL233770  41.662  37.771   8.864
 2504POPC   C1A33771  41.572  37.631   8.564
 2504POPC   D2A33772  41.518  37.728   8.264
 2504POPC   C3A33773  41.571  37.671   7.964
 2504POPC   C4A33774  41.554  37.666   7.664
 2504POPC   C1B33775  41.661  37.907   8.564
 2504POPC   C2B33776  41.664  37.933   8.264
 2504POPC   C3B33777  41.697  37.859   7.964
 2504POPC   C4B33778  41.685  37.886   7.664
 2505POPC   NC333779  40.011  33.069   9.464
 2505POPC   PO433780  40.053  33.026   9.164
 2505POPC   GL133781  40.043  33.021   8.864
 2505POPC   GL233782  40.155  33.018   8.864
 2505POPC   C1A33783  40.019  33.047   8.564
 2505POPC   D2A33784  39.991  32.996   8.264
 2505POPC   C3A33785  40.042  33.048   7.964
 2505POPC   C4A33786  39.985  32.977   7.664
 2505POPC   C1B33787  40.211  33.004   8.564
 2505POPC   C2B33788  40.293  33.024   8.264
 2505POPC   C3B33789  40.283  33.021   7.964
 2505POPC   C4B33790  40.278  32.999   7.664
 2506POPC   NC333791  30.692  17.525   9.464
 2506POPC   PO433792  30.666  17.485   9.164
 2506POPC   GL133793  30.660  17.511   8.864
 2506POPC   GL233794  30.612  17.536   8.864
 2506POPC   C1A33795  30.704  17.473   8.564
 2506POPC   D2A33796  30.736  17.497   8.264
 2506POPC   C3A33797  30.687  17.529   7.964
 2506POPC   C4A33798  30.673  17.493   7.664
 2506POPC   C1B33799  30.456  17.695   8.564
 2506POPC   C2B33800  30.478  17.663   8.264
 2506POPC   C3B33801  30.522  17.691   7.964
 2506POPC   C4B33802  30.454  17.671   7.664
 2507POPC   NC333803  20.624   8.929   9.464
 2507POPC   PO433804  20.590   8.933   9.164
 2507POPC   GL133805  20.614   8.992   8.864
 2507POPC   GL233806  20.572   9.045   8.864
 2507POPC   C1A33807  20.638   8.965   8.564
 2507POPC   D2A33808  20.652   8.970   8.264
 2507POPC   C3A33809  20.654   8.930   7.964
 2507POPC   C4A33810  20.571   9.006   7.664
 2507POPC   C1B33811  20.420   9.138   8.564
 2507POPC   C2B33812  20.441   9.166   8.264
 2507POPC   C3B33813  20.409   9.146   7.964
 2507POPC   C4B33814  20.428   9.119   7.664
 2508POPC   NC333815   9.730  13.659   9.464
 2508POPC   PO433816   9.744  13.644   9.164
 2508POPC   GL133817   9.725  13.617   8.864
 2508POPC   GL233818   9.891  13.590   8.864
 2508POPC   C1A33819   9.733  13.655   8.564
 2508POPC   D2A33820   9.747  13.646   8.264
 2508POPC   C3A33821   9.791  13.633   7.964
 2508POPC   C4A33822   9.746  13.670   7.664
 2508POPC   C1B33823   9.975  13.517   8.564
 2508POPC   C2B33824  10.028  13.530   8.264
 2508POPC   C3B33825   9.952  13.557   7.964
 2508POPC   C4B33826   9.950  13.492   7.664
 2509POPC   NC333827  30.724   8.216   9.464
 2509POPC   PO433828  30.732   8.217   9.164
 2509POPC   GL133829  30.701   8.171   8.864
 2509POPC   GL233830  30.551   8.147   8.864
 2509POPC   C1A33831  30.652   8.218   8.564
 2509POPC   D2A33832  30.690   8.186   8.264
 2509POPC   C3A33833  30.711   8.228   7.964
 2509POPC   C4A33834  30.725   8.222   7.664
 2509POPC   C1B33835  30.431   8.182   8.564
 2509POPC   C2B33836  30.466   8.225   8.264
 2509POPC   C3B33837  30.442   8.145   7.964
 2509POPC   C4B33838  30.477   8.196   7.664
 2510POPC   NC333839  32.207  30.728   9.464
 2510POPC   PO433840  32.291  30.673   9.164
 2510POPC   GL133841  32.265  30.740   8.864
 2510POPC   GL233842  32.199  30.627   8.864
 2510POPC   C1A33843  32.245  30.659   8.564
 2510POPC   D2A33844  32.262  30.725   8.264
 2510POPC   C3A33845  32.289  30.697   7.964
 2510POPC   C4A33846  32.249  30.734   7.664
 2510POPC   C1B33847  32.188  30.447   8.564
 2510POPC   C2B33848  32.212  30.470   8.264
 2510POPC   C3B33849  32.167  30.443   7.964
 2510POPC   C4B33850  32.182  30.413   7.664
 2511POPC   NC333851  29.159  37.699   9.464
 2511POPC   PO433852  29.127  37.682   9.164
 2511POPC   GL133853  29.132  37.642   8.864
 2511POPC   GL233854  29.011  37.691   8.864
 2511POPC   C1A33855  29.131  37.716   8.564
 2511POPC   D2A33856  29.096  37.698   8.264
 2511POPC   C3A33857  29.149  37.694   7.964
 2511POPC   C4A33858  29.142  37.668   7.664
 2511POPC   C1B33859  28.859  37.676   8.564
 2511POPC   C2B33860  28.907  37.621   8.264
 2511POPC   C3B33861  28.874  37.703   7.964
 2511POPC   C4B33862  28.870  37.644   7.664
 2512POPC   NC333863  31.507  25.287   9.464
 2512POPC   PO433864  31.520  25.288   9.164
 2512POPC   GL133865  31.520  25.296   8.864
 2512POPC   GL233866  31.594  25.400   8.864
 2512POPC   C1A33867  31.505  25.313   8.564
 2512POPC   D2A33868  31.438  25.216   8.264
 2512POPC   C3A33869  31.475  25.248   7.964
 2512POPC   C4A33870  31.503  25.232   7.664
 2512POPC   C1B33871  31.585  25.466   8.564
 2512POPC   C2B33872  31.607  25.495   8.264
 2512POPC   C3B33873  31.629  25.450   7.964
 2512POPC   C4B33874  31.657  25.430   7.664
 2513POPC   NC333875  33.813  22.984   9.464
 2513POPC   PO433876  33.842  22.953   9.164
 2513POPC   GL133877  33.807  22.894   8.864
 2513POPC   GL233878  33.753  22.803   8.864
 2513POPC   C1A33879  33.814  22.944   8.564
 2513POPC   D2A33880  33.756  22.973   8.264
 2513POPC   C3A33881  33.788  22.917   7.964
 2513POPC   C4A33882  33.782  22.972   7.664
 2513POPC   C1B33883  33.655  22.788   8.564
 2513POPC   C2B33884  33.659  22.733   8.264
 2513POPC   C3B33885  33.639  22.697   7.964
 2513POPC   C4B33886  33.660  22.733   7.664
 2514POPC   NC333887   0.444  36.119   9.464
 2514POPC   PO433888   0.482  36.140   9.164
 2514POPC   GL133889   0.389  36.132   8.864
 2514POPC   GL233890   0.573  36.185   8.864
 2514POPC   C1A33891   0.455  36.162   8.564
 2514POPC   D2A33892   0.473  36.090   8.264
 2514POPC   C3A33893   0.397  36.115   7.964
 2514POPC   C4A33894   0.447  36.103   7.664
 2514POPC   C1B33895   0.666  36.194   8.564
 2514POPC   C2B33896   0.657  36.151   8.264
 2514POPC   C3B33897   0.735  36.164   7.964
 2514POPC   C4B33898   0.720  36.111   7.664
 2515POPC   NC333899  22.925  41.604   9.464
 2515POPC   PO433900  22.987  41.530   9.164
 2515POPC   GL133901  22.933  41.512   8.864
 2515POPC   GL233902  22.907  41.453   8.864
 2515POPC   C1A33903  22.965  41.526   8.564
 2515POPC   D2A33904  22.935  41.518   8.264
 2515POPC   C3A33905  22.915  41.532   7.964
 2515POPC   C4A33906  22.935  41.536   7.664
 2515POPC   C1B33907  22.873  41.353   8.564
 2515POPC   C2B33908  22.880  41.266   8.264
 2515POPC   C3B33909  22.926  41.263   7.964
 2515POPC   C4B33910  22.877  41.334   7.664
 2516POPC   NC333911  16.704   0.467   9.464
 2516POPC   PO433912  16.726   0.433   9.164
 2516POPC   GL133913  16.691   0.458   8.864
 2516POPC   GL233914  16.784   0.298   8.864
 2516POPC   C1A33915  16.704   0.446   8.564
 2516POPC   D2A33916  16.709   0.413   8.264
 2516POPC   C3A33917  16.719   0.455   7.964
 2516POPC   C4A33918  16.704   0.448   7.664
 2516POPC   C1B33919  16.764   0.247   8.564
 2516POPC   C2B33920  16.837   0.240   8.264
 2516POPC   C3B33921  16.763   0.176   7.964
 2516POPC   C4B33922  16.851   0.187   7.664
 2517POPC   NC333923  19.839  22.198   9.464
 2517POPC   PO433924  19.791  22.120   9.164
 2517POPC   GL133925  19.839  22.206   8.864
 2517POPC   GL233926  19.727  22.104   8.864
 2517POPC   C1A33927  19.883  22.171   8.564
 2517POPC   D2A33928  19.837  22.148   8.264
 2517POPC   C3A33929  19.852  22.189   7.964
 2517POPC   C4A33930  19.801  22.154   7.664
 2517POPC   C1B33931  19.664  22.010   8.564
 2517POPC   C2B33932  19.630  21.983   8.264
 2517POPC   C3B33933  19.711  21.965   7.964
 2517POPC   C4B33934  19.635  22.000   7.664
 2518POPC   NC333935   5.131   9.780   9.464
 2518POPC   PO433936   5.060   9.765   9.164
 2518POPC   GL133937   5.104   9.786   8.864
 2518POPC   GL233938   5.111   9.910   8.864
 2518POPC   C1A33939   5.136   9.789   8.564
 2518POPC   D2A33940   5.045   9.798   8.264
 2518POPC   C3A33941   5.045   9.780   7.964
 2518POPC   C4A33942   5.082   9.765   7.664
 2518POPC   C1B33943   5.171   9.991   8.564
 2518POPC   C2B33944   5.197  10.017   8.264
 2518POPC   C3B33945   5.182   9.979   7.964
 2518POPC   C4B33946   5.222   9.987   7.664
 2519POPC   NC333947  26.809  12.830   9.464
 2519POPC   PO433948  26.849  12.859   9.164
 2519POPC   GL133949  26.794  12.854   8.864
 2519POPC   GL233950  26.736  12.903   8.864
 2519POPC   C1A33951  26.828  12.824   8.564
 2519POPC   D2A33952  26.793  12.871   8.264
 2519POPC   C3A33953  26.769  12.901   7.964
 2519POPC   C4A33954  26.864  12.813   7.664
 2519POPC   C1B33955  26.574  12.955   8.564
 2519POPC   C2B33956  26.603  12.928   8.264
 2519POPC   C3B33957  26.616  12.950   7.964
 2519POPC   C4B33958  26.592  12.963   7.664
 2520POPC   NC333959   8.972  10.543   9.464
 2520POPC   PO433960   8.979  10.505   9.164
 2520POPC   GL133961   8.973  10.505   8.864
 2520POPC   GL233962   9.060  10.401   8.864
 2520POPC   C1A33963   8.962  10.524   8.564
 2520POPC   D2A33964   8.991  10.551   8.264
 2520POPC   C3A33965   8.959  10.495   7.964
 2520POPC   C4A33966   8.966  10.488   7.664
 2520POPC   C1B33967   9.090  10.288   8.564
 2520POPC   C2B33968   9.141  10.356   8.264
 2520POPC   C3B33969   9.125  10.265   7.964
 2520POPC   C4B33970   9.090  10.321   7.664
 2521POPC   NC333971  12.096  15.186   9.464
 2521POPC   PO433972  12.028  15.211   9.164
 2521POPC   GL133973  12.107  15.172   8.864
 2521POPC   GL233974  12.091  15.252   8.864
 2521POPC   C1A33975  12.067  15.185   8.564
 2521POPC   D2A33976  12.110  15.175   8.264
 2521POPC   C3A33977  12.045  15.138   7.964
 2521POPC   C4A33978  12.102  15.169   7.664
 2521POPC   C1B33979  12.190  15.453   8.564
 2521POPC   C2B33980  12.209  15.367   8.264
 2521POPC   C3B33981  12.197  15.375   7.964
 2521POPC   C4B33982  12.167  15.446   7.664
 2522POPC   NC333983   5.109  29.898   9.464
 2522POPC   PO433984   5.105  29.926   9.164
 2522POPC   GL133985   5.133  29.958   8.864
 2522POPC   GL233986   5.075  29.797   8.864
 2522POPC   C1A33987   5.095  29.938   8.564
 2522POPC   D2A33988   5.131  29.905   8.264
 2522POPC   C3A33989   5.057  29.941   7.964
 2522POPC   C4A33990   5.100  29.933   7.664
 2522POPC   C1B33991   5.015  29.697   8.564
 2522POPC   C2B33992   5.078  29.637   8.264
 2522POPC   C3B33993   4.998  29.712   7.964
 2522POPC   C4B33994   5.062  29.638   7.664
 2523POPC   NC333995  29.105   9.000   9.464
 2523POPC   PO433996  29.112   8.990   9.164
 2523POPC   GL133997  29.112   8.964   8.864
 2523POPC   GL233998  29.231   9.104   8.864
 2523POPC   C1A33999  29.142   8.958   8.564
 2523POPC   D2A34000  29.101   8.972   8.264
 2523POPC   C3A34001  29.130   8.928   7.964
 2523POPC   C4A34002  29.105   8.971   7.664
 2523POPC   C1B34003  29.268   9.223   8.564
 2523POPC   C2B34004  29.280   9.172   8.264
 2523POPC   C3B34005  29.245   9.149   7.964
 2523POPC   C4B34006  29.301   9.216   7.664
 2524POPC   NC334007  32.291  12.084   9.464
 2524POPC   PO434008  32.204  12.115   9.164
 2524POPC   GL134009  32.239  12.046   8.864
 2524POPC   GL234010  32.174  11.937   8.864
 2524POPC   C1A34011  32.217  12.079   8.564
 2524POPC   D2A34012  32.275  12.087   8.264
 2524POPC   C3A34013  32.232  12.036   7.964
 2524POPC   C4A34014  32.258  12.091   7.664
 2524POPC   C1B34015  32.077  11.855   8.564
 2524POPC   C2B34016  32.129  11.881   8.264
 2524POPC   C3B34017  32.119  11.921   7.964
 2524POPC   C4B34018  32.104  11.830   7.664
 2525POPC   NC334019   4.366  15.172   9.464
 2525POPC   PO434020   4.307  15.182   9.164
 2525POPC   GL134021   4.269  15.159   8.864
 2525POPC   GL234022   4.189  15.181   8.864
 2525POPC   C1A34023   4.327  15.131   8.564
 2525POPC   D2A34024   4.329  15.198   8.264
 2525POPC   C3A34025   4.281  15.170   7.964
 2525POPC   C4A34026   4.304  15.171   7.664
 2525POPC   C1B34027   4.119  15.271   8.564
 2525POPC   C2B34028   4.080  15.208   8.264
 2525POPC   C3B34029   4.078  15.286   7.964
 2525POPC   C4B34030   4.048  15.206   7.664
 2526POPC   NC334031  44.687  31.462   9.464
 2526POPC   PO434032  44.707  31.489   9.164
 2526POPC   GL134033  44.666  31.464   8.864
 2526POPC   GL234034  44.727  31.572   8.864
 2526POPC   C1A34035  44.672  31.511   8.564
 2526POPC   D2A34036  44.665  31.457   8.264
 2526POPC   C3A34037  44.649  31.466   7.964
 2526POPC   C4A34038  44.693  31.520   7.664
 2526POPC   C1B34039  44.774  31.673   8.564
 2526POPC   C2B34040  44.773  31.687   8.264
 2526POPC   C3B34041  44.825  31.720   7.964
 2526POPC   C4B34042  44.828  31.730   7.664
 2527POPC   NC334043  23.752  32.220   9.464
 2527POPC   PO434044  23.695  32.283   9.164
 2527POPC   GL134045  23.691  32.231   8.864
 2527POPC   GL234046  23.822  32.276   8.864
 2527POPC   C1A34047  23.669  32.238   8.564
 2527POPC   D2A34048  23.710  32.260   8.264
 2527POPC   C3A34049  23.734  32.271   7.964
 2527POPC   C4A34050  23.694  32.227   7.664
 2527POPC   C1B34051  23.977  32.167   8.564
 2527POPC   C2B34052  23.912  32.172   8.264
 2527POPC   C3B34053  23.975  32.218   7.964
 2527POPC   C4B34054  24.007  32.196   7.664
 2528POPC   NC334055  20.611  19.811   9.464
 2528POPC   PO434056  20.569  19.805   9.164
 2528POPC   GL134057  20.606  19.834   8.864
 2528POPC   GL234058  20.595  19.713   8.864
 2528POPC   C1A34059  20.620  19.786   8.564
 2528POPC   D2A34060  20.581  19.862   8.264
 2528POPC   C3A34061  20.626  19.799   7.964
 2528POPC   C4A34062  20.583  19.879   7.664
 2528POPC   C1B34063  20.488  19.585   8.564
 2528POPC   C2B34064  20.494  19.600   8.264
 2528POPC   C3B34065  20.574  19.588   7.964
 2528POPC   C4B34066  20.517  19.599   7.664
 2529POPC   NC334067  37.656  15.155   9.464
 2529POPC   PO434068  37.644  15.158   9.164
 2529POPC   GL134069  37.709  15.154   8.864
 2529POPC   GL234070  37.516  15.213   8.864
 2529POPC   C1A34071  37.633  15.149   8.564
 2529POPC   D2A34072  37.694  15.217   8.264
 2529POPC   C3A34073  37.713  15.157   7.964
 2529POPC   C4A34074  37.721  15.212   7.664
 2529POPC   C1B34075  37.474  15.160   8.564
 2529POPC   C2B34076  37.399  15.171   8.264
 2529POPC   C3B34077  37.435  15.177   7.964
 2529POPC   C4B34078  37.434  15.168   7.664
 2530POPC   NC334079  29.117  34.579   9.464
 2530POPC   PO434080  29.180  34.532   9.164
 2530POPC   GL134081  29.171  34.561   8.864
 2530POPC   GL234082  29.297  34.576   8.864
 2530POPC   C1A34083  29.126  34.580   8.564
 2530POPC   D2A34084  29.164  34.535   8.264
 2530POPC   C3A34085  29.187  34.556   7.964
 2530POPC   C4A34086  29.138  34.554   7.664
 2530POPC   C1B34087  29.387  34.589   8.564
 2530POPC   C2B34088  29.379  34.602   8.264
 2530POPC   C3B34089  29.354  34.551   7.964
 2530POPC   C4B34090  29.417  34.593   7.664
 2531POPC   NC334091  15.944  43.069   9.464
 2531POPC   PO434092  15.981  43.104   9.164
 2531POPC   GL134093  15.973  43.062   8.864
 2531POPC   GL234094  16.042  42.985   8.864
 2531POPC   C1A34095  16.003  43.156   8.564
 2531POPC   D2A34096  16.003  43.114   8.264
 2531POPC   C3A34097  15.974  43.118   7.964
 2531POPC   C4A34098  15.946  43.065   7.664
 2531POPC   C1B34099  16.071  42.852   8.564
 2531POPC   C2B34100  16.053  42.886   8.264
 2531POPC   C3B34101  16.003  42.882   7.964
 2531POPC   C4B34102  16.025  42.829   7.664
 2532POPC   NC334103  22.144   8.199   9.464
 2532POPC   PO434104  22.175   8.182   9.164
 2532POPC   GL134105  22.116   8.239   8.864
 2532POPC   GL234106  22.103   8.088   8.864
 2532POPC   C1A34107  22.206   8.195   8.564
 2532POPC   D2A34108  22.163   8.196   8.264
 2532POPC   C3A34109  22.190   8.148   7.964
 2532POPC   C4A34110  22.186   8.208   7.664
 2532POPC   C1B34111  22.006   7.995   8.564
 2532POPC   C2B34112  21.952   7.966   8.264
 2532POPC   C3B34113  21.991   8.029   7.964
 2532POPC   C4B34114  22.031   7.995   7.664
 2533POPC   NC334115  39.253   5.052   9.464
 2533POPC   PO434116  39.186   5.085   9.164
 2533POPC   GL134117  39.220   5.133   8.864
 2533POPC   GL234118  39.271   4.991   8.864
 2533POPC   C1A34119  39.267   5.070   8.564
 2533POPC   D2A34120  39.243   5.118   8.264
 2533POPC   C3A34121  39.270   5.099   7.964
 2533POPC   C4A34122  39.259   5.086   7.664
 2533POPC   C1B34123  39.266   4.801   8.564
 2533POPC   C2B34124  39.251   4.859   8.264
 2533POPC   C3B34125  39.250   4.822   7.964
 2533POPC   C4B34126  39.263   4.886   7.664
 2534POPC   NC334127   2.776  43.097   9.464
 2534POPC   PO434128   2.756  43.140   9.164
 2534POPC   GL134129   2.773  43.060   8.864
 2534POPC   GL234130   2.799  43.210   8.864
 2534POPC   C1A34131   2.788  43.135   8.564
 2534POPC   D2A34132   2.755  43.136   8.264
 2534POPC   C3A34133   2.718  43.097   7.964
 2534POPC   C4A34134   2.799  43.090   7.664
 2534POPC   C1B34135   2.810  43.358   8.564
 2534POPC   C2B34136   2.792  43.348   8.264
 2534POPC   C3B34137   2.720  43.379   7.964
 2534POPC   C4B34138   2.747  43.356   7.664
 2535POPC   NC334139  12.089   2.737   9.464
 2535POPC   PO434140  12.052   2.728   9.164
 2535POPC   GL134141  12.102   2.737   8.864
 2535POPC   GL234142  12.147   2.716   8.864
 2535POPC   C1A34143  12.059   2.716   8.564
 2535POPC   D2A34144  12.054   2.768   8.264
 2535POPC   C3A34145  12.125   2.752   7.964
 2535POPC   C4A34146  12.068   2.748   7.664
 2535POPC   C1B34147  12.286   2.633   8.564
 2535POPC   C2B34148  12.255   2.627   8.264
 2535POPC   C3B34149  12.316   2.658   7.964
 2535POPC   C4B34150  12.250   2.682   7.664
 2536POPC   NC334151  23.716  23.764   9.464
 2536POPC   PO434152  23.726  23.697   9.164
 2536POPC   GL134153  23.726  23.761   8.864
 2536POPC   GL234154  23.627  23.643   8.864
 2536POPC   C1A34155  23.676  23.678   8.564
 2536POPC   D2A34156  23.712  23.719   8.264
 2536POPC   C3A34157  23.684  23.678   7.964
 2536POPC   C4A34158  23.703  23.689   7.664
 2536POPC   C1B34159  23.558  23.495   8.564
 2536POPC   C2B34160  23.640  23.473   8.264
 2536POPC   C3B34161  23.595  23.515   7.964
 2536POPC   C4B34162  23.558  23.484   7.664
 2537POPC   NC334163   3.566  32.219   9.464
 2537POPC   PO434164   3.538  32.240   9.164
 2537POPC   GL134165   3.558  32.292   8.864
 2537POPC   GL234166   3.532  32.337   8.864
 2537POPC   C1A34167   3.553  32.219   8.564
 2537POPC   D2A34168   3.543  32.224   8.264
 2537POPC   C3A34169   3.515  32.284   7.964
 2537POPC   C4A34170   3.498  32.218   7.664
 2537POPC   C1B34171   3.520  32.458   8.564
 2537POPC   C2B34172   3.544  32.459   8.264
 2537POPC   C3B34173   3.500  32.458   7.964
 2537POPC   C4B34174   3.549  32.523   7.664
 2538POPC   NC334175  31.461  43.065   9.464
 2538POPC   PO434176  31.458  43.132   9.164
 2538POPC   GL134177  31.450  43.103   8.864
 2538POPC   GL234178  31.579  43.051   8.864
 2538POPC   C1A34179  31.493  43.081   8.564
 2538POPC   D2A34180  31.424  43.115   8.264
 2538POPC   C3A34181  31.478  43.080   7.964
 2538POPC   C4A34182  31.465  43.131   7.664
 2538POPC   C1B34183  31.682  42.952   8.564
 2538POPC   C2B34184  31.656  42.890   8.264
 2538POPC   C3B34185  31.680  42.914   7.964
 2538POPC   C4B34186  31.602  42.912   7.664
 2539POPC   NC334187  11.313  11.295   9.464
 2539POPC   PO434188  11.343  11.307   9.164
 2539POPC   GL134189  11.289  11.279   8.864
 2539POPC   GL234190  11.218  11.187   8.864
 2539POPC   C1A34191  11.327  11.348   8.564
 2539POPC   D2A34192  11.274  11.255   8.264
 2539POPC   C3A34193  11.280  11.254   7.964
 2539POPC   C4A34194  11.283  11.252   7.664
 2539POPC   C1B34195  11.152  11.104   8.564
 2539POPC   C2B34196  11.110  11.163   8.264
 2539POPC   C3B34197  11.127  11.128   7.964
 2539POPC   C4B34198  11.147  11.144   7.664
 2540POPC   NC334199  23.693  21.352   9.464
 2540POPC   PO434200  23.670  21.390   9.164
 2540POPC   GL134201  23.688  21.389   8.864
 2540POPC   GL234202  23.883  21.378   8.864
 2540POPC   C1A34203  23.675  21.398   8.564
 2540POPC   D2A34204  23.672  21.414   8.264
 2540POPC   C3A34205  23.763  21.420   7.964
 2540POPC   C4A34206  23.723  21.367   7.664
 2540POPC   C1B34207  23.920  21.403   8.564
 2540POPC   C2B34208  23.949  21.410   8.264
 2540POPC   C3B34209  23.984  21.437   7.964
 2540POPC   C4B34210  23.971  21.483   7.664
 2541POPC   NC334211  21.425  22.986   9.464
 2541POPC   PO434212  21.347  22.971   9.164
 2541POPC   GL134213  21.339  22.908   8.864
 2541POPC   GL234214  21.442  23.095   8.864
 2541POPC   C1A34215  21.414  22.911   8.564
 2541POPC   D2A34216  21.363  22.940   8.264
 2541POPC   C3A34217  21.421  22.927   7.964
 2541POPC   C4A34218  21.404  22.987   7.664
 2541POPC   C1B34219  21.501  23.203   8.564
 2541POPC   C2B34220  21.519  23.175   8.264
 2541POPC   C3B34221  21.541  23.177   7.964
 2541POPC   C4B34222  21.462  23.162   7.664
 2542POPC   NC334223   4.295  10.510   9.464
 2542POPC   PO434224   4.292  10.480   9.164
 2542POPC   GL134225   4.319  10.475   8.864
 2542POPC   GL234226   4.207  10.424   8.864
 2542POPC   C1A34227   4.314  10.502   8.564
 2542POPC   D2A34228   4.307  10.542   8.264
 2542POPC   C3A34229   4.346  10.535   7.964
 2542POPC   C4A34230   4.297  10.562   7.664
 2542POPC   C1B34231   4.167  10.325   8.564
 2542POPC   C2B34232   4.178  10.322   8.264
 2542POPC   C3B34233   4.201  10.326   7.964
 2542POPC   C4B34234   4.156  10.319   7.664
 2543POPC   NC334235  34.552  15.982   9.464
 2543POPC   PO434236  34.602  15.979   9.164
 2543POPC   GL134237  34.602  15.977   8.864
 2543POPC   GL234238  34.640  16.074   8.864
 2543POPC   C1A34239  34.587  15.926   8.564
 2543POPC   D2A34240  34.543  15.965   8.264
 2543POPC   C3A34241  34.623  15.949   7.964
 2543POPC   C4A34242  34.609  15.928   7.664
 2543POPC   C1B34243  34.693  16.203   8.564
 2543POPC   C2B34244  34.619  16.157   8.264
 2543POPC   C3B34245  34.707  16.207   7.964
 2543POPC   C4B34246  34.687  16.177   7.664
 2544POPC   NC334247  29.126  36.871   9.464
 2544POPC   PO434248  29.107  36.885   9.164
 2544POPC   GL134249  29.157  36.926   8.864
 2544POPC   GL234250  29.248  36.815   8.864
 2544POPC   C1A34251  29.136  36.892   8.564
 2544POPC   D2A34252  29.126  36.905   8.264
 2544POPC   C3A34253  29.095  36.910   7.964
 2544POPC   C4A34254  29.190  36.912   7.664
 2544POPC   C1B34255  29.263  36.729   8.564
 2544POPC   C2B34256  29.301  36.747   8.264
 2544POPC   C3B34257  29.314  36.710   7.964
 2544POPC   C4B34258  29.315  36.668   7.664
 2545POPC   NC334259  28.353  13.676   9.464
 2545POPC   PO434260  28.394  13.665   9.164
 2545POPC   GL134261  28.411  13.628   8.864
 2545POPC   GL234262  28.215  13.603   8.864
 2545POPC   C1A34263  28.390  13.645   8.564
 2545POPC   D2A34264  28.402  13.653   8.264
 2545POPC   C3A34265  28.361  13.604   7.964
 2545POPC   C4A34266  28.402  13.600   7.664
 2545POPC   C1B34267  28.171  13.562   8.564
 2545POPC   C2B34268  28.157  13.515   8.264
 2545POPC   C3B34269  28.106  13.559   7.964
 2545POPC   C4B34270  28.188  13.482   7.664
 2546POPC   NC334271  29.096   3.539   9.464
 2546POPC   PO434272  29.108   3.515   9.164
 2546POPC   GL134273  29.150   3.555   8.864
 2546POPC   GL234274  29.056   3.515   8.864
 2546POPC   C1A34275  29.138   3.557   8.564
 2546POPC   D2A34276  29.149   3.560   8.264
 2546POPC   C3A34277  29.188   3.552   7.964
 2546POPC   C4A34278  29.145   3.585   7.664
 2546POPC   C1B34279  28.889   3.611   8.564
 2546POPC   C2B34280  28.891   3.559   8.264
 2546POPC   C3B34281  28.885   3.540   7.964
 2546POPC   C4B34282  28.907   3.611   7.664
 2547POPC   NC334283  34.613  42.307   9.464
 2547POPC   PO434284  34.619  42.318   9.164
 2547POPC   GL134285  34.619  42.362   8.864
 2547POPC   GL234286  34.421  42.379   8.864
 2547POPC   C1A34287  34.531  42.384   8.564
 2547POPC   D2A34288  34.599  42.305   8.264
 2547POPC   C3A34289  34.582  42.381   7.964
 2547POPC   C4A34290  34.609  42.355   7.664
 2547POPC   C1B34291  34.294  42.344   8.564
 2547POPC   C2B34292  34.328  42.411   8.264
 2547POPC   C3B34293  34.375  42.346   7.964
 2547POPC   C4B34294  34.287  42.398   7.664
 2548POPC   NC334295   0.468  43.123   9.464
 2548POPC   PO434296   0.417  43.131   9.164
 2548POPC   GL134297   0.408  43.097   8.864
 2548POPC   GL234298   0.609  43.036   8.864
 2548POPC   C1A34299   0.482  43.141   8.564
 2548POPC   D2A34300   0.437  43.106   8.264
 2548POPC   C3A34301   0.475  43.102   7.964
 2548POPC   C4A34302   0.468  43.125   7.664
 2548POPC   C1B34303   0.711  43.077   8.564
 2548POPC   C2B34304   0.672  43.020   8.264
 2548POPC   C3B34305   0.642  43.015   7.964
 2548POPC   C4B34306   0.646  43.021   7.664
 2549POPC   NC334307  20.653  16.693   9.464
 2549POPC   PO434308  20.625  16.738   9.164
 2549POPC   GL134309  20.598  16.777   8.864
 2549POPC   GL234310  20.490  16.678   8.864
 2549POPC   C1A34311  20.624  16.760   8.564
 2549POPC   D2A34312  20.622  16.716   8.264
 2549POPC   C3A34313  20.640  16.777   7.964
 2549POPC   C4A34314  20.623  16.684   7.664
 2549POPC   C1B34315  20.475  16.541   8.564
 2549POPC   C2B34316  20.472  16.528   8.264
 2549POPC   C3B34317  20.423  16.479   7.964
 2549POPC   C4B34318  20.419  16.483   7.664
 2550POPC   NC334319  19.061  10.547   9.464
 2550POPC   PO434320  19.065  10.537   9.164
 2550POPC   GL134321  19.015  10.514   8.864
 2550POPC   GL234322  19.197  10.548   8.864
 2550POPC   C1A34323  19.076  10.504   8.564
 2550POPC   D2A34324  19.025  10.483   8.264
 2550POPC   C3A34325  19.098  10.509   7.964
 2550POPC   C4A34326  19.095  10.539   7.664
 2550POPC   C1B34327  19.326  10.574   8.564
 2550POPC   C2B34328  19.353  10.534   8.264
 2550POPC   C3B34329  19.279  10.538   7.964
 2550POPC   C4B34330  19.323  10.569   7.664
 2551POPC   NC334331  22.163  12.067   9.464
 2551POPC   PO434332  22.187  12.075   9.164
 2551POPC   GL134333  22.168  12.086   8.864
 2551POPC   GL234334  22.124  12.161   8.864
 2551POPC   C1A34335  22.208  12.028   8.564
 2551POPC   D2A34336  22.190  12.038   8.264
 2551POPC   C3A34337  22.126  12.111   7.964
 2551POPC   C4A34338  22.181  12.052   7.664
 2551POPC   C1B34339  22.117  12.353   8.564
 2551POPC   C2B34340  22.153  12.307   8.264
 2551POPC   C3B34341  22.177  12.354   7.964
 2551POPC   C4B34342  22.175  12.297   7.664
 2552POPC   NC334343  38.465  38.455   9.464
 2552POPC   PO434344  38.425  38.406   9.164
 2552POPC   GL134345  38.473  38.474   8.864
 2552POPC   GL234346  38.614  38.551   8.864
 2552POPC   C1A34347  38.462  38.472   8.564
 2552POPC   D2A34348  38.441  38.437   8.264
 2552POPC   C3A34349  38.496  38.438   7.964
 2552POPC   C4A34350  38.439  38.426   7.664
 2552POPC   C1B34351  38.681  38.599   8.564
 2552POPC   C2B34352  38.632  38.559   8.264
 2552POPC   C3B34353  38.635  38.611   7.964
 2552POPC   C4B34354  38.660  38.574   7.664
 2553POPC   NC334355   3.588  33.025   9.464
 2553POPC   PO434356   3.518  33.030   9.164
 2553POPC   GL134357   3.531  33.013   8.864
 2553POPC   GL234358   3.657  32.915   8.864
 2553POPC   C1A34359   3.561  33.010   8.564
 2553POPC   D2A34360   3.508  32.981   8.264
 2553POPC   C3A34361   3.535  33.017   7.964
 2553POPC   C4A34362   3.543  33.012   7.664
 2553POPC   C1B34363   3.728  32.856   8.564
 2553POPC   C2B34364   3.658  32.833   8.264
 2553POPC   C3B34365   3.713  32.875   7.964
 2553POPC   C4B34366   3.652  32.867   7.664
 2554POPC   NC334367   5.859  29.181   9.464
 2554POPC   PO434368   5.914  29.141   9.164
 2554POPC   GL134369   5.861  29.155   8.864
 2554POPC   GL234370   5.756  29.002   8.864
 2554POPC   C1A34371   5.896  29.144   8.564
 2554POPC   D2A34372   5.914  29.143   8.264
 2554POPC   C3A34373   5.823  29.110   7.964
 2554POPC   C4A34374   5.871  29.106   7.664
 2554POPC   C1B34375   5.738  28.954   8.564
 2554POPC   C2B34376   5.725  28.934   8.264
 2554POPC   C3B34377   5.678  28.911   7.964
 2554POPC   C4B34378   5.695  28.930   7.664
 2555POPC   NC334379  29.872  15.226   9.464
 2555POPC   PO434380  29.902  15.196   9.164
 2555POPC   GL134381  29.920  15.201   8.864
 2555POPC   GL234382  29.876  15.321   8.864
 2555POPC   C1A34383  29.906  15.204   8.564
 2555POPC   D2A34384  29.950  15.176   8.264
 2555POPC   C3A34385  29.927  15.162   7.964
 2555POPC   C4A34386  29.941  15.166   7.664
 2555POPC   C1B34387  29.886  15.458   8.564
 2555POPC   C2B34388  29.859  15.367   8.264
 2555POPC   C3B34389  29.883  15.441   7.964
 2555POPC   C4B34390  29.853  15.413   7.664
 2556POPC   NC334391  33.841  13.647   9.464
 2556POPC   PO434392  33.790  13.653   9.164
 2556POPC   GL134393  33.830  13.596   8.864
 2556POPC   GL234394  33.936  13.745   8.864
 2556POPC   C1A34395  33.847  13.579   8.564
 2556POPC   D2A34396  33.774  13.630   8.264
 2556POPC   C3A34397  33.770  13.600   7.964
 2556POPC   C4A34398  33.794  13.582   7.664
 2556POPC   C1B34399  33.982  13.816   8.564
 2556POPC   C2B34400  33.964  13.757   8.264
 2556POPC   C3B34401  34.002  13.845   7.964
 2556POPC   C4B34402  34.014  13.760   7.664
 2557POPC   NC334403  28.358   0.455   9.464
 2557POPC   PO434404  28.384   0.432   9.164
 2557POPC   GL134405  28.383   0.397   8.864
 2557POPC   GL234406  28.385   0.276   8.864
 2557POPC   C1A34407  28.372   0.435   8.564
 2557POPC   D2A34408  28.328   0.464   8.264
 2557POPC   C3A34409  28.350   0.476   7.964
 2557POPC   C4A34410  28.342   0.449   7.664
 2557POPC   C1B34411  28.370   0.194   8.564
 2557POPC   C2B34412  28.413   0.157   8.264
 2557POPC   C3B34413  28.376   0.222   7.964
 2557POPC   C4B34414  28.410   0.223   7.664
 2558POPC   NC334415  36.166  43.899   9.464
 2558POPC   PO434416  36.106  43.847   9.164
 2558POPC   GL134417  36.109  43.879   8.864
 2558POPC   GL234418  36.073  44.018   8.864
 2558POPC   C1A34419  36.081  43.926   8.564
 2558POPC   D2A34420  36.162  43.867   8.264
 2558POPC   C3A34421  36.137  43.849   7.964
 2558POPC   C4A34422  36.110  43.907   7.664
 2558POPC   C1B34423  36.082  44.165   8.564
 2558POPC   C2B34424  36.041  44.109   8.264
 2558POPC   C3B34425  35.994  44.076   7.964
 2558POPC   C4B34426  36.008  44.129   7.664
 2559POPC   NC334427  22.916   4.311   9.464
 2559POPC   PO434428  22.958   4.268   9.164
 2559POPC   GL134429  22.921   4.317   8.864
 2559POPC   GL234430  22.802   4.307   8.864
 2559POPC   C1A34431  22.984   4.316   8.564
 2559POPC   D2A34432  22.914   4.345   8.264
 2559POPC   C3A34433  22.953   4.354   7.964
 2559POPC   C4A34434  22.903   4.315   7.664
 2559POPC   C1B34435  22.682   4.328   8.564
 2559POPC   C2B34436  22.718   4.316   8.264
 2559POPC   C3B34437  22.686   4.368   7.964
 2559POPC   C4B34438  22.724   4.399   7.664
 2560POPC   NC334439   4.286  24.468   9.464
 2560POPC   PO434440   4.300  24.487   9.164
 2560POPC   GL134441   4.354  24.475   8.864
 2560POPC   GL234442   4.281  24.363   8.864
 2560POPC   C1A34443   4.286  24.537   8.564
 2560POPC   D2A34444   4.287  24.489   8.264
 2560POPC   C3A34445   4.288  24.480   7.964
 2560POPC   C4A34446   4.329  24.442   7.664
 2560POPC   C1B34447   4.135  24.297   8.564
 2560POPC   C2B34448   4.169  24.269   8.264
 2560POPC   C3B34449   4.182  24.340   7.964
 2560POPC   C4B34450   4.153  24.327   7.664
 2561POPC   NC334451   5.862  39.194   9.464
 2561POPC   PO434452   5.823  39.270   9.164
 2561POPC   GL134453   5.872  39.252   8.864
 2561POPC   GL234454   5.898  39.177   8.864
 2561POPC   C1A34455   5.886  39.232   8.564
 2561POPC   D2A34456   5.832  39.208   8.264
 2561POPC   C3A34457   5.835  39.200   7.964
 2561POPC   C4A34458   5.881  39.255   7.664
 2561POPC   C1B34459   6.042  39.046   8.564
 2561POPC   C2B34460   6.033  39.062   8.264
 2561POPC   C3B34461   6.068  38.990   7.964
 2561POPC   C4B34462   6.032  39.047   7.664
 2562POPC   NC334463  24.472   1.223   9.464
 2562POPC   PO434464  24.483   1.208   9.164
 2562POPC   GL134465  24.500   1.187   8.864
 2562POPC   GL234466  24.613   1.276   8.864
 2562POPC   C1A34467  24.535   1.165   8.564
 2562POPC   D2A34468  24.533   1.215   8.264
 2562POPC   C3A34469  24.504   1.194   7.964
 2562POPC   C4A34470  24.460   1.165   7.664
 2562POPC   C1B34471  24.720   1.279   8.564
 2562POPC   C2B34472  24.738   1.242   8.264
 2562POPC   C3B34473  24.759   1.322   7.964
 2562POPC   C4B34474  24.714   1.259   7.664
 2563POPC   NC334475  12.092  10.483   9.464
 2563POPC   PO434476  12.060  10.491   9.164
 2563POPC   GL134477  12.055  10.529   8.864
 2563POPC   GL234478  12.064  10.655   8.864
 2563POPC   C1A34479  12.093  10.510   8.564
 2563POPC   D2A34480  12.065  10.566   8.264
 2563POPC   C3A34481  12.119  10.568   7.964
 2563POPC   C4A34482  12.085  10.532   7.664
 2563POPC   C1B34483  12.105  10.789   8.564
 2563POPC   C2B34484  12.147  10.757   8.264
 2563POPC   C3B34485  12.117  10.730   7.964
 2563POPC   C4B34486  12.111  10.723   7.664
 2564POPC   NC334487  43.900  30.728   9.464
 2564POPC   PO434488  43.861  30.700   9.164
 2564POPC   GL134489  43.902  30.651   8.864
 2564POPC   GL234490  43.773  30.694   8.864
 2564POPC   C1A34491  43.846  30.648   8.564
 2564POPC   D2A34492  43.868  30.668   8.264
 2564POPC   C3A34493  43.844  30.745   7.964
 2564POPC   C4A34494  43.854  30.661   7.664
 2564POPC   C1B34495  43.650  30.702   8.564
 2564POPC   C2B34496  43.633  30.646   8.264
 2564POPC   C3B34497  43.682  30.645   7.964
 2564POPC   C4B34498  43.610  30.724   7.664
 2565POPC   NC334499  35.307  38.476   9.464
 2565POPC   PO434500  35.317  38.482   9.164
 2565POPC   GL134501  35.305  38.461   8.864
 2565POPC   GL234502  35.253  38.477   8.864
 2565POPC   C1A34503  35.335  38.467   8.564
 2565POPC   D2A34504  35.332  38.415   8.264
 2565POPC   C3A34505  35.391  38.477   7.964
 2565POPC   C4A34506  35.342  38.440   7.664
 2565POPC   C1B34507  35.099  38.552   8.564
 2565POPC   C2B34508  35.131  38.575   8.264
 2565POPC   C3B34509  35.118  38.529   7.964
 2565POPC   C4B34510  35.123  38.532   7.664
 2566POPC   NC334511   1.185  43.890   9.464
 2566POPC   PO434512   1.174  43.868   9.164
 2566POPC   GL134513   1.246  43.910   8.864
 2566POPC   GL234514   1.200  43.794   8.864
 2566POPC   C1A34515   1.233  43.909   8.564
 2566POPC   D2A34516   1.243  43.886   8.264
 2566POPC   C3A34517   1.217  43.885   7.964
 2566POPC   C4A34518   1.200  43.876   7.664
 2566POPC   C1B34519   1.151  43.635   8.564
 2566POPC   C2B34520   1.147  43.686   8.264
 2566POPC   C3B34521   1.166  43.640   7.964
 2566POPC   C4B34522   1.197  43.675   7.664
 2567POPC   NC334523  32.984  32.273   9.464
 2567POPC   PO434524  32.986  32.211   9.164
 2567POPC   GL134525  33.010  32.253   8.864
 2567POPC   GL234526  33.139  32.190   8.864
 2567POPC   C1A34527  32.977  32.293   8.564
 2567POPC   D2A34528  33.027  32.249   8.264
 2567POPC   C3A34529  33.008  32.213   7.964
 2567POPC   C4A34530  33.046  32.215   7.664
 2567POPC   C1B34531  33.187  32.159   8.564
 2567POPC   C2B34532  33.276  32.069   8.264
 2567POPC   C3B34533  33.258  32.145   7.964
 2567POPC   C4B34534  33.227  32.118   7.664
 2568POPC   NC334535   7.388  16.755   9.464
 2568POPC   PO434536   7.458  16.746   9.164
 2568POPC   GL134537   7.460  16.722   8.864
 2568POPC   GL234538   7.516  16.641   8.864
 2568POPC   C1A34539   7.443  16.751   8.564
 2568POPC   D2A34540   7.373  16.704   8.264
 2568POPC   C3A34541   7.371  16.756   7.964
 2568POPC   C4A34542   7.462  16.778   7.664
 2568POPC   C1B34543   7.622  16.615   8.564
 2568POPC   C2B34544   7.600  16.656   8.264
 2568POPC   C3B34545   7.643  16.665   7.964
 2568POPC   C4B34546   7.634  16.602   7.664
 2569POPC   NC334547  24.467  22.899   9.464
 2569POPC   PO434548  24.512  22.961   9.164
 2569POPC   GL134549  24.520  22.888   8.864
 2569POPC   GL234550  24.564  22.978   8.864
 2569POPC   C1A34551  24.496  22.925   8.564
 2569POPC   D2A34552  24.441  22.932   8.264
 2569POPC   C3A34553  24.527  22.964   7.964
 2569POPC   C4A34554  24.513  22.911   7.664
 2569POPC   C1B34555  24.722  23.024   8.564
 2569POPC   C2B34556  24.765  23.000   8.264
 2569POPC   C3B34557  24.740  23.085   7.964
 2569POPC   C4B34558  24.686  23.057   7.664
 2570POPC   NC334559  26.861  24.462   9.464
 2570POPC   PO434560  26.863  24.518   9.164
 2570POPC   GL134561  26.794  24.479   8.864
 2570POPC   GL234562  26.772  24.410   8.864
 2570POPC   C1A34563  26.771  24.460   8.564
 2570POPC   D2A34564  26.788  24.463   8.264
 2570POPC   C3A34565  26.801  24.472   7.964
 2570POPC   C4A34566  26.773  24.483   7.664
 2570POPC   C1B34567  26.757  24.242   8.564
 2570POPC   C2B34568  26.768  24.281   8.264
 2570POPC   C3B34569  26.734  24.257   7.964
 2570POPC   C4B34570  26.792  24.260   7.664
 2571POPC   NC334571  14.372  43.928   9.464
 2571POPC   PO434572  14.411  43.843   9.164
 2571POPC   GL134573  14.377  43.865   8.864
 2571POPC   GL234574  14.494  43.954   8.864
 2571POPC   C1A34575  14.417  43.930   8.564
 2571POPC   D2A34576  14.355  43.897   8.264
 2571POPC   C3A34577  14.370  43.862   7.964
 2571POPC   C4A34578  14.394  43.870   7.664
 2571POPC   C1B34579  14.570  44.106   8.564
 2571POPC   C2B34580  14.583  44.133   8.264
 2571POPC   C3B34581  14.509  44.093   7.964
 2571POPC   C4B34582  14.530  44.126   7.664
 2572POPC   NC334583   5.093  38.487   9.464
 2572POPC   PO434584   5.112  38.476   9.164
 2572POPC   GL134585   5.113  38.451   8.864
 2572POPC   GL234586   5.045  38.370   8.864
 2572POPC   C1A34587   5.088  38.499   8.564
 2572POPC   D2A34588   5.095  38.451   8.264
 2572POPC   C3A34589   5.114  38.433   7.964
 2572POPC   C4A34590   5.050  38.426   7.664
 2572POPC   C1B34591   4.924  38.270   8.564
 2572POPC   C2B34592   4.871  38.279   8.264
 2572POPC   C3B34593   4.886  38.310   7.964
 2572POPC   C4B34594   4.961  38.252   7.664
 2573POPC   NC334595   4.323  37.722   9.464
 2573POPC   PO434596   4.362  37.720   9.164
 2573POPC   GL134597   4.272  37.709   8.864
 2573POPC   GL234598   4.369  37.578   8.864
 2573POPC   C1A34599   4.290  37.678   8.564
 2573POPC   D2A34600   4.328  37.656   8.264
 2573POPC   C3A34601   4.341  37.727   7.964
 2573POPC   C4A34602   4.292  37.667   7.664
 2573POPC   C1B34603   4.393  37.459   8.564
 2573POPC   C2B34604   4.392  37.454   8.264
 2573POPC   C3B34605   4.397  37.414   7.964
 2573POPC   C4B34606   4.368  37.440   7.664
 2574POPC   NC334607  30.658  30.721   9.464
 2574POPC   PO434608  30.665  30.693   9.164
 2574POPC   GL134609  30.709  30.669   8.864
 2574POPC   GL234610  30.650  30.786   8.864
 2574POPC   C1A34611  30.711  30.727   8.564
 2574POPC   D2A34612  30.677  30.740   8.264
 2574POPC   C3A34613  30.666  30.708   7.964
 2574POPC   C4A34614  30.683  30.727   7.664
 2574POPC   C1B34615  30.516  30.862   8.564
 2574POPC   C2B34616  30.531  30.899   8.264
 2574POPC   C3B34617  30.502  30.907   7.964
 2574POPC   C4B34618  30.516  30.851   7.664
 2575POPC   NC334619  38.479   5.904   9.464
 2575POPC   PO434620  38.465   5.882   9.164
 2575POPC   GL134621  38.446   5.877   8.864
 2575POPC   GL234622  38.374   6.005   8.864
 2575POPC   C1A34623  38.471   5.838   8.564
 2575POPC   D2A34624  38.453   5.894   8.264
 2575POPC   C3A34625  38.460   5.830   7.964
 2575POPC   C4A34626  38.490   5.832   7.664
 2575POPC   C1B34627  38.365   6.103   8.564
 2575POPC   C2B34628  38.319   6.071   8.264
 2575POPC   C3B34629  38.294   6.134   7.964
 2575POPC   C4B34630  38.338   6.081   7.664
 2576POPC   NC334631  33.825  20.609   9.464
 2576POPC   PO434632  33.850  20.587   9.164
 2576POPC   GL134633  33.806  20.622   8.864
 2576POPC   GL234634  33.823  20.717   8.864
 2576POPC   C1A34635  33.752  20.625   8.564
 2576POPC   D2A34636  33.837  20.562   8.264
 2576POPC   C3A34637  33.814  20.607   7.964
 2576POPC   C4A34638  33.783  20.649   7.664
 2576POPC   C1B34639  33.901  20.783   8.564
 2576POPC   C2B34640  33.973  20.846   8.264
 2576POPC   C3B34641  33.930  20.827   7.964
 2576POPC   C4B34642  33.968  20.779   7.664
 2577POPC   NC334643  26.027  12.864   9.464
 2577POPC   PO434644  26.077  12.885   9.164
 2577POPC   GL134645  26.025  12.854   8.864
 2577POPC   GL234646  26.205  12.859   8.864
 2577POPC   C1A34647  26.049  12.851   8.564
 2577POPC   D2A34648  26.004  12.849   8.264
 2577POPC   C3A34649  26.008  12.827   7.964
 2577POPC   C4A34650  26.064  12.828   7.664
 2577POPC   C1B34651  26.281  12.881   8.564
 2577POPC   C2B34652  26.261  12.840   8.264
 2577POPC   C3B34653  26.304  12.887   7.964
 2577POPC   C4B34654  26.321  12.854   7.664
 2578POPC   NC334655  16.689   9.730   9.464
 2578POPC   PO434656  16.683   9.722   9.164
 2578POPC   GL134657  16.727   9.719   8.864
 2578POPC   GL234658  16.648   9.677   8.864
 2578POPC   C1A34659  16.702   9.790   8.564
 2578POPC   D2A34660  16.776   9.707   8.264
 2578POPC   C3A34661  16.741   9.750   7.964
 2578POPC   C4A34662  16.762   9.712   7.664
 2578POPC   C1B34663  16.476   9.605   8.564
 2578POPC   C2B34664  16.515   9.601   8.264
 2578POPC   C3B34665  16.474   9.618   7.964
 2578POPC   C4B34666  16.477   9.609   7.664
 2579POPC   NC334667  10.552  17.550   9.464
 2579POPC   PO434668  10.531  17.517   9.164
 2579POPC   GL134669  10.548  17.525   8.864
 2579POPC   GL234670  10.627  17.603   8.864
 2579POPC   C1A34671  10.489  17.547   8.564
 2579POPC   D2A34672  10.499  17.524   8.264
 2579POPC   C3A34673  10.531  17.521   7.964
 2579POPC   C4A34674  10.509  17.469   7.664
 2579POPC   C1B34675  10.678  17.648   8.564
 2579POPC   C2B34676  10.657  17.703   8.264
 2579POPC   C3B34677  10.663  17.669   7.964
 2579POPC   C4B34678  10.711  17.729   7.664
 2580POPC   NC334679  31.510  17.553   9.464
 2580POPC   PO434680  31.476  17.462   9.164
 2580POPC   GL134681  31.516  17.467   8.864
 2580POPC   GL234682  31.541  17.619   8.864
 2580POPC   C1A34683  31.512  17.527   8.564
 2580POPC   D2A34684  31.507  17.506   8.264
 2580POPC   C3A34685  31.479  17.496   7.964
 2580POPC   C4A34686  31.474  17.463   7.664
 2580POPC   C1B34687  31.572  17.721   8.564
 2580POPC   C2B34688  31.583  17.750   8.264
 2580POPC   C3B34689  31.586  17.752   7.964
 2580POPC   C4B34690  31.554  17.726   7.664
 2581POPC   NC334691  22.129  12.870   9.464
 2581POPC   PO434692  22.199  12.900   9.164
 2581POPC   GL134693  22.118  12.825   8.864
 2581POPC   GL234694  22.247  12.816   8.864
 2581POPC   C1A34695  22.157  12.899   8.564
 2581POPC   D2A34696  22.141  12.884   8.264
 2581POPC   C3A34697  22.145  12.890   7.964
 2581POPC   C4A34698  22.186  12.853   7.664
 2581POPC   C1B34699  22.377  12.817   8.564
 2581POPC   C2B34700  22.431  12.866   8.264
 2581POPC   C3B34701  22.424  12.864   7.964
 2581POPC   C4B34702  22.379  12.857   7.664
 2582POPC   NC334703  15.925  27.641   9.464
 2582POPC   PO434704  15.931  27.573   9.164
 2582POPC   GL134705  15.994  27.643   8.864
 2582POPC   GL234706  15.916  27.470   8.864
 2582POPC   C1A34707  15.958  27.590   8.564
 2582POPC   D2A34708  15.964  27.584   8.264
 2582POPC   C3A34709  15.921  27.575   7.964
 2582POPC   C4A34710  15.920  27.583   7.664
 2582POPC   C1B34711  15.742  27.416   8.564
 2582POPC   C2B34712  15.828  27.422   8.264
 2582POPC   C3B34713  15.781  27.417   7.964
 2582POPC   C4B34714  15.768  27.378   7.664
 2583POPC   NC334715   0.437   2.025   9.464
 2583POPC   PO434716   0.428   1.951   9.164
 2583POPC   GL134717   0.440   1.941   8.864
 2583POPC   GL234718   0.464   1.890   8.864
 2583POPC   C1A34719   0.433   2.008   8.564
 2583POPC   D2A34720   0.467   1.993   8.264
 2583POPC   C3A34721   0.455   1.984   7.964
 2583POPC   C4A34722   0.393   1.981   7.664
 2583POPC   C1B34723   0.371   1.787   8.564
 2583POPC   C2B34724   0.429   1.712   8.264
 2583POPC   C3B34725   0.400   1.739   7.964
 2583POPC   C4B34726   0.423   1.752   7.664
 2584POPC   NC334727  29.097  24.493   9.464
 2584POPC   PO434728  29.124  24.526   9.164
 2584POPC   GL134729  29.176  24.534   8.864
 2584POPC   GL234730  29.242  24.576   8.864
 2584POPC   C1A34731  29.122  24.475   8.564
 2584POPC   D2A34732  29.158  24.488   8.264
 2584POPC   C3A34733  29.115  24.526   7.964
 2584POPC   C4A34734  29.156  24.497   7.664
 2584POPC   C1B34735  29.300  24.729   8.564
 2584POPC   C2B34736  29.283  24.723   8.264
 2584POPC   C3B34737  29.241  24.756   7.964
 2584POPC   C4B34738  29.225  24.687   7.664
 2585POPC   NC334739  28.367  41.597   9.464
 2585POPC   PO434740  28.359  41.607   9.164
 2585POPC   GL134741  28.338  41.536   8.864
 2585POPC   GL234742  28.334  41.434   8.864
 2585POPC   C1A34743  28.343  41.603   8.564
 2585POPC   D2A34744  28.371  41.583   8.264
 2585POPC   C3A34745  28.335  41.568   7.964
 2585POPC   C4A34746  28.364  41.514   7.664
 2585POPC   C1B34747  28.304  41.346   8.564
 2585POPC   C2B34748  28.208  41.293   8.264
 2585POPC   C3B34749  28.240  41.382   7.964
 2585POPC   C4B34750  28.235  41.371   7.664
 2586POPC   NC334751  22.136  28.401   9.464
 2586POPC   PO434752  22.136  28.359   9.164
 2586POPC   GL134753  22.156  28.394   8.864
 2586POPC   GL234754  22.225  28.435   8.864
 2586POPC   C1A34755  22.144  28.388   8.564
 2586POPC   D2A34756  22.120  28.336   8.264
 2586POPC   C3A34757  22.182  28.398   7.964
 2586POPC   C4A34758  22.199  28.323   7.664
 2586POPC   C1B34759  22.244  28.554   8.564
 2586POPC   C2B34760  22.230  28.579   8.264
 2586POPC   C3B34761  22.259  28.574   7.964
 2586POPC   C4B34762  22.273  28.634   7.664
 2587POPC   NC334763  11.295  15.161   9.464
 2587POPC   PO434764  11.296  15.178   9.164
 2587POPC   GL134765  11.281  15.155   8.864
 2587POPC   GL234766  11.170  15.236   8.864
 2587POPC   C1A34767  11.314  15.190   8.564
 2587POPC   D2A34768  11.299  15.172   8.264
 2587POPC   C3A34769  11.337  15.141   7.964
 2587POPC   C4A34770  11.280  15.226   7.664
 2587POPC   C1B34771  11.129  15.350   8.564
 2587POPC   C2B34772  11.087  15.347   8.264
 2587POPC   C3B34773  11.124  15.337   7.964
 2587POPC   C4B34774  11.071  15.355   7.664
 2588POPC   NC334775  21.385  19.814   9.464
 2588POPC   PO434776  21.403  19.883   9.164
 2588POPC   GL134777  21.386  19.818   8.864
 2588POPC   GL234778  21.376  19.922   8.864
 2588POPC   C1A34779  21.381  19.855   8.564
 2588POPC   D2A34780  21.365  19.817   8.264
 2588POPC   C3A34781  21.422  19.868   7.964
 2588POPC   C4A34782  21.421  19.853   7.664
 2588POPC   C1B34783  21.397  20.090   8.564
 2588POPC   C2B34784  21.465  20.094   8.264
 2588POPC   C3B34785  21.395  20.035   7.964
 2588POPC   C4B34786  21.442  20.056   7.664
 2589POPC   NC334787   1.230  39.191   9.464
 2589POPC   PO434788   1.171  39.222   9.164
 2589POPC   GL134789   1.215  39.227   8.864
 2589POPC   GL234790   1.304  39.207   8.864
 2589POPC   C1A34791   1.232  39.207   8.564
 2589POPC   D2A34792   1.217  39.254   8.264
 2589POPC   C3A34793   1.178  39.188   7.964
 2589POPC   C4A34794   1.169  39.186   7.664
 2589POPC   C1B34795   1.423  39.115   8.564
 2589POPC   C2B34796   1.402  39.088   8.264
 2589POPC   C3B34797   1.456  39.102   7.964
 2589POPC   C4B34798   1.489  39.161   7.664
 2590POPC   NC334799  31.466  39.960   9.464
 2590POPC   PO434800  31.519  39.987   9.164
 2590POPC   GL134801  31.452  40.031   8.864
 2590POPC   GL234802  31.571  39.928   8.864
 2590POPC   C1A34803  31.465  39.970   8.564
 2590POPC   D2A34804  31.453  40.021   8.264
 2590POPC   C3A34805  31.428  40.019   7.964
 2590POPC   C4A34806  31.514  40.027   7.664
 2590POPC   C1B34807  31.558  39.750   8.564
 2590POPC   C2B34808  31.631  39.804   8.264
 2590POPC   C3B34809  31.606  39.831   7.964
 2590POPC   C4B34810  31.570  39.824   7.664
 2591POPC   NC334811   9.743  27.569   9.464
 2591POPC   PO434812   9.715  27.600   9.164
 2591POPC   GL134813   9.731  27.629   8.864
 2591POPC   GL234814   9.718  27.483   8.864
 2591POPC   C1A34815   9.705  27.632   8.564
 2591POPC   D2A34816   9.699  27.583   8.264
 2591POPC   C3A34817   9.748  27.558   7.964
 2591POPC   C4A34818   9.720  27.580   7.664
 2591POPC   C1B34819   9.665  27.315   8.564
 2591POPC   C2B34820   9.732  27.339   8.264
 2591POPC   C3B34821   9.708  27.354   7.964
 2591POPC   C4B34822   9.721  27.383   7.664
 2592POPC   NC334823  44.624   8.196   9.464
 2592POPC   PO434824  44.674   8.231   9.164
 2592POPC   GL134825  44.669   8.238   8.864
 2592POPC   GL234826  44.581   8.195   8.864
 2592POPC   C1A34827  44.657   8.181   8.564
 2592POPC   D2A34828  44.643   8.148   8.264
 2592POPC   C3A34829  44.688   8.243   7.964
 2592POPC   C4A34830  44.613   8.175   7.664
 2592POPC   C1B34831  44.397   8.284   8.564
 2592POPC   C2B34832  44.430   8.278   8.264
 2592POPC   C3B34833  44.441   8.237   7.964
 2592POPC   C4B34834  44.467   8.285   7.664
 2593POPC   NC334835   1.241  12.830   9.464
 2593POPC   PO434836   1.180  12.899   9.164
 2593POPC   GL134837   1.226  12.819   8.864
 2593POPC   GL234838   1.082  12.835   8.864
 2593POPC   C1A34839   1.173  12.808   8.564
 2593POPC   D2A34840   1.195  12.866   8.264
 2593POPC   C3A34841   1.185  12.838   7.964
 2593POPC   C4A34842   1.188  12.844   7.664
 2593POPC   C1B34843   1.013  12.796   8.564
 2593POPC   C2B34844   0.968  12.844   8.264
 2593POPC   C3B34845   0.991  12.860   7.964
 2593POPC   C4B34846   0.999  12.873   7.664
 2594POPC   NC334847  43.129  38.499   9.464
 2594POPC   PO434848  43.126  38.490   9.164
 2594POPC   GL134849  43.117  38.451   8.864
 2594POPC   GL234850  43.163  38.335   8.864
 2594POPC   C1A34851  43.061  38.504   8.564
 2594POPC   D2A34852  43.136  38.481   8.264
 2594POPC   C3A34853  43.073  38.467   7.964
 2594POPC   C4A34854  43.116  38.408   7.664
 2594POPC   C1B34855  43.327  38.306   8.564
 2594POPC   C2B34856  43.294  38.326   8.264
 2594POPC   C3B34857  43.299  38.263   7.964
 2594POPC   C4B34858  43.301  38.300   7.664
 2595POPC   NC334859  24.479  33.762   9.464
 2595POPC   PO434860  24.481  33.824   9.164
 2595POPC   GL134861  24.467  33.759   8.864
 2595POPC   GL234862  24.654  33.805   8.864
 2595POPC   C1A34863  24.449  33.848   8.564
 2595POPC   D2A34864  24.519  33.845   8.264
 2595POPC   C3A34865  24.487  33.776   7.964
 2595POPC   C4A34866  24.503  33.832   7.664
 2595POPC   C1B34867  24.763  33.713   8.564
 2595POPC   C2B34868  24.767  33.693   8.264
 2595POPC   C3B34869  24.704  33.710   7.964
 2595POPC   C4B34870  24.736  33.695   7.664
 2596POPC   NC334871   8.229  14.427   9.464
 2596POPC   PO434872   8.232  14.452   9.164
 2596POPC   GL134873   8.245  14.426   8.864
 2596POPC   GL234874   8.277  14.271   8.864
 2596POPC   C1A34875   8.224  14.355   8.564
 2596POPC   D2A34876   8.177  14.383   8.264
 2596POPC   C3A34877   8.153  14.406   7.964
 2596POPC   C4A34878   8.185  14.356   7.664
 2596POPC   C1B34879   8.374  14.225   8.564
 2596POPC   C2B34880   8.316  14.171   8.264
 2596POPC   C3B34881   8.382  14.207   7.964
 2596POPC   C4B34882   8.382  14.232   7.664
 2597POPC   NC334883  16.763  33.814   9.464
 2597POPC   PO434884  16.710  33.752   9.164
 2597POPC   GL134885  16.713  33.792   8.864
 2597POPC   GL234886  16.640  33.818   8.864
 2597POPC   C1A34887  16.777  33.831   8.564
 2597POPC   D2A34888  16.725  33.832   8.264
 2597POPC   C3A34889  16.740  33.814   7.964
 2597POPC   C4A34890  16.776  33.840   7.664
 2597POPC   C1B34891  16.474  33.980   8.564
 2597POPC   C2B34892  16.474  33.943   8.264
 2597POPC   C3B34893  16.528  33.973   7.964
 2597POPC   C4B34894  16.523  33.960   7.664
 2598POPC   NC334895  38.409  35.393   9.464
 2598POPC   PO434896  38.430  35.302   9.164
 2598POPC   GL134897  38.502  35.362   8.864
 2598POPC   GL234898  38.564  35.451   8.864
 2598POPC   C1A34899  38.469  35.341   8.564
 2598POPC   D2A34900  38.409  35.347   8.264
 2598POPC   C3A34901  38.411  35.396   7.964
 2598POPC   C4A34902  38.414  35.371   7.664
 2598POPC   C1B34903  38.569  35.595   8.564
 2598POPC   C2B34904  38.591  35.612   8.264
 2598POPC   C3B34905  38.566  35.524   7.964
 2598POPC   C4B34906  38.631  35.532   7.664
 2599POPC   NC334907  17.483   0.421   9.464
 2599POPC   PO434908  17.479   0.396   9.164
 2599POPC   GL134909  17.548   0.475   8.864
 2599POPC   GL234910  17.472   0.562   8.864
 2599POPC   C1A34911  17.546   0.447   8.564
 2599POPC   D2A34912  17.461   0.404   8.264
 2599POPC   C3A34913  17.534   0.473   7.964
 2599POPC   C4A34914  17.480   0.399   7.664
 2599POPC   C1B34915  17.539   0.737   8.564
 2599POPC   C2B34916  17.541   0.670   8.264
 2599POPC   C3B34917  17.502   0.685   7.964
 2599POPC   C4B34918  17.520   0.665   7.664
 2600POPC   NC334919  44.617  22.170   9.464
 2600POPC   PO434920  44.615  22.154   9.164
 2600POPC   GL134921  44.712  22.173   8.864
 2600POPC   GL234922  44.532  22.094   8.864
 2600POPC   C1A34923  44.626  22.177   8.564
 2600POPC   D2A34924  44.657  22.209   8.264
 2600POPC   C3A34925  44.659  22.143   7.964
 2600POPC   C4A34926  44.644  22.176   7.664
 2600POPC   C1B34927  44.434  22.123   8.564
 2600POPC   C2B34928  44.388  22.059   8.264
 2600POPC   C3B34929  44.447  22.068   7.964
 2600POPC   C4B34930  44.389  22.108   7.664
 2601POPC   NC334931  41.593  19.802   9.464
 2601POPC   PO434932  41.552  19.840   9.164
 2601POPC   GL134933  41.541  19.837   8.864
 2601POPC   GL234934  41.436  19.717   8.864
 2601POPC   C1A34935  41.551  19.835   8.564
 2601POPC   D2A34936  41.527  19.855   8.264
 2601POPC   C3A34937  41.562  19.826   7.964
 2601POPC   C4A34938  41.512  19.802   7.664
 2601POPC   C1B34939  41.390  19.723   8.564
 2601POPC   C2B34940  41.320  19.657   8.264
 2601POPC   C3B34941  41.390  19.710   7.964
 2601POPC   C4B34942  41.346  19.656   7.664
 2602POPC   NC334943   5.073  26.770   9.464
 2602POPC   PO434944   5.044  26.790   9.164
 2602POPC   GL134945   5.078  26.813   8.864
 2602POPC   GL234946   5.222  26.932   8.864
 2602POPC   C1A34947   5.104  26.782   8.564
 2602POPC   D2A34948   5.098  26.861   8.264
 2602POPC   C3A34949   5.131  26.828   7.964
 2602POPC   C4A34950   5.063  26.834   7.664
 2602POPC   C1B34951   5.236  26.974   8.564
 2602POPC   C2B34952   5.278  26.999   8.264
 2602POPC   C3B34953   5.233  26.987   7.964
 2602POPC   C4B34954   5.212  26.981   7.664
 2603POPC   NC334955  34.532  29.176   9.464
 2603POPC   PO434956  34.568  29.105   9.164
 2603POPC   GL134957  34.579  29.102   8.864
 2603POPC   GL234958  34.507  29.154   8.864
 2603POPC   C1A34959  34.614  29.107   8.564
 2603POPC   D2A34960  34.622  29.121   8.264
 2603POPC   C3A34961  34.585  29.168   7.964
 2603POPC   C4A34962  34.564  29.140   7.664
 2603POPC   C1B34963  34.346  29.240   8.564
 2603POPC   C2B34964  34.359  29.289   8.264
 2603POPC   C3B34965  34.325  29.268   7.964
 2603POPC   C4B34966  34.396  29.215   7.664
 2604POPC   NC334967   2.781  37.631   9.464
 2604POPC   PO434968   2.750  37.642   9.164
 2604POPC   GL134969   2.718  37.703   8.864
 2604POPC   GL234970   2.598  37.684   8.864
 2604POPC   C1A34971   2.782  37.700   8.564
 2604POPC   D2A34972   2.781  37.714   8.264
 2604POPC   C3A34973   2.804  37.725   7.964
 2604POPC   C4A34974   2.765  37.660   7.664
 2604POPC   C1B34975   2.491  37.706   8.564
 2604POPC   C2B34976   2.554  37.722   8.264
 2604POPC   C3B34977   2.548  37.739   7.964
 2604POPC   C4B34978   2.473  37.770   7.664
 2605POPC   NC334979  28.319  43.149   9.464
 2605POPC   PO434980  28.361  43.062   9.164
 2605POPC   GL134981  28.334  43.111   8.864
 2605POPC   GL234982  28.414  43.226   8.864
 2605POPC   C1A34983  28.395  43.146   8.564
 2605POPC   D2A34984  28.402  43.083   8.264
 2605POPC   C3A34985  28.414  43.134   7.964
 2605POPC   C4A34986  28.351  43.130   7.664
 2605POPC   C1B34987  28.392  43.332   8.564
 2605POPC   C2B34988  28.444  43.327   8.264
 2605POPC   C3B34989  28.438  43.336   7.964
 2605POPC   C4B34990  28.455  43.331   7.664
 2606POPC   NC334991  13.620  44.701   9.464
 2606POPC   PO434992  13.583  44.674   9.164
 2606POPC   GL134993  13.642  44.635   8.864
 2606POPC   GL234994  13.693  44.738   8.864
 2606POPC   C1A34995  13.663  44.659   8.564
 2606POPC   D2A34996  13.578  44.622   8.264
 2606POPC   C3A34997  13.621  44.657   7.964
 2606POPC   C4A34998  13.662  44.698   7.664
 2606POPC   C1B34999  13.756  44.929   8.564
 2606POPC   C2B35000  13.689  44.876   8.264
 2606POPC   C3B35001  13.746  44.927   7.964
 2606POPC   C4B35002  13.681  44.847   7.664
 2607POPC   NC335003  43.861  29.159   9.464
 2607POPC   PO435004  43.857  29.134   9.164
 2607POPC   GL135005  43.840  29.136   8.864
 2607POPC   GL235006  43.949  29.027   8.864
 2607POPC   C1A35007  43.867  29.125   8.564
 2607POPC   D2A35008  43.847  29.134   8.264
 2607POPC   C3A35009  43.880  29.161   7.964
 2607POPC   C4A35010  43.861  29.154   7.664
 2607POPC   C1B35011  44.079  28.979   8.564
 2607POPC   C2B35012  44.065  29.007   8.264
 2607POPC   C3B35013  44.066  28.953   7.964
 2607POPC   C4B35014  44.020  28.960   7.664
 2608POPC   NC335015   1.241  14.439   9.464
 2608POPC   PO435016   1.250  14.374   9.164
 2608POPC   GL135017   1.190  14.385   8.864
 2608POPC   GL235018   1.085  14.317   8.864
 2608POPC   C1A35019   1.175  14.382   8.564
 2608POPC   D2A35020   1.215  14.443   8.264
 2608POPC   C3A35021   1.242  14.358   7.964
 2608POPC   C4A35022   1.204  14.376   7.664
 2608POPC   C1B35023   0.991  14.288   8.564
 2608POPC   C2B35024   1.017  14.299   8.264
 2608POPC   C3B35025   0.994  14.291   7.964
 2608POPC   C4B35026   0.969  14.254   7.664
 2609POPC   NC335027  42.306  44.649   9.464
 2609POPC   PO435028  42.359  44.658   9.164
 2609POPC   GL135029  42.303  44.702   8.864
 2609POPC   GL235030  42.260  44.664   8.864
 2609POPC   C1A35031  42.330  44.652   8.564
 2609POPC   D2A35032  42.298  44.674   8.264
 2609POPC   C3A35033  42.382  44.649   7.964
 2609POPC   C4A35034  42.344  44.636   7.664
 2609POPC   C1B35035  42.059  44.768   8.564
 2609POPC   C2B35036  42.061  44.706   8.264
 2609POPC   C3B35037  42.092  44.773   7.964
 2609POPC   C4B35038  42.108  44.789   7.664
 2610POPC   NC335039   5.077   3.523   9.464
 2610POPC   PO435040   5.088   3.506   9.164
 2610POPC   GL135041   5.090   3.578   8.864
 2610POPC   GL235042   5.152   3.440   8.864
 2610POPC   C1A35043   5.061   3.498   8.564
 2610POPC   D2A35044   5.120   3.539   8.264
 2610POPC   C3A35045   5.104   3.561   7.964
 2610POPC   C4A35046   5.115   3.580   7.664
 2610POPC   C1B35047   5.292   3.374   8.564
 2610POPC   C2B35048   5.300   3.427   8.264
 2610POPC   C3B35049   5.328   3.382   7.964
 2610POPC   C4B35050   5.272   3.377   7.664
 2611POPC   NC335051  39.188  29.916   9.464
 2611POPC   PO435052  39.224  29.937   9.164
 2611POPC   GL135053  39.215  29.956   8.864
 2611POPC   GL235054  39.310  29.992   8.864
 2611POPC   C1A35055  39.260  29.907   8.564
 2611POPC   D2A35056  39.248  29.871   8.264
 2611POPC   C3A35057  39.280  29.924   7.964
 2611POPC   C4A35058  39.265  29.876   7.664
 2611POPC   C1B35059  39.479  30.016   8.564
 2611POPC   C2B35060  39.479  29.976   8.264
 2611POPC   C3B35061  39.500  29.964   7.964
 2611POPC   C4B35062  39.446  29.933   7.664
 2612POPC   NC335063  43.063  29.185   9.464
 2612POPC   PO435064  43.156  29.120   9.164
 2612POPC   GL135065  43.126  29.155   8.864
 2612POPC   GL235066  43.035  29.017   8.864
 2612POPC   C1A35067  43.150  29.102   8.564
 2612POPC   D2A35068  43.099  29.101   8.264
 2612POPC   C3A35069  43.158  29.169   7.964
 2612POPC   C4A35070  43.063  29.155   7.664
 2612POPC   C1B35071  43.007  28.918   8.564
 2612POPC   C2B35072  43.059  28.864   8.264
 2612POPC   C3B35073  43.012  28.885   7.964
 2612POPC   C4B35074  43.035  28.953   7.664
 2613POPC   NC335075  43.131  12.120   9.464
 2613POPC   PO435076  43.076  12.040   9.164
 2613POPC   GL135077  43.080  12.086   8.864
 2613POPC   GL235078  42.941  12.111   8.864
 2613POPC   C1A35079  43.100  12.060   8.564
 2613POPC   D2A35080  43.133  12.060   8.264
 2613POPC   C3A35081  43.075  12.048   7.964
 2613POPC   C4A35082  43.069  12.041   7.664
 2613POPC   C1B35083  42.835  12.073   8.564
 2613POPC   C2B35084  42.906  12.077   8.264
 2613POPC   C3B35085  42.899  12.129   7.964
 2613POPC   C4B35086  42.910  12.090   7.664
 2614POPC   NC335087  12.053  37.670   9.464
 2614POPC   PO435088  12.079  37.680   9.164
 2614POPC   GL135089  12.074  37.645   8.864
 2614POPC   GL235090  12.185  37.595   8.864
 2614POPC   C1A35091  12.063  37.685   8.564
 2614POPC   D2A35092  12.114  37.712   8.264
 2614POPC   C3A35093  12.042  37.641   7.964
 2614POPC   C4A35094  12.088  37.724   7.664
 2614POPC   C1B35095  12.181  37.493   8.564
 2614POPC   C2B35096  12.219  37.496   8.264
 2614POPC   C3B35097  12.213  37.493   7.964
 2614POPC   C4B35098  12.171  37.452   7.664
 2615POPC   NC335099  35.327  23.733   9.464
 2615POPC   PO435100  35.400  23.717   9.164
 2615POPC   GL135101  35.337  23.737   8.864
 2615POPC   GL235102  35.503  23.766   8.864
 2615POPC   C1A35103  35.323  23.684   8.564
 2615POPC   D2A35104  35.369  23.730   8.264
 2615POPC   C3A35105  35.346  23.751   7.964
 2615POPC   C4A35106  35.352  23.675   7.664
 2615POPC   C1B35107  35.602  23.787   8.564
 2615POPC   C2B35108  35.579  23.824   8.264
 2615POPC   C3B35109  35.593  23.810   7.964
 2615POPC   C4B35110  35.539  23.846   7.664
 2616POPC   NC335111  36.145  24.446   9.464
 2616POPC   PO435112  36.124  24.502   9.164
 2616POPC   GL135113  36.158  24.447   8.864
 2616POPC   GL235114  36.056  24.427   8.864
 2616POPC   C1A35115  36.086  24.500   8.564
 2616POPC   D2A35116  36.088  24.488   8.264
 2616POPC   C3A35117  36.142  24.517   7.964
 2616POPC   C4A35118  36.136  24.520   7.664
 2616POPC   C1B35119  35.999  24.355   8.564
 2616POPC   C2B35120  35.997  24.272   8.264
 2616POPC   C3B35121  35.931  24.328   7.964
 2616POPC   C4B35122  35.946  24.342   7.664
 2617POPC   NC335123  43.073  12.822   9.464
 2617POPC   PO435124  43.096  12.804   9.164
 2617POPC   GL135125  43.108  12.890   8.864
 2617POPC   GL235126  43.041  12.870   8.864
 2617POPC   C1A35127  43.153  12.879   8.564
 2617POPC   D2A35128  43.137  12.813   8.264
 2617POPC   C3A35129  43.121  12.863   7.964
 2617POPC   C4A35130  43.102  12.810   7.664
 2617POPC   C1B35131  42.855  12.960   8.564
 2617POPC   C2B35132  42.865  12.921   8.264
 2617POPC   C3B35133  42.867  12.950   7.964
 2617POPC   C4B35134  42.887  12.999   7.664
 2618POPC   NC335135   7.433  27.613   9.464
 2618POPC   PO435136   7.460  27.578   9.164
 2618POPC   GL135137   7.403  27.589   8.864
 2618POPC   GL235138   7.531  27.674   8.864
 2618POPC   C1A35139   7.404  27.591   8.564
 2618POPC   D2A35140   7.467  27.622   8.264
 2618POPC   C3A35141   7.401  27.601   7.964
 2618POPC   C4A35142   7.404  27.612   7.664
 2618POPC   C1B35143   7.542  27.811   8.564
 2618POPC   C2B35144   7.548  27.855   8.264
 2618POPC   C3B35145   7.582  27.804   7.964
 2618POPC   C4B35146   7.531  27.828   7.664
 2619POPC   NC335147   5.844  12.124   9.464
 2619POPC   PO435148   5.917  12.103   9.164
 2619POPC   GL135149   5.912  12.082   8.864
 2619POPC   GL235150   5.712  12.161   8.864
 2619POPC   C1A35151   5.864  12.067   8.564
 2619POPC   D2A35152   5.843  12.078   8.264
 2619POPC   C3A35153   5.825  12.072   7.964
 2619POPC   C4A35154   5.844  12.089   7.664
 2619POPC   C1B35155   5.644  12.167   8.564
 2619POPC   C2B35156   5.662  12.189   8.264
 2619POPC   C3B35157   5.638  12.159   7.964
 2619POPC   C4B35158   5.597  12.148   7.664
 2620POPC   NC335159  21.347  25.267   9.464
 2620POPC   PO435160  21.407  25.305   9.164
 2620POPC   GL135161  21.354  25.315   8.864
 2620POPC   GL235162  21.286  25.181   8.864
 2620POPC   C1A35163  21.412  25.298   8.564
 2620POPC   D2A35164  21.339  25.241   8.264
 2620POPC   C3A35165  21.379  25.296   7.964
 2620POPC   C4A35166  21.380  25.286   7.664
 2620POPC   C1B35167  21.303  25.043   8.564
 2620POPC   C2B35168  21.278  25.096   8.264
 2620POPC   C3B35169  21.256  25.055   7.964
 2620POPC   C4B35170  21.302  25.095   7.664
 2621POPC   NC335171  15.207   5.842   9.464
 2621POPC   PO435172  15.132   5.832   9.164
 2621POPC   GL135173  15.185   5.845   8.864
 2621POPC   GL235174  15.079   5.943   8.864
 2621POPC   C1A35175  15.147   5.862   8.564
 2621POPC   D2A35176  15.222   5.863   8.264
 2621POPC   C3A35177  15.198   5.850   7.964
 2621POPC   C4A35178  15.157   5.861   7.664
 2621POPC   C1B35179  15.112   6.129   8.564
 2621POPC   C2B35180  15.065   6.051   8.264
 2621POPC   C3B35181  15.050   6.100   7.964
 2621POPC   C4B35182  15.097   6.110   7.664
 2622POPC   NC335183   2.014  35.350   9.464
 2622POPC   PO435184   1.964  35.394   9.164
 2622POPC   GL135185   1.969  35.370   8.864
 2622POPC   GL235186   1.983  35.498   8.864
 2622POPC   C1A35187   1.984  35.387   8.564
 2622POPC   D2A35188   2.023  35.360   8.264
 2622POPC   C3A35189   2.035  35.372   7.964
 2622POPC   C4A35190   1.990  35.348   7.664
 2622POPC   C1B35191   1.987  35.642   8.564
 2622POPC   C2B35192   1.974  35.632   8.264
 2622POPC   C3B35193   2.001  35.624   7.964
 2622POPC   C4B35194   2.029  35.648   7.664
 2623POPC   NC335195  12.827   8.167   9.464
 2623POPC   PO435196  12.899   8.153   9.164
 2623POPC   GL135197  12.825   8.206   8.864
 2623POPC   GL235198  12.903   8.292   8.864
 2623POPC   C1A35199  12.880   8.151   8.564
 2623POPC   D2A35200  12.824   8.182   8.264
 2623POPC   C3A35201  12.902   8.194   7.964
 2623POPC   C4A35202  12.885   8.170   7.664
 2623POPC   C1B35203  13.027   8.377   8.564
 2623POPC   C2B35204  12.990   8.360   8.264
 2623POPC   C3B35205  12.983   8.376   7.964
 2623POPC   C4B35206  13.043   8.426   7.664
 2624POPC   NC335207  14.422  39.185   9.464
 2624POPC   PO435208  14.362  39.258   9.164
 2624POPC   GL135209  14.428  39.250   8.864
 2624POPC   GL235210  14.552  39.293   8.864
 2624POPC   C1A35211  14.435  39.255   8.564
 2624POPC   D2A35212  14.364  39.184   8.264
 2624POPC   C3A35213  14.451  39.277   7.964
 2624POPC   C4A35214  14.398  39.209   7.664
 2624POPC   C1B35215  14.632  39.349   8.564
 2624POPC   C2B35216  14.580  39.386   8.264
 2624POPC   C3B35217  14.617  39.311   7.964
 2624POPC   C4B35218  14.633  39.364   7.664
 2625POPC   NC335219  26.055  21.386   9.464
 2625POPC   PO435220  26.071  21.348   9.164
 2625POPC   GL135221  26.016  21.433   8.864
 2625POPC   GL235222  26.120  21.354   8.864
 2625POPC   C1A35223  26.040  21.388   8.564
 2625POPC   D2A35224  26.022  21.370   8.264
 2625POPC   C3A35225  26.008  21.418   7.964
 2625POPC   C4A35226  26.043  21.419   7.664
 2625POPC   C1B35227  26.229  21.316   8.564
 2625POPC   C2B35228  26.281  21.295   8.264
 2625POPC   C3B35229  26.300  21.338   7.964
 2625POPC   C4B35230  26.309  21.327   7.664
 2626POPC   NC335231   1.214   1.197   9.464
 2626POPC   PO435232   1.240   1.175   9.164
 2626POPC   GL135233   1.218   1.219   8.864
 2626POPC   GL235234   1.278   1.297   8.864
 2626POPC   C1A35235   1.199   1.175   8.564
 2626POPC   D2A35236   1.235   1.188   8.264
 2626POPC   C3A35237   1.218   1.241   7.964
 2626POPC   C4A35238   1.194   1.194   7.664
 2626POPC   C1B35239   1.249   1.423   8.564
 2626POPC   C2B35240   1.253   1.490   8.264
 2626POPC   C3B35241   1.280   1.435   7.964
 2626POPC   C4B35242   1.259   1.448   7.664
 2627POPC   NC335243  12.865  30.744   9.464
 2627POPC   PO435244  12.863  30.716   9.164
 2627POPC   GL135245  12.851  30.671   8.864
 2627POPC   GL235246  12.875  30.796   8.864
 2627POPC   C1A35247  12.826  30.684   8.564
 2627POPC   D2A35248  12.902  30.720   8.264
 2627POPC   C3A35249  12.863  30.709   7.964
 2627POPC   C4A35250  12.854  30.683   7.664
 2627POPC   C1B35251  12.954  30.894   8.564
 2627POPC   C2B35252  12.957  30.945   8.264
 2627POPC   C3B35253  12.966  30.887   7.964
 2627POPC   C4B35254  12.908  30.904   7.664
 2628POPC   NC335255   5.130   4.360   9.464
 2628POPC   PO435256   5.116   4.342   9.164
 2628POPC   GL135257   5.090   4.294   8.864
 2628POPC   GL235258   5.163   4.452   8.864
 2628POPC   C1A35259   5.120   4.308   8.564
 2628POPC   D2A35260   5.140   4.298   8.264
 2628POPC   C3A35261   5.098   4.286   7.964
 2628POPC   C4A35262   5.081   4.296   7.664
 2628POPC   C1B35263   5.206   4.587   8.564
 2628POPC   C2B35264   5.162   4.535   8.264
 2628POPC   C3B35265   5.191   4.562   7.964
 2628POPC   C4B35266   5.150   4.534   7.664
 2629POPC   NC335267  42.365  21.413   9.464
 2629POPC   PO435268  42.302  21.384   9.164
 2629POPC   GL135269  42.353  21.427   8.864
 2629POPC   GL235270  42.196  21.323   8.864
 2629POPC   C1A35271  42.303  21.383   8.564
 2629POPC   D2A35272  42.316  21.393   8.264
 2629POPC   C3A35273  42.322  21.379   7.964
 2629POPC   C4A35274  42.347  21.402   7.664
 2629POPC   C1B35275  42.093  21.300   8.564
 2629POPC   C2B35276  42.111  21.328   8.264
 2629POPC   C3B35277  42.119  21.292   7.964
 2629POPC   C4B35278  42.119  21.376   7.664
 2630POPC   NC335279  31.459  27.616   9.464
 2630POPC   PO435280  31.442  27.588   9.164
 2630POPC   GL135281  31.444  27.570   8.864
 2630POPC   GL235282  31.378  27.669   8.864
 2630POPC   C1A35283  31.487  27.613   8.564
 2630POPC   D2A35284  31.456  27.625   8.264
 2630POPC   C3A35285  31.457  27.564   7.964
 2630POPC   C4A35286  31.446  27.560   7.664
 2630POPC   C1B35287  31.327  27.803   8.564
 2630POPC   C2B35288  31.352  27.827   8.264
 2630POPC   C3B35289  31.278  27.795   7.964
 2630POPC   C4B35290  31.306  27.758   7.664
 2631POPC   NC335291  41.604   4.322   9.464
 2631POPC   PO435292  41.573   4.351   9.164
 2631POPC   GL135293  41.565   4.314   8.864
 2631POPC   GL235294  41.535   4.152   8.864
 2631POPC   C1A35295  41.530   4.356   8.564
 2631POPC   D2A35296  41.521   4.360   8.264
 2631POPC   C3A35297  41.510   4.341   7.964
 2631POPC   C4A35298  41.560   4.316   7.664
 2631POPC   C1B35299  41.594   4.096   8.564
 2631POPC   C2B35300  41.640   4.065   8.264
 2631POPC   C3B35301  41.591   4.032   7.964
 2631POPC   C4B35302  41.559   4.121   7.664
 2632POPC   NC335303  18.302  39.230   9.464
 2632POPC   PO435304  18.305  39.275   9.164
 2632POPC   GL135305  18.267  39.213   8.864
 2632POPC   GL235306  18.232  39.115   8.864
 2632POPC   C1A35307  18.286  39.229   8.564
 2632POPC   D2A35308  18.329  39.272   8.264
 2632POPC   C3A35309  18.311  39.216   7.964
 2632POPC   C4A35310  18.238  39.219   7.664
 2632POPC   C1B35311  18.088  39.038   8.564
 2632POPC   C2B35312  18.074  39.025   8.264
 2632POPC   C3B35313  18.097  39.002   7.964
 2632POPC   C4B35314  18.071  39.003   7.664
 2633POPC   NC335315  42.379  35.332   9.464
 2633POPC   PO435316  42.345  35.315   9.164
 2633POPC   GL135317  42.322  35.304   8.864
 2633POPC   GL235318  42.390  35.233   8.864
 2633POPC   C1A35319  42.288  35.356   8.564
 2633POPC   D2A35320  42.316  35.372   8.264
 2633POPC   C3A35321  42.285  35.388   7.964
 2633POPC   C4A35322  42.319  35.389   7.664
 2633POPC   C1B35323  42.517  35.183   8.564
 2633POPC   C2B35324  42.550  35.173   8.264
 2633POPC   C3B35325  42.518  35.162   7.964
 2633POPC   C4B35326  42.509  35.206   7.664
 2634POPC   NC335327  20.658  24.471   9.464
 2634POPC   PO435328  20.603  24.460   9.164
 2634POPC   GL135329  20.562  24.512   8.864
 2634POPC   GL235330  20.741  24.467   8.864
 2634POPC   C1A35331  20.626  24.458   8.564
 2634POPC   D2A35332  20.571  24.528   8.264
 2634POPC   C3A35333  20.598  24.539   7.964
 2634POPC   C4A35334  20.575  24.487   7.664
 2634POPC   C1B35335  20.862  24.423   8.564
 2634POPC   C2B35336  20.829  24.466   8.264
 2634POPC   C3B35337  20.896  24.473   7.964
 2634POPC   C4B35338  20.897  24.434   7.664
 2635POPC   NC335339  36.949  39.234   9.464
 2635POPC   PO435340  36.875  39.239   9.164
 2635POPC   GL135341  36.888  39.243   8.864
 2635POPC   GL235342  36.779  39.241   8.864
 2635POPC   C1A35343  36.863  39.260   8.564
 2635POPC   D2A35344  36.926  39.275   8.264
 2635POPC   C3A35345  36.920  39.202   7.964
 2635POPC   C4A35346  36.903  39.275   7.664
 2635POPC   C1B35347  36.646  39.253   8.564
 2635POPC   C2B35348  36.701  39.278   8.264
 2635POPC   C3B35349  36.694  39.257   7.964
 2635POPC   C4B35350  36.629  39.208   7.664
 2636POPC   NC335351   0.444  40.780   9.464
 2636POPC   PO435352   0.486  40.805   9.164
 2636POPC   GL135353   0.454  40.779   8.864
 2636POPC   GL235354   0.357  40.951   8.864
 2636POPC   C1A35355   0.474  40.812   8.564
 2636POPC   D2A35356   0.466  40.739   8.264
 2636POPC   C3A35357   0.433  40.795   7.964
 2636POPC   C4A35358   0.467  40.802   7.664
 2636POPC   C1B35359   0.386  40.993   8.564
 2636POPC   C2B35360   0.313  41.038   8.264
 2636POPC   C3B35361   0.370  40.999   7.964
 2636POPC   C4B35362   0.401  41.023   7.664
 2637POPC   NC335363  31.450  36.085   9.464
 2637POPC   PO435364  31.427  36.111   9.164
 2637POPC   GL135365  31.436  36.171   8.864
 2637POPC   GL235366  31.316  36.081   8.864
 2637POPC   C1A35367  31.487  36.133   8.564
 2637POPC   D2A35368  31.495  36.086   8.264
 2637POPC   C3A35369  31.462  36.136   7.964
 2637POPC   C4A35370  31.449  36.101   7.664
 2637POPC   C1B35371  31.223  36.038   8.564
 2637POPC   C2B35372  31.275  35.964   8.264
 2637POPC   C3B35373  31.210  35.983   7.964
 2637POPC   C4B35374  31.296  36.028   7.664
 2638POPC   NC335375   9.704  33.760   9.464
 2638POPC   PO435376   9.774  33.786   9.164
 2638POPC   GL135377   9.726  33.841   8.864
 2638POPC   GL235378   9.622  33.838   8.864
 2638POPC   C1A35379   9.710  33.756   8.564
 2638POPC   D2A35380   9.704  33.789   8.264
 2638POPC   C3A35381   9.722  33.799   7.964
 2638POPC   C4A35382   9.784  33.810   7.664
 2638POPC   C1B35383   9.488  33.914   8.564
 2638POPC   C2B35384   9.476  33.874   8.264
 2638POPC   C3B35385   9.516  33.853   7.964
 2638POPC   C4B35386   9.528  33.899   7.664
 2639POPC   NC335387   7.387   5.064   9.464
 2639POPC   PO435388   7.434   5.082   9.164
 2639POPC   GL135389   7.392   5.054   8.864
 2639POPC   GL235390   7.454   5.211   8.864
 2639POPC   C1A35391   7.454   5.098   8.564
 2639POPC   D2A35392   7.464   5.069   8.264
 2639POPC   C3A35393   7.430   5.094   7.964
 2639POPC   C4A35394   7.444   5.064   7.664
 2639POPC   C1B35395   7.487   5.351   8.564
 2639POPC   C2B35396   7.542   5.348   8.264
 2639POPC   C3B35397   7.508   5.280   7.964
 2639POPC   C4B35398   7.498   5.319   7.664
 2640POPC   NC335399  40.750  15.957   9.464
 2640POPC   PO435400  40.829  15.973   9.164
 2640POPC   GL135401  40.829  15.939   8.864
 2640POPC   GL235402  40.870  15.806   8.864
 2640POPC   C1A35403  40.822  15.970   8.564
 2640POPC   D2A35404  40.789  15.917   8.264
 2640POPC   C3A35405  40.819  15.942   7.964
 2640POPC   C4A35406  40.756  15.916   7.664
 2640POPC   C1B35407  40.871  15.749   8.564
 2640POPC   C2B35408  40.879  15.748   8.264
 2640POPC   C3B35409  40.878  15.708   7.964
 2640POPC   C4B35410  40.914  15.675   7.664
 2641POPC   NC335411   8.224  16.778   9.464
 2641POPC   PO435412   8.197  16.768   9.164
 2641POPC   GL135413   8.167  16.751   8.864
 2641POPC   GL235414   8.262  16.634   8.864
 2641POPC   C1A35415   8.174  16.771   8.564
 2641POPC   D2A35416   8.152  16.755   8.264
 2641POPC   C3A35417   8.207  16.768   7.964
 2641POPC   C4A35418   8.168  16.733   7.664
 2641POPC   C1B35419   8.373  16.486   8.564
 2641POPC   C2B35420   8.278  16.552   8.264
 2641POPC   C3B35421   8.300  16.522   7.964
 2641POPC   C4B35422   8.319  16.494   7.664
 2642POPC   NC335423   9.707   4.359   9.464
 2642POPC   PO435424   9.760   4.320   9.164
 2642POPC   GL135425   9.752   4.329   8.864
 2642POPC   GL235426   9.707   4.197   8.864
 2642POPC   C1A35427   9.745   4.278   8.564
 2642POPC   D2A35428   9.760   4.285   8.264
 2642POPC   C3A35429   9.721   4.364   7.964
 2642POPC   C4A35430   9.747   4.270   7.664
 2642POPC   C1B35431   9.635   4.109   8.564
 2642POPC   C2B35432   9.667   4.076   8.264
 2642POPC   C3B35433   9.651   4.065   7.964
 2642POPC   C4B35434   9.603   4.081   7.664
 2643POPC   NC335435   0.396  15.989   9.464
 2643POPC   PO435436   0.438  15.957   9.164
 2643POPC   GL135437   0.403  15.963   8.864
 2643POPC   GL235438   0.353  15.843   8.864
 2643POPC   C1A35439   0.410  15.935   8.564
 2643POPC   D2A35440   0.408  15.921   8.264
 2643POPC   C3A35441   0.445  15.990   7.964
 2643POPC   C4A35442   0.478  15.940   7.664
 2643POPC   C1B35443   0.331  15.710   8.564
 2643POPC   C2B35444   0.343  15.779   8.264
 2643POPC   C3B35445   0.333  15.779   7.964
 2643POPC   C4B35446   0.313  15.788   7.664
 2644POPC   NC335447  26.055  14.429   9.464
 2644POPC   PO435448  26.035  14.374   9.164
 2644POPC   GL135449  26.063  14.452   8.864
 2644POPC   GL235450  26.027  14.532   8.864
 2644POPC   C1A35451  26.028  14.422   8.564
 2644POPC   D2A35452  26.090  14.429   8.264
 2644POPC   C3A35453  26.080  14.378   7.964
 2644POPC   C4A35454  26.075  14.378   7.664
 2644POPC   C1B35455  26.068  14.635   8.564
 2644POPC   C2B35456  26.126  14.636   8.264
 2644POPC   C3B35457  26.120  14.627   7.964
 2644POPC   C4B35458  26.131  14.640   7.664
 2645POPC   NC335459  26.060  29.962   9.464
 2645POPC   PO435460  26.014  29.908   9.164
 2645POPC   GL135461  26.029  29.877   8.864
 2645POPC   GL235462  25.989  29.753   8.864
 2645POPC   C1A35463  26.090  29.929   8.564
 2645POPC   D2A35464  25.996  29.958   8.264
 2645POPC   C3A35465  26.034  29.959   7.964
 2645POPC   C4A35466  26.076  29.877   7.664
 2645POPC   C1B35467  25.953  29.680   8.564
 2645POPC   C2B35468  26.003  29.702   8.264
 2645POPC   C3B35469  25.937  29.686   7.964
 2645POPC   C4B35470  25.964  29.718   7.664
 2646POPC   NC335471   9.781  30.702   9.464
 2646POPC   PO435472   9.782  30.696   9.164
 2646POPC   GL135473   9.783  30.726   8.864
 2646POPC   GL235474   9.878  30.713   8.864
 2646POPC   C1A35475   9.783  30.700   8.564
 2646POPC   D2A35476   9.731  30.728   8.264
 2646POPC   C3A35477   9.783  30.658   7.964
 2646POPC   C4A35478   9.740  30.696   7.664
 2646POPC   C1B35479  10.030  30.726   8.564
 2646POPC   C2B35480  10.015  30.765   8.264
 2646POPC   C3B35481  10.028  30.748   7.964
 2646POPC   C4B35482   9.965  30.761   7.664
 2647POPC   NC335483  33.773  18.318   9.464
 2647POPC   PO435484  33.760  18.266   9.164
 2647POPC   GL135485  33.796  18.283   8.864
 2647POPC   GL235486  33.721  18.153   8.864
 2647POPC   C1A35487  33.820  18.280   8.564
 2647POPC   D2A35488  33.824  18.287   8.264
 2647POPC   C3A35489  33.797  18.262   7.964
 2647POPC   C4A35490  33.798  18.282   7.664
 2647POPC   C1B35491  33.655  18.064   8.564
 2647POPC   C2B35492  33.660  18.074   8.264
 2647POPC   C3B35493  33.645  18.067   7.964
 2647POPC   C4B35494  33.613  18.036   7.664
 2648POPC   NC335495  20.625   9.748   9.464
 2648POPC   PO435496  20.632   9.752   9.164
 2648POPC   GL135497  20.629   9.699   8.864
 2648POPC   GL235498  20.703   9.846   8.864
 2648POPC   C1A35499  20.582   9.788   8.564
 2648POPC   D2A35500  20.658   9.755   8.264
 2648POPC   C3A35501  20.653   9.721   7.964
 2648POPC   C4A35502  20.613   9.749   7.664
 2648POPC   C1B35503  20.803   9.883   8.564
 2648POPC   C2B35504  20.809   9.849   8.264
 2648POPC   C3B35505  20.789   9.857   7.964
 2648POPC   C4B35506  20.802   9.855   7.664
 2649POPC   NC335507  22.127   0.415   9.464
 2649POPC   PO435508  22.143   0.441   9.164
 2649POPC   GL135509  22.125   0.469   8.864
 2649POPC   GL235510  22.045   0.512   8.864
 2649POPC   C1A35511  22.141   0.411   8.564
 2649POPC   D2A35512  22.212   0.430   8.264
 2649POPC   C3A35513  22.150   0.420   7.964
 2649POPC   C4A35514  22.184   0.477   7.664
 2649POPC   C1B35515  21.976   0.593   8.564
 2649POPC   C2B35516  22.011   0.582   8.264
 2649POPC   C3B35517  21.957   0.601   7.964
 2649POPC   C4B35518  21.968   0.617   7.664
 2650POPC   NC335519   9.759   8.991   9.464
 2650POPC   PO435520   9.781   8.953   9.164
 2650POPC   GL135521   9.792   8.954   8.864
 2650POPC   GL235522   9.858   8.950   8.864
 2650POPC   C1A35523   9.707   8.951   8.564
 2650POPC   D2A35524   9.780   8.964   8.264
 2650POPC   C3A35525   9.764   8.952   7.964
 2650POPC   C4A35526   9.778   8.989   7.664
 2650POPC   C1B35527   9.947   8.904   8.564
 2650POPC   C2B35528  10.035   8.906   8.264
 2650POPC   C3B35529   9.974   8.965   7.964
 2650POPC   C4B35530   9.947   8.967   7.664
 2651POPC   NC335531   9.703  20.621   9.464
 2651POPC   PO435532   9.757  20.625   9.164
 2651POPC   GL135533   9.716  20.651   8.864
 2651POPC   GL235534   9.828  20.608   8.864
 2651POPC   C1A35535   9.775  20.584   8.564
 2651POPC   D2A35536   9.704  20.561   8.264
 2651POPC   C3A35537   9.724  20.614   7.964
 2651POPC   C4A35538   9.741  20.660   7.664
 2651POPC   C1B35539   9.964  20.655   8.564
 2651POPC   C2B35540  10.012  20.646   8.264
 2651POPC   C3B35541  10.015  20.599   7.964
 2651POPC   C4B35542   9.972  20.632   7.664
 2652POPC   NC335543   1.977  29.927   9.464
 2652POPC   PO435544   2.038  29.967   9.164
 2652POPC   GL135545   2.000  29.891   8.864
 2652POPC   GL235546   1.939  29.849   8.864
 2652POPC   C1A35547   2.032  29.947   8.564
 2652POPC   D2A35548   1.966  29.895   8.264
 2652POPC   C3A35549   1.982  29.964   7.964
 2652POPC   C4A35550   1.949  29.904   7.664
 2652POPC   C1B35551   1.804  29.746   8.564
 2652POPC   C2B35552   1.802  29.672   8.264
 2652POPC   C3B35553   1.866  29.696   7.964
 2652POPC   C4B35554   1.855  29.743   7.664
 2653POPC   NC335555  10.546  12.125   9.464
 2653POPC   PO435556  10.524  12.072   9.164
 2653POPC   GL135557  10.540  12.097   8.864
 2653POPC   GL235558  10.416  12.019   8.864
 2653POPC   C1A35559  10.539  12.039   8.564
 2653POPC   D2A35560  10.561  12.066   8.264
 2653POPC   C3A35561  10.564  12.072   7.964
 2653POPC   C4A35562  10.543  12.104   7.664
 2653POPC   C1B35563  10.326  11.903   8.564
 2653POPC   C2B35564  10.293  11.923   8.264
 2653POPC   C3B35565  10.283  11.964   7.964
 2653POPC   C4B35566  10.352  11.979   7.664
 2654POPC   NC335567  23.679   5.086   9.464
 2654POPC   PO435568  23.684   5.141   9.164
 2654POPC   GL135569  23.665   5.047   8.864
 2654POPC   GL235570  23.793   5.031   8.864
 2654POPC   C1A35571  23.754   5.049   8.564
 2654POPC   D2A35572  23.763   5.122   8.264
 2654POPC   C3A35573  23.737   5.053   7.964
 2654POPC   C4A35574  23.672   5.129   7.664
 2654POPC   C1B35575  23.886   4.906   8.564
 2654POPC   C2B35576  23.936   4.914   8.264
 2654POPC   C3B35577  23.961   4.920   7.964
 2654POPC   C4B35578  23.908   4.969   7.664
 2655POPC   NC335579  27.640  11.255   9.464
 2655POPC   PO435580  27.598  11.342   9.164
 2655POPC   GL135581  27.565  11.271   8.864
 2655POPC   GL235582  27.661  11.217   8.864
 2655POPC   C1A35583  27.577  11.315   8.564
 2655POPC   D2A35584  27.611  11.279   8.264
 2655POPC   C3A35585  27.576  11.315   7.964
 2655POPC   C4A35586  27.642  11.311   7.664
 2655POPC   C1B35587  27.659  11.063   8.564
 2655POPC   C2B35588  27.667  11.089   8.264
 2655POPC   C3B35589  27.615  11.092   7.964
 2655POPC   C4B35590  27.621  11.074   7.664
 2656POPC   NC335591  11.277  32.223   9.464
 2656POPC   PO435592  11.294  32.208   9.164
 2656POPC   GL135593  11.301  32.226   8.864
 2656POPC   GL235594  11.305  32.141   8.864
 2656POPC   C1A35595  11.288  32.292   8.564
 2656POPC   D2A35596  11.346  32.249   8.264
 2656POPC   C3A35597  11.350  32.268   7.964
 2656POPC   C4A35598  11.327  32.294   7.664
 2656POPC   C1B35599  11.325  31.979   8.564
 2656POPC   C2B35600  11.319  31.968   8.264
 2656POPC   C3B35601  11.395  31.984   7.964
 2656POPC   C4B35602  11.391  32.038   7.664
 2657POPC   NC335603  18.274  15.962   9.464
 2657POPC   PO435604  18.283  15.919   9.164
 2657POPC   GL135605  18.259  15.955   8.864
 2657POPC   GL235606  18.315  15.833   8.864
 2657POPC   C1A35607  18.283  15.944   8.564
 2657POPC   D2A35608  18.289  15.936   8.264
 2657POPC   C3A35609  18.275  15.988   7.964
 2657POPC   C4A35610  18.306  15.955   7.664
 2657POPC   C1B35611  18.308  15.676   8.564
 2657POPC   C2B35612  18.278  15.711   8.264
 2657POPC   C3B35613  18.249  15.741   7.964
 2657POPC   C4B35614  18.314  15.663   7.664
 2658POPC   NC335615  20.654  17.502   9.464
 2658POPC   PO435616  20.607  17.503   9.164
 2658POPC   GL135617  20.593  17.496   8.864
 2658POPC   GL235618  20.665  17.636   8.864
 2658POPC   C1A35619  20.570  17.543   8.564
 2658POPC   D2A35620  20.577  17.494   8.264
 2658POPC   C3A35621  20.584  17.548   7.964
 2658POPC   C4A35622  20.593  17.472   7.664
 2658POPC   C1B35623  20.684  17.694   8.564
 2658POPC   C2B35624  20.752  17.726   8.264
 2658POPC   C3B35625  20.726  17.723   7.964
 2658POPC   C4B35626  20.767  17.690   7.664
 2659POPC   NC335627  25.234  32.977   9.464
 2659POPC   PO435628  25.274  33.032   9.164
 2659POPC   GL135629  25.233  33.065   8.864
 2659POPC   GL235630  25.301  32.963   8.864
 2659POPC   C1A35631  25.275  33.029   8.564
 2659POPC   D2A35632  25.243  33.065   8.264
 2659POPC   C3A35633  25.253  32.978   7.964
 2659POPC   C4A35634  25.275  33.004   7.664
 2659POPC   C1B35635  25.477  32.879   8.564
 2659POPC   C2B35636  25.458  32.804   8.264
 2659POPC   C3B35637  25.464  32.817   7.964
 2659POPC   C4B35638  25.441  32.852   7.664
 2660POPC   NC335639  35.387   6.634   9.464
 2660POPC   PO435640  35.363   6.628   9.164
 2660POPC   GL135641  35.347   6.694   8.864
 2660POPC   GL235642  35.446   6.690   8.864
 2660POPC   C1A35643  35.341   6.619   8.564
 2660POPC   D2A35644  35.351   6.692   8.264
 2660POPC   C3A35645  35.309   6.635   7.964
 2660POPC   C4A35646  35.383   6.688   7.664
 2660POPC   C1B35647  35.573   6.763   8.564
 2660POPC   C2B35648  35.550   6.760   8.264
 2660POPC   C3B35649  35.532   6.799   7.964
 2660POPC   C4B35650  35.521   6.849   7.664
 2661POPC   NC335651   5.061  34.583   9.464
 2661POPC   PO435652   5.110  34.626   9.164
 2661POPC   GL135653   5.099  34.590   8.864
 2661POPC   GL235654   5.057  34.669   8.864
 2661POPC   C1A35655   5.095  34.620   8.564
 2661POPC   D2A35656   5.043  34.549   8.264
 2661POPC   C3A35657   5.103  34.539   7.964
 2661POPC   C4A35658   5.076  34.596   7.664
 2661POPC   C1B35659   5.047  34.819   8.564
 2661POPC   C2B35660   5.018  34.829   8.264
 2661POPC   C3B35661   5.044  34.813   7.964
 2661POPC   C4B35662   5.026  34.775   7.664
 2662POPC   NC335663   1.947   5.126   9.464
 2662POPC   PO435664   1.991   5.063   9.164
 2662POPC   GL135665   1.950   5.082   8.864
 2662POPC   GL235666   2.073   4.936   8.864
 2662POPC   C1A35667   2.000   5.122   8.564
 2662POPC   D2A35668   2.020   5.081   8.264
 2662POPC   C3A35669   2.029   5.103   7.964
 2662POPC   C4A35670   1.972   5.132   7.664
 2662POPC   C1B35671   2.091   4.862   8.564
 2662POPC   C2B35672   2.073   4.900   8.264
 2662POPC   C3B35673   2.037   4.881   7.964
 2662POPC   C4B35674   2.034   4.835   7.664
 2663POPC   NC335675   0.431   8.182   9.464
 2663POPC   PO435676   0.414   8.226   9.164
 2663POPC   GL135677   0.398   8.151   8.864
 2663POPC   GL235678   0.486   8.080   8.864
 2663POPC   C1A35679   0.423   8.219   8.564
 2663POPC   D2A35680   0.411   8.211   8.264
 2663POPC   C3A35681   0.469   8.147   7.964
 2663POPC   C4A35682   0.422   8.236   7.664
 2663POPC   C1B35683   0.463   7.926   8.564
 2663POPC   C2B35684   0.481   7.903   8.264
 2663POPC   C3B35685   0.408   7.992   7.964
 2663POPC   C4B35686   0.448   7.898   7.664
 2664POPC   NC335687  15.229  19.864   9.464
 2664POPC   PO435688  15.177  19.855   9.164
 2664POPC   GL135689  15.182  19.809   8.864
 2664POPC   GL235690  15.060  19.904   8.864
 2664POPC   C1A35691  15.144  19.838   8.564
 2664POPC   D2A35692  15.157  19.817   8.264
 2664POPC   C3A35693  15.145  19.856   7.964
 2664POPC   C4A35694  15.223  19.881   7.664
 2664POPC   C1B35695  14.954  19.917   8.564
 2664POPC   C2B35696  14.912  19.945   8.264
 2664POPC   C3B35697  14.917  19.970   7.964
 2664POPC   C4B35698  14.913  20.000   7.664
 2665POPC   NC335699   3.575  43.906   9.464
 2665POPC   PO435700   3.558  43.847   9.164
 2665POPC   GL135701   3.556  43.860   8.864
 2665POPC   GL235702   3.504  43.996   8.864
 2665POPC   C1A35703   3.515  43.892   8.564
 2665POPC   D2A35704   3.563  43.879   8.264
 2665POPC   C3A35705   3.540  43.847   7.964
 2665POPC   C4A35706   3.505  43.857   7.664
 2665POPC   C1B35707   3.479  44.090   8.564
 2665POPC   C2B35708   3.455  44.147   8.264
 2665POPC   C3B35709   3.463  44.085   7.964
 2665POPC   C4B35710   3.466  44.104   7.664
 2666POPC   NC335711  20.570  21.409   9.464
 2666POPC   PO435712  20.655  21.415   9.164
 2666POPC   GL135713  20.596  21.379   8.864
 2666POPC   GL235714  20.599  21.475   8.864
 2666POPC   C1A35715  20.594  21.424   8.564
 2666POPC   D2A35716  20.621  21.432   8.264
 2666POPC   C3A35717  20.627  21.421   7.964
 2666POPC   C4A35718  20.560  21.355   7.664
 2666POPC   C1B35719  20.653  21.600   8.564
 2666POPC   C2B35720  20.693  21.655   8.264
 2666POPC   C3B35721  20.666  21.602   7.964
 2666POPC   C4B35722  20.608  21.605   7.664
 2667POPC   NC335723  16.691  15.167   9.464
 2667POPC   PO435724  16.763  15.149   9.164
 2667POPC   GL135725  16.723  15.218   8.864
 2667POPC   GL235726  16.700  15.084   8.864
 2667POPC   C1A35727  16.773  15.208   8.564
 2667POPC   D2A35728  16.737  15.171   8.264
 2667POPC   C3A35729  16.780  15.161   7.964
 2667POPC   C4A35730  16.752  15.145   7.664
 2667POPC   C1B35731  16.574  15.003   8.564
 2667POPC   C2B35732  16.570  14.983   8.264
 2667POPC   C3B35733  16.600  14.981   7.964
 2667POPC   C4B35734  16.615  15.007   7.664
 2668POPC   NC335735  36.902  28.373   9.464
 2668POPC   PO435736  36.902  28.337   9.164
 2668POPC   GL135737  36.929  28.379   8.864
 2668POPC   GL235738  36.812  28.316   8.864
 2668POPC   C1A35739  36.904  28.320   8.564
 2668POPC   D2A35740  36.884  28.389   8.264
 2668POPC   C3A35741  36.892  28.403   7.964
 2668POPC   C4A35742  36.872  28.355   7.664
 2668POPC   C1B35743  36.665  28.298   8.564
 2668POPC   C2B35744  36.706  28.344   8.264
 2668POPC   C3B35745  36.637  28.286   7.964
 2668POPC   C4B35746  36.622  28.334   7.664
 2669POPC   NC335747  15.925  12.892   9.464
 2669POPC   PO435748  15.917  12.866   9.164
 2669POPC   GL135749  15.996  12.838   8.864
 2669POPC   GL235750  16.113  12.814   8.864
 2669POPC   C1A35751  15.934  12.815   8.564
 2669POPC   D2A35752  15.979  12.867   8.264
 2669POPC   C3A35753  15.909  12.898   7.964
 2669POPC   C4A35754  15.960  12.898   7.664
 2669POPC   C1B35755  16.205  12.783   8.564
 2669POPC   C2B35756  16.211  12.775   8.264
 2669POPC   C3B35757  16.245  12.841   7.964
 2669POPC   C4B35758  16.252  12.796   7.664
 2670POPC   NC335759  24.474   3.567   9.464
 2670POPC   PO435760  24.466   3.570   9.164
 2670POPC   GL135761  24.511   3.501   8.864
 2670POPC   GL235762  24.579   3.439   8.864
 2670POPC   C1A35763  24.512   3.551   8.564
 2670POPC   D2A35764  24.449   3.563   8.264
 2670POPC   C3A35765  24.440   3.585   7.964
 2670POPC   C4A35766  24.504   3.503   7.664
 2670POPC   C1B35767  24.633   3.299   8.564
 2670POPC   C2B35768  24.631   3.393   8.264
 2670POPC   C3B35769  24.674   3.378   7.964
 2670POPC   C4B35770  24.597   3.301   7.664
 2671POPC   NC335771  14.396  23.668   9.464
 2671POPC   PO435772  14.403  23.674   9.164
 2671POPC   GL135773  14.364  23.737   8.864
 2671POPC   GL235774  14.378  23.583   8.864
 2671POPC   C1A35775  14.447  23.712   8.564
 2671POPC   D2A35776  14.425  23.724   8.264
 2671POPC   C3A35777  14.449  23.763   7.964
 2671POPC   C4A35778  14.420  23.744   7.664
 2671POPC   C1B35779  14.334  23.487   8.564
 2671POPC   C2B35780  14.329  23.448   8.264
 2671POPC   C3B35781  14.335  23.487   7.964
 2671POPC   C4B35782  14.341  23.478   7.664
 2672POPC   NC335783   5.136  32.268   9.464
 2672POPC   PO435784   5.111  32.205   9.164
 2672POPC   GL135785   5.061  32.234   8.864
 2672POPC   GL235786   5.227  32.297   8.864
 2672POPC   C1A35787   5.059  32.245   8.564
 2672POPC   D2A35788   5.065  32.209   8.264
 2672POPC   C3A35789   5.130  32.275   7.964
 2672POPC   C4A35790   5.064  32.211   7.664
 2672POPC   C1B35791   5.364  32.331   8.564
 2672POPC   C2B35792   5.378  32.299   8.264
 2672POPC   C3B35793   5.304  32.324   7.964
 2672POPC   C4B35794   5.284  32.365   7.664
 2673POPC   NC335795  22.896  12.863   9.464
 2673POPC   PO435796  22.893  12.834   9.164
 2673POPC   GL135797  22.947  12.857   8.864
 2673POPC   GL235798  22.850  12.842   8.864
 2673POPC   C1A35799  22.949  12.887   8.564
 2673POPC   D2A35800  22.934  12.810   8.264
 2673POPC   C3A35801  22.911  12.860   7.964
 2673POPC   C4A35802  22.936  12.854   7.664
 2673POPC   C1B35803  22.682  12.796   8.564
 2673POPC   C2B35804  22.672  12.704   8.264
 2673POPC   C3B35805  22.665  12.750   7.964
 2673POPC   C4B35806  22.720  12.714   7.664
 2674POPC   NC335807   2.029  40.052   9.464
 2674POPC   PO435808   2.019  40.025   9.164
 2674POPC   GL135809   1.991  40.045   8.864
 2674POPC   GL235810   1.930  40.075   8.864
 2674POPC   C1A35811   1.983  40.019   8.564
 2674POPC   D2A35812   2.005  40.002   8.264
 2674POPC   C3A35813   1.966  39.977   7.964
 2674POPC   C4A35814   1.983  39.987   7.664
 2674POPC   C1B35815   1.899  40.182   8.564
 2674POPC   C2B35816   1.864  40.227   8.264
 2674POPC   C3B35817   1.901  40.253   7.964
 2674POPC   C4B35818   1.845  40.211   7.664
 2675POPC   NC335819  21.388   0.467   9.464
 2675POPC   PO435820  21.416   0.429   9.164
 2675POPC   GL135821  21.382   0.474   8.864
 2675POPC   GL235822  21.448   0.520   8.864
 2675POPC   C1A35823  21.426   0.426   8.564
 2675POPC   D2A35824  21.404   0.452   8.264
 2675POPC   C3A35825  21.353   0.477   7.964
 2675POPC   C4A35826  21.347   0.430   7.664
 2675POPC   C1B35827  21.521   0.625   8.564
 2675POPC   C2B35828  21.528   0.681   8.264
 2675POPC   C3B35829  21.523   0.637   7.964
 2675POPC   C4B35830  21.516   0.694   7.664
 2676POPC   NC335831  15.949  35.306   9.464
 2676POPC   PO435832  15.981  35.328   9.164
 2676POPC   GL135833  15.992  35.337   8.864
 2676POPC   GL235834  16.049  35.235   8.864
 2676POPC   C1A35835  15.915  35.302   8.564
 2676POPC   D2A35836  15.979  35.351   8.264
 2676POPC   C3A35837  15.975  35.399   7.964
 2676POPC   C4A35838  15.993  35.366   7.664
 2676POPC   C1B35839  16.148  35.226   8.564
 2676POPC   C2B35840  16.179  35.209   8.264
 2676POPC   C3B35841  16.135  35.218   7.964
 2676POPC   C4B35842  16.106  35.213   7.664
 2677POPC   NC335843  27.640  44.695   9.464
 2677POPC   PO435844  27.564  44.638   9.164
 2677POPC   GL135845  27.580  44.626   8.864
 2677POPC   GL235846  27.454  44.735   8.864
 2677POPC   C1A35847  27.571  44.652   8.564
 2677POPC   D2A35848  27.585  44.666   8.264
 2677POPC   C3A35849  27.607  44.710   7.964
 2677POPC   C4A35850  27.594  44.694   7.664
 2677POPC   C1B35851  27.404  44.790   8.564
 2677POPC   C2B35852  27.333  44.795   8.264
 2677POPC   C3B35853  27.360  44.750   7.964
 2677POPC   C4B35854  27.369  44.817   7.664
 2678POPC   NC335855  13.615  32.267   9.464
 2678POPC   PO435856  13.664  32.218   9.164
 2678POPC   GL135857  13.668  32.289   8.864
 2678POPC   GL235858  13.675  32.298   8.864
 2678POPC   C1A35859  13.604  32.241   8.564
 2678POPC   D2A35860  13.670  32.245   8.264
 2678POPC   C3A35861  13.630  32.266   7.964
 2678POPC   C4A35862  13.655  32.258   7.664
 2678POPC   C1B35863  13.782  32.484   8.564
 2678POPC   C2B35864  13.737  32.474   8.264
 2678POPC   C3B35865  13.808  32.464   7.964
 2678POPC   C4B35866  13.749  32.399   7.664
 2679POPC   NC335867  15.156  21.396   9.464
 2679POPC   PO435868  15.145  21.341   9.164
 2679POPC   GL135869  15.205  21.396   8.864
 2679POPC   GL235870  15.177  21.528   8.864
 2679POPC   C1A35871  15.144  21.431   8.564
 2679POPC   D2A35872  15.183  21.421   8.264
 2679POPC   C3A35873  15.131  21.346   7.964
 2679POPC   C4A35874  15.212  21.343   7.664
 2679POPC   C1B35875  15.166  21.677   8.564
 2679POPC   C2B35876  15.111  21.645   8.264
 2679POPC   C3B35877  15.142  21.660   7.964
 2679POPC   C4B35878  15.120  21.647   7.664
 2680POPC   NC335879  36.862  40.786   9.464
 2680POPC   PO435880  36.894  40.774   9.164
 2680POPC   GL135881  36.901  40.784   8.864
 2680POPC   GL235882  36.841  40.888   8.864
 2680POPC   C1A35883  36.871  40.826   8.564
 2680POPC   D2A35884  36.863  40.790   8.264
 2680POPC   C3A35885  36.861  40.760   7.964
 2680POPC   C4A35886  36.881  40.768   7.664
 2680POPC   C1B35887  36.829  40.998   8.564
 2680POPC   C2B35888  36.788  41.025   8.264
 2680POPC   C3B35889  36.764  41.047   7.964
 2680POPC   C4B35890  36.850  41.012   7.664
 2681POPC   NC335891  37.632  28.411   9.464
 2681POPC   PO435892  37.649  28.360   9.164
 2681POPC   GL135893  37.663  28.366   8.864
 2681POPC   GL235894  37.711  28.245   8.864
 2681POPC   C1A35895  37.669  28.332   8.564
 2681POPC   D2A35896  37.680  28.404   8.264
 2681POPC   C3A35897  37.695  28.406   7.964
 2681POPC   C4A35898  37.649  28.368   7.664
 2681POPC   C1B35899  37.736  28.149   8.564
 2681POPC   C2B35900  37.734  28.148   8.264
 2681POPC   C3B35901  37.732  28.177   7.964
 2681POPC   C4B35902  37.748  28.099   7.664
 2682POPC   NC335903  26.818  19.020   9.464
 2682POPC   PO435904  26.835  19.077   9.164
 2682POPC   GL135905  26.835  19.090   8.864
 2682POPC   GL235906  26.748  19.207   8.864
 2682POPC   C1A35907  26.855  19.010   8.564
 2682POPC   D2A35908  26.805  19.081   8.264
 2682POPC   C3A35909  26.832  19.098   7.964
 2682POPC   C4A35910  26.840  19.079   7.664
 2682POPC   C1B35911  26.719  19.311   8.564
 2682POPC   C2B35912  26.714  19.269   8.264
 2682POPC   C3B35913  26.735  19.252   7.964
 2682POPC   C4B35914  26.694  19.293   7.664
 2683POPC   NC335915   3.563   8.221   9.464
 2683POPC   PO435916   3.539   8.237   9.164
 2683POPC   GL135917   3.562   8.147   8.864
 2683POPC   GL235918   3.582   8.349   8.864
 2683POPC   C1A35919   3.578   8.154   8.564
 2683POPC   D2A35920   3.508   8.167   8.264
 2683POPC   C3A35921   3.573   8.195   7.964
 2683POPC   C4A35922   3.502   8.192   7.664
 2683POPC   C1B35923   3.633   8.457   8.564
 2683POPC   C2B35924   3.677   8.422   8.264
 2683POPC   C3B35925   3.661   8.477   7.964
 2683POPC   C4B35926   3.588   8.429   7.664
 2684POPC   NC335927  34.618  18.331   9.464
 2684POPC   PO435928  34.541  18.240   9.164
 2684POPC   GL135929  34.548  18.249   8.864
 2684POPC   GL235930  34.521  18.190   8.864
 2684POPC   C1A35931  34.564  18.311   8.564
 2684POPC   D2A35932  34.533  18.245   8.264
 2684POPC   C3A35933  34.554  18.329   7.964
 2684POPC   C4A35934  34.590  18.292   7.664
 2684POPC   C1B35935  34.422  18.096   8.564
 2684POPC   C2B35936  34.437  18.143   8.264
 2684POPC   C3B35937  34.366  18.154   7.964
 2684POPC   C4B35938  34.439  18.108   7.664
 2685POPC   NC335939  22.136  14.393   9.464
 2685POPC   PO435940  22.134  14.429   9.164
 2685POPC   GL135941  22.129  14.417   8.864
 2685POPC   GL235942  22.044  14.363   8.864
 2685POPC   C1A35943  22.127  14.383   8.564
 2685POPC   D2A35944  22.152  14.428   8.264
 2685POPC   C3A35945  22.196  14.429   7.964
 2685POPC   C4A35946  22.116  14.368   7.664
 2685POPC   C1B35947  21.921  14.310   8.564
 2685POPC   C2B35948  21.950  14.366   8.264
 2685POPC   C3B35949  21.955  14.374   7.964
 2685POPC   C4B35950  21.966  14.362   7.664
 2686POPC   NC335951  22.973   5.865   9.464
 2686POPC   PO435952  22.910   5.918   9.164
 2686POPC   GL135953  22.944   5.900   8.864
 2686POPC   GL235954  22.813   5.769   8.864
 2686POPC   C1A35955  22.888   5.825   8.564
 2686POPC   D2A35956  22.893   5.918   8.264
 2686POPC   C3A35957  22.898   5.865   7.964
 2686POPC   C4A35958  22.959   5.888   7.664
 2686POPC   C1B35959  22.784   5.700   8.564
 2686POPC   C2B35960  22.745   5.700   8.264
 2686POPC   C3B35961  22.828   5.692   7.964
 2686POPC   C4B35962  22.778   5.656   7.664
 2687POPC   NC335963  41.607  28.356   9.464
 2687POPC   PO435964  41.534  28.417   9.164
 2687POPC   GL135965  41.534  28.383   8.864
 2687POPC   GL235966  41.422  28.381   8.864
 2687POPC   C1A35967  41.579  28.402   8.564
 2687POPC   D2A35968  41.533  28.381   8.264
 2687POPC   C3A35969  41.596  28.371   7.964
 2687POPC   C4A35970  41.521  28.379   7.664
 2687POPC   C1B35971  41.336  28.425   8.564
 2687POPC   C2B35972  41.327  28.347   8.264
 2687POPC   C3B35973  41.293  28.394   7.964
 2687POPC   C4B35974  41.331  28.426   7.664
 2688POPC   NC335975  43.159  23.724   9.464
 2688POPC   PO435976  43.086  23.708   9.164
 2688POPC   GL135977  43.093  23.710   8.864
 2688POPC   GL235978  43.225  23.621   8.864
 2688POPC   C1A35979  43.083  23.761   8.564
 2688POPC   D2A35980  43.136  23.744   8.264
 2688POPC   C3A35981  43.098  23.759   7.964
 2688POPC   C4A35982  43.069  23.718   7.664
 2688POPC   C1B35983  43.311  23.553   8.564
 2688POPC   C2B35984  43.284  23.566   8.264
 2688POPC   C3B35985  43.250  23.481   7.964
 2688POPC   C4B35986  43.319  23.542   7.664
 2689POPC   NC335987  40.823   7.416   9.464
 2689POPC   PO435988  40.806   7.432   9.164
 2689POPC   GL135989  40.803   7.437   8.864
 2689POPC   GL235990  40.669   7.349   8.864
 2689POPC   C1A35991  40.769   7.431   8.564
 2689POPC   D2A35992  40.815   7.414   8.264
 2689POPC   C3A35993  40.748   7.413   7.964
 2689POPC   C4A35994  40.807   7.397   7.664
 2689POPC   C1B35995  40.640   7.211   8.564
 2689POPC   C2B35996  40.700   7.191   8.264
 2689POPC   C3B35997  40.689   7.257   7.964
 2689POPC   C4B35998  40.644   7.199   7.664
 2690POPC   NC335999  13.631   6.615   9.464
 2690POPC   PO436000  13.591   6.619   9.164
 2690POPC   GL136001  13.640   6.607   8.864
 2690POPC   GL236002  13.527   6.609   8.864
 2690POPC   C1A36003  13.626   6.644   8.564
 2690POPC   D2A36004  13.655   6.628   8.264
 2690POPC   C3A36005  13.615   6.674   7.964
 2690POPC   C4A36006  13.594   6.676   7.664
 2690POPC   C1B36007  13.382   6.645   8.564
 2690POPC   C2B36008  13.407   6.647   8.264
 2690POPC   C3B36009  13.403   6.646   7.964
 2690POPC   C4B36010  13.411   6.591   7.664
 2691POPC   NC336011   1.205  24.476   9.464
 2691POPC   PO436012   1.186  24.528   9.164
 2691POPC   GL136013   1.183  24.528   8.864
 2691POPC   GL236014   1.066  24.523   8.864
 2691POPC   C1A36015   1.251  24.479   8.564
 2691POPC   D2A36016   1.194  24.514   8.264
 2691POPC   C3A36017   1.209  24.486   7.964
 2691POPC   C4A36018   1.180  24.461   7.664
 2691POPC   C1B36019   1.012  24.579   8.564
 2691POPC   C2B36020   1.019  24.584   8.264
 2691POPC   C3B36021   1.023  24.578   7.964
 2691POPC   C4B36022   0.946  24.536   7.664
 2692POPC   NC336023   0.410   6.618   9.464
 2692POPC   PO436024   0.407   6.688   9.164
 2692POPC   GL136025   0.413   6.647   8.864
 2692POPC   GL236026   0.522   6.708   8.864
 2692POPC   C1A36027   0.482   6.677   8.564
 2692POPC   D2A36028   0.434   6.675   8.264
 2692POPC   C3A36029   0.468   6.676   7.964
 2692POPC   C4A36030   0.464   6.634   7.664
 2692POPC   C1B36031   0.601   6.756   8.564
 2692POPC   C2B36032   0.648   6.783   8.264
 2692POPC   C3B36033   0.642   6.759   7.964
 2692POPC   C4B36034   0.663   6.779   7.664
 2693POPC   NC336035  22.134  19.872   9.464
 2693POPC   PO436036  22.135  19.874   9.164
 2693POPC   GL136037  22.189  19.877   8.864
 2693POPC   GL236038  22.229  19.921   8.864
 2693POPC   C1A36039  22.182  19.800   8.564
 2693POPC   D2A36040  22.188  19.854   8.264
 2693POPC   C3A36041  22.184  19.804   7.964
 2693POPC   C4A36042  22.115  19.873   7.664
 2693POPC   C1B36043  22.236  20.048   8.564
 2693POPC   C2B36044  22.222  20.104   8.264
 2693POPC   C3B36045  22.238  20.085   7.964
 2693POPC   C4B36046  22.176  20.100   7.664
 2694POPC   NC336047  28.368  24.512   9.464
 2694POPC   PO436048  28.327  24.455   9.164
 2694POPC   GL136049  28.321  24.490   8.864
 2694POPC   GL236050  28.494  24.450   8.864
 2694POPC   C1A36051  28.340  24.469   8.564
 2694POPC   D2A36052  28.379  24.514   8.264
 2694POPC   C3A36053  28.389  24.456   7.964
 2694POPC   C4A36054  28.395  24.471   7.664
 2694POPC   C1B36055  28.618  24.510   8.564
 2694POPC   C2B36056  28.628  24.481   8.264
 2694POPC   C3B36057  28.613  24.450   7.964
 2694POPC   C4B36058  28.667  24.430   7.664
 2695POPC   NC336059  39.264  19.838   9.464
 2695POPC   PO436060  39.235  19.868   9.164
 2695POPC   GL136061  39.197  19.823   8.864
 2695POPC   GL236062  39.351  19.915   8.864
 2695POPC   C1A36063  39.243  19.801   8.564
 2695POPC   D2A36064  39.215  19.806   8.264
 2695POPC   C3A36065  39.214  19.797   7.964
 2695POPC   C4A36066  39.210  19.804   7.664
 2695POPC   C1B36067  39.505  19.931   8.564
 2695POPC   C2B36068  39.450  19.930   8.264
 2695POPC   C3B36069  39.438  19.893   7.964
 2695POPC   C4B36070  39.453  19.942   7.664
 2696POPC   NC336071  29.878  32.976   9.464
 2696POPC   PO436072  29.917  32.986   9.164
 2696POPC   GL136073  29.893  33.063   8.864
 2696POPC   GL236074  30.021  33.029   8.864
 2696POPC   C1A36075  29.902  33.063   8.564
 2696POPC   D2A36076  29.963  32.992   8.264
 2696POPC   C3A36077  29.901  33.050   7.964
 2696POPC   C4A36078  29.908  33.036   7.664
 2696POPC   C1B36079  30.156  33.000   8.564
 2696POPC   C2B36080  30.212  32.988   8.264
 2696POPC   C3B36081  30.124  32.991   7.964
 2696POPC   C4B36082  30.194  33.001   7.664
 2697POPC   NC336083  30.650   1.234   9.464
 2697POPC   PO436084  30.735   1.202   9.164
 2697POPC   GL136085  30.704   1.235   8.864
 2697POPC   GL236086  30.687   1.135   8.864
 2697POPC   C1A36087  30.658   1.233   8.564
 2697POPC   D2A36088  30.745   1.210   8.264
 2697POPC   C3A36089  30.697   1.245   7.964
 2697POPC   C4A36090  30.677   1.201   7.664
 2697POPC   C1B36091  30.587   1.007   8.564
 2697POPC   C2B36092  30.569   0.972   8.264
 2697POPC   C3B36093  30.636   0.970   7.964
 2697POPC   C4B36094  30.650   0.983   7.664
 2698POPC   NC336095  11.340  29.107   9.464
 2698POPC   PO436096  11.330  29.130   9.164
 2698POPC   GL136097  11.284  29.125   8.864
 2698POPC   GL236098  11.236  29.074   8.864
 2698POPC   C1A36099  11.314  29.186   8.564
 2698POPC   D2A36100  11.314  29.160   8.264
 2698POPC   C3A36101  11.326  29.107   7.964
 2698POPC   C4A36102  11.294  29.157   7.664
 2698POPC   C1B36103  11.094  29.004   8.564
 2698POPC   C2B36104  11.084  28.960   8.264
 2698POPC   C3B36105  11.142  29.032   7.964
 2698POPC   C4B36106  11.096  29.009   7.664
 2699POPC   NC336107  28.417   8.998   9.464
 2699POPC   PO436108  28.407   8.947   9.164
 2699POPC   GL136109  28.389   8.943   8.864
 2699POPC   GL236110  28.407   9.147   8.864
 2699POPC   C1A36111  28.363   8.954   8.564
 2699POPC   D2A36112  28.328   8.963   8.264
 2699POPC   C3A36113  28.331   9.005   7.964
 2699POPC   C4A36114  28.389   8.977   7.664
 2699POPC   C1B36115  28.349   9.179   8.564
 2699POPC   C2B36116  28.380   9.271   8.264
 2699POPC   C3B36117  28.318   9.267   7.964
 2699POPC   C4B36118  28.312   9.183   7.664
 2700POPC   NC336119  40.804  11.302   9.464
 2700POPC   PO436120  40.753  11.322   9.164
 2700POPC   GL136121  40.784  11.324   8.864
 2700POPC   GL236122  40.812  11.388   8.864
 2700POPC   C1A36123  40.808  11.262   8.564
 2700POPC   D2A36124  40.777  11.285   8.264
 2700POPC   C3A36125  40.785  11.280   7.964
 2700POPC   C4A36126  40.778  11.262   7.664
 2700POPC   C1B36127  40.807  11.562   8.564
 2700POPC   C2B36128  40.881  11.574   8.264
 2700POPC   C3B36129  40.859  11.510   7.964
 2700POPC   C4B36130  40.800  11.580   7.664
 2701POPC   NC336131  27.616   9.716   9.464
 2701POPC   PO436132  27.568   9.773   9.164
 2701POPC   GL136133  27.551   9.711   8.864
 2701POPC   GL236134  27.510   9.894   8.864
 2701POPC   C1A36135  27.557   9.791   8.564
 2701POPC   D2A36136  27.555   9.780   8.264
 2701POPC   C3A36137  27.548   9.787   7.964
 2701POPC   C4A36138  27.568   9.767   7.664
 2701POPC   C1B36139  27.505   9.969   8.564
 2701POPC   C2B36140  27.536  10.013   8.264
 2701POPC   C3B36141  27.473   9.940   7.964
 2701POPC   C4B36142  27.541   9.974   7.664
 2702POPC   NC336143   8.242   2.004   9.464
 2702POPC   PO436144   8.211   1.992   9.164
 2702POPC   GL136145   8.202   2.008   8.864
 2702POPC   GL236146   8.244   1.868   8.864
 2702POPC   C1A36147   8.150   1.972   8.564
 2702POPC   D2A36148   8.193   1.955   8.264
 2702POPC   C3A36149   8.217   2.018   7.964
 2702POPC   C4A36150   8.155   2.000   7.664
 2702POPC   C1B36151   8.210   1.742   8.564
 2702POPC   C2B36152   8.213   1.702   8.264
 2702POPC   C3B36153   8.282   1.763   7.964
 2702POPC   C4B36154   8.207   1.732   7.664
 2703POPC   NC336155  39.274  26.853   9.464
 2703POPC   PO436156  39.185  26.773   9.164
 2703POPC   GL136157  39.240  26.792   8.864
 2703POPC   GL236158  39.208  26.945   8.864
 2703POPC   C1A36159  39.280  26.789   8.564
 2703POPC   D2A36160  39.270  26.866   8.264
 2703POPC   C3A36161  39.209  26.786   7.964
 2703POPC   C4A36162  39.236  26.828   7.664
 2703POPC   C1B36163  39.289  27.098   8.564
 2703POPC   C2B36164  39.261  27.111   8.264
 2703POPC   C3B36165  39.284  27.111   7.964
 2703POPC   C4B36166  39.307  27.016   7.664
 2704POPC   NC336167  41.510  20.582   9.464
 2704POPC   PO436168  41.547  20.630   9.164
 2704POPC   GL136169  41.549  20.631   8.864
 2704POPC   GL236170  41.709  20.630   8.864
 2704POPC   C1A36171  41.573  20.596   8.564
 2704POPC   D2A36172  41.559  20.643   8.264
 2704POPC   C3A36173  41.559  20.563   7.964
 2704POPC   C4A36174  41.593  20.647   7.664
 2704POPC   C1B36175  41.803  20.671   8.564
 2704POPC   C2B36176  41.782  20.653   8.264
 2704POPC   C3B36177  41.790  20.674   7.964
 2704POPC   C4B36178  41.774  20.726   7.664
 2705POPC   NC336179  15.943  40.738   9.464
 2705POPC   PO436180  15.974  40.819   9.164
 2705POPC   GL136181  15.906  40.790   8.864
 2705POPC   GL236182  15.935  40.901   8.864
 2705POPC   C1A36183  15.967  40.766   8.564
 2705POPC   D2A36184  15.954  40.777   8.264
 2705POPC   C3A36185  15.937  40.776   7.964
 2705POPC   C4A36186  15.938  40.790   7.664
 2705POPC   C1B36187  15.861  41.023   8.564
 2705POPC   C2B36188  15.862  41.062   8.264
 2705POPC   C3B36189  15.933  41.049   7.964
 2705POPC   C4B36190  15.909  40.980   7.664
 2706POPC   NC336191   5.086   5.864   9.464
 2706POPC   PO436192   5.070   5.873   9.164
 2706POPC   GL136193   5.049   5.903   8.864
 2706POPC   GL236194   5.207   5.788   8.864
 2706POPC   C1A36195   5.123   5.898   8.564
 2706POPC   D2A36196   5.068   5.891   8.264
 2706POPC   C3A36197   5.111   5.895   7.964
 2706POPC   C4A36198   5.090   5.888   7.664
 2706POPC   C1B36199   5.269   5.710   8.564
 2706POPC   C2B36200   5.294   5.727   8.264
 2706POPC   C3B36201   5.303   5.665   7.964
 2706POPC   C4B36202   5.261   5.659   7.664
 2707POPC   NC336203  19.793   8.965   9.464
 2707POPC   PO436204  19.858   9.021   9.164
 2707POPC   GL136205  19.814   8.924   8.864
 2707POPC   GL236206  19.917   9.088   8.864
 2707POPC   C1A36207  19.829   9.014   8.564
 2707POPC   D2A36208  19.867   8.955   8.264
 2707POPC   C3A36209  19.846   8.964   7.964
 2707POPC   C4A36210  19.879   8.952   7.664
 2707POPC   C1B36211  20.010   9.081   8.564
 2707POPC   C2B36212  20.069   9.090   8.264
 2707POPC   C3B36213  20.004   9.080   7.964
 2707POPC   C4B36214  20.021   9.104   7.664
 2708POPC   NC336215  17.549  35.325   9.464
 2708POPC   PO436216  17.460  35.322   9.164
 2708POPC   GL136217  17.492  35.388   8.864
 2708POPC   GL236218  17.407  35.280   8.864
 2708POPC   C1A36219  17.512  35.362   8.564
 2708POPC   D2A36220  17.553  35.322   8.264
 2708POPC   C3A36221  17.539  35.368   7.964
 2708POPC   C4A36222  17.510  35.310   7.664
 2708POPC   C1B36223  17.321  35.109   8.564
 2708POPC   C2B36224  17.389  35.153   8.264
 2708POPC   C3B36225  17.344  35.172   7.964
 2708POPC   C4B36226  17.374  35.192   7.664
 2709POPC   NC336227  35.397  42.332   9.464
 2709POPC   PO436228  35.341  42.353   9.164
 2709POPC   GL136229  35.330  42.305   8.864
 2709POPC   GL236230  35.379  42.255   8.864
 2709POPC   C1A36231  35.401  42.286   8.564
 2709POPC   D2A36232  35.357  42.306   8.264
 2709POPC   C3A36233  35.325  42.288   7.964
 2709POPC   C4A36234  35.353  42.332   7.664
 2709POPC   C1B36235  35.349  42.041   8.564
 2709POPC   C2B36236  35.413  42.129   8.264
 2709POPC   C3B36237  35.393  42.048   7.964
 2709POPC   C4B36238  35.365  42.058   7.664
 2710POPC   NC336239  29.146  31.432   9.464
 2710POPC   PO436240  29.137  31.462   9.164
 2710POPC   GL136241  29.173  31.438   8.864
 2710POPC   GL236242  29.189  31.358   8.864
 2710POPC   C1A36243  29.155  31.514   8.564
 2710POPC   D2A36244  29.173  31.448   8.264
 2710POPC   C3A36245  29.143  31.484   7.964
 2710POPC   C4A36246  29.120  31.500   7.664
 2710POPC   C1B36247  29.351  31.276   8.564
 2710POPC   C2B36248  29.288  31.258   8.264
 2710POPC   C3B36249  29.346  31.298   7.964
 2710POPC   C4B36250  29.349  31.259   7.664
 2711POPC   NC336251  29.923  37.657   9.464
 2711POPC   PO436252  29.901  37.644   9.164
 2711POPC   GL136253  29.905  37.645   8.864
 2711POPC   GL236254  29.987  37.739   8.864
 2711POPC   C1A36255  29.967  37.662   8.564
 2711POPC   D2A36256  29.949  37.631   8.264
 2711POPC   C3A36257  29.908  37.652   7.964
 2711POPC   C4A36258  29.890  37.689   7.664
 2711POPC   C1B36259  30.040  37.921   8.564
 2711POPC   C2B36260  30.091  37.935   8.264
 2711POPC   C3B36261  30.027  37.936   7.964
 2711POPC   C4B36262  30.104  37.858   7.664
 2712POPC   NC336263  33.850  11.329   9.464
 2712POPC   PO436264  33.842  11.276   9.164
 2712POPC   GL136265  33.802  11.281   8.864
 2712POPC   GL236266  33.883  11.393   8.864
 2712POPC   C1A36267  33.824  11.280   8.564
 2712POPC   D2A36268  33.845  11.335   8.264
 2712POPC   C3A36269  33.783  11.296   7.964
 2712POPC   C4A36270  33.818  11.331   7.664
 2712POPC   C1B36271  34.011  11.430   8.564
 2712POPC   C2B36272  34.011  11.426   8.264
 2712POPC   C3B36273  34.004  11.483   7.964
 2712POPC   C4B36274  33.966  11.414   7.664
 2713POPC   NC336275   8.213   9.740   9.464
 2713POPC   PO436276   8.224   9.735   9.164
 2713POPC   GL136277   8.169   9.755   8.864
 2713POPC   GL236278   8.302   9.822   8.864
 2713POPC   C1A36279   8.162   9.722   8.564
 2713POPC   D2A36280   8.196   9.781   8.264
 2713POPC   C3A36281   8.168   9.714   7.964
 2713POPC   C4A36282   8.148   9.786   7.664
 2713POPC   C1B36283   8.287   9.946   8.564
 2713POPC   C2B36284   8.315   9.993   8.264
 2713POPC   C3B36285   8.286   9.924   7.964
 2713POPC   C4B36286   8.373   9.980   7.664
 2714POPC   NC336287  20.604  44.689   9.464
 2714POPC   PO436288  20.579  44.658   9.164
 2714POPC   GL136289  20.617  44.692   8.864
 2714POPC   GL236290  20.690  44.751   8.864
 2714POPC   C1A36291  20.641  44.635   8.564
 2714POPC   D2A36292  20.649  44.618   8.264
 2714POPC   C3A36293  20.581  44.643   7.964
 2714POPC   C4A36294  20.654  44.674   7.664
 2714POPC   C1B36295  20.751  44.887   8.564
 2714POPC   C2B36296  20.783  44.828   8.264
 2714POPC   C3B36297  20.723  44.916   7.964
 2714POPC   C4B36298  20.720  44.838   7.664
 2715POPC   NC336299   3.564  31.502   9.464
 2715POPC   PO436300   3.586  31.490   9.164
 2715POPC   GL136301   3.526  31.429   8.864
 2715POPC   GL236302   3.636  31.432   8.864
 2715POPC   C1A36303   3.517  31.457   8.564
 2715POPC   D2A36304   3.574  31.497   8.264
 2715POPC   C3A36305   3.546  31.479   7.964
 2715POPC   C4A36306   3.553  31.436   7.664
 2715POPC   C1B36307   3.820  31.455   8.564
 2715POPC   C2B36308   3.740  31.465   8.264
 2715POPC   C3B36309   3.740  31.481   7.964
 2715POPC   C4B36310   3.817  31.398   7.664
 2716POPC   NC336311  30.671  16.702   9.464
 2716POPC   PO436312  30.665  16.768   9.164
 2716POPC   GL136313  30.732  16.753   8.864
 2716POPC   GL236314  30.830  16.823   8.864
 2716POPC   C1A36315  30.670  16.692   8.564
 2716POPC   D2A36316  30.739  16.736   8.264
 2716POPC   C3A36317  30.661  16.700   7.964
 2716POPC   C4A36318  30.658  16.715   7.664
 2716POPC   C1B36319  30.921  16.924   8.564
 2716POPC   C2B36320  30.921  16.865   8.264
 2716POPC   C3B36321  30.901  16.915   7.964
 2716POPC   C4B36322  30.926  16.875   7.664
 2717POPC   NC336323  15.137  16.753   9.464
 2717POPC   PO436324  15.194  16.683   9.164
 2717POPC   GL136325  15.220  16.715   8.864
 2717POPC   GL236326  15.337  16.747   8.864
 2717POPC   C1A36327  15.133  16.768   8.564
 2717POPC   D2A36328  15.145  16.729   8.264
 2717POPC   C3A36329  15.213  16.713   7.964
 2717POPC   C4A36330  15.168  16.689   7.664
 2717POPC   C1B36331  15.389  16.687   8.564
 2717POPC   C2B36332  15.432  16.658   8.264
 2717POPC   C3B36333  15.425  16.654   7.964
 2717POPC   C4B36334  15.430  16.688   7.664
 2718POPC   NC336335  24.495  36.085   9.464
 2718POPC   PO436336  24.455  36.100   9.164
 2718POPC   GL136337  24.492  36.093   8.864
 2718POPC   GL236338  24.358  36.149   8.864
 2718POPC   C1A36339  24.492  36.159   8.564
 2718POPC   D2A36340  24.463  36.089   8.264
 2718POPC   C3A36341  24.506  36.151   7.964
 2718POPC   C4A36342  24.518  36.144   7.664
 2718POPC   C1B36343  24.245  36.246   8.564
 2718POPC   C2B36344  24.296  36.250   8.264
 2718POPC   C3B36345  24.268  36.216   7.964
 2718POPC   C4B36346  24.250  36.188   7.664
 2719POPC   NC336347  44.672   2.731   9.464
 2719POPC   PO436348  44.705   2.773   9.164
 2719POPC   GL136349  44.698   2.771   8.864
 2719POPC   GL236350  44.764   2.698   8.864
 2719POPC   C1A36351  44.641   2.736   8.564
 2719POPC   D2A36352  44.615   2.733   8.264
 2719POPC   C3A36353  44.657   2.737   7.964
 2719POPC   C4A36354  44.640   2.774   7.664
 2719POPC   C1B36355  44.850   2.586   8.564
 2719POPC   C2B36356  44.840   2.570   8.264
 2719POPC   C3B36357  44.789   2.604   7.964
 2719POPC   C4B36358  44.823   2.574   7.664
 2720POPC   NC336359  13.601  40.029   9.464
 2720POPC   PO436360  13.666  40.034   9.164
 2720POPC   GL136361  13.586  39.988   8.864
 2720POPC   GL236362  13.554  40.139   8.864
 2720POPC   C1A36363  13.671  40.028   8.564
 2720POPC   D2A36364  13.592  40.027   8.264
 2720POPC   C3A36365  13.605  40.023   7.964
 2720POPC   C4A36366  13.615  39.959   7.664
 2720POPC   C1B36367  13.546  40.235   8.564
 2720POPC   C2B36368  13.538  40.255   8.264
 2720POPC   C3B36369  13.527  40.234   7.964
 2720POPC   C4B36370  13.557  40.222   7.664
 2721POPC   NC336371  15.959  33.020   9.464
 2721POPC   PO436372  15.909  33.010   9.164
 2721POPC   GL136373  15.948  33.072   8.864
 2721POPC   GL236374  15.844  33.130   8.864
 2721POPC   C1A36375  15.953  33.052   8.564
 2721POPC   D2A36376  15.951  33.062   8.264
 2721POPC   C3A36377  15.998  33.016   7.964
 2721POPC   C4A36378  15.921  33.052   7.664
 2721POPC   C1B36379  15.765  33.146   8.564
 2721POPC   C2B36380  15.744  33.171   8.264
 2721POPC   C3B36381  15.747  33.179   7.964
 2721POPC   C4B36382  15.811  33.182   7.664
 2722POPC   NC336383  35.327  15.986   9.464
 2722POPC   PO436384  35.383  15.940   9.164
 2722POPC   GL136385  35.365  15.959   8.864
 2722POPC   GL236386  35.473  15.935   8.864
 2722POPC   C1A36387  35.344  15.945   8.564
 2722POPC   D2A36388  35.397  15.933   8.264
 2722POPC   C3A36389  35.370  15.905   7.964
 2722POPC   C4A36390  35.367  15.913   7.664
 2722POPC   C1B36391  35.568  15.857   8.564
 2722POPC   C2B36392  35.627  15.907   8.264
 2722POPC   C3B36393  35.547  15.934   7.964
 2722POPC   C4B36394  35.641  15.841   7.664
 2723POPC   NC336395  27.597  33.795   9.464
 2723POPC   PO436396  27.633  33.801   9.164
 2723POPC   GL136397  27.571  33.836   8.864
 2723POPC   GL236398  27.688  33.938   8.864
 2723POPC   C1A36399  27.618  33.806   8.564
 2723POPC   D2A36400  27.593  33.828   8.264
 2723POPC   C3A36401  27.545  33.815   7.964
 2723POPC   C4A36402  27.581  33.751   7.664
 2723POPC   C1B36403  27.728  34.008   8.564
 2723POPC   C2B36404  27.786  33.939   8.264
 2723POPC   C3B36405  27.751  33.965   7.964
 2723POPC   C4B36406  27.814  34.020   7.664
 2724POPC   NC336407   7.408  20.614   9.464
 2724POPC   PO436408   7.422  20.613   9.164
 2724POPC   GL136409   7.422  20.605   8.864
 2724POPC   GL236410   7.388  20.720   8.864
 2724POPC   C1A36411   7.386  20.590   8.564
 2724POPC   D2A36412   7.454  20.587   8.264
 2724POPC   C3A36413   7.379  20.566   7.964
 2724POPC   C4A36414   7.439  20.632   7.664
 2724POPC   C1B36415   7.393  20.855   8.564
 2724POPC   C2B36416   7.452  20.810   8.264
 2724POPC   C3B36417   7.420  20.814   7.964
 2724POPC   C4B36418   7.445  20.832   7.664
 2725POPC   NC336419  33.770  24.453   9.464
 2725POPC   PO436420  33.791  24.484   9.164
 2725POPC   GL136421  33.756  24.459   8.864
 2725POPC   GL236422  33.720  24.598   8.864
 2725POPC   C1A36423  33.831  24.488   8.564
 2725POPC   D2A36424  33.838  24.515   8.264
 2725POPC   C3A36425  33.838  24.475   7.964
 2725POPC   C4A36426  33.841  24.504   7.664
 2725POPC   C1B36427  33.628  24.698   8.564
 2725POPC   C2B36428  33.647  24.688   8.264
 2725POPC   C3B36429  33.672  24.652   7.964
 2725POPC   C4B36430  33.630  24.676   7.664
 2726POPC   NC336431  32.271  37.687   9.464
 2726POPC   PO436432  32.287  37.666   9.164
 2726POPC   GL136433  32.264  37.696   8.864
 2726POPC   GL236434  32.177  37.744   8.864
 2726POPC   C1A36435  32.207  37.638   8.564
 2726POPC   D2A36436  32.270  37.714   8.264
 2726POPC   C3A36437  32.230  37.668   7.964
 2726POPC   C4A36438  32.263  37.712   7.664
 2726POPC   C1B36439  32.083  37.887   8.564
 2726POPC   C2B36440  32.073  37.865   8.264
 2726POPC   C3B36441  32.059  37.910   7.964
 2726POPC   C4B36442  32.152  37.913   7.664
 2727POPC   NC336443  44.628  32.257   9.464
 2727POPC   PO436444  44.690  32.267   9.164
 2727POPC   GL136445  44.683  32.209   8.864
 2727POPC   GL236446  44.669  32.340   8.864
 2727POPC   C1A36447  44.698  32.291   8.564
 2727POPC   D2A36448  44.711  32.243   8.264
 2727POPC   C3A36449  44.689  32.285   7.964
 2727POPC   C4A36450  44.704  32.265   7.664
 2727POPC   C1B36451  44.672  32.453   8.564
 2727POPC   C2B36452  44.676  32.471   8.264
 2727POPC   C3B36453  44.751  32.542   7.964
 2727POPC   C4B36454  44.672  32.456   7.664
 2728POPC   NC336455  39.276  23.710   9.464
 2728POPC   PO436456  39.260  23.688   9.164
 2728POPC   GL136457  39.191  23.713   8.864
 2728POPC   GL236458  39.309  23.697   8.864
 2728POPC   C1A36459  39.256  23.702   8.564
 2728POPC   D2A36460  39.202  23.742   8.264
 2728POPC   C3A36461  39.244  23.738   7.964
 2728POPC   C4A36462  39.238  23.696   7.664
 2728POPC   C1B36463  39.525  23.752   8.564
 2728POPC   C2B36464  39.442  23.676   8.264
 2728POPC   C3B36465  39.504  23.773   7.964
 2728POPC   C4B36466  39.447  23.709   7.664
 2729POPC   NC336467  28.411  33.053   9.464
 2729POPC   PO436468  28.405  33.012   9.164
 2729POPC   GL136469  28.336  33.011   8.864
 2729POPC   GL236470  28.281  33.055   8.864
 2729POPC   C1A36471  28.398  33.035   8.564
 2729POPC   D2A36472  28.340  33.009   8.264
 2729POPC   C3A36473  28.319  33.000   7.964
 2729POPC   C4A36474  28.399  32.985   7.664
 2729POPC   C1B36475  28.075  33.004   8.564
 2729POPC   C2B36476  28.109  33.091   8.264
 2729POPC   C3B36477  28.082  33.028   7.964
 2729POPC   C4B36478  28.163  33.021   7.664
 2730POPC   NC336479  43.918  23.695   9.464
 2730POPC   PO436480  43.928  23.710   9.164
 2730POPC   GL136481  43.903  23.700   8.864
 2730POPC   GL236482  43.790  23.777   8.864
 2730POPC   C1A36483  43.843  23.728   8.564
 2730POPC   D2A36484  43.875  23.763   8.264
 2730POPC   C3A36485  43.838  23.752   7.964
 2730POPC   C4A36486  43.927  23.752   7.664
 2730POPC   C1B36487  43.771  23.958   8.564
 2730POPC   C2B36488  43.721  23.949   8.264
 2730POPC   C3B36489  43.789  23.952   7.964
 2730POPC   C4B36490  43.727  23.984   7.664
 2731POPC   NC336491  43.149  25.232   9.464
 2731POPC   PO436492  43.153  25.284   9.164
 2731POPC   GL136493  43.088  25.282   8.864
 2731POPC   GL236494  43.074  25.344   8.864
 2731POPC   C1A36495  43.084  25.243   8.564
 2731POPC   D2A36496  43.070  25.291   8.264
 2731POPC   C3A36497  43.068  25.252   7.964
 2731POPC   C4A36498  43.151  25.244   7.664
 2731POPC   C1B36499  43.151  25.524   8.564
 2731POPC   C2B36500  43.117  25.548   8.264
 2731POPC   C3B36501  43.136  25.496   7.964
 2731POPC   C4B36502  43.138  25.490   7.664
 2732POPC   NC336503  41.559  19.059   9.464
 2732POPC   PO436504  41.523  19.032   9.164
 2732POPC   GL136505  41.545  19.028   8.864
 2732POPC   GL236506  41.466  19.122   8.864
 2732POPC   C1A36507  41.537  19.095   8.564
 2732POPC   D2A36508  41.574  19.060   8.264
 2732POPC   C3A36509  41.565  19.100   7.964
 2732POPC   C4A36510  41.554  19.079   7.664
 2732POPC   C1B36511  41.445  19.231   8.564
 2732POPC   C2B36512  41.394  19.298   8.264
 2732POPC   C3B36513  41.483  19.257   7.964
 2732POPC   C4B36514  41.409  19.304   7.664
 2733POPC   NC336515   0.457  18.289   9.464
 2733POPC   PO436516   0.451  18.251   9.164
 2733POPC   GL136517   0.449  18.308   8.864
 2733POPC   GL236518   0.453  18.138   8.864
 2733POPC   C1A36519   0.477  18.253   8.564
 2733POPC   D2A36520   0.444  18.280   8.264
 2733POPC   C3A36521   0.403  18.330   7.964
 2733POPC   C4A36522   0.458  18.309   7.664
 2733POPC   C1B36523   0.405  17.996   8.564
 2733POPC   C2B36524   0.460  18.019   8.264
 2733POPC   C3B36525   0.455  18.012   7.964
 2733POPC   C4B36526   0.417  18.047   7.664
 2734POPC   NC336527  14.414  29.137   9.464
 2734POPC   PO436528  14.451  29.138   9.164
 2734POPC   GL136529  14.398  29.185   8.864
 2734POPC   GL236530  14.509  29.056   8.864
 2734POPC   C1A36531  14.355  29.102   8.564
 2734POPC   D2A36532  14.388  29.173   8.264
 2734POPC   C3A36533  14.444  29.167   7.964
 2734POPC   C4A36534  14.378  29.132   7.664
 2734POPC   C1B36535  14.595  29.024   8.564
 2734POPC   C2B36536  14.589  29.035   8.264
 2734POPC   C3B36537  14.592  29.006   7.964
 2734POPC   C4B36538  14.573  29.026   7.664
 2735POPC   NC336539  18.248  43.883   9.464
 2735POPC   PO436540  18.282  43.919   9.164
 2735POPC   GL136541  18.300  43.836   8.864
 2735POPC   GL236542  18.178  43.882   8.864
 2735POPC   C1A36543  18.322  43.838   8.564
 2735POPC   D2A36544  18.267  43.890   8.264
 2735POPC   C3A36545  18.234  43.865   7.964
 2735POPC   C4A36546  18.323  43.911   7.664
 2735POPC   C1B36547  17.999  43.933   8.564
 2735POPC   C2B36548  18.028  43.917   8.264
 2735POPC   C3B36549  18.007  43.879   7.964
 2735POPC   C4B36550  18.028  43.933   7.664
 2736POPC   NC336551  12.896  11.329   9.464
 2736POPC   PO436552  12.812  11.307   9.164
 2736POPC   GL136553  12.829  11.293   8.864
 2736POPC   GL236554  12.829  11.173   8.864
 2736POPC   C1A36555  12.880  11.264   8.564
 2736POPC   D2A36556  12.881  11.268   8.264
 2736POPC   C3A36557  12.881  11.338   7.964
 2736POPC   C4A36558  12.881  11.290   7.664
 2736POPC   C1B36559  12.787  11.051   8.564
 2736POPC   C2B36560  12.758  11.046   8.264
 2736POPC   C3B36561  12.826  11.104   7.964
 2736POPC   C4B36562  12.801  11.023   7.664
 2737POPC   NC336563  32.293  28.386   9.464
 2737POPC   PO436564  32.214  28.376   9.164
 2737POPC   GL136565  32.289  28.415   8.864
 2737POPC   GL236566  32.303  28.467   8.864
 2737POPC   C1A36567  32.215  28.407   8.564
 2737POPC   D2A36568  32.295  28.330   8.264
 2737POPC   C3A36569  32.294  28.367   7.964
 2737POPC   C4A36570  32.258  28.344   7.664
 2737POPC   C1B36571  32.336  28.574   8.564
 2737POPC   C2B36572  32.371  28.562   8.264
 2737POPC   C3B36573  32.368  28.643   7.964
 2737POPC   C4B36574  32.364  28.599   7.664
 2738POPC   NC336575  11.314   9.760   9.464
 2738POPC   PO436576  11.293   9.710   9.164
 2738POPC   GL136577  11.281   9.778   8.864
 2738POPC   GL236578  11.282   9.908   8.864
 2738POPC   C1A36579  11.273   9.787   8.564
 2738POPC   D2A36580  11.275   9.754   8.264
 2738POPC   C3A36581  11.308   9.706   7.964
 2738POPC   C4A36582  11.273   9.747   7.664
 2738POPC   C1B36583  11.251  10.009   8.564
 2738POPC   C2B36584  11.333  10.032   8.264
 2738POPC   C3B36585  11.326   9.999   7.964
 2738POPC   C4B36586  11.308   9.971   7.664
 2739POPC   NC336587  10.502   8.231   9.464
 2739POPC   PO436588  10.519   8.228   9.164
 2739POPC   GL136589  10.542   8.200   8.864
 2739POPC   GL236590  10.446   8.150   8.864
 2739POPC   C1A36591  10.488   8.188   8.564
 2739POPC   D2A36592  10.539   8.234   8.264
 2739POPC   C3A36593  10.540   8.203   7.964
 2739POPC   C4A36594  10.511   8.154   7.664
 2739POPC   C1B36595  10.318   8.082   8.564
 2739POPC   C2B36596  10.343   8.074   8.264
 2739POPC   C3B36597  10.379   8.014   7.964
 2739POPC   C4B36598  10.288   8.081   7.664
 2740POPC   NC336599   8.969  23.669   9.464
 2740POPC   PO436600   8.989  23.744   9.164
 2740POPC   GL136601   9.021  23.741   8.864
 2740POPC   GL236602   8.949  23.639   8.864
 2740POPC   C1A36603   8.950  23.720   8.564
 2740POPC   D2A36604   8.996  23.721   8.264
 2740POPC   C3A36605   8.984  23.739   7.964
 2740POPC   C4A36606   8.934  23.699   7.664
 2740POPC   C1B36607   8.934  23.457   8.564
 2740POPC   C2B36608   8.985  23.514   8.264
 2740POPC   C3B36609   8.960  23.438   7.964
 2740POPC   C4B36610   9.027  23.510   7.664
 2741POPC   NC336611   5.845  37.708   9.464
 2741POPC   PO436612   5.914  37.668   9.164
 2741POPC   GL136613   5.879  37.704   8.864
 2741POPC   GL236614   6.030  37.754   8.864
 2741POPC   C1A36615   5.859  37.659   8.564
 2741POPC   D2A36616   5.862  37.708   8.264
 2741POPC   C3A36617   5.838  37.707   7.964
 2741POPC   C4A36618   5.861  37.691   7.664
 2741POPC   C1B36619   6.050  37.836   8.564
 2741POPC   C2B36620   6.059  37.791   8.264
 2741POPC   C3B36621   6.113  37.803   7.964
 2741POPC   C4B36622   6.057  37.833   7.664
 2742POPC   NC336623   6.618   5.068   9.464
 2742POPC   PO436624   6.681   5.054   9.164
 2742POPC   GL136625   6.615   5.050   8.864
 2742POPC   GL236626   6.563   4.960   8.864
 2742POPC   C1A36627   6.645   5.099   8.564
 2742POPC   D2A36628   6.610   5.074   8.264
 2742POPC   C3A36629   6.650   5.054   7.964
 2742POPC   C4A36630   6.677   5.128   7.664
 2742POPC   C1B36631   6.475   4.855   8.564
 2742POPC   C2B36632   6.474   4.867   8.264
 2742POPC   C3B36633   6.536   4.862   7.964
 2742POPC   C4B36634   6.525   4.902   7.664
 2743POPC   NC336635   5.089  26.091   9.464
 2743POPC   PO436636   5.067  26.079   9.164
 2743POPC   GL136637   5.122  26.066   8.864
 2743POPC   GL236638   5.127  26.182   8.864
 2743POPC   C1A36639   5.130  26.058   8.564
 2743POPC   D2A36640   5.114  26.061   8.264
 2743POPC   C3A36641   5.106  26.042   7.964
 2743POPC   C4A36642   5.120  26.078   7.664
 2743POPC   C1B36643   5.202  26.224   8.564
 2743POPC   C2B36644   5.234  26.274   8.264
 2743POPC   C3B36645   5.203  26.247   7.964
 2743POPC   C4B36646   5.222  26.252   7.664
 2744POPC   NC336647  44.635  37.715   9.464
 2744POPC   PO436648  44.636  37.665   9.164
 2744POPC   GL136649  44.684  37.645   8.864
 2744POPC   GL236650  44.568  37.804   8.864
 2744POPC   C1A36651  44.615  37.652   8.564
 2744POPC   D2A36652  44.690  37.692   8.264
 2744POPC   C3A36653  44.700  37.657   7.964
 2744POPC   C4A36654  44.708  37.725   7.664
 2744POPC   C1B36655  44.501  37.855   8.564
 2744POPC   C2B36656  44.520  37.847   8.264
 2744POPC   C3B36657  44.521  37.900   7.964
 2744POPC   C4B36658  44.494  37.889   7.664
 2745POPC   NC336659  26.833  17.518   9.464
 2745POPC   PO436660  26.845  17.542   9.164
 2745POPC   GL136661  26.780  17.533   8.864
 2745POPC   GL236662  26.720  17.477   8.864
 2745POPC   C1A36663  26.796  17.552   8.564
 2745POPC   D2A36664  26.768  17.504   8.264
 2745POPC   C3A36665  26.788  17.509   7.964
 2745POPC   C4A36666  26.807  17.507   7.664
 2745POPC   C1B36667  26.552  17.492   8.564
 2745POPC   C2B36668  26.618  17.492   8.264
 2745POPC   C3B36669  26.528  17.438   7.964
 2745POPC   C4B36670  26.596  17.446   7.664
 2746POPC   NC336671  22.940  18.251   9.464
 2746POPC   PO436672  22.955  18.291   9.164
 2746POPC   GL136673  22.974  18.322   8.864
 2746POPC   GL236674  22.980  18.416   8.864
 2746POPC   C1A36675  22.954  18.242   8.564
 2746POPC   D2A36676  22.953  18.279   8.264
 2746POPC   C3A36677  22.914  18.313   7.964
 2746POPC   C4A36678  22.903  18.239   7.664
 2746POPC   C1B36679  23.076  18.534   8.564
 2746POPC   C2B36680  23.009  18.552   8.264
 2746POPC   C3B36681  23.047  18.558   7.964
 2746POPC   C4B36682  23.011  18.545   7.664
 2747POPC   NC336683  41.581  35.368   9.464
 2747POPC   PO436684  41.546  35.311   9.164
 2747POPC   GL136685  41.590  35.377   8.864
 2747POPC   GL236686  41.547  35.491   8.864
 2747POPC   C1A36687  41.599  35.307   8.564
 2747POPC   D2A36688  41.525  35.364   8.264
 2747POPC   C3A36689  41.595  35.332   7.964
 2747POPC   C4A36690  41.532  35.302   7.664
 2747POPC   C1B36691  41.535  35.580   8.564
 2747POPC   C2B36692  41.473  35.637   8.264
 2747POPC   C3B36693  41.516  35.574   7.964
 2747POPC   C4B36694  41.555  35.554   7.664
 2748POPC   NC336695  43.845  22.911   9.464
 2748POPC   PO436696  43.889  22.936   9.164
 2748POPC   GL136697  43.866  22.948   8.864
 2748POPC   GL236698  43.772  22.996   8.864
 2748POPC   C1A36699  43.904  22.976   8.564
 2748POPC   D2A36700  43.930  22.892   8.264
 2748POPC   C3A36701  43.910  22.958   7.964
 2748POPC   C4A36702  43.840  22.953   7.664
 2748POPC   C1B36703  43.633  22.959   8.564
 2748POPC   C2B36704  43.637  22.981   8.264
 2748POPC   C3B36705  43.595  22.953   7.964
 2748POPC   C4B36706  43.654  22.958   7.664
 2749POPC   NC336707  12.106  32.198   9.464
 2749POPC   PO436708  12.077  32.250   9.164
 2749POPC   GL136709  12.028  32.241   8.864
 2749POPC   GL236710  12.072  32.322   8.864
 2749POPC   C1A36711  12.104  32.255   8.564
 2749POPC   D2A36712  12.090  32.211   8.264
 2749POPC   C3A36713  12.120  32.255   7.964
 2749POPC   C4A36714  12.034  32.237   7.664
 2749POPC   C1B36715  12.120  32.528   8.564
 2749POPC   C2B36716  12.173  32.490   8.264
 2749POPC   C3B36717  12.197  32.493   7.964
 2749POPC   C4B36718  12.162  32.482   7.664
 2750POPC   NC336719  30.715   6.629   9.464
 2750POPC   PO436720  30.683   6.693   9.164
 2750POPC   GL136721  30.687   6.637   8.864
 2750POPC   GL236722  30.837   6.681   8.864
 2750POPC   C1A36723  30.702   6.674   8.564
 2750POPC   D2A36724  30.698   6.671   8.264
 2750POPC   C3A36725  30.701   6.597   7.964
 2750POPC   C4A36726  30.670   6.660   7.664
 2750POPC   C1B36727  30.939   6.664   8.564
 2750POPC   C2B36728  30.929   6.680   8.264
 2750POPC   C3B36729  30.957   6.635   7.964
 2750POPC   C4B36730  30.982   6.663   7.664
 2751POPC   NC336731  28.343  23.756   9.464
 2751POPC   PO436732  28.371  23.711   9.164
 2751POPC   GL136733  28.342  23.705   8.864
 2751POPC   GL236734  28.466  23.695   8.864
 2751POPC   C1A36735  28.365  23.741   8.564
 2751POPC   D2A36736  28.331  23.682   8.264
 2751POPC   C3A36737  28.342  23.686   7.964
 2751POPC   C4A36738  28.413  23.714   7.664
 2751POPC   C1B36739  28.615  23.650   8.564
 2751POPC   C2B36740  28.637  23.636   8.264
 2751POPC   C3B36741  28.590  23.636   7.964
 2751POPC   C4B36742  28.618  23.604   7.664
 2752POPC   NC336743   0.389  17.505   9.464
 2752POPC   PO436744   0.447  17.523   9.164
 2752POPC   GL136745   0.446  17.520   8.864
 2752POPC   GL236746   0.352  17.402   8.864
 2752POPC   C1A36747   0.454  17.488   8.564
 2752POPC   D2A36748   0.399  17.457   8.264
 2752POPC   C3A36749   0.475  17.484   7.964
 2752POPC   C4A36750   0.431  17.533   7.664
 2752POPC   C1B36751   0.276  17.320   8.564
 2752POPC   C2B36752   0.282  17.313   8.264
 2752POPC   C3B36753   0.284  17.332   7.964
 2752POPC   C4B36754   0.327  17.344   7.664
 2753POPC   NC336755  10.485   7.371   9.464
 2753POPC   PO436756  10.574   7.399   9.164
 2753POPC   GL136757  10.525   7.434   8.864
 2753POPC   GL236758  10.351   7.386   8.864
 2753POPC   C1A36759  10.475   7.465   8.564
 2753POPC   D2A36760  10.502   7.425   8.264
 2753POPC   C3A36761  10.482   7.442   7.964
 2753POPC   C4A36762  10.556   7.451   7.664
 2753POPC   C1B36763  10.319   7.458   8.564
 2753POPC   C2B36764  10.274   7.414   8.264
 2753POPC   C3B36765  10.288   7.462   7.964
 2753POPC   C4B36766  10.241   7.434   7.664
 2754POPC   NC336767  29.158  21.389   9.464
 2754POPC   PO436768  29.162  21.400   9.164
 2754POPC   GL136769  29.098  21.425   8.864
 2754POPC   GL236770  29.056  21.348   8.864
 2754POPC   C1A36771  29.115  21.430   8.564
 2754POPC   D2A36772  29.190  21.344   8.264
 2754POPC   C3A36773  29.159  21.389   7.964
 2754POPC   C4A36774  29.155  21.401   7.664
 2754POPC   C1B36775  28.898  21.400   8.564
 2754POPC   C2B36776  28.879  21.371   8.264
 2754POPC   C3B36777  28.864  21.425   7.964
 2754POPC   C4B36778  28.865  21.406   7.664
 2755POPC   NC336779  30.711  15.224   9.464
 2755POPC   PO436780  30.716  15.160   9.164
 2755POPC   GL136781  30.737  15.213   8.864
 2755POPC   GL236782  30.776  15.286   8.864
 2755POPC   C1A36783  30.705  15.141   8.564
 2755POPC   D2A36784  30.724  15.203   8.264
 2755POPC   C3A36785  30.672  15.175   7.964
 2755POPC   C4A36786  30.651  15.197   7.664
 2755POPC   C1B36787  30.945  15.344   8.564
 2755POPC   C2B36788  30.873  15.313   8.264
 2755POPC   C3B36789  30.958  15.347   7.964
 2755POPC   C4B36790  30.866  15.322   7.664
 2756POPC   NC336791   9.791  33.064   9.464
 2756POPC   PO436792   9.722  33.049   9.164
 2756POPC   GL136793   9.787  33.037   8.864
 2756POPC   GL236794   9.608  33.103   8.864
 2756POPC   C1A36795   9.758  33.013   8.564
 2756POPC   D2A36796   9.735  33.033   8.264
 2756POPC   C3A36797   9.770  33.024   7.964
 2756POPC   C4A36798   9.781  33.059   7.664
 2756POPC   C1B36799   9.528  33.140   8.564
 2756POPC   C2B36800   9.546  33.138   8.264
 2756POPC   C3B36801   9.470  33.122   7.964
 2756POPC   C4B36802   9.544  33.096   7.664
 2757POPC   NC336803  17.497   8.973   9.464
 2757POPC   PO436804  17.495   8.949   9.164
 2757POPC   GL136805  17.532   8.943   8.864
 2757POPC   GL236806  17.615   8.921   8.864
 2757POPC   C1A36807  17.549   9.018   8.564
 2757POPC   D2A36808  17.515   8.988   8.264
 2757POPC   C3A36809  17.522   9.009   7.964
 2757POPC   C4A36810  17.513   8.988   7.664
 2757POPC   C1B36811  17.713   8.878   8.564
 2757POPC   C2B36812  17.685   8.890   8.264
 2757POPC   C3B36813  17.673   8.847   7.964
 2757POPC   C4B36814  17.719   8.799   7.664
 2758POPC   NC336815  33.057  15.201   9.464
 2758POPC   PO436816  32.979  15.142   9.164
 2758POPC   GL136817  33.033  15.138   8.864
 2758POPC   GL236818  33.108  15.181   8.864
 2758POPC   C1A36819  33.016  15.181   8.564
 2758POPC   D2A36820  33.029  15.140   8.264
 2758POPC   C3A36821  33.044  15.180   7.964
 2758POPC   C4A36822  33.047  15.179   7.664
 2758POPC   C1B36823  33.270  15.092   8.564
 2758POPC   C2B36824  33.266  15.134   8.264
 2758POPC   C3B36825  33.234  15.151   7.964
 2758POPC   C4B36826  33.255  15.129   7.664
 2759POPC   NC336827  16.714  13.630   9.464
 2759POPC   PO436828  16.752  13.601   9.164
 2759POPC   GL136829  16.697  13.626   8.864
 2759POPC   GL236830  16.830  13.546   8.864
 2759POPC   C1A36831  16.777  13.613   8.564
 2759POPC   D2A36832  16.746  13.581   8.264
 2759POPC   C3A36833  16.682  13.627   7.964
 2759POPC   C4A36834  16.728  13.648   7.664
 2759POPC   C1B36835  16.918  13.481   8.564
 2759POPC   C2B36836  16.911  13.508   8.264
 2759POPC   C3B36837  16.919  13.453   7.964
 2759POPC   C4B36838  16.941  13.442   7.664
 2760POPC   NC336839  19.865   5.879   9.464
 2760POPC   PO436840  19.842   5.825   9.164
 2760POPC   GL136841  19.813   5.892   8.864
 2760POPC   GL236842  20.005   5.874   8.864
 2760POPC   C1A36843  19.825   5.871   8.564
 2760POPC   D2A36844  19.824   5.904   8.264
 2760POPC   C3A36845  19.805   5.887   7.964
 2760POPC   C4A36846  19.859   5.862   7.664
 2760POPC   C1B36847  20.074   5.870   8.564
 2760POPC   C2B36848  20.035   5.868   8.264
 2760POPC   C3B36849  20.072   5.908   7.964
 2760POPC   C4B36850  20.107   5.886   7.664
 2761POPC   NC336851  12.115  19.854   9.464
 2761POPC   PO436852  12.098  19.840   9.164
 2761POPC   GL136853  12.057  19.847   8.864
 2761POPC   GL236854  12.204  19.815   8.864
 2761POPC   C1A36855  12.028  19.834   8.564
 2761POPC   D2A36856  12.049  19.868   8.264
 2761POPC   C3A36857  12.066  19.863   7.964
 2761POPC   C4A36858  12.079  19.806   7.664
 2761POPC   C1B36859  12.356  19.856   8.564
 2761POPC   C2B36860  12.347  19.831   8.264
 2761POPC   C3B36861  12.291  19.853   7.964
 2761POPC   C4B36862  12.300  19.879   7.664
 2762POPC   NC336863  34.532  43.853   9.464
 2762POPC   PO436864  34.623  43.900   9.164
 2762POPC   GL136865  34.597  43.859   8.864
 2762POPC   GL236866  34.447  43.954   8.864
 2762POPC   C1A36867  34.557  43.878   8.564
 2762POPC   D2A36868  34.610  43.879   8.264
 2762POPC   C3A36869  34.597  43.886   7.964
 2762POPC   C4A36870  34.583  43.864   7.664
 2762POPC   C1B36871  34.309  43.986   8.564
 2762POPC   C2B36872  34.312  43.936   8.264
 2762POPC   C3B36873  34.312  43.924   7.964
 2762POPC   C4B36874  34.324  43.975   7.664
 2763POPC   NC336875  22.958  27.607   9.464
 2763POPC   PO436876  22.968  27.597   9.164
 2763POPC   GL136877  22.894  27.609   8.864
 2763POPC   GL236878  22.958  27.749   8.864
 2763POPC   C1A36879  22.891  27.615   8.564
 2763POPC   D2A36880  22.891  27.567   8.264
 2763POPC   C3A36881  22.958  27.551   7.964
 2763POPC   C4A36882  22.979  27.635   7.664
 2763POPC   C1B36883  22.894  27.813   8.564
 2763POPC   C2B36884  22.958  27.801   8.264
 2763POPC   C3B36885  22.982  27.852   7.964
 2763POPC   C4B36886  22.935  27.834   7.664
 2764POPC   NC336887  21.362   6.618   9.464
 2764POPC   PO436888  21.368   6.681   9.164
 2764POPC   GL136889  21.377   6.646   8.864
 2764POPC   GL236890  21.489   6.632   8.864
 2764POPC   C1A36891  21.398   6.598   8.564
 2764POPC   D2A36892  21.424   6.612   8.264
 2764POPC   C3A36893  21.393   6.625   7.964
 2764POPC   C4A36894  21.361   6.595   7.664
 2764POPC   C1B36895  21.594   6.675   8.564
 2764POPC   C2B36896  21.657   6.608   8.264
 2764POPC   C3B36897  21.664   6.650   7.964
 2764POPC   C4B36898  21.654   6.614   7.664
 2765POPC   NC336899   5.053  24.493   9.464
 2765POPC   PO436900   5.140  24.519   9.164
 2765POPC   GL136901   5.126  24.508   8.864
 2765POPC   GL236902   4.958  24.594   8.864
 2765POPC   C1A36903   5.060  24.450   8.564
 2765POPC   D2A36904   5.067  24.503   8.264
 2765POPC   C3A36905   5.097  24.480   7.964
 2765POPC   C4A36906   5.132  24.455   7.664
 2765POPC   C1B36907   4.944  24.654   8.564
 2765POPC   C2B36908   4.854  24.615   8.264
 2765POPC   C3B36909   4.862  24.597   7.964
 2765POPC   C4B36910   4.945  24.620   7.664
 2766POPC   NC336911  29.914  16.748   9.464
 2766POPC   PO436912  29.897  16.760   9.164
 2766POPC   GL136913  29.971  16.689   8.864
 2766POPC   GL236914  29.913  16.569   8.864
 2766POPC   C1A36915  29.950  16.746   8.564
 2766POPC   D2A36916  29.945  16.701   8.264
 2766POPC   C3A36917  29.947  16.713   7.964
 2766POPC   C4A36918  29.908  16.749   7.664
 2766POPC   C1B36919  29.955  16.450   8.564
 2766POPC   C2B36920  29.914  16.511   8.264
 2766POPC   C3B36921  29.904  16.479   7.964
 2766POPC   C4B36922  29.967  16.517   7.664
 2767POPC   NC336923   5.895  22.160   9.464
 2767POPC   PO436924   5.831  22.121   9.164
 2767POPC   GL136925   5.880  22.147   8.864
 2767POPC   GL236926   5.950  22.063   8.864
 2767POPC   C1A36927   5.902  22.159   8.564
 2767POPC   D2A36928   5.825  22.137   8.264
 2767POPC   C3A36929   5.896  22.128   7.964
 2767POPC   C4A36930   5.830  22.158   7.664
 2767POPC   C1B36931   6.017  21.997   8.564
 2767POPC   C2B36932   6.031  21.970   8.264
 2767POPC   C3B36933   6.013  21.949   7.964
 2767POPC   C4B36934   6.077  22.011   7.664
 2768POPC   NC336935  18.289   3.500   9.464
 2768POPC   PO436936  18.323   3.587   9.164
 2768POPC   GL136937  18.309   3.560   8.864
 2768POPC   GL236938  18.247   3.379   8.864
 2768POPC   C1A36939  18.238   3.586   8.564
 2768POPC   D2A36940  18.301   3.495   8.264
 2768POPC   C3A36941  18.276   3.540   7.964
 2768POPC   C4A36942  18.317   3.548   7.664
 2768POPC   C1B36943  18.290   3.247   8.564
 2768POPC   C2B36944  18.297   3.300   8.264
 2768POPC   C3B36945  18.264   3.338   7.964
 2768POPC   C4B36946  18.243   3.282   7.664
 2769POPC   NC336947  12.901   6.670   9.464
 2769POPC   PO436948  12.826   6.601   9.164
 2769POPC   GL136949  12.868   6.687   8.864
 2769POPC   GL236950  12.717   6.750   8.864
 2769POPC   C1A36951  12.901   6.686   8.564
 2769POPC   D2A36952  12.893   6.621   8.264
 2769POPC   C3A36953  12.896   6.689   7.964
 2769POPC   C4A36954  12.818   6.684   7.664
 2769POPC   C1B36955  12.660   6.778   8.564
 2769POPC   C2B36956  12.669   6.846   8.264
 2769POPC   C3B36957  12.644   6.852   7.964
 2769POPC   C4B36958  12.659   6.829   7.664
 2770POPC   NC336959   7.467  41.581   9.464
 2770POPC   PO436960   7.375  41.528   9.164
 2770POPC   GL136961   7.410  41.517   8.864
 2770POPC   GL236962   7.553  41.574   8.864
 2770POPC   C1A36963   7.459  41.537   8.564
 2770POPC   D2A36964   7.465  41.599   8.264
 2770POPC   C3A36965   7.413  41.587   7.964
 2770POPC   C4A36966   7.433  41.584   7.664
 2770POPC   C1B36967   7.693  41.685   8.564
 2770POPC   C2B36968   7.685  41.701   8.264
 2770POPC   C3B36969   7.637  41.630   7.964
 2770POPC   C4B36970   7.630  41.648   7.664
 2771POPC   NC336971  34.570  27.633   9.464
 2771POPC   PO436972  34.612  27.589   9.164
 2771POPC   GL136973  34.611  27.635   8.864
 2771POPC   GL236974  34.567  27.460   8.864
 2771POPC   C1A36975  34.590  27.613   8.564
 2771POPC   D2A36976  34.572  27.612   8.264
 2771POPC   C3A36977  34.586  27.595   7.964
 2771POPC   C4A36978  34.623  27.626   7.664
 2771POPC   C1B36979  34.580  27.318   8.564
 2771POPC   C2B36980  34.500  27.332   8.264
 2771POPC   C3B36981  34.541  27.386   7.964
 2771POPC   C4B36982  34.498  27.304   7.664
 2772POPC   NC336983   2.794   7.406   9.464
 2772POPC   PO436984   2.791   7.410   9.164
 2772POPC   GL136985   2.809   7.459   8.864
 2772POPC   GL236986   2.897   7.448   8.864
 2772POPC   C1A36987   2.800   7.434   8.564
 2772POPC   D2A36988   2.752   7.454   8.264
 2772POPC   C3A36989   2.798   7.449   7.964
 2772POPC   C4A36990   2.771   7.427   7.664
 2772POPC   C1B36991   3.041   7.447   8.564
 2772POPC   C2B36992   3.027   7.453   8.264
 2772POPC   C3B36993   3.030   7.535   7.964
 2772POPC   C4B36994   2.972   7.533   7.664
 2773POPC   NC336995   6.610   1.946   9.464
 2773POPC   PO436996   6.595   1.981   9.164
 2773POPC   GL136997   6.678   1.957   8.864
 2773POPC   GL236998   6.602   2.074   8.864
 2773POPC   C1A36999   6.616   1.997   8.564
 2773POPC   D2A37000   6.672   1.942   8.264
 2773POPC   C3A37001   6.626   1.997   7.964
 2773POPC   C4A37002   6.682   2.028   7.664
 2773POPC   C1B37003   6.433   2.185   8.564
 2773POPC   C2B37004   6.428   2.160   8.264
 2773POPC   C3B37005   6.501   2.115   7.964
 2773POPC   C4B37006   6.497   2.200   7.664
 2774POPC   NC337007  23.696  12.846   9.464
 2774POPC   PO437008  23.680  12.871   9.164
 2774POPC   GL137009  23.735  12.891   8.864
 2774POPC   GL237010  23.832  12.916   8.864
 2774POPC   C1A37011  23.669  12.819   8.564
 2774POPC   D2A37012  23.735  12.844   8.264
 2774POPC   C3A37013  23.754  12.863   7.964
 2774POPC   C4A37014  23.665  12.894   7.664
 2774POPC   C1B37015  23.956  12.887   8.564
 2774POPC   C2B37016  23.987  12.883   8.264
 2774POPC   C3B37017  23.972  12.920   7.964
 2774POPC   C4B37018  23.989  12.847   7.664
 2775POPC   NC337019   5.047  12.892   9.464
 2775POPC   PO437020   5.136  12.836   9.164
 2775POPC   GL137021   5.120  12.816   8.864
 2775POPC   GL237022   5.121  12.728   8.864
 2775POPC   C1A37023   5.052  12.897   8.564
 2775POPC   D2A37024   5.075  12.832   8.264
 2775POPC   C3A37025   5.082  12.892   7.964
 2775POPC   C4A37026   5.068  12.892   7.664
 2775POPC   C1B37027   5.065  12.616   8.564
 2775POPC   C2B37028   5.064  12.640   8.264
 2775POPC   C3B37029   5.064  12.553   7.964
 2775POPC   C4B37030   5.071  12.572   7.664
 2776POPC   NC337031  29.942  14.444   9.464
 2776POPC   PO437032  29.947  14.376   9.164
 2776POPC   GL137033  29.915  14.361   8.864
 2776POPC   GL237034  29.747  14.449   8.864
 2776POPC   C1A37035  29.916  14.381   8.564
 2776POPC   D2A37036  29.872  14.354   8.264
 2776POPC   C3A37037  29.885  14.373   7.964
 2776POPC   C4A37038  29.931  14.379   7.664
 2776POPC   C1B37039  29.628  14.408   8.564
 2776POPC   C2B37040  29.701  14.471   8.264
 2776POPC   C3B37041  29.686  14.399   7.964
 2776POPC   C4B37042  29.678  14.471   7.664
 2777POPC   NC337043  36.871  14.397   9.464
 2777POPC   PO437044  36.902  14.399   9.164
 2777POPC   GL137045  36.926  14.398   8.864
 2777POPC   GL237046  37.055  14.385   8.864
 2777POPC   C1A37047  36.853  14.377   8.564
 2777POPC   D2A37048  36.859  14.408   8.264
 2777POPC   C3A37049  36.880  14.417   7.964
 2777POPC   C4A37050  36.916  14.448   7.664
 2777POPC   C1B37051  37.159  14.390   8.564
 2777POPC   C2B37052  37.155  14.374   8.264
 2777POPC   C3B37053  37.187  14.391   7.964
 2777POPC   C4B37054  37.117  14.391   7.664
 2778POPC   NC337055   0.476  26.049   9.464
 2778POPC   PO437056   0.447  26.079   9.164
 2778POPC   GL137057   0.475  26.025   8.864
 2778POPC   GL237058   0.331  25.990   8.864
 2778POPC   C1A37059   0.409  26.025   8.564
 2778POPC   D2A37060   0.483  26.069   8.264
 2778POPC   C3A37061   0.437  26.080   7.964
 2778POPC   C4A37062   0.470  26.082   7.664
 2778POPC   C1B37063   0.257  25.830   8.564
 2778POPC   C2B37064   0.286  25.858   8.264
 2778POPC   C3B37065   0.299  25.831   7.964
 2778POPC   C4B37066   0.277  25.879   7.664
 2779POPC   NC337067  42.345  43.857   9.464
 2779POPC   PO437068  42.326  43.918   9.164
 2779POPC   GL137069  42.317  43.925   8.864
 2779POPC   GL237070  42.406  43.951   8.864
 2779POPC   C1A37071  42.311  43.859   8.564
 2779POPC   D2A37072  42.340  43.905   8.264
 2779POPC   C3A37073  42.336  43.878   7.964
 2779POPC   C4A37074  42.348  43.928   7.664
 2779POPC   C1B37075  42.452  44.116   8.564
 2779POPC   C2B37076  42.431  44.093   8.264
 2779POPC   C3B37077  42.418  44.115   7.964
 2779POPC   C4B37078  42.418  44.060   7.664
 2780POPC   NC337079  30.734  41.551   9.464
 2780POPC   PO437080  30.667  41.537   9.164
 2780POPC   GL137081  30.649  41.552   8.864
 2780POPC   GL237082  30.651  41.649   8.864
 2780POPC   C1A37083  30.699  41.518   8.564
 2780POPC   D2A37084  30.668  41.604   8.264
 2780POPC   C3A37085  30.745  41.533   7.964
 2780POPC   C4A37086  30.658  41.575   7.664
 2780POPC   C1B37087  30.660  41.821   8.564
 2780POPC   C2B37088  30.609  41.796   8.264
 2780POPC   C3B37089  30.598  41.847   7.964
 2780POPC   C4B37090  30.655  41.814   7.664
 2781POPC   NC337091  30.732  21.416   9.464
 2781POPC   PO437092  30.652  21.396   9.164
 2781POPC   GL137093  30.746  21.429   8.864
 2781POPC   GL237094  30.813  21.428   8.864
 2781POPC   C1A37095  30.744  21.413   8.564
 2781POPC   D2A37096  30.675  21.346   8.264
 2781POPC   C3A37097  30.678  21.380   7.964
 2781POPC   C4A37098  30.708  21.347   7.664
 2781POPC   C1B37099  30.956  21.461   8.564
 2781POPC   C2B37100  30.926  21.495   8.264
 2781POPC   C3B37101  30.969  21.463   7.964
 2781POPC   C4B37102  30.920  21.472   7.664
 2782POPC   NC337103   1.958   8.169   9.464
 2782POPC   PO437104   2.016   8.225   9.164
 2782POPC   GL137105   2.026   8.245   8.864
 2782POPC   GL237106   1.900   8.208   8.864
 2782POPC   C1A37107   2.034   8.237   8.564
 2782POPC   D2A37108   2.034   8.183   8.264
 2782POPC   C3A37109   2.003   8.230   7.964
 2782POPC   C4A37110   1.988   8.147   7.664
 2782POPC   C1B37111   1.733   8.233   8.564
 2782POPC   C2B37112   1.726   8.283   8.264
 2782POPC   C3B37113   1.717   8.332   7.964
 2782POPC   C4B37114   1.790   8.327   7.664
 2783POPC   NC337115  29.943  32.238   9.464
 2783POPC   PO437116  29.898  32.246   9.164
 2783POPC   GL137117  29.917  32.237   8.864
 2783POPC   GL237118  29.791  32.293   8.864
 2783POPC   C1A37119  29.938  32.242   8.564
 2783POPC   D2A37120  29.908  32.246   8.264
 2783POPC   C3A37121  29.910  32.298   7.964
 2783POPC   C4A37122  29.949  32.266   7.664
 2783POPC   C1B37123  29.683  32.379   8.564
 2783POPC   C2B37124  29.725  32.358   8.264
 2783POPC   C3B37125  29.677  32.315   7.964
 2783POPC   C4B37126  29.641  32.320   7.664
 2784POPC   NC337127  10.536  34.606   9.464
 2784POPC   PO437128  10.519  34.587   9.164
 2784POPC   GL137129  10.505  34.553   8.864
 2784POPC   GL237130  10.681  34.583   8.864
 2784POPC   C1A37131  10.482  34.606   8.564
 2784POPC   D2A37132  10.523  34.548   8.264
 2784POPC   C3A37133  10.501  34.611   7.964
 2784POPC   C4A37134  10.516  34.528   7.664
 2784POPC   C1B37135  10.761  34.614   8.564
 2784POPC   C2B37136  10.802  34.620   8.264
 2784POPC   C3B37137  10.783  34.654   7.964
 2784POPC   C4B37138  10.755  34.682   7.664
 2785POPC   NC337139  43.929   5.823   9.464
 2785POPC   PO437140  43.869   5.904   9.164
 2785POPC   GL137141  43.864   5.830   8.864
 2785POPC   GL237142  43.943   5.779   8.864
 2785POPC   C1A37143  43.887   5.875   8.564
 2785POPC   D2A37144  43.874   5.835   8.264
 2785POPC   C3A37145  43.873   5.870   7.964
 2785POPC   C4A37146  43.904   5.875   7.664
 2785POPC   C1B37147  44.016   5.668   8.564
 2785POPC   C2B37148  44.048   5.716   8.264
 2785POPC   C3B37149  44.055   5.690   7.964
 2785POPC   C4B37150  44.077   5.712   7.664
 2786POPC   NC337151  29.964  43.089   9.464
 2786POPC   PO437152  29.947  43.073   9.164
 2786POPC   GL137153  29.906  43.145   8.864
 2786POPC   GL237154  29.852  43.010   8.864
 2786POPC   C1A37155  29.969  43.103   8.564
 2786POPC   D2A37156  29.899  43.128   8.264
 2786POPC   C3A37157  29.879  43.090   7.964
 2786POPC   C4A37158  29.903  43.126   7.664
 2786POPC   C1B37159  29.808  42.910   8.564
 2786POPC   C2B37160  29.804  42.837   8.264
 2786POPC   C3B37161  29.792  42.918   7.964
 2786POPC   C4B37162  29.850  42.905   7.664
 2787POPC   NC337163  21.390  32.203   9.464
 2787POPC   PO437164  21.348  32.249   9.164
 2787POPC   GL137165  21.411  32.279   8.864
 2787POPC   GL237166  21.532  32.218   8.864
 2787POPC   C1A37167  21.423  32.296   8.564
 2787POPC   D2A37168  21.344  32.283   8.264
 2787POPC   C3A37169  21.426  32.284   7.964
 2787POPC   C4A37170  21.426  32.229   7.664
 2787POPC   C1B37171  21.599  32.185   8.564
 2787POPC   C2B37172  21.584  32.193   8.264
 2787POPC   C3B37173  21.598  32.187   7.964
 2787POPC   C4B37174  21.617  32.179   7.664
 2788POPC   NC337175  40.034  13.662   9.464
 2788POPC   PO437176  39.958  13.641   9.164
 2788POPC   GL137177  40.026  13.668   8.864
 2788POPC   GL237178  40.162  13.598   8.864
 2788POPC   C1A37179  40.052  13.591   8.564
 2788POPC   D2A37180  39.991  13.602   8.264
 2788POPC   C3A37181  40.040  13.673   7.964
 2788POPC   C4A37182  40.055  13.653   7.664
 2788POPC   C1B37183  40.229  13.549   8.564
 2788POPC   C2B37184  40.246  13.545   8.264
 2788POPC   C3B37185  40.266  13.502   7.964
 2788POPC   C4B37186  40.206  13.508   7.664
 2789POPC   NC337187   3.494  44.676   9.464
 2789POPC   PO437188   3.497  44.672   9.164
 2789POPC   GL137189   3.580  44.673   8.864
 2789POPC   GL237190   3.637  44.720   8.864
 2789POPC   C1A37191   3.521  44.622   8.564
 2789POPC   D2A37192   3.558  44.655   8.264
 2789POPC   C3A37193   3.504  44.699   7.964
 2789POPC   C4A37194   3.526  44.648   7.664
 2789POPC   C1B37195   3.810  44.783   8.564
 2789POPC   C2B37196   3.803  44.795   8.264
 2789POPC   C3B37197   3.761  44.731   7.964
 2789POPC   C4B37198   3.744  44.823   7.664
 2790POPC   NC337199  12.073  21.395   9.464
 2790POPC   PO437200  12.078  21.393   9.164
 2790POPC   GL137201  12.042  21.403   8.864
 2790POPC   GL237202  11.999  21.335   8.864
 2790POPC   C1A37203  12.070  21.356   8.564
 2790POPC   D2A37204  12.117  21.397   8.264
 2790POPC   C3A37205  12.061  21.362   7.964
 2790POPC   C4A37206  12.065  21.340   7.664
 2790POPC   C1B37207  11.954  21.167   8.564
 2790POPC   C2B37208  11.919  21.191   8.264
 2790POPC   C3B37209  11.899  21.162   7.964
 2790POPC   C4B37210  11.874  21.161   7.664
 2791POPC   NC337211   9.742   0.452   9.464
 2791POPC   PO437212   9.747   0.396   9.164
 2791POPC   GL137213   9.700   0.439   8.864
 2791POPC   GL237214   9.649   0.559   8.864
 2791POPC   C1A37215   9.709   0.407   8.564
 2791POPC   D2A37216   9.749   0.439   8.264
 2791POPC   C3A37217   9.761   0.473   7.964
 2791POPC   C4A37218   9.779   0.420   7.664
 2791POPC   C1B37219   9.639   0.691   8.564
 2791POPC   C2B37220   9.611   0.653   8.264
 2791POPC   C3B37221   9.593   0.684   7.964
 2791POPC   C4B37222   9.588   0.678   7.664
 2792POPC   NC337223  15.940  40.056   9.464
 2792POPC   PO437224  15.961  40.017   9.164
 2792POPC   GL137225  15.922  40.035   8.864
 2792POPC   GL237226  16.043  40.071   8.864
 2792POPC   C1A37227  16.004  40.035   8.564
 2792POPC   D2A37228  15.927  39.961   8.264
 2792POPC   C3A37229  15.968  39.977   7.964
 2792POPC   C4A37230  15.975  40.020   7.664
 2792POPC   C1B37231  16.225  40.113   8.564
 2792POPC   C2B37232  16.171  40.078   8.264
 2792POPC   C3B37233  16.152  40.107   7.964
 2792POPC   C4B37234  16.193  40.056   7.664
 2793POPC   NC337235  26.832  38.464   9.464
 2793POPC   PO437236  26.802  38.426   9.164
 2793POPC   GL137237  26.843  38.471   8.864
 2793POPC   GL237238  26.733  38.375   8.864
 2793POPC   C1A37239  26.797  38.483   8.564
 2793POPC   D2A37240  26.816  38.430   8.264
 2793POPC   C3A37241  26.768  38.463   7.964
 2793POPC   C4A37242  26.849  38.493   7.664
 2793POPC   C1B37243  26.648  38.259   8.564
 2793POPC   C2B37244  26.648  38.299   8.264
 2793POPC   C3B37245  26.594  38.307   7.964
 2793POPC   C4B37246  26.593  38.340   7.664
 2794POPC   NC337247  21.347   8.187   9.464
 2794POPC   PO437248  21.410   8.210   9.164
 2794POPC   GL137249  21.343   8.180   8.864
 2794POPC   GL237250  21.516   8.308   8.864
 2794POPC   C1A37251  21.383   8.173   8.564
 2794POPC   D2A37252  21.362   8.243   8.264
 2794POPC   C3A37253  21.367   8.235   7.964
 2794POPC   C4A37254  21.389   8.188   7.664
 2794POPC   C1B37255  21.548   8.334   8.564
 2794POPC   C2B37256  21.542   8.390   8.264
 2794POPC   C3B37257  21.543   8.402   7.964
 2794POPC   C4B37258  21.538   8.370   7.664
 2795POPC   NC337259   7.428   3.581   9.464
 2795POPC   PO437260   7.431   3.579   9.164
 2795POPC   GL137261   7.407   3.498   8.864
 2795POPC   GL237262   7.522   3.431   8.864
 2795POPC   C1A37263   7.388   3.560   8.564
 2795POPC   D2A37264   7.430   3.519   8.264
 2795POPC   C3A37265   7.445   3.533   7.964
 2795POPC   C4A37266   7.409   3.496   7.664
 2795POPC   C1B37267   7.612   3.430   8.564
 2795POPC   C2B37268   7.635   3.416   8.264
 2795POPC   C3B37269   7.611   3.434   7.964
 2795POPC   C4B37270   7.667   3.371   7.664
 2796POPC   NC337271   2.812  36.142   9.464
 2796POPC   PO437272   2.777  36.100   9.164
 2796POPC   GL137273   2.722  36.084   8.864
 2796POPC   GL237274   2.845  36.028   8.864
 2796POPC   C1A37275   2.749  36.108   8.564
 2796POPC   D2A37276   2.735  36.162   8.264
 2796POPC   C3A37277   2.738  36.147   7.964
 2796POPC   C4A37278   2.801  36.100   7.664
 2796POPC   C1B37279   2.933  35.900   8.564
 2796POPC   C2B37280   2.938  35.924   8.264
 2796POPC   C3B37281   2.961  35.974   7.964
 2796POPC   C4B37282   2.888  35.970   7.664
 2797POPC   NC337283  19.024   0.394   9.464
 2797POPC   PO437284  19.028   0.394   9.164
 2797POPC   GL137285  19.075   0.394   8.864
 2797POPC   GL237286  19.103   0.303   8.864
 2797POPC   C1A37287  19.054   0.402   8.564
 2797POPC   D2A37288  19.080   0.426   8.264
 2797POPC   C3A37289  19.106   0.399   7.964
 2797POPC   C4A37290  19.104   0.427   7.664
 2797POPC   C1B37291  19.116   0.144   8.564
 2797POPC   C2B37292  19.072   0.176   8.264
 2797POPC   C3B37293  19.086   0.198   7.964
 2797POPC   C4B37294  19.106   0.153   7.664
 2798POPC   NC337295  26.091  13.593   9.464
 2798POPC   PO437296  26.016  13.662   9.164
 2798POPC   GL137297  26.041  13.617   8.864
 2798POPC   GL237298  25.963  13.740   8.864
 2798POPC   C1A37299  26.060  13.627   8.564
 2798POPC   D2A37300  26.038  13.639   8.264
 2798POPC   C3A37301  26.056  13.670   7.964
 2798POPC   C4A37302  25.997  13.643   7.664
 2798POPC   C1B37303  25.792  13.788   8.564
 2798POPC   C2B37304  25.850  13.743   8.264
 2798POPC   C3B37305  25.807  13.782   7.964
 2798POPC   C4B37306  25.881  13.782   7.664
 2799POPC   NC337307  18.237  40.055   9.464
 2799POPC   PO437308  18.320  39.988   9.164
 2799POPC   GL137309  18.294  40.029   8.864
 2799POPC   GL237310  18.298  39.874   8.864
 2799POPC   C1A37311  18.331  40.047   8.564
 2799POPC   D2A37312  18.257  39.974   8.264
 2799POPC   C3A37313  18.292  39.968   7.964
 2799POPC   C4A37314  18.320  40.035   7.664
 2799POPC   C1B37315  18.211  39.807   8.564
 2799POPC   C2B37316  18.236  39.782   8.264
 2799POPC   C3B37317  18.213  39.786   7.964
 2799POPC   C4B37318  18.270  39.788   7.664
 2800POPC   NC337319   9.003  25.224   9.464
 2800POPC   PO437320   8.979  25.303   9.164
 2800POPC   GL137321   9.014  25.278   8.864
 2800POPC   GL237322   8.975  25.414   8.864
 2800POPC   C1A37323   8.955  25.275   8.564
 2800POPC   D2A37324   8.965  25.243   8.264
 2800POPC   C3A37325   9.019  25.315   7.964
 2800POPC   C4A37326   8.978  25.280   7.664
 2800POPC   C1B37327   8.934  25.509   8.564
 2800POPC   C2B37328   8.947  25.494   8.264
 2800POPC   C3B37329   8.859  25.477   7.964
 2800POPC   C4B37330   8.865  25.548   7.664
 2801POPC   NC337331  35.342  39.216   9.464
 2801POPC   PO437332  35.367  39.187   9.164
 2801POPC   GL137333  35.363  39.187   8.864
 2801POPC   GL237334  35.418  39.071   8.864
 2801POPC   C1A37335  35.339  39.250   8.564
 2801POPC   D2A37336  35.315  39.183   8.264
 2801POPC   C3A37337  35.337  39.208   7.964
 2801POPC   C4A37338  35.319  39.272   7.664
 2801POPC   C1B37339  35.411  38.992   8.564
 2801POPC   C2B37340  35.426  39.007   8.264
 2801POPC   C3B37341  35.448  39.012   7.964
 2801POPC   C4B37342  35.423  39.008   7.664
 2802POPC   NC337343   9.741  43.142   9.464
 2802POPC   PO437344   9.760  43.096   9.164
 2802POPC   GL137345   9.791  43.145   8.864
 2802POPC   GL237346   9.768  43.279   8.864
 2802POPC   C1A37347   9.705  43.151   8.564
 2802POPC   D2A37348   9.743  43.138   8.264
 2802POPC   C3A37349   9.752  43.102   7.964
 2802POPC   C4A37350   9.754  43.092   7.664
 2802POPC   C1B37351   9.750  43.370   8.564
 2802POPC   C2B37352   9.777  43.322   8.264
 2802POPC   C3B37353   9.751  43.360   7.964
 2802POPC   C4B37354   9.777  43.322   7.664
 2803POPC   NC337355  30.650  37.693   9.464
 2803POPC   PO437356  30.725  37.663   9.164
 2803POPC   GL137357  30.701  37.648   8.864
 2803POPC   GL237358  30.714  37.752   8.864
 2803POPC   C1A37359  30.727  37.651   8.564
 2803POPC   D2A37360  30.651  37.665   8.264
 2803POPC   C3A37361  30.724  37.695   7.964
 2803POPC   C4A37362  30.721  37.718   7.664
 2803POPC   C1B37363  30.607  37.953   8.564
 2803POPC   C2B37364  30.681  37.885   8.264
 2803POPC   C3B37365  30.664  37.882   7.964
 2803POPC   C4B37366  30.647  37.911   7.664
 2804POPC   NC337367  12.045  29.100   9.464
 2804POPC   PO437368  12.066  29.182   9.164
 2804POPC   GL137369  12.073  29.127   8.864
 2804POPC   GL237370  12.083  28.970   8.864
 2804POPC   C1A37371  12.056  29.121   8.564
 2804POPC   D2A37372  12.078  29.109   8.264
 2804POPC   C3A37373  12.029  29.160   7.964
 2804POPC   C4A37374  12.087  29.171   7.664
 2804POPC   C1B37375  12.099  28.888   8.564
 2804POPC   C2B37376  12.098  28.900   8.264
 2804POPC   C3B37377  12.034  28.860   7.964
 2804POPC   C4B37378  12.100  28.859   7.664
 2805POPC   NC337379   3.498  15.996   9.464
 2805POPC   PO437380   3.589  15.962   9.164
 2805POPC   GL137381   3.565  15.915   8.864
 2805POPC   GL237382   3.460  16.053   8.864
 2805POPC   C1A37383   3.532  15.948   8.564
 2805POPC   D2A37384   3.559  15.937   8.264
 2805POPC   C3A37385   3.561  15.918   7.964
 2805POPC   C4A37386   3.556  15.992   7.664
 2805POPC   C1B37387   3.453  16.148   8.564
 2805POPC   C2B37388   3.508  16.165   8.264
 2805POPC   C3B37389   3.464  16.174   7.964
 2805POPC   C4B37390   3.527  16.222   7.664
 2806POPC   NC337391  43.843  20.575   9.464
 2806POPC   PO437392  43.851  20.593   9.164
 2806POPC   GL137393  43.921  20.594   8.864
 2806POPC   GL237394  43.947  20.672   8.864
 2806POPC   C1A37395  43.887  20.624   8.564
 2806POPC   D2A37396  43.856  20.637   8.264
 2806POPC   C3A37397  43.851  20.583   7.964
 2806POPC   C4A37398  43.901  20.616   7.664
 2806POPC   C1B37399  44.048  20.830   8.564
 2806POPC   C2B37400  44.077  20.786   8.264
 2806POPC   C3B37401  44.015  20.829   7.964
 2806POPC   C4B37402  44.029  20.800   7.664
 2807POPC   NC337403  28.393   7.428   9.464
 2807POPC   PO437404  28.334   7.457   9.164
 2807POPC   GL137405  28.350   7.430   8.864
 2807POPC   GL237406  28.423   7.494   8.864
 2807POPC   C1A37407  28.330   7.452   8.564
 2807POPC   D2A37408  28.405   7.467   8.264
 2807POPC   C3A37409  28.413   7.469   7.964
 2807POPC   C4A37410  28.387   7.416   7.664
 2807POPC   C1B37411  28.611   7.538   8.564
 2807POPC   C2B37412  28.592   7.584   8.264
 2807POPC   C3B37413  28.533   7.609   7.964
 2807POPC   C4B37414  28.524   7.570   7.664
 2808POPC   NC337415  10.510  14.403   9.464
 2808POPC   PO437416  10.542  14.355   9.164
 2808POPC   GL137417  10.509  14.411   8.864
 2808POPC   GL237418  10.631  14.375   8.864
 2808POPC   C1A37419  10.545  14.438   8.564
 2808POPC   D2A37420  10.542  14.370   8.264
 2808POPC   C3A37421  10.516  14.424   7.964
 2808POPC   C4A37422  10.479  14.448   7.664
 2808POPC   C1B37423  10.723  14.324   8.564
 2808POPC   C2B37424  10.783  14.295   8.264
 2808POPC   C3B37425  10.787  14.322   7.964
 2808POPC   C4B37426  10.763  14.316   7.664
 2809POPC   NC337427  10.501  26.856   9.464
 2809POPC   PO437428  10.554  26.819   9.164
 2809POPC   GL137429  10.501  26.805   8.864
 2809POPC   GL237430  10.483  26.948   8.864
 2809POPC   C1A37431  10.502  26.837   8.564
 2809POPC   D2A37432  10.506  26.844   8.264
 2809POPC   C3A37433  10.573  26.781   7.964
 2809POPC   C4A37434  10.567  26.775   7.664
 2809POPC   C1B37435  10.387  26.981   8.564
 2809POPC   C2B37436  10.405  27.049   8.264
 2809POPC   C3B37437  10.367  27.037   7.964
 2809POPC   C4B37438  10.420  26.998   7.664
 2810POPC   NC337439  38.411  19.020   9.464
 2810POPC   PO437440  38.489  19.095   9.164
 2810POPC   GL137441  38.489  19.093   8.864
 2810POPC   GL237442  38.332  18.917   8.864
 2810POPC   C1A37443  38.481  19.016   8.564
 2810POPC   D2A37444  38.423  19.082   8.264
 2810POPC   C3A37445  38.413  19.085   7.964
 2810POPC   C4A37446  38.446  19.107   7.664
 2810POPC   C1B37447  38.294  18.866   8.564
 2810POPC   C2B37448  38.309  18.813   8.264
 2810POPC   C3B37449  38.262  18.844   7.964
 2810POPC   C4B37450  38.292  18.831   7.664
 2811POPC   NC337451  17.465  15.944   9.464
 2811POPC   PO437452  17.550  15.925   9.164
 2811POPC   GL137453  17.501  16.001   8.864
 2811POPC   GL237454  17.471  16.129   8.864
 2811POPC   C1A37455  17.482  15.920   8.564
 2811POPC   D2A37456  17.481  15.980   8.264
 2811POPC   C3A37457  17.477  15.928   7.964
 2811POPC   C4A37458  17.547  15.911   7.664
 2811POPC   C1B37459  17.506  16.183   8.564
 2811POPC   C2B37460  17.532  16.211   8.264
 2811POPC   C3B37461  17.477  16.208   7.964
 2811POPC   C4B37462  17.480  16.245   7.664
 2812POPC   NC337463   5.097  22.934   9.464
 2812POPC   PO437464   5.065  22.950   9.164
 2812POPC   GL137465   5.069  22.975   8.864
 2812POPC   GL237466   5.234  22.998   8.864
 2812POPC   C1A37467   5.055  22.889   8.564
 2812POPC   D2A37468   5.131  22.904   8.264
 2812POPC   C3A37469   5.135  22.954   7.964
 2812POPC   C4A37470   5.046  22.915   7.664
 2812POPC   C1B37471   5.321  23.062   8.564
 2812POPC   C2B37472   5.373  23.001   8.264
 2812POPC   C3B37473   5.323  22.974   7.964
 2812POPC   C4B37474   5.316  22.999   7.664
 2813POPC   NC337475   8.931  20.566   9.464
 2813POPC   PO437476   9.008  20.629   9.164
 2813POPC   GL137477   8.940  20.568   8.864
 2813POPC   GL237478   9.013  20.485   8.864
 2813POPC   C1A37479   8.963  20.580   8.564
 2813POPC   D2A37480   8.939  20.588   8.264
 2813POPC   C3A37481   8.968  20.615   7.964
 2813POPC   C4A37482   8.982  20.562   7.664
 2813POPC   C1B37483   9.071  20.419   8.564
 2813POPC   C2B37484   9.110  20.365   8.264
 2813POPC   C3B37485   9.078  20.362   7.964
 2813POPC   C4B37486   9.107  20.354   7.664
 2814POPC   NC337487  37.700  40.016   9.464
 2814POPC   PO437488  37.720  39.961   9.164
 2814POPC   GL137489  37.636  39.959   8.864
 2814POPC   GL237490  37.534  40.029   8.864
 2814POPC   C1A37491  37.722  40.032   8.564
 2814POPC   D2A37492  37.726  40.043   8.264
 2814POPC   C3A37493  37.688  39.976   7.964
 2814POPC   C4A37494  37.642  39.962   7.664
 2814POPC   C1B37495  37.443  40.137   8.564
 2814POPC   C2B37496  37.417  40.061   8.264
 2814POPC   C3B37497  37.427  40.073   7.964
 2814POPC   C4B37498  37.453  40.048   7.664
 2815POPC   NC337499  16.687   7.381   9.464
 2815POPC   PO437500  16.704   7.377   9.164
 2815POPC   GL137501  16.685   7.389   8.864
 2815POPC   GL237502  16.824   7.387   8.864
 2815POPC   C1A37503  16.749   7.402   8.564
 2815POPC   D2A37504  16.703   7.466   8.264
 2815POPC   C3A37505  16.770   7.392   7.964
 2815POPC   C4A37506  16.760   7.430   7.664
 2815POPC   C1B37507  16.919   7.306   8.564
 2815POPC   C2B37508  16.999   7.354   8.264
 2815POPC   C3B37509  16.994   7.318   7.964
 2815POPC   C4B37510  16.951   7.310   7.664
 2816POPC   NC337511  30.686  28.370   9.464
 2816POPC   PO437512  30.666  28.373   9.164
 2816POPC   GL137513  30.723  28.402   8.864
 2816POPC   GL237514  30.636  28.233   8.864
 2816POPC   C1A37515  30.663  28.342   8.564
 2816POPC   D2A37516  30.721  28.387   8.264
 2816POPC   C3A37517  30.718  28.365   7.964
 2816POPC   C4A37518  30.721  28.404   7.664
 2816POPC   C1B37519  30.554  28.113   8.564
 2816POPC   C2B37520  30.558  28.134   8.264
 2816POPC   C3B37521  30.562  28.094   7.964
 2816POPC   C4B37522  30.607  28.126   7.664
 2817POPC   NC337523   9.720  24.534   9.464
 2817POPC   PO437524   9.772  24.525   9.164
 2817POPC   GL137525   9.767  24.514   8.864
 2817POPC   GL237526   9.756  24.553   8.864
 2817POPC   C1A37527   9.794  24.466   8.564
 2817POPC   D2A37528   9.787  24.527   8.264
 2817POPC   C3A37529   9.775  24.535   7.964
 2817POPC   C4A37530   9.792  24.513   7.664
 2817POPC   C1B37531   9.854  24.707   8.564
 2817POPC   C2B37532   9.832  24.675   8.264
 2817POPC   C3B37533   9.900  24.760   7.964
 2817POPC   C4B37534   9.891  24.668   7.664
 2818POPC   NC337535  10.523  32.205   9.464
 2818POPC   PO437536  10.498  32.249   9.164
 2818POPC   GL137537  10.563  32.236   8.864
 2818POPC   GL237538  10.373  32.258   8.864
 2818POPC   C1A37539  10.546  32.263   8.564
 2818POPC   D2A37540  10.528  32.234   8.264
 2818POPC   C3A37541  10.501  32.211   7.964
 2818POPC   C4A37542  10.484  32.242   7.664
 2818POPC   C1B37543  10.332  32.322   8.564
 2818POPC   C2B37544  10.327  32.328   8.264
 2818POPC   C3B37545  10.332  32.342   7.964
 2818POPC   C4B37546  10.304  32.288   7.664
 2819POPC   NC337547  33.778  38.434   9.464
 2819POPC   PO437548  33.842  38.492   9.164
 2819POPC   GL137549  33.841  38.488   8.864
 2819POPC   GL237550  33.825  38.342   8.864
 2819POPC   C1A37551  33.818  38.425   8.564
 2819POPC   D2A37552  33.806  38.426   8.264
 2819POPC   C3A37553  33.845  38.471   7.964
 2819POPC   C4A37554  33.769  38.407   7.664
 2819POPC   C1B37555  33.787  38.202   8.564
 2819POPC   C2B37556  33.802  38.228   8.264
 2819POPC   C3B37557  33.827  38.249   7.964
 2819POPC   C4B37558  33.852  38.202   7.664
 2820POPC   NC337559  15.145   4.340   9.464
 2820POPC   PO437560  15.210   4.309   9.164
 2820POPC   GL137561  15.187   4.288   8.864
 2820POPC   GL237562  15.095   4.366   8.864
 2820POPC   C1A37563  15.164   4.270   8.564
 2820POPC   D2A37564  15.202   4.349   8.264
 2820POPC   C3A37565  15.154   4.341   7.964
 2820POPC   C4A37566  15.171   4.286   7.664
 2820POPC   C1B37567  14.967   4.464   8.564
 2820POPC   C2B37568  14.953   4.447   8.264
 2820POPC   C3B37569  14.998   4.420   7.964
 2820POPC   C4B37570  14.950   4.460   7.664
 2821POPC   NC337571  30.697  19.786   9.464
 2821POPC   PO437572  30.665  19.864   9.164
 2821POPC   GL137573  30.700  19.842   8.864
 2821POPC   GL237574  30.554  19.784   8.864
 2821POPC   C1A37575  30.706  19.822   8.564
 2821POPC   D2A37576  30.679  19.830   8.264
 2821POPC   C3A37577  30.726  19.790   7.964
 2821POPC   C4A37578  30.648  19.868   7.664
 2821POPC   C1B37579  30.495  19.738   8.564
 2821POPC   C2B37580  30.481  19.773   8.264
 2821POPC   C3B37581  30.439  19.730   7.964
 2821POPC   C4B37582  30.482  19.714   7.664
 2822POPC   NC337583  42.347  43.142   9.464
 2822POPC   PO437584  42.364  43.113   9.164
 2822POPC   GL137585  42.292  43.118   8.864
 2822POPC   GL237586  42.418  43.096   8.864
 2822POPC   C1A37587  42.325  43.108   8.564
 2822POPC   D2A37588  42.332  43.144   8.264
 2822POPC   C3A37589  42.326  43.151   7.964
 2822POPC   C4A37590  42.320  43.069   7.664
 2822POPC   C1B37591  42.554  43.033   8.564
 2822POPC   C2B37592  42.521  43.034   8.264
 2822POPC   C3B37593  42.589  43.027   7.964
 2822POPC   C4B37594  42.553  42.958   7.664
 2823POPC   NC337595  24.474  28.320   9.464
 2823POPC   PO437596  24.456  28.361   9.164
 2823POPC   GL137597  24.459  28.416   8.864
 2823POPC   GL237598  24.347  28.383   8.864
 2823POPC   C1A37599  24.490  28.371   8.564
 2823POPC   D2A37600  24.507  28.325   8.264
 2823POPC   C3A37601  24.522  28.346   7.964
 2823POPC   C4A37602  24.505  28.404   7.664
 2823POPC   C1B37603  24.260  28.472   8.564
 2823POPC   C2B37604  24.217  28.433   8.264
 2823POPC   C3B37605  24.226  28.412   7.964
 2823POPC   C4B37606  24.279  28.442   7.664
 2824POPC   NC337607  21.402  42.357   9.464
 2824POPC   PO437608  21.394  42.375   9.164
 2824POPC   GL137609  21.346  42.330   8.864
 2824POPC   GL237610  21.297  42.338   8.864
 2824POPC   C1A37611  21.428  42.335   8.564
 2824POPC   D2A37612  21.432  42.360   8.264
 2824POPC   C3A37613  21.372  42.285   7.964
 2824POPC   C4A37614  21.397  42.349   7.664
 2824POPC   C1B37615  21.155  42.354   8.564
 2824POPC   C2B37616  21.140  42.303   8.264
 2824POPC   C3B37617  21.165  42.347   7.964
 2824POPC   C4B37618  21.130  42.287   7.664
 2825POPC   NC337619   5.143   6.596   9.464
 2825POPC   PO437620   5.120   6.615   9.164
 2825POPC   GL137621   5.137   6.679   8.864
 2825POPC   GL237622   5.005   6.632   8.864
 2825POPC   C1A37623   5.114   6.647   8.564
 2825POPC   D2A37624   5.086   6.604   8.264
 2825POPC   C3A37625   5.044   6.636   7.964
 2825POPC   C4A37626   5.054   6.648   7.664
 2825POPC   C1B37627   4.863   6.548   8.564
 2825POPC   C2B37628   4.806   6.624   8.264
 2825POPC   C3B37629   4.894   6.587   7.964
 2825POPC   C4B37630   4.883   6.563   7.664
 2826POPC   NC337631  31.437  23.760   9.464
 2826POPC   PO437632  31.434  23.751   9.164
 2826POPC   GL137633  31.500  23.727   8.864
 2826POPC   GL237634  31.600  23.760   8.864
 2826POPC   C1A37635  31.443  23.740   8.564
 2826POPC   D2A37636  31.511  23.755   8.264
 2826POPC   C3A37637  31.435  23.672   7.964
 2826POPC   C4A37638  31.444  23.700   7.664
 2826POPC   C1B37639  31.763  23.738   8.564
 2826POPC   C2B37640  31.686  23.804   8.264
 2826POPC   C3B37641  31.667  23.793   7.964
 2826POPC   C4B37642  31.678  23.745   7.664
 2827POPC   NC337643   8.218  33.771   9.464
 2827POPC   PO437644   8.174  33.769   9.164
 2827POPC   GL137645   8.170  33.752   8.864
 2827POPC   GL237646   8.227  33.651   8.864
 2827POPC   C1A37647   8.172  33.835   8.564
 2827POPC   D2A37648   8.166  33.840   8.264
 2827POPC   C3A37649   8.167  33.849   7.964
 2827POPC   C4A37650   8.156  33.830   7.664
 2827POPC   C1B37651   8.275  33.594   8.564
 2827POPC   C2B37652   8.243  33.610   8.264
 2827POPC   C3B37653   8.307  33.536   7.964
 2827POPC   C4B37654   8.258  33.523   7.664
 2828POPC   NC337655  11.345  20.644   9.464
 2828POPC   PO437656  11.345  20.587   9.164
 2828POPC   GL137657  11.270  20.597   8.864
 2828POPC   GL237658  11.267  20.682   8.864
 2828POPC   C1A37659  11.301  20.619   8.564
 2828POPC   D2A37660  11.324  20.637   8.264
 2828POPC   C3A37661  11.288  20.612   7.964
 2828POPC   C4A37662  11.329  20.631   7.664
 2828POPC   C1B37663  11.189  20.849   8.564
 2828POPC   C2B37664  11.120  20.818   8.264
 2828POPC   C3B37665  11.189  20.800   7.964
 2828POPC   C4B37666  11.140  20.783   7.664
 2829POPC   NC337667  33.845  19.854   9.464
 2829POPC   PO437668  33.787  19.856   9.164
 2829POPC   GL137669  33.784  19.807   8.864
 2829POPC   GL237670  33.969  19.887   8.864
 2829POPC   C1A37671  33.768  19.838   8.564
 2829POPC   D2A37672  33.765  19.820   8.264
 2829POPC   C3A37673  33.800  19.879   7.964
 2829POPC   C4A37674  33.839  19.851   7.664
 2829POPC   C1B37675  34.081  19.856   8.564
 2829POPC   C2B37676  34.053  19.902   8.264
 2829POPC   C3B37677  34.018  19.831   7.964
 2829POPC   C4B37678  34.009  19.876   7.664
 2830POPC   NC337679  15.219  33.823   9.464
 2830POPC   PO437680  15.185  33.809   9.164
 2830POPC   GL137681  15.198  33.763   8.864
 2830POPC   GL237682  15.211  33.678   8.864
 2830POPC   C1A37683  15.191  33.796   8.564
 2830POPC   D2A37684  15.188  33.804   8.264
 2830POPC   C3A37685  15.146  33.764   7.964
 2830POPC   C4A37686  15.198  33.844   7.664
 2830POPC   C1B37687  15.316  33.604   8.564
 2830POPC   C2B37688  15.308  33.559   8.264
 2830POPC   C3B37689  15.291  33.615   7.964
 2830POPC   C4B37690  15.304  33.567   7.664
 2831POPC   NC337691  15.144  19.015   9.464
 2831POPC   PO437692  15.172  19.093   9.164
 2831POPC   GL137693  15.169  19.061   8.864
 2831POPC   GL237694  15.118  18.961   8.864
 2831POPC   C1A37695  15.227  19.037   8.564
 2831POPC   D2A37696  15.132  19.104   8.264
 2831POPC   C3A37697  15.152  19.049   7.964
 2831POPC   C4A37698  15.186  19.040   7.664
 2831POPC   C1B37699  15.138  18.828   8.564
 2831POPC   C2B37700  15.134  18.812   8.264
 2831POPC   C3B37701  15.118  18.865   7.964
 2831POPC   C4B37702  15.121  18.865   7.664
 2832POPC   NC337703  22.905   2.791   9.464
 2832POPC   PO437704  22.911   2.768   9.164
 2832POPC   GL137705  22.960   2.720   8.864
 2832POPC   GL237706  22.948   2.593   8.864
 2832POPC   C1A37707  22.894   2.763   8.564
 2832POPC   D2A37708  22.966   2.727   8.264
 2832POPC   C3A37709  22.985   2.756   7.964
 2832POPC   C4A37710  22.971   2.799   7.664
 2832POPC   C1B37711  22.912   2.520   8.564
 2832POPC   C2B37712  22.877   2.512   8.264
 2832POPC   C3B37713  22.873   2.504   7.964
 2832POPC   C4B37714  22.906   2.543   7.664
 2833POPC   NC337715  22.122  32.274   9.464
 2833POPC   PO437716  22.170  32.288   9.164
 2833POPC   GL137717  22.139  32.219   8.864
 2833POPC   GL237718  22.099  32.344   8.864
 2833POPC   C1A37719  22.142  32.244   8.564
 2833POPC   D2A37720  22.173  32.269   8.264
 2833POPC   C3A37721  22.138  32.281   7.964
 2833POPC   C4A37722  22.122  32.226   7.664
 2833POPC   C1B37723  22.050  32.524   8.564
 2833POPC   C2B37724  22.027  32.476   8.264
 2833POPC   C3B37725  22.079  32.441   7.964
 2833POPC   C4B37726  22.034  32.459   7.664
 2834POPC   NC337727  20.598  33.756   9.464
 2834POPC   PO437728  20.639  33.804   9.164
 2834POPC   GL137729  20.618  33.777   8.864
 2834POPC   GL237730  20.556  33.767   8.864
 2834POPC   C1A37731  20.614  33.779   8.564
 2834POPC   D2A37732  20.579  33.774   8.264
 2834POPC   C3A37733  20.632  33.837   7.964
 2834POPC   C4A37734  20.563  33.843   7.664
 2834POPC   C1B37735  20.417  33.688   8.564
 2834POPC   C2B37736  20.359  33.681   8.264
 2834POPC   C3B37737  20.424  33.626   7.964
 2834POPC   C4B37738  20.403  33.670   7.664
 2835POPC   NC337739  22.905  34.542   9.464
 2835POPC   PO437740  22.948  34.536   9.164
 2835POPC   GL137741  22.939  34.620   8.864
 2835POPC   GL237742  23.042  34.553   8.864
 2835POPC   C1A37743  22.968  34.619   8.564
 2835POPC   D2A37744  22.959  34.616   8.264
 2835POPC   C3A37745  22.977  34.531   7.964
 2835POPC   C4A37746  22.933  34.574   7.664
 2835POPC   C1B37747  23.186  34.508   8.564
 2835POPC   C2B37748  23.190  34.481   8.264
 2835POPC   C3B37749  23.136  34.489   7.964
 2835POPC   C4B37750  23.196  34.526   7.664
 2836POPC   NC337751  35.391   3.585   9.464
 2836POPC   PO437752  35.376   3.573   9.164
 2836POPC   GL137753  35.323   3.574   8.864
 2836POPC   GL237754  35.428   3.438   8.864
 2836POPC   C1A37755  35.347   3.528   8.564
 2836POPC   D2A37756  35.386   3.495   8.264
 2836POPC   C3A37757  35.339   3.538   7.964
 2836POPC   C4A37758  35.309   3.553   7.664
 2836POPC   C1B37759  35.526   3.341   8.564
 2836POPC   C2B37760  35.498   3.351   8.264
 2836POPC   C3B37761  35.452   3.362   7.964
 2836POPC   C4B37762  35.526   3.344   7.664
 2837POPC   NC337763  15.184   8.959   9.464
 2837POPC   PO437764  15.204   8.965   9.164
 2837POPC   GL137765  15.169   8.958   8.864
 2837POPC   GL237766  15.112   9.082   8.864
 2837POPC   C1A37767  15.176   9.009   8.564
 2837POPC   D2A37768  15.200   8.934   8.264
 2837POPC   C3A37769  15.198   8.991   7.964
 2837POPC   C4A37770  15.188   8.932   7.664
 2837POPC   C1B37771  15.013   9.208   8.564
 2837POPC   C2B37772  15.030   9.164   8.264
 2837POPC   C3B37773  14.988   9.128   7.964
 2837POPC   C4B37774  14.978   9.160   7.664
 2838POPC   NC337775  26.794  11.260   9.464
 2838POPC   PO437776  26.790  11.325   9.164
 2838POPC   GL137777  26.781  11.258   8.864
 2838POPC   GL237778  26.898  11.316   8.864
 2838POPC   C1A37779  26.767  11.253   8.564
 2838POPC   D2A37780  26.840  11.290   8.264
 2838POPC   C3A37781  26.808  11.283   7.964
 2838POPC   C4A37782  26.835  11.326   7.664
 2838POPC   C1B37783  27.050  11.458   8.564
 2838POPC   C2B37784  26.998  11.427   8.264
 2838POPC   C3B37785  27.016  11.366   7.964
 2838POPC   C4B37786  27.079  11.421   7.664
 2839POPC   NC337787  15.147   5.109   9.464
 2839POPC   PO437788  15.209   5.116   9.164
 2839POPC   GL137789  15.223   5.056   8.864
 2839POPC   GL237790  15.238   4.985   8.864
 2839POPC   C1A37791  15.175   5.139   8.564
 2839POPC   D2A37792  15.159   5.100   8.264
 2839POPC   C3A37793  15.226   5.105   7.964
 2839POPC   C4A37794  15.219   5.105   7.664
 2839POPC   C1B37795  15.300   4.840   8.564
 2839POPC   C2B37796  15.343   4.887   8.264
 2839POPC   C3B37797  15.333   4.871   7.964
 2839POPC   C4B37798  15.351   4.854   7.664
 2840POPC   NC337799  29.129  38.409   9.464
 2840POPC   PO437800  29.186  38.409   9.164
 2840POPC   GL137801  29.098  38.456   8.864
 2840POPC   GL237802  29.284  38.397   8.864
 2840POPC   C1A37803  29.169  38.499   8.564
 2840POPC   D2A37804  29.185  38.487   8.264
 2840POPC   C3A37805  29.190  38.419   7.964
 2840POPC   C4A37806  29.104  38.444   7.664
 2840POPC   C1B37807  29.370  38.382   8.564
 2840POPC   C2B37808  29.412  38.386   8.264
 2840POPC   C3B37809  29.407  38.381   7.964
 2840POPC   C4B37810  29.381  38.448   7.664
 2841POPC   NC337811   6.607  20.593   9.464
 2841POPC   PO437812   6.684  20.658   9.164
 2841POPC   GL137813   6.651  20.655   8.864
 2841POPC   GL237814   6.549  20.527   8.864
 2841POPC   C1A37815   6.663  20.586   8.564
 2841POPC   D2A37816   6.595  20.579   8.264
 2841POPC   C3A37817   6.672  20.576   7.964
 2841POPC   C4A37818   6.669  20.596   7.664
 2841POPC   C1B37819   6.447  20.433   8.564
 2841POPC   C2B37820   6.433  20.399   8.264
 2841POPC   C3B37821   6.432  20.393   7.964
 2841POPC   C4B37822   6.489  20.423   7.664
 2842POPC   NC337823  43.838  41.568   9.464
 2842POPC   PO437824  43.852  41.607   9.164
 2842POPC   GL137825  43.909  41.532   8.864
 2842POPC   GL237826  43.960  41.592   8.864
 2842POPC   C1A37827  43.925  41.570   8.564
 2842POPC   D2A37828  43.907  41.576   8.264
 2842POPC   C3A37829  43.911  41.574   7.964
 2842POPC   C4A37830  43.840  41.534   7.664
 2842POPC   C1B37831  44.103  41.642   8.564
 2842POPC   C2B37832  44.087  41.637   8.264
 2842POPC   C3B37833  44.155  41.596   7.964
 2842POPC   C4B37834  44.165  41.639   7.664
 2843POPC   NC337835  12.888  42.301   9.464
 2843POPC   PO437836  12.901  42.300   9.164
 2843POPC   GL137837  12.806  42.285   8.864
 2843POPC   GL237838  12.861  42.245   8.864
 2843POPC   C1A37839  12.859  42.323   8.564
 2843POPC   D2A37840  12.803  42.361   8.264
 2843POPC   C3A37841  12.899  42.311   7.964
 2843POPC   C4A37842  12.898  42.358   7.664
 2843POPC   C1B37843  12.905  42.087   8.564
 2843POPC   C2B37844  12.872  42.090   8.264
 2843POPC   C3B37845  12.939  42.051   7.964
 2843POPC   C4B37846  12.871  42.070   7.664
 2844POPC   NC337847  16.685  12.042   9.464
 2844POPC   PO437848  16.707  12.117   9.164
 2844POPC   GL137849  16.776  12.036   8.864
 2844POPC   GL237850  16.712  12.221   8.864
 2844POPC   C1A37851  16.758  12.102   8.564
 2844POPC   D2A37852  16.707  12.040   8.264
 2844POPC   C3A37853  16.710  12.028   7.964
 2844POPC   C4A37854  16.763  12.063   7.664
 2844POPC   C1B37855  16.778  12.284   8.564
 2844POPC   C2B37856  16.777  12.339   8.264
 2844POPC   C3B37857  16.777  12.301   7.964
 2844POPC   C4B37858  16.763  12.355   7.664
 2845POPC   NC337859  38.479  36.911   9.464
 2845POPC   PO437860  38.435  36.923   9.164
 2845POPC   GL137861  38.422  36.936   8.864
 2845POPC   GL237862  38.554  36.946   8.864
 2845POPC   C1A37863  38.418  36.858   8.564
 2845POPC   D2A37864  38.442  36.887   8.264
 2845POPC   C3A37865  38.421  36.856   7.964
 2845POPC   C4A37866  38.488  36.897   7.664
 2845POPC   C1B37867  38.694  36.965   8.564
 2845POPC   C2B37868  38.652  37.012   8.264
 2845POPC   C3B37869  38.664  36.968   7.964
 2845POPC   C4B37870  38.695  36.974   7.664
 2846POPC   NC337871  33.029  43.135   9.464
 2846POPC   PO437872  33.007  43.067   9.164
 2846POPC   GL137873  33.001  43.104   8.864
 2846POPC   GL237874  32.899  43.176   8.864
 2846POPC   C1A37875  33.072  43.106   8.564
 2846POPC   D2A37876  33.029  43.146   8.264
 2846POPC   C3A37877  33.049  43.111   7.964
 2846POPC   C4A37878  33.011  43.070   7.664
 2846POPC   C1B37879  32.777  43.207   8.564
 2846POPC   C2B37880  32.780  43.202   8.264
 2846POPC   C3B37881  32.807  43.183   7.964
 2846POPC   C4B37882  32.804  43.178   7.664
 2847POPC   NC337883  32.994   4.337   9.464
 2847POPC   PO437884  33.065   4.291   9.164
 2847POPC   GL137885  32.995   4.295   8.864
 2847POPC   GL237886  32.905   4.427   8.864
 2847POPC   C1A37887  33.065   4.337   8.564
 2847POPC   D2A37888  33.032   4.272   8.264
 2847POPC   C3A37889  33.050   4.312   7.964
 2847POPC   C4A37890  33.040   4.354   7.664
 2847POPC   C1B37891  32.890   4.496   8.564
 2847POPC   C2B37892  32.849   4.533   8.264
 2847POPC   C3B37893  32.852   4.530   7.964
 2847POPC   C4B37894  32.892   4.474   7.664
 2848POPC   NC337895  27.570   3.558   9.464
 2848POPC   PO437896  27.549   3.571   9.164
 2848POPC   GL137897  27.584   3.569   8.864
 2848POPC   GL237898  27.560   3.429   8.864
 2848POPC   C1A37899  27.590   3.509   8.564
 2848POPC   D2A37900  27.585   3.543   8.264
 2848POPC   C3A37901  27.603   3.532   7.964
 2848POPC   C4A37902  27.621   3.569   7.664
 2848POPC   C1B37903  27.593   3.286   8.564
 2848POPC   C2B37904  27.586   3.296   8.264
 2848POPC   C3B37905  27.584   3.337   7.964
 2848POPC   C4B37906  27.555   3.311   7.664
 2849POPC   NC337907  22.114  33.057   9.464
 2849POPC   PO437908  22.207  32.983   9.164
 2849POPC   GL137909  22.165  33.069   8.864
 2849POPC   GL237910  22.042  32.987   8.864
 2849POPC   C1A37911  22.161  33.046   8.564
 2849POPC   D2A37912  22.161  33.063   8.264
 2849POPC   C3A37913  22.175  32.994   7.964
 2849POPC   C4A37914  22.177  33.058   7.664
 2849POPC   C1B37915  21.947  32.967   8.564
 2849POPC   C2B37916  21.966  32.938   8.264
 2849POPC   C3B37917  21.963  32.952   7.964
 2849POPC   C4B37918  21.963  32.948   7.664
 2850POPC   NC337919   5.044  25.260   9.464
 2850POPC   PO437920   5.122  25.254   9.164
 2850POPC   GL137921   5.100  25.279   8.864
 2850POPC   GL237922   5.197  25.392   8.864
 2850POPC   C1A37923   5.101  25.252   8.564
 2850POPC   D2A37924   5.048  25.248   8.264
 2850POPC   C3A37925   5.055  25.265   7.964
 2850POPC   C4A37926   5.055  25.219   7.664
 2850POPC   C1B37927   5.288  25.439   8.564
 2850POPC   C2B37928   5.232  25.477   8.264
 2850POPC   C3B37929   5.272  25.452   7.964
 2850POPC   C4B37930   5.193  25.447   7.664
 2851POPC   NC337931   5.828  33.018   9.464
 2851POPC   PO437932   5.859  32.992   9.164
 2851POPC   GL137933   5.821  33.065   8.864
 2851POPC   GL237934   6.001  32.908   8.864
 2851POPC   C1A37935   5.833  33.063   8.564
 2851POPC   D2A37936   5.895  33.000   8.264
 2851POPC   C3A37937   5.879  33.002   7.964
 2851POPC   C4A37938   5.849  33.065   7.664
 2851POPC   C1B37939   6.037  32.816   8.564
 2851POPC   C2B37940   6.056  32.790   8.264
 2851POPC   C3B37941   6.048  32.822   7.964
 2851POPC   C4B37942   6.002  32.855   7.664
 2852POPC   NC337943  42.322  18.299   9.464
 2852POPC   PO437944  42.379  18.317   9.164
 2852POPC   GL137945  42.292  18.274   8.864
 2852POPC   GL237946  42.364  18.143   8.864
 2852POPC   C1A37947  42.303  18.282   8.564
 2852POPC   D2A37948  42.299  18.259   8.264
 2852POPC   C3A37949  42.354  18.331   7.964
 2852POPC   C4A37950  42.316  18.323   7.664
 2852POPC   C1B37951  42.339  18.001   8.564
 2852POPC   C2B37952  42.345  18.033   8.264
 2852POPC   C3B37953  42.383  17.989   7.964
 2852POPC   C4B37954  42.372  18.053   7.664
 2853POPC   NC337955  31.487   5.119   9.464
 2853POPC   PO437956  31.428   5.090   9.164
 2853POPC   GL137957  31.436   5.140   8.864
 2853POPC   GL237958  31.467   5.007   8.864
 2853POPC   C1A37959  31.489   5.098   8.564
 2853POPC   D2A37960  31.458   5.142   8.264
 2853POPC   C3A37961  31.477   5.101   7.964
 2853POPC   C4A37962  31.473   5.094   7.664
 2853POPC   C1B37963  31.481   4.814   8.564
 2853POPC   C2B37964  31.456   4.816   8.264
 2853POPC   C3B37965  31.444   4.846   7.964
 2853POPC   C4B37966  31.502   4.823   7.664
 2854POPC   NC337967   3.528  34.583   9.464
 2854POPC   PO437968   3.584  34.527   9.164
 2854POPC   GL137969   3.522  34.549   8.864
 2854POPC   GL237970   3.475  34.415   8.864
 2854POPC   C1A37971   3.540  34.620   8.564
 2854POPC   D2A37972   3.521  34.570   8.264
 2854POPC   C3A37973   3.559  34.572   7.964
 2854POPC   C4A37974   3.503  34.579   7.664
 2854POPC   C1B37975   3.425  34.341   8.564
 2854POPC   C2B37976   3.454  34.307   8.264
 2854POPC   C3B37977   3.440  34.383   7.964
 2854POPC   C4B37978   3.403  34.305   7.664
 2855POPC   NC337979  36.177   2.036   9.464
 2855POPC   PO437980  36.086   2.009   9.164
 2855POPC   GL137981  36.171   1.993   8.864
 2855POPC   GL237982  36.060   2.052   8.864
 2855POPC   C1A37983  36.173   1.984   8.564
 2855POPC   D2A37984  36.134   1.961   8.264
 2855POPC   C3A37985  36.128   2.007   7.964
 2855POPC   C4A37986  36.117   1.962   7.664
 2855POPC   C1B37987  35.936   2.195   8.564
 2855POPC   C2B37988  36.030   2.169   8.264
 2855POPC   C3B37989  35.997   2.214   7.964
 2855POPC   C4B37990  36.027   2.200   7.664
 2856POPC   NC337991   5.089  19.016   9.464
 2856POPC   PO437992   5.073  19.030   9.164
 2856POPC   GL137993   5.071  19.012   8.864
 2856POPC   GL237994   5.164  19.182   8.864
 2856POPC   C1A37995   5.122  19.013   8.564
 2856POPC   D2A37996   5.044  19.036   8.264
 2856POPC   C3A37997   5.093  19.082   7.964
 2856POPC   C4A37998   5.050  19.088   7.664
 2856POPC   C1B37999   5.270  19.222   8.564
 2856POPC   C2B38000   5.209  19.281   8.264
 2856POPC   C3B38001   5.215  19.203   7.964
 2856POPC   C4B38002   5.266  19.252   7.664
 2857POPC   NC338003  36.157   7.461   9.464
 2857POPC   PO438004  36.094   7.415   9.164
 2857POPC   GL138005  36.126   7.441   8.864
 2857POPC   GL238006  36.176   7.491   8.864
 2857POPC   C1A38007  36.125   7.379   8.564
 2857POPC   D2A38008  36.116   7.381   8.264
 2857POPC   C3A38009  36.152   7.444   7.964
 2857POPC   C4A38010  36.119   7.467   7.664
 2857POPC   C1B38011  36.324   7.614   8.564
 2857POPC   C2B38012  36.241   7.638   8.264
 2857POPC   C3B38013  36.314   7.594   7.964
 2857POPC   C4B38014  36.323   7.595   7.664
 2858POPC   NC338015  42.357  19.852   9.464
 2858POPC   PO438016  42.331  19.832   9.164
 2858POPC   GL138017  42.382  19.813   8.864
 2858POPC   GL238018  42.250  19.725   8.864
 2858POPC   C1A38019  42.369  19.880   8.564
 2858POPC   D2A38020  42.285  19.877   8.264
 2858POPC   C3A38021  42.377  19.802   7.964
 2858POPC   C4A38022  42.286  19.803   7.664
 2858POPC   C1B38023  42.152  19.741   8.564
 2858POPC   C2B38024  42.073  19.668   8.264
 2858POPC   C3B38025  42.072  19.692   7.964
 2858POPC   C4B38026  42.086  19.711   7.664
 2859POPC   NC338027  31.473  30.689   9.464
 2859POPC   PO438028  31.472  30.735   9.164
 2859POPC   GL138029  31.500  30.661   8.864
 2859POPC   GL238030  31.543  30.801   8.864
 2859POPC   C1A38031  31.454  30.691   8.564
 2859POPC   D2A38032  31.430  30.718   8.264
 2859POPC   C3A38033  31.440  30.675   7.964
 2859POPC   C4A38034  31.440  30.668   7.664
 2859POPC   C1B38035  31.570  30.927   8.564
 2859POPC   C2B38036  31.629  30.945   8.264
 2859POPC   C3B38037  31.581  30.864   7.964
 2859POPC   C4B38038  31.609  30.865   7.664
 2860POPC   NC338039  40.791   5.856   9.464
 2860POPC   PO438040  40.748   5.877   9.164
 2860POPC   GL138041  40.808   5.864   8.864
 2860POPC   GL238042  40.787   6.040   8.864
 2860POPC   C1A38043  40.767   5.862   8.564
 2860POPC   D2A38044  40.805   5.884   8.264
 2860POPC   C3A38045  40.766   5.896   7.964
 2860POPC   C4A38046  40.790   5.835   7.664
 2860POPC   C1B38047  40.822   6.142   8.564
 2860POPC   C2B38048  40.775   6.135   8.264
 2860POPC   C3B38049  40.785   6.073   7.964
 2860POPC   C4B38050  40.738   6.099   7.664
 2861POPC   NC338051  19.017  36.172   9.464
 2861POPC   PO438052  19.077  36.158   9.164
 2861POPC   GL138053  19.048  36.097   8.864
 2861POPC   GL238054  18.968  36.112   8.864
 2861POPC   C1A38055  19.106  36.090   8.564
 2861POPC   D2A38056  19.102  36.081   8.264
 2861POPC   C3A38057  19.078  36.146   7.964
 2861POPC   C4A38058  19.034  36.177   7.664
 2861POPC   C1B38059  18.819  36.082   8.564
 2861POPC   C2B38060  18.810  36.070   8.264
 2861POPC   C3B38061  18.812  36.060   7.964
 2861POPC   C4B38062  18.783  36.123   7.664
 2862POPC   NC338063  36.906  20.586   9.464
 2862POPC   PO438064  36.888  20.657   9.164
 2862POPC   GL138065  36.894  20.592   8.864
 2862POPC   GL238066  36.830  20.709   8.864
 2862POPC   C1A38067  36.936  20.587   8.564
 2862POPC   D2A38068  36.883  20.656   8.264
 2862POPC   C3A38069  36.877  20.649   7.964
 2862POPC   C4A38070  36.890  20.630   7.664
 2862POPC   C1B38071  36.813  20.785   8.564
 2862POPC   C2B38072  36.735  20.865   8.264
 2862POPC   C3B38073  36.770  20.857   7.964
 2862POPC   C4B38074  36.793  20.809   7.664
 2863POPC   NC338075  26.806   9.002   9.464
 2863POPC   PO438076  26.860   8.997   9.164
 2863POPC   GL138077  26.809   9.001   8.864
 2863POPC   GL238078  26.682   8.900   8.864
 2863POPC   C1A38079  26.800   8.926   8.564
 2863POPC   D2A38080  26.833   9.017   8.264
 2863POPC   C3A38081  26.852   8.970   7.964
 2863POPC   C4A38082  26.780   8.987   7.664
 2863POPC   C1B38083  26.595   8.790   8.564
 2863POPC   C2B38084  26.593   8.853   8.264
 2863POPC   C3B38085  26.570   8.833   7.964
 2863POPC   C4B38086  26.665   8.827   7.664
 2864POPC   NC338087  16.702   1.947   9.464
 2864POPC   PO438088  16.773   1.987   9.164
 2864POPC   GL138089  16.701   2.024   8.864
 2864POPC   GL238090  16.746   2.102   8.864
 2864POPC   C1A38091  16.706   2.035   8.564
 2864POPC   D2A38092  16.715   2.010   8.264
 2864POPC   C3A38093  16.690   1.983   7.964
 2864POPC   C4A38094  16.756   1.966   7.664
 2864POPC   C1B38095  16.863   2.236   8.564
 2864POPC   C2B38096  16.857   2.247   8.264
 2864POPC   C3B38097  16.840   2.214   7.964
 2864POPC   C4B38098  16.848   2.224   7.664
 2865POPC   NC338099  39.231   0.464   9.464
 2865POPC   PO438100  39.280   0.405   9.164
 2865POPC   GL138101  39.250   0.421   8.864
 2865POPC   GL238102  39.204   0.522   8.864
 2865POPC   C1A38103  39.212   0.428   8.564
 2865POPC   D2A38104  39.263   0.403   8.264
 2865POPC   C3A38105  39.256   0.445   7.964
 2865POPC   C4A38106  39.217   0.470   7.664
 2865POPC   C1B38107  39.129   0.671   8.564
 2865POPC   C2B38108  39.061   0.623   8.264
 2865POPC   C3B38109  39.106   0.698   7.964
 2865POPC   C4B38110  39.104   0.644   7.664
 2866POPC   NC338111  43.879  38.504   9.464
 2866POPC   PO438112  43.910  38.445   9.164
 2866POPC   GL138113  43.877  38.479   8.864
 2866POPC   GL238114  43.856  38.602   8.864
 2866POPC   C1A38115  43.888  38.424   8.564
 2866POPC   D2A38116  43.850  38.505   8.264
 2866POPC   C3A38117  43.885  38.414   7.964
 2866POPC   C4A38118  43.861  38.449   7.664
 2866POPC   C1B38119  43.824  38.727   8.564
 2866POPC   C2B38120  43.783  38.722   8.264
 2866POPC   C3B38121  43.805  38.668   7.964
 2866POPC   C4B38122  43.807  38.666   7.664
 2867POPC   NC338123   1.215  13.623   9.464
 2867POPC   PO438124   1.166  13.628   9.164
 2867POPC   GL138125   1.167  13.592   8.864
 2867POPC   GL238126   1.318  13.631   8.864
 2867POPC   C1A38127   1.232  13.637   8.564
 2867POPC   D2A38128   1.173  13.623   8.264
 2867POPC   C3A38129   1.208  13.652   7.964
 2867POPC   C4A38130   1.251  13.606   7.664
 2867POPC   C1B38131   1.410  13.528   8.564
 2867POPC   C2B38132   1.450  13.513   8.264
 2867POPC   C3B38133   1.407  13.547   7.964
 2867POPC   C4B38134   1.490  13.551   7.664
 2868POPC   NC338135  14.437   9.743   9.464
 2868POPC   PO438136  14.442   9.745   9.164
 2868POPC   GL138137  14.425   9.779   8.864
 2868POPC   GL238138  14.533   9.682   8.864
 2868POPC   C1A38139  14.374   9.740   8.564
 2868POPC   D2A38140  14.446   9.734   8.264
 2868POPC   C3A38141  14.368   9.790   7.964
 2868POPC   C4A38142  14.354   9.757   7.664
 2868POPC   C1B38143  14.604   9.699   8.564
 2868POPC   C2B38144  14.627   9.671   8.264
 2868POPC   C3B38145  14.626   9.690   7.964
 2868POPC   C4B38146  14.641   9.721   7.664
 2869POPC   NC338147   9.706  15.974   9.464
 2869POPC   PO438148   9.769  15.999   9.164
 2869POPC   GL138149   9.703  15.996   8.864
 2869POPC   GL238150   9.659  16.034   8.864
 2869POPC   C1A38151   9.771  15.971   8.564
 2869POPC   D2A38152   9.709  15.915   8.264
 2869POPC   C3A38153   9.776  15.931   7.964
 2869POPC   C4A38154   9.798  15.987   7.664
 2869POPC   C1B38155   9.570  16.145   8.564
 2869POPC   C2B38156   9.541  16.154   8.264
 2869POPC   C3B38157   9.557  16.120   7.964
 2869POPC   C4B38158   9.557  16.126   7.664
 2870POPC   NC338159  19.059  18.327   9.464
 2870POPC   PO438160  19.092  18.271   9.164
 2870POPC   GL138161  19.027  18.320   8.864
 2870POPC   GL238162  19.096  18.156   8.864
 2870POPC   C1A38163  19.013  18.307   8.564
 2870POPC   D2A38164  19.041  18.320   8.264
 2870POPC   C3A38165  19.085  18.328   7.964
 2870POPC   C4A38166  19.044  18.275   7.664
 2870POPC   C1B38167  19.060  17.996   8.564
 2870POPC   C2B38168  19.072  18.066   8.264
 2870POPC   C3B38169  19.091  17.984   7.964
 2870POPC   C4B38170  19.089  18.072   7.664
 2871POPC   NC338171  36.893  36.144   9.464
 2871POPC   PO438172  36.899  36.101   9.164
 2871POPC   GL138173  36.890  36.122   8.864
 2871POPC   GL238174  36.945  36.247   8.864
 2871POPC   C1A38175  36.941  36.114   8.564
 2871POPC   D2A38176  36.856  36.156   8.264
 2871POPC   C3A38177  36.919  36.094   7.964
 2871POPC   C4A38178  36.951  36.164   7.664
 2871POPC   C1B38179  37.058  36.300   8.564
 2871POPC   C2B38180  37.084  36.285   8.264
 2871POPC   C3B38181  37.125  36.332   7.964
 2871POPC   C4B38182  37.101  36.263   7.664
 2872POPC   NC338183  20.636   5.067   9.464
 2872POPC   PO438184  20.659   5.085   9.164
 2872POPC   GL138185  20.608   5.078   8.864
 2872POPC   GL238186  20.733   5.080   8.864
 2872POPC   C1A38187  20.586   5.091   8.564
 2872POPC   D2A38188  20.621   5.105   8.264
 2872POPC   C3A38189  20.643   5.092   7.964
 2872POPC   C4A38190  20.654   5.078   7.664
 2872POPC   C1B38191  20.872   5.101   8.564
 2872POPC   C2B38192  20.869   5.130   8.264
 2872POPC   C3B38193  20.886   5.088   7.964
 2872POPC   C4B38194  20.897   5.110   7.664
 2873POPC   NC338195  36.148  43.110   9.464
 2873POPC   PO438196  36.124  43.128   9.164
 2873POPC   GL138197  36.156  43.107   8.864
 2873POPC   GL238198  36.180  43.202   8.864
 2873POPC   C1A38199  36.155  43.114   8.564
 2873POPC   D2A38200  36.165  43.132   8.264
 2873POPC   C3A38201  36.174  43.064   7.964
 2873POPC   C4A38202  36.090  43.104   7.664
 2873POPC   C1B38203  36.291  43.246   8.564
 2873POPC   C2B38204  36.350  43.309   8.264
 2873POPC   C3B38205  36.257  43.262   7.964
 2873POPC   C4B38206  36.275  43.310   7.664
 2874POPC   NC338207  19.085  40.783   9.464
 2874POPC   PO438208  19.025  40.786   9.164
 2874POPC   GL138209  19.093  40.789   8.864
 2874POPC   GL238210  18.925  40.732   8.864
 2874POPC   C1A38211  19.102  40.793   8.564
 2874POPC   D2A38212  19.102  40.793   8.264
 2874POPC   C3A38213  19.100  40.754   7.964
 2874POPC   C4A38214  19.039  40.761   7.664
 2874POPC   C1B38215  18.842  40.650   8.564
 2874POPC   C2B38216  18.839  40.643   8.264
 2874POPC   C3B38217  18.898  40.620   7.964
 2874POPC   C4B38218  18.817  40.607   7.664
 2875POPC   NC338219  22.117  43.123   9.464
 2875POPC   PO438220  22.135  43.107   9.164
 2875POPC   GL138221  22.160  43.131   8.864
 2875POPC   GL238222  22.257  43.015   8.864
 2875POPC   C1A38223  22.179  43.127   8.564
 2875POPC   D2A38224  22.130  43.152   8.264
 2875POPC   C3A38225  22.197  43.132   7.964
 2875POPC   C4A38226  22.168  43.126   7.664
 2875POPC   C1B38227  22.333  42.941   8.564
 2875POPC   C2B38228  22.309  42.932   8.264
 2875POPC   C3B38229  22.272  42.890   7.964
 2875POPC   C4B38230  22.329  42.956   7.664
 2876POPC   NC338231  34.549   9.746   9.464
 2876POPC   PO438232  34.574   9.723   9.164
 2876POPC   GL138233  34.529   9.764   8.864
 2876POPC   GL238234  34.665   9.859   8.864
 2876POPC   C1A38235  34.608   9.762   8.564
 2876POPC   D2A38236  34.593   9.714   8.264
 2876POPC   C3A38237  34.577   9.750   7.964
 2876POPC   C4A38238  34.539   9.733   7.664
 2876POPC   C1B38239  34.835   9.898   8.564
 2876POPC   C2B38240  34.829   9.899   8.264
 2876POPC   C3B38241  34.755   9.841   7.964
 2876POPC   C4B38242  34.839   9.843   7.664
 2877POPC   NC338243  44.624  40.771   9.464
 2877POPC   PO438244  44.642  40.776   9.164
 2877POPC   GL138245  44.658  40.815   8.864
 2877POPC   GL238246  44.756  40.707   8.864
 2877POPC   C1A38247  44.624  40.822   8.564
 2877POPC   D2A38248  44.706  40.815   8.264
 2877POPC   C3A38249  44.654  40.821   7.964
 2877POPC   C4A38250  44.699  40.824   7.664
 2877POPC   C1B38251  44.787  40.554   8.564
 2877POPC   C2B38252  44.825  40.581   8.264
 2877POPC   C3B38253  44.839  40.553   7.964
 2877POPC   C4B38254  44.783  40.629   7.664
 2878POPC   NC338255  26.784  23.749   9.464
 2878POPC   PO438256  26.832  23.682   9.164
 2878POPC   GL138257  26.807  23.680   8.864
 2878POPC   GL238258  26.855  23.840   8.864
 2878POPC   C1A38259  26.820  23.699   8.564
 2878POPC   D2A38260  26.783  23.762   8.264
 2878POPC   C3A38261  26.798  23.709   7.964
 2878POPC   C4A38262  26.818  23.740   7.664
 2878POPC   C1B38263  26.953  23.924   8.564
 2878POPC   C2B38264  26.936  23.940   8.264
 2878POPC   C3B38265  26.916  23.961   7.964
 2878POPC   C4B38266  26.930  23.955   7.664
 2879POPC   NC338267  35.351   2.028   9.464
 2879POPC   PO438268  35.308   1.945   9.164
 2879POPC   GL138269  35.401   2.010   8.864
 2879POPC   GL238270  35.378   2.132   8.864
 2879POPC   C1A38271  35.349   1.953   8.564
 2879POPC   D2A38272  35.380   1.993   8.264
 2879POPC   C3A38273  35.357   2.008   7.964
 2879POPC   C4A38274  35.329   2.016   7.664
 2879POPC   C1B38275  35.401   2.199   8.564
 2879POPC   C2B38276  35.460   2.233   8.264
 2879POPC   C3B38277  35.430   2.237   7.964
 2879POPC   C4B38278  35.391   2.281   7.664
 2880POPC   NC338279  30.661  19.099   9.464
 2880POPC   PO438280  30.660  19.039   9.164
 2880POPC   GL138281  30.674  19.091   8.864
 2880POPC   GL238282  30.725  19.215   8.864
 2880POPC   C1A38283  30.745  19.092   8.564
 2880POPC   D2A38284  30.660  19.075   8.264
 2880POPC   C3A38285  30.743  19.067   7.964
 2880POPC   C4A38286  30.742  19.039   7.664
 2880POPC   C1B38287  30.729  19.352   8.564
 2880POPC   C2B38288  30.718  19.337   8.264
 2880POPC   C3B38289  30.739  19.283   7.964
 2880POPC   C4B38290  30.731  19.265   7.664
 2881POPC   NC338291   6.617  15.147   9.464
 2881POPC   PO438292   6.602  15.190   9.164
 2881POPC   GL138293   6.688  15.182   8.864
 2881POPC   GL238294   6.495  15.151   8.864
 2881POPC   C1A38295   6.608  15.173   8.564
 2881POPC   D2A38296   6.600  15.160   8.264
 2881POPC   C3A38297   6.602  15.213   7.964
 2881POPC   C4A38298   6.652  15.188   7.664
 2881POPC   C1B38299   6.402  15.134   8.564
 2881POPC   C2B38300   6.428  15.100   8.264
 2881POPC   C3B38301   6.361  15.074   7.964
 2881POPC   C4B38302   6.436  15.094   7.664
 2882POPC   NC338303  41.558  27.559   9.464
 2882POPC   PO438304  41.530  27.548   9.164
 2882POPC   GL138305  41.586  27.608   8.864
 2882POPC   GL238306  41.575  27.429   8.864
 2882POPC   C1A38307  41.533  27.617   8.564
 2882POPC   D2A38308  41.600  27.608   8.264
 2882POPC   C3A38309  41.517  27.543   7.964
 2882POPC   C4A38310  41.532  27.563   7.664
 2882POPC   C1B38311  41.559  27.326   8.564
 2882POPC   C2B38312  41.566  27.302   8.264
 2882POPC   C3B38313  41.599  27.364   7.964
 2882POPC   C4B38314  41.576  27.337   7.664
 2883POPC   NC338315  26.011   8.163   9.464
 2883POPC   PO438316  26.075   8.192   9.164
 2883POPC   GL138317  26.039   8.197   8.864
 2883POPC   GL238318  26.052   8.062   8.864
 2883POPC   C1A38319  26.041   8.168   8.564
 2883POPC   D2A38320  26.060   8.166   8.264
 2883POPC   C3A38321  26.025   8.200   7.964
 2883POPC   C4A38322  26.063   8.187   7.664
 2883POPC   C1B38323  25.952   7.938   8.564
 2883POPC   C2B38324  26.035   7.927   8.264
 2883POPC   C3B38325  26.005   7.947   7.964
 2883POPC   C4B38326  26.002   7.967   7.664
 2884POPC   NC338327   5.836  43.089   9.464
 2884POPC   PO438328   5.881  43.114   9.164
 2884POPC   GL138329   5.899  43.109   8.864
 2884POPC   GL238330   5.858  42.983   8.864
 2884POPC   C1A38331   5.890  43.096   8.564
 2884POPC   D2A38332   5.858  43.100   8.264
 2884POPC   C3A38333   5.863  43.103   7.964
 2884POPC   C4A38334   5.882  43.150   7.664
 2884POPC   C1B38335   5.761  42.867   8.564
 2884POPC   C2B38336   5.776  42.890   8.264
 2884POPC   C3B38337   5.811  42.900   7.964
 2884POPC   C4B38338   5.780  42.839   7.664
 2885POPC   NC338339  38.450  34.595   9.464
 2885POPC   PO438340  38.440  34.566   9.164
 2885POPC   GL138341  38.428  34.571   8.864
 2885POPC   GL238342  38.357  34.625   8.864
 2885POPC   C1A38343  38.503  34.551   8.564
 2885POPC   D2A38344  38.444  34.556   8.264
 2885POPC   C3A38345  38.478  34.625   7.964
 2885POPC   C4A38346  38.487  34.559   7.664
 2885POPC   C1B38347  38.190  34.589   8.564
 2885POPC   C2B38348  38.233  34.639   8.264
 2885POPC   C3B38349  38.206  34.614   7.964
 2885POPC   C4B38350  38.207  34.650   7.664
 2886POPC   NC338351  15.943   9.743   9.464
 2886POPC   PO438352  15.914   9.748   9.164
 2886POPC   GL138353  16.000   9.738   8.864
 2886POPC   GL238354  15.928   9.589   8.864
 2886POPC   C1A38355  15.942   9.742   8.564
 2886POPC   D2A38356  15.997   9.741   8.264
 2886POPC   C3A38357  15.936   9.772   7.964
 2886POPC   C4A38358  15.921   9.734   7.664
 2886POPC   C1B38359  15.937   9.477   8.564
 2886POPC   C2B38360  15.891   9.542   8.264
 2886POPC   C3B38361  15.907   9.526   7.964
 2886POPC   C4B38362  15.974   9.546   7.664
 2887POPC   NC338363  24.458  27.575   9.464
 2887POPC   PO438364  24.498  27.587   9.164
 2887POPC   GL138365  24.447  27.555   8.864
 2887POPC   GL238366  24.394  27.706   8.864
 2887POPC   C1A38367  24.455  27.546   8.564
 2887POPC   D2A38368  24.498  27.585   8.264
 2887POPC   C3A38369  24.463  27.596   7.964
 2887POPC   C4A38370  24.527  27.576   7.664
 2887POPC   C1B38371  24.313  27.726   8.564
 2887POPC   C2B38372  24.367  27.802   8.264
 2887POPC   C3B38373  24.315  27.796   7.964
 2887POPC   C4B38374  24.343  27.769   7.664
 2888POPC   NC338375  16.780  23.754   9.464
 2888POPC   PO438376  16.779  23.686   9.164
 2888POPC   GL138377  16.708  23.757   8.864
 2888POPC   GL238378  16.899  23.735   8.864
 2888POPC   C1A38379  16.757  23.701   8.564
 2888POPC   D2A38380  16.767  23.677   8.264
 2888POPC   C3A38381  16.721  23.676   7.964
 2888POPC   C4A38382  16.691  23.759   7.664
 2888POPC   C1B38383  16.942  23.791   8.564
 2888POPC   C2B38384  17.010  23.751   8.264
 2888POPC   C3B38385  16.943  23.765   7.964
 2888POPC   C4B38386  17.008  23.770   7.664
 2889POPC   NC338387  22.203   8.980   9.464
 2889POPC   PO438388  22.140   8.942   9.164
 2889POPC   GL138389  22.119   8.990   8.864
 2889POPC   GL238390  22.059   9.024   8.864
 2889POPC   C1A38391  22.145   8.963   8.564
 2889POPC   D2A38392  22.138   8.935   8.264
 2889POPC   C3A38393  22.170   8.996   7.964
 2889POPC   C4A38394  22.142   8.963   7.664
 2889POPC   C1B38395  21.891   8.991   8.564
 2889POPC   C2B38396  21.935   9.057   8.264
 2889POPC   C3B38397  21.924   9.070   7.964
 2889POPC   C4B38398  21.906   8.997   7.664
 2890POPC   NC338399  28.404   2.001   9.464
 2890POPC   PO438400  28.409   2.036   9.164
 2890POPC   GL138401  28.340   1.988   8.864
 2890POPC   GL238402  28.245   2.041   8.864
 2890POPC   C1A38403  28.407   2.023   8.564
 2890POPC   D2A38404  28.346   2.002   8.264
 2890POPC   C3A38405  28.415   1.963   7.964
 2890POPC   C4A38406  28.392   1.972   7.664
 2890POPC   C1B38407  28.152   1.974   8.564
 2890POPC   C2B38408  28.133   2.010   8.264
 2890POPC   C3B38409  28.126   2.009   7.964
 2890POPC   C4B38410  28.155   2.018   7.664
 2891POPC   NC338411  18.296  12.089   9.464
 2891POPC   PO438412  18.263  12.071   9.164
 2891POPC   GL138413  18.257  12.047   8.864
 2891POPC   GL238414  18.386  12.208   8.864
 2891POPC   C1A38415  18.308  12.117   8.564
 2891POPC   D2A38416  18.307  12.060   8.264
 2891POPC   C3A38417  18.253  12.038   7.964
 2891POPC   C4A38418  18.313  12.117   7.664
 2891POPC   C1B38419  18.468  12.262   8.564
 2891POPC   C2B38420  18.375  12.291   8.264
 2891POPC   C3B38421  18.409  12.281   7.964
 2891POPC   C4B38422  18.407  12.319   7.664
 2892POPC   NC338423  10.516  24.529   9.464
 2892POPC   PO438424  10.570  24.535   9.164
 2892POPC   GL138425  10.518  24.494   8.864
 2892POPC   GL238426  10.638  24.517   8.864
 2892POPC   C1A38427  10.546  24.452   8.564
 2892POPC   D2A38428  10.531  24.441   8.264
 2892POPC   C3A38429  10.561  24.440   7.964
 2892POPC   C4A38430  10.561  24.483   7.664
 2892POPC   C1B38431  10.816  24.443   8.564
 2892POPC   C2B38432  10.744  24.443   8.264
 2892POPC   C3B38433  10.795  24.406   7.964
 2892POPC   C4B38434  10.724  24.412   7.664
 2893POPC   NC338435  37.701  29.959   9.464
 2893POPC   PO438436  37.694  29.906   9.164
 2893POPC   GL138437  37.666  29.918   8.864
 2893POPC   GL238438  37.638  29.837   8.864
 2893POPC   C1A38439  37.648  29.923   8.564
 2893POPC   D2A38440  37.706  29.886   8.264
 2893POPC   C3A38441  37.648  29.949   7.964
 2893POPC   C4A38442  37.671  29.960   7.664
 2893POPC   C1B38443  37.649  29.664   8.564
 2893POPC   C2B38444  37.580  29.711   8.264
 2893POPC   C3B38445  37.654  29.670   7.964
 2893POPC   C4B38446  37.579  29.638   7.664
 2894POPC   NC338447  15.161  29.939   9.464
 2894POPC   PO438448  15.210  29.947   9.164
 2894POPC   GL138449  15.192  29.950   8.864
 2894POPC   GL238450  15.065  30.049   8.864
 2894POPC   C1A38451  15.164  29.923   8.564
 2894POPC   D2A38452  15.147  29.952   8.264
 2894POPC   C3A38453  15.225  29.934   7.964
 2894POPC   C4A38454  15.168  29.882   7.664
 2894POPC   C1B38455  15.009  30.096   8.564
 2894POPC   C2B38456  15.028  30.135   8.264
 2894POPC   C3B38457  15.059  30.169   7.964
 2894POPC   C4B38458  14.995  30.169   7.664
 2895POPC   NC338459  40.013   4.307   9.464
 2895POPC   PO438460  40.020   4.355   9.164
 2895POPC   GL138461  39.973   4.274   8.864
 2895POPC   GL238462  39.920   4.349   8.864
 2895POPC   C1A38463  40.046   4.343   8.564
 2895POPC   D2A38464  39.957   4.334   8.264
 2895POPC   C3A38465  40.041   4.280   7.964
 2895POPC   C4A38466  40.005   4.366   7.664
 2895POPC   C1B38467  39.728   4.323   8.564
 2895POPC   C2B38468  39.723   4.308   8.264
 2895POPC   C3B38469  39.758   4.307   7.964
 2895POPC   C4B38470  39.719   4.337   7.664
 2896POPC   NC338471  44.704   5.848   9.464
 2896POPC   PO438472  44.691   5.889   9.164
 2896POPC   GL138473  44.685   5.896   8.864
 2896POPC   GL238474  44.809   5.927   8.864
 2896POPC   C1A38475  44.633   5.871   8.564
 2896POPC   D2A38476  44.646   5.895   8.264
 2896POPC   C3A38477  44.696   5.865   7.964
 2896POPC   C4A38478  44.635   5.892   7.664
 2896POPC   C1B38479  44.909   5.922   8.564
 2896POPC   C2B38480  44.877   5.931   8.264
 2896POPC   C3B38481  44.909   5.918   7.964
 2896POPC   C4B38482  44.875   5.950   7.664
 2897POPC   NC338483  15.172  18.289   9.464
 2897POPC   PO438484  15.151  18.321   9.164
 2897POPC   GL138485  15.199  18.259   8.864
 2897POPC   GL238486  15.110  18.389   8.864
 2897POPC   C1A38487  15.207  18.247   8.564
 2897POPC   D2A38488  15.224  18.240   8.264
 2897POPC   C3A38489  15.132  18.262   7.964
 2897POPC   C4A38490  15.161  18.302   7.664
 2897POPC   C1B38491  15.048  18.487   8.564
 2897POPC   C2B38492  15.055  18.563   8.264
 2897POPC   C3B38493  15.144  18.485   7.964
 2897POPC   C4B38494  15.075  18.506   7.664
 2898POPC   NC338495  25.237  21.385   9.464
 2898POPC   PO438496  25.219  21.394   9.164
 2898POPC   GL138497  25.239  21.408   8.864
 2898POPC   GL238498  25.378  21.348   8.864
 2898POPC   C1A38499  25.276  21.403   8.564
 2898POPC   D2A38500  25.234  21.365   8.264
 2898POPC   C3A38501  25.260  21.408   7.964
 2898POPC   C4A38502  25.259  21.381   7.664
 2898POPC   C1B38503  25.501  21.273   8.564
 2898POPC   C2B38504  25.452  21.234   8.264
 2898POPC   C3B38505  25.426  21.195   7.964
 2898POPC   C4B38506  25.494  21.231   7.664
 2899POPC   NC338507  32.215  35.312   9.464
 2899POPC   PO438508  32.256  35.363   9.164
 2899POPC   GL138509  32.238  35.325   8.864
 2899POPC   GL238510  32.131  35.471   8.864
 2899POPC   C1A38511  32.255  35.321   8.564
 2899POPC   D2A38512  32.290  35.365   8.264
 2899POPC   C3A38513  32.224  35.327   7.964
 2899POPC   C4A38514  32.261  35.377   7.664
 2899POPC   C1B38515  32.026  35.577   8.564
 2899POPC   C2B38516  32.074  35.539   8.264
 2899POPC   C3B38517  32.064  35.532   7.964
 2899POPC   C4B38518  32.082  35.514   7.664
 2900POPC   NC338519  41.529   8.936   9.464
 2900POPC   PO438520  41.544   9.004   9.164
 2900POPC   GL138521  41.607   8.974   8.864
 2900POPC   GL238522  41.460   8.887   8.864
 2900POPC   C1A38523  41.598   8.966   8.564
 2900POPC   D2A38524  41.559   9.010   8.264
 2900POPC   C3A38525  41.542   9.018   7.964
 2900POPC   C4A38526  41.575   8.989   7.664
 2900POPC   C1B38527  41.427   8.702   8.564
 2900POPC   C2B38528  41.447   8.704   8.264
 2900POPC   C3B38529  41.400   8.770   7.964
 2900POPC   C4B38530  41.395   8.752   7.664
 2901POPC   NC338531  42.336   1.245   9.464
 2901POPC   PO438532  42.325   1.193   9.164
 2901POPC   GL138533  42.328   1.236   8.864
 2901POPC   GL238534  42.261   1.250   8.864
 2901POPC   C1A38535  42.322   1.210   8.564
 2901POPC   D2A38536  42.356   1.244   8.264
 2901POPC   C3A38537  42.315   1.241   7.964
 2901POPC   C4A38538  42.284   1.201   7.664
 2901POPC   C1B38539  42.148   1.331   8.564
 2901POPC   C2B38540  42.146   1.367   8.264
 2901POPC   C3B38541  42.157   1.347   7.964
 2901POPC   C4B38542  42.070   1.273   7.664
 2902POPC   NC338543  38.407  18.263   9.464
 2902POPC   PO438544  38.460  18.305   9.164
 2902POPC   GL138545  38.416  18.282   8.864
 2902POPC   GL238546  38.476  18.383   8.864
 2902POPC   C1A38547  38.452  18.242   8.564
 2902POPC   D2A38548  38.494  18.325   8.264
 2902POPC   C3A38549  38.410  18.266   7.964
 2902POPC   C4A38550  38.416  18.236   7.664
 2902POPC   C1B38551  38.449  18.564   8.564
 2902POPC   C2B38552  38.435  18.556   8.264
 2902POPC   C3B38553  38.454  18.507   7.964
 2902POPC   C4B38554  38.451  18.518   7.664
 2903POPC   NC338555  22.933  23.740   9.464
 2903POPC   PO438556  22.951  23.742   9.164
 2903POPC   GL138557  22.974  23.705   8.864
 2903POPC   GL238558  22.821  23.765   8.864
 2903POPC   C1A38559  22.923  23.671   8.564
 2903POPC   D2A38560  22.903  23.677   8.264
 2903POPC   C3A38561  22.893  23.733   7.964
 2903POPC   C4A38562  22.938  23.760   7.664
 2903POPC   C1B38563  22.654  23.819   8.564
 2903POPC   C2B38564  22.711  23.752   8.264
 2903POPC   C3B38565  22.661  23.805   7.964
 2903POPC   C4B38566  22.674  23.787   7.664
 2904POPC   NC338567  43.103  37.672   9.464
 2904POPC   PO438568  43.111  37.658   9.164
 2904POPC   GL138569  43.127  37.679   8.864
 2904POPC   GL238570  42.959  37.781   8.864
 2904POPC   C1A38571  43.104  37.712   8.564
 2904POPC   D2A38572  43.127  37.726   8.264
 2904POPC   C3A38573  43.144  37.650   7.964
 2904POPC   C4A38574  43.153  37.674   7.664
 2904POPC   C1B38575  42.908  37.844   8.564
 2904POPC   C2B38576  42.881  37.808   8.264
 2904POPC   C3B38577  42.853  37.843   7.964
 2904POPC   C4B38578  42.858  37.851   7.664
 2905POPC   NC338579  44.626   0.455   9.464
 2905POPC   PO438580  44.660   0.419   9.164
 2905POPC   GL138581  44.661   0.394   8.864
 2905POPC   GL238582  44.517   0.497   8.864
 2905POPC   C1A38583  44.679   0.391   8.564
 2905POPC   D2A38584  44.666   0.422   8.264
 2905POPC   C3A38585  44.687   0.485   7.964
 2905POPC   C4A38586  44.684   0.485   7.664
 2905POPC   C1B38587  44.443   0.601   8.564
 2905POPC   C2B38588  44.410   0.556   8.264
 2905POPC   C3B38589  44.491   0.552   7.964
 2905POPC   C4B38590  44.470   0.538   7.664
 2906POPC   NC338591  10.552  33.051   9.464
 2906POPC   PO438592  10.568  32.977   9.164
 2906POPC   GL138593  10.573  33.015   8.864
 2906POPC   GL238594  10.632  33.114   8.864
 2906POPC   C1A38595  10.542  33.070   8.564
 2906POPC   D2A38596  10.504  32.992   8.264
 2906POPC   C3A38597  10.531  33.074   7.964
 2906POPC   C4A38598  10.539  33.046   7.664
 2906POPC   C1B38599  10.704  33.244   8.564
 2906POPC   C2B38600  10.654  33.270   8.264
 2906POPC   C3B38601  10.624  33.213   7.964
 2906POPC   C4B38602  10.616  33.231   7.664
 2907POPC   NC338603  21.419  31.432   9.464
 2907POPC   PO438604  21.427  31.452   9.164
 2907POPC   GL138605  21.352  31.431   8.864
 2907POPC   GL238606  21.372  31.644   8.864
 2907POPC   C1A38607  21.359  31.470   8.564
 2907POPC   D2A38608  21.422  31.481   8.264
 2907POPC   C3A38609  21.371  31.463   7.964
 2907POPC   C4A38610  21.343  31.447   7.664
 2907POPC   C1B38611  21.406  31.749   8.564
 2907POPC   C2B38612  21.379  31.723   8.264
 2907POPC   C3B38613  21.370  31.768   7.964
 2907POPC   C4B38614  21.415  31.724   7.664
 2908POPC   NC338615  40.010  34.617   9.464
 2908POPC   PO438616  39.968  34.534   9.164
 2908POPC   GL138617  40.029  34.587   8.864
 2908POPC   GL238618  39.971  34.401   8.864
 2908POPC   C1A38619  39.973  34.558   8.564
 2908POPC   D2A38620  40.029  34.554   8.264
 2908POPC   C3A38621  40.035  34.582   7.964
 2908POPC   C4A38622  39.967  34.620   7.664
 2908POPC   C1B38623  40.027  34.362   8.564
 2908POPC   C2B38624  40.038  34.283   8.264
 2908POPC   C3B38625  39.973  34.312   7.964
 2908POPC   C4B38626  40.067  34.314   7.664
 2909POPC   NC338627  28.368  29.936   9.464
 2909POPC   PO438628  28.331  29.882   9.164
 2909POPC   GL138629  28.379  29.953   8.864
 2909POPC   GL238630  28.271  29.821   8.864
 2909POPC   C1A38631  28.398  29.960   8.564
 2909POPC   D2A38632  28.418  29.939   8.264
 2909POPC   C3A38633  28.359  29.955   7.964
 2909POPC   C4A38634  28.403  29.962   7.664
 2909POPC   C1B38635  28.194  29.703   8.564
 2909POPC   C2B38636  28.190  29.740   8.264
 2909POPC   C3B38637  28.221  29.754   7.964
 2909POPC   C4B38638  28.239  29.715   7.664
 2910POPC   NC338639  43.893  39.226   9.464
 2910POPC   PO438640  43.877  39.238   9.164
 2910POPC   GL138641  43.907  39.273   8.864
 2910POPC   GL238642  43.998  39.223   8.864
 2910POPC   C1A38643  43.932  39.227   8.564
 2910POPC   D2A38644  43.868  39.194   8.264
 2910POPC   C3A38645  43.886  39.248   7.964
 2910POPC   C4A38646  43.847  39.278   7.664
 2910POPC   C1B38647  44.128  39.162   8.564
 2910POPC   C2B38648  44.090  39.108   8.264
 2910POPC   C3B38649  44.139  39.146   7.964
 2910POPC   C4B38650  44.109  39.101   7.664
 2911POPC   NC338651  18.245  25.255   9.464
 2911POPC   PO438652  18.286  25.221   9.164
 2911POPC   GL138653  18.235  25.246   8.864
 2911POPC   GL238654  18.272  25.122   8.864
 2911POPC   C1A38655  18.298  25.304   8.564
 2911POPC   D2A38656  18.325  25.235   8.264
 2911POPC   C3A38657  18.250  25.251   7.964
 2911POPC   C4A38658  18.297  25.216   7.664
 2911POPC   C1B38659  18.379  25.032   8.564
 2911POPC   C2B38660  18.376  25.014   8.264
 2911POPC   C3B38661  18.313  25.055   7.964
 2911POPC   C4B38662  18.358  25.055   7.664
 2912POPC   NC338663  23.696  40.771   9.464
 2912POPC   PO438664  23.708  40.735   9.164
 2912POPC   GL138665  23.701  40.824   8.864
 2912POPC   GL238666  23.832  40.908   8.864
 2912POPC   C1A38667  23.713  40.823   8.564
 2912POPC   D2A38668  23.694  40.804   8.264
 2912POPC   C3A38669  23.716  40.767   7.964
 2912POPC   C4A38670  23.751  40.773   7.664
 2912POPC   C1B38671  23.874  40.968   8.564
 2912POPC   C2B38672  23.880  41.011   8.264
 2912POPC   C3B38673  23.888  40.954   7.964
 2912POPC   C4B38674  23.894  40.955   7.664
 2913POPC   NC338675  19.843  39.990   9.464
 2913POPC   PO438676  19.864  40.017   9.164
 2913POPC   GL138677  19.882  40.045   8.864
 2913POPC   GL238678  19.663  39.978   8.864
 2913POPC   C1A38679  19.861  39.981   8.564
 2913POPC   D2A38680  19.867  40.057   8.264
 2913POPC   C3A38681  19.812  39.986   7.964
 2913POPC   C4A38682  19.855  39.985   7.664
 2913POPC   C1B38683  19.542  39.998   8.564
 2913POPC   C2B38684  19.569  39.983   8.264
 2913POPC   C3B38685  19.586  39.976   7.964
 2913POPC   C4B38686  19.539  39.987   7.664
 2914POPC   NC338687   6.650   1.195   9.464
 2914POPC   PO438688   6.664   1.254   9.164
 2914POPC   GL138689   6.604   1.211   8.864
 2914POPC   GL238690   6.591   1.133   8.864
 2914POPC   C1A38691   6.635   1.165   8.564
 2914POPC   D2A38692   6.629   1.180   8.264
 2914POPC   C3A38693   6.653   1.238   7.964
 2914POPC   C4A38694   6.688   1.252   7.664
 2914POPC   C1B38695   6.590   1.011   8.564
 2914POPC   C2B38696   6.548   1.002   8.264
 2914POPC   C3B38697   6.625   0.956   7.964
 2914POPC   C4B38698   6.617   0.953   7.664
 2915POPC   NC338699   6.632  27.628   9.464
 2915POPC   PO438700   6.604  27.631   9.164
 2915POPC   GL138701   6.666  27.622   8.864
 2915POPC   GL238702   6.585  27.440   8.864
 2915POPC   C1A38703   6.658  27.637   8.564
 2915POPC   D2A38704   6.621  27.605   8.264
 2915POPC   C3A38705   6.597  27.608   7.964
 2915POPC   C4A38706   6.675  27.641   7.664
 2915POPC   C1B38707   6.517  27.404   8.564
 2915POPC   C2B38708   6.503  27.404   8.264
 2915POPC   C3B38709   6.510  27.332   7.964
 2915POPC   C4B38710   6.476  27.383   7.664
 2916POPC   NC338711  33.763  16.688   9.464
 2916POPC   PO438712  33.829  16.749   9.164
 2916POPC   GL138713  33.792  16.708   8.864
 2916POPC   GL238714  33.858  16.702   8.864
 2916POPC   C1A38715  33.762  16.709   8.564
 2916POPC   D2A38716  33.776  16.751   8.264
 2916POPC   C3A38717  33.771  16.754   7.964
 2916POPC   C4A38718  33.807  16.755   7.664
 2916POPC   C1B38719  33.984  16.533   8.564
 2916POPC   C2B38720  33.985  16.591   8.264
 2916POPC   C3B38721  34.006  16.593   7.964
 2916POPC   C4B38722  33.966  16.585   7.664
 2917POPC   NC338723  31.490  22.195   9.464
 2917POPC   PO438724  31.461  22.178   9.164
 2917POPC   GL138725  31.429  22.112   8.864
 2917POPC   GL238726  31.557  22.272   8.864
 2917POPC   C1A38727  31.467  22.157   8.564
 2917POPC   D2A38728  31.512  22.125   8.264
 2917POPC   C3A38729  31.439  22.150   7.964
 2917POPC   C4A38730  31.437  22.119   7.664
 2917POPC   C1B38731  31.566  22.379   8.564
 2917POPC   C2B38732  31.561  22.390   8.264
 2917POPC   C3B38733  31.578  22.384   7.964
 2917POPC   C4B38734  31.552  22.374   7.664
 2918POPC   NC338735  34.548   1.950   9.464
 2918POPC   PO438736  34.526   2.011   9.164
 2918POPC   GL138737  34.616   2.003   8.864
 2918POPC   GL238738  34.679   1.951   8.864
 2918POPC   C1A38739  34.529   1.950   8.564
 2918POPC   D2A38740  34.618   1.973   8.264
 2918POPC   C3A38741  34.537   1.951   7.964
 2918POPC   C4A38742  34.623   1.971   7.664
 2918POPC   C1B38743  34.807   1.825   8.564
 2918POPC   C2B38744  34.749   1.882   8.264
 2918POPC   C3B38745  34.821   1.886   7.964
 2918POPC   C4B38746  34.808   1.822   7.664
 2919POPC   NC338747  19.095  24.464   9.464
 2919POPC   PO438748  19.056  24.492   9.164
 2919POPC   GL138749  19.059  24.504   8.864
 2919POPC   GL238750  19.182  24.566   8.864
 2919POPC   C1A38751  19.045  24.462   8.564
 2919POPC   D2A38752  19.013  24.469   8.264
 2919POPC   C3A38753  19.084  24.455   7.964
 2919POPC   C4A38754  19.076  24.476   7.664
 2919POPC   C1B38755  19.212  24.667   8.564
 2919POPC   C2B38756  19.188  24.716   8.264
 2919POPC   C3B38757  19.262  24.719   7.964
 2919POPC   C4B38758  19.209  24.717   7.664
 2920POPC   NC338759   0.481  23.713   9.464
 2920POPC   PO438760   0.395  23.690   9.164
 2920POPC   GL138761   0.454  23.683   8.864
 2920POPC   GL238762   0.539  23.722   8.864
 2920POPC   C1A38763   0.456  23.723   8.564
 2920POPC   D2A38764   0.445  23.729   8.264
 2920POPC   C3A38765   0.445  23.757   7.964
 2920POPC   C4A38766   0.429  23.717   7.664
 2920POPC   C1B38767   0.643  23.709   8.564
 2920POPC   C2B38768   0.694  23.645   8.264
 2920POPC   C3B38769   0.707  23.711   7.964
 2920POPC   C4B38770   0.708  23.685   7.664
 2921POPC   NC338771  30.683  23.704   9.464
 2921POPC   PO438772  30.732  23.687   9.164
 2921POPC   GL138773  30.668  23.696   8.864
 2921POPC   GL238774  30.734  23.556   8.864
 2921POPC   C1A38775  30.674  23.698   8.564
 2921POPC   D2A38776  30.693  23.668   8.264
 2921POPC   C3A38777  30.683  23.737   7.964
 2921POPC   C4A38778  30.671  23.734   7.664
 2921POPC   C1B38779  30.820  23.466   8.564
 2921POPC   C2B38780  30.803  23.454   8.264
 2921POPC   C3B38781  30.807  23.446   7.964
 2921POPC   C4B38782  30.813  23.497   7.664
 2922POPC   NC338783   5.864  17.472   9.464
 2922POPC   PO438784   5.823  17.543   9.164
 2922POPC   GL138785   5.878  17.492   8.864
 2922POPC   GL238786   5.892  17.427   8.864
 2922POPC   C1A38787   5.896  17.507   8.564
 2922POPC   D2A38788   5.837  17.545   8.264
 2922POPC   C3A38789   5.908  17.521   7.964
 2922POPC   C4A38790   5.843  17.548   7.664
 2922POPC   C1B38791   5.988  17.333   8.564
 2922POPC   C2B38792   5.980  17.273   8.264
 2922POPC   C3B38793   6.001  17.345   7.964
 2922POPC   C4B38794   5.995  17.265   7.664
 2923POPC   NC338795  43.861  35.343   9.464
 2923POPC   PO438796  43.916  35.380   9.164
 2923POPC   GL138797  43.920  35.305   8.864
 2923POPC   GL238798  43.870  35.433   8.864
 2923POPC   C1A38799  43.890  35.311   8.564
 2923POPC   D2A38800  43.897  35.399   8.264
 2923POPC   C3A38801  43.859  35.357   7.964
 2923POPC   C4A38802  43.905  35.386   7.664
 2923POPC   C1B38803  43.824  35.589   8.564
 2923POPC   C2B38804  43.806  35.574   8.264
 2923POPC   C3B38805  43.813  35.550   7.964
 2923POPC   C4B38806  43.795  35.577   7.664
 2924POPC   NC338807  37.669  41.511   9.464
 2924POPC   PO438808  37.688  41.536   9.164
 2924POPC   GL138809  37.700  41.595   8.864
 2924POPC   GL238810  37.523  41.568   8.864
 2924POPC   C1A38811  37.692  41.591   8.564
 2924POPC   D2A38812  37.697  41.597   8.264
 2924POPC   C3A38813  37.655  41.601   7.964
 2924POPC   C4A38814  37.660  41.515   7.664
 2924POPC   C1B38815  37.420  41.528   8.564
 2924POPC   C2B38816  37.415  41.578   8.264
 2924POPC   C3B38817  37.443  41.548   7.964
 2924POPC   C4B38818  37.434  41.577   7.664
 2925POPC   NC338819  34.533  19.084   9.464
 2925POPC   PO438820  34.615  19.037   9.164
 2925POPC   GL138821  34.578  19.012   8.864
 2925POPC   GL238822  34.658  19.006   8.864
 2925POPC   C1A38823  34.551  19.054   8.564
 2925POPC   D2A38824  34.565  19.013   8.264
 2925POPC   C3A38825  34.604  19.036   7.964
 2925POPC   C4A38826  34.596  19.091   7.664
 2925POPC   C1B38827  34.856  18.998   8.564
 2925POPC   C2B38828  34.814  19.064   8.264
 2925POPC   C3B38829  34.844  18.990   7.964
 2925POPC   C4B38830  34.855  18.997   7.664
 2926POPC   NC338831  11.307  19.882   9.464
 2926POPC   PO438832  11.321  19.859   9.164
 2926POPC   GL138833  11.305  19.818   8.864
 2926POPC   GL238834  11.302  19.744   8.864
 2926POPC   C1A38835  11.347  19.881   8.564
 2926POPC   D2A38836  11.298  19.882   8.264
 2926POPC   C3A38837  11.316  19.881   7.964
 2926POPC   C4A38838  11.251  19.840   7.664
 2926POPC   C1B38839  11.196  19.645   8.564
 2926POPC   C2B38840  11.237  19.645   8.264
 2926POPC   C3B38841  11.262  19.555   7.964
 2926POPC   C4B38842  11.248  19.590   7.664
 2927POPC   NC338843  32.296  41.565   9.464
 2927POPC   PO438844  32.268  41.555   9.164
 2927POPC   GL138845  32.295  41.594   8.864
 2927POPC   GL238846  32.184  41.449   8.864
 2927POPC   C1A38847  32.289  41.536   8.564
 2927POPC   D2A38848  32.218  41.540   8.264
 2927POPC   C3A38849  32.282  41.560   7.964
 2927POPC   C4A38850  32.211  41.545   7.664
 2927POPC   C1B38851  32.195  41.291   8.564
 2927POPC   C2B38852  32.171  41.333   8.264
 2927POPC   C3B38853  32.179  41.279   7.964
 2927POPC   C4B38854  32.158  41.269   7.664
 2928POPC   NC338855  27.604  34.620   9.464
 2928POPC   PO438856  27.625  34.591   9.164
 2928POPC   GL138857  27.625  34.583   8.864
 2928POPC   GL238858  27.515  34.653   8.864
 2928POPC   C1A38859  27.601  34.594   8.564
 2928POPC   D2A38860  27.590  34.543   8.264
 2928POPC   C3A38861  27.618  34.557   7.964
 2928POPC   C4A38862  27.573  34.577   7.664
 2928POPC   C1B38863  27.397  34.784   8.564
 2928POPC   C2B38864  27.423  34.734   8.264
 2928POPC   C3B38865  27.381  34.785   7.964
 2928POPC   C4B38866  27.378  34.703   7.664
 2929POPC   NC338867  34.597  14.363   9.464
 2929POPC   PO438868  34.617  14.358   9.164
 2929POPC   GL138869  34.554  14.354   8.864
 2929POPC   GL238870  34.500  14.529   8.864
 2929POPC   C1A38871  34.624  14.376   8.564
 2929POPC   D2A38872  34.596  14.405   8.264
 2929POPC   C3A38873  34.552  14.363   7.964
 2929POPC   C4A38874  34.550  14.427   7.664
 2929POPC   C1B38875  34.416  14.591   8.564
 2929POPC   C2B38876  34.430  14.568   8.264
 2929POPC   C3B38877  34.388  14.582   7.964
 2929POPC   C4B38878  34.386  14.607   7.664
 2930POPC   NC338879  26.023  44.665   9.464
 2930POPC   PO438880  26.042  44.626   9.164
 2930POPC   GL138881  26.030  44.660   8.864
 2930POPC   GL238882  26.095  44.553   8.864
 2930POPC   C1A38883  26.089  44.623   8.564
 2930POPC   D2A38884  26.033  44.665   8.264
 2930POPC   C3A38885  26.035  44.636   7.964
 2930POPC   C4A38886  26.076  44.636   7.664
 2930POPC   C1B38887  26.132  44.463   8.564
 2930POPC   C2B38888  26.098  44.430   8.264
 2930POPC   C3B38889  26.183  44.483   7.964
 2930POPC   C4B38890  26.109  44.402   7.664
 2931POPC   NC338891  32.295  10.550   9.464
 2931POPC   PO438892  32.270  10.534   9.164
 2931POPC   GL138893  32.210  10.503   8.864
 2931POPC   GL238894  32.167  10.443   8.864
 2931POPC   C1A38895  32.255  10.508   8.564
 2931POPC   D2A38896  32.297  10.564   8.264
 2931POPC   C3A38897  32.246  10.503   7.964
 2931POPC   C4A38898  32.251  10.524   7.664
 2931POPC   C1B38899  32.070  10.313   8.564
 2931POPC   C2B38900  32.112  10.306   8.264
 2931POPC   C3B38901  32.068  10.270   7.964
 2931POPC   C4B38902  32.125  10.299   7.664
 2932POPC   NC338903  24.534  19.850   9.464
 2932POPC   PO438904  24.449  19.815   9.164
 2932POPC   GL138905  24.446  19.872   8.864
 2932POPC   GL238906  24.470  19.758   8.864
 2932POPC   C1A38907  24.482  19.832   8.564
 2932POPC   D2A38908  24.522  19.856   8.264
 2932POPC   C3A38909  24.486  19.788   7.964
 2932POPC   C4A38910  24.466  19.883   7.664
 2932POPC   C1B38911  24.515  19.624   8.564
 2932POPC   C2B38912  24.489  19.569   8.264
 2932POPC   C3B38913  24.555  19.546   7.964
 2932POPC   C4B38914  24.580  19.590   7.664
 2933POPC   NC338915  29.925  21.371   9.464
 2933POPC   PO438916  29.915  21.346   9.164
 2933POPC   GL138917  29.941  21.397   8.864
 2933POPC   GL238918  29.993  21.527   8.864
 2933POPC   C1A38919  29.925  21.408   8.564
 2933POPC   D2A38920  29.947  21.414   8.264
 2933POPC   C3A38921  29.902  21.346   7.964
 2933POPC   C4A38922  29.935  21.373   7.664
 2933POPC   C1B38923  30.030  21.635   8.564
 2933POPC   C2B38924  30.028  21.559   8.264
 2933POPC   C3B38925  30.046  21.574   7.964
 2933POPC   C4B38926  30.034  21.599   7.664
 2934POPC   NC338927  44.672  19.866   9.464
 2934POPC   PO438928  44.631  19.866   9.164
 2934POPC   GL138929  44.675  19.805   8.864
 2934POPC   GL238930  44.554  19.911   8.864
 2934POPC   C1A38931  44.706  19.797   8.564
 2934POPC   D2A38932  44.652  19.794   8.264
 2934POPC   C3A38933  44.709  19.817   7.964
 2934POPC   C4A38934  44.704  19.869   7.664
 2934POPC   C1B38935  44.445  20.000   8.564
 2934POPC   C2B38936  44.487  19.966   8.264
 2934POPC   C3B38937  44.456  20.001   7.964
 2934POPC   C4B38938  44.497  19.971   7.664
 2935POPC   NC338939  36.125  39.229   9.464
 2935POPC   PO438940  36.088  39.214   9.164
 2935POPC   GL138941  36.078  39.273   8.864
 2935POPC   GL238942  36.124  39.141   8.864
 2935POPC   C1A38943  36.132  39.246   8.564
 2935POPC   D2A38944  36.143  39.194   8.264
 2935POPC   C3A38945  36.148  39.181   7.964
 2935POPC   C4A38946  36.166  39.199   7.664
 2935POPC   C1B38947  36.154  38.932   8.564
 2935POPC   C2B38948  36.115  38.956   8.264
 2935POPC   C3B38949  36.103  38.987   7.964
 2935POPC   C4B38950  36.137  38.962   7.664
 2936POPC   NC338951   8.950  36.942   9.464
 2936POPC   PO438952   8.982  36.909   9.164
 2936POPC   GL138953   8.960  36.867   8.864
 2936POPC   GL238954   8.866  36.917   8.864
 2936POPC   C1A38955   9.000  36.914   8.564
 2936POPC   D2A38956   9.016  36.895   8.264
 2936POPC   C3A38957   8.997  36.857   7.964
 2936POPC   C4A38958   9.014  36.914   7.664
 2936POPC   C1B38959   8.736  36.938   8.564
 2936POPC   C2B38960   8.693  36.908   8.264
 2936POPC   C3B38961   8.710  36.873   7.964
 2936POPC   C4B38962   8.702  36.947   7.664
 2937POPC   NC338963  41.548  11.279   9.464
 2937POPC   PO438964  41.559  11.332   9.164
 2937POPC   GL138965  41.561  11.349   8.864
 2937POPC   GL238966  41.682  11.255   8.864
 2937POPC   C1A38967  41.578  11.333   8.564
 2937POPC   D2A38968  41.597  11.328   8.264
 2937POPC   C3A38969  41.577  11.341   7.964
 2937POPC   C4A38970  41.578  11.268   7.664
 2937POPC   C1B38971  41.851  11.278   8.564
 2937POPC   C2B38972  41.810  11.287   8.264
 2937POPC   C3B38973  41.811  11.354   7.964
 2937POPC   C4B38974  41.775  11.288   7.664
 2938POPC   NC338975  26.796  19.801   9.464
 2938POPC   PO438976  26.830  19.795   9.164
 2938POPC   GL138977  26.840  19.857   8.864
 2938POPC   GL238978  26.910  19.773   8.864
 2938POPC   C1A38979  26.855  19.825   8.564
 2938POPC   D2A38980  26.794  19.811   8.264
 2938POPC   C3A38981  26.796  19.851   7.964
 2938POPC   C4A38982  26.827  19.802   7.664
 2938POPC   C1B38983  27.043  19.732   8.564
 2938POPC   C2B38984  27.047  19.770   8.264
 2938POPC   C3B38985  27.098  19.742   7.964
 2938POPC   C4B38986  27.058  19.791   7.664
 2939POPC   NC338987  43.138  20.566   9.464
 2939POPC   PO438988  43.126  20.632   9.164
 2939POPC   GL138989  43.081  20.660   8.864
 2939POPC   GL238990  43.134  20.716   8.864
 2939POPC   C1A38991  43.142  20.583   8.564
 2939POPC   D2A38992  43.091  20.611   8.264
 2939POPC   C3A38993  43.077  20.636   7.964
 2939POPC   C4A38994  43.118  20.565   7.664
 2939POPC   C1B38995  43.092  20.833   8.564
 2939POPC   C2B38996  43.117  20.894   8.264
 2939POPC   C3B38997  43.066  20.884   7.964
 2939POPC   C4B38998  43.133  20.882   7.664
 2940POPC   NC338999  43.155  18.260   9.464
 2940POPC   PO439000  43.062  18.309   9.164
 2940POPC   GL139001  43.110  18.237   8.864
 2940POPC   GL239002  43.094  18.166   8.864
 2940POPC   C1A39003  43.123  18.237   8.564
 2940POPC   D2A39004  43.123  18.234   8.264
 2940POPC   C3A39005  43.083  18.280   7.964
 2940POPC   C4A39006  43.072  18.275   7.664
 2940POPC   C1B39007  42.966  18.018   8.564
 2940POPC   C2B39008  43.023  18.048   8.264
 2940POPC   C3B39009  43.031  18.033   7.964
 2940POPC   C4B39010  42.985  18.073   7.664
 2941POPC   NC339011   0.447  32.199   9.464
 2941POPC   PO439012   0.407  32.250   9.164
 2941POPC   GL139013   0.482  32.206   8.864
 2941POPC   GL239014   0.597  32.259   8.864
 2941POPC   C1A39015   0.391  32.293   8.564
 2941POPC   D2A39016   0.415  32.214   8.264
 2941POPC   C3A39017   0.475  32.222   7.964
 2941POPC   C4A39018   0.452  32.245   7.664
 2941POPC   C1B39019   0.689  32.193   8.564
 2941POPC   C2B39020   0.663  32.195   8.264
 2941POPC   C3B39021   0.692  32.166   7.964
 2941POPC   C4B39022   0.725  32.149   7.664
 2942POPC   NC339023  19.041  35.364   9.464
 2942POPC   PO439024  19.103  35.378   9.164
 2942POPC   GL139025  19.078  35.366   8.864
 2942POPC   GL239026  18.948  35.493   8.864
 2942POPC   C1A39027  19.049  35.313   8.564
 2942POPC   D2A39028  19.075  35.337   8.264
 2942POPC   C3A39029  19.088  35.390   7.964
 2942POPC   C4A39030  19.068  35.378   7.664
 2942POPC   C1B39031  18.887  35.599   8.564
 2942POPC   C2B39032  18.957  35.572   8.264
 2942POPC   C3B39033  18.962  35.579   7.964
 2942POPC   C4B39034  18.927  35.570   7.664
 2943POPC   NC339035  42.323   8.218   9.464
 2943POPC   PO439036  42.289   8.226   9.164
 2943POPC   GL139037  42.370   8.213   8.864
 2943POPC   GL239038  42.330   8.061   8.864
 2943POPC   C1A39039  42.307   8.178   8.564
 2943POPC   D2A39040  42.338   8.152   8.264
 2943POPC   C3A39041  42.361   8.178   7.964
 2943POPC   C4A39042  42.300   8.207   7.664
 2943POPC   C1B39043  42.248   7.945   8.564
 2943POPC   C2B39044  42.296   7.945   8.264
 2943POPC   C3B39045  42.233   7.925   7.964
 2943POPC   C4B39046  42.221   8.004   7.664
 2944POPC   NC339047   4.343  34.586   9.464
 2944POPC   PO439048   4.272  34.533   9.164
 2944POPC   GL139049   4.298  34.624   8.864
 2944POPC   GL239050   4.188  34.631   8.864
 2944POPC   C1A39051   4.276  34.541   8.564
 2944POPC   D2A39052   4.281  34.548   8.264
 2944POPC   C3A39053   4.278  34.553   7.964
 2944POPC   C4A39054   4.277  34.565   7.664
 2944POPC   C1B39055   4.113  34.762   8.564
 2944POPC   C2B39056   4.109  34.758   8.264
 2944POPC   C3B39057   4.143  34.708   7.964
 2944POPC   C4B39058   4.156  34.694   7.664
 2945POPC   NC339059  38.442   8.960   9.464
 2945POPC   PO439060  38.465   8.976   9.164
 2945POPC   GL139061  38.425   8.990   8.864
 2945POPC   GL239062  38.289   8.959   8.864
 2945POPC   C1A39063  38.482   8.944   8.564
 2945POPC   D2A39064  38.457   8.983   8.264
 2945POPC   C3A39065  38.434   8.963   7.964
 2945POPC   C4A39066  38.448   8.960   7.664
 2945POPC   C1B39067  38.229   8.904   8.564
 2945POPC   C2B39068  38.211   8.885   8.264
 2945POPC   C3B39069  38.234   8.897   7.964
 2945POPC   C4B39070  38.186   8.945   7.664
 2946POPC   NC339071  40.758  17.514   9.464
 2946POPC   PO439072  40.797  17.525   9.164
 2946POPC   GL139073  40.771  17.516   8.864
 2946POPC   GL239074  40.724  17.425   8.864
 2946POPC   C1A39075  40.764  17.540   8.564
 2946POPC   D2A39076  40.760  17.514   8.264
 2946POPC   C3A39077  40.797  17.554   7.964
 2946POPC   C4A39078  40.744  17.506   7.664
 2946POPC   C1B39079  40.691  17.264   8.564
 2946POPC   C2B39080  40.681  17.295   8.264
 2946POPC   C3B39081  40.676  17.302   7.964
 2946POPC   C4B39082  40.669  17.295   7.664
 2947POPC   NC339083   9.707   9.745   9.464
 2947POPC   PO439084   9.796   9.729   9.164
 2947POPC   GL139085   9.712   9.791   8.864
 2947POPC   GL239086   9.861   9.636   8.864
 2947POPC   C1A39087   9.719   9.743   8.564
 2947POPC   D2A39088   9.750   9.764   8.264
 2947POPC   C3A39089   9.721   9.764   7.964
 2947POPC   C4A39090   9.719   9.748   7.664
 2947POPC   C1B39091   9.885   9.558   8.564
 2947POPC   C2B39092   9.870   9.525   8.264
 2947POPC   C3B39093   9.903   9.541   7.964
 2947POPC   C4B39094   9.915   9.520   7.664
 2948POPC   NC339095   5.068  33.794   9.464
 2948POPC   PO439096   5.134  33.791   9.164
 2948POPC   GL139097   5.133  33.779   8.864
 2948POPC   GL239098   5.188  33.829   8.864
 2948POPC   C1A39099   5.062  33.757   8.564
 2948POPC   D2A39100   5.128  33.813   8.264
 2948POPC   C3A39101   5.084  33.755   7.964
 2948POPC   C4A39102   5.136  33.840   7.664
 2948POPC   C1B39103   5.295  33.797   8.564
 2948POPC   C2B39104   5.312  33.863   8.264
 2948POPC   C3B39105   5.354  33.824   7.964
 2948POPC   C4B39106   5.347  33.882   7.664
 2949POPC   NC339107  12.850  22.897   9.464
 2949POPC   PO439108  12.900  22.981   9.164
 2949POPC   GL139109  12.808  22.960   8.864
 2949POPC   GL239110  12.885  22.769   8.864
 2949POPC   C1A39111  12.834  22.944   8.564
 2949POPC   D2A39112  12.827  22.986   8.264
 2949POPC   C3A39113  12.813  22.951   7.964
 2949POPC   C4A39114  12.873  22.971   7.664
 2949POPC   C1B39115  12.854  22.664   8.564
 2949POPC   C2B39116  12.887  22.733   8.264
 2949POPC   C3B39117  12.879  22.722   7.964
 2949POPC   C4B39118  12.921  22.731   7.664
 2950POPC   NC339119  35.383  36.859   9.464
 2950POPC   PO439120  35.363  36.942   9.164
 2950POPC   GL139121  35.350  36.913   8.864
 2950POPC   GL239122  35.441  36.918   8.864
 2950POPC   C1A39123  35.375  36.879   8.564
 2950POPC   D2A39124  35.338  36.882   8.264
 2950POPC   C3A39125  35.349  36.887   7.964
 2950POPC   C4A39126  35.329  36.894   7.664
 2950POPC   C1B39127  35.588  36.821   8.564
 2950POPC   C2B39128  35.566  36.906   8.264
 2950POPC   C3B39129  35.614  36.844   7.964
 2950POPC   C4B39130  35.635  36.903   7.664
 2951POPC   NC339131  17.536   6.655   9.464
 2951POPC   PO439132  17.521   6.644   9.164
 2951POPC   GL139133  17.485   6.637   8.864
 2951POPC   GL239134  17.402   6.627   8.864
 2951POPC   C1A39135  17.459   6.659   8.564
 2951POPC   D2A39136  17.496   6.603   8.264
 2951POPC   C3A39137  17.507   6.636   7.964
 2951POPC   C4A39138  17.506   6.688   7.664
 2951POPC   C1B39139  17.243   6.500   8.564
 2951POPC   C2B39140  17.261   6.596   8.264
 2951POPC   C3B39141  17.255   6.506   7.964
 2951POPC   C4B39142  17.308   6.506   7.664
 2952POPC   NC339143  10.480  39.221   9.464
 2952POPC   PO439144  10.565  39.197   9.164
 2952POPC   GL139145  10.494  39.254   8.864
 2952POPC   GL239146  10.594  39.277   8.864
 2952POPC   C1A39147  10.540  39.235   8.564
 2952POPC   D2A39148  10.488  39.269   8.264
 2952POPC   C3A39149  10.504  39.275   7.964
 2952POPC   C4A39150  10.517  39.232   7.664
 2952POPC   C1B39151  10.733  39.367   8.564
 2952POPC   C2B39152  10.755  39.377   8.264
 2952POPC   C3B39153  10.691  39.389   7.964
 2952POPC   C4B39154  10.725  39.401   7.664
 2953POPC   NC339155  17.458  39.228   9.464
 2953POPC   PO439156  17.529  39.254   9.164
 2953POPC   GL139157  17.458  39.222   8.864
 2953POPC   GL239158  17.423  39.246   8.864
 2953POPC   C1A39159  17.468  39.215   8.564
 2953POPC   D2A39160  17.477  39.215   8.264
 2953POPC   C3A39161  17.472  39.227   7.964
 2953POPC   C4A39162  17.485  39.208   7.664
 2953POPC   C1B39163  17.273  39.127   8.564
 2953POPC   C2B39164  17.269  39.143   8.264
 2953POPC   C3B39165  17.246  39.127   7.964
 2953POPC   C4B39166  17.256  39.169   7.664
 2954POPC   NC339167  25.289   5.109   9.464
 2954POPC   PO439168  25.285   5.068   9.164
 2954POPC   GL139169  25.282   5.120   8.864
 2954POPC   GL239170  25.378   5.224   8.864
 2954POPC   C1A39171  25.313   5.109   8.564
 2954POPC   D2A39172  25.216   5.118   8.264
 2954POPC   C3A39173  25.266   5.113   7.964
 2954POPC   C4A39174  25.234   5.075   7.664
 2954POPC   C1B39175  25.465   5.234   8.564
 2954POPC   C2B39176  25.429   5.286   8.264
 2954POPC   C3B39177  25.438   5.275   7.964
 2954POPC   C4B39178  25.443   5.225   7.664
 2955POPC   NC339179  12.048  30.729   9.464
 2955POPC   PO439180  12.056  30.706   9.164
 2955POPC   GL139181  12.030  30.650   8.864
 2955POPC   GL239182  11.966  30.743   8.864
 2955POPC   C1A39183  12.123  30.689   8.564
 2955POPC   D2A39184  12.061  30.703   8.264
 2955POPC   C3A39185  12.027  30.650   7.964
 2955POPC   C4A39186  12.120  30.680   7.664
 2955POPC   C1B39187  11.839  30.784   8.564
 2955POPC   C2B39188  11.872  30.719   8.264
 2955POPC   C3B39189  11.814  30.795   7.964
 2955POPC   C4B39190  11.877  30.746   7.664
 2956POPC   NC339191  21.415  29.919   9.464
 2956POPC   PO439192  21.431  29.955   9.164
 2956POPC   GL139193  21.341  29.962   8.864
 2956POPC   GL239194  21.290  30.017   8.864
 2956POPC   C1A39195  21.403  29.923   8.564
 2956POPC   D2A39196  21.364  29.961   8.264
 2956POPC   C3A39197  21.402  29.946   7.964
 2956POPC   C4A39198  21.380  29.957   7.664
 2956POPC   C1B39199  21.319  30.163   8.564
 2956POPC   C2B39200  21.247  30.100   8.264
 2956POPC   C3B39201  21.297  30.192   7.964
 2956POPC   C4B39202  21.320  30.156   7.664
 2957POPC   NC339203   2.025  15.930   9.464
 2957POPC   PO439204   1.965  16.002   9.164
 2957POPC   GL139205   1.999  15.982   8.864
 2957POPC   GL239206   2.011  15.866   8.864
 2957POPC   C1A39207   1.968  15.953   8.564
 2957POPC   D2A39208   1.948  15.970   8.264
 2957POPC   C3A39209   2.023  15.996   7.964
 2957POPC   C4A39210   1.980  15.958   7.664
 2957POPC   C1B39211   1.969  15.754   8.564
 2957POPC   C2B39212   1.991  15.726   8.264
 2957POPC   C3B39213   1.968  15.697   7.964
 2957POPC   C4B39214   1.969  15.679   7.664
 2958POPC   NC339215  19.857  28.399   9.464
 2958POPC   PO439216  19.787  28.335   9.164
 2958POPC   GL139217  19.802  28.320   8.864
 2958POPC   GL239218  19.971  28.476   8.864
 2958POPC   C1A39219  19.843  28.362   8.564
 2958POPC   D2A39220  19.826  28.386   8.264
 2958POPC   C3A39221  19.791  28.372   7.964
 2958POPC   C4A39222  19.842  28.403   7.664
 2958POPC   C1B39223  19.987  28.485   8.564
 2958POPC   C2B39224  19.985  28.535   8.264
 2958POPC   C3B39225  20.016  28.552   7.964
 2958POPC   C4B39226  20.028  28.548   7.664
 2959POPC   NC339227  42.296   3.553   9.464
 2959POPC   PO439228  42.341   3.506   9.164
 2959POPC   GL139229  42.306   3.572   8.864
 2959POPC   GL239230  42.477   3.471   8.864
 2959POPC   C1A39231  42.317   3.516   8.564
 2959POPC   D2A39232  42.351   3.527   8.264
 2959POPC   C3A39233  42.372   3.553   7.964
 2959POPC   C4A39234  42.290   3.494   7.664
 2959POPC   C1B39235  42.542   3.496   8.564
 2959POPC   C2B39236  42.611   3.476   8.264
 2959POPC   C3B39237  42.598   3.490   7.964
 2959POPC   C4B39238  42.568   3.465   7.664
 2960POPC   NC339239  33.058  43.927   9.464
 2960POPC   PO439240  33.026  43.878   9.164
 2960POPC   GL139241  33.063  43.871   8.864
 2960POPC   GL239242  33.085  44.009   8.864
 2960POPC   C1A39243  33.060  43.859   8.564
 2960POPC   D2A39244  33.015  43.924   8.264
 2960POPC   C3A39245  32.974  43.859   7.964
 2960POPC   C4A39246  32.994  43.880   7.664
 2960POPC   C1B39247  33.185  44.063   8.564
 2960POPC   C2B39248  33.197  44.012   8.264
 2960POPC   C3B39249  33.203  44.044   7.964
 2960POPC   C4B39250  33.161  44.106   7.664
 2961POPC   NC339251   2.779  13.624   9.464
 2961POPC   PO439252   2.792  13.641   9.164
 2961POPC   GL139253   2.780  13.668   8.864
 2961POPC   GL239254   2.829  13.465   8.864
 2961POPC   C1A39255   2.750  13.592   8.564
 2961POPC   D2A39256   2.759  13.619   8.264
 2961POPC   C3A39257   2.770  13.603   7.964
 2961POPC   C4A39258   2.761  13.594   7.664
 2961POPC   C1B39259   2.794  13.343   8.564
 2961POPC   C2B39260   2.755  13.350   8.264
 2961POPC   C3B39261   2.762  13.350   7.964
 2961POPC   C4B39262   2.771  13.346   7.664
 2962POPC   NC339263   5.057  40.782   9.464
 2962POPC   PO439264   5.135  40.827   9.164
 2962POPC   GL139265   5.044  40.832   8.864
 2962POPC   GL239266   5.148  40.829   8.864
 2962POPC   C1A39267   5.050  40.810   8.564
 2962POPC   D2A39268   5.074  40.769   8.264
 2962POPC   C3A39269   5.139  40.794   7.964
 2962POPC   C4A39270   5.046  40.738   7.664
 2962POPC   C1B39271   5.337  40.962   8.564
 2962POPC   C2B39272   5.331  40.979   8.264
 2962POPC   C3B39273   5.278  40.980   7.964
 2962POPC   C4B39274   5.262  40.928   7.664
 2963POPC   NC339275  32.231  44.630   9.464
 2963POPC   PO439276  32.208  44.658   9.164
 2963POPC   GL139277  32.207  44.643   8.864
 2963POPC   GL239278  32.131  44.680   8.864
 2963POPC   C1A39279  32.240  44.698   8.564
 2963POPC   D2A39280  32.241  44.618   8.264
 2963POPC   C3A39281  32.249  44.695   7.964
 2963POPC   C4A39282  32.233  44.650   7.664
 2963POPC   C1B39283  32.019  44.699   8.564
 2963POPC   C2B39284  32.021  44.680   8.264
 2963POPC   C3B39285  31.952  44.668   7.964
 2963POPC   C4B39286  31.976  44.731   7.664
 2964POPC   NC339287  20.618   1.222   9.464
 2964POPC   PO439288  20.610   1.263   9.164
 2964POPC   GL139289  20.626   1.231   8.864
 2964POPC   GL239290  20.695   1.140   8.864
 2964POPC   C1A39291  20.641   1.225   8.564
 2964POPC   D2A39292  20.587   1.173   8.264
 2964POPC   C3A39293  20.648   1.190   7.964
 2964POPC   C4A39294  20.649   1.197   7.664
 2964POPC   C1B39295  20.798   1.062   8.564
 2964POPC   C2B39296  20.830   1.119   8.264
 2964POPC   C3B39297  20.848   1.106   7.964
 2964POPC   C4B39298  20.839   1.070   7.664
 2965POPC   NC339299  43.102  24.533   9.464
 2965POPC   PO439300  43.114  24.479   9.164
 2965POPC   GL139301  43.091  24.517   8.864
 2965POPC   GL239302  43.243  24.409   8.864
 2965POPC   C1A39303  43.094  24.455   8.564
 2965POPC   D2A39304  43.067  24.478   8.264
 2965POPC   C3A39305  43.138  24.532   7.964
 2965POPC   C4A39306  43.146  24.516   7.664
 2965POPC   C1B39307  43.329  24.394   8.564
 2965POPC   C2B39308  43.345  24.382   8.264
 2965POPC   C3B39309  43.386  24.390   7.964
 2965POPC   C4B39310  43.381  24.441   7.664
 2966POPC   NC339311  44.700  24.486   9.464
 2966POPC   PO439312  44.708  24.515   9.164
 2966POPC   GL139313  44.701  24.495   8.864
 2966POPC   GL239314  44.555  24.620   8.864
 2966POPC   C1A39315  44.687  24.482   8.564
 2966POPC   D2A39316  44.659  24.503   8.264
 2966POPC   C3A39317  44.617  24.494   7.964
 2966POPC   C4A39318  44.711  24.502   7.664
 2966POPC   C1B39319  44.461  24.644   8.564
 2966POPC   C2B39320  44.534  24.681   8.264
 2966POPC   C3B39321  44.481  24.651   7.964
 2966POPC   C4B39322  44.552  24.669   7.664
 2967POPC   NC339323  26.830  22.164   9.464
 2967POPC   PO439324  26.829  22.156   9.164
 2967POPC   GL139325  26.845  22.177   8.864
 2967POPC   GL239326  26.899  22.300   8.864
 2967POPC   C1A39327  26.831  22.172   8.564
 2967POPC   D2A39328  26.844  22.168   8.264
 2967POPC   C3A39329  26.816  22.134   7.964
 2967POPC   C4A39330  26.808  22.190   7.664
 2967POPC   C1B39331  26.957  22.384   8.564
 2967POPC   C2B39332  26.974  22.336   8.264
 2967POPC   C3B39333  26.888  22.352   7.964
 2967POPC   C4B39334  26.959  22.346   7.664
 2968POPC   NC339335  27.621   1.219   9.464
 2968POPC   PO439336  27.586   1.217   9.164
 2968POPC   GL139337  27.585   1.220   8.864
 2968POPC   GL239338  27.696   1.222   8.864
 2968POPC   C1A39339  27.613   1.236   8.564
 2968POPC   D2A39340  27.549   1.186   8.264
 2968POPC   C3A39341  27.608   1.250   7.964
 2968POPC   C4A39342  27.624   1.216   7.664
 2968POPC   C1B39343  27.808   1.205   8.564
 2968POPC   C2B39344  27.866   1.176   8.264
 2968POPC   C3B39345  27.820   1.128   7.964
 2968POPC   C4B39346  27.870   1.202   7.664
 2969POPC   NC339347  13.592  41.531   9.464
 2969POPC   PO439348  13.599  41.516   9.164
 2969POPC   GL139349  13.580  41.552   8.864
 2969POPC   GL239350  13.720  41.577   8.864
 2969POPC   C1A39351  13.668  41.590   8.564
 2969POPC   D2A39352  13.645  41.525   8.264
 2969POPC   C3A39353  13.606  41.571   7.964
 2969POPC   C4A39354  13.604  41.556   7.664
 2969POPC   C1B39355  13.853  41.675   8.564
 2969POPC   C2B39356  13.843  41.649   8.264
 2969POPC   C3B39357  13.880  41.673   7.964
 2969POPC   C4B39358  13.816  41.662   7.664
 2970POPC   NC339359  33.040  25.266   9.464
 2970POPC   PO439360  33.071  25.233   9.164
 2970POPC   GL139361  33.028  25.223   8.864
 2970POPC   GL239362  32.932  25.386   8.864
 2970POPC   C1A39363  33.033  25.261   8.564
 2970POPC   D2A39364  33.061  25.235   8.264
 2970POPC   C3A39365  33.044  25.311   7.964
 2970POPC   C4A39366  33.025  25.216   7.664
 2970POPC   C1B39367  32.911  25.461   8.564
 2970POPC   C2B39368  32.905  25.448   8.264
 2970POPC   C3B39369  32.866  25.428   7.964
 2970POPC   C4B39370  32.823  25.504   7.664
 2971POPC   NC339371  35.375  41.565   9.464
 2971POPC   PO439372  35.339  41.552   9.164
 2971POPC   GL139373  35.368  41.553   8.864
 2971POPC   GL239374  35.253  41.620   8.864
 2971POPC   C1A39375  35.386  41.559   8.564
 2971POPC   D2A39376  35.349  41.522   8.264
 2971POPC   C3A39377  35.370  41.528   7.964
 2971POPC   C4A39378  35.379  41.526   7.664
 2971POPC   C1B39379  35.156  41.739   8.564
 2971POPC   C2B39380  35.208  41.685   8.264
 2971POPC   C3B39381  35.165  41.723   7.964
 2971POPC   C4B39382  35.178  41.676   7.664
 2972POPC   NC339383  19.034  19.876   9.464
 2972POPC   PO439384  19.098  19.873   9.164
 2972POPC   GL139385  19.078  19.871   8.864
 2972POPC   GL239386  19.129  19.907   8.864
 2972POPC   C1A39387  19.077  19.831   8.564
 2972POPC   D2A39388  19.091  19.845   8.264
 2972POPC   C3A39389  19.029  19.797   7.964
 2972POPC   C4A39390  19.026  19.837   7.664
 2972POPC   C1B39391  19.118  20.085   8.564
 2972POPC   C2B39392  19.130  20.047   8.264
 2972POPC   C3B39393  19.109  20.049   7.964
 2972POPC   C4B39394  19.127  20.026   7.664
 2973POPC   NC339395  12.855  15.152   9.464
 2973POPC   PO439396  12.809  15.197   9.164
 2973POPC   GL139397  12.843  15.212   8.864
 2973POPC   GL239398  12.839  15.305   8.864
 2973POPC   C1A39399  12.889  15.131   8.564
 2973POPC   D2A39400  12.803  15.153   8.264
 2973POPC   C3A39401  12.878  15.210   7.964
 2973POPC   C4A39402  12.821  15.164   7.664
 2973POPC   C1B39403  12.846  15.445   8.564
 2973POPC   C2B39404  12.886  15.388   8.264
 2973POPC   C3B39405  12.874  15.399   7.964
 2973POPC   C4B39406  12.827  15.421   7.664
 2974POPC   NC339407  18.234  43.064   9.464
 2974POPC   PO439408  18.269  43.072   9.164
 2974POPC   GL139409  18.320  43.108   8.864
 2974POPC   GL239410  18.396  43.031   8.864
 2974POPC   C1A39411  18.306  43.061   8.564
 2974POPC   D2A39412  18.290  43.150   8.264
 2974POPC   C3A39413  18.318  43.098   7.964
 2974POPC   C4A39414  18.264  43.078   7.664
 2974POPC   C1B39415  18.382  42.935   8.564
 2974POPC   C2B39416  18.437  42.889   8.264
 2974POPC   C3B39417  18.425  42.904   7.964
 2974POPC   C4B39418  18.391  42.933   7.664
 2975POPC   NC339419  15.165   3.561   9.464
 2975POPC   PO439420  15.223   3.522   9.164
 2975POPC   GL139421  15.199   3.585   8.864
 2975POPC   GL239422  15.265   3.645   8.864
 2975POPC   C1A39423  15.184   3.551   8.564
 2975POPC   D2A39424  15.133   3.519   8.264
 2975POPC   C3A39425  15.184   3.591   7.964
 2975POPC   C4A39426  15.137   3.584   7.664
 2975POPC   C1B39427  15.291   3.751   8.564
 2975POPC   C2B39428  15.333   3.782   8.264
 2975POPC   C3B39429  15.284   3.753   7.964
 2975POPC   C4B39430  15.319   3.712   7.664
 2976POPC   NC339431  33.055  10.572   9.464
 2976POPC   PO439432  33.064  10.476   9.164
 2976POPC   GL139433  33.065  10.546   8.864
 2976POPC   GL239434  33.146  10.595   8.864
 2976POPC   C1A39435  33.060  10.483   8.564
 2976POPC   D2A39436  33.028  10.520   8.264
 2976POPC   C3A39437  33.020  10.549   7.964
 2976POPC   C4A39438  33.030  10.533   7.664
 2976POPC   C1B39439  33.247  10.546   8.564
 2976POPC   C2B39440  33.297  10.570   8.264
 2976POPC   C3B39441  33.244  10.617   7.964
 2976POPC   C4B39442  33.222  10.581   7.664
 2977POPC   NC339443  13.608   8.200   9.464
 2977POPC   PO439444  13.579   8.200   9.164
 2977POPC   GL139445  13.643   8.227   8.864
 2977POPC   GL239446  13.658   8.051   8.864
 2977POPC   C1A39447  13.645   8.148   8.564
 2977POPC   D2A39448  13.619   8.244   8.264
 2977POPC   C3A39449  13.634   8.232   7.964
 2977POPC   C4A39450  13.624   8.187   7.664
 2977POPC   C1B39451  13.594   7.963   8.564
 2977POPC   C2B39452  13.590   7.912   8.264
 2977POPC   C3B39453  13.643   7.944   7.964
 2977POPC   C4B39454  13.676   7.977   7.664
 2978POPC   NC339455  10.505  15.137   9.464
 2978POPC   PO439456  10.478  15.198   9.164
 2978POPC   GL139457  10.570  15.216   8.864
 2978POPC   GL239458  10.623  15.036   8.864
 2978POPC   C1A39459  10.525  15.131   8.564
 2978POPC   D2A39460  10.529  15.187   8.264
 2978POPC   C3A39461  10.571  15.226   7.964
 2978POPC   C4A39462  10.479  15.223   7.664
 2978POPC   C1B39463  10.694  14.997   8.564
 2978POPC   C2B39464  10.621  14.928   8.264
 2978POPC   C3B39465  10.615  15.004   7.964
 2978POPC   C4B39466  10.666  14.995   7.664
 2979POPC   NC339467  41.521  13.599   9.464
 2979POPC   PO439468  41.608  13.622   9.164
 2979POPC   GL139469  41.572  13.593   8.864
 2979POPC   GL239470  41.593  13.521   8.864
 2979POPC   C1A39471  41.595  13.636   8.564
 2979POPC   D2A39472  41.586  13.631   8.264
 2979POPC   C3A39473  41.536  13.650   7.964
 2979POPC   C4A39474  41.552  13.615   7.664
 2979POPC   C1B39475  41.663  13.372   8.564
 2979POPC   C2B39476  41.647  13.440   8.264
 2979POPC   C3B39477  41.694  13.363   7.964
 2979POPC   C4B39478  41.670  13.412   7.664
 2980POPC   NC339479  33.791   2.806   9.464
 2980POPC   PO439480  33.759   2.727   9.164
 2980POPC   GL139481  33.850   2.756   8.864
 2980POPC   GL239482  33.733   2.885   8.864
 2980POPC   C1A39483  33.808   2.753   8.564
 2980POPC   D2A39484  33.826   2.796   8.264
 2980POPC   C3A39485  33.846   2.742   7.964
 2980POPC   C4A39486  33.752   2.752   7.664
 2980POPC   C1B39487  33.665   2.912   8.564
 2980POPC   C2B39488  33.634   2.916   8.264
 2980POPC   C3B39489  33.642   2.918   7.964
 2980POPC   C4B39490  33.598   2.946   7.664
 2981POPC   NC339491  27.616  15.146   9.464
 2981POPC   PO439492  27.618  15.173   9.164
 2981POPC   GL139493  27.560  15.177   8.864
 2981POPC   GL239494  27.617  15.095   8.864
 2981POPC   C1A39495  27.603  15.153   8.564
 2981POPC   D2A39496  27.575  15.156   8.264
 2981POPC   C3A39497  27.551  15.187   7.964
 2981POPC   C4A39498  27.598  15.150   7.664
 2981POPC   C1B39499  27.582  14.933   8.564
 2981POPC   C2B39500  27.660  14.946   8.264
 2981POPC   C3B39501  27.596  14.895   7.964
 2981POPC   C4B39502  27.601  14.926   7.664
 2982POPC   NC339503   5.068  42.374   9.464
 2982POPC   PO439504   5.086  42.326   9.164
 2982POPC   GL139505   5.130  42.383   8.864
 2982POPC   GL239506   5.239  42.354   8.864
 2982POPC   C1A39507   5.109  42.301   8.564
 2982POPC   D2A39508   5.103  42.295   8.264
 2982POPC   C3A39509   5.114  42.287   7.964
 2982POPC   C4A39510   5.051  42.345   7.664
 2982POPC   C1B39511   5.291  42.282   8.564
 2982POPC   C2B39512   5.298  42.280   8.264
 2982POPC   C3B39513   5.376  42.306   7.964
 2982POPC   C4B39514   5.374  42.302   7.664
 2983POPC   NC339515   6.615  32.211   9.464
 2983POPC   PO439516   6.656  32.265   9.164
 2983POPC   GL139517   6.619  32.220   8.864
 2983POPC   GL239518   6.534  32.155   8.864
 2983POPC   C1A39519   6.624  32.283   8.564
 2983POPC   D2A39520   6.682  32.250   8.264
 2983POPC   C3A39521   6.615  32.225   7.964
 2983POPC   C4A39522   6.682  32.216   7.664
 2983POPC   C1B39523   6.411  32.125   8.564
 2983POPC   C2B39524   6.438  32.044   8.264
 2983POPC   C3B39525   6.428  32.044   7.964
 2983POPC   C4B39526   6.420  32.055   7.664
 2984POPC   NC339527  23.764  10.553   9.464
 2984POPC   PO439528  23.679  10.552   9.164
 2984POPC   GL139529  23.713  10.492   8.864
 2984POPC   GL239530  23.757  10.633   8.864
 2984POPC   C1A39531  23.678  10.515   8.564
 2984POPC   D2A39532  23.713  10.549   8.264
 2984POPC   C3A39533  23.705  10.559   7.964
 2984POPC   C4A39534  23.715  10.524   7.664
 2984POPC   C1B39535  23.840  10.736   8.564
 2984POPC   C2B39536  23.917  10.743   8.264
 2984POPC   C3B39537  23.858  10.693   7.964
 2984POPC   C4B39538  23.898  10.748   7.664
 2985POPC   NC339539  38.408  42.376   9.464
 2985POPC   PO439540  38.422  42.351   9.164
 2985POPC   GL139541  38.500  42.312   8.864
 2985POPC   GL239542  38.515  42.220   8.864
 2985POPC   C1A39543  38.419  42.286   8.564
 2985POPC   D2A39544  38.415  42.309   8.264
 2985POPC   C3A39545  38.497  42.302   7.964
 2985POPC   C4A39546  38.418  42.287   7.664
 2985POPC   C1B39547  38.562  42.143   8.564
 2985POPC   C2B39548  38.569  42.101   8.264
 2985POPC   C3B39549  38.615  42.100   7.964
 2985POPC   C4B39550  38.556  42.165   7.664
 2986POPC   NC339551  23.724  27.621   9.464
 2986POPC   PO439552  23.754  27.593   9.164
 2986POPC   GL139553  23.743  27.566   8.864
 2986POPC   GL239554  23.572  27.597   8.864
 2986POPC   C1A39555  23.666  27.587   8.564
 2986POPC   D2A39556  23.759  27.619   8.264
 2986POPC   C3A39557  23.760  27.558   7.964
 2986POPC   C4A39558  23.689  27.595   7.664
 2986POPC   C1B39559  23.506  27.680   8.564
 2986POPC   C2B39560  23.471  27.633   8.264
 2986POPC   C3B39561  23.448  27.646   7.964
 2986POPC   C4B39562  23.464  27.659   7.664
 2987POPC   NC339563  18.305  23.740   9.464
 2987POPC   PO439564  18.262  23.693   9.164
 2987POPC   GL139565  18.260  23.693   8.864
 2987POPC   GL239566  18.353  23.720   8.864
 2987POPC   C1A39567  18.259  23.683   8.564
 2987POPC   D2A39568  18.330  23.742   8.264
 2987POPC   C3A39569  18.307  23.679   7.964
 2987POPC   C4A39570  18.309  23.717   7.664
 2987POPC   C1B39571  18.489  23.852   8.564
 2987POPC   C2B39572  18.525  23.794   8.264
 2987POPC   C3B39573  18.473  23.820   7.964
 2987POPC   C4B39574  18.485  23.775   7.664
 2988POPC   NC339575  22.921  10.512   9.464
 2988POPC   PO439576  22.982  10.550   9.164
 2988POPC   GL139577  22.948  10.516   8.864
 2988POPC   GL239578  23.036  10.393   8.864
 2988POPC   C1A39579  22.933  10.537   8.564
 2988POPC   D2A39580  22.909  10.560   8.264
 2988POPC   C3A39581  22.953  10.514   7.964
 2988POPC   C4A39582  22.909  10.495   7.664
 2988POPC   C1B39583  23.094  10.278   8.564
 2988POPC   C2B39584  23.018  10.284   8.264
 2988POPC   C3B39585  23.010  10.321   7.964
 2988POPC   C4B39586  23.056  10.297   7.664
 2989POPC   NC339587  40.763  36.873   9.464
 2989POPC   PO439588  40.778  36.938   9.164
 2989POPC   GL139589  40.823  36.913   8.864
 2989POPC   GL239590  40.695  37.026   8.864
 2989POPC   C1A39591  40.803  36.949   8.564
 2989POPC   D2A39592  40.733  36.860   8.264
 2989POPC   C3A39593  40.791  36.922   7.964
 2989POPC   C4A39594  40.739  36.905   7.664
 2989POPC   C1B39595  40.570  37.117   8.564
 2989POPC   C2B39596  40.564  37.040   8.264
 2989POPC   C3B39597  40.636  37.064   7.964
 2989POPC   C4B39598  40.557  37.042   7.664
 2990POPC   NC339599  29.172  40.781   9.464
 2990POPC   PO439600  29.130  40.758   9.164
 2990POPC   GL139601  29.144  40.802   8.864
 2990POPC   GL239602  29.088  40.665   8.864
 2990POPC   C1A39603  29.189  40.829   8.564
 2990POPC   D2A39604  29.117  40.769   8.264
 2990POPC   C3A39605  29.171  40.780   7.964
 2990POPC   C4A39606  29.103  40.751   7.664
 2990POPC   C1B39607  29.040  40.608   8.564
 2990POPC   C2B39608  29.000  40.549   8.264
 2990POPC   C3B39609  29.055  40.599   7.964
 2990POPC   C4B39610  28.997  40.605   7.664
 2991POPC   NC339611  33.028  44.641   9.464
 2991POPC   PO439612  32.997  44.653   9.164
 2991POPC   GL139613  33.055  44.686   8.864
 2991POPC   GL239614  33.050  44.722   8.864
 2991POPC   C1A39615  33.066  44.634   8.564
 2991POPC   D2A39616  32.979  44.665   8.264
 2991POPC   C3A39617  33.013  44.701   7.964
 2991POPC   C4A39618  33.012  44.663   7.664
 2991POPC   C1B39619  33.127  44.858   8.564
 2991POPC   C2B39620  33.186  44.814   8.264
 2991POPC   C3B39621  33.159  44.871   7.964
 2991POPC   C4B39622  33.220  44.833   7.664
 2992POPC   NC339623  29.946   8.157   9.464
 2992POPC   PO439624  29.889   8.234   9.164
 2992POPC   GL139625  29.892   8.162   8.864
 2992POPC   GL239626  29.756   8.238   8.864
 2992POPC   C1A39627  29.922   8.168   8.564
 2992POPC   D2A39628  29.963   8.214   8.264
 2992POPC   C3A39629  29.879   8.180   7.964
 2992POPC   C4A39630  29.963   8.219   7.664
 2992POPC   C1B39631  29.635   8.225   8.564
 2992POPC   C2B39632  29.688   8.205   8.264
 2992POPC   C3B39633  29.657   8.194   7.964
 2992POPC   C4B39634  29.721   8.234   7.664
 2993POPC   NC339635  18.249  22.956   9.464
 2993POPC   PO439636  18.267  22.980   9.164
 2993POPC   GL139637  18.333  22.965   8.864
 2993POPC   GL239638  18.244  23.097   8.864
 2993POPC   C1A39639  18.301  22.951   8.564
 2993POPC   D2A39640  18.236  22.931   8.264
 2993POPC   C3A39641  18.254  22.965   7.964
 2993POPC   C4A39642  18.278  22.939   7.664
 2993POPC   C1B39643  18.184  23.213   8.564
 2993POPC   C2B39644  18.178  23.212   8.264
 2993POPC   C3B39645  18.208  23.137   7.964
 2993POPC   C4B39646  18.247  23.191   7.664
 2994POPC   NC339647   0.440  36.916   9.464
 2994POPC   PO439648   0.417  36.878   9.164
 2994POPC   GL139649   0.425  36.944   8.864
 2994POPC   GL239650   0.367  36.975   8.864
 2994POPC   C1A39651   0.460  36.942   8.564
 2994POPC   D2A39652   0.437  36.921   8.264
 2994POPC   C3A39653   0.421  36.868   7.964
 2994POPC   C4A39654   0.394  36.901   7.664
 2994POPC   C1B39655   0.421  37.156   8.564
 2994POPC   C2B39656   0.345  37.169   8.264
 2994POPC   C3B39657   0.421  37.122   7.964
 2994POPC   C4B39658   0.354  37.180   7.664
 2995POPC   NC339659   5.113   1.949   9.464
 2995POPC   PO439660   5.056   2.034   9.164
 2995POPC   GL139661   5.069   1.978   8.864
 2995POPC   GL239662   4.940   1.942   8.864
 2995POPC   C1A39663   5.103   1.998   8.564
 2995POPC   D2A39664   5.141   1.984   8.264
 2995POPC   C3A39665   5.131   2.038   7.964
 2995POPC   C4A39666   5.104   1.967   7.664
 2995POPC   C1B39667   4.861   1.950   8.564
 2995POPC   C2B39668   4.819   1.933   8.264
 2995POPC   C3B39669   4.853   1.982   7.964
 2995POPC   C4B39670   4.844   2.003   7.664
 2996POPC   NC339671  44.648  12.045   9.464
 2996POPC   PO439672  44.641  12.048   9.164
 2996POPC   GL139673  44.636  12.034   8.864
 2996POPC   GL239674  44.619  12.031   8.864
 2996POPC   C1A39675  44.646  12.035   8.564
 2996POPC   D2A39676  44.642  12.075   8.264
 2996POPC   C3A39677  44.620  12.044   7.964
 2996POPC   C4A39678  44.640  12.045   7.664
 2996POPC   C1B39679  44.524  11.897   8.564
 2996POPC   C2B39680  44.538  11.892   8.264
 2996POPC   C3B39681  44.518  11.939   7.964
 2996POPC   C4B39682  44.496  11.874   7.664
 2997POPC   NC339683  39.238  44.710   9.464
 2997POPC   PO439684  39.215  44.667   9.164
 2997POPC   GL139685  39.264  44.649   8.864
 2997POPC   GL239686  39.108  44.671   8.864
 2997POPC   C1A39687  39.229  44.632   8.564
 2997POPC   D2A39688  39.252  44.708   8.264
 2997POPC   C3A39689  39.235  44.652   7.964
 2997POPC   C4A39690  39.201  44.635   7.664
 2997POPC   C1B39691  38.964  44.729   8.564
 2997POPC   C2B39692  38.949  44.653   8.264
 2997POPC   C3B39693  38.983  44.692   7.964
 2997POPC   C4B39694  38.946  44.733   7.664
 2998POPC   NC339695  18.322  42.306   9.464
 2998POPC   PO439696  18.299  42.351   9.164
 2998POPC   GL139697  18.267  42.351   8.864
 2998POPC   GL239698  18.441  42.309   8.864
 2998POPC   C1A39699  18.325  42.369   8.564
 2998POPC   D2A39700  18.244  42.293   8.264
 2998POPC   C3A39701  18.266  42.297   7.964
 2998POPC   C4A39702  18.247  42.316   7.664
 2998POPC   C1B39703  18.529  42.354   8.564
 2998POPC   C2B39704  18.488  42.337   8.264
 2998POPC   C3B39705  18.562  42.337   7.964
 2998POPC   C4B39706  18.517  42.375   7.664
 2999POPC   NC339707  42.307   0.461   9.464
 2999POPC   PO439708  42.366   0.468   9.164
 2999POPC   GL139709  42.316   0.473   8.864
 2999POPC   GL239710  42.465   0.527   8.864
 2999POPC   C1A39711  42.358   0.433   8.564
 2999POPC   D2A39712  42.344   0.391   8.264
 2999POPC   C3A39713  42.378   0.460   7.964
 2999POPC   C4A39714  42.366   0.477   7.664
 2999POPC   C1B39715  42.568   0.530   8.564
 2999POPC   C2B39716  42.565   0.522   8.264
 2999POPC   C3B39717  42.530   0.528   7.964
 2999POPC   C4B39718  42.519   0.542   7.664
 3000POPC   NC339719  32.225  16.709   9.464
 3000POPC   PO439720  32.245  16.709   9.164
 3000POPC   GL139721  32.255  16.753   8.864
 3000POPC   GL239722  32.411  16.746   8.864
 3000POPC   C1A39723  32.241  16.758   8.564
 3000POPC   D2A39724  32.226  16.744   8.264
 3000POPC   C3A39725  32.282  16.759   7.964
 3000POPC   C4A39726  32.205  16.722   7.664
 3000POPC   C1B39727  32.505  16.738   8.564
 3000POPC   C2B39728  32.511  16.694   8.264
 3000POPC   C3B39729  32.511  16.721   7.964
 3000POPC   C4B39730  32.466  16.728   7.664
 3001POPC   NC339731   7.412   5.886   9.464
 3001POPC   PO439732   7.380   5.857   9.164
 3001POPC   GL139733   7.415   5.857   8.864
 3001POPC   GL239734   7.456   5.726   8.864
 3001POPC   C1A39735   7.376   5.868   8.564
 3001POPC   D2A39736   7.373   5.918   8.264
 3001POPC   C3A39737   7.386   5.871   7.964
 3001POPC   C4A39738   7.423   5.888   7.664
 3001POPC   C1B39739   7.549   5.625   8.564
 3001POPC   C2B39740   7.471   5.585   8.264
 3001POPC   C3B39741   7.481   5.638   7.964
 3001POPC   C4B39742   7.459   5.592   7.664
 3002POPC   NC339743   5.832   4.308   9.464
 3002POPC   PO439744   5.917   4.341   9.164
 3002POPC   GL139745   5.879   4.272   8.864
 3002POPC   GL239746   5.753   4.309   8.864
 3002POPC   C1A39747   5.886   4.303   8.564
 3002POPC   D2A39748   5.861   4.277   8.264
 3002POPC   C3A39749   5.828   4.314   7.964
 3002POPC   C4A39750   5.860   4.279   7.664
 3002POPC   C1B39751   5.629   4.402   8.564
 3002POPC   C2B39752   5.599   4.407   8.264
 3002POPC   C3B39753   5.620   4.365   7.964
 3002POPC   C4B39754   5.608   4.393   7.664
 3003POPC   NC339755  23.758  24.488   9.464
 3003POPC   PO439756  23.739  24.505   9.164
 3003POPC   GL139757  23.726  24.524   8.864
 3003POPC   GL239758  23.733  24.419   8.864
 3003POPC   C1A39759  23.727  24.531   8.564
 3003POPC   D2A39760  23.753  24.440   8.264
 3003POPC   C3A39761  23.687  24.455   7.964
 3003POPC   C4A39762  23.703  24.498   7.664
 3003POPC   C1B39763  23.816  24.219   8.564
 3003POPC   C2B39764  23.818  24.297   8.264
 3003POPC   C3B39765  23.862  24.307   7.964
 3003POPC   C4B39766  23.854  24.272   7.664
 3004POPC   NC339767  43.061  19.011   9.464
 3004POPC   PO439768  43.151  19.092   9.164
 3004POPC   GL139769  43.080  19.070   8.864
 3004POPC   GL239770  43.030  19.011   8.864
 3004POPC   C1A39771  43.108  19.056   8.564
 3004POPC   D2A39772  43.149  19.094   8.264
 3004POPC   C3A39773  43.096  19.037   7.964
 3004POPC   C4A39774  43.134  19.056   7.664
 3004POPC   C1B39775  42.933  18.928   8.564
 3004POPC   C2B39776  42.914  18.976   8.264
 3004POPC   C3B39777  42.885  18.945   7.964
 3004POPC   C4B39778  42.899  18.965   7.664
 3005POPC   NC339779  38.443  25.221   9.464
 3005POPC   PO439780  38.490  25.266   9.164
 3005POPC   GL139781  38.450  25.278   8.864
 3005POPC   GL239782  38.293  25.334   8.864
 3005POPC   C1A39783  38.432  25.253   8.564
 3005POPC   D2A39784  38.431  25.313   8.264
 3005POPC   C3A39785  38.461  25.239   7.964
 3005POPC   C4A39786  38.408  25.291   7.664
 3005POPC   C1B39787  38.172  25.289   8.564
 3005POPC   C2B39788  38.172  25.319   8.264
 3005POPC   C3B39789  38.220  25.363   7.964
 3005POPC   C4B39790  38.224  25.348   7.664
 3006POPC   NC339791   5.126  30.726   9.464
 3006POPC   PO439792   5.139  30.723   9.164
 3006POPC   GL139793   5.070  30.727   8.864
 3006POPC   GL239794   5.194  30.639   8.864
 3006POPC   C1A39795   5.082  30.689   8.564
 3006POPC   D2A39796   5.048  30.743   8.264
 3006POPC   C3A39797   5.090  30.718   7.964
 3006POPC   C4A39798   5.084  30.718   7.664
 3006POPC   C1B39799   5.296  30.553   8.564
 3006POPC   C2B39800   5.261  30.521   8.264
 3006POPC   C3B39801   5.252  30.579   7.964
 3006POPC   C4B39802   5.286  30.573   7.664
 3007POPC   NC339803  44.694  38.415   9.464
 3007POPC   PO439804  44.633  38.479   9.164
 3007POPC   GL139805  44.637  38.491   8.864
 3007POPC   GL239806  44.640  38.548   8.864
 3007POPC   C1A39807  44.643  38.438   8.564
 3007POPC   D2A39808  44.703  38.476   8.264
 3007POPC   C3A39809  44.621  38.456   7.964
 3007POPC   C4A39810  44.650  38.446   7.664
 3007POPC   C1B39811  44.659  38.698   8.564
 3007POPC   C2B39812  44.633  38.685   8.264
 3007POPC   C3B39813  44.695  38.731   7.964
 3007POPC   C4B39814  44.686  38.687   7.664
 3008POPC   NC339815  20.566  39.979   9.464
 3008POPC   PO439816  20.602  40.035   9.164
 3008POPC   GL139817  20.605  40.016   8.864
 3008POPC   GL239818  20.704  39.973   8.864
 3008POPC   C1A39819  20.636  39.972   8.564
 3008POPC   D2A39820  20.607  40.037   8.264
 3008POPC   C3A39821  20.647  40.022   7.964
 3008POPC   C4A39822  20.580  39.971   7.664
 3008POPC   C1B39823  20.849  39.901   8.564
 3008POPC   C2B39824  20.858  39.911   8.264
 3008POPC   C3B39825  20.860  39.858   7.964
 3008POPC   C4B39826  20.768  39.907   7.664
 3009POPC   NC339827  19.791  40.782   9.464
 3009POPC   PO439828  19.792  40.800   9.164
 3009POPC   GL139829  19.878  40.771   8.864
 3009POPC   GL239830  19.781  40.820   8.864
 3009POPC   C1A39831  19.859  40.796   8.564
 3009POPC   D2A39832  19.821  40.817   8.264
 3009POPC   C3A39833  19.793  40.788   7.964
 3009POPC   C4A39834  19.832  40.811   7.664
 3009POPC   C1B39835  19.617  40.946   8.564
 3009POPC   C2B39836  19.679  40.938   8.264
 3009POPC   C3B39837  19.599  40.910   7.964
 3009POPC   C4B39838  19.675  40.908   7.664
 3010POPC   NC339839   8.161  40.033   9.464
 3010POPC   PO439840   8.157  39.958   9.164
 3010POPC   GL139841   8.244  40.013   8.864
 3010POPC   GL239842   8.159  39.880   8.864
 3010POPC   C1A39843   8.153  39.982   8.564
 3010POPC   D2A39844   8.167  39.994   8.264
 3010POPC   C3A39845   8.202  39.976   7.964
 3010POPC   C4A39846   8.228  40.048   7.664
 3010POPC   C1B39847   8.026  39.828   8.564
 3010POPC   C2B39848   7.974  39.825   8.264
 3010POPC   C3B39849   8.017  39.873   7.964
 3010POPC   C4B39850   8.026  39.809   7.664
 3011POPC   NC339851  39.263  24.503   9.464
 3011POPC   PO439852  39.211  24.471   9.164
 3011POPC   GL139853  39.261  24.474   8.864
 3011POPC   GL239854  39.218  24.376   8.864
 3011POPC   C1A39855  39.245  24.530   8.564
 3011POPC   D2A39856  39.184  24.467   8.264
 3011POPC   C3A39857  39.255  24.531   7.964
 3011POPC   C4A39858  39.259  24.540   7.664
 3011POPC   C1B39859  39.205  24.231   8.564
 3011POPC   C2B39860  39.206  24.205   8.264
 3011POPC   C3B39861  39.162  24.238   7.964
 3011POPC   C4B39862  39.212  24.227   7.664
 3012POPC   NC339863   9.756  40.805   9.464
 3012POPC   PO439864   9.707  40.736   9.164
 3012POPC   GL139865   9.725  40.745   8.864
 3012POPC   GL239866   9.735  40.897   8.864
 3012POPC   C1A39867   9.789  40.750   8.564
 3012POPC   D2A39868   9.791  40.762   8.264
 3012POPC   C3A39869   9.745  40.753   7.964
 3012POPC   C4A39870   9.737  40.791   7.664
 3012POPC   C1B39871   9.776  41.053   8.564
 3012POPC   C2B39872   9.763  41.020   8.264
 3012POPC   C3B39873   9.785  41.068   7.964
 3012POPC   C4B39874   9.837  41.035   7.664
 3013POPC   NC339875  33.804  23.682   9.464
 3013POPC   PO439876  33.776  23.759   9.164
 3013POPC   GL139877  33.794  23.720   8.864
 3013POPC   GL239878  33.660  23.738   8.864
 3013POPC   C1A39879  33.772  23.744   8.564
 3013POPC   D2A39880  33.798  23.682   8.264
 3013POPC   C3A39881  33.811  23.726   7.964
 3013POPC   C4A39882  33.783  23.691   7.664
 3013POPC   C1B39883  33.588  23.698   8.564
 3013POPC   C2B39884  33.546  23.723   8.264
 3013POPC   C3B39885  33.590  23.650   7.964
 3013POPC   C4B39886  33.593  23.708   7.664
 3014POPC   NC339887  26.767  10.494   9.464
 3014POPC   PO439888  26.847  10.520   9.164
 3014POPC   GL139889  26.835  10.571   8.864
 3014POPC   GL239890  26.676  10.431   8.864
 3014POPC   C1A39891  26.859  10.525   8.564
 3014POPC   D2A39892  26.815  10.515   8.264
 3014POPC   C3A39893  26.848  10.501   7.964
 3014POPC   C4A39894  26.767  10.530   7.664
 3014POPC   C1B39895  26.636  10.404   8.564
 3014POPC   C2B39896  26.583  10.422   8.264
 3014POPC   C3B39897  26.557  10.378   7.964
 3014POPC   C4B39898  26.612  10.393   7.664
 3015POPC   NC339899  19.796   7.442   9.464
 3015POPC   PO439900  19.824   7.390   9.164
 3015POPC   GL139901  19.871   7.464   8.864
 3015POPC   GL239902  19.922   7.443   8.864
 3015POPC   C1A39903  19.814   7.393   8.564
 3015POPC   D2A39904  19.840   7.420   8.264
 3015POPC   C3A39905  19.865   7.451   7.964
 3015POPC   C4A39906  19.820   7.396   7.664
 3015POPC   C1B39907  20.038   7.498   8.564
 3015POPC   C2B39908  20.046   7.480   8.264
 3015POPC   C3B39909  20.041   7.486   7.964
 3015POPC   C4B39910  20.086   7.510   7.664
 3016POPC   NC339911   8.218  30.706   9.464
 3016POPC   PO439912   8.213  30.689   9.164
 3016POPC   GL139913   8.174  30.720   8.864
 3016POPC   GL239914   8.315  30.678   8.864
 3016POPC   C1A39915   8.233  30.666   8.564
 3016POPC   D2A39916   8.229  30.675   8.264
 3016POPC   C3A39917   8.188  30.647   7.964
 3016POPC   C4A39918   8.154  30.674   7.664
 3016POPC   C1B39919   8.438  30.649   8.564
 3016POPC   C2B39920   8.464  30.579   8.264
 3016POPC   C3B39921   8.401  30.664   7.964
 3016POPC   C4B39922   8.479  30.656   7.664
 3017POPC   NC339923   1.235  30.745   9.464
 3017POPC   PO439924   1.246  30.716   9.164
 3017POPC   GL139925   1.215  30.696   8.864
 3017POPC   GL239926   1.090  30.808   8.864
 3017POPC   C1A39927   1.210  30.735   8.564
 3017POPC   D2A39928   1.193  30.693   8.264
 3017POPC   C3A39929   1.239  30.714   7.964
 3017POPC   C4A39930   1.199  30.692   7.664
 3017POPC   C1B39931   1.048  30.900   8.564
 3017POPC   C2B39932   1.032  30.833   8.264
 3017POPC   C3B39933   1.023  30.870   7.964
 3017POPC   C4B39934   1.045  30.878   7.664
 3018POPC   NC339935  43.080  34.602   9.464
 3018POPC   PO439936  43.082  34.571   9.164
 3018POPC   GL139937  43.076  34.579   8.864
 3018POPC   GL239938  43.188  34.717   8.864
 3018POPC   C1A39939  43.084  34.564   8.564
 3018POPC   D2A39940  43.120  34.530   8.264
 3018POPC   C3A39941  43.109  34.538   7.964
 3018POPC   C4A39942  43.132  34.571   7.664
 3018POPC   C1B39943  43.303  34.788   8.564
 3018POPC   C2B39944  43.297  34.803   8.264
 3018POPC   C3B39945  43.267  34.759   7.964
 3018POPC   C4B39946  43.289  34.743   7.664
 3019POPC   NC339947  43.905  43.109   9.464
 3019POPC   PO439948  43.878  43.093   9.164
 3019POPC   GL139949  43.844  43.120   8.864
 3019POPC   GL239950  43.867  43.248   8.864
 3019POPC   C1A39951  43.866  43.142   8.564
 3019POPC   D2A39952  43.845  43.093   8.264
 3019POPC   C3A39953  43.920  43.112   7.964
 3019POPC   C4A39954  43.863  43.076   7.664
 3019POPC   C1B39955  43.777  43.299   8.564
 3019POPC   C2B39956  43.822  43.315   8.264
 3019POPC   C3B39957  43.848  43.389   7.964
 3019POPC   C4B39958  43.801  43.372   7.664
 3020POPC   NC339959  13.616   4.315   9.464
 3020POPC   PO439960  13.642   4.331   9.164
 3020POPC   GL139961  13.592   4.316   8.864
 3020POPC   GL239962  13.719   4.155   8.864
 3020POPC   C1A39963  13.586   4.363   8.564
 3020POPC   D2A39964  13.582   4.310   8.264
 3020POPC   C3A39965  13.587   4.330   7.964
 3020POPC   C4A39966  13.609   4.272   7.664
 3020POPC   C1B39967  13.749   4.041   8.564
 3020POPC   C2B39968  13.736   4.109   8.264
 3020POPC   C3B39969  13.760   4.126   7.964
 3020POPC   C4B39970  13.726   4.129   7.664
 3021POPC   NC339971  37.678  35.331   9.464
 3021POPC   PO439972  37.678  35.358   9.164
 3021POPC   GL139973  37.727  35.330   8.864
 3021POPC   GL239974  37.617  35.385   8.864
 3021POPC   C1A39975  37.708  35.325   8.564
 3021POPC   D2A39976  37.677  35.394   8.264
 3021POPC   C3A39977  37.683  35.351   7.964
 3021POPC   C4A39978  37.701  35.347   7.664
 3021POPC   C1B39979  37.524  35.530   8.564
 3021POPC   C2B39980  37.484  35.460   8.264
 3021POPC   C3B39981  37.489  35.528   7.964
 3021POPC   C4B39982  37.494  35.540   7.664
 3022POPC   NC339983   3.526  36.151   9.464
 3022POPC   PO439984   3.525  36.148   9.164
 3022POPC   GL139985   3.514  36.168   8.864
 3022POPC   GL239986   3.515  36.006   8.864
 3022POPC   C1A39987   3.526  36.096   8.564
 3022POPC   D2A39988   3.561  36.177   8.264
 3022POPC   C3A39989   3.497  36.092   7.964
 3022POPC   C4A39990   3.492  36.078   7.664
 3022POPC   C1B39991   3.425  35.878   8.564
 3022POPC   C2B39992   3.416  35.920   8.264
 3022POPC   C3B39993   3.437  35.923   7.964
 3022POPC   C4B39994   3.410  35.939   7.664
 3023POPC   NC339995  14.427  14.394   9.464
 3023POPC   PO439996  14.419  14.423   9.164
 3023POPC   GL139997  14.380  14.449   8.864
 3023POPC   GL239998  14.553  14.320   8.864
 3023POPC   C1A39999  14.361  14.408   8.564
 3023POPC   D2A40000  14.371  14.381   8.264
 3023POPC   C3A40001  14.425  14.380   7.964
 3023POPC   C4A40002  14.397  14.422   7.664
 3023POPC   C1B40003  14.667  14.359   8.564
 3023POPC   C2B40004  14.674  14.304   8.264
 3023POPC   C3B40005  14.682  14.359   7.964
 3023POPC   C4B40006  14.623  14.355   7.664
 3024POPC   NC340007  32.979  11.274   9.464
 3024POPC   PO440008  33.022  11.277   9.164
 3024POPC   GL140009  33.024  11.307   8.864
 3024POPC   GL240010  32.962  11.187   8.864
 3024POPC   C1A40011  33.044  11.338   8.564
 3024POPC   D2A40012  32.977  11.313   8.264
 3024POPC   C3A40013  33.001  11.294   7.964
 3024POPC   C4A40014  33.063  11.292   7.664
 3024POPC   C1B40015  32.809  11.195   8.564
 3024POPC   C2B40016  32.855  11.119   8.264
 3024POPC   C3B40017  32.833  11.199   7.964
 3024POPC   C4B40018  32.804  11.120   7.664
 3025POPC   NC340019  32.233   2.787   9.464
 3025POPC   PO440020  32.224   2.799   9.164
 3025POPC   GL140021  32.244   2.720   8.864
 3025POPC   GL240022  32.194   2.604   8.864
 3025POPC   C1A40023  32.229   2.785   8.564
 3025POPC   D2A40024  32.257   2.725   8.264
 3025POPC   C3A40025  32.278   2.773   7.964
 3025POPC   C4A40026  32.216   2.789   7.664
 3025POPC   C1B40027  32.174   2.497   8.564
 3025POPC   C2B40028  32.253   2.517   8.264
 3025POPC   C3B40029  32.167   2.519   7.964
 3025POPC   C4B40030  32.197   2.548   7.664
 3026POPC   NC340031   8.935   6.686   9.464
 3026POPC   PO440032   8.944   6.603   9.164
 3026POPC   GL140033   9.006   6.679   8.864
 3026POPC   GL240034   8.839   6.661   8.864
 3026POPC   C1A40035   8.992   6.608   8.564
 3026POPC   D2A40036   8.931   6.605   8.264
 3026POPC   C3A40037   8.940   6.661   7.964
 3026POPC   C4A40038   8.963   6.677   7.664
 3026POPC   C1B40039   8.734   6.597   8.564
 3026POPC   C2B40040   8.759   6.588   8.264
 3026POPC   C3B40041   8.682   6.592   7.964
 3026POPC   C4B40042   8.702   6.655   7.664
 3027POPC   NC340043  25.273  37.651   9.464
 3027POPC   PO440044  25.315  37.719   9.164
 3027POPC   GL140045  25.283  37.655   8.864
 3027POPC   GL240046  25.183  37.790   8.864
 3027POPC   C1A40047  25.314  37.657   8.564
 3027POPC   D2A40048  25.291  37.648   8.264
 3027POPC   C3A40049  25.307  37.691   7.964
 3027POPC   C4A40050  25.286  37.664   7.664
 3027POPC   C1B40051  25.118  37.889   8.564
 3027POPC   C2B40052  25.147  37.856   8.264
 3027POPC   C3B40053  25.199  37.890   7.964
 3027POPC   C4B40054  25.151  37.923   7.664
 3028POPC   NC340055  32.268  31.514   9.464
 3028POPC   PO440056  32.210  31.505   9.164
 3028POPC   GL140057  32.268  31.516   8.864
 3028POPC   GL240058  32.155  31.416   8.864
 3028POPC   C1A40059  32.217  31.483   8.564
 3028POPC   D2A40060  32.218  31.470   8.264
 3028POPC   C3A40061  32.292  31.493   7.964
 3028POPC   C4A40062  32.284  31.464   7.664
 3028POPC   C1B40063  32.124  31.274   8.564
 3028POPC   C2B40064  32.050  31.292   8.264
 3028POPC   C3B40065  32.136  31.318   7.964
 3028POPC   C4B40066  32.125  31.234   7.664
 3029POPC   NC340067   0.401  38.485   9.464
 3029POPC   PO440068   0.427  38.463   9.164
 3029POPC   GL140069   0.425  38.484   8.864
 3029POPC   GL240070   0.530  38.531   8.864
 3029POPC   C1A40071   0.457  38.430   8.564
 3029POPC   D2A40072   0.482  38.484   8.264
 3029POPC   C3A40073   0.416  38.422   7.964
 3029POPC   C4A40074   0.428  38.482   7.664
 3029POPC   C1B40075   0.507  38.650   8.564
 3029POPC   C2B40076   0.495  38.676   8.264
 3029POPC   C3B40077   0.515  38.669   7.964
 3029POPC   C4B40078   0.521  38.697   7.664
 3030POPC   NC340079  43.897   1.177   9.464
 3030POPC   PO440080  43.877   1.246   9.164
 3030POPC   GL140081  43.926   1.245   8.864
 3030POPC   GL240082  43.799   1.149   8.864
 3030POPC   C1A40083  43.923   1.252   8.564
 3030POPC   D2A40084  43.900   1.196   8.264
 3030POPC   C3A40085  43.873   1.229   7.964
 3030POPC   C4A40086  43.873   1.197   7.664
 3030POPC   C1B40087  43.657   1.046   8.564
 3030POPC   C2B40088  43.646   1.048   8.264
 3030POPC   C3B40089  43.695   1.104   7.964
 3030POPC   C4B40090  43.678   1.120   7.664
 3031POPC   NC340091  36.883   8.189   9.464
 3031POPC   PO440092  36.880   8.190   9.164
 3031POPC   GL140093  36.889   8.221   8.864
 3031POPC   GL240094  36.878   8.037   8.864
 3031POPC   C1A40095  36.937   8.180   8.564
 3031POPC   D2A40096  36.878   8.152   8.264
 3031POPC   C3A40097  36.935   8.171   7.964
 3031POPC   C4A40098  36.950   8.191   7.664
 3031POPC   C1B40099  36.909   7.951   8.564
 3031POPC   C2B40100  36.954   7.919   8.264
 3031POPC   C3B40101  36.881   7.962   7.964
 3031POPC   C4B40102  36.925   7.949   7.664
 3032POPC   NC340103  15.990   7.404   9.464
 3032POPC   PO440104  15.999   7.419   9.164
 3032POPC   GL140105  15.918   7.432   8.864
 3032POPC   GL240106  15.914   7.273   8.864
 3032POPC   C1A40107  15.937   7.411   8.564
 3032POPC   D2A40108  15.921   7.424   8.264
 3032POPC   C3A40109  15.919   7.421   7.964
 3032POPC   C4A40110  15.991   7.373   7.664
 3032POPC   C1B40111  15.818   7.199   8.564
 3032POPC   C2B40112  15.838   7.209   8.264
 3032POPC   C3B40113  15.899   7.209   7.964
 3032POPC   C4B40114  15.844   7.149   7.664
 3033POPC   NC340115  29.163  22.921   9.464
 3033POPC   PO440116  29.139  22.943   9.164
 3033POPC   GL140117  29.175  22.952   8.864
 3033POPC   GL240118  29.017  23.024   8.864
 3033POPC   C1A40119  29.113  22.979   8.564
 3033POPC   D2A40120  29.133  22.920   8.264
 3033POPC   C3A40121  29.150  22.941   7.964
 3033POPC   C4A40122  29.194  22.907   7.664
 3033POPC   C1B40123  28.918  23.082   8.564
 3033POPC   C2B40124  28.939  23.099   8.264
 3033POPC   C3B40125  28.912  23.090   7.964
 3033POPC   C4B40126  28.929  23.082   7.664
 3034POPC   NC340127  27.615   0.457   9.464
 3034POPC   PO440128  27.561   0.487   9.164
 3034POPC   GL140129  27.635   0.481   8.864
 3034POPC   GL240130  27.481   0.385   8.864
 3034POPC   C1A40131  27.596   0.430   8.564
 3034POPC   D2A40132  27.624   0.428   8.264
 3034POPC   C3A40133  27.592   0.420   7.964
 3034POPC   C4A40134  27.637   0.480   7.664
 3034POPC   C1B40135  27.353   0.456   8.564
 3034POPC   C2B40136  27.368   0.407   8.264
 3034POPC   C3B40137  27.352   0.408   7.964
 3034POPC   C4B40138  27.388   0.399   7.664
 3035POPC   NC340139   5.103  31.423   9.464
 3035POPC   PO440140   5.117  31.431   9.164
 3035POPC   GL140141   5.140  31.503   8.864
 3035POPC   GL240142   5.016  31.515   8.864
 3035POPC   C1A40143   5.094  31.462   8.564
 3035POPC   D2A40144   5.071  31.453   8.264
 3035POPC   C3A40145   5.117  31.429   7.964
 3035POPC   C4A40146   5.069  31.502   7.664
 3035POPC   C1B40147   4.937  31.626   8.564
 3035POPC   C2B40148   4.904  31.667   8.264
 3035POPC   C3B40149   4.911  31.675   7.964
 3035POPC   C4B40150   4.928  31.635   7.664
 3036POPC   NC340151  43.877  13.638   9.464
 3036POPC   PO440152  43.856  13.659   9.164
 3036POPC   GL140153  43.880  13.669   8.864
 3036POPC   GL240154  43.943  13.720   8.864
 3036POPC   C1A40155  43.899  13.641   8.564
 3036POPC   D2A40156  43.841  13.604   8.264
 3036POPC   C3A40157  43.847  13.671   7.964
 3036POPC   C4A40158  43.914  13.605   7.664
 3036POPC   C1B40159  44.126  13.789   8.564
 3036POPC   C2B40160  44.067  13.772   8.264
 3036POPC   C3B40161  44.042  13.835   7.964
 3036POPC   C4B40162  44.072  13.819   7.664
 3037POPC   NC340163  26.064  31.468   9.464
 3037POPC   PO440164  26.070  31.462   9.164
 3037POPC   GL140165  26.030  31.513   8.864
 3037POPC   GL240166  26.164  31.489   8.864
 3037POPC   C1A40167  26.063  31.423   8.564
 3037POPC   D2A40168  26.067  31.448   8.264
 3037POPC   C3A40169  26.066  31.478   7.964
 3037POPC   C4A40170  26.083  31.450   7.664
 3037POPC   C1B40171  26.280  31.437   8.564
 3037POPC   C2B40172  26.247  31.361   8.264
 3037POPC   C3B40173  26.237  31.381   7.964
 3037POPC   C4B40174  26.323  31.369   7.664
 3038POPC   NC340175  36.927   7.429   9.464
 3038POPC   PO440176  36.944   7.459   9.164
 3038POPC   GL140177  36.889   7.372   8.864
 3038POPC   GL240178  36.930   7.500   8.864
 3038POPC   C1A40179  36.874   7.376   8.564
 3038POPC   D2A40180  36.935   7.429   8.264
 3038POPC   C3A40181  36.864   7.418   7.964
 3038POPC   C4A40182  36.943   7.374   7.664
 3038POPC   C1B40183  36.894   7.656   8.564
 3038POPC   C2B40184  36.890   7.647   8.264
 3038POPC   C3B40185  36.955   7.633   7.964
 3038POPC   C4B40186  36.900   7.626   7.664
 3039POPC   NC340187   9.754  38.492   9.464
 3039POPC   PO440188   9.745  38.415   9.164
 3039POPC   GL140189   9.731  38.425   8.864
 3039POPC   GL240190   9.772  38.592   8.864
 3039POPC   C1A40191   9.768  38.459   8.564
 3039POPC   D2A40192   9.772  38.488   8.264
 3039POPC   C3A40193   9.735  38.433   7.964
 3039POPC   C4A40194   9.766  38.453   7.664
 3039POPC   C1B40195   9.930  38.695   8.564
 3039POPC   C2B40196   9.926  38.647   8.264
 3039POPC   C3B40197   9.846  38.617   7.964
 3039POPC   C4B40198   9.852  38.684   7.664
 3040POPC   NC340199  29.098   2.737   9.464
 3040POPC   PO440200  29.182   2.797   9.164
 3040POPC   GL140201  29.181   2.750   8.864
 3040POPC   GL240202  29.071   2.761   8.864
 3040POPC   C1A40203  29.113   2.783   8.564
 3040POPC   D2A40204  29.181   2.779   8.264
 3040POPC   C3A40205  29.188   2.807   7.964
 3040POPC   C4A40206  29.140   2.732   7.664
 3040POPC   C1B40207  28.891   2.765   8.564
 3040POPC   C2B40208  28.864   2.831   8.264
 3040POPC   C3B40209  28.902   2.832   7.964
 3040POPC   C4B40210  28.945   2.756   7.664
 3041POPC   NC340211  17.521   3.541   9.464
 3041POPC   PO440212  17.469   3.524   9.164
 3041POPC   GL140213  17.544   3.504   8.864
 3041POPC   GL240214  17.598   3.645   8.864
 3041POPC   C1A40215  17.480   3.529   8.564
 3041POPC   D2A40216  17.512   3.517   8.264
 3041POPC   C3A40217  17.496   3.533   7.964
 3041POPC   C4A40218  17.487   3.570   7.664
 3041POPC   C1B40219  17.602   3.792   8.564
 3041POPC   C2B40220  17.641   3.716   8.264
 3041POPC   C3B40221  17.683   3.797   7.964
 3041POPC   C4B40222  17.630   3.785   7.664
 3042POPC   NC340223  26.054  23.704   9.464
 3042POPC   PO440224  26.006  23.740   9.164
 3042POPC   GL140225  26.046  23.699   8.864
 3042POPC   GL240226  26.127  23.559   8.864
 3042POPC   C1A40227  26.047  23.686   8.564
 3042POPC   D2A40228  26.039  23.711   8.264
 3042POPC   C3A40229  26.023  23.733   7.964
 3042POPC   C4A40230  26.019  23.734   7.664
 3042POPC   C1B40231  26.119  23.485   8.564
 3042POPC   C2B40232  26.112  23.506   8.264
 3042POPC   C3B40233  26.188  23.505   7.964
 3042POPC   C4B40234  26.119  23.462   7.664
 3043POPC   NC340235  40.781  31.463   9.464
 3043POPC   PO440236  40.758  31.500   9.164
 3043POPC   GL140237  40.758  31.426   8.864
 3043POPC   GL240238  40.771  31.572   8.864
 3043POPC   C1A40239  40.763  31.477   8.564
 3043POPC   D2A40240  40.741  31.434   8.264
 3043POPC   C3A40241  40.755  31.466   7.964
 3043POPC   C4A40242  40.796  31.470   7.664
 3043POPC   C1B40243  40.849  31.737   8.564
 3043POPC   C2B40244  40.877  31.710   8.264
 3043POPC   C3B40245  40.829  31.698   7.964
 3043POPC   C4B40246  40.875  31.677   7.664
 3044POPC   NC340247  19.014  36.888   9.464
 3044POPC   PO440248  19.037  36.941   9.164
 3044POPC   GL140249  19.039  36.901   8.864
 3044POPC   GL240250  19.120  36.939   8.864
 3044POPC   C1A40251  19.064  36.856   8.564
 3044POPC   D2A40252  19.074  36.888   8.264
 3044POPC   C3A40253  19.082  36.893   7.964
 3044POPC   C4A40254  19.060  36.939   7.664
 3044POPC   C1B40255  19.326  37.051   8.564
 3044POPC   C2B40256  19.296  37.068   8.264
 3044POPC   C3B40257  19.242  36.998   7.964
 3044POPC   C4B40258  19.273  36.982   7.664
 3045POPC   NC340259  43.078   5.846   9.464
 3045POPC   PO440260  43.097   5.846   9.164
 3045POPC   GL140261  43.154   5.842   8.864
 3045POPC   GL240262  43.219   5.890   8.864
 3045POPC   C1A40263  43.085   5.904   8.564
 3045POPC   D2A40264  43.160   5.917   8.264
 3045POPC   C3A40265  43.080   5.821   7.964
 3045POPC   C4A40266  43.112   5.834   7.664
 3045POPC   C1B40267  43.333   5.874   8.564
 3045POPC   C2B40268  43.326   5.869   8.264
 3045POPC   C3B40269  43.397   5.907   7.964
 3045POPC   C4B40270  43.378   5.838   7.664
 3046POPC   NC340271  19.065  30.659   9.464
 3046POPC   PO440272  19.056  30.656   9.164
 3046POPC   GL140273  19.035  30.703   8.864
 3046POPC   GL240274  18.918  30.754   8.864
 3046POPC   C1A40275  19.033  30.722   8.564
 3046POPC   D2A40276  19.020  30.717   8.264
 3046POPC   C3A40277  19.032  30.717   7.964
 3046POPC   C4A40278  19.077  30.673   7.664
 3046POPC   C1B40279  18.849  30.844   8.564
 3046POPC   C2B40280  18.876  30.805   8.264
 3046POPC   C3B40281  18.905  30.809   7.964
 3046POPC   C4B40282  18.863  30.820   7.664
 3047POPC   NC340283  16.776   1.260   9.464
 3047POPC   PO440284  16.745   1.211   9.164
 3047POPC   GL140285  16.702   1.238   8.864
 3047POPC   GL240286  16.835   1.179   8.864
 3047POPC   C1A40287  16.706   1.199   8.564
 3047POPC   D2A40288  16.699   1.187   8.264
 3047POPC   C3A40289  16.737   1.261   7.964
 3047POPC   C4A40290  16.765   1.184   7.664
 3047POPC   C1B40291  16.976   1.111   8.564
 3047POPC   C2B40292  16.977   1.192   8.264
 3047POPC   C3B40293  16.991   1.159   7.964
 3047POPC   C4B40294  17.011   1.126   7.664
 3048POPC   NC340295  29.922   6.600   9.464
 3048POPC   PO440296  29.922   6.620   9.164
 3048POPC   GL140297  29.962   6.644   8.864
 3048POPC   GL240298  29.819   6.570   8.864
 3048POPC   C1A40299  29.925   6.689   8.564
 3048POPC   D2A40300  29.970   6.656   8.264
 3048POPC   C3A40301  29.940   6.648   7.964
 3048POPC   C4A40302  29.900   6.627   7.664
 3048POPC   C1B40303  29.698   6.495   8.564
 3048POPC   C2B40304  29.737   6.531   8.264
 3048POPC   C3B40305  29.673   6.468   7.964
 3048POPC   C4B40306  29.677   6.515   7.664
 3049POPC   NC340307  18.302  18.255   9.464
 3049POPC   PO440308  18.241  18.263   9.164
 3049POPC   GL140309  18.328  18.325   8.864
 3049POPC   GL240310  18.338  18.352   8.864
 3049POPC   C1A40311  18.311  18.278   8.564
 3049POPC   D2A40312  18.248  18.272   8.264
 3049POPC   C3A40313  18.272  18.246   7.964
 3049POPC   C4A40314  18.261  18.245   7.664
 3049POPC   C1B40315  18.329  18.549   8.564
 3049POPC   C2B40316  18.319  18.510   8.264
 3049POPC   C3B40317  18.365  18.489   7.964
 3049POPC   C4B40318  18.410  18.548   7.664
 3050POPC   NC340319  18.239   6.628   9.464
 3050POPC   PO440320  18.319   6.672   9.164
 3050POPC   GL140321  18.288   6.673   8.864
 3050POPC   GL240322  18.389   6.594   8.864
 3050POPC   C1A40323  18.319   6.686   8.564
 3050POPC   D2A40324  18.275   6.657   8.264
 3050POPC   C3A40325  18.291   6.673   7.964
 3050POPC   C4A40326  18.284   6.639   7.664
 3050POPC   C1B40327  18.513   6.599   8.564
 3050POPC   C2B40328  18.554   6.637   8.264
 3050POPC   C3B40329  18.510   6.608   7.964
 3050POPC   C4B40330  18.530   6.599   7.664
 3051POPC   NC340331   3.526  17.471   9.464
 3051POPC   PO440332   3.545  17.472   9.164
 3051POPC   GL140333   3.569  17.542   8.864
 3051POPC   GL240334   3.591  17.479   8.864
 3051POPC   C1A40335   3.501  17.543   8.564
 3051POPC   D2A40336   3.529  17.460   8.264
 3051POPC   C3A40337   3.551  17.468   7.964
 3051POPC   C4A40338   3.526  17.479   7.664
 3051POPC   C1B40339   3.779  17.362   8.564
 3051POPC   C2B40340   3.772  17.320   8.264
 3051POPC   C3B40341   3.786  17.395   7.964
 3051POPC   C4B40342   3.784  17.384   7.664
 3052POPC   NC340343  43.101  42.377   9.464
 3052POPC   PO440344  43.064  42.330   9.164
 3052POPC   GL140345  43.096  42.306   8.864
 3052POPC   GL240346  43.094  42.185   8.864
 3052POPC   C1A40347  43.108  42.308   8.564
 3052POPC   D2A40348  43.070  42.318   8.264
 3052POPC   C3A40349  43.114  42.295   7.964
 3052POPC   C4A40350  43.061  42.296   7.664
 3052POPC   C1B40351  43.188  42.100   8.564
 3052POPC   C2B40352  43.191  42.106   8.264
 3052POPC   C3B40353  43.200  42.080   7.964
 3052POPC   C4B40354  43.184  42.103   7.664
 3053POPC   NC340355  12.802  18.332   9.464
 3053POPC   PO440356  12.868  18.289   9.164
 3053POPC   GL140357  12.808  18.307   8.864
 3053POPC   GL240358  12.705  18.410   8.864
 3053POPC   C1A40359  12.893  18.275   8.564
 3053POPC   D2A40360  12.829  18.237   8.264
 3053POPC   C3A40361  12.822  18.271   7.964
 3053POPC   C4A40362  12.884  18.324   7.664
 3053POPC   C1B40363  12.648  18.478   8.564
 3053POPC   C2B40364  12.657  18.459   8.264
 3053POPC   C3B40365  12.684  18.450   7.964
 3053POPC   C4B40366  12.692  18.399   7.664
 3054POPC   NC340367  23.666   1.220   9.464
 3054POPC   PO440368  23.668   1.173   9.164
 3054POPC   GL140369  23.754   1.184   8.864
 3054POPC   GL240370  23.638   1.309   8.864
 3054POPC   C1A40371  23.667   1.183   8.564
 3054POPC   D2A40372  23.677   1.225   8.264
 3054POPC   C3A40373  23.701   1.168   7.964
 3054POPC   C4A40374  23.719   1.171   7.664
 3054POPC   C1B40375  23.506   1.382   8.564
 3054POPC   C2B40376  23.571   1.360   8.264
 3054POPC   C3B40377  23.497   1.362   7.964
 3054POPC   C4B40378  23.541   1.384   7.664
 3055POPC   NC340379  11.277  14.355   9.464
 3055POPC   PO440380  11.275  14.382   9.164
 3055POPC   GL140381  11.269  14.366   8.864
 3055POPC   GL240382  11.340  14.267   8.864
 3055POPC   C1A40383  11.257  14.364   8.564
 3055POPC   D2A40384  11.300  14.374   8.264
 3055POPC   C3A40385  11.257  14.396   7.964
 3055POPC   C4A40386  11.264  14.384   7.664
 3055POPC   C1B40387  11.400  14.162   8.564
 3055POPC   C2B40388  11.447  14.212   8.264
 3055POPC   C3B40389  11.424  14.229   7.964
 3055POPC   C4B40390  11.429  14.214   7.664
 3056POPC   NC340391  22.944  26.810   9.464
 3056POPC   PO440392  22.903  26.822   9.164
 3056POPC   GL140393  22.979  26.815   8.864
 3056POPC   GL240394  23.030  26.884   8.864
 3056POPC   C1A40395  22.953  26.804   8.564
 3056POPC   D2A40396  22.901  26.811   8.264
 3056POPC   C3A40397  22.942  26.808   7.964
 3056POPC   C4A40398  22.973  26.798   7.664
 3056POPC   C1B40399  23.143  26.997   8.564
 3056POPC   C2B40400  23.189  27.005   8.264
 3056POPC   C3B40401  23.094  27.001   7.964
 3056POPC   C4B40402  23.154  26.935   7.664
 3057POPC   NC340403  31.515  32.990   9.464
 3057POPC   PO440404  31.504  33.072   9.164
 3057POPC   GL140405  31.505  33.002   8.864
 3057POPC   GL240406  31.603  33.114   8.864
 3057POPC   C1A40407  31.475  33.053   8.564
 3057POPC   D2A40408  31.428  33.052   8.264
 3057POPC   C3A40409  31.427  33.071   7.964
 3057POPC   C4A40410  31.485  33.025   7.664
 3057POPC   C1B40411  31.646  33.193   8.564
 3057POPC   C2B40412  31.712  33.120   8.264
 3057POPC   C3B40413  31.650  33.192   7.964
 3057POPC   C4B40414  31.715  33.128   7.664
 3058POPC   NC340415  37.686  39.275   9.464
 3058POPC   PO440416  37.656  39.239   9.164
 3058POPC   GL140417  37.703  39.240   8.864
 3058POPC   GL240418  37.784  39.147   8.864
 3058POPC   C1A40419  37.644  39.191   8.564
 3058POPC   D2A40420  37.639  39.191   8.264
 3058POPC   C3A40421  37.630  39.221   7.964
 3058POPC   C4A40422  37.640  39.209   7.664
 3058POPC   C1B40423  37.944  39.119   8.564
 3058POPC   C2B40424  37.885  39.201   8.264
 3058POPC   C3B40425  37.890  39.154   7.964
 3058POPC   C4B40426  37.873  39.196   7.664
 3059POPC   NC340427  37.671   8.230   9.464
 3059POPC   PO440428  37.660   8.169   9.164
 3059POPC   GL140429  37.648   8.209   8.864
 3059POPC   GL240430  37.753   8.261   8.864
 3059POPC   C1A40431  37.661   8.181   8.564
 3059POPC   D2A40432  37.644   8.196   8.264
 3059POPC   C3A40433  37.671   8.174   7.964
 3059POPC   C4A40434  37.695   8.148   7.664
 3059POPC   C1B40435  37.844   8.386   8.564
 3059POPC   C2B40436  37.903   8.321   8.264
 3059POPC   C3B40437  37.917   8.309   7.964
 3059POPC   C4B40438  37.889   8.304   7.664
 3060POPC   NC340439  38.435  13.661   9.464
 3060POPC   PO440440  38.464  13.609   9.164
 3060POPC   GL140441  38.489  13.613   8.864
 3060POPC   GL240442  38.398  13.789   8.864
 3060POPC   C1A40443  38.448  13.598   8.564
 3060POPC   D2A40444  38.470  13.666   8.264
 3060POPC   C3A40445  38.500  13.667   7.964
 3060POPC   C4A40446  38.482  13.664   7.664
 3060POPC   C1B40447  38.348  13.887   8.564
 3060POPC   C2B40448  38.416  13.873   8.264
 3060POPC   C3B40449  38.400  13.837   7.964
 3060POPC   C4B40450  38.382  13.838   7.664
 3061POPC   NC340451  40.045  43.080   9.464
 3061POPC   PO440452  39.960  43.115   9.164
 3061POPC   GL140453  40.028  43.102   8.864
 3061POPC   GL240454  40.172  43.090   8.864
 3061POPC   C1A40455  39.961  43.069   8.564
 3061POPC   D2A40456  40.025  43.110   8.264
 3061POPC   C3A40457  40.053  43.065   7.964
 3061POPC   C4A40458  40.001  43.087   7.664
 3061POPC   C1B40459  40.306  43.112   8.564
 3061POPC   C2B40460  40.239  43.099   8.264
 3061POPC   C3B40461  40.207  43.075   7.964
 3061POPC   C4B40462  40.208  43.098   7.664
 3062POPC   NC340463   9.714  36.089   9.464
 3062POPC   PO440464   9.781  36.087   9.164
 3062POPC   GL140465   9.726  36.105   8.864
 3062POPC   GL240466   9.599  36.207   8.864
 3062POPC   C1A40467   9.788  36.089   8.564
 3062POPC   D2A40468   9.729  36.133   8.264
 3062POPC   C3A40469   9.725  36.160   7.964
 3062POPC   C4A40470   9.785  36.119   7.664
 3062POPC   C1B40471   9.495  36.283   8.564
 3062POPC   C2B40472   9.556  36.217   8.264
 3062POPC   C3B40473   9.558  36.260   7.964
 3062POPC   C4B40474   9.508  36.236   7.664
 3063POPC   NC340475  23.681  12.081   9.464
 3063POPC   PO440476  23.758  12.031   9.164
 3063POPC   GL140477  23.688  12.102   8.864
 3063POPC   GL240478  23.786  12.236   8.864
 3063POPC   C1A40479  23.718  12.079   8.564
 3063POPC   D2A40480  23.731  12.099   8.264
 3063POPC   C3A40481  23.685  12.065   7.964
 3063POPC   C4A40482  23.674  12.086   7.664
 3063POPC   C1B40483  23.723  12.342   8.564
 3063POPC   C2B40484  23.751  12.367   8.264
 3063POPC   C3B40485  23.751  12.358   7.964
 3063POPC   C4B40486  23.813  12.279   7.664
 3064POPC   NC340487  39.280   2.791   9.464
 3064POPC   PO440488  39.241   2.808   9.164
 3064POPC   GL140489  39.266   2.770   8.864
 3064POPC   GL240490  39.359   2.717   8.864
 3064POPC   C1A40491  39.242   2.758   8.564
 3064POPC   D2A40492  39.250   2.724   8.264
 3064POPC   C3A40493  39.232   2.754   7.964
 3064POPC   C4A40494  39.185   2.796   7.664
 3064POPC   C1B40495  39.455   2.785   8.564
 3064POPC   C2B40496  39.441   2.795   8.264
 3064POPC   C3B40497  39.515   2.793   7.964
 3064POPC   C4B40498  39.442   2.794   7.664
 3065POPC   NC340499  10.538  29.145   9.464
 3065POPC   PO440500  10.524  29.191   9.164
 3065POPC   GL140501  10.559  29.140   8.864
 3065POPC   GL240502  10.576  29.022   8.864
 3065POPC   C1A40503  10.542  29.151   8.564
 3065POPC   D2A40504  10.510  29.107   8.264
 3065POPC   C3A40505  10.503  29.171   7.964
 3065POPC   C4A40506  10.477  29.189   7.664
 3065POPC   C1B40507  10.676  28.918   8.564
 3065POPC   C2B40508  10.683  28.937   8.264
 3065POPC   C3B40509  10.701  28.979   7.964
 3065POPC   C4B40510  10.657  28.991   7.664
 3066POPC   NC340511  29.118  42.331   9.464
 3066POPC   PO440512  29.168  42.365   9.164
 3066POPC   GL140513  29.132  42.339   8.864
 3066POPC   GL240514  29.238  42.226   8.864
 3066POPC   C1A40515  29.182  42.382   8.564
 3066POPC   D2A40516  29.119  42.294   8.264
 3066POPC   C3A40517  29.124  42.358   7.964
 3066POPC   C4A40518  29.190  42.336   7.664
 3066POPC   C1B40519  29.355  42.195   8.564
 3066POPC   C2B40520  29.316  42.145   8.264
 3066POPC   C3B40521  29.292  42.212   7.964
 3066POPC   C4B40522  29.336  42.188   7.664
 3067POPC   NC340523  40.811  26.019   9.464
 3067POPC   PO440524  40.831  26.067   9.164
 3067POPC   GL140525  40.820  26.017   8.864
 3067POPC   GL240526  40.632  25.992   8.864
 3067POPC   C1A40527  40.791  26.087   8.564
 3067POPC   D2A40528  40.821  26.090   8.264
 3067POPC   C3A40529  40.745  26.041   7.964
 3067POPC   C4A40530  40.813  26.059   7.664
 3067POPC   C1B40531  40.486  26.006   8.564
 3067POPC   C2B40532  40.529  26.075   8.264
 3067POPC   C3B40533  40.494  26.042   7.964
 3067POPC   C4B40534  40.557  25.995   7.664
 3068POPC   NC340535   7.445  28.334   9.464
 3068POPC   PO440536   7.418  28.388   9.164
 3068POPC   GL140537   7.414  28.384   8.864
 3068POPC   GL240538   7.331  28.320   8.864
 3068POPC   C1A40539   7.415  28.352   8.564
 3068POPC   D2A40540   7.440  28.361   8.264
 3068POPC   C3A40541   7.428  28.365   7.964
 3068POPC   C4A40542   7.429  28.321   7.664
 3068POPC   C1B40543   7.167  28.296   8.564
 3068POPC   C2B40544   7.213  28.266   8.264
 3068POPC   C3B40545   7.230  28.276   7.964
 3068POPC   C4B40546   7.235  28.224   7.664
 3069POPC   NC340547  12.848  10.498   9.464
 3069POPC   PO440548  12.857  10.530   9.164
 3069POPC   GL140549  12.876  10.481   8.864
 3069POPC   GL240550  12.843  10.367   8.864
 3069POPC   C1A40551  12.901  10.571   8.564
 3069POPC   D2A40552  12.803  10.536   8.264
 3069POPC   C3A40553  12.896  10.548   7.964
 3069POPC   C4A40554  12.835  10.553   7.664
 3069POPC   C1B40555  12.782  10.283   8.564
 3069POPC   C2B40556  12.744  10.287   8.264
 3069POPC   C3B40557  12.779  10.333   7.964
 3069POPC   C4B40558  12.789  10.246   7.664
 3070POPC   NC340559  32.280  33.046   9.464
 3070POPC   PO440560  32.236  33.069   9.164
 3070POPC   GL140561  32.280  33.055   8.864
 3070POPC   GL240562  32.367  33.092   8.864
 3070POPC   C1A40563  32.272  33.045   8.564
 3070POPC   D2A40564  32.283  33.056   8.264
 3070POPC   C3A40565  32.229  32.987   7.964
 3070POPC   C4A40566  32.297  32.981   7.664
 3070POPC   C1B40567  32.382  33.190   8.564
 3070POPC   C2B40568  32.378  33.211   8.264
 3070POPC   C3B40569  32.403  33.173   7.964
 3070POPC   C4B40570  32.477  33.157   7.664
 3071POPC   NC340571  12.861  43.086   9.464
 3071POPC   PO440572  12.843  43.149   9.164
 3071POPC   GL140573  12.869  43.061   8.864
 3071POPC   GL240574  12.696  43.172   8.864
 3071POPC   C1A40575  12.848  43.070   8.564
 3071POPC   D2A40576  12.879  43.111   8.264
 3071POPC   C3A40577  12.805  43.126   7.964
 3071POPC   C4A40578  12.813  43.116   7.664
 3071POPC   C1B40579  12.658  43.242   8.564
 3071POPC   C2B40580  12.595  43.244   8.264
 3071POPC   C3B40581  12.590  43.188   7.964
 3071POPC   C4B40582  12.635  43.161   7.664
 3072POPC   NC340583   1.989  42.359   9.464
 3072POPC   PO440584   1.945  42.288   9.164
 3072POPC   GL140585   1.951  42.365   8.864
 3072POPC   GL240586   1.995  42.179   8.864
 3072POPC   C1A40587   1.950  42.375   8.564
 3072POPC   D2A40588   1.968  42.296   8.264
 3072POPC   C3A40589   1.991  42.321   7.964
 3072POPC   C4A40590   1.952  42.343   7.664
 3072POPC   C1B40591   1.964  42.103   8.564
 3072POPC   C2B40592   1.922  42.099   8.264
 3072POPC   C3B40593   1.968  42.072   7.964
 3072POPC   C4B40594   1.989  42.098   7.664
 3073POPC   NC340595  23.666  41.600   9.464
 3073POPC   PO440596  23.720  41.509   9.164
 3073POPC   GL140597  23.740  41.532   8.864
 3073POPC   GL240598  23.749  41.426   8.864
 3073POPC   C1A40599  23.719  41.607   8.564
 3073POPC   D2A40600  23.738  41.592   8.264
 3073POPC   C3A40601  23.730  41.539   7.964
 3073POPC   C4A40602  23.701  41.541   7.664
 3073POPC   C1B40603  23.758  41.345   8.564
 3073POPC   C2B40604  23.770  41.344   8.264
 3073POPC   C3B40605  23.757  41.286   7.964
 3073POPC   C4B40606  23.819  41.290   7.664
 3074POPC   NC340607  38.433  23.740   9.464
 3074POPC   PO440608  38.485  23.741   9.164
 3074POPC   GL140609  38.482  23.746   8.864
 3074POPC   GL240610  38.344  23.588   8.864
 3074POPC   C1A40611  38.431  23.714   8.564
 3074POPC   D2A40612  38.498  23.753   8.264
 3074POPC   C3A40613  38.462  23.762   7.964
 3074POPC   C4A40614  38.439  23.680   7.664
 3074POPC   C1B40615  38.358  23.475   8.564
 3074POPC   C2B40616  38.287  23.547   8.264
 3074POPC   C3B40617  38.365  23.461   7.964
 3074POPC   C4B40618  38.349  23.506   7.664
 3075POPC   NC340619  20.602   7.415   9.464
 3075POPC   PO440620  20.653   7.427   9.164
 3075POPC   GL140621  20.649   7.408   8.864
 3075POPC   GL240622  20.681   7.319   8.864
 3075POPC   C1A40623  20.654   7.419   8.564
 3075POPC   D2A40624  20.579   7.386   8.264
 3075POPC   C3A40625  20.620   7.451   7.964
 3075POPC   C4A40626  20.656   7.401   7.664
 3075POPC   C1B40627  20.741   7.215   8.564
 3075POPC   C2B40628  20.687   7.184   8.264
 3075POPC   C3B40629  20.734   7.203   7.964
 3075POPC   C4B40630  20.704   7.227   7.664
 3076POPC   NC340631   4.314  26.785   9.464
 3076POPC   PO440632   4.334  26.791   9.164
 3076POPC   GL140633   4.293  26.851   8.864
 3076POPC   GL240634   4.321  26.667   8.864
 3076POPC   C1A40635   4.343  26.787   8.564
 3076POPC   D2A40636   4.330  26.819   8.264
 3076POPC   C3A40637   4.306  26.769   7.964
 3076POPC   C4A40638   4.353  26.772   7.664
 3076POPC   C1B40639   4.396  26.586   8.564
 3076POPC   C2B40640   4.351  26.575   8.264
 3076POPC   C3B40641   4.417  26.585   7.964
 3076POPC   C4B40642   4.445  26.631   7.664
 3077POPC   NC340643   5.124  40.045   9.464
 3077POPC   PO440644   5.107  39.989   9.164
 3077POPC   GL140645   5.088  40.048   8.864
 3077POPC   GL240646   5.147  39.968   8.864
 3077POPC   C1A40647   5.064  40.017   8.564
 3077POPC   D2A40648   5.059  40.038   8.264
 3077POPC   C3A40649   5.058  40.055   7.964
 3077POPC   C4A40650   5.116  40.036   7.664
 3077POPC   C1B40651   5.248  39.874   8.564
 3077POPC   C2B40652   5.332  39.833   8.264
 3077POPC   C3B40653   5.273  39.878   7.964
 3077POPC   C4B40654   5.269  39.871   7.664
 3078POPC   NC340655  33.062   2.784   9.464
 3078POPC   PO440656  33.011   2.793   9.164
 3078POPC   GL140657  33.061   2.727   8.864
 3078POPC   GL240658  33.034   2.936   8.864
 3078POPC   C1A40659  33.062   2.723   8.564
 3078POPC   D2A40660  32.991   2.780   8.264
 3078POPC   C3A40661  32.998   2.782   7.964
 3078POPC   C4A40662  33.045   2.731   7.664
 3078POPC   C1B40663  33.071   3.039   8.564
 3078POPC   C2B40664  33.082   3.020   8.264
 3078POPC   C3B40665  33.068   3.002   7.964
 3078POPC   C4B40666  33.084   3.042   7.664
 3079POPC   NC340667  37.720  30.705   9.464
 3079POPC   PO440668  37.670  30.713   9.164
 3079POPC   GL140669  37.649  30.667   8.864
 3079POPC   GL240670  37.739  30.612   8.864
 3079POPC   C1A40671  37.716  30.730   8.564
 3079POPC   D2A40672  37.649  30.671   8.264
 3079POPC   C3A40673  37.658  30.692   7.964
 3079POPC   C4A40674  37.647  30.719   7.664
 3079POPC   C1B40675  37.748  30.452   8.564
 3079POPC   C2B40676  37.802  30.499   8.264
 3079POPC   C3B40677  37.770  30.418   7.964
 3079POPC   C4B40678  37.755  30.412   7.664
 3080POPC   NC340679   8.183  18.308   9.464
 3080POPC   PO440680   8.219  18.236   9.164
 3080POPC   GL140681   8.235  18.254   8.864
 3080POPC   GL240682   8.057  18.247   8.864
 3080POPC   C1A40683   8.149  18.315   8.564
 3080POPC   D2A40684   8.214  18.282   8.264
 3080POPC   C3A40685   8.179  18.261   7.964
 3080POPC   C4A40686   8.192  18.283   7.664
 3080POPC   C1B40687   7.926  18.199   8.564
 3080POPC   C2B40688   8.014  18.166   8.264
 3080POPC   C3B40689   7.945  18.194   7.964
 3080POPC   C4B40690   7.986  18.157   7.664
 3081POPC   NC340691   5.900  32.255   9.464
 3081POPC   PO440692   5.822  32.228   9.164
 3081POPC   GL140693   5.832  32.205   8.864
 3081POPC   GL240694   5.983  32.182   8.864
 3081POPC   C1A40695   5.851  32.258   8.564
 3081POPC   D2A40696   5.834  32.228   8.264
 3081POPC   C3A40697   5.885  32.213   7.964
 3081POPC   C4A40698   5.845  32.265   7.664
 3081POPC   C1B40699   6.106  32.066   8.564
 3081POPC   C2B40700   6.057  32.064   8.264
 3081POPC   C3B40701   6.112  32.096   7.964
 3081POPC   C4B40702   6.113  32.138   7.664
 3082POPC   NC340703  15.999  21.345   9.464
 3082POPC   PO440704  15.976  21.384   9.164
 3082POPC   GL140705  15.924  21.387   8.864
 3082POPC   GL240706  16.061  21.353   8.864
 3082POPC   C1A40707  16.000  21.422   8.564
 3082POPC   D2A40708  15.938  21.387   8.264
 3082POPC   C3A40709  15.998  21.361   7.964
 3082POPC   C4A40710  15.961  21.360   7.664
 3082POPC   C1B40711  16.171  21.308   8.564
 3082POPC   C2B40712  16.235  21.297   8.264
 3082POPC   C3B40713  16.183  21.293   7.964
 3082POPC   C4B40714  16.237  21.284   7.664
 3083POPC   NC340715  18.269  29.193   9.464
 3083POPC   PO440716  18.283  29.183   9.164
 3083POPC   GL140717  18.323  29.189   8.864
 3083POPC   GL240718  18.135  29.146   8.864
 3083POPC   C1A40719  18.242  29.127   8.564
 3083POPC   D2A40720  18.261  29.122   8.264
 3083POPC   C3A40721  18.233  29.102   7.964
 3083POPC   C4A40722  18.319  29.120   7.664
 3083POPC   C1B40723  18.021  29.273   8.564
 3083POPC   C2B40724  18.051  29.220   8.264
 3083POPC   C3B40725  18.026  29.288   7.964
 3083POPC   C4B40726  18.078  29.238   7.664
 3084POPC   NC340727  39.964   3.583   9.464
 3084POPC   PO440728  40.046   3.556   9.164
 3084POPC   GL140729  40.053   3.539   8.864
 3084POPC   GL240730  40.014   3.435   8.864
 3084POPC   C1A40731  39.984   3.557   8.564
 3084POPC   D2A40732  40.052   3.573   8.264
 3084POPC   C3A40733  40.006   3.568   7.964
 3084POPC   C4A40734  39.968   3.559   7.664
 3084POPC   C1B40735  39.955   3.280   8.564
 3084POPC   C2B40736  40.035   3.287   8.264
 3084POPC   C3B40737  39.972   3.341   7.964
 3084POPC   C4B40738  39.980   3.250   7.664
 3085POPC   NC340739  43.891   6.654   9.464
 3085POPC   PO440740  43.856   6.670   9.164
 3085POPC   GL140741  43.870   6.646   8.864
 3085POPC   GL240742  43.780   6.594   8.864
 3085POPC   C1A40743  43.887   6.680   8.564
 3085POPC   D2A40744  43.872   6.690   8.264
 3085POPC   C3A40745  43.846   6.668   7.964
 3085POPC   C4A40746  43.913   6.632   7.664
 3085POPC   C1B40747  43.761   6.414   8.564
 3085POPC   C2B40748  43.755   6.457   8.264
 3085POPC   C3B40749  43.686   6.454   7.964
 3085POPC   C4B40750  43.737   6.486   7.664
 3086POPC   NC340751  40.034  22.201   9.464
 3086POPC   PO440752  40.006  22.201   9.164
 3086POPC   GL140753  40.017  22.165   8.864
 3086POPC   GL240754  40.101  22.167   8.864
 3086POPC   C1A40755  39.978  22.211   8.564
 3086POPC   D2A40756  39.982  22.162   8.264
 3086POPC   C3A40757  39.987  22.135   7.964
 3086POPC   C4A40758  39.989  22.114   7.664
 3086POPC   C1B40759  40.252  22.082   8.564
 3086POPC   C2B40760  40.293  22.078   8.264
 3086POPC   C3B40761  40.261  22.103   7.964
 3086POPC   C4B40762  40.260  22.157   7.664
 3087POPC   NC340763  26.827  35.382   9.464
 3087POPC   PO440764  26.866  35.378   9.164
 3087POPC   GL140765  26.818  35.365   8.864
 3087POPC   GL240766  26.765  35.455   8.864
 3087POPC   C1A40767  26.816  35.362   8.564
 3087POPC   D2A40768  26.853  35.347   8.264
 3087POPC   C3A40769  26.825  35.335   7.964
 3087POPC   C4A40770  26.823  35.385   7.664
 3087POPC   C1B40771  26.820  35.577   8.564
 3087POPC   C2B40772  26.782  35.633   8.264
 3087POPC   C3B40773  26.748  35.624   7.964
 3087POPC   C4B40774  26.818  35.561   7.664
 3088POPC   NC340775  19.841  33.055   9.464
 3088POPC   PO440776  19.855  33.018   9.164
 3088POPC   GL140777  19.845  33.065   8.864
 3088POPC   GL240778  19.942  32.916   8.864
 3088POPC   C1A40779  19.868  33.034   8.564
 3088POPC   D2A40780  19.799  33.065   8.264
 3088POPC   C3A40781  19.861  33.033   7.964
 3088POPC   C4A40782  19.854  33.044   7.664
 3088POPC   C1B40783  20.026  32.911   8.564
 3088POPC   C2B40784  20.082  32.915   8.264
 3088POPC   C3B40785  20.071  32.858   7.964
 3088POPC   C4B40786  20.034  32.891   7.664
 3089POPC   NC340787  19.794  19.865   9.464
 3089POPC   PO440788  19.868  19.817   9.164
 3089POPC   GL140789  19.829  19.874   8.864
 3089POPC   GL240790  19.825  19.972   8.864
 3089POPC   C1A40791  19.805  19.824   8.564
 3089POPC   D2A40792  19.806  19.881   8.264
 3089POPC   C3A40793  19.846  19.799   7.964
 3089POPC   C4A40794  19.873  19.865   7.664
 3089POPC   C1B40795  19.830  20.054   8.564
 3089POPC   C2B40796  19.840  20.085   8.264
 3089POPC   C3B40797  19.819  20.068   7.964
 3089POPC   C4B40798  19.805  20.086   7.664
 3090POPC   NC340799  21.406  40.742   9.464
 3090POPC   PO440800  21.402  40.793   9.164
 3090POPC   GL140801  21.415  40.774   8.864
 3090POPC   GL240802  21.411  40.650   8.864
 3090POPC   C1A40803  21.391  40.820   8.564
 3090POPC   D2A40804  21.386  40.831   8.264
 3090POPC   C3A40805  21.371  40.766   7.964
 3090POPC   C4A40806  21.410  40.807   7.664
 3090POPC   C1B40807  21.438  40.558   8.564
 3090POPC   C2B40808  21.523  40.587   8.264
 3090POPC   C3B40809  21.530  40.529   7.964
 3090POPC   C4B40810  21.502  40.586   7.664
 3091POPC   NC340811  43.078  10.571   9.464
 3091POPC   PO440812  43.154  10.525   9.164
 3091POPC   GL140813  43.085  10.544   8.864
 3091POPC   GL240814  43.152  10.369   8.864
 3091POPC   C1A40815  43.155  10.553   8.564
 3091POPC   D2A40816  43.154  10.533   8.264
 3091POPC   C3A40817  43.084  10.475   7.964
 3091POPC   C4A40818  43.073  10.552   7.664
 3091POPC   C1B40819  43.188  10.292   8.564
 3091POPC   C2B40820  43.169  10.324   8.264
 3091POPC   C3B40821  43.216  10.321   7.964
 3091POPC   C4B40822  43.168  10.264   7.664
 3092POPC   NC340823  35.373  27.623   9.464
 3092POPC   PO440824  35.327  27.545   9.164
 3092POPC   GL140825  35.357  27.552   8.864
 3092POPC   GL240826  35.382  27.680   8.864
 3092POPC   C1A40827  35.370  27.589   8.564
 3092POPC   D2A40828  35.374  27.565   8.264
 3092POPC   C3A40829  35.302  27.614   7.964
 3092POPC   C4A40830  35.401  27.570   7.664
 3092POPC   C1B40831  35.428  27.805   8.564
 3092POPC   C2B40832  35.333  27.831   8.264
 3092POPC   C3B40833  35.378  27.847   7.964
 3092POPC   C4B40834  35.370  27.856   7.664
 3093POPC   NC340835  20.591  12.828   9.464
 3093POPC   PO440836  20.622  12.876   9.164
 3093POPC   GL140837  20.601  12.885   8.864
 3093POPC   GL240838  20.605  12.740   8.864
 3093POPC   C1A40839  20.655  12.877   8.564
 3093POPC   D2A40840  20.635  12.841   8.264
 3093POPC   C3A40841  20.641  12.886   7.964
 3093POPC   C4A40842  20.587  12.807   7.664
 3093POPC   C1B40843  20.599  12.606   8.564
 3093POPC   C2B40844  20.629  12.596   8.264
 3093POPC   C3B40845  20.640  12.599   7.964
 3093POPC   C4B40846  20.585  12.562   7.664
 3094POPC   NC340847  40.035  14.447   9.464
 3094POPC   PO440848  39.986  14.421   9.164
 3094POPC   GL140849  40.013  14.364   8.864
 3094POPC   GL240850  40.104  14.554   8.864
 3094POPC   C1A40851  40.031  14.440   8.564
 3094POPC   D2A40852  40.005  14.400   8.264
 3094POPC   C3A40853  40.039  14.446   7.964
 3094POPC   C4A40854  40.026  14.406   7.664
 3094POPC   C1B40855  40.143  14.631   8.564
 3094POPC   C2B40856  40.166  14.661   8.264
 3094POPC   C3B40857  40.162  14.624   7.964
 3094POPC   C4B40858  40.188  14.596   7.664
 3095POPC   NC340859  13.666  19.817   9.464
 3095POPC   PO440860  13.583  19.850   9.164
 3095POPC   GL140861  13.605  19.845   8.864
 3095POPC   GL240862  13.667  19.921   8.864
 3095POPC   C1A40863  13.651  19.793   8.564
 3095POPC   D2A40864  13.665  19.850   8.264
 3095POPC   C3A40865  13.645  19.884   7.964
 3095POPC   C4A40866  13.602  19.798   7.664
 3095POPC   C1B40867  13.705  20.106   8.564
 3095POPC   C2B40868  13.685  20.079   8.264
 3095POPC   C3B40869  13.682  20.047   7.964
 3095POPC   C4B40870  13.692  20.074   7.664
 3096POPC   NC340871  39.970  35.308   9.464
 3096POPC   PO440872  40.050  35.337   9.164
 3096POPC   GL140873  40.000  35.305   8.864
 3096POPC   GL240874  39.894  35.399   8.864
 3096POPC   C1A40875  39.978  35.341   8.564
 3096POPC   D2A40876  40.039  35.317   8.264
 3096POPC   C3A40877  39.972  35.339   7.964
 3096POPC   C4A40878  39.990  35.342   7.664
 3096POPC   C1B40879  39.743  35.471   8.564
 3096POPC   C2B40880  39.752  35.482   8.264
 3096POPC   C3B40881  39.796  35.422   7.964
 3096POPC   C4B40882  39.809  35.423   7.664
 3097POPC   NC340883  25.294   0.402   9.464
 3097POPC   PO440884  25.270   0.453   9.164
 3097POPC   GL140885  25.233   0.431   8.864
 3097POPC   GL240886  25.310   0.564   8.864
 3097POPC   C1A40887  25.298   0.409   8.564
 3097POPC   D2A40888  25.237   0.421   8.264
 3097POPC   C3A40889  25.225   0.427   7.964
 3097POPC   C4A40890  25.243   0.391   7.664
 3097POPC   C1B40891  25.301   0.663   8.564
 3097POPC   C2B40892  25.293   0.669   8.264
 3097POPC   C3B40893  25.320   0.645   7.964
 3097POPC   C4B40894  25.300   0.698   7.664
 3098POPC   NC340895  40.787  19.083   9.464
 3098POPC   PO440896  40.739  19.024   9.164
 3098POPC   GL140897  40.740  19.038   8.864
 3098POPC   GL240898  40.799  18.915   8.864
 3098POPC   C1A40899  40.753  19.060   8.564
 3098POPC   D2A40900  40.829  19.088   8.264
 3098POPC   C3A40901  40.801  19.015   7.964
 3098POPC   C4A40902  40.776  19.105   7.664
 3098POPC   C1B40903  40.865  18.852   8.564
 3098POPC   C2B40904  40.869  18.827   8.264
 3098POPC   C3B40905  40.892  18.846   7.964
 3098POPC   C4B40906  40.868  18.841   7.664
 3099POPC   NC340907  21.377   8.969   9.464
 3099POPC   PO440908  21.417   8.933   9.164
 3099POPC   GL140909  21.406   8.960   8.864
 3099POPC   GL240910  21.368   8.893   8.864
 3099POPC   C1A40911  21.374   9.020   8.564
 3099POPC   D2A40912  21.412   8.925   8.264
 3099POPC   C3A40913  21.397   8.998   7.964
 3099POPC   C4A40914  21.399   9.003   7.664
 3099POPC   C1B40915  21.324   8.721   8.564
 3099POPC   C2B40916  21.354   8.708   8.264
 3099POPC   C3B40917  21.326   8.712   7.964
 3099POPC   C4B40918  21.353   8.703   7.664
 3100POPC   NC340919  25.230  12.099   9.464
 3100POPC   PO440920  25.282  12.086   9.164
 3100POPC   GL140921  25.246  12.099   8.864
 3100POPC   GL240922  25.415  12.112   8.864
 3100POPC   C1A40923  25.282  12.038   8.564
 3100POPC   D2A40924  25.310  12.079   8.264
 3100POPC   C3A40925  25.282  12.093   7.964
 3100POPC   C4A40926  25.259  12.101   7.664
 3100POPC   C1B40927  25.515  12.194   8.564
 3100POPC   C2B40928  25.515  12.212   8.264
 3100POPC   C3B40929  25.496  12.218   7.964
 3100POPC   C4B40930  25.446  12.228   7.664
 3101POPC   NC340931   2.761  19.835   9.464
 3101POPC   PO440932   2.802  19.829   9.164
 3101POPC   GL140933   2.814  19.856   8.864
 3101POPC   GL240934   2.873  19.691   8.864
 3101POPC   C1A40935   2.742  19.877   8.564
 3101POPC   D2A40936   2.732  19.817   8.264
 3101POPC   C3A40937   2.780  19.825   7.964
 3101POPC   C4A40938   2.778  19.809   7.664
 3101POPC   C1B40939   2.942  19.599   8.564
 3101POPC   C2B40940   2.977  19.617   8.264
 3101POPC   C3B40941   2.974  19.685   7.964
 3101POPC   C4B40942   2.934  19.686   7.664
 3102POPC   NC340943  43.139  29.884   9.464
 3102POPC   PO440944  43.159  29.922   9.164
 3102POPC   GL140945  43.126  29.916   8.864
 3102POPC   GL240946  42.979  29.903   8.864
 3102POPC   C1A40947  43.150  29.874   8.564
 3102POPC   D2A40948  43.078  29.912   8.264
 3102POPC   C3A40949  43.127  29.971   7.964
 3102POPC   C4A40950  43.146  29.969   7.664
 3102POPC   C1B40951  42.883  29.929   8.564
 3102POPC   C2B40952  42.860  29.940   8.264
 3102POPC   C3B40953  42.870  29.985   7.964
 3102POPC   C4B40954  42.886  29.920   7.664
 3103POPC   NC340955  29.873  26.801   9.464
 3103POPC   PO440956  29.895  26.808   9.164
 3103POPC   GL140957  29.911  26.820   8.864
 3103POPC   GL240958  29.866  26.975   8.864
 3103POPC   C1A40959  29.964  26.824   8.564
 3103POPC   D2A40960  29.885  26.796   8.264
 3103POPC   C3A40961  29.871  26.799   7.964
 3103POPC   C4A40962  29.923  26.774   7.664
 3103POPC   C1B40963  29.874  27.045   8.564
 3103POPC   C2B40964  29.822  27.074   8.264
 3103POPC   C3B40965  29.811  27.103   7.964
 3103POPC   C4B40966  29.874  27.087   7.664
 3104POPC   NC340967  22.910  19.069   9.464
 3104POPC   PO440968  22.976  19.040   9.164
 3104POPC   GL140969  22.923  19.091   8.864
 3104POPC   GL240970  22.985  18.984   8.864
 3104POPC   C1A40971  22.973  19.015   8.564
 3104POPC   D2A40972  22.917  19.089   8.264
 3104POPC   C3A40973  22.951  19.018   7.964
 3104POPC   C4A40974  22.973  19.022   7.664
 3104POPC   C1B40975  22.963  18.794   8.564
 3104POPC   C2B40976  22.912  18.802   8.264
 3104POPC   C3B40977  22.975  18.801   7.964
 3104POPC   C4B40978  22.946  18.849   7.664
 3105POPC   NC340979  29.109  32.219   9.464
 3105POPC   PO440980  29.127  32.212   9.164
 3105POPC   GL140981  29.104  32.212   8.864
 3105POPC   GL240982  29.254  32.203   8.864
 3105POPC   C1A40983  29.098  32.220   8.564
 3105POPC   D2A40984  29.106  32.244   8.264
 3105POPC   C3A40985  29.136  32.215   7.964
 3105POPC   C4A40986  29.147  32.218   7.664
 3105POPC   C1B40987  29.335  32.055   8.564
 3105POPC   C2B40988  29.373  32.060   8.264
 3105POPC   C3B40989  29.305  32.069   7.964
 3105POPC   C4B40990  29.365  32.140   7.664
 3106POPC   NC340991   8.163   7.467   9.464
 3106POPC   PO440992   8.201   7.466   9.164
 3106POPC   GL140993   8.201   7.469   8.864
 3106POPC   GL240994   8.242   7.504   8.864
 3106POPC   C1A40995   8.215   7.425   8.564
 3106POPC   D2A40996   8.218   7.468   8.264
 3106POPC   C3A40997   8.217   7.433   7.964
 3106POPC   C4A40998   8.231   7.460   7.664
 3106POPC   C1B40999   8.240   7.672   8.564
 3106POPC   C2B41000   8.178   7.638   8.264
 3106POPC   C3B41001   8.184   7.652   7.964
 3106POPC   C4B41002   8.264   7.636   7.664
 3107POPC   NC341003   9.727  12.876   9.464
 3107POPC   PO441004   9.735  12.890   9.164
 3107POPC   GL141005   9.700  12.846   8.864
 3107POPC   GL241006   9.748  12.991   8.864
 3107POPC   C1A41007   9.757  12.872   8.564
 3107POPC   D2A41008   9.719  12.810   8.264
 3107POPC   C3A41009   9.776  12.846   7.964
 3107POPC   C4A41010   9.713  12.863   7.664
 3107POPC   C1B41011   9.654  13.114   8.564
 3107POPC   C2B41012   9.670  13.076   8.264
 3107POPC   C3B41013   9.686  13.117   7.964
 3107POPC   C4B41014   9.688  13.078   7.664
 3108POPC   NC341015  31.504  15.210   9.464
 3108POPC   PO441016  31.515  15.198   9.164
 3108POPC   GL141017  31.489  15.195   8.864
 3108POPC   GL241018  31.439  15.030   8.864
 3108POPC   C1A41019  31.479  15.175   8.564
 3108POPC   D2A41020  31.484  15.156   8.264
 3108POPC   C3A41021  31.520  15.138   7.964
 3108POPC   C4A41022  31.498  15.214   7.664
 3108POPC   C1B41023  31.354  14.946   8.564
 3108POPC   C2B41024  31.311  14.933   8.264
 3108POPC   C3B41025  31.364  14.968   7.964
 3108POPC   C4B41026  31.402  14.998   7.664
 3109POPC   NC341027  43.067   0.474   9.464
 3109POPC   PO441028  43.119   0.470   9.164
 3109POPC   GL141029  43.143   0.445   8.864
 3109POPC   GL241030  43.274   0.389   8.864
 3109POPC   C1A41031  43.142   0.398   8.564
 3109POPC   D2A41032  43.073   0.460   8.264
 3109POPC   C3A41033  43.143   0.408   7.964
 3109POPC   C4A41034  43.088   0.446   7.664
 3109POPC   C1B41035  43.409   0.439   8.564
 3109POPC   C2B41036  43.314   0.439   8.264
 3109POPC   C3B41037  43.410   0.462   7.964
 3109POPC   C4B41038  43.311   0.402   7.664
 3110POPC   NC341039  39.977  16.702   9.464
 3110POPC   PO441040  40.037  16.714   9.164
 3110POPC   GL141041  39.969  16.750   8.864
 3110POPC   GL241042  39.897  16.686   8.864
 3110POPC   C1A41043  40.034  16.723   8.564
 3110POPC   D2A41044  40.017  16.763   8.264
 3110POPC   C3A41045  39.962  16.777   7.964
 3110POPC   C4A41046  39.968  16.775   7.664
 3110POPC   C1B41047  39.891  16.585   8.564
 3110POPC   C2B41048  39.858  16.580   8.264
 3110POPC   C3B41049  39.800  16.506   7.964
 3110POPC   C4B41050  39.797  16.579   7.664
 3111POPC   NC341051  37.642  15.967   9.464
 3111POPC   PO441052  37.662  15.919   9.164
 3111POPC   GL141053  37.723  15.959   8.864
 3111POPC   GL241054  37.792  15.886   8.864
 3111POPC   C1A41055  37.671  15.961   8.564
 3111POPC   D2A41056  37.720  15.998   8.264
 3111POPC   C3A41057  37.690  15.916   7.964
 3111POPC   C4A41058  37.718  15.940   7.664
 3111POPC   C1B41059  37.812  15.735   8.564
 3111POPC   C2B41060  37.872  15.805   8.264
 3111POPC   C3B41061  37.887  15.779   7.964
 3111POPC   C4B41062  37.878  15.794   7.664
 3112POPC   NC341063  40.760  33.807   9.464
 3112POPC   PO441064  40.739  33.751   9.164
 3112POPC   GL141065  40.767  33.809   8.864
 3112POPC   GL241066  40.794  33.661   8.864
 3112POPC   C1A41067  40.832  33.818   8.564
 3112POPC   D2A41068  40.797  33.757   8.264
 3112POPC   C3A41069  40.774  33.783   7.964
 3112POPC   C4A41070  40.801  33.835   7.664
 3112POPC   C1B41071  40.907  33.528   8.564
 3112POPC   C2B41072  40.907  33.585   8.264
 3112POPC   C3B41073  40.855  33.543   7.964
 3112POPC   C4B41074  40.822  33.563   7.664
 3113POPC   NC341075  31.448   1.240   9.464
 3113POPC   PO441076  31.503   1.202   9.164
 3113POPC   GL141077  31.451   1.254   8.864
 3113POPC   GL241078  31.320   1.237   8.864
 3113POPC   C1A41079  31.515   1.227   8.564
 3113POPC   D2A41080  31.454   1.212   8.264
 3113POPC   C3A41081  31.463   1.245   7.964
 3113POPC   C4A41082  31.474   1.225   7.664
 3113POPC   C1B41083  31.199   1.340   8.564
 3113POPC   C2B41084  31.284   1.277   8.264
 3113POPC   C3B41085  31.216   1.273   7.964
 3113POPC   C4B41086  31.230   1.312   7.664
 3114POPC   NC341087  36.139  27.581   9.464
 3114POPC   PO441088  36.129  27.549   9.164
 3114POPC   GL141089  36.164  27.549   8.864
 3114POPC   GL241090  36.112  27.727   8.864
 3114POPC   C1A41091  36.149  27.547   8.564
 3114POPC   D2A41092  36.091  27.569   8.264
 3114POPC   C3A41093  36.106  27.590   7.964
 3114POPC   C4A41094  36.160  27.555   7.664
 3114POPC   C1B41095  36.147  27.796   8.564
 3114POPC   C2B41096  36.109  27.869   8.264
 3114POPC   C3B41097  36.108  27.829   7.964
 3114POPC   C4B41098  36.063  27.792   7.664
 3115POPC   NC341099  15.960  29.174   9.464
 3115POPC   PO441100  15.988  29.185   9.164
 3115POPC   GL141101  15.933  29.107   8.864
 3115POPC   GL241102  15.884  29.286   8.864
 3115POPC   C1A41103  15.920  29.145   8.564
 3115POPC   D2A41104  15.964  29.120   8.264
 3115POPC   C3A41105  15.990  29.119   7.964
 3115POPC   C4A41106  15.909  29.106   7.664
 3115POPC   C1B41107  15.817  29.360   8.564
 3115POPC   C2B41108  15.817  29.334   8.264
 3115POPC   C3B41109  15.854  29.385   7.964
 3115POPC   C4B41110  15.809  29.334   7.664
 3116POPC   NC341111  34.559  16.779   9.464
 3116POPC   PO441112  34.608  16.707   9.164
 3116POPC   GL141113  34.530  16.765   8.864
 3116POPC   GL241114  34.494  16.703   8.864
 3116POPC   C1A41115  34.539  16.731   8.564
 3116POPC   D2A41116  34.614  16.779   8.264
 3116POPC   C3A41117  34.563  16.770   7.964
 3116POPC   C4A41118  34.592  16.736   7.664
 3116POPC   C1B41119  34.326  16.748   8.564
 3116POPC   C2B41120  34.301  16.707   8.264
 3116POPC   C3B41121  34.351  16.734   7.964
 3116POPC   C4B41122  34.318  16.726   7.664
 3117POPC   NC341123  15.206  31.466   9.464
 3117POPC   PO441124  15.194  31.495   9.164
 3117POPC   GL141125  15.179  31.426   8.864
 3117POPC   GL241126  15.129  31.565   8.864
 3117POPC   C1A41127  15.204  31.431   8.564
 3117POPC   D2A41128  15.192  31.466   8.264
 3117POPC   C3A41129  15.203  31.459   7.964
 3117POPC   C4A41130  15.191  31.470   7.664
 3117POPC   C1B41131  14.977  31.634   8.564
 3117POPC   C2B41132  15.023  31.646   8.264
 3117POPC   C3B41133  15.024  31.700   7.964
 3117POPC   C4B41134  15.046  31.676   7.664
 3118POPC   NC341135   2.776  15.191   9.464
 3118POPC   PO441136   2.784  15.198   9.164
 3118POPC   GL141137   2.763  15.186   8.864
 3118POPC   GL241138   2.864  15.133   8.864
 3118POPC   C1A41139   2.802  15.204   8.564
 3118POPC   D2A41140   2.800  15.174   8.264
 3118POPC   C3A41141   2.755  15.225   7.964
 3118POPC   C4A41142   2.766  15.180   7.664
 3118POPC   C1B41143   2.967  15.067   8.564
 3118POPC   C2B41144   2.937  15.020   8.264
 3118POPC   C3B41145   2.952  15.033   7.964
 3118POPC   C4B41146   2.929  15.083   7.664
 3119POPC   NC341147  26.858   6.652   9.464
 3119POPC   PO441148  26.863   6.668   9.164
 3119POPC   GL141149  26.859   6.619   8.864
 3119POPC   GL241150  26.844   6.797   8.864
 3119POPC   C1A41151  26.777   6.642   8.564
 3119POPC   D2A41152  26.790   6.609   8.264
 3119POPC   C3A41153  26.836   6.614   7.964
 3119POPC   C4A41154  26.801   6.618   7.664
 3119POPC   C1B41155  26.863   6.843   8.564
 3119POPC   C2B41156  26.874   6.906   8.264
 3119POPC   C3B41157  26.889   6.833   7.964
 3119POPC   C4B41158  26.880   6.876   7.664
 3120POPC   NC341159   3.561  12.864   9.464
 3120POPC   PO441160   3.555  12.816   9.164
 3120POPC   GL141161   3.545  12.843   8.864
 3120POPC   GL241162   3.640  12.699   8.864
 3120POPC   C1A41163   3.497  12.852   8.564
 3120POPC   D2A41164   3.549  12.835   8.264
 3120POPC   C3A41165   3.512  12.880   7.964
 3120POPC   C4A41166   3.499  12.900   7.664
 3120POPC   C1B41167   3.624  12.655   8.564
 3120POPC   C2B41168   3.665  12.621   8.264
 3120POPC   C3B41169   3.680  12.662   7.964
 3120POPC   C4B41170   3.641  12.601   7.664
 3121POPC   NC341171   1.251   7.425   9.464
 3121POPC   PO441172   1.248   7.463   9.164
 3121POPC   GL141173   1.229   7.400   8.864
 3121POPC   GL241174   1.286   7.508   8.864
 3121POPC   C1A41175   1.221   7.395   8.564
 3121POPC   D2A41176   1.239   7.462   8.264
 3121POPC   C3A41177   1.184   7.459   7.964
 3121POPC   C4A41178   1.250   7.391   7.664
 3121POPC   C1B41179   1.289   7.686   8.564
 3121POPC   C2B41180   1.309   7.705   8.264
 3121POPC   C3B41181   1.325   7.687   7.964
 3121POPC   C4B41182   1.295   7.628   7.664
 3122POPC   NC341183  26.778  43.917   5.564
 3122POPC   PO441184  26.795  43.844   5.864
 3122POPC   GL141185  26.845  43.880   6.164
 3122POPC   GL241186  26.695  43.911   6.164
 3122POPC   C1A41187  26.768  43.930   6.464
 3122POPC   D2A41188  26.837  43.933   6.764
 3122POPC   C3A41189  26.811  43.885   7.064
 3122POPC   C4A41190  26.825  43.926   7.364
 3122POPC   C1B41191  26.591  44.003   6.464
 3122POPC   C2B41192  26.590  44.024   6.764
 3122POPC   C3B41193  26.573  44.029   7.064
 3122POPC   C4B41194  26.645  43.966   7.364
 3123POPC   NC341195  41.525   8.226   5.564
 3123POPC   PO441196  41.560   8.243   5.864
 3123POPC   GL141197  41.572   8.224   6.164
 3123POPC   GL241198  41.626   8.317   6.164
 3123POPC   C1A41199  41.536   8.228   6.464
 3123POPC   D2A41200  41.584   8.233   6.764
 3123POPC   C3A41201  41.583   8.168   7.064
 3123POPC   C4A41202  41.544   8.223   7.364
 3123POPC   C1B41203  41.570   8.423   6.464
 3123POPC   C2B41204  41.630   8.397   6.764
 3123POPC   C3B41205  41.594   8.446   7.064
 3123POPC   C4B41206  41.612   8.444   7.364
 3124POPC   NC341207  15.186  32.253   5.564
 3124POPC   PO441208  15.162  32.246   5.864
 3124POPC   GL141209  15.176  32.287   6.164
 3124POPC   GL241210  15.118  32.277   6.164
 3124POPC   C1A41211  15.183  32.269   6.464
 3124POPC   D2A41212  15.197  32.250   6.764
 3124POPC   C3A41213  15.218  32.224   7.064
 3124POPC   C4A41214  15.209  32.249   7.364
 3124POPC   C1B41215  14.941  32.424   6.464
 3124POPC   C2B41216  15.022  32.419   6.764
 3124POPC   C3B41217  14.973  32.346   7.064
 3124POPC   C4B41218  14.944  32.422   7.364
 3125POPC   NC341219  12.857  19.853   5.564
 3125POPC   PO441220  12.855  19.869   5.864
 3125POPC   GL141221  12.865  19.843   6.164
 3125POPC   GL241222  12.775  19.734   6.164
 3125POPC   C1A41223  12.833  19.875   6.464
 3125POPC   D2A41224  12.876  19.872   6.764
 3125POPC   C3A41225  12.845  19.842   7.064
 3125POPC   C4A41226  12.813  19.824   7.364
 3125POPC   C1B41227  12.629  19.678   6.464
 3125POPC   C2B41228  12.688  19.703   6.764
 3125POPC   C3B41229  12.642  19.639   7.064
 3125POPC   C4B41230  12.627  19.703   7.364
 3126POPC   NC341231  32.282  37.687   5.564
 3126POPC   PO441232  32.234  37.632   5.864
 3126POPC   GL141233  32.231  37.690   6.164
 3126POPC   GL241234  32.242  37.767   6.164
 3126POPC   C1A41235  32.217  37.704   6.464
 3126POPC   D2A41236  32.209  37.658   6.764
 3126POPC   C3A41237  32.254  37.637   7.064
 3126POPC   C4A41238  32.274  37.711   7.364
 3126POPC   C1B41239  32.164  37.870   6.464
 3126POPC   C2B41240  32.123  37.945   6.764
 3126POPC   C3B41241  32.158  37.906   7.064
 3126POPC   C4B41242  32.161  37.938   7.364
 3127POPC   NC341243   3.503  26.061   5.564
 3127POPC   PO441244   3.524  25.996   5.864
 3127POPC   GL141245   3.550  26.037   6.164
 3127POPC   GL241246   3.543  26.181   6.164
 3127POPC   C1A41247   3.557  26.082   6.464
 3127POPC   D2A41248   3.528  26.009   6.764
 3127POPC   C3A41249   3.566  26.074   7.064
 3127POPC   C4A41250   3.538  26.058   7.364
 3127POPC   C1B41251   3.468  26.284   6.464
 3127POPC   C2B41252   3.508  26.246   6.764
 3127POPC   C3B41253   3.455  26.290   7.064
 3127POPC   C4B41254   3.522  26.280   7.364
 3128POPC   NC341255  19.869   3.569   5.564
 3128POPC   PO441256  19.879   3.526   5.864
 3128POPC   GL141257  19.823   3.576   6.164
 3128POPC   GL241258  19.737   3.466   6.164
 3128POPC   C1A41259  19.841   3.506   6.464
 3128POPC   D2A41260  19.852   3.498   6.764
 3128POPC   C3A41261  19.853   3.496   7.064
 3128POPC   C4A41262  19.863   3.579   7.364
 3128POPC   C1B41263  19.624   3.329   6.464
 3128POPC   C2B41264  19.713   3.335   6.764
 3128POPC   C3B41265  19.642   3.375   7.064
 3128POPC   C4B41266  19.660   3.369   7.364
 3129POPC   NC341267  28.344  19.085   5.564
 3129POPC   PO441268  28.344  19.026   5.864
 3129POPC   GL141269  28.351  19.025   6.164
 3129POPC   GL241270  28.537  18.976   6.164
 3129POPC   C1A41271  28.348  19.091   6.464
 3129POPC   D2A41272  28.335  19.107   6.764
 3129POPC   C3A41273  28.324  19.050   7.064
 3129POPC   C4A41274  28.333  19.028   7.364
 3129POPC   C1B41275  28.651  18.981   6.464
 3129POPC   C2B41276  28.620  19.028   6.764
 3129POPC   C3B41277  28.628  18.979   7.064
 3129POPC   C4B41278  28.558  18.968   7.364
 3130POPC   NC341279  34.574  36.904   5.564
 3130POPC   PO441280  34.574  36.884   5.864
 3130POPC   GL141281  34.604  36.859   6.164
 3130POPC   GL241282  34.663  36.983   6.164
 3130POPC   C1A41283  34.591  36.901   6.464
 3130POPC   D2A41284  34.560  36.940   6.764
 3130POPC   C3A41285  34.620  36.917   7.064
 3130POPC   C4A41286  34.574  36.886   7.364
 3130POPC   C1B41287  34.794  37.067   6.464
 3130POPC   C2B41288  34.733  37.119   6.764
 3130POPC   C3B41289  34.786  37.090   7.064
 3130POPC   C4B41290  34.708  37.064   7.364
 3131POPC   NC341291  10.515  27.554   5.564
 3131POPC   PO441292  10.554  27.595   5.864
 3131POPC   GL141293  10.486  27.613   6.164
 3131POPC   GL241294  10.591  27.683   6.164
 3131POPC   C1A41295  10.566  27.601   6.464
 3131POPC   D2A41296  10.568  27.567   6.764
 3131POPC   C3A41297  10.495  27.577   7.064
 3131POPC   C4A41298  10.549  27.551   7.364
 3131POPC   C1B41299  10.556  27.834   6.464
 3131POPC   C2B41300  10.620  27.793   6.764
 3131POPC   C3B41301  10.529  27.884   7.064
 3131POPC   C4B41302  10.542  27.837   7.364
 3132POPC   NC341303  19.802  29.953   5.564
 3132POPC   PO441304  19.802  29.961   5.864
 3132POPC   GL141305  19.836  29.928   6.164
 3132POPC   GL241306  19.846  29.856   6.164
 3132POPC   C1A41307  19.877  29.894   6.464
 3132POPC   D2A41308  19.805  29.905   6.764
 3132POPC   C3A41309  19.861  29.905   7.064
 3132POPC   C4A41310  19.834  29.936   7.364
 3132POPC   C1B41311  19.963  29.727   6.464
 3132POPC   C2B41312  19.987  29.723   6.764
 3132POPC   C3B41313  19.955  29.720   7.064
 3132POPC   C4B41314  19.941  29.680   7.364
 3133POPC   NC341315  25.246  10.564   5.564
 3133POPC   PO441316  25.225  10.559   5.864
 3133POPC   GL141317  25.257  10.506   6.164
 3133POPC   GL241318  25.157  10.422   6.164
 3133POPC   C1A41319  25.251  10.519   6.464
 3133POPC   D2A41320  25.243  10.544   6.764
 3133POPC   C3A41321  25.286  10.492   7.064
 3133POPC   C4A41322  25.277  10.557   7.364
 3133POPC   C1B41323  25.088  10.330   6.464
 3133POPC   C2B41324  25.101  10.294   6.764
 3133POPC   C3B41325  25.071  10.336   7.064
 3133POPC   C4B41326  25.073  10.345   7.364
 3134POPC   NC341327  39.279  32.287   5.564
 3134POPC   PO441328  39.244  32.200   5.864
 3134POPC   GL141329  39.267  32.284   6.164
 3134POPC   GL241330  39.364  32.323   6.164
 3134POPC   C1A41331  39.196  32.282   6.464
 3134POPC   D2A41332  39.209  32.280   6.764
 3134POPC   C3A41333  39.251  32.243   7.064
 3134POPC   C4A41334  39.250  32.280   7.364
 3134POPC   C1B41335  39.439  32.346   6.464
 3134POPC   C2B41336  39.475  32.332   6.764
 3134POPC   C3B41337  39.516  32.315   7.064
 3134POPC   C4B41338  39.498  32.303   7.364
 3135POPC   NC341339  40.000  22.116   5.564
 3135POPC   PO441340  40.012  22.205   5.864
 3135POPC   GL141341  40.049  22.166   6.164
 3135POPC   GL241342  39.880  22.089   6.164
 3135POPC   C1A41343  39.976  22.171   6.464
 3135POPC   D2A41344  40.056  22.166   6.764
 3135POPC   C3A41345  39.981  22.131   7.064
 3135POPC   C4A41346  39.999  22.115   7.364
 3135POPC   C1B41347  39.780  22.059   6.464
 3135POPC   C2B41348  39.846  22.002   6.764
 3135POPC   C3B41349  39.782  21.973   7.064
 3135POPC   C4B41350  39.773  22.017   7.364
 3136POPC   NC341351  30.663  38.423   5.564
 3136POPC   PO441352  30.685  38.456   5.864
 3136POPC   GL141353  30.738  38.448   6.164
 3136POPC   GL241354  30.632  38.390   6.164
 3136POPC   C1A41355  30.710  38.464   6.464
 3136POPC   D2A41356  30.663  38.471   6.764
 3136POPC   C3A41357  30.687  38.421   7.064
 3136POPC   C4A41358  30.692  38.422   7.364
 3136POPC   C1B41359  30.603  38.206   6.464
 3136POPC   C2B41360  30.553  38.249   6.764
 3136POPC   C3B41361  30.592  38.215   7.064
 3136POPC   C4B41362  30.629  38.240   7.364
 3137POPC   NC341363   1.965  25.315   5.564
 3137POPC   PO441364   1.996  25.297   5.864
 3137POPC   GL141365   1.996  25.227   6.164
 3137POPC   GL241366   2.049  25.426   6.164
 3137POPC   C1A41367   2.007  25.279   6.464
 3137POPC   D2A41368   1.949  25.276   6.764
 3137POPC   C3A41369   1.985  25.230   7.064
 3137POPC   C4A41370   1.968  25.306   7.364
 3137POPC   C1B41371   2.029  25.540   6.464
 3137POPC   C2B41372   2.080  25.458   6.764
 3137POPC   C3B41373   2.032  25.555   7.064
 3137POPC   C4B41374   2.032  25.531   7.364
 3138POPC   NC341375   5.085  38.413   5.564
 3138POPC   PO441376   5.109  38.478   5.864
 3138POPC   GL141377   5.049  38.420   6.164
 3138POPC   GL241378   5.126  38.343   6.164
 3138POPC   C1A41379   5.139  38.422   6.464
 3138POPC   D2A41380   5.049  38.470   6.764
 3138POPC   C3A41381   5.130  38.412   7.064
 3138POPC   C4A41382   5.077  38.495   7.364
 3138POPC   C1B41383   5.097  38.192   6.464
 3138POPC   C2B41384   5.155  38.180   6.764
 3138POPC   C3B41385   5.092  38.210   7.064
 3138POPC   C4B41386   5.096  38.160   7.364
 3139POPC   NC341387  26.810   1.956   5.564
 3139POPC   PO441388  26.777   2.025   5.864
 3139POPC   GL141389  26.854   1.955   6.164
 3139POPC   GL241390  26.741   1.868   6.164
 3139POPC   C1A41391  26.825   2.000   6.464
 3139POPC   D2A41392  26.825   1.989   6.764
 3139POPC   C3A41393  26.769   1.979   7.064
 3139POPC   C4A41394  26.802   2.008   7.364
 3139POPC   C1B41395  26.680   1.814   6.464
 3139POPC   C2B41396  26.643   1.824   6.764
 3139POPC   C3B41397  26.630   1.827   7.064
 3139POPC   C4B41398  26.622   1.772   7.364
 3140POPC   NC341399  44.674   8.925   5.564
 3140POPC   PO441400  44.661   8.944   5.864
 3140POPC   GL141401  44.681   8.948   6.164
 3140POPC   GL241402  44.628   8.812   6.164
 3140POPC   C1A41403  44.703   8.981   6.464
 3140POPC   D2A41404  44.615   8.999   6.764
 3140POPC   C3A41405  44.667   8.964   7.064
 3140POPC   C4A41406  44.636   8.934   7.364
 3140POPC   C1B41407  44.581   8.689   6.464
 3140POPC   C2B41408  44.601   8.692   6.764
 3140POPC   C3B41409  44.580   8.776   7.064
 3140POPC   C4B41410  44.645   8.689   7.364
 3141POPC   NC341411  35.358  22.159   5.564
 3141POPC   PO441412  35.396  22.118   5.864
 3141POPC   GL141413  35.309  22.192   6.164
 3141POPC   GL241414  35.449  22.204   6.164
 3141POPC   C1A41415  35.308  22.175   6.464
 3141POPC   D2A41416  35.342  22.174   6.764
 3141POPC   C3A41417  35.395  22.202   7.064
 3141POPC   C4A41418  35.387  22.127   7.364
 3141POPC   C1B41419  35.619  22.159   6.464
 3141POPC   C2B41420  35.583  22.158   6.764
 3141POPC   C3B41421  35.592  22.162   7.064
 3141POPC   C4B41422  35.628  22.247   7.364
 3142POPC   NC341423   1.199  24.442   5.564
 3142POPC   PO441424   1.260  24.470   5.864
 3142POPC   GL141425   1.231  24.468   6.164
 3142POPC   GL241426   1.113  24.397   6.164
 3142POPC   C1A41427   1.227  24.496   6.464
 3142POPC   D2A41428   1.254  24.526   6.764
 3142POPC   C3A41429   1.223  24.476   7.064
 3142POPC   C4A41430   1.165  24.538   7.364
 3142POPC   C1B41431   0.988  24.307   6.464
 3142POPC   C2B41432   1.006  24.340   6.764
 3142POPC   C3B41433   0.993  24.354   7.064
 3142POPC   C4B41434   0.960  24.338   7.364
 3143POPC   NC341435  36.087   2.003   5.564
 3143POPC   PO441436  36.100   1.968   5.864
 3143POPC   GL141437  36.086   1.945   6.164
 3143POPC   GL241438  36.201   1.849   6.164
 3143POPC   C1A41439  36.141   1.941   6.464
 3143POPC   D2A41440  36.167   1.974   6.764
 3143POPC   C3A41441  36.112   2.016   7.064
 3143POPC   C4A41442  36.096   1.991   7.364
 3143POPC   C1B41443  36.330   1.833   6.464
 3143POPC   C2B41444  36.305   1.825   6.764
 3143POPC   C3B41445  36.316   1.777   7.064
 3143POPC   C4B41446  36.271   1.782   7.364
 3144POPC   NC341447  36.132  17.545   5.564
 3144POPC   PO441448  36.099  17.465   5.864
 3144POPC   GL141449  36.104  17.476   6.164
 3144POPC   GL241450  36.037  17.633   6.164
 3144POPC   C1A41451  36.163  17.526   6.464
 3144POPC   D2A41452  36.168  17.502   6.764
 3144POPC   C3A41453  36.153  17.485   7.064
 3144POPC   C4A41454  36.174  17.496   7.364
 3144POPC   C1B41455  36.043  17.692   6.464
 3144POPC   C2B41456  35.985  17.736   6.764
 3144POPC   C3B41457  35.998  17.691   7.064
 3144POPC   C4B41458  36.061  17.694   7.364
 3145POPC   NC341459  30.697  15.144   5.564
 3145POPC   PO441460  30.716  15.151   5.864
 3145POPC   GL141461  30.723  15.149   6.164
 3145POPC   GL241462  30.803  15.242   6.164
 3145POPC   C1A41463  30.683  15.130   6.464
 3145POPC   D2A41464  30.717  15.168   6.764
 3145POPC   C3A41465  30.671  15.147   7.064
 3145POPC   C4A41466  30.693  15.229   7.364
 3145POPC   C1B41467  30.832  15.406   6.464
 3145POPC   C2B41468  30.813  15.396   6.764
 3145POPC   C3B41469  30.862  15.344   7.064
 3145POPC   C4B41470  30.849  15.343   7.364
 3146POPC   NC341471  28.406  39.197   5.564
 3146POPC   PO441472  28.387  39.237   5.864
 3146POPC   GL141473  28.356  39.189   6.164
 3146POPC   GL241474  28.336  39.311   6.164
 3146POPC   C1A41475  28.415  39.279   6.464
 3146POPC   D2A41476  28.381  39.225   6.764
 3146POPC   C3A41477  28.379  39.250   7.064
 3146POPC   C4A41478  28.362  39.227   7.364
 3146POPC   C1B41479  28.309  39.484   6.464
 3146POPC   C2B41480  28.253  39.418   6.764
 3146POPC   C3B41481  28.308  39.470   7.064
 3146POPC   C4B41482  28.251  39.452   7.364
 3147POPC   NC341483   0.471  40.793   5.564
 3147POPC   PO441484   0.453  40.762   5.864
 3147POPC   GL141485   0.458  40.807   6.164
 3147POPC   GL241486   0.358  40.677   6.164
 3147POPC   C1A41487   0.478  40.740   6.464
 3147POPC   D2A41488   0.481  40.735   6.764
 3147POPC   C3A41489   0.469  40.767   7.064
 3147POPC   C4A41490   0.409  40.770   7.364
 3147POPC   C1B41491   0.315  40.514   6.464
 3147POPC   C2B41492   0.344  40.582   6.764
 3147POPC   C3B41493   0.343  40.571   7.064
 3147POPC   C4B41494   0.331  40.572   7.364
 3148POPC   NC341495  41.517  15.130   5.564
 3148POPC   PO441496  41.531  15.169   5.864
 3148POPC   GL141497  41.543  15.178   6.164
 3148POPC   GL241498  41.697  15.102   6.164
 3148POPC   C1A41499  41.544  15.229   6.464
 3148POPC   D2A41500  41.563  15.216   6.764
 3148POPC   C3A41501  41.560  15.171   7.064
 3148POPC   C4A41502  41.588  15.209   7.364
 3148POPC   C1B41503  41.771  15.086   6.464
 3148POPC   C2B41504  41.780  15.064   6.764
 3148POPC   C3B41505  41.823  15.061   7.064
 3148POPC   C4B41506  41.815  15.014   7.364
 3149POPC   NC341507   9.764  41.567   5.564
 3149POPC   PO441508   9.710  41.512   5.864
 3149POPC   GL141509   9.715  41.574   6.164
 3149POPC   GL241510   9.770  41.464   6.164
 3149POPC   C1A41511   9.763  41.603   6.464
 3149POPC   D2A41512   9.730  41.591   6.764
 3149POPC   C3A41513   9.757  41.575   7.064
 3149POPC   C4A41514   9.749  41.587   7.364
 3149POPC   C1B41515   9.814  41.294   6.464
 3149POPC   C2B41516   9.761  41.332   6.764
 3149POPC   C3B41517   9.836  41.284   7.064
 3149POPC   C4B41518   9.762  41.273   7.364
 3150POPC   NC341519  36.108   5.849   5.564
 3150POPC   PO441520  36.150   5.847   5.864
 3150POPC   GL141521  36.164   5.873   6.164
 3150POPC   GL241522  36.255   5.844   6.164
 3150POPC   C1A41523  36.118   5.884   6.464
 3150POPC   D2A41524  36.176   5.827   6.764
 3150POPC   C3A41525  36.130   5.827   7.064
 3150POPC   C4A41526  36.112   5.896   7.364
 3150POPC   C1B41527  36.366   5.758   6.464
 3150POPC   C2B41528  36.343   5.768   6.764
 3150POPC   C3B41529  36.329   5.797   7.064
 3150POPC   C4B41530  36.362   5.717   7.364
 3151POPC   NC341531  22.160   6.690   5.564
 3151POPC   PO441532  22.198   6.685   5.864
 3151POPC   GL141533  22.179   6.617   6.164
 3151POPC   GL241534  22.300   6.679   6.164
 3151POPC   C1A41535  22.175   6.660   6.464
 3151POPC   D2A41536  22.140   6.652   6.764
 3151POPC   C3A41537  22.199   6.635   7.064
 3151POPC   C4A41538  22.205   6.615   7.364
 3151POPC   C1B41539  22.435   6.773   6.464
 3151POPC   C2B41540  22.429   6.722   6.764
 3151POPC   C3B41541  22.398   6.683   7.064
 3151POPC   C4B41542  22.352   6.712   7.364
 3152POPC   NC341543  41.569  22.156   5.564
 3152POPC   PO441544  41.556  22.131   5.864
 3152POPC   GL141545  41.592  22.166   6.164
 3152POPC   GL241546  41.474  22.252   6.164
 3152POPC   C1A41547  41.592  22.192   6.464
 3152POPC   D2A41548  41.562  22.174   6.764
 3152POPC   C3A41549  41.524  22.130   7.064
 3152POPC   C4A41550  41.557  22.130   7.364
 3152POPC   C1B41551  41.373  22.344   6.464
 3152POPC   C2B41552  41.319  22.286   6.764
 3152POPC   C3B41553  41.386  22.305   7.064
 3152POPC   C4B41554  41.381  22.315   7.364
 3153POPC   NC341555   7.372  36.946   5.564
 3153POPC   PO441556   7.383  36.894   5.864
 3153POPC   GL141557   7.454  36.856   6.164
 3153POPC   GL241558   7.486  36.877   6.164
 3153POPC   C1A41559   7.406  36.948   6.464
 3153POPC   D2A41560   7.388  36.881   6.764
 3153POPC   C3A41561   7.470  36.860   7.064
 3153POPC   C4A41562   7.403  36.894   7.364
 3153POPC   C1B41563   7.619  36.838   6.464
 3153POPC   C2B41564   7.622  36.794   6.764
 3153POPC   C3B41565   7.619  36.829   7.064
 3153POPC   C4B41566   7.668  36.848   7.364
 3154POPC   NC341567  18.259   5.068   5.564
 3154POPC   PO441568  18.241   5.077   5.864
 3154POPC   GL141569  18.316   5.076   6.164
 3154POPC   GL241570  18.387   5.187   6.164
 3154POPC   C1A41571  18.255   5.113   6.464
 3154POPC   D2A41572  18.270   5.077   6.764
 3154POPC   C3A41573  18.271   5.097   7.064
 3154POPC   C4A41574  18.296   5.105   7.364
 3154POPC   C1B41575  18.469   5.264   6.464
 3154POPC   C2B41576  18.388   5.297   6.764
 3154POPC   C3B41577  18.386   5.297   7.064
 3154POPC   C4B41578  18.386   5.297   7.364
 3155POPC   NC341579  14.444  16.735   5.564
 3155POPC   PO441580  14.388  16.722   5.864
 3155POPC   GL141581  14.402  16.713   6.164
 3155POPC   GL241582  14.322  16.808   6.164
 3155POPC   C1A41583  14.423  16.752   6.464
 3155POPC   D2A41584  14.425  16.685   6.764
 3155POPC   C3A41585  14.386  16.764   7.064
 3155POPC   C4A41586  14.395  16.733   7.364
 3155POPC   C1B41587  14.378  16.940   6.464
 3155POPC   C2B41588  14.324  16.964   6.764
 3155POPC   C3B41589  14.368  16.994   7.064
 3155POPC   C4B41590  14.328  16.943   7.364
 3156POPC   NC341591  44.665  29.154   5.564
 3156POPC   PO441592  44.641  29.146   5.864
 3156POPC   GL141593  44.685  29.184   6.164
 3156POPC   GL241594  44.594  29.077   6.164
 3156POPC   C1A41595  44.672  29.111   6.464
 3156POPC   D2A41596  44.655  29.190   6.764
 3156POPC   C3A41597  44.689  29.183   7.064
 3156POPC   C4A41598  44.619  29.195   7.364
 3156POPC   C1B41599  44.496  28.953   6.464
 3156POPC   C2B41600  44.550  28.918   6.764
 3156POPC   C3B41601  44.498  28.916   7.064
 3156POPC   C4B41602  44.554  28.901   7.364
 3157POPC   NC341603  21.365   1.260   5.564
 3157POPC   PO441604  21.434   1.199   5.864
 3157POPC   GL141605  21.367   1.252   6.164
 3157POPC   GL241606  21.342   1.345   6.164
 3157POPC   C1A41607  21.418   1.259   6.464
 3157POPC   D2A41608  21.360   1.182   6.764
 3157POPC   C3A41609  21.368   1.234   7.064
 3157POPC   C4A41610  21.344   1.226   7.364
 3157POPC   C1B41611  21.242   1.466   6.464
 3157POPC   C2B41612  21.204   1.405   6.764
 3157POPC   C3B41613  21.266   1.381   7.064
 3157POPC   C4B41614  21.287   1.454   7.364
 3158POPC   NC341615  13.633   7.402   5.564
 3158POPC   PO441616  13.656   7.452   5.864
 3158POPC   GL141617  13.629   7.446   6.164
 3158POPC   GL241618  13.658   7.310   6.164
 3158POPC   C1A41619  13.665   7.430   6.464
 3158POPC   D2A41620  13.581   7.445   6.764
 3158POPC   C3A41621  13.677   7.416   7.064
 3158POPC   C4A41622  13.611   7.422   7.364
 3158POPC   C1B41623  13.707   7.189   6.464
 3158POPC   C2B41624  13.691   7.233   6.764
 3158POPC   C3B41625  13.704   7.163   7.064
 3158POPC   C4B41626  13.700   7.171   7.364
 3159POPC   NC341627  22.136   1.953   5.564
 3159POPC   PO441628  22.144   1.956   5.864
 3159POPC   GL141629  22.142   1.989   6.164
 3159POPC   GL241630  22.194   2.081   6.164
 3159POPC   C1A41631  22.149   2.016   6.464
 3159POPC   D2A41632  22.186   1.951   6.764
 3159POPC   C3A41633  22.143   1.957   7.064
 3159POPC   C4A41634  22.210   1.963   7.364
 3159POPC   C1B41635  22.197   2.222   6.464
 3159POPC   C2B41636  22.211   2.224   6.764
 3159POPC   C3B41637  22.196   2.263   7.064
 3159POPC   C4B41638  22.173   2.216   7.364
 3160POPC   NC341639  22.185  21.403   5.564
 3160POPC   PO441640  22.153  21.429   5.864
 3160POPC   GL141641  22.162  21.369   6.164
 3160POPC   GL241642  22.006  21.330   6.164
 3160POPC   C1A41643  22.142  21.412   6.464
 3160POPC   D2A41644  22.191  21.435   6.764
 3160POPC   C3A41645  22.157  21.424   7.064
 3160POPC   C4A41646  22.143  21.388   7.364
 3160POPC   C1B41647  21.920  21.300   6.464
 3160POPC   C2B41648  21.949  21.276   6.764
 3160POPC   C3B41649  21.906  21.332   7.064
 3160POPC   C4B41650  21.886  21.327   7.364
 3161POPC   NC341651   9.763   2.770   5.564
 3161POPC   PO441652   9.753   2.811   5.864
 3161POPC   GL141653   9.715   2.806   6.164
 3161POPC   GL241654   9.617   2.793   6.164
 3161POPC   C1A41655   9.764   2.783   6.464
 3161POPC   D2A41656   9.713   2.778   6.764
 3161POPC   C3A41657   9.761   2.790   7.064
 3161POPC   C4A41658   9.711   2.804   7.364
 3161POPC   C1B41659   9.559   2.887   6.464
 3161POPC   C2B41660   9.546   2.865   6.764
 3161POPC   C3B41661   9.468   2.907   7.064
 3161POPC   C4B41662   9.509   2.821   7.364
 3162POPC   NC341663  31.478  24.535   5.564
 3162POPC   PO441664  31.439  24.499   5.864
 3162POPC   GL141665  31.495  24.531   6.164
 3162POPC   GL241666  31.464  24.414   6.164
 3162POPC   C1A41667  31.440  24.489   6.464
 3162POPC   D2A41668  31.436  24.473   6.764
 3162POPC   C3A41669  31.465  24.484   7.064
 3162POPC   C4A41670  31.468  24.455   7.364
 3162POPC   C1B41671  31.553  24.249   6.464
 3162POPC   C2B41672  31.578  24.226   6.764
 3162POPC   C3B41673  31.526  24.240   7.064
 3162POPC   C4B41674  31.507  24.285   7.364
 3163POPC   NC341675  22.162  25.310   5.564
 3163POPC   PO441676  22.114  25.227   5.864
 3163POPC   GL141677  22.122  25.306   6.164
 3163POPC   GL241678  22.143  25.189   6.164
 3163POPC   C1A41679  22.172  25.263   6.464
 3163POPC   D2A41680  22.137  25.265   6.764
 3163POPC   C3A41681  22.169  25.294   7.064
 3163POPC   C4A41682  22.199  25.248   7.364
 3163POPC   C1B41683  22.015  25.008   6.464
 3163POPC   C2B41684  22.049  25.044   6.764
 3163POPC   C3B41685  22.093  25.036   7.064
 3163POPC   C4B41686  22.075  25.045   7.364
 3164POPC   NC341687  21.422  26.866   5.564
 3164POPC   PO441688  21.432  26.816   5.864
 3164POPC   GL141689  21.410  26.795   6.164
 3164POPC   GL241690  21.473  26.891   6.164
 3164POPC   C1A41691  21.387  26.856   6.464
 3164POPC   D2A41692  21.410  26.820   6.764
 3164POPC   C3A41693  21.379  26.835   7.064
 3164POPC   C4A41694  21.384  26.793   7.364
 3164POPC   C1B41695  21.607  26.963   6.464
 3164POPC   C2B41696  21.555  26.993   6.764
 3164POPC   C3B41697  21.596  26.975   7.064
 3164POPC   C4B41698  21.581  26.956   7.364
 3165POPC   NC341699  12.086  40.800   5.564
 3165POPC   PO441700  12.092  40.799   5.864
 3165POPC   GL141701  12.075  40.813   6.164
 3165POPC   GL241702  12.110  40.913   6.164
 3165POPC   C1A41703  12.122  40.813   6.464
 3165POPC   D2A41704  12.041  40.798   6.764
 3165POPC   C3A41705  12.121  40.798   7.064
 3165POPC   C4A41706  12.102  40.762   7.364
 3165POPC   C1B41707  12.244  40.955   6.464
 3165POPC   C2B41708  12.203  41.028   6.764
 3165POPC   C3B41709  12.177  40.989   7.064
 3165POPC   C4B41710  12.176  41.035   7.364
 3166POPC   NC341711   4.319  16.004   5.564
 3166POPC   PO441712   4.281  15.935   5.864
 3166POPC   GL141713   4.292  15.997   6.164
 3166POPC   GL241714   4.283  16.082   6.164
 3166POPC   C1A41715   4.336  15.981   6.464
 3166POPC   D2A41716   4.272  15.993   6.764
 3166POPC   C3A41717   4.314  16.004   7.064
 3166POPC   C4A41718   4.272  15.943   7.364
 3166POPC   C1B41719   4.115  16.203   6.464
 3166POPC   C2B41720   4.157  16.162   6.764
 3166POPC   C3B41721   4.213  16.115   7.064
 3166POPC   C4B41722   4.134  16.140   7.364
 3167POPC   NC341723  27.622   1.978   5.564
 3167POPC   PO441724  27.582   1.978   5.864
 3167POPC   GL141725  27.600   2.004   6.164
 3167POPC   GL241726  27.606   1.866   6.164
 3167POPC   C1A41727  27.560   2.031   6.464
 3167POPC   D2A41728  27.583   1.954   6.764
 3167POPC   C3A41729  27.564   1.996   7.064
 3167POPC   C4A41730  27.543   1.946   7.364
 3167POPC   C1B41731  27.516   1.790   6.464
 3167POPC   C2B41732  27.501   1.735   6.764
 3167POPC   C3B41733  27.507   1.718   7.064
 3167POPC   C4B41734  27.538   1.748   7.364
 3168POPC   NC341735  22.964  35.328   5.564
 3168POPC   PO441736  22.974  35.323   5.864
 3168POPC   GL141737  22.909  35.338   6.164
 3168POPC   GL241738  22.927  35.204   6.164
 3168POPC   C1A41739  22.941  35.396   6.464
 3168POPC   D2A41740  22.949  35.317   6.764
 3168POPC   C3A41741  22.903  35.306   7.064
 3168POPC   C4A41742  22.940  35.336   7.364
 3168POPC   C1B41743  22.838  35.117   6.464
 3168POPC   C2B41744  22.781  35.134   6.764
 3168POPC   C3B41745  22.856  35.133   7.064
 3168POPC   C4B41746  22.806  35.120   7.364
 3169POPC   NC341747   6.640  33.758   5.564
 3169POPC   PO441748   6.619  33.816   5.864
 3169POPC   GL141749   6.608  33.804   6.164
 3169POPC   GL241750   6.578  33.704   6.164
 3169POPC   C1A41751   6.599  33.842   6.464
 3169POPC   D2A41752   6.624  33.849   6.764
 3169POPC   C3A41753   6.617  33.816   7.064
 3169POPC   C4A41754   6.653  33.760   7.364
 3169POPC   C1B41755   6.476  33.666   6.464
 3169POPC   C2B41756   6.459  33.695   6.764
 3169POPC   C3B41757   6.419  33.680   7.064
 3169POPC   C4B41758   6.444  33.646   7.364
 3170POPC   NC341759  37.723   8.995   5.564
 3170POPC   PO441760  37.709   8.985   5.864
 3170POPC   GL141761  37.647   8.967   6.164
 3170POPC   GL241762  37.675   9.080   6.164
 3170POPC   C1A41763  37.667   8.971   6.464
 3170POPC   D2A41764  37.706   8.954   6.764
 3170POPC   C3A41765  37.725   8.933   7.064
 3170POPC   C4A41766  37.693   8.924   7.364
 3170POPC   C1B41767  37.682   9.261   6.464
 3170POPC   C2B41768  37.645   9.222   6.764
 3170POPC   C3B41769  37.624   9.208   7.064
 3170POPC   C4B41770  37.663   9.204   7.364
 3171POPC   NC341771   1.235  41.608   5.564
 3171POPC   PO441772   1.260  41.540   5.864
 3171POPC   GL141773   1.215  41.603   6.164
 3171POPC   GL241774   1.231  41.636   6.164
 3171POPC   C1A41775   1.255  41.517   6.464
 3171POPC   D2A41776   1.221  41.517   6.764
 3171POPC   C3A41777   1.208  41.596   7.064
 3171POPC   C4A41778   1.223  41.574   7.364
 3171POPC   C1B41779   1.358  41.732   6.464
 3171POPC   C2B41780   1.375  41.740   6.764
 3171POPC   C3B41781   1.300  41.798   7.064
 3171POPC   C4B41782   1.353  41.750   7.364
 3172POPC   NC341783  43.087  11.323   5.564
 3172POPC   PO441784  43.110  11.283   5.864
 3172POPC   GL141785  43.139  11.319   6.164
 3172POPC   GL241786  42.996  11.276   6.164
 3172POPC   C1A41787  43.125  11.311   6.464
 3172POPC   D2A41788  43.104  11.299   6.764
 3172POPC   C3A41789  43.154  11.304   7.064
 3172POPC   C4A41790  43.071  11.273   7.364
 3172POPC   C1B41791  42.855  11.297   6.464
 3172POPC   C2B41792  42.818  11.281   6.764
 3172POPC   C3B41793  42.886  11.350   7.064
 3172POPC   C4B41794  42.881  11.326   7.364
 3173POPC   NC341795  19.881  11.345   5.564
 3173POPC   PO441796  19.794  11.310   5.864
 3173POPC   GL141797  19.805  11.280   6.164
 3173POPC   GL241798  19.854  11.157   6.164
 3173POPC   C1A41799  19.833  11.320   6.464
 3173POPC   D2A41800  19.847  11.327   6.764
 3173POPC   C3A41801  19.818  11.342   7.064
 3173POPC   C4A41802  19.797  11.302   7.364
 3173POPC   C1B41803  19.869  11.074   6.464
 3173POPC   C2B41804  19.888  11.080   6.764
 3173POPC   C3B41805  19.905  11.080   7.064
 3173POPC   C4B41806  19.852  11.058   7.364
 3174POPC   NC341807  43.916  40.015   5.564
 3174POPC   PO441808  43.930  39.994   5.864
 3174POPC   GL141809  43.858  39.982   6.164
 3174POPC   GL241810  43.948  39.908   6.164
 3174POPC   C1A41811  43.916  40.033   6.464
 3174POPC   D2A41812  43.843  40.051   6.764
 3174POPC   C3A41813  43.911  40.051   7.064
 3174POPC   C4A41814  43.880  40.028   7.364
 3174POPC   C1B41815  44.029  39.859   6.464
 3174POPC   C2B41816  44.030  39.828   6.764
 3174POPC   C3B41817  44.070  39.822   7.064
 3174POPC   C4B41818  44.047  39.794   7.364
 3175POPC   NC341819  12.032   8.245   5.564
 3175POPC   PO441820  12.097   8.228   5.864
 3175POPC   GL141821  12.090   8.238   6.164
 3175POPC   GL241822  11.978   8.299   6.164
 3175POPC   C1A41823  12.062   8.243   6.464
 3175POPC   D2A41824  12.077   8.189   6.764
 3175POPC   C3A41825  12.110   8.180   7.064
 3175POPC   C4A41826  12.122   8.158   7.364
 3175POPC   C1B41827  11.832   8.355   6.464
 3175POPC   C2B41828  11.890   8.287   6.764
 3175POPC   C3B41829  11.874   8.269   7.064
 3175POPC   C4B41830  11.845   8.325   7.364
 3176POPC   NC341831   2.797  17.460   5.564
 3176POPC   PO441832   2.755  17.499   5.864
 3176POPC   GL141833   2.773  17.462   6.164
 3176POPC   GL241834   2.719  17.589   6.164
 3176POPC   C1A41835   2.792  17.506   6.464
 3176POPC   D2A41836   2.745  17.533   6.764
 3176POPC   C3A41837   2.755  17.507   7.064
 3176POPC   C4A41838   2.804  17.548   7.364
 3176POPC   C1B41839   2.670  17.746   6.464
 3176POPC   C2B41840   2.682  17.758   6.764
 3176POPC   C3B41841   2.689  17.765   7.064
 3176POPC   C4B41842   2.748  17.788   7.364
 3177POPC   NC341843   1.983  43.873   5.564
 3177POPC   PO441844   1.959  43.897   5.864
 3177POPC   GL141845   2.007  43.871   6.164
 3177POPC   GL241846   2.004  44.040   6.164
 3177POPC   C1A41847   1.997  43.928   6.464
 3177POPC   D2A41848   1.940  43.886   6.764
 3177POPC   C3A41849   2.018  43.932   7.064
 3177POPC   C4A41850   1.975  43.884   7.364
 3177POPC   C1B41851   1.968  44.122   6.464
 3177POPC   C2B41852   1.981  44.105   6.764
 3177POPC   C3B41853   2.001  44.136   7.064
 3177POPC   C4B41854   1.965  44.170   7.364
 3178POPC   NC341855  37.712  42.288   5.564
 3178POPC   PO441856  37.702  42.312   5.864
 3178POPC   GL141857  37.710  42.328   6.164
 3178POPC   GL241858  37.576  42.274   6.164
 3178POPC   C1A41859  37.652  42.368   6.464
 3178POPC   D2A41860  37.641  42.285   6.764
 3178POPC   C3A41861  37.685  42.376   7.064
 3178POPC   C4A41862  37.635  42.368   7.364
 3178POPC   C1B41863  37.575  42.072   6.464
 3178POPC   C2B41864  37.574  42.132   6.764
 3178POPC   C3B41865  37.575  42.075   7.064
 3178POPC   C4B41866  37.523  42.156   7.364
 3179POPC   NC341867   4.281  23.685   5.564
 3179POPC   PO441868   4.304  23.715   5.864
 3179POPC   GL141869   4.282  23.690   6.164
 3179POPC   GL241870   4.313  23.840   6.164
 3179POPC   C1A41871   4.349  23.737   6.464
 3179POPC   D2A41872   4.299  23.706   6.764
 3179POPC   C3A41873   4.311  23.761   7.064
 3179POPC   C4A41874   4.309  23.734   7.364
 3179POPC   C1B41875   4.235  23.940   6.464
 3179POPC   C2B41876   4.266  23.967   6.764
 3179POPC   C3B41877   4.232  23.922   7.064
 3179POPC   C4B41878   4.190  23.917   7.364
 3180POPC   NC341879   8.938  41.597   5.564
 3180POPC   PO441880   8.934  41.555   5.864
 3180POPC   GL141881   9.008  41.551   6.164
 3180POPC   GL241882   8.958  41.466   6.164
 3180POPC   C1A41883   8.926  41.595   6.464
 3180POPC   D2A41884   9.022  41.604   6.764
 3180POPC   C3A41885   9.008  41.558   7.064
 3180POPC   C4A41886   9.004  41.522   7.364
 3180POPC   C1B41887   9.020  41.301   6.464
 3180POPC   C2B41888   8.947  41.342   6.764
 3180POPC   C3B41889   9.021  41.310   7.064
 3180POPC   C4B41890   8.956  41.268   7.364
 3181POPC   NC341891  25.283  23.703   5.564
 3181POPC   PO441892  25.242  23.674   5.864
 3181POPC   GL141893  25.286  23.709   6.164
 3181POPC   GL241894  25.312  23.810   6.164
 3181POPC   C1A41895  25.232  23.702   6.464
 3181POPC   D2A41896  25.294  23.665   6.764
 3181POPC   C3A41897  25.226  23.731   7.064
 3181POPC   C4A41898  25.224  23.712   7.364
 3181POPC   C1B41899  25.316  23.937   6.464
 3181POPC   C2B41900  25.339  23.974   6.764
 3181POPC   C3B41901  25.333  23.943   7.064
 3181POPC   C4B41902  25.268  23.976   7.364
 3182POPC   NC341903  25.303  19.792   5.564
 3182POPC   PO441904  25.255  19.867   5.864
 3182POPC   GL141905  25.303  19.804   6.164
 3182POPC   GL241906  25.434  19.808   6.164
 3182POPC   C1A41907  25.281  19.877   6.464
 3182POPC   D2A41908  25.281  19.850   6.764
 3182POPC   C3A41909  25.220  19.834   7.064
 3182POPC   C4A41910  25.314  19.799   7.364
 3182POPC   C1B41911  25.552  19.823   6.464
 3182POPC   C2B41912  25.524  19.799   6.764
 3182POPC   C3B41913  25.476  19.791   7.064
 3182POPC   C4B41914  25.544  19.800   7.364
 3183POPC   NC341915  26.840   5.838   5.564
 3183POPC   PO441916  26.841   5.894   5.864
 3183POPC   GL141917  26.860   5.845   6.164
 3183POPC   GL241918  26.783   5.817   6.164
 3183POPC   C1A41919  26.841   5.845   6.464
 3183POPC   D2A41920  26.829   5.876   6.764
 3183POPC   C3A41921  26.780   5.845   7.064
 3183POPC   C4A41922  26.792   5.884   7.364
 3183POPC   C1B41923  26.685   5.653   6.464
 3183POPC   C2B41924  26.672   5.673   6.764
 3183POPC   C3B41925  26.626   5.659   7.064
 3183POPC   C4B41926  26.656   5.675   7.364
 3184POPC   NC341927  26.818  32.249   5.564
 3184POPC   PO441928  26.837  32.271   5.864
 3184POPC   GL141929  26.789  32.201   6.164
 3184POPC   GL241930  26.703  32.171   6.164
 3184POPC   C1A41931  26.793  32.288   6.464
 3184POPC   D2A41932  26.808  32.236   6.764
 3184POPC   C3A41933  26.860  32.262   7.064
 3184POPC   C4A41934  26.866  32.226   7.364
 3184POPC   C1B41935  26.547  32.165   6.464
 3184POPC   C2B41936  26.591  32.113   6.764
 3184POPC   C3B41937  26.564  32.098   7.064
 3184POPC   C4B41938  26.601  32.170   7.364
 3185POPC   NC341939  23.729  27.618   5.564
 3185POPC   PO441940  23.685  27.584   5.864
 3185POPC   GL141941  23.707  27.596   6.164
 3185POPC   GL241942  23.726  27.497   6.164
 3185POPC   C1A41943  23.675  27.595   6.464
 3185POPC   D2A41944  23.718  27.564   6.764
 3185POPC   C3A41945  23.721  27.599   7.064
 3185POPC   C4A41946  23.668  27.637   7.364
 3185POPC   C1B41947  23.677  27.349   6.464
 3185POPC   C2B41948  23.689  27.395   6.764
 3185POPC   C3B41949  23.674  27.302   7.064
 3185POPC   C4B41950  23.671  27.329   7.364
 3186POPC   NC341951   4.273  43.116   5.564
 3186POPC   PO441952   4.300  43.155   5.864
 3186POPC   GL141953   4.341  43.133   6.164
 3186POPC   GL241954   4.215  43.072   6.164
 3186POPC   C1A41955   4.302  43.125   6.464
 3186POPC   D2A41956   4.353  43.158   6.764
 3186POPC   C3A41957   4.321  43.136   7.064
 3186POPC   C4A41958   4.350  43.142   7.364
 3186POPC   C1B41959   4.150  42.942   6.464
 3186POPC   C2B41960   4.163  42.998   6.764
 3186POPC   C3B41961   4.155  42.916   7.064
 3186POPC   C4B41962   4.077  42.943   7.364
 3187POPC   NC341963  11.304  20.564   5.564
 3187POPC   PO441964  11.282  20.650   5.864
 3187POPC   GL141965  11.271  20.654   6.164
 3187POPC   GL241966  11.205  20.586   6.164
 3187POPC   C1A41967  11.253  20.646   6.464
 3187POPC   D2A41968  11.320  20.571   6.764
 3187POPC   C3A41969  11.254  20.592   7.064
 3187POPC   C4A41970  11.302  20.590   7.364
 3187POPC   C1B41971  11.106  20.500   6.464
 3187POPC   C2B41972  11.092  20.486   6.764
 3187POPC   C3B41973  11.089  20.464   7.064
 3187POPC   C4B41974  11.049  20.478   7.364
 3188POPC   NC341975  42.298  24.516   5.564
 3188POPC   PO441976  42.367  24.458   5.864
 3188POPC   GL141977  42.311  24.440   6.164
 3188POPC   GL241978  42.429  24.548   6.164
 3188POPC   C1A41979  42.325  24.501   6.464
 3188POPC   D2A41980  42.369  24.508   6.764
 3188POPC   C3A41981  42.336  24.472   7.064
 3188POPC   C4A41982  42.299  24.524   7.364
 3188POPC   C1B41983  42.610  24.564   6.464
 3188POPC   C2B41984  42.602  24.530   6.764
 3188POPC   C3B41985  42.607  24.557   7.064
 3188POPC   C4B41986  42.535  24.545   7.364
 3189POPC   NC341987   5.827  41.519   5.564
 3189POPC   PO441988   5.906  41.604   5.864
 3189POPC   GL141989   5.854  41.558   6.164
 3189POPC   GL241990   5.883  41.676   6.164
 3189POPC   C1A41991   5.889  41.535   6.464
 3189POPC   D2A41992   5.844  41.580   6.764
 3189POPC   C3A41993   5.910  41.600   7.064
 3189POPC   C4A41994   5.853  41.558   7.364
 3189POPC   C1B41995   5.843  41.818   6.464
 3189POPC   C2B41996   5.825  41.785   6.764
 3189POPC   C3B41997   5.851  41.761   7.064
 3189POPC   C4B41998   5.841  41.796   7.364
 3190POPC   NC341999  12.833  15.999   5.564
 3190POPC   PO442000  12.863  15.954   5.864
 3190POPC   GL142001  12.899  16.001   6.164
 3190POPC   GL242002  12.932  15.930   6.164
 3190POPC   C1A42003  12.811  15.976   6.464
 3190POPC   D2A42004  12.891  15.985   6.764
 3190POPC   C3A42005  12.804  15.931   7.064
 3190POPC   C4A42006  12.844  15.999   7.364
 3190POPC   C1B42007  13.028  15.782   6.464
 3190POPC   C2B42008  13.026  15.788   6.764
 3190POPC   C3B42009  13.036  15.815   7.064
 3190POPC   C4B42010  13.033  15.847   7.364
 3191POPC   NC342011  44.643   1.259   5.564
 3191POPC   PO442012  44.703   1.199   5.864
 3191POPC   GL142013  44.676   1.235   6.164
 3191POPC   GL242014  44.627   1.293   6.164
 3191POPC   C1A42015  44.664   1.187   6.464
 3191POPC   D2A42016  44.645   1.210   6.764
 3191POPC   C3A42017  44.693   1.177   7.064
 3191POPC   C4A42018  44.663   1.248   7.364
 3191POPC   C1B42019  44.691   1.460   6.464
 3191POPC   C2B42020  44.647   1.469   6.764
 3191POPC   C3B42021  44.635   1.500   7.064
 3191POPC   C4B42022  44.628   1.443   7.364
 3192POPC   NC342023  22.891  41.555   5.564
 3192POPC   PO442024  22.922  41.556   5.864
 3192POPC   GL142025  22.984  41.577   6.164
 3192POPC   GL242026  22.785  41.647   6.164
 3192POPC   C1A42027  22.915  41.580   6.464
 3192POPC   D2A42028  22.943  41.518   6.764
 3192POPC   C3A42029  22.971  41.549   7.064
 3192POPC   C4A42030  22.912  41.521   7.364
 3192POPC   C1B42031  22.662  41.684   6.464
 3192POPC   C2B42032  22.751  41.626   6.764
 3192POPC   C3B42033  22.695  41.626   7.064
 3192POPC   C4B42034  22.665  41.625   7.364
 3193POPC   NC342035   6.647  31.513   5.564
 3193POPC   PO442036   6.606  31.441   5.864
 3193POPC   GL142037   6.686  31.517   6.164
 3193POPC   GL242038   6.585  31.622   6.164
 3193POPC   C1A42039   6.599  31.463   6.464
 3193POPC   D2A42040   6.683  31.515   6.764
 3193POPC   C3A42041   6.614  31.518   7.064
 3193POPC   C4A42042   6.610  31.522   7.364
 3193POPC   C1B42043   6.586  31.764   6.464
 3193POPC   C2B42044   6.629  31.708   6.764
 3193POPC   C3B42045   6.598  31.699   7.064
 3193POPC   C4B42046   6.594  31.724   7.364
 3194POPC   NC342047  10.487  24.512   5.564
 3194POPC   PO442048  10.572  24.535   5.864
 3194POPC   GL142049  10.485  24.536   6.164
 3194POPC   GL242050  10.581  24.384   6.164
 3194POPC   C1A42051  10.486  24.447   6.464
 3194POPC   D2A42052  10.512  24.467   6.764
 3194POPC   C3A42053  10.509  24.517   7.064
 3194POPC   C4A42054  10.477  24.511   7.364
 3194POPC   C1B42055  10.587  24.266   6.464
 3194POPC   C2B42056  10.585  24.235   6.764
 3194POPC   C3B42057  10.656  24.255   7.064
 3194POPC   C4B42058  10.587  24.263   7.364
 3195POPC   NC342059  37.703   5.820   5.564
 3195POPC   PO442060  37.718   5.880   5.864
 3195POPC   GL142061  37.698   5.895   6.164
 3195POPC   GL242062  37.652   5.982   6.164
 3195POPC   C1A42063  37.675   5.896   6.464
 3195POPC   D2A42064  37.727   5.823   6.764
 3195POPC   C3A42065  37.726   5.864   7.064
 3195POPC   C4A42066  37.713   5.874   7.364
 3195POPC   C1B42067  37.622   6.140   6.464
 3195POPC   C2B42068  37.644   6.074   6.764
 3195POPC   C3B42069  37.686   6.141   7.064
 3195POPC   C4B42070  37.637   6.082   7.364
 3196POPC   NC342071  26.025  20.579   5.564
 3196POPC   PO442072  26.036  20.588   5.864
 3196POPC   GL142073  26.048  20.576   6.164
 3196POPC   GL242074  25.983  20.546   6.164
 3196POPC   C1A42075  25.999  20.652   6.464
 3196POPC   D2A42076  26.051  20.645   6.764
 3196POPC   C3A42077  26.068  20.657   7.064
 3196POPC   C4A42078  26.028  20.649   7.364
 3196POPC   C1B42079  25.863  20.507   6.464
 3196POPC   C2B42080  25.843  20.457   6.764
 3196POPC   C3B42081  25.786  20.470   7.064
 3196POPC   C4B42082  25.814  20.520   7.364
 3197POPC   NC342083   0.445  43.132   5.564
 3197POPC   PO442084   0.461  43.155   5.864
 3197POPC   GL142085   0.466  43.160   6.164
 3197POPC   GL242086   0.603  43.098   6.164
 3197POPC   C1A42087   0.440  43.063   6.464
 3197POPC   D2A42088   0.423  43.101   6.764
 3197POPC   C3A42089   0.479  43.078   7.064
 3197POPC   C4A42090   0.446  43.140   7.364
 3197POPC   C1B42091   0.687  43.165   6.464
 3197POPC   C2B42092   0.699  43.229   6.764
 3197POPC   C3B42093   0.707  43.203   7.064
 3197POPC   C4B42094   0.649  43.167   7.364
 3198POPC   NC342095  15.995  42.360   5.564
 3198POPC   PO442096  15.927  42.342   5.864
 3198POPC   GL142097  15.991  42.337   6.164
 3198POPC   GL242098  16.045  42.183   6.164
 3198POPC   C1A42099  15.935  42.360   6.464
 3198POPC   D2A42100  15.933  42.348   6.764
 3198POPC   C3A42101  15.937  42.315   7.064
 3198POPC   C4A42102  15.926  42.343   7.364
 3198POPC   C1B42103  16.068  42.128   6.464
 3198POPC   C2B42104  16.111  42.098   6.764
 3198POPC   C3B42105  16.087  42.141   7.064
 3198POPC   C4B42106  16.053  42.107   7.364
 3199POPC   NC342107  25.995  41.515   5.564
 3199POPC   PO442108  26.091  41.520   5.864
 3199POPC   GL142109  26.060  41.584   6.164
 3199POPC   GL242110  26.118  41.628   6.164
 3199POPC   C1A42111  26.035  41.558   6.464
 3199POPC   D2A42112  26.015  41.523   6.764
 3199POPC   C3A42113  26.078  41.559   7.064
 3199POPC   C4A42114  26.080  41.578   7.364
 3199POPC   C1B42115  26.257  41.596   6.464
 3199POPC   C2B42116  26.291  41.596   6.764
 3199POPC   C3B42117  26.295  41.648   7.064
 3199POPC   C4B42118  26.273  41.613   7.364
 3200POPC   NC342119  15.978  26.071   5.564
 3200POPC   PO442120  15.969  26.016   5.864
 3200POPC   GL142121  15.969  26.074   6.164
 3200POPC   GL242122  15.854  26.012   6.164
 3200POPC   C1A42123  15.937  26.013   6.464
 3200POPC   D2A42124  15.917  26.015   6.764
 3200POPC   C3A42125  15.906  26.026   7.064
 3200POPC   C4A42126  15.955  26.039   7.364
 3200POPC   C1B42127  15.753  25.937   6.464
 3200POPC   C2B42128  15.726  25.931   6.764
 3200POPC   C3B42129  15.753  25.984   7.064
 3200POPC   C4B42130  15.762  25.975   7.364
 3201POPC   NC342131   6.615   7.384   5.564
 3201POPC   PO442132   6.639   7.397   5.864
 3201POPC   GL142133   6.614   7.425   6.164
 3201POPC   GL242134   6.595   7.567   6.164
 3201POPC   C1A42135   6.650   7.376   6.464
 3201POPC   D2A42136   6.636   7.452   6.764
 3201POPC   C3A42137   6.655   7.405   7.064
 3201POPC   C4A42138   6.639   7.409   7.364
 3201POPC   C1B42139   6.624   7.684   6.464
 3201POPC   C2B42140   6.553   7.622   6.764
 3201POPC   C3B42141   6.594   7.664   7.064
 3201POPC   C4B42142   6.602   7.616   7.364
 3202POPC   NC342143  13.673  18.321   5.564
 3202POPC   PO442144  13.599  18.272   5.864
 3202POPC   GL142145  13.585  18.325   6.164
 3202POPC   GL242146  13.528  18.205   6.164
 3202POPC   C1A42147  13.588  18.319   6.464
 3202POPC   D2A42148  13.620  18.245   6.764
 3202POPC   C3A42149  13.639  18.322   7.064
 3202POPC   C4A42150  13.613  18.283   7.364
 3202POPC   C1B42151  13.351  18.201   6.464
 3202POPC   C2B42152  13.385  18.165   6.764
 3202POPC   C3B42153  13.419  18.197   7.064
 3202POPC   C4B42154  13.417  18.241   7.364
 3203POPC   NC342155  12.110  21.382   5.564
 3203POPC   PO442156  12.030  21.430   5.864
 3203POPC   GL142157  12.053  21.393   6.164
 3203POPC   GL242158  12.177  21.348   6.164
 3203POPC   C1A42159  12.103  21.341   6.464
 3203POPC   D2A42160  12.080  21.412   6.764
 3203POPC   C3A42161  12.035  21.343   7.064
 3203POPC   C4A42162  12.112  21.343   7.364
 3203POPC   C1B42163  12.302  21.288   6.464
 3203POPC   C2B42164  12.239  21.285   6.764
 3203POPC   C3B42165  12.282  21.249   7.064
 3203POPC   C4B42166  12.262  21.290   7.364
 3204POPC   NC342167   8.962  34.602   5.564
 3204POPC   PO442168   8.926  34.574   5.864
 3204POPC   GL142169   9.012  34.594   6.164
 3204POPC   GL242170   9.061  34.534   6.164
 3204POPC   C1A42171   8.990  34.599   6.464
 3204POPC   D2A42172   9.020  34.615   6.764
 3204POPC   C3A42173   8.929  34.616   7.064
 3204POPC   C4A42174   8.999  34.596   7.364
 3204POPC   C1B42175   9.193  34.485   6.464
 3204POPC   C2B42176   9.229  34.472   6.764
 3204POPC   C3B42177   9.180  34.506   7.064
 3204POPC   C4B42178   9.213  34.435   7.364
 3205POPC   NC342179  14.424  11.294   5.564
 3205POPC   PO442180  14.453  11.339   5.864
 3205POPC   GL142181  14.384  11.323   6.164
 3205POPC   GL242182  14.480  11.420   6.164
 3205POPC   C1A42183  14.402  11.326   6.464
 3205POPC   D2A42184  14.370  11.324   6.764
 3205POPC   C3A42185  14.451  11.331   7.064
 3205POPC   C4A42186  14.358  11.303   7.364
 3205POPC   C1B42187  14.542  11.541   6.464
 3205POPC   C2B42188  14.554  11.547   6.764
 3205POPC   C3B42189  14.494  11.532   7.064
 3205POPC   C4B42190  14.557  11.529   7.364
 3206POPC   NC342191   6.687  15.150   5.564
 3206POPC   PO442192   6.693  15.177   5.864
 3206POPC   GL142193   6.671  15.187   6.164
 3206POPC   GL242194   6.600  15.135   6.164
 3206POPC   C1A42195   6.621  15.225   6.464
 3206POPC   D2A42196   6.607  15.180   6.764
 3206POPC   C3A42197   6.621  15.142   7.064
 3206POPC   C4A42198   6.666  15.180   7.364
 3206POPC   C1B42199   6.494  14.975   6.464
 3206POPC   C2B42200   6.434  15.040   6.764
 3206POPC   C3B42201   6.522  14.982   7.064
 3206POPC   C4B42202   6.469  15.023   7.364
 3207POPC   NC342203  42.297  39.267   5.564
 3207POPC   PO442204  42.291  39.277   5.864
 3207POPC   GL142205  42.314  39.250   6.164
 3207POPC   GL242206  42.258  39.156   6.164
 3207POPC   C1A42207  42.345  39.259   6.464
 3207POPC   D2A42208  42.307  39.208   6.764
 3207POPC   C3A42209  42.287  39.195   7.064
 3207POPC   C4A42210  42.330  39.194   7.364
 3207POPC   C1B42211  42.116  39.143   6.464
 3207POPC   C2B42212  42.137  39.141   6.764
 3207POPC   C3B42213  42.106  39.170   7.064
 3207POPC   C4B42214  42.103  39.128   7.364
 3208POPC   NC342215  28.385  43.102   5.564
 3208POPC   PO442216  28.413  43.129   5.864
 3208POPC   GL142217  28.343  43.120   6.164
 3208POPC   GL242218  28.414  43.230   6.164
 3208POPC   C1A42219  28.382  43.159   6.464
 3208POPC   D2A42220  28.359  43.119   6.764
 3208POPC   C3A42221  28.346  43.125   7.064
 3208POPC   C4A42222  28.368  43.088   7.364
 3208POPC   C1B42223  28.542  43.325   6.464
 3208POPC   C2B42224  28.565  43.302   6.764
 3208POPC   C3B42225  28.496  43.296   7.064
 3208POPC   C4B42226  28.524  43.341   7.364
 3209POPC   NC342227  32.290  29.127   5.564
 3209POPC   PO442228  32.201  29.157   5.864
 3209POPC   GL142229  32.265  29.140   6.164
 3209POPC   GL242230  32.305  28.988   6.164
 3209POPC   C1A42231  32.260  29.164   6.464
 3209POPC   D2A42232  32.246  29.135   6.764
 3209POPC   C3A42233  32.224  29.115   7.064
 3209POPC   C4A42234  32.274  29.096   7.364
 3209POPC   C1B42235  32.316  28.912   6.464
 3209POPC   C2B42236  32.309  28.959   6.764
 3209POPC   C3B42237  32.379  28.900   7.064
 3209POPC   C4B42238  32.394  28.963   7.364
 3210POPC   NC342239  25.293   2.787   5.564
 3210POPC   PO442240  25.243   2.755   5.864
 3210POPC   GL142241  25.306   2.793   6.164
 3210POPC   GL242242  25.114   2.782   6.164
 3210POPC   C1A42243  25.313   2.792   6.464
 3210POPC   D2A42244  25.240   2.774   6.764
 3210POPC   C3A42245  25.275   2.798   7.064
 3210POPC   C4A42246  25.245   2.734   7.364
 3210POPC   C1B42247  24.993   2.867   6.464
 3210POPC   C2B42248  24.989   2.849   6.764
 3210POPC   C3B42249  25.020   2.825   7.064
 3210POPC   C4B42250  25.013   2.890   7.364
 3211POPC   NC342251  44.627  37.677   5.564
 3211POPC   PO442252  44.708  37.707   5.864
 3211POPC   GL142253  44.679  37.688   6.164
 3211POPC   GL242254  44.794  37.632   6.164
 3211POPC   C1A42255  44.623  37.645   6.464
 3211POPC   D2A42256  44.653  37.711   6.764
 3211POPC   C3A42257  44.670  37.694   7.064
 3211POPC   C4A42258  44.684  37.647   7.364
 3211POPC   C1B42259  44.913  37.645   6.464
 3211POPC   C2B42260  44.938  37.606   6.764
 3211POPC   C3B42261  44.918  37.578   7.064
 3211POPC   C4B42262  44.896  37.626   7.364
 3212POPC   NC342263   8.187  30.656   5.564
 3212POPC   PO442264   8.164  30.703   5.864
 3212POPC   GL142265   8.209  30.714   6.164
 3212POPC   GL242266   8.175  30.541   6.164
 3212POPC   C1A42267   8.209  30.677   6.464
 3212POPC   D2A42268   8.186  30.676   6.764
 3212POPC   C3A42269   8.237  30.695   7.064
 3212POPC   C4A42270   8.218  30.727   7.364
 3212POPC   C1B42271   8.176  30.487   6.464
 3212POPC   C2B42272   8.109  30.449   6.764
 3212POPC   C3B42273   8.156  30.428   7.064
 3212POPC   C4B42274   8.118  30.409   7.364
 3213POPC   NC342275  40.823  41.603   5.564
 3213POPC   PO442276  40.743  41.591   5.864
 3213POPC   GL142277  40.758  41.588   6.164
 3213POPC   GL242278  40.790  41.431   6.164
 3213POPC   C1A42279  40.736  41.594   6.464
 3213POPC   D2A42280  40.765  41.554   6.764
 3213POPC   C3A42281  40.792  41.579   7.064
 3213POPC   C4A42282  40.762  41.540   7.364
 3213POPC   C1B42283  40.755  41.289   6.464
 3213POPC   C2B42284  40.784  41.340   6.764
 3213POPC   C3B42285  40.785  41.264   7.064
 3213POPC   C4B42286  40.765  41.269   7.364
 3214POPC   NC342287  26.076  19.827   5.564
 3214POPC   PO442288  26.087  19.822   5.864
 3214POPC   GL142289  26.001  19.786   6.164
 3214POPC   GL242290  25.964  19.749   6.164
 3214POPC   C1A42291  25.993  19.801   6.464
 3214POPC   D2A42292  26.003  19.842   6.764
 3214POPC   C3A42293  26.047  19.798   7.064
 3214POPC   C4A42294  26.071  19.827   7.364
 3214POPC   C1B42295  25.939  19.579   6.464
 3214POPC   C2B42296  25.869  19.641   6.764
 3214POPC   C3B42297  25.947  19.665   7.064
 3214POPC   C4B42298  25.937  19.634   7.364
 3215POPC   NC342299  34.570  13.579   5.564
 3215POPC   PO442300  34.625  13.646   5.864
 3215POPC   GL142301  34.621  13.584   6.164
 3215POPC   GL242302  34.413  13.665   6.164
 3215POPC   C1A42303  34.587  13.654   6.464
 3215POPC   D2A42304  34.625  13.674   6.764
 3215POPC   C3A42305  34.575  13.643   7.064
 3215POPC   C4A42306  34.529  13.607   7.364
 3215POPC   C1B42307  34.381  13.652   6.464
 3215POPC   C2B42308  34.289  13.696   6.764
 3215POPC   C3B42309  34.288  13.724   7.064
 3215POPC   C4B42310  34.331  13.688   7.364
 3216POPC   NC342311  21.414  21.374   5.564
 3216POPC   PO442312  21.390  21.378   5.864
 3216POPC   GL142313  21.337  21.376   6.164
 3216POPC   GL242314  21.257  21.467   6.164
 3216POPC   C1A42315  21.378  21.432   6.464
 3216POPC   D2A42316  21.370  21.401   6.764
 3216POPC   C3A42317  21.416  21.389   7.064
 3216POPC   C4A42318  21.401  21.388   7.364
 3216POPC   C1B42319  21.209  21.521   6.464
 3216POPC   C2B42320  21.227  21.545   6.764
 3216POPC   C3B42321  21.219  21.528   7.064
 3216POPC   C4B42322  21.157  21.511   7.364
 3217POPC   NC342323  24.532  33.756   5.564
 3217POPC   PO442324  24.501  33.784   5.864
 3217POPC   GL142325  24.513  33.814   6.164
 3217POPC   GL242326  24.429  33.709   6.164
 3217POPC   C1A42327  24.477  33.838   6.464
 3217POPC   D2A42328  24.507  33.813   6.764
 3217POPC   C3A42329  24.472  33.764   7.064
 3217POPC   C4A42330  24.491  33.752   7.364
 3217POPC   C1B42331  24.268  33.699   6.464
 3217POPC   C2B42332  24.267  33.727   6.764
 3217POPC   C3B42333  24.289  33.712   7.064
 3217POPC   C4B42334  24.278  33.634   7.364
 3218POPC   NC342335   5.908  35.349   5.564
 3218POPC   PO442336   5.847  35.320   5.864
 3218POPC   GL142337   5.871  35.315   6.164
 3218POPC   GL242338   5.892  35.271   6.164
 3218POPC   C1A42339   5.870  35.326   6.464
 3218POPC   D2A42340   5.867  35.380   6.764
 3218POPC   C3A42341   5.853  35.349   7.064
 3218POPC   C4A42342   5.873  35.395   7.364
 3218POPC   C1B42343   5.893  35.072   6.464
 3218POPC   C2B42344   5.863  35.116   6.764
 3218POPC   C3B42345   5.860  35.098   7.064
 3218POPC   C4B42346   5.798  35.064   7.364
 3219POPC   NC342347  29.178  23.665   5.564
 3219POPC   PO442348  29.149  23.686   5.864
 3219POPC   GL142349  29.125  23.756   6.164
 3219POPC   GL242350  28.997  23.692   6.164
 3219POPC   C1A42351  29.104  23.677   6.464
 3219POPC   D2A42352  29.155  23.714   6.764
 3219POPC   C3A42353  29.195  23.699   7.064
 3219POPC   C4A42354  29.183  23.683   7.364
 3219POPC   C1B42355  28.909  23.651   6.464
 3219POPC   C2B42356  28.898  23.591   6.764
 3219POPC   C3B42357  28.959  23.614   7.064
 3219POPC   C4B42358  28.887  23.613   7.364
 3220POPC   NC342359  43.109  17.535   5.564
 3220POPC   PO442360  43.109  17.537   5.864
 3220POPC   GL142361  43.061  17.482   6.164
 3220POPC   GL242362  43.237  17.619   6.164
 3220POPC   C1A42363  43.093  17.527   6.464
 3220POPC   D2A42364  43.111  17.468   6.764
 3220POPC   C3A42365  43.128  17.467   7.064
 3220POPC   C4A42366  43.066  17.475   7.364
 3220POPC   C1B42367  43.355  17.625   6.464
 3220POPC   C2B42368  43.338  17.604   6.764
 3220POPC   C3B42369  43.344  17.660   7.064
 3220POPC   C4B42370  43.325  17.663   7.364
 3221POPC   NC342371  18.305  44.646   5.564
 3221POPC   PO442372  18.255  44.622   5.864
 3221POPC   GL142373  18.289  44.703   6.164
 3221POPC   GL242374  18.325  44.769   6.164
 3221POPC   C1A42375  18.246  44.677   6.464
 3221POPC   D2A42376  18.271  44.693   6.764
 3221POPC   C3A42377  18.273  44.677   7.064
 3221POPC   C4A42378  18.282  44.681   7.364
 3221POPC   C1B42379  18.458  44.806   6.464
 3221POPC   C2B42380  18.445  44.855   6.764
 3221POPC   C3B42381  18.437  44.884   7.064
 3221POPC   C4B42382  18.406  44.853   7.364
 3222POPC   NC342383  38.465   9.719   5.564
 3222POPC   PO442384  38.419   9.700   5.864
 3222POPC   GL142385  38.504   9.757   6.164
 3222POPC   GL242386  38.468   9.602   6.164
 3222POPC   C1A42387  38.475   9.757   6.464
 3222POPC   D2A42388  38.430   9.759   6.764
 3222POPC   C3A42389  38.475   9.753   7.064
 3222POPC   C4A42390  38.447   9.796   7.364
 3222POPC   C1B42391  38.553   9.467   6.464
 3222POPC   C2B42392  38.538   9.528   6.764
 3222POPC   C3B42393  38.527   9.477   7.064
 3222POPC   C4B42394  38.506   9.480   7.364
 3223POPC   NC342395  24.507  30.665   5.564
 3223POPC   PO442396  24.441  30.730   5.864
 3223POPC   GL142397  24.455  30.697   6.164
 3223POPC   GL242398  24.450  30.595   6.164
 3223POPC   C1A42399  24.466  30.710   6.464
 3223POPC   D2A42400  24.515  30.681   6.764
 3223POPC   C3A42401  24.466  30.719   7.064
 3223POPC   C4A42402  24.490  30.690   7.364
 3223POPC   C1B42403  24.408  30.452   6.464
 3223POPC   C2B42404  24.456  30.403   6.764
 3223POPC   C3B42405  24.445  30.439   7.064
 3223POPC   C4B42406  24.402  30.436   7.364
 3224POPC   NC342407  38.503  33.018   5.564
 3224POPC   PO442408  38.478  33.072   5.864
 3224POPC   GL142409  38.486  33.016   6.164
 3224POPC   GL242410  38.481  32.906   6.164
 3224POPC   C1A42411  38.422  32.982   6.464
 3224POPC   D2A42412  38.440  33.057   6.764
 3224POPC   C3A42413  38.432  33.023   7.064
 3224POPC   C4A42414  38.446  33.005   7.364
 3224POPC   C1B42415  38.468  32.800   6.464
 3224POPC   C2B42416  38.410  32.772   6.764
 3224POPC   C3B42417  38.396  32.825   7.064
 3224POPC   C4B42418  38.395  32.822   7.364
 3225POPC   NC342419  29.156  36.946   5.564
 3225POPC   PO442420  29.151  36.867   5.864
 3225POPC   GL142421  29.173  36.876   6.164
 3225POPC   GL242422  29.153  37.007   6.164
 3225POPC   C1A42423  29.157  36.948   6.464
 3225POPC   D2A42424  29.105  36.928   6.764
 3225POPC   C3A42425  29.152  36.948   7.064
 3225POPC   C4A42426  29.192  36.888   7.364
 3225POPC   C1B42427  29.211  37.165   6.464
 3225POPC   C2B42428  29.186  37.119   6.764
 3225POPC   C3B42429  29.238  37.122   7.064
 3225POPC   C4B42430  29.230  37.133   7.364
 3226POPC   NC342431  25.242  12.862   5.564
 3226POPC   PO442432  25.224  12.818   5.864
 3226POPC   GL142433  25.258  12.897   6.164
 3226POPC   GL242434  25.155  12.870   6.164
 3226POPC   C1A42435  25.232  12.849   6.464
 3226POPC   D2A42436  25.287  12.858   6.764
 3226POPC   C3A42437  25.299  12.828   7.064
 3226POPC   C4A42438  25.266  12.892   7.364
 3226POPC   C1B42439  25.018  12.942   6.464
 3226POPC   C2B42440  25.010  12.908   6.764
 3226POPC   C3B42441  25.040  12.921   7.064
 3226POPC   C4B42442  24.991  12.939   7.364
 3227POPC   NC342443  37.686  29.916   5.564
 3227POPC   PO442444  37.727  29.879   5.864
 3227POPC   GL142445  37.686  29.886   6.164
 3227POPC   GL242446  37.815  29.954   6.164
 3227POPC   C1A42447  37.680  29.928   6.464
 3227POPC   D2A42448  37.683  29.919   6.764
 3227POPC   C3A42449  37.632  29.926   7.064
 3227POPC   C4A42450  37.661  29.951   7.364
 3227POPC   C1B42451  37.927  30.006   6.464
 3227POPC   C2B42452  37.890  30.002   6.764
 3227POPC   C3B42453  37.887  29.963   7.064
 3227POPC   C4B42454  37.919  29.997   7.364
 3228POPC   NC342455  25.252  22.182   5.564
 3228POPC   PO442456  25.229  22.195   5.864
 3228POPC   GL142457  25.219  22.171   6.164
 3228POPC   GL242458  25.261  22.305   6.164
 3228POPC   C1A42459  25.269  22.198   6.464
 3228POPC   D2A42460  25.218  22.175   6.764
 3228POPC   C3A42461  25.277  22.185   7.064
 3228POPC   C4A42462  25.245  22.199   7.364
 3228POPC   C1B42463  25.165  22.382   6.464
 3228POPC   C2B42464  25.208  22.361   6.764
 3228POPC   C3B42465  25.220  22.384   7.064
 3228POPC   C4B42466  25.158  22.358   7.364
 3229POPC   NC342467  23.715   6.631   5.564
 3229POPC   PO442468  23.665   6.655   5.864
 3229POPC   GL142469  23.686   6.623   6.164
 3229POPC   GL242470  23.824   6.517   6.164
 3229POPC   C1A42471  23.668   6.642   6.464
 3229POPC   D2A42472  23.740   6.691   6.764
 3229POPC   C3A42473  23.752   6.606   7.064
 3229POPC   C4A42474  23.755   6.685   7.364
 3229POPC   C1B42475  23.856   6.490   6.464
 3229POPC   C2B42476  23.819   6.441   6.764
 3229POPC   C3B42477  23.886   6.441   7.064
 3229POPC   C4B42478  23.904   6.492   7.364
 3230POPC   NC342479  37.673  36.104   5.564
 3230POPC   PO442480  37.654  36.167   5.864
 3230POPC   GL142481  37.704  36.147   6.164
 3230POPC   GL242482  37.717  36.272   6.164
 3230POPC   C1A42483  37.631  36.085   6.464
 3230POPC   D2A42484  37.719  36.081   6.764
 3230POPC   C3A42485  37.647  36.165   7.064
 3230POPC   C4A42486  37.712  36.127   7.364
 3230POPC   C1B42487  37.714  36.337   6.464
 3230POPC   C2B42488  37.679  36.371   6.764
 3230POPC   C3B42489  37.691  36.378   7.064
 3230POPC   C4B42490  37.671  36.349   7.364
 3231POPC   NC342491  40.821  37.661   5.564
 3231POPC   PO442492  40.745  37.636   5.864
 3231POPC   GL142493  40.815  37.720   6.164
 3231POPC   GL242494  40.711  37.713   6.164
 3231POPC   C1A42495  40.786  37.718   6.464
 3231POPC   D2A42496  40.745  37.675   6.764
 3231POPC   C3A42497  40.784  37.651   7.064
 3231POPC   C4A42498  40.768  37.723   7.364
 3231POPC   C1B42499  40.563  37.744   6.464
 3231POPC   C2B42500  40.546  37.795   6.764
 3231POPC   C3B42501  40.588  37.759   7.064
 3231POPC   C4B42502  40.507  37.780   7.364
 3232POPC   NC342503  10.499  35.336   5.564
 3232POPC   PO442504  10.567  35.372   5.864
 3232POPC   GL142505  10.529  35.305   6.164
 3232POPC   GL242506  10.673  35.377   6.164
 3232POPC   C1A42507  10.571  35.378   6.464
 3232POPC   D2A42508  10.532  35.311   6.764
 3232POPC   C3A42509  10.516  35.344   7.064
 3232POPC   C4A42510  10.563  35.322   7.364
 3232POPC   C1B42511  10.774  35.408   6.464
 3232POPC   C2B42512  10.787  35.467   6.764
 3232POPC   C3B42513  10.783  35.431   7.064
 3232POPC   C4B42514  10.751  35.451   7.364
 3233POPC   NC342515  26.052  42.323   5.564
 3233POPC   PO442516  26.044  42.381   5.864
 3233POPC   GL142517  26.077  42.313   6.164
 3233POPC   GL242518  26.033  42.426   6.164
 3233POPC   C1A42519  25.999  42.323   6.464
 3233POPC   D2A42520  26.067  42.335   6.764
 3233POPC   C3A42521  25.995  42.311   7.064
 3233POPC   C4A42522  26.031  42.301   7.364
 3233POPC   C1B42523  26.054  42.565   6.464
 3233POPC   C2B42524  26.150  42.617   6.764
 3233POPC   C3B42525  26.088  42.584   7.064
 3233POPC   C4B42526  26.111  42.563   7.364
 3234POPC   NC342527  22.176   5.060   5.564
 3234POPC   PO442528  22.157   5.116   5.864
 3234POPC   GL142529  22.156   5.105   6.164
 3234POPC   GL242530  22.145   5.012   6.164
 3234POPC   C1A42531  22.136   5.139   6.464
 3234POPC   D2A42532  22.157   5.113   6.764
 3234POPC   C3A42533  22.116   5.120   7.064
 3234POPC   C4A42534  22.126   5.052   7.364
 3234POPC   C1B42535  22.128   4.843   6.464
 3234POPC   C2B42536  22.110   4.829   6.764
 3234POPC   C3B42537  22.123   4.872   7.064
 3234POPC   C4B42538  22.122   4.891   7.364
 3235POPC   NC342539  27.636  10.521   5.564
 3235POPC   PO442540  27.623  10.475   5.864
 3235POPC   GL142541  27.624  10.525   6.164
 3235POPC   GL242542  27.487  10.387   6.164
 3235POPC   C1A42543  27.553  10.563   6.464
 3235POPC   D2A42544  27.588  10.544   6.764
 3235POPC   C3A42545  27.632  10.554   7.064
 3235POPC   C4A42546  27.632  10.476   7.364
 3235POPC   C1B42547  27.426  10.298   6.464
 3235POPC   C2B42548  27.439  10.281   6.764
 3235POPC   C3B42549  27.435  10.347   7.064
 3235POPC   C4B42550  27.471  10.329   7.364
 3236POPC   NC342551  22.167  42.321   5.564
 3236POPC   PO442552  22.140  42.350   5.864
 3236POPC   GL142553  22.175  42.290   6.164
 3236POPC   GL242554  22.053  42.367   6.164
 3236POPC   C1A42555  22.119  42.347   6.464
 3236POPC   D2A42556  22.152  42.297   6.764
 3236POPC   C3A42557  22.197  42.309   7.064
 3236POPC   C4A42558  22.178  42.360   7.364
 3236POPC   C1B42559  21.901  42.406   6.464
 3236POPC   C2B42560  21.898  42.426   6.764
 3236POPC   C3B42561  21.932  42.361   7.064
 3236POPC   C4B42562  21.935  42.413   7.364
 3237POPC   NC342563  39.271  36.871   5.564
 3237POPC   PO442564  39.212  36.929   5.864
 3237POPC   GL142565  39.187  36.947   6.164
 3237POPC   GL242566  39.309  37.023   6.164
 3237POPC   C1A42567  39.273  36.943   6.464
 3237POPC   D2A42568  39.184  36.920   6.764
 3237POPC   C3A42569  39.204  36.920   7.064
 3237POPC   C4A42570  39.249  36.916   7.364
 3237POPC   C1B42571  39.371  37.063   6.464
 3237POPC   C2B42572  39.412  37.086   6.764
 3237POPC   C3B42573  39.433  37.142   7.064
 3237POPC   C4B42574  39.414  37.057   7.364
 3238POPC   NC342575  23.702   5.876   5.564
 3238POPC   PO442576  23.696   5.897   5.864
 3238POPC   GL142577  23.702   5.889   6.164
 3238POPC   GL242578  23.828   5.892   6.164
 3238POPC   C1A42579  23.684   5.842   6.464
 3238POPC   D2A42580  23.682   5.907   6.764
 3238POPC   C3A42581  23.668   5.903   7.064
 3238POPC   C4A42582  23.698   5.880   7.364
 3238POPC   C1B42583  23.930   5.842   6.464
 3238POPC   C2B42584  23.932   5.840   6.764
 3238POPC   C3B42585  24.009   5.846   7.064
 3238POPC   C4B42586  24.004   5.845   7.364
 3239POPC   NC342587  19.021  40.805   5.564
 3239POPC   PO442588  19.059  40.798   5.864
 3239POPC   GL142589  19.048  40.771   6.164
 3239POPC   GL242590  19.085  40.902   6.164
 3239POPC   C1A42591  19.078  40.831   6.464
 3239POPC   D2A42592  19.106  40.788   6.764
 3239POPC   C3A42593  19.098  40.760   7.064
 3239POPC   C4A42594  19.035  40.758   7.364
 3239POPC   C1B42595  19.159  40.947   6.464
 3239POPC   C2B42596  19.139  40.974   6.764
 3239POPC   C3B42597  19.227  41.025   7.064
 3239POPC   C4B42598  19.224  41.013   7.364
 3240POPC   NC342599  39.221  34.609   5.564
 3240POPC   PO442600  39.202  34.610   5.864
 3240POPC   GL142601  39.232  34.616   6.164
 3240POPC   GL242602  39.133  34.555   6.164
 3240POPC   C1A42603  39.183  34.548   6.464
 3240POPC   D2A42604  39.208  34.578   6.764
 3240POPC   C3A42605  39.226  34.577   7.064
 3240POPC   C4A42606  39.227  34.566   7.364
 3240POPC   C1B42607  38.974  34.535   6.464
 3240POPC   C2B42608  38.981  34.614   6.764
 3240POPC   C3B42609  39.024  34.553   7.064
 3240POPC   C4B42610  38.997  34.555   7.364
 3241POPC   NC342611  11.330   8.216   5.564
 3241POPC   PO442612  11.263   8.188   5.864
 3241POPC   GL142613  11.316   8.193   6.164
 3241POPC   GL242614  11.425   8.186   6.164
 3241POPC   C1A42615  11.346   8.152   6.464
 3241POPC   D2A42616  11.279   8.195   6.764
 3241POPC   C3A42617  11.347   8.197   7.064
 3241POPC   C4A42618  11.279   8.216   7.364
 3241POPC   C1B42619  11.501   8.130   6.464
 3241POPC   C2B42620  11.562   8.137   6.764
 3241POPC   C3B42621  11.548   8.131   7.064
 3241POPC   C4B42622  11.490   8.074   7.364
 3242POPC   NC342623  19.094   2.786   5.564
 3242POPC   PO442624  19.029   2.731   5.864
 3242POPC   GL142625  19.042   2.767   6.164
 3242POPC   GL242626  19.098   2.839   6.164
 3242POPC   C1A42627  19.062   2.735   6.464
 3242POPC   D2A42628  19.022   2.738   6.764
 3242POPC   C3A42629  19.104   2.800   7.064
 3242POPC   C4A42630  19.015   2.775   7.364
 3242POPC   C1B42631  19.218   2.941   6.464
 3242POPC   C2B42632  19.218   2.980   6.764
 3242POPC   C3B42633  19.189   2.897   7.064
 3242POPC   C4B42634  19.228   2.905   7.364
 3243POPC   NC342635   0.412  29.918   5.564
 3243POPC   PO442636   0.405  29.955   5.864
 3243POPC   GL142637   0.460  29.918   6.164
 3243POPC   GL242638   0.395  29.751   6.164
 3243POPC   C1A42639   0.458  29.888   6.464
 3243POPC   D2A42640   0.435  29.897   6.764
 3243POPC   C3A42641   0.476  29.875   7.064
 3243POPC   C4A42642   0.413  29.969   7.364
 3243POPC   C1B42643   0.379  29.656   6.464
 3243POPC   C2B42644   0.417  29.651   6.764
 3243POPC   C3B42645   0.437  29.716   7.064
 3243POPC   C4B42646   0.407  29.628   7.364
 3244POPC   NC342647  40.825  24.518   5.564
 3244POPC   PO442648  40.738  24.528   5.864
 3244POPC   GL142649  40.770  24.492   6.164
 3244POPC   GL242650  40.740  24.390   6.164
 3244POPC   C1A42651  40.736  24.532   6.464
 3244POPC   D2A42652  40.817  24.476   6.764
 3244POPC   C3A42653  40.807  24.465   7.064
 3244POPC   C4A42654  40.777  24.521   7.364
 3244POPC   C1B42655  40.727  24.229   6.464
 3244POPC   C2B42656  40.728  24.254   6.764
 3244POPC   C3B42657  40.792  24.254   7.064
 3244POPC   C4B42658  40.742  24.270   7.364
 3245POPC   NC342659  29.112  19.054   5.564
 3245POPC   PO442660  29.115  19.054   5.864
 3245POPC   GL142661  29.176  19.048   6.164
 3245POPC   GL242662  29.246  19.083   6.164
 3245POPC   C1A42663  29.193  19.051   6.464
 3245POPC   D2A42664  29.182  19.098   6.764
 3245POPC   C3A42665  29.124  19.098   7.064
 3245POPC   C4A42666  29.148  19.106   7.364
 3245POPC   C1B42667  29.388  19.158   6.464
 3245POPC   C2B42668  29.431  19.127   6.764
 3245POPC   C3B42669  29.352  19.110   7.064
 3245POPC   C4B42670  29.416  19.183   7.364
 3246POPC   NC342671  18.240   5.902   5.564
 3246POPC   PO442672  18.302   5.844   5.864
 3246POPC   GL142673  18.313   5.820   6.164
 3246POPC   GL242674  18.180   5.882   6.164
 3246POPC   C1A42675  18.330   5.848   6.464
 3246POPC   D2A42676  18.290   5.858   6.764
 3246POPC   C3A42677  18.276   5.825   7.064
 3246POPC   C4A42678  18.233   5.887   7.364
 3246POPC   C1B42679  18.075   5.863   6.464
 3246POPC   C2B42680  18.045   5.848   6.764
 3246POPC   C3B42681  18.064   5.787   7.064
 3246POPC   C4B42682  17.990   5.801   7.364
 3247POPC   NC342683  29.185  35.371   5.564
 3247POPC   PO442684  29.119  35.311   5.864
 3247POPC   GL142685  29.155  35.345   6.164
 3247POPC   GL242686  29.209  35.315   6.164
 3247POPC   C1A42687  29.163  35.381   6.464
 3247POPC   D2A42688  29.150  35.314   6.764
 3247POPC   C3A42689  29.119  35.327   7.064
 3247POPC   C4A42690  29.144  35.334   7.364
 3247POPC   C1B42691  29.378  35.250   6.464
 3247POPC   C2B42692  29.309  35.222   6.764
 3247POPC   C3B42693  29.306  35.241   7.064
 3247POPC   C4B42694  29.354  35.183   7.364
 3248POPC   NC342695  32.241  36.870   5.564
 3248POPC   PO442696  32.217  36.860   5.864
 3248POPC   GL142697  32.285  36.858   6.164
 3248POPC   GL242698  32.251  36.980   6.164
 3248POPC   C1A42699  32.251  36.885   6.464
 3248POPC   D2A42700  32.271  36.878   6.764
 3248POPC   C3A42701  32.297  36.901   7.064
 3248POPC   C4A42702  32.202  36.913   7.364
 3248POPC   C1B42703  32.263  37.189   6.464
 3248POPC   C2B42704  32.307  37.120   6.764
 3248POPC   C3B42705  32.235  37.136   7.064
 3248POPC   C4B42706  32.299  37.182   7.364
 3249POPC   NC342707  29.116   6.648   5.564
 3249POPC   PO442708  29.115   6.655   5.864
 3249POPC   GL142709  29.183   6.651   6.164
 3249POPC   GL242710  29.113   6.817   6.164
 3249POPC   C1A42711  29.148   6.643   6.464
 3249POPC   D2A42712  29.175   6.632   6.764
 3249POPC   C3A42713  29.106   6.682   7.064
 3249POPC   C4A42714  29.137   6.666   7.364
 3249POPC   C1B42715  29.146   6.851   6.464
 3249POPC   C2B42716  29.149   6.918   6.764
 3249POPC   C3B42717  29.176   6.901   7.064
 3249POPC   C4B42718  29.161   6.891   7.364
 3250POPC   NC342719   4.366  25.218   5.564
 3250POPC   PO442720   4.350  25.275   5.864
 3250POPC   GL142721   4.360  25.249   6.164
 3250POPC   GL242722   4.257  25.248   6.164
 3250POPC   C1A42723   4.327  25.286   6.464
 3250POPC   D2A42724   4.357  25.285   6.764
 3250POPC   C3A42725   4.303  25.267   7.064
 3250POPC   C4A42726   4.270  25.216   7.364
 3250POPC   C1B42727   4.071  25.175   6.464
 3250POPC   C2B42728   4.139  25.133   6.764
 3250POPC   C3B42729   4.061  25.151   7.064
 3250POPC   C4B42730   4.133  25.131   7.364
 3251POPC   NC342731  35.333  40.033   5.564
 3251POPC   PO442732  35.331  39.974   5.864
 3251POPC   GL142733  35.346  39.960   6.164
 3251POPC   GL242734  35.224  40.081   6.164
 3251POPC   C1A42735  35.375  39.998   6.464
 3251POPC   D2A42736  35.313  39.998   6.764
 3251POPC   C3A42737  35.302  39.990   7.064
 3251POPC   C4A42738  35.376  39.972   7.364
 3251POPC   C1B42739  35.118  40.089   6.464
 3251POPC   C2B42740  35.095  40.103   6.764
 3251POPC   C3B42741  35.178  40.149   7.064
 3251POPC   C4B42742  35.117  40.105   7.364
 3252POPC   NC342743   8.151  32.977   5.564
 3252POPC   PO442744   8.153  33.067   5.864
 3252POPC   GL142745   8.222  33.007   6.164
 3252POPC   GL242746   8.279  33.017   6.164
 3252POPC   C1A42747   8.220  33.000   6.464
 3252POPC   D2A42748   8.184  33.019   6.764
 3252POPC   C3A42749   8.223  32.978   7.064
 3252POPC   C4A42750   8.205  33.065   7.364
 3252POPC   C1B42751   8.413  33.099   6.464
 3252POPC   C2B42752   8.443  33.141   6.764
 3252POPC   C3B42753   8.390  33.084   7.064
 3252POPC   C4B42754   8.436  33.146   7.364
 3253POPC   NC342755  16.729  40.770   5.564
 3253POPC   PO442756  16.687  40.749   5.864
 3253POPC   GL142757  16.775  40.809   6.164
 3253POPC   GL242758  16.830  40.894   6.164
 3253POPC   C1A42759  16.759  40.765   6.464
 3253POPC   D2A42760  16.728  40.825   6.764
 3253POPC   C3A42761  16.775  40.755   7.064
 3253POPC   C4A42762  16.749  40.774   7.364
 3253POPC   C1B42763  16.914  40.935   6.464
 3253POPC   C2B42764  16.853  40.968   6.764
 3253POPC   C3B42765  16.912  40.970   7.064
 3253POPC   C4B42766  16.910  40.947   7.364
 3254POPC   NC342767   2.746  38.500   5.564
 3254POPC   PO442768   2.744  38.460   5.864
 3254POPC   GL142769   2.808  38.494   6.164
 3254POPC   GL242770   2.891  38.466   6.164
 3254POPC   C1A42771   2.744  38.483   6.464
 3254POPC   D2A42772   2.811  38.435   6.764
 3254POPC   C3A42773   2.753  38.477   7.064
 3254POPC   C4A42774   2.752  38.475   7.364
 3254POPC   C1B42775   3.049  38.490   6.464
 3254POPC   C2B42776   3.035  38.488   6.764
 3254POPC   C3B42777   2.976  38.497   7.064
 3254POPC   C4B42778   2.971  38.506   7.364
 3255POPC   NC342779  36.142   1.226   5.564
 3255POPC   PO442780  36.172   1.221   5.864
 3255POPC   GL142781  36.130   1.179   6.164
 3255POPC   GL242782  36.109   1.334   6.164
 3255POPC   C1A42783  36.146   1.235   6.464
 3255POPC   D2A42784  36.088   1.222   6.764
 3255POPC   C3A42785  36.152   1.178   7.064
 3255POPC   C4A42786  36.146   1.219   7.364
 3255POPC   C1B42787  36.031   1.489   6.464
 3255POPC   C2B42788  36.012   1.402   6.764
 3255POPC   C3B42789  36.052   1.400   7.064
 3255POPC   C4B42790  36.020   1.471   7.364
 3256POPC   NC342791  35.314  15.144   5.564
 3256POPC   PO442792  35.310  15.186   5.864
 3256POPC   GL142793  35.307  15.221   6.164
 3256POPC   GL242794  35.372  15.330   6.164
 3256POPC   C1A42795  35.339  15.198   6.464
 3256POPC   D2A42796  35.401  15.210   6.764
 3256POPC   C3A42797  35.330  15.214   7.064
 3256POPC   C4A42798  35.358  15.148   7.364
 3256POPC   C1B42799  35.300  15.417   6.464
 3256POPC   C2B42800  35.377  15.459   6.764
 3256POPC   C3B42801  35.308  15.394   7.064
 3256POPC   C4B42802  35.352  15.456   7.364
 3257POPC   NC342803  24.453  43.153   5.564
 3257POPC   PO442804  24.509  43.099   5.864
 3257POPC   GL142805  24.532  43.152   6.164
 3257POPC   GL242806  24.443  42.992   6.164
 3257POPC   C1A42807  24.520  43.082   6.464
 3257POPC   D2A42808  24.508  43.106   6.764
 3257POPC   C3A42809  24.471  43.126   7.064
 3257POPC   C4A42810  24.517  43.124   7.364
 3257POPC   C1B42811  24.505  42.902   6.464
 3257POPC   C2B42812  24.453  42.898   6.764
 3257POPC   C3B42813  24.526  42.862   7.064
 3257POPC   C4B42814  24.492  42.841   7.364
 3258POPC   NC342815  25.259  20.591   5.564
 3258POPC   PO442816  25.253  20.634   5.864
 3258POPC   GL142817  25.282  20.570   6.164
 3258POPC   GL242818  25.252  20.485   6.164
 3258POPC   C1A42819  25.311  20.655   6.464
 3258POPC   D2A42820  25.275  20.605   6.764
 3258POPC   C3A42821  25.217  20.615   7.064
 3258POPC   C4A42822  25.267  20.660   7.364
 3258POPC   C1B42823  25.207  20.380   6.464
 3258POPC   C2B42824  25.230  20.315   6.764
 3258POPC   C3B42825  25.239  20.367   7.064
 3258POPC   C4B42826  25.240  20.320   7.364
 3259POPC   NC342827   7.452  39.998   5.564
 3259POPC   PO442828   7.421  39.973   5.864
 3259POPC   GL142829   7.391  40.016   6.164
 3259POPC   GL242830   7.472  39.839   6.164
 3259POPC   C1A42831   7.426  39.997   6.464
 3259POPC   D2A42832   7.441  40.019   6.764
 3259POPC   C3A42833   7.457  39.996   7.064
 3259POPC   C4A42834   7.443  40.005   7.364
 3259POPC   C1B42835   7.474  39.768   6.464
 3259POPC   C2B42836   7.443  39.734   6.764
 3259POPC   C3B42837   7.403  39.773   7.064
 3259POPC   C4B42838   7.402  39.794   7.364
 3260POPC   NC342839  10.512   5.079   5.564
 3260POPC   PO442840  10.548   5.093   5.864
 3260POPC   GL142841  10.573   5.124   6.164
 3260POPC   GL242842  10.442   5.101   6.164
 3260POPC   C1A42843  10.496   5.046   6.464
 3260POPC   D2A42844  10.487   5.073   6.764
 3260POPC   C3A42845  10.568   5.096   7.064
 3260POPC   C4A42846  10.573   5.114   7.364
 3260POPC   C1B42847  10.316   4.999   6.464
 3260POPC   C2B42848  10.243   5.022   6.764
 3260POPC   C3B42849  10.263   5.051   7.064
 3260POPC   C4B42850  10.250   5.059   7.364
 3261POPC   NC342851  40.027  17.470   5.564
 3261POPC   PO442852  40.037  17.489   5.864
 3261POPC   GL142853  39.984  17.488   6.164
 3261POPC   GL242854  39.874  17.500   6.164
 3261POPC   C1A42855  40.032  17.471   6.464
 3261POPC   D2A42856  40.010  17.522   6.764
 3261POPC   C3A42857  40.008  17.460   7.064
 3261POPC   C4A42858  39.998  17.516   7.364
 3261POPC   C1B42859  39.758  17.586   6.464
 3261POPC   C2B42860  39.774  17.586   6.764
 3261POPC   C3B42861  39.768  17.538   7.064
 3261POPC   C4B42862  39.751  17.591   7.364
 3262POPC   NC342863  12.049  19.020   5.564
 3262POPC   PO442864  12.125  19.033   5.864
 3262POPC   GL142865  12.080  19.080   6.164
 3262POPC   GL242866  12.135  18.979   6.164
 3262POPC   C1A42867  12.063  19.072   6.464
 3262POPC   D2A42868  12.037  19.016   6.764
 3262POPC   C3A42869  12.045  19.050   7.064
 3262POPC   C4A42870  12.042  19.043   7.364
 3262POPC   C1B42871  12.158  18.818   6.464
 3262POPC   C2B42872  12.104  18.832   6.764
 3262POPC   C3B42873  12.107  18.761   7.064
 3262POPC   C4B42874  12.094  18.798   7.364
 3263POPC   NC342875   8.941   9.745   5.564
 3263POPC   PO442876   8.964   9.749   5.864
 3263POPC   GL142877   8.925   9.715   6.164
 3263POPC   GL242878   9.069   9.621   6.164
 3263POPC   C1A42879   8.929   9.701   6.464
 3263POPC   D2A42880   8.927   9.757   6.764
 3263POPC   C3A42881   8.956   9.746   7.064
 3263POPC   C4A42882   8.976   9.779   7.364
 3263POPC   C1B42883   9.073   9.552   6.464
 3263POPC   C2B42884   9.034   9.506   6.764
 3263POPC   C3B42885   9.102   9.496   7.064
 3263POPC   C4B42886   9.122   9.532   7.364
 3264POPC   NC342887  36.855  32.982   5.564
 3264POPC   PO442888  36.916  33.027   5.864
 3264POPC   GL142889  36.875  33.058   6.164
 3264POPC   GL242890  36.968  33.102   6.164
 3264POPC   C1A42891  36.895  33.023   6.464
 3264POPC   D2A42892  36.901  33.074   6.764
 3264POPC   C3A42893  36.867  33.048   7.064
 3264POPC   C4A42894  36.953  33.013   7.364
 3264POPC   C1B42895  37.157  33.146   6.464
 3264POPC   C2B42896  37.153  33.172   6.764
 3264POPC   C3B42897  37.087  33.204   7.064
 3264POPC   C4B42898  37.098  33.175   7.364
 3265POPC   NC342899   1.168  30.655   5.564
 3265POPC   PO442900   1.250  30.725   5.864
 3265POPC   GL142901   1.194  30.703   6.164
 3265POPC   GL242902   1.246  30.808   6.164
 3265POPC   C1A42903   1.185  30.664   6.464
 3265POPC   D2A42904   1.182  30.740   6.764
 3265POPC   C3A42905   1.219  30.660   7.064
 3265POPC   C4A42906   1.230  30.726   7.364
 3265POPC   C1B42907   1.297  30.956   6.464
 3265POPC   C2B42908   1.360  30.879   6.764
 3265POPC   C3B42909   1.327  30.870   7.064
 3265POPC   C4B42910   1.347  30.920   7.364
 3266POPC   NC342911  26.086  39.248   5.564
 3266POPC   PO442912  26.014  39.280   5.864
 3266POPC   GL142913  26.050  39.194   6.164
 3266POPC   GL242914  25.923  39.157   6.164
 3266POPC   C1A42915  26.021  39.184   6.464
 3266POPC   D2A42916  25.994  39.250   6.764
 3266POPC   C3A42917  26.043  39.221   7.064
 3266POPC   C4A42918  26.023  39.234   7.364
 3266POPC   C1B42919  25.834  39.189   6.464
 3266POPC   C2B42920  25.777  39.190   6.764
 3266POPC   C3B42921  25.772  39.132   7.064
 3266POPC   C4B42922  25.806  39.197   7.364
 3267POPC   NC342923  39.227  26.809   5.564
 3267POPC   PO442924  39.255  26.818   5.864
 3267POPC   GL142925  39.194  26.837   6.164
 3267POPC   GL242926  39.401  26.762   6.164
 3267POPC   C1A42927  39.214  26.857   6.464
 3267POPC   D2A42928  39.217  26.866   6.764
 3267POPC   C3A42929  39.235  26.833   7.064
 3267POPC   C4A42930  39.217  26.792   7.364
 3267POPC   C1B42931  39.450  26.831   6.464
 3267POPC   C2B42932  39.459  26.855   6.764
 3267POPC   C3B42933  39.509  26.810   7.064
 3267POPC   C4B42934  39.524  26.824   7.364
 3268POPC   NC342935  25.289  33.795   5.564
 3268POPC   PO442936  25.265  33.823   5.864
 3268POPC   GL142937  25.258  33.753   6.164
 3268POPC   GL242938  25.122  33.783   6.164
 3268POPC   C1A42939  25.265  33.845   6.464
 3268POPC   D2A42940  25.230  33.805   6.764
 3268POPC   C3A42941  25.245  33.816   7.064
 3268POPC   C4A42942  25.283  33.786   7.364
 3268POPC   C1B42943  25.059  33.858   6.464
 3268POPC   C2B42944  25.029  33.817   6.764
 3268POPC   C3B42945  24.986  33.798   7.064
 3268POPC   C4B42946  25.037  33.856   7.364
 3269POPC   NC342947  33.022   9.733   5.564
 3269POPC   PO442948  33.014   9.759   5.864
 3269POPC   GL142949  33.066   9.717   6.164
 3269POPC   GL242950  33.131   9.725   6.164
 3269POPC   C1A42951  33.019   9.765   6.464
 3269POPC   D2A42952  33.013   9.774   6.764
 3269POPC   C3A42953  33.029   9.740   7.064
 3269POPC   C4A42954  33.008   9.762   7.364
 3269POPC   C1B42955  33.292   9.646   6.464
 3269POPC   C2B42956  33.253   9.632   6.764
 3269POPC   C3B42957  33.248   9.649   7.064
 3269POPC   C4B42958  33.262   9.710   7.364
 3270POPC   NC342959  32.260  34.618   5.564
 3270POPC   PO442960  32.242  34.605   5.864
 3270POPC   GL142961  32.262  34.536   6.164
 3270POPC   GL242962  32.374  34.546   6.164
 3270POPC   C1A42963  32.281  34.541   6.464
 3270POPC   D2A42964  32.198  34.575   6.764
 3270POPC   C3A42965  32.216  34.532   7.064
 3270POPC   C4A42966  32.239  34.591   7.364
 3270POPC   C1B42967  32.525  34.503   6.464
 3270POPC   C2B42968  32.521  34.459   6.764
 3270POPC   C3B42969  32.459  34.473   7.064
 3270POPC   C4B42970  32.467  34.485   7.364
 3271POPC   NC342971  27.626   6.663   5.564
 3271POPC   PO442972  27.611   6.654   5.864
 3271POPC   GL142973  27.609   6.682   6.164
 3271POPC   GL242974  27.517   6.745   6.164
 3271POPC   C1A42975  27.629   6.631   6.464
 3271POPC   D2A42976  27.626   6.621   6.764
 3271POPC   C3A42977  27.546   6.616   7.064
 3271POPC   C4A42978  27.563   6.644   7.364
 3271POPC   C1B42979  27.362   6.705   6.464
 3271POPC   C2B42980  27.381   6.709   6.764
 3271POPC   C3B42981  27.344   6.794   7.064
 3271POPC   C4B42982  27.376   6.716   7.364
 3272POPC   NC342983  38.473   2.784   5.564
 3272POPC   PO442984  38.454   2.767   5.864
 3272POPC   GL142985  38.496   2.756   6.164
 3272POPC   GL242986  38.326   2.768   6.164
 3272POPC   C1A42987  38.434   2.801   6.464
 3272POPC   D2A42988  38.500   2.752   6.764
 3272POPC   C3A42989  38.460   2.721   7.064
 3272POPC   C4A42990  38.436   2.781   7.364
 3272POPC   C1B42991  38.183   2.728   6.464
 3272POPC   C2B42992  38.198   2.748   6.764
 3272POPC   C3B42993  38.190   2.761   7.064
 3272POPC   C4B42994  38.224   2.713   7.364
 3273POPC   NC342995  19.062  16.774   5.564
 3273POPC   PO442996  19.065  16.779   5.864
 3273POPC   GL142997  19.022  16.775   6.164
 3273POPC   GL242998  19.129  16.661   6.164
 3273POPC   C1A42999  19.056  16.725   6.464
 3273POPC   D2A43000  19.104  16.777   6.764
 3273POPC   C3A43001  19.076  16.734   7.064
 3273POPC   C4A43002  19.045  16.725   7.364
 3273POPC   C1B43003  19.132  16.507   6.464
 3273POPC   C2B43004  19.153  16.459   6.764
 3273POPC   C3B43005  19.203  16.489   7.064
 3273POPC   C4B43006  19.175  16.556   7.364
 3274POPC   NC343007  19.795   2.031   5.564
 3274POPC   PO443008  19.884   2.040   5.864
 3274POPC   GL143009  19.859   2.031   6.164
 3274POPC   GL243010  19.847   2.110   6.164
 3274POPC   C1A43011  19.873   1.984   6.464
 3274POPC   D2A43012  19.789   1.981   6.764
 3274POPC   C3A43013  19.790   2.020   7.064
 3274POPC   C4A43014  19.861   1.967   7.364
 3274POPC   C1B43015  19.818   2.202   6.464
 3274POPC   C2B43016  19.817   2.251   6.764
 3274POPC   C3B43017  19.825   2.259   7.064
 3274POPC   C4B43018  19.852   2.221   7.364
 3275POPC   NC343019  41.603  36.086   5.564
 3275POPC   PO443020  41.575  36.174   5.864
 3275POPC   GL143021  41.521  36.099   6.164
 3275POPC   GL243022  41.642  36.055   6.164
 3275POPC   C1A43023  41.602  36.105   6.464
 3275POPC   D2A43024  41.560  36.122   6.764
 3275POPC   C3A43025  41.601  36.146   7.064
 3275POPC   C4A43026  41.605  36.116   7.364
 3275POPC   C1B43027  41.651  35.896   6.464
 3275POPC   C2B43028  41.698  35.955   6.764
 3275POPC   C3B43029  41.660  35.890   7.064
 3275POPC   C4B43030  41.681  35.929   7.364
 3276POPC   NC343031   1.978  28.333   5.564
 3276POPC   PO443032   1.947  28.396   5.864
 3276POPC   GL143033   1.941  28.349   6.164
 3276POPC   GL243034   1.968  28.532   6.164
 3276POPC   C1A43035   1.944  28.377   6.464
 3276POPC   D2A43036   1.945  28.357   6.764
 3276POPC   C3A43037   1.987  28.334   7.064
 3276POPC   C4A43038   2.033  28.411   7.364
 3276POPC   C1B43039   1.948  28.647   6.464
 3276POPC   C2B43040   1.894  28.660   6.764
 3276POPC   C3B43041   1.961  28.601   7.064
 3276POPC   C4B43042   1.908  28.598   7.364
 3277POPC   NC343043  38.455   5.881   5.564
 3277POPC   PO443044  38.434   5.913   5.864
 3277POPC   GL143045  38.458   5.835   6.164
 3277POPC   GL243046  38.367   5.947   6.164
 3277POPC   C1A43047  38.423   5.900   6.464
 3277POPC   D2A43048  38.408   5.820   6.764
 3277POPC   C3A43049  38.455   5.882   7.064
 3277POPC   C4A43050  38.454   5.914   7.364
 3277POPC   C1B43051  38.176   5.995   6.464
 3277POPC   C2B43052  38.264   5.955   6.764
 3277POPC   C3B43053  38.251   5.932   7.064
 3277POPC   C4B43054  38.247   5.913   7.364
 3278POPC   NC343055  15.178  40.800   5.564
 3278POPC   PO443056  15.150  40.796   5.864
 3278POPC   GL143057  15.178  40.751   6.164
 3278POPC   GL243058  15.218  40.639   6.164
 3278POPC   C1A43059  15.136  40.789   6.464
 3278POPC   D2A43060  15.141  40.773   6.764
 3278POPC   C3A43061  15.143  40.824   7.064
 3278POPC   C4A43062  15.174  40.776   7.364
 3278POPC   C1B43063  15.212  40.554   6.464
 3278POPC   C2B43064  15.195  40.551   6.764
 3278POPC   C3B43065  15.149  40.564   7.064
 3278POPC   C4B43066  15.208  40.518   7.364
 3279POPC   NC343067  19.026  29.173   5.564
 3279POPC   PO443068  19.074  29.144   5.864
 3279POPC   GL143069  19.042  29.172   6.164
 3279POPC   GL243070  19.068  29.219   6.164
 3279POPC   C1A43071  19.055  29.178   6.464
 3279POPC   D2A43072  19.063  29.137   6.764
 3279POPC   C3A43073  19.020  29.188   7.064
 3279POPC   C4A43074  19.061  29.160   7.364
 3279POPC   C1B43075  18.969  29.372   6.464
 3279POPC   C2B43076  18.988  29.430   6.764
 3279POPC   C3B43077  19.034  29.429   7.064
 3279POPC   C4B43078  18.972  29.419   7.364
 3280POPC   NC343079  44.667  34.622   5.564
 3280POPC   PO443080  44.640  34.608   5.864
 3280POPC   GL143081  44.635  34.612   6.164
 3280POPC   GL243082  44.584  34.499   6.164
 3280POPC   C1A43083  44.712  34.599   6.464
 3280POPC   D2A43084  44.693  34.606   6.764
 3280POPC   C3A43085  44.694  34.612   7.064
 3280POPC   C4A43086  44.693  34.606   7.364
 3280POPC   C1B43087  44.533  34.379   6.464
 3280POPC   C2B43088  44.557  34.344   6.764
 3280POPC   C3B43089  44.470  34.410   7.064
 3280POPC   C4B43090  44.549  34.396   7.364
 3281POPC   NC343091  35.391   5.044   5.564
 3281POPC   PO443092  35.384   5.119   5.864
 3281POPC   GL143093  35.374   5.044   6.164
 3281POPC   GL243094  35.261   5.241   6.164
 3281POPC   C1A43095  35.317   5.133   6.464
 3281POPC   D2A43096  35.361   5.136   6.764
 3281POPC   C3A43097  35.341   5.141   7.064
 3281POPC   C4A43098  35.387   5.092   7.364
 3281POPC   C1B43099  35.219   5.297   6.464
 3281POPC   C2B43100  35.212   5.338   6.764
 3281POPC   C3B43101  35.185   5.347   7.064
 3281POPC   C4B43102  35.226   5.309   7.364
 3282POPC   NC343103  37.632  30.723   5.564
 3282POPC   PO443104  37.693  30.651   5.864
 3282POPC   GL143105  37.692  30.740   6.164
 3282POPC   GL243106  37.776  30.604   6.164
 3282POPC   C1A43107  37.645  30.661   6.464
 3282POPC   D2A43108  37.726  30.687   6.764
 3282POPC   C3A43109  37.667  30.737   7.064
 3282POPC   C4A43110  37.662  30.651   7.364
 3282POPC   C1B43111  37.748  30.477   6.464
 3282POPC   C2B43112  37.783  30.476   6.764
 3282POPC   C3B43113  37.758  30.463   7.064
 3282POPC   C4B43114  37.751  30.459   7.364
 3283POPC   NC343115  26.062   1.186   5.564
 3283POPC   PO443116  26.080   1.219   5.864
 3283POPC   GL143117  26.082   1.169   6.164
 3283POPC   GL243118  26.076   1.096   6.164
 3283POPC   C1A43119  26.035   1.194   6.464
 3283POPC   D2A43120  26.086   1.237   6.764
 3283POPC   C3A43121  26.068   1.260   7.064
 3283POPC   C4A43122  26.063   1.203   7.364
 3283POPC   C1B43123  26.153   0.984   6.464
 3283POPC   C2B43124  26.082   1.019   6.764
 3283POPC   C3B43125  26.116   0.932   7.064
 3283POPC   C4B43126  26.091   1.002   7.364
 3284POPC   NC343127  32.243  18.309   5.564
 3284POPC   PO443128  32.278  18.325   5.864
 3284POPC   GL143129  32.228  18.242   6.164
 3284POPC   GL243130  32.357  18.227   6.164
 3284POPC   C1A43131  32.267  18.312   6.464
 3284POPC   D2A43132  32.250  18.252   6.764
 3284POPC   C3A43133  32.289  18.282   7.064
 3284POPC   C4A43134  32.225  18.326   7.364
 3284POPC   C1B43135  32.479  18.130   6.464
 3284POPC   C2B43136  32.477  18.157   6.764
 3284POPC   C3B43137  32.400  18.120   7.064
 3284POPC   C4B43138  32.474  18.141   7.364
 3285POPC   NC343139  19.034   6.617   5.564
 3285POPC   PO443140  19.089   6.595   5.864
 3285POPC   GL143141  19.074   6.643   6.164
 3285POPC   GL243142  18.896   6.656   6.164
 3285POPC   C1A43143  19.011   6.620   6.464
 3285POPC   D2A43144  19.023   6.603   6.764
 3285POPC   C3A43145  19.048   6.664   7.064
 3285POPC   C4A43146  19.069   6.669   7.364
 3285POPC   C1B43147  18.819   6.698   6.464
 3285POPC   C2B43148  18.826   6.696   6.764
 3285POPC   C3B43149  18.816   6.640   7.064
 3285POPC   C4B43150  18.851   6.729   7.364
 3286POPC   NC343151  33.768   7.402   5.564
 3286POPC   PO443152  33.788   7.391   5.864
 3286POPC   GL143153  33.792   7.415   6.164
 3286POPC   GL243154  33.804   7.578   6.164
 3286POPC   C1A43155  33.792   7.375   6.464
 3286POPC   D2A43156  33.799   7.422   6.764
 3286POPC   C3A43157  33.752   7.434   7.064
 3286POPC   C4A43158  33.785   7.375   7.364
 3286POPC   C1B43159  33.737   7.616   6.464
 3286POPC   C2B43160  33.705   7.706   6.764
 3286POPC   C3B43161  33.763   7.623   7.064
 3286POPC   C4B43162  33.729   7.672   7.364
 3287POPC   NC343163  40.004  27.604   5.564
 3287POPC   PO443164  40.035  27.565   5.864
 3287POPC   GL143165  40.022  27.574   6.164
 3287POPC   GL243166  39.990  27.735   6.164
 3287POPC   C1A43167  39.970  27.593   6.464
 3287POPC   D2A43168  40.002  27.567   6.764
 3287POPC   C3A43169  40.008  27.588   7.064
 3287POPC   C4A43170  40.052  27.632   7.364
 3287POPC   C1B43171  40.065  27.803   6.464
 3287POPC   C2B43172  40.041  27.886   6.764
 3287POPC   C3B43173  40.013  27.798   7.064
 3287POPC   C4B43174  40.043  27.826   7.364
 3288POPC   NC343175  27.569  18.233   5.564
 3288POPC   PO443176  27.620  18.305   5.864
 3288POPC   GL143177  27.562  18.297   6.164
 3288POPC   GL243178  27.543  18.388   6.164
 3288POPC   C1A43179  27.640  18.239   6.464
 3288POPC   D2A43180  27.621  18.253   6.764
 3288POPC   C3A43181  27.621  18.315   7.064
 3288POPC   C4A43182  27.591  18.295   7.364
 3288POPC   C1B43183  27.627  18.520   6.464
 3288POPC   C2B43184  27.610  18.561   6.764
 3288POPC   C3B43185  27.625  18.526   7.064
 3288POPC   C4B43186  27.552  18.484   7.364
 3289POPC   NC343187  22.979  23.712   5.564
 3289POPC   PO443188  22.953  23.694   5.864
 3289POPC   GL143189  22.929  23.735   6.164
 3289POPC   GL243190  22.830  23.713   6.164
 3289POPC   C1A43191  22.977  23.744   6.464
 3289POPC   D2A43192  22.930  23.709   6.764
 3289POPC   C3A43193  22.936  23.721   7.064
 3289POPC   C4A43194  22.921  23.685   7.364
 3289POPC   C1B43195  22.658  23.624   6.464
 3289POPC   C2B43196  22.716  23.634   6.764
 3289POPC   C3B43197  22.718  23.625   7.064
 3289POPC   C4B43198  22.696  23.695   7.364
 3290POPC   NC343199  16.004  26.817   5.564
 3290POPC   PO443200  15.949  26.802   5.864
 3290POPC   GL143201  15.999  26.805   6.164
 3290POPC   GL243202  15.813  26.910   6.164
 3290POPC   C1A43203  15.986  26.804   6.464
 3290POPC   D2A43204  15.997  26.783   6.764
 3290POPC   C3A43205  15.927  26.852   7.064
 3290POPC   C4A43206  15.969  26.861   7.364
 3290POPC   C1B43207  15.702  26.948   6.464
 3290POPC   C2B43208  15.681  26.943   6.764
 3290POPC   C3B43209  15.742  26.856   7.064
 3290POPC   C4B43210  15.759  26.944   7.364
 3291POPC   NC343211   8.960  29.925   5.564
 3291POPC   PO443212   8.953  29.882   5.864
 3291POPC   GL143213   8.973  29.928   6.164
 3291POPC   GL243214   9.028  29.796   6.164
 3291POPC   C1A43215   8.980  29.872   6.464
 3291POPC   D2A43216   8.962  29.892   6.764
 3291POPC   C3A43217   8.972  29.901   7.064
 3291POPC   C4A43218   8.957  29.962   7.364
 3291POPC   C1B43219   9.017  29.652   6.464
 3291POPC   C2B43220   8.959  29.681   6.764
 3291POPC   C3B43221   9.018  29.658   7.064
 3291POPC   C4B43222   9.024  29.622   7.364
 3292POPC   NC343223  40.795  43.090   5.564
 3292POPC   PO443224  40.782  43.130   5.864
 3292POPC   GL143225  40.761  43.066   6.164
 3292POPC   GL243226  40.738  43.019   6.164
 3292POPC   C1A43227  40.792  43.117   6.464
 3292POPC   D2A43228  40.775  43.076   6.764
 3292POPC   C3A43229  40.787  43.107   7.064
 3292POPC   C4A43230  40.769  43.132   7.364
 3292POPC   C1B43231  40.751  42.875   6.464
 3292POPC   C2B43232  40.712  42.911   6.764
 3292POPC   C3B43233  40.715  42.822   7.064
 3292POPC   C4B43234  40.727  42.901   7.364
 3293POPC   NC343235  24.532   8.233   5.564
 3293POPC   PO443236  24.506   8.244   5.864
 3293POPC   GL143237  24.465   8.218   6.164
 3293POPC   GL243238  24.395   8.071   6.164
 3293POPC   C1A43239  24.441   8.153   6.464
 3293POPC   D2A43240  24.456   8.202   6.764
 3293POPC   C3A43241  24.517   8.151   7.064
 3293POPC   C4A43242  24.489   8.170   7.364
 3293POPC   C1B43243  24.356   8.008   6.464
 3293POPC   C2B43244  24.278   8.048   6.764
 3293POPC   C3B43245  24.350   7.995   7.064
 3293POPC   C4B43246  24.308   8.056   7.364
 3294POPC   NC343247  19.813  23.763   5.564
 3294POPC   PO443248  19.869  23.751   5.864
 3294POPC   GL143249  19.855  23.715   6.164
 3294POPC   GL243250  19.895  23.634   6.164
 3294POPC   C1A43251  19.848  23.666   6.464
 3294POPC   D2A43252  19.826  23.728   6.764
 3294POPC   C3A43253  19.810  23.759   7.064
 3294POPC   C4A43254  19.847  23.723   7.364
 3294POPC   C1B43255  19.921  23.509   6.464
 3294POPC   C2B43256  19.917  23.477   6.764
 3294POPC   C3B43257  19.932  23.517   7.064
 3294POPC   C4B43258  19.930  23.472   7.364
 3295POPC   NC343259  31.510  21.398   5.564
 3295POPC   PO443260  31.499  21.403   5.864
 3295POPC   GL143261  31.509  21.413   6.164
 3295POPC   GL243262  31.558  21.487   6.164
 3295POPC   C1A43263  31.435  21.418   6.464
 3295POPC   D2A43264  31.436  21.362   6.764
 3295POPC   C3A43265  31.449  21.403   7.064
 3295POPC   C4A43266  31.492  21.397   7.364
 3295POPC   C1B43267  31.660  21.457   6.464
 3295POPC   C2B43268  31.720  21.487   6.764
 3295POPC   C3B43269  31.663  21.517   7.064
 3295POPC   C4B43270  31.715  21.490   7.364
 3296POPC   NC343271   0.398  35.369   5.564
 3296POPC   PO443272   0.445  35.310   5.864
 3296POPC   GL143273   0.462  35.380   6.164
 3296POPC   GL243274   0.552  35.279   6.164
 3296POPC   C1A43275   0.485  35.384   6.464
 3296POPC   D2A43276   0.448  35.323   6.764
 3296POPC   C3A43277   0.423  35.365   7.064
 3296POPC   C4A43278   0.435  35.396   7.364
 3296POPC   C1B43279   0.686  35.340   6.464
 3296POPC   C2B43280   0.669  35.318   6.764
 3296POPC   C3B43281   0.683  35.263   7.064
 3296POPC   C4B43282   0.671  35.337   7.364
 3297POPC   NC343283  30.720  40.020   5.564
 3297POPC   PO443284  30.656  40.010   5.864
 3297POPC   GL143285  30.649  39.981   6.164
 3297POPC   GL243286  30.687  39.938   6.164
 3297POPC   C1A43287  30.705  39.999   6.464
 3297POPC   D2A43288  30.676  39.969   6.764
 3297POPC   C3A43289  30.719  39.969   7.064
 3297POPC   C4A43290  30.739  40.019   7.364
 3297POPC   C1B43291  30.631  39.823   6.464
 3297POPC   C2B43292  30.595  39.757   6.764
 3297POPC   C3B43293  30.583  39.736   7.064
 3297POPC   C4B43294  30.574  39.800   7.364
 3298POPC   NC343295  34.557  40.789   5.564
 3298POPC   PO443296  34.587  40.780   5.864
 3298POPC   GL143297  34.598  40.786   6.164
 3298POPC   GL243298  34.622  40.938   6.164
 3298POPC   C1A43299  34.579  40.791   6.464
 3298POPC   D2A43300  34.550  40.759   6.764
 3298POPC   C3A43301  34.552  40.750   7.064
 3298POPC   C4A43302  34.548  40.828   7.364
 3298POPC   C1B43303  34.703  40.995   6.464
 3298POPC   C2B43304  34.677  40.994   6.764
 3298POPC   C3B43305  34.701  40.978   7.064
 3298POPC   C4B43306  34.715  40.981   7.364
 3299POPC   NC343307  15.191  27.557   5.564
 3299POPC   PO443308  15.131  27.552   5.864
 3299POPC   GL143309  15.212  27.610   6.164
 3299POPC   GL243310  15.094  27.608   6.164
 3299POPC   C1A43311  15.218  27.613   6.464
 3299POPC   D2A43312  15.138  27.643   6.764
 3299POPC   C3A43313  15.149  27.596   7.064
 3299POPC   C4A43314  15.214  27.642   7.364
 3299POPC   C1B43315  14.900  27.663   6.464
 3299POPC   C2B43316  14.942  27.695   6.764
 3299POPC   C3B43317  14.988  27.688   7.064
 3299POPC   C4B43318  14.958  27.706   7.364
 3300POPC   NC343319  33.776  40.028   5.564
 3300POPC   PO443320  33.755  40.007   5.864
 3300POPC   GL143321  33.838  39.983   6.164
 3300POPC   GL243322  33.867  40.069   6.164
 3300POPC   C1A43323  33.751  39.964   6.464
 3300POPC   D2A43324  33.776  40.030   6.764
 3300POPC   C3A43325  33.822  40.003   7.064
 3300POPC   C4A43326  33.761  39.969   7.364
 3300POPC   C1B43327  34.003  40.136   6.464
 3300POPC   C2B43328  33.980  40.171   6.764
 3300POPC   C3B43329  33.967  40.168   7.064
 3300POPC   C4B43330  34.032  40.185   7.364
 3301POPC   NC343331  22.131  19.821   5.564
 3301POPC   PO443332  22.174  19.857   5.864
 3301POPC   GL143333  22.185  19.825   6.164
 3301POPC   GL243334  22.113  19.967   6.164
 3301POPC   C1A43335  22.202  19.790   6.464
 3301POPC   D2A43336  22.192  19.848   6.764
 3301POPC   C3A43337  22.171  19.834   7.064
 3301POPC   C4A43338  22.182  19.874   7.364
 3301POPC   C1B43339  22.164  20.081   6.464
 3301POPC   C2B43340  22.181  20.052   6.764
 3301POPC   C3B43341  22.166  20.103   7.064
 3301POPC   C4B43342  22.093  20.124   7.364
 3302POPC   NC343343  34.613   6.653   5.564
 3302POPC   PO443344  34.620   6.672   5.864
 3302POPC   GL143345  34.558   6.619   6.164
 3302POPC   GL243346  34.489   6.486   6.164
 3302POPC   C1A43347  34.593   6.666   6.464
 3302POPC   D2A43348  34.619   6.609   6.764
 3302POPC   C3A43349  34.601   6.603   7.064
 3302POPC   C4A43350  34.551   6.669   7.364
 3302POPC   C1B43351  34.502   6.449   6.464
 3302POPC   C2B43352  34.496   6.443   6.764
 3302POPC   C3B43353  34.522   6.365   7.064
 3302POPC   C4B43354  34.501   6.423   7.364
 3303POPC   NC343355  21.422  41.524   5.564
 3303POPC   PO443356  21.418  41.592   5.864
 3303POPC   GL143357  21.369  41.587   6.164
 3303POPC   GL243358  21.438  41.643   6.164
 3303POPC   C1A43359  21.381  41.542   6.464
 3303POPC   D2A43360  21.343  41.605   6.764
 3303POPC   C3A43361  21.358  41.561   7.064
 3303POPC   C4A43362  21.365  41.548   7.364
 3303POPC   C1B43363  21.459  41.772   6.464
 3303POPC   C2B43364  21.458  41.766   6.764
 3303POPC   C3B43365  21.474  41.755   7.064
 3303POPC   C4B43366  21.467  41.805   7.364
 3304POPC   NC343367  28.376   5.865   5.564
 3304POPC   PO443368  28.329   5.836   5.864
 3304POPC   GL143369  28.388   5.913   6.164
 3304POPC   GL243370  28.504   5.907   6.164
 3304POPC   C1A43371  28.405   5.845   6.464
 3304POPC   D2A43372  28.354   5.847   6.764
 3304POPC   C3A43373  28.408   5.881   7.064
 3304POPC   C4A43374  28.397   5.852   7.364
 3304POPC   C1B43375  28.579   6.028   6.464
 3304POPC   C2B43376  28.509   6.042   6.764
 3304POPC   C3B43377  28.586   6.002   7.064
 3304POPC   C4B43378  28.560   6.070   7.364
 3305POPC   NC343379  27.572  37.654   5.564
 3305POPC   PO443380  27.624  37.726   5.864
 3305POPC   GL143381  27.620  37.632   6.164
 3305POPC   GL243382  27.462  37.668   6.164
 3305POPC   C1A43383  27.576  37.638   6.464
 3305POPC   D2A43384  27.547  37.638   6.764
 3305POPC   C3A43385  27.612  37.692   7.064
 3305POPC   C4A43386  27.550  37.636   7.364
 3305POPC   C1B43387  27.353  37.757   6.464
 3305POPC   C2B43388  27.320  37.713   6.764
 3305POPC   C3B43389  27.310  37.782   7.064
 3305POPC   C4B43390  27.320  37.731   7.364
 3306POPC   NC343391  41.535   5.877   5.564
 3306POPC   PO443392  41.565   5.835   5.864
 3306POPC   GL143393  41.513   5.906   6.164
 3306POPC   GL243394  41.501   5.976   6.164
 3306POPC   C1A43395  41.522   5.890   6.464
 3306POPC   D2A43396  41.521   5.907   6.764
 3306POPC   C3A43397  41.528   5.910   7.064
 3306POPC   C4A43398  41.608   5.885   7.364
 3306POPC   C1B43399  41.469   6.085   6.464
 3306POPC   C2B43400  41.484   6.115   6.764
 3306POPC   C3B43401  41.474   6.052   7.064
 3306POPC   C4B43402  41.430   6.134   7.364
 3307POPC   NC343403  32.249  30.695   5.564
 3307POPC   PO443404  32.282  30.688   5.864
 3307POPC   GL143405  32.211  30.718   6.164
 3307POPC   GL243406  32.299  30.793   6.164
 3307POPC   C1A43407  32.238  30.673   6.464
 3307POPC   D2A43408  32.232  30.658   6.764
 3307POPC   C3A43409  32.224  30.727   7.064
 3307POPC   C4A43410  32.224  30.710   7.364
 3307POPC   C1B43411  32.368  30.892   6.464
 3307POPC   C2B43412  32.334  30.940   6.764
 3307POPC   C3B43413  32.365  30.929   7.064
 3307POPC   C4B43414  32.407  30.904   7.364
 3308POPC   NC343415  43.100  34.613   5.564
 3308POPC   PO443416  43.109  34.616   5.864
 3308POPC   GL143417  43.139  34.530   6.164
 3308POPC   GL243418  42.967  34.646   6.164
 3308POPC   C1A43419  43.105  34.545   6.464
 3308POPC   D2A43420  43.121  34.572   6.764
 3308POPC   C3A43421  43.106  34.568   7.064
 3308POPC   C4A43422  43.069  34.557   7.364
 3308POPC   C1B43423  42.911  34.784   6.464
 3308POPC   C2B43424  42.908  34.783   6.764
 3308POPC   C3B43425  42.961  34.720   7.064
 3308POPC   C4B43426  42.876  34.721   7.364
 3309POPC   NC343427  22.130  11.287   5.564
 3309POPC   PO443428  22.174  11.349   5.864
 3309POPC   GL143429  22.183  11.326   6.164
 3309POPC   GL243430  22.071  11.279   6.164
 3309POPC   C1A43431  22.150  11.306   6.464
 3309POPC   D2A43432  22.137  11.340   6.764
 3309POPC   C3A43433  22.133  11.260   7.064
 3309POPC   C4A43434  22.113  11.269   7.364
 3309POPC   C1B43435  21.947  11.354   6.464
 3309POPC   C2B43436  21.926  11.368   6.764
 3309POPC   C3B43437  21.891  11.312   7.064
 3309POPC   C4B43438  21.958  11.377   7.364
 3310POPC   NC343439  31.489   4.360   5.564
 3310POPC   PO443440  31.468   4.364   5.864
 3310POPC   GL143441  31.464   4.307   6.164
 3310POPC   GL243442  31.307   4.313   6.164
 3310POPC   C1A43443  31.465   4.303   6.464
 3310POPC   D2A43444  31.447   4.322   6.764
 3310POPC   C3A43445  31.486   4.283   7.064
 3310POPC   C4A43446  31.444   4.352   7.364
 3310POPC   C1B43447  31.178   4.292   6.464
 3310POPC   C2B43448  31.233   4.290   6.764
 3310POPC   C3B43449  31.239   4.369   7.064
 3310POPC   C4B43450  31.184   4.352   7.364
 3311POPC   NC343451   0.405  43.905   5.564
 3311POPC   PO443452   0.486  43.858   5.864
 3311POPC   GL143453   0.407  43.921   6.164
 3311POPC   GL243454   0.495  43.992   6.164
 3311POPC   C1A43455   0.422  43.919   6.464
 3311POPC   D2A43456   0.413  43.883   6.764
 3311POPC   C3A43457   0.398  43.921   7.064
 3311POPC   C4A43458   0.436  43.916   7.364
 3311POPC   C1B43459   0.514  44.182   6.464
 3311POPC   C2B43460   0.472  44.175   6.764
 3311POPC   C3B43461   0.426  44.136   7.064
 3311POPC   C4B43462   0.500  44.125   7.364
 3312POPC   NC343463   0.486  12.064   5.564
 3312POPC   PO443464   0.401  12.080   5.864
 3312POPC   GL143465   0.455  12.074   6.164
 3312POPC   GL243466   0.513  12.103   6.164
 3312POPC   C1A43467   0.416  12.090   6.464
 3312POPC   D2A43468   0.446  12.057   6.764
 3312POPC   C3A43469   0.424  12.069   7.064
 3312POPC   C4A43470   0.408  12.036   7.364
 3312POPC   C1B43471   0.630  12.201   6.464
 3312POPC   C2B43472   0.630  12.164   6.764
 3312POPC   C3B43473   0.628  12.213   7.064
 3312POPC   C4B43474   0.699  12.165   7.364
 3313POPC   NC343475  34.553   8.148   5.564
 3313POPC   PO443476  34.622   8.246   5.864
 3313POPC   GL143477  34.567   8.207   6.164
 3313POPC   GL243478  34.547   8.336   6.164
 3313POPC   C1A43479  34.592   8.223   6.464
 3313POPC   D2A43480  34.624   8.179   6.764
 3313POPC   C3A43481  34.601   8.227   7.064
 3313POPC   C4A43482  34.574   8.236   7.364
 3313POPC   C1B43483  34.559   8.422   6.464
 3313POPC   C2B43484  34.531   8.404   6.764
 3313POPC   C3B43485  34.587   8.491   7.064
 3313POPC   C4B43486  34.508   8.464   7.364
 3314POPC   NC343487  12.062   7.452   5.564
 3314POPC   PO443488  12.069   7.398   5.864
 3314POPC   GL143489  12.050   7.419   6.164
 3314POPC   GL243490  12.037   7.324   6.164
 3314POPC   C1A43491  12.058   7.421   6.464
 3314POPC   D2A43492  12.038   7.442   6.764
 3314POPC   C3A43493  12.076   7.398   7.064
 3314POPC   C4A43494  12.064   7.412   7.364
 3314POPC   C1B43495  11.957   7.189   6.464
 3314POPC   C2B43496  12.017   7.154   6.764
 3314POPC   C3B43497  11.959   7.178   7.064
 3314POPC   C4B43498  11.938   7.189   7.364
 3315POPC   NC343499  20.598   8.972   5.564
 3315POPC   PO443500  20.616   8.987   5.864
 3315POPC   GL143501  20.631   8.982   6.164
 3315POPC   GL243502  20.522   8.929   6.164
 3315POPC   C1A43503  20.647   8.946   6.464
 3315POPC   D2A43504  20.638   8.996   6.764
 3315POPC   C3A43505  20.600   8.997   7.064
 3315POPC   C4A43506  20.620   8.934   7.364
 3315POPC   C1B43507  20.319   8.979   6.464
 3315POPC   C2B43508  20.379   8.930   6.764
 3315POPC   C3B43509  20.389   8.922   7.064
 3315POPC   C4B43510  20.333   8.974   7.364
 3316POPC   NC343511  14.412  38.448   5.564
 3316POPC   PO443512  14.359  38.466   5.864
 3316POPC   GL143513  14.364  38.415   6.164
 3316POPC   GL243514  14.286  38.348   6.164
 3316POPC   C1A43515  14.449  38.493   6.464
 3316POPC   D2A43516  14.397  38.503   6.764
 3316POPC   C3A43517  14.425  38.430   7.064
 3316POPC   C4A43518  14.442  38.491   7.364
 3316POPC   C1B43519  14.271  38.266   6.464
 3316POPC   C2B43520  14.261  38.238   6.764
 3316POPC   C3B43521  14.249  38.242   7.064
 3316POPC   C4B43522  14.252  38.214   7.364
 3317POPC   NC343523  37.657  39.989   5.564
 3317POPC   PO443524  37.678  40.047   5.864
 3317POPC   GL143525  37.639  39.976   6.164
 3317POPC   GL243526  37.766  40.130   6.164
 3317POPC   C1A43527  37.698  40.004   6.464
 3317POPC   D2A43528  37.696  39.971   6.764
 3317POPC   C3A43529  37.648  39.988   7.064
 3317POPC   C4A43530  37.658  40.019   7.364
 3317POPC   C1B43531  37.863  40.239   6.464
 3317POPC   C2B43532  37.865  40.213   6.764
 3317POPC   C3B43533  37.814  40.179   7.064
 3317POPC   C4B43534  37.811  40.228   7.364
 3318POPC   NC343535  11.315  28.390   5.564
 3318POPC   PO443536  11.310  28.397   5.864
 3318POPC   GL143537  11.335  28.398   6.164
 3318POPC   GL243538  11.204  28.478   6.164
 3318POPC   C1A43539  11.292  28.351   6.464
 3318POPC   D2A43540  11.311  28.330   6.764
 3318POPC   C3A43541  11.266  28.415   7.064
 3318POPC   C4A43542  11.325  28.368   7.364
 3318POPC   C1B43543  11.200  28.616   6.464
 3318POPC   C2B43544  11.170  28.556   6.764
 3318POPC   C3B43545  11.145  28.558   7.064
 3318POPC   C4B43546  11.198  28.531   7.364
 3319POPC   NC343547  27.548  39.967   5.564
 3319POPC   PO443548  27.594  40.015   5.864
 3319POPC   GL143549  27.640  40.006   6.164
 3319POPC   GL243550  27.505  39.886   6.164
 3319POPC   C1A43551  27.548  40.049   6.464
 3319POPC   D2A43552  27.626  40.027   6.764
 3319POPC   C3A43553  27.621  40.033   7.064
 3319POPC   C4A43554  27.566  40.023   7.364
 3319POPC   C1B43555  27.473  39.801   6.464
 3319POPC   C2B43556  27.465  39.827   6.764
 3319POPC   C3B43557  27.465  39.785   7.064
 3319POPC   C4B43558  27.435  39.848   7.364
 3320POPC   NC343559   8.151   0.431   5.564
 3320POPC   PO443560   8.195   0.487   5.864
 3320POPC   GL143561   8.185   0.411   6.164
 3320POPC   GL243562   8.105   0.394   6.164
 3320POPC   C1A43563   8.217   0.429   6.464
 3320POPC   D2A43564   8.204   0.468   6.764
 3320POPC   C3A43565   8.227   0.398   7.064
 3320POPC   C4A43566   8.160   0.405   7.364
 3320POPC   C1B43567   7.923   0.352   6.464
 3320POPC   C2B43568   8.004   0.310   6.764
 3320POPC   C3B43569   7.948   0.308   7.064
 3320POPC   C4B43570   7.937   0.379   7.364
 3321POPC   NC343571  31.476  31.433   5.564
 3321POPC   PO443572  31.519  31.448   5.864
 3321POPC   GL143573  31.462  31.438   6.164
 3321POPC   GL243574  31.395  31.482   6.164
 3321POPC   C1A43575  31.498  31.458   6.464
 3321POPC   D2A43576  31.509  31.518   6.764
 3321POPC   C3A43577  31.455  31.493   7.064
 3321POPC   C4A43578  31.448  31.454   7.364
 3321POPC   C1B43579  31.231  31.498   6.464
 3321POPC   C2B43580  31.179  31.502   6.764
 3321POPC   C3B43581  31.209  31.462   7.064
 3321POPC   C4B43582  31.213  31.519   7.364
 3322POPC   NC343583   0.409  18.269   5.564
 3322POPC   PO443584   0.446  18.275   5.864
 3322POPC   GL143585   0.416  18.322   6.164
 3322POPC   GL243586   0.329  18.377   6.164
 3322POPC   C1A43587   0.478  18.332   6.464
 3322POPC   D2A43588   0.473  18.276   6.764
 3322POPC   C3A43589   0.425  18.240   7.064
 3322POPC   C4A43590   0.424  18.244   7.364
 3322POPC   C1B43591   0.224  18.394   6.464
 3322POPC   C2B43592   0.182  18.372   6.764
 3322POPC   C3B43593   0.223  18.420   7.064
 3322POPC   C4B43594   0.227  18.390   7.364
 3323POPC   NC343595   4.322  12.843   5.564
 3323POPC   PO443596   4.331  12.826   5.864
 3323POPC   GL143597   4.286  12.848   6.164
 3323POPC   GL243598   4.237  12.996   6.164
 3323POPC   C1A43599   4.314  12.829   6.464
 3323POPC   D2A43600   4.357  12.869   6.764
 3323POPC   C3A43601   4.338  12.818   7.064
 3323POPC   C4A43602   4.310  12.863   7.364
 3323POPC   C1B43603   4.154  13.077   6.464
 3323POPC   C2B43604   4.187  13.101   6.764
 3323POPC   C3B43605   4.186  13.083   7.064
 3323POPC   C4B43606   4.236  13.065   7.364
 3324POPC   NC343607  37.726   7.432   5.564
 3324POPC   PO443608  37.653   7.406   5.864
 3324POPC   GL143609  37.697   7.450   6.164
 3324POPC   GL243610  37.732   7.266   6.164
 3324POPC   C1A43611  37.657   7.388   6.464
 3324POPC   D2A43612  37.721   7.405   6.764
 3324POPC   C3A43613  37.631   7.388   7.064
 3324POPC   C4A43614  37.640   7.393   7.364
 3324POPC   C1B43615  37.777   7.236   6.464
 3324POPC   C2B43616  37.763   7.194   6.764
 3324POPC   C3B43617  37.755   7.230   7.064
 3324POPC   C4B43618  37.807   7.190   7.364
 3325POPC   NC343619   9.798   1.219   5.564
 3325POPC   PO443620   9.746   1.223   5.864
 3325POPC   GL143621   9.738   1.261   6.164
 3325POPC   GL243622   9.775   1.149   6.164
 3325POPC   C1A43623   9.763   1.200   6.464
 3325POPC   D2A43624   9.716   1.226   6.764
 3325POPC   C3A43625   9.769   1.222   7.064
 3325POPC   C4A43626   9.750   1.189   7.364
 3325POPC   C1B43627   9.933   1.009   6.464
 3325POPC   C2B43628   9.855   1.031   6.764
 3325POPC   C3B43629   9.907   1.003   7.064
 3325POPC   C4B43630   9.907   0.977   7.364
 3326POPC   NC343631   5.135  42.379   5.564
 3326POPC   PO443632   5.132  42.329   5.864
 3326POPC   GL143633   5.136  42.329   6.164
 3326POPC   GL243634   5.105  42.168   6.164
 3326POPC   C1A43635   5.133  42.306   6.464
 3326POPC   D2A43636   5.090  42.371   6.764
 3326POPC   C3A43637   5.051  42.323   7.064
 3326POPC   C4A43638   5.137  42.365   7.364
 3326POPC   C1B43639   4.991  42.101   6.464
 3326POPC   C2B43640   5.078  42.073   6.764
 3326POPC   C3B43641   5.080  42.064   7.064
 3326POPC   C4B43642   5.009  42.097   7.364
 3327POPC   NC343643  19.801  32.198   5.564
 3327POPC   PO443644  19.846  32.286   5.864
 3327POPC   GL143645  19.785  32.204   6.164
 3327POPC   GL243646  19.848  32.110   6.164
 3327POPC   C1A43647  19.800  32.239   6.464
 3327POPC   D2A43648  19.855  32.234   6.764
 3327POPC   C3A43649  19.797  32.250   7.064
 3327POPC   C4A43650  19.865  32.287   7.364
 3327POPC   C1B43651  19.960  31.983   6.464
 3327POPC   C2B43652  19.893  32.018   6.764
 3327POPC   C3B43653  19.895  32.021   7.064
 3327POPC   C4B43654  19.913  32.034   7.364
 3328POPC   NC343655   8.199  32.205   5.564
 3328POPC   PO443656   8.147  32.239   5.864
 3328POPC   GL143657   8.207  32.216   6.164
 3328POPC   GL243658   8.272  32.297   6.164
 3328POPC   C1A43659   8.155  32.242   6.464
 3328POPC   D2A43660   8.154  32.204   6.764
 3328POPC   C3A43661   8.149  32.261   7.064
 3328POPC   C4A43662   8.226  32.223   7.364
 3328POPC   C1B43663   8.369  32.399   6.464
 3328POPC   C2B43664   8.416  32.471   6.764
 3328POPC   C3B43665   8.353  32.435   7.064
 3328POPC   C4B43666   8.413  32.449   7.364
 3329POPC   NC343667  19.096  17.534   5.564
 3329POPC   PO443668  19.083  17.464   5.864
 3329POPC   GL143669  19.073  17.474   6.164
 3329POPC   GL243670  19.208  17.590   6.164
 3329POPC   C1A43671  19.064  17.531   6.464
 3329POPC   D2A43672  19.042  17.490   6.764
 3329POPC   C3A43673  19.071  17.546   7.064
 3329POPC   C4A43674  19.031  17.542   7.364
 3329POPC   C1B43675  19.228  17.632   6.464
 3329POPC   C2B43676  19.267  17.640   6.764
 3329POPC   C3B43677  19.304  17.659   7.064
 3329POPC   C4B43678  19.263  17.656   7.364
 3330POPC   NC343679  33.055  36.872   5.564
 3330POPC   PO443680  33.002  36.947   5.864
 3330POPC   GL143681  33.067  36.935   6.164
 3330POPC   GL243682  33.126  36.837   6.164
 3330POPC   C1A43683  33.007  36.897   6.464
 3330POPC   D2A43684  33.036  36.892   6.764
 3330POPC   C3A43685  33.012  36.950   7.064
 3330POPC   C4A43686  33.070  36.939   7.364
 3330POPC   C1B43687  33.263  36.824   6.464
 3330POPC   C2B43688  33.285  36.848   6.764
 3330POPC   C3B43689  33.240  36.894   7.064
 3330POPC   C4B43690  33.222  36.866   7.364
 3331POPC   NC343691   8.192  15.905   5.564
 3331POPC   PO443692   8.192  15.952   5.864
 3331POPC   GL143693   8.218  15.909   6.164
 3331POPC   GL243694   8.282  16.090   6.164
 3331POPC   C1A43695   8.180  15.947   6.464
 3331POPC   D2A43696   8.175  15.931   6.764
 3331POPC   C3A43697   8.239  15.940   7.064
 3331POPC   C4A43698   8.172  15.963   7.364
 3331POPC   C1B43699   8.279  16.208   6.464
 3331POPC   C2B43700   8.247  16.151   6.764
 3331POPC   C3B43701   8.335  16.233   7.064
 3331POPC   C4B43702   8.316  16.198   7.364
 3332POPC   NC343703  18.324  28.373   5.564
 3332POPC   PO443704  18.246  28.382   5.864
 3332POPC   GL143705  18.302  28.351   6.164
 3332POPC   GL243706  18.317  28.272   6.164
 3332POPC   C1A43707  18.295  28.368   6.464
 3332POPC   D2A43708  18.295  28.327   6.764
 3332POPC   C3A43709  18.326  28.342   7.064
 3332POPC   C4A43710  18.290  28.340   7.364
 3332POPC   C1B43711  18.286  28.131   6.464
 3332POPC   C2B43712  18.279  28.165   6.764
 3332POPC   C3B43713  18.314  28.162   7.064
 3332POPC   C4B43714  18.292  28.079   7.364
 3333POPC   NC343715   8.174  29.921   5.564
 3333POPC   PO443716   8.245  29.902   5.864
 3333POPC   GL143717   8.222  29.875   6.164
 3333POPC   GL243718   8.317  29.821   6.164
 3333POPC   C1A43719   8.228  29.919   6.464
 3333POPC   D2A43720   8.206  29.927   6.764
 3333POPC   C3A43721   8.174  29.926   7.064
 3333POPC   C4A43722   8.209  29.906   7.364
 3333POPC   C1B43723   8.407  29.737   6.464
 3333POPC   C2B43724   8.367  29.778   6.764
 3333POPC   C3B43725   8.361  29.718   7.064
 3333POPC   C4B43726   8.358  29.780   7.364
 3334POPC   NC343727  32.230  12.850   5.564
 3334POPC   PO443728  32.285  12.877   5.864
 3334POPC   GL143729  32.217  12.814   6.164
 3334POPC   GL243730  32.275  13.000   6.164
 3334POPC   C1A43731  32.268  12.803   6.464
 3334POPC   D2A43732  32.259  12.851   6.764
 3334POPC   C3A43733  32.268  12.849   7.064
 3334POPC   C4A43734  32.273  12.810   7.364
 3334POPC   C1B43735  32.324  13.122   6.464
 3334POPC   C2B43736  32.265  13.079   6.764
 3334POPC   C3B43737  32.317  13.071   7.064
 3334POPC   C4B43738  32.304  13.095   7.364
 3335POPC   NC343739   2.775  25.241   5.564
 3335POPC   PO443740   2.805  25.238   5.864
 3335POPC   GL143741   2.720  25.260   6.164
 3335POPC   GL243742   2.702  25.174   6.164
 3335POPC   C1A43743   2.726  25.278   6.464
 3335POPC   D2A43744   2.717  25.283   6.764
 3335POPC   C3A43745   2.785  25.284   7.064
 3335POPC   C4A43746   2.720  25.256   7.364
 3335POPC   C1B43747   2.671  25.047   6.464
 3335POPC   C2B43748   2.710  25.068   6.764
 3335POPC   C3B43749   2.689  24.981   7.064
 3335POPC   C4B43750   2.680  25.020   7.364
 3336POPC   NC343751  14.367  19.077   5.564
 3336POPC   PO443752  14.415  19.067   5.864
 3336POPC   GL143753  14.448  19.095   6.164
 3336POPC   GL243754  14.320  18.988   6.164
 3336POPC   C1A43755  14.412  19.082   6.464
 3336POPC   D2A43756  14.429  19.019   6.764
 3336POPC   C3A43757  14.392  19.033   7.064
 3336POPC   C4A43758  14.381  19.011   7.364
 3336POPC   C1B43759  14.175  18.933   6.464
 3336POPC   C2B43760  14.233  18.943   6.764
 3336POPC   C3B43761  14.154  18.912   7.064
 3336POPC   C4B43762  14.186  18.942   7.364
 3337POPC   NC343763  12.827   5.913   5.564
 3337POPC   PO443764  12.867   5.856   5.864
 3337POPC   GL143765  12.879   5.891   6.164
 3337POPC   GL243766  12.971   5.861   6.164
 3337POPC   C1A43767  12.865   5.830   6.464
 3337POPC   D2A43768  12.810   5.820   6.764
 3337POPC   C3A43769  12.863   5.822   7.064
 3337POPC   C4A43770  12.868   5.823   7.364
 3337POPC   C1B43771  13.078   5.921   6.464
 3337POPC   C2B43772  13.097   5.865   6.764
 3337POPC   C3B43773  13.115   5.891   7.064
 3337POPC   C4B43774  13.149   5.893   7.364
 3338POPC   NC343775  14.360  39.965   5.564
 3338POPC   PO443776  14.413  40.029   5.864
 3338POPC   GL143777  14.355  39.982   6.164
 3338POPC   GL243778  14.479  40.107   6.164
 3338POPC   C1A43779  14.411  40.030   6.464
 3338POPC   D2A43780  14.433  39.997   6.764
 3338POPC   C3A43781  14.374  40.022   7.064
 3338POPC   C4A43782  14.380  40.056   7.364
 3338POPC   C1B43783  14.482  40.200   6.464
 3338POPC   C2B43784  14.490  40.227   6.764
 3338POPC   C3B43785  14.438  40.209   7.064
 3338POPC   C4B43786  14.437  40.261   7.364
 3339POPC   NC343787  29.144  31.492   5.564
 3339POPC   PO443788  29.180  31.481   5.864
 3339POPC   GL143789  29.128  31.471   6.164
 3339POPC   GL243790  29.042  31.598   6.164
 3339POPC   C1A43791  29.142  31.455   6.464
 3339POPC   D2A43792  29.100  31.453   6.764
 3339POPC   C3A43793  29.192  31.460   7.064
 3339POPC   C4A43794  29.103  31.522   7.364
 3339POPC   C1B43795  28.945  31.658   6.464
 3339POPC   C2B43796  28.963  31.666   6.764
 3339POPC   C3B43797  28.919  31.659   7.064
 3339POPC   C4B43798  28.956  31.640   7.364
 3340POPC   NC343799  38.487  14.363   5.564
 3340POPC   PO443800  38.421  14.394   5.864
 3340POPC   GL143801  38.490  14.424   6.164
 3340POPC   GL243802  38.296  14.338   6.164
 3340POPC   C1A43803  38.431  14.358   6.464
 3340POPC   D2A43804  38.500  14.403   6.764
 3340POPC   C3A43805  38.427  14.425   7.064
 3340POPC   C4A43806  38.414  14.440   7.364
 3340POPC   C1B43807  38.247  14.308   6.464
 3340POPC   C2B43808  38.187  14.353   6.764
 3340POPC   C3B43809  38.186  14.342   7.064
 3340POPC   C4B43810  38.237  14.306   7.364
 3341POPC   NC343811  28.388  18.271   5.564
 3341POPC   PO443812  28.360  18.316   5.864
 3341POPC   GL143813  28.328  18.331   6.164
 3341POPC   GL243814  28.277  18.148   6.164
 3341POPC   C1A43815  28.341  18.269   6.464
 3341POPC   D2A43816  28.331  18.297   6.764
 3341POPC   C3A43817  28.355  18.250   7.064
 3341POPC   C4A43818  28.407  18.245   7.364
 3341POPC   C1B43819  28.170  18.104   6.464
 3341POPC   C2B43820  28.188  18.078   6.764
 3341POPC   C3B43821  28.234  18.124   7.064
 3341POPC   C4B43822  28.174  18.119   7.364
 3342POPC   NC343823  24.531  34.545   5.564
 3342POPC   PO443824  24.447  34.556   5.864
 3342POPC   GL143825  24.453  34.610   6.164
 3342POPC   GL243826  24.320  34.572   6.164
 3342POPC   C1A43827  24.484  34.554   6.464
 3342POPC   D2A43828  24.503  34.578   6.764
 3342POPC   C3A43829  24.535  34.539   7.064
 3342POPC   C4A43830  24.440  34.614   7.364
 3342POPC   C1B43831  24.235  34.630   6.464
 3342POPC   C2B43832  24.239  34.613   6.764
 3342POPC   C3B43833  24.258  34.677   7.064
 3342POPC   C4B43834  24.272  34.687   7.364
 3343POPC   NC343835  35.364  24.499   5.564
 3343POPC   PO443836  35.333  24.446   5.864
 3343POPC   GL143837  35.383  24.517   6.164
 3343POPC   GL243838  35.520  24.425   6.164
 3343POPC   C1A43839  35.345  24.505   6.464
 3343POPC   D2A43840  35.396  24.488   6.764
 3343POPC   C3A43841  35.373  24.461   7.064
 3343POPC   C4A43842  35.368  24.454   7.364
 3343POPC   C1B43843  35.619  24.462   6.464
 3343POPC   C2B43844  35.553  24.462   6.764
 3343POPC   C3B43845  35.625  24.458   7.064
 3343POPC   C4B43846  35.636  24.375   7.364
 3344POPC   NC343847   6.640  44.673   5.564
 3344POPC   PO443848   6.617  44.670   5.864
 3344POPC   GL143849   6.643  44.655   6.164
 3344POPC   GL243850   6.565  44.535   6.164
 3344POPC   C1A43851   6.685  44.635   6.464
 3344POPC   D2A43852   6.647  44.649   6.764
 3344POPC   C3A43853   6.629  44.711   7.064
 3344POPC   C4A43854   6.645  44.640   7.364
 3344POPC   C1B43855   6.560  44.469   6.464
 3344POPC   C2B43856   6.485  44.480   6.764
 3344POPC   C3B43857   6.576  44.470   7.064
 3344POPC   C4B43858   6.495  44.431   7.364
 3345POPC   NC343859  26.009   9.022   5.564
 3345POPC   PO443860  26.084   8.979   5.864
 3345POPC   GL143861  26.088   8.977   6.164
 3345POPC   GL243862  26.143   9.059   6.164
 3345POPC   C1A43863  26.014   8.973   6.464
 3345POPC   D2A43864  26.052   8.947   6.764
 3345POPC   C3A43865  26.066   8.931   7.064
 3345POPC   C4A43866  26.001   8.945   7.364
 3345POPC   C1B43867  26.251   9.117   6.464
 3345POPC   C2B43868  26.253   9.113   6.764
 3345POPC   C3B43869  26.238   9.151   7.064
 3345POPC   C4B43870  26.216   9.146   7.364
 3346POPC   NC343871  12.091   8.931   5.564
 3346POPC   PO443872  12.090   8.931   5.864
 3346POPC   GL143873  12.124   8.991   6.164
 3346POPC   GL243874  12.072   9.081   6.164
 3346POPC   C1A43875  12.122   8.996   6.464
 3346POPC   D2A43876  12.071   8.960   6.764
 3346POPC   C3A43877  12.124   8.991   7.064
 3346POPC   C4A43878  12.081   8.940   7.364
 3346POPC   C1B43879  11.998   9.196   6.464
 3346POPC   C2B43880  12.036   9.248   6.764
 3346POPC   C3B43881  12.018   9.269   7.064
 3346POPC   C4B43882  12.006   9.245   7.364
 3347POPC   NC343883  43.852   0.412   5.564
 3347POPC   PO443884  43.874   0.407   5.864
 3347POPC   GL143885  43.885   0.389   6.164
 3347POPC   GL243886  43.953   0.483   6.164
 3347POPC   C1A43887  43.878   0.434   6.464
 3347POPC   D2A43888  43.852   0.435   6.764
 3347POPC   C3A43889  43.917   0.402   7.064
 3347POPC   C4A43890  43.864   0.462   7.364
 3347POPC   C1B43891  44.102   0.582   6.464
 3347POPC   C2B43892  44.059   0.566   6.764
 3347POPC   C3B43893  44.128   0.589   7.064
 3347POPC   C4B43894  44.073   0.557   7.364
 3348POPC   NC343895  31.438  13.675   5.564
 3348POPC   PO443896  31.447  13.635   5.864
 3348POPC   GL143897  31.482  13.627   6.164
 3348POPC   GL243898  31.576  13.586   6.164
 3348POPC   C1A43899  31.522  13.613   6.464
 3348POPC   D2A43900  31.504  13.587   6.764
 3348POPC   C3A43901  31.461  13.653   7.064
 3348POPC   C4A43902  31.460  13.604   7.364
 3348POPC   C1B43903  31.744  13.580   6.464
 3348POPC   C2B43904  31.664  13.579   6.764
 3348POPC   C3B43905  31.675  13.591   7.064
 3348POPC   C4B43906  31.733  13.522   7.364
 3349POPC   NC343907  36.086  37.631   5.564
 3349POPC   PO443908  36.169  37.646   5.864
 3349POPC   GL143909  36.155  37.634   6.164
 3349POPC   GL243910  35.995  37.723   6.164
 3349POPC   C1A43911  36.080  37.646   6.464
 3349POPC   D2A43912  36.099  37.728   6.764
 3349POPC   C3A43913  36.086  37.725   7.064
 3349POPC   C4A43914  36.159  37.675   7.364
 3349POPC   C1B43915  35.966  37.802   6.464
 3349POPC   C2B43916  35.974  37.863   6.764
 3349POPC   C3B43917  35.967  37.840   7.064
 3349POPC   C4B43918  35.926  37.869   7.364
 3350POPC   NC343919   9.739  20.586   5.564
 3350POPC   PO443920   9.786  20.591   5.864
 3350POPC   GL143921   9.772  20.655   6.164
 3350POPC   GL243922   9.871  20.631   6.164
 3350POPC   C1A43923   9.729  20.627   6.464
 3350POPC   D2A43924   9.791  20.616   6.764
 3350POPC   C3A43925   9.724  20.626   7.064
 3350POPC   C4A43926   9.769  20.575   7.364
 3350POPC   C1B43927   9.998  20.520   6.464
 3350POPC   C2B43928   9.949  20.553   6.764
 3350POPC   C3B43929   9.950  20.545   7.064
 3350POPC   C4B43930  10.008  20.538   7.364
 3351POPC   NC343931  44.633  18.261   5.564
 3351POPC   PO443932  44.642  18.274   5.864
 3351POPC   GL143933  44.663  18.289   6.164
 3351POPC   GL243934  44.643  18.149   6.164
 3351POPC   C1A43935  44.624  18.236   6.464
 3351POPC   D2A43936  44.681  18.263   6.764
 3351POPC   C3A43937  44.700  18.242   7.064
 3351POPC   C4A43938  44.634  18.320   7.364
 3351POPC   C1B43939  44.585  18.096   6.464
 3351POPC   C2B43940  44.614  18.026   6.764
 3351POPC   C3B43941  44.569  18.040   7.064
 3351POPC   C4B43942  44.529  18.091   7.364
 3352POPC   NC343943  30.715  37.646   5.564
 3352POPC   PO443944  30.725  37.665   5.864
 3352POPC   GL143945  30.735  37.637   6.164
 3352POPC   GL243946  30.776  37.565   6.164
 3352POPC   C1A43947  30.671  37.685   6.464
 3352POPC   D2A43948  30.647  37.691   6.764
 3352POPC   C3A43949  30.726  37.727   7.064
 3352POPC   C4A43950  30.658  37.682   7.364
 3352POPC   C1B43951  30.793  37.476   6.464
 3352POPC   C2B43952  30.744  37.414   6.764
 3352POPC   C3B43953  30.716  37.396   7.064
 3352POPC   C4B43954  30.771  37.471   7.364
 3353POPC   NC343955  18.251  41.531   5.564
 3353POPC   PO443956  18.245  41.536   5.864
 3353POPC   GL143957  18.277  41.529   6.164
 3353POPC   GL243958  18.192  41.711   6.164
 3353POPC   C1A43959  18.326  41.563   6.464
 3353POPC   D2A43960  18.254  41.512   6.764
 3353POPC   C3A43961  18.261  41.553   7.064
 3353POPC   C4A43962  18.269  41.603   7.364
 3353POPC   C1B43963  18.142  41.748   6.464
 3353POPC   C2B43964  18.160  41.798   6.764
 3353POPC   C3B43965  18.171  41.832   7.064
 3353POPC   C4B43966  18.198  41.790   7.364
 3354POPC   NC343967  22.909  13.638   5.564
 3354POPC   PO443968  22.967  13.636   5.864
 3354POPC   GL143969  22.915  13.593   6.164
 3354POPC   GL243970  23.070  13.707   6.164
 3354POPC   C1A43971  22.926  13.582   6.464
 3354POPC   D2A43972  22.986  13.602   6.764
 3354POPC   C3A43973  22.902  13.625   7.064
 3354POPC   C4A43974  22.936  13.659   7.364
 3354POPC   C1B43975  23.144  13.848   6.464
 3354POPC   C2B43976  23.139  13.822   6.764
 3354POPC   C3B43977  23.150  13.800   7.064
 3354POPC   C4B43978  23.067  13.839   7.364
 3355POPC   NC343979  30.672  11.291   5.564
 3355POPC   PO443980  30.678  11.268   5.864
 3355POPC   GL143981  30.736  11.331   6.164
 3355POPC   GL243982  30.530  11.311   6.164
 3355POPC   C1A43983  30.695  11.337   6.464
 3355POPC   D2A43984  30.714  11.288   6.764
 3355POPC   C3A43985  30.726  11.329   7.064
 3355POPC   C4A43986  30.676  11.267   7.364
 3355POPC   C1B43987  30.472  11.376   6.464
 3355POPC   C2B43988  30.435  11.348   6.764
 3355POPC   C3B43989  30.473  11.345   7.064
 3355POPC   C4B43990  30.480  11.317   7.364
 3356POPC   NC343991  43.929  27.595   5.564
 3356POPC   PO443992  43.904  27.624   5.864
 3356POPC   GL143993  43.891  27.581   6.164
 3356POPC   GL243994  43.936  27.506   6.164
 3356POPC   C1A43995  43.852  27.581   6.464
 3356POPC   D2A43996  43.906  27.637   6.764
 3356POPC   C3A43997  43.896  27.615   7.064
 3356POPC   C4A43998  43.843  27.563   7.364
 3356POPC   C1B43999  43.916  27.301   6.464
 3356POPC   C2B44000  43.914  27.301   6.764
 3356POPC   C3B44001  43.881  27.383   7.064
 3356POPC   C4B44002  43.936  27.322   7.364
 3357POPC   NC344003  26.001   4.268   5.564
 3357POPC   PO444004  26.091   4.359   5.864
 3357POPC   GL144005  26.013   4.287   6.164
 3357POPC   GL244006  26.113   4.186   6.164
 3357POPC   C1A44007  26.035   4.301   6.464
 3357POPC   D2A44008  26.066   4.341   6.764
 3357POPC   C3A44009  26.010   4.312   7.064
 3357POPC   C4A44010  26.022   4.278   7.364
 3357POPC   C1B44011  26.251   4.133   6.464
 3357POPC   C2B44012  26.196   4.174   6.764
 3357POPC   C3B44013  26.261   4.141   7.064
 3357POPC   C4B44014  26.249   4.141   7.364
 3358POPC   NC344015  33.811  17.459   5.564
 3358POPC   PO444016  33.832  17.466   5.864
 3358POPC   GL144017  33.776  17.537   6.164
 3358POPC   GL244018  33.809  17.382   6.164
 3358POPC   C1A44019  33.793  17.475   6.464
 3358POPC   D2A44020  33.779  17.481   6.764
 3358POPC   C3A44021  33.831  17.483   7.064
 3358POPC   C4A44022  33.843  17.504   7.364
 3358POPC   C1B44023  33.775  17.281   6.464
 3358POPC   C2B44024  33.739  17.280   6.764
 3358POPC   C3B44025  33.810  17.267   7.064
 3358POPC   C4B44026  33.801  17.295   7.364
 3359POPC   NC344027  23.671  31.506   5.564
 3359POPC   PO444028  23.715  31.435   5.864
 3359POPC   GL144029  23.736  31.451   6.164
 3359POPC   GL244030  23.854  31.532   6.164
 3359POPC   C1A44031  23.707  31.499   6.464
 3359POPC   D2A44032  23.742  31.482   6.764
 3359POPC   C3A44033  23.735  31.503   7.064
 3359POPC   C4A44034  23.684  31.480   7.364
 3359POPC   C1B44035  23.925  31.643   6.464
 3359POPC   C2B44036  23.874  31.630   6.764
 3359POPC   C3B44037  23.881  31.579   7.064
 3359POPC   C4B44038  23.919  31.650   7.364
 3360POPC   NC344039   5.821  29.958   5.564
 3360POPC   PO444040   5.889  29.912   5.864
 3360POPC   GL144041   5.840  29.950   6.164
 3360POPC   GL244042   5.972  30.075   6.164
 3360POPC   C1A44043   5.908  29.916   6.464
 3360POPC   D2A44044   5.903  29.900   6.764
 3360POPC   C3A44045   5.911  29.882   7.064
 3360POPC   C4A44046   5.862  29.920   7.364
 3360POPC   C1B44047   6.020  30.161   6.464
 3360POPC   C2B44048   5.965  30.167   6.764
 3360POPC   C3B44049   6.029  30.121   7.064
 3360POPC   C4B44050   6.019  30.113   7.364
 3361POPC   NC344051  13.588  39.994   5.564
 3361POPC   PO444052  13.660  39.967   5.864
 3361POPC   GL144053  13.624  39.981   6.164
 3361POPC   GL244054  13.721  40.160   6.164
 3361POPC   C1A44055  13.597  40.001   6.464
 3361POPC   D2A44056  13.625  39.963   6.764
 3361POPC   C3A44057  13.650  40.017   7.064
 3361POPC   C4A44058  13.610  40.002   7.364
 3361POPC   C1B44059  13.795  40.216   6.464
 3361POPC   C2B44060  13.757  40.192   6.764
 3361POPC   C3B44061  13.776  40.207   7.064
 3361POPC   C4B44062  13.711  40.184   7.364
 3362POPC   NC344063  43.900   5.855   5.564
 3362POPC   PO444064  43.859   5.843   5.864
 3362POPC   GL144065  43.904   5.832   6.164
 3362POPC   GL244066  43.898   5.764   6.164
 3362POPC   C1A44067  43.857   5.845   6.464
 3362POPC   D2A44068  43.868   5.878   6.764
 3362POPC   C3A44069  43.895   5.914   7.064
 3362POPC   C4A44070  43.880   5.857   7.364
 3362POPC   C1B44071  43.884   5.658   6.464
 3362POPC   C2B44072  43.843   5.653   6.764
 3362POPC   C3B44073  43.864   5.617   7.064
 3362POPC   C4B44074  43.900   5.609   7.364
 3363POPC   NC344075  17.458  13.672   5.564
 3363POPC   PO444076  17.467  13.599   5.864
 3363POPC   GL144077  17.488  13.578   6.164
 3363POPC   GL244078  17.436  13.746   6.164
 3363POPC   C1A44079  17.480  13.610   6.464
 3363POPC   D2A44080  17.512  13.588   6.764
 3363POPC   C3A44081  17.515  13.587   7.064
 3363POPC   C4A44082  17.469  13.629   7.364
 3363POPC   C1B44083  17.439  13.851   6.464
 3363POPC   C2B44084  17.381  13.884   6.764
 3363POPC   C3B44085  17.363  13.825   7.064
 3363POPC   C4B44086  17.384  13.896   7.364
 3364POPC   NC344087  41.564   5.050   5.564
 3364POPC   PO444088  41.569   5.106   5.864
 3364POPC   GL144089  41.601   5.050   6.164
 3364POPC   GL244090  41.704   5.073   6.164
 3364POPC   C1A44091  41.580   5.083   6.464
 3364POPC   D2A44092  41.520   5.043   6.764
 3364POPC   C3A44093  41.581   5.137   7.064
 3364POPC   C4A44094  41.572   5.105   7.364
 3364POPC   C1B44095  41.795   4.965   6.464
 3364POPC   C2B44096  41.787   5.004   6.764
 3364POPC   C3B44097  41.756   5.035   7.064
 3364POPC   C4B44098  41.762   5.040   7.364
 3365POPC   NC344099  34.556   0.427   5.564
 3365POPC   PO444100  34.599   0.451   5.864
 3365POPC   GL144101  34.612   0.393   6.164
 3365POPC   GL244102  34.497   0.447   6.164
 3365POPC   C1A44103  34.622   0.482   6.464
 3365POPC   D2A44104  34.594   0.463   6.764
 3365POPC   C3A44105  34.603   0.472   7.064
 3365POPC   C4A44106  34.539   0.466   7.364
 3365POPC   C1B44107  34.370   0.601   6.464
 3365POPC   C2B44108  34.385   0.573   6.764
 3365POPC   C3B44109  34.336   0.600   7.064
 3365POPC   C4B44110  34.368   0.535   7.364
 3366POPC   NC344111   6.666  11.287   5.564
 3366POPC   PO444112   6.642  11.345   5.864
 3366POPC   GL144113   6.658  11.337   6.164
 3366POPC   GL244114   6.617  11.413   6.164
 3366POPC   C1A44115   6.671  11.339   6.464
 3366POPC   D2A44116   6.653  11.272   6.764
 3366POPC   C3A44117   6.675  11.303   7.064
 3366POPC   C4A44118   6.690  11.282   7.364
 3366POPC   C1B44119   6.625  11.591   6.464
 3366POPC   C2B44120   6.722  11.505   6.764
 3366POPC   C3B44121   6.658  11.548   7.064
 3366POPC   C4B44122   6.627  11.541   7.364
 3367POPC   NC344123  28.325  44.617   5.564
 3367POPC   PO444124  28.380  44.676   5.864
 3367POPC   GL144125  28.399  44.649   6.164
 3367POPC   GL244126  28.430  44.564   6.164
 3367POPC   C1A44127  28.351  44.623   6.464
 3367POPC   D2A44128  28.348  44.678   6.764
 3367POPC   C3A44129  28.374  44.633   7.064
 3367POPC   C4A44130  28.333  44.653   7.364
 3367POPC   C1B44131  28.495  44.451   6.464
 3367POPC   C2B44132  28.432  44.482   6.764
 3367POPC   C3B44133  28.459  44.418   7.064
 3367POPC   C4B44134  28.455  44.461   7.364
 3368POPC   NC344135  29.173  30.686   5.564
 3368POPC   PO444136  29.146  30.737   5.864
 3368POPC   GL144137  29.193  30.679   6.164
 3368POPC   GL244138  29.090  30.625   6.164
 3368POPC   C1A44139  29.156  30.653   6.464
 3368POPC   D2A44140  29.194  30.654   6.764
 3368POPC   C3A44141  29.175  30.654   7.064
 3368POPC   C4A44142  29.162  30.652   7.364
 3368POPC   C1B44143  28.984  30.565   6.464
 3368POPC   C2B44144  28.942  30.531   6.764
 3368POPC   C3B44145  28.926  30.517   7.064
 3368POPC   C4B44146  28.957  30.574   7.364
 3369POPC   NC344147  20.633  43.158   5.564
 3369POPC   PO444148  20.565  43.086   5.864
 3369POPC   GL144149  20.567  43.077   6.164
 3369POPC   GL244150  20.536  43.030   6.164
 3369POPC   C1A44151  20.629  43.100   6.464
 3369POPC   D2A44152  20.595  43.106   6.764
 3369POPC   C3A44153  20.603  43.159   7.064
 3369POPC   C4A44154  20.611  43.087   7.364
 3369POPC   C1B44155  20.448  42.974   6.464
 3369POPC   C2B44156  20.457  42.948   6.764
 3369POPC   C3B44157  20.432  42.892   7.064
 3369POPC   C4B44158  20.394  42.951   7.364
 3370POPC   NC344159  23.695   1.183   5.564
 3370POPC   PO444160  23.719   1.255   5.864
 3370POPC   GL144161  23.668   1.183   6.164
 3370POPC   GL244162  23.797   1.163   6.164
 3370POPC   C1A44163  23.687   1.200   6.464
 3370POPC   D2A44164  23.738   1.207   6.764
 3370POPC   C3A44165  23.712   1.194   7.064
 3370POPC   C4A44166  23.749   1.250   7.364
 3370POPC   C1B44167  23.969   1.151   6.464
 3370POPC   C2B44168  23.945   1.169   6.764
 3370POPC   C3B44169  23.918   1.153   7.064
 3370POPC   C4B44170  23.955   1.113   7.364
 3371POPC   NC344171  33.784  43.863   5.564
 3371POPC   PO444172  33.766  43.895   5.864
 3371POPC   GL144173  33.788  43.900   6.164
 3371POPC   GL244174  33.636  43.839   6.164
 3371POPC   C1A44175  33.809  43.850   6.464
 3371POPC   D2A44176  33.845  43.875   6.764
 3371POPC   C3A44177  33.756  43.841   7.064
 3371POPC   C4A44178  33.819  43.886   7.364
 3371POPC   C1B44179  33.581  43.848   6.464
 3371POPC   C2B44180  33.534  43.798   6.764
 3371POPC   C3B44181  33.566  43.808   7.064
 3371POPC   C4B44182  33.543  43.795   7.364
 3372POPC   NC344183  19.881  42.322   5.564
 3372POPC   PO444184  19.861  42.335   5.864
 3372POPC   GL144185  19.832  42.304   6.164
 3372POPC   GL244186  19.846  42.208   6.164
 3372POPC   C1A44187  19.840  42.309   6.464
 3372POPC   D2A44188  19.826  42.325   6.764
 3372POPC   C3A44189  19.864  42.370   7.064
 3372POPC   C4A44190  19.799  42.287   7.364
 3372POPC   C1B44191  19.953  42.159   6.464
 3372POPC   C2B44192  19.980  42.144   6.764
 3372POPC   C3B44193  19.961  42.154   7.064
 3372POPC   C4B44194  19.985  42.078   7.364
 3373POPC   NC344195  25.999  28.327   5.564
 3373POPC   PO444196  26.083  28.330   5.864
 3373POPC   GL144197  26.091  28.332   6.164
 3373POPC   GL244198  25.920  28.376   6.164
 3373POPC   C1A44199  26.066  28.410   6.464
 3373POPC   D2A44200  26.058  28.329   6.764
 3373POPC   C3A44201  26.046  28.405   7.064
 3373POPC   C4A44202  26.040  28.386   7.364
 3373POPC   C1B44203  25.793  28.328   6.464
 3373POPC   C2B44204  25.778  28.359   6.764
 3373POPC   C3B44205  25.803  28.354   7.064
 3373POPC   C4B44206  25.770  28.405   7.364
 3374POPC   NC344207  36.866  22.947   5.564
 3374POPC   PO444208  36.883  22.905   5.864
 3374POPC   GL144209  36.854  22.915   6.164
 3374POPC   GL244210  36.870  22.782   6.164
 3374POPC   C1A44211  36.891  22.952   6.464
 3374POPC   D2A44212  36.889  22.979   6.764
 3374POPC   C3A44213  36.861  22.969   7.064
 3374POPC   C4A44214  36.875  22.917   7.364
 3374POPC   C1B44215  36.765  22.760   6.464
 3374POPC   C2B44216  36.829  22.686   6.764
 3374POPC   C3B44217  36.806  22.752   7.064
 3374POPC   C4B44218  36.832  22.725   7.364
 3375POPC   NC344219   9.732  40.026   5.564
 3375POPC   PO444220   9.769  39.986   5.864
 3375POPC   GL144221   9.767  40.012   6.164
 3375POPC   GL244222   9.743  39.938   6.164
 3375POPC   C1A44223   9.711  40.001   6.464
 3375POPC   D2A44224   9.710  40.057   6.764
 3375POPC   C3A44225   9.778  39.967   7.064
 3375POPC   C4A44226   9.717  40.029   7.364
 3375POPC   C1B44227   9.601  39.732   6.464
 3375POPC   C2B44228   9.694  39.791   6.764
 3375POPC   C3B44229   9.643  39.816   7.064
 3375POPC   C4B44230   9.621  39.732   7.364
 3376POPC   NC344231  32.263  22.120   5.564
 3376POPC   PO444232  32.211  22.186   5.864
 3376POPC   GL144233  32.243  22.187   6.164
 3376POPC   GL244234  32.256  22.284   6.164
 3376POPC   C1A44235  32.237  22.147   6.464
 3376POPC   D2A44236  32.297  22.198   6.764
 3376POPC   C3A44237  32.201  22.204   7.064
 3376POPC   C4A44238  32.275  22.204   7.364
 3376POPC   C1B44239  32.241  22.399   6.464
 3376POPC   C2B44240  32.181  22.378   6.764
 3376POPC   C3B44241  32.199  22.413   7.064
 3376POPC   C4B44242  32.176  22.443   7.364
 3377POPC   NC344243  39.977   3.581   5.564
 3377POPC   PO444244  39.958   3.590   5.864
 3377POPC   GL144245  39.985   3.502   6.164
 3377POPC   GL244246  40.080   3.659   6.164
 3377POPC   C1A44247  39.986   3.566   6.464
 3377POPC   D2A44248  40.045   3.515   6.764
 3377POPC   C3A44249  39.998   3.557   7.064
 3377POPC   C4A44250  39.975   3.561   7.364
 3377POPC   C1B44251  40.203   3.695   6.464
 3377POPC   C2B44252  40.145   3.752   6.764
 3377POPC   C3B44253  40.172   3.688   7.064
 3377POPC   C4B44254  40.177   3.686   7.364
 3378POPC   NC344255  24.492  36.171   5.564
 3378POPC   PO444256  24.492  36.124   5.864
 3378POPC   GL144257  24.487  36.081   6.164
 3378POPC   GL244258  24.655  36.163   6.164
 3378POPC   C1A44259  24.534  36.162   6.464
 3378POPC   D2A44260  24.444  36.150   6.764
 3378POPC   C3A44261  24.537  36.086   7.064
 3378POPC   C4A44262  24.466  36.104   7.364
 3378POPC   C1B44263  24.752  36.234   6.464
 3378POPC   C2B44264  24.702  36.146   6.764
 3378POPC   C3B44265  24.772  36.231   7.064
 3378POPC   C4B44266  24.710  36.236   7.364
 3379POPC   NC344267   6.643  25.218   5.564
 3379POPC   PO444268   6.668  25.267   5.864
 3379POPC   GL144269   6.653  25.220   6.164
 3379POPC   GL244270   6.543  25.278   6.164
 3379POPC   C1A44271   6.637  25.298   6.464
 3379POPC   D2A44272   6.623  25.289   6.764
 3379POPC   C3A44273   6.676  25.285   7.064
 3379POPC   C4A44274   6.692  25.302   7.364
 3379POPC   C1B44275   6.441  25.335   6.464
 3379POPC   C2B44276   6.394  25.291   6.764
 3379POPC   C3B44277   6.357  25.351   7.064
 3379POPC   C4B44278   6.449  25.376   7.364
 3380POPC   NC344279  37.723  19.884   5.564
 3380POPC   PO444280  37.641  19.868   5.864
 3380POPC   GL144281  37.674  19.869   6.164
 3380POPC   GL244282  37.525  19.883   6.164
 3380POPC   C1A44283  37.650  19.792   6.464
 3380POPC   D2A44284  37.655  19.828   6.764
 3380POPC   C3A44285  37.696  19.865   7.064
 3380POPC   C4A44286  37.649  19.875   7.364
 3380POPC   C1B44287  37.447  19.856   6.464
 3380POPC   C2B44288  37.437  19.877   6.764
 3380POPC   C3B44289  37.428  19.936   7.064
 3380POPC   C4B44290  37.399  19.903   7.364
 3381POPC   NC344291  23.686   7.414   5.564
 3381POPC   PO444292  23.669   7.403   5.864
 3381POPC   GL144293  23.720   7.467   6.164
 3381POPC   GL244294  23.684   7.507   6.164
 3381POPC   C1A44295  23.724   7.391   6.464
 3381POPC   D2A44296  23.709   7.417   6.764
 3381POPC   C3A44297  23.697   7.391   7.064
 3381POPC   C4A44298  23.746   7.376   7.364
 3381POPC   C1B44299  23.657   7.651   6.464
 3381POPC   C2B44300  23.680   7.711   6.764
 3381POPC   C3B44301  23.715   7.643   7.064
 3381POPC   C4B44302  23.644   7.674   7.364
 3382POPC   NC344303  42.319   7.466   5.564
 3382POPC   PO444304  42.331   7.455   5.864
 3382POPC   GL144305  42.353   7.394   6.164
 3382POPC   GL244306  42.373   7.495   6.164
 3382POPC   C1A44307  42.349   7.444   6.464
 3382POPC   D2A44308  42.343   7.469   6.764
 3382POPC   C3A44309  42.291   7.401   7.064
 3382POPC   C4A44310  42.293   7.395   7.364
 3382POPC   C1B44311  42.447   7.633   6.464
 3382POPC   C2B44312  42.488   7.645   6.764
 3382POPC   C3B44313  42.452   7.652   7.064
 3382POPC   C4B44314  42.478   7.614   7.364
 3383POPC   NC344315  34.544  24.493   5.564
 3383POPC   PO444316  34.538  24.523   5.864
 3383POPC   GL144317  34.596  24.459   6.164
 3383POPC   GL244318  34.487  24.360   6.164
 3383POPC   C1A44319  34.554  24.444   6.464
 3383POPC   D2A44320  34.551  24.499   6.764
 3383POPC   C3A44321  34.580  24.531   7.064
 3383POPC   C4A44322  34.577  24.471   7.364
 3383POPC   C1B44323  34.381  24.348   6.464
 3383POPC   C2B44324  34.431  24.338   6.764
 3383POPC   C3B44325  34.399  24.322   7.064
 3383POPC   C4B44326  34.406  24.271   7.364
 3384POPC   NC344327  29.959  12.831   5.564
 3384POPC   PO444328  29.893  12.852   5.864
 3384POPC   GL144329  29.970  12.839   6.164
 3384POPC   GL244330  29.808  12.755   6.164
 3384POPC   C1A44331  29.968  12.891   6.464
 3384POPC   D2A44332  29.937  12.898   6.764
 3384POPC   C3A44333  29.880  12.819   7.064
 3384POPC   C4A44334  29.894  12.855   7.364
 3384POPC   C1B44335  29.695  12.711   6.464
 3384POPC   C2B44336  29.768  12.645   6.764
 3384POPC   C3B44337  29.733  12.692   7.064
 3384POPC   C4B44338  29.690  12.657   7.364
 3385POPC   NC344339  21.352   7.407   5.564
 3385POPC   PO444340  21.432   7.468   5.864
 3385POPC   GL144341  21.364   7.407   6.164
 3385POPC   GL244342  21.461   7.478   6.164
 3385POPC   C1A44343  21.380   7.380   6.464
 3385POPC   D2A44344  21.363   7.395   6.764
 3385POPC   C3A44345  21.359   7.374   7.064
 3385POPC   C4A44346  21.395   7.430   7.364
 3385POPC   C1B44347  21.561   7.576   6.464
 3385POPC   C2B44348  21.537   7.548   6.764
 3385POPC   C3B44349  21.565   7.586   7.064
 3385POPC   C4B44350  21.586   7.554   7.364
 3386POPC   NC344351  15.987   1.984   5.564
 3386POPC   PO444352  15.963   1.954   5.864
 3386POPC   GL144353  15.985   2.020   6.164
 3386POPC   GL244354  15.892   1.898   6.164
 3386POPC   C1A44355  15.913   2.024   6.464
 3386POPC   D2A44356  15.915   1.985   6.764
 3386POPC   C3A44357  15.933   1.944   7.064
 3386POPC   C4A44358  15.912   1.998   7.364
 3386POPC   C1B44359  15.770   1.771   6.464
 3386POPC   C2B44360  15.755   1.779   6.764
 3386POPC   C3B44361  15.765   1.810   7.064
 3386POPC   C4B44362  15.832   1.744   7.364
 3387POPC   NC344363  42.364  43.152   5.564
 3387POPC   PO444364  42.322  43.159   5.864
 3387POPC   GL144365  42.367  43.141   6.164
 3387POPC   GL244366  42.223  43.111   6.164
 3387POPC   C1A44367  42.325  43.140   6.464
 3387POPC   D2A44368  42.319  43.102   6.764
 3387POPC   C3A44369  42.372  43.062   7.064
 3387POPC   C4A44370  42.308  43.150   7.364
 3387POPC   C1B44371  42.053  43.178   6.464
 3387POPC   C2B44372  42.100  43.151   6.764
 3387POPC   C3B44373  42.069  43.222   7.064
 3387POPC   C4B44374  42.128  43.160   7.364
 3388POPC   NC344375  44.673  41.532   5.564
 3388POPC   PO444376  44.639  41.567   5.864
 3388POPC   GL144377  44.672  41.604   6.164
 3388POPC   GL244378  44.752  41.602   6.164
 3388POPC   C1A44379  44.637  41.557   6.464
 3388POPC   D2A44380  44.632  41.563   6.764
 3388POPC   C3A44381  44.625  41.533   7.064
 3388POPC   C4A44382  44.641  41.522   7.364
 3388POPC   C1B44383  44.822  41.771   6.464
 3388POPC   C2B44384  44.856  41.686   6.764
 3388POPC   C3B44385  44.867  41.764   7.064
 3388POPC   C4B44386  44.830  41.689   7.364
 3389POPC   NC344387  12.817  19.041   5.564
 3389POPC   PO444388  12.875  19.038   5.864
 3389POPC   GL144389  12.830  19.012   6.164
 3389POPC   GL244390  12.935  19.157   6.164
 3389POPC   C1A44391  12.888  19.025   6.464
 3389POPC   D2A44392  12.886  19.033   6.764
 3389POPC   C3A44393  12.834  19.011   7.064
 3389POPC   C4A44394  12.809  19.058   7.364
 3389POPC   C1B44395  13.031  19.190   6.464
 3389POPC   C2B44396  13.072  19.204   6.764
 3389POPC   C3B44397  13.061  19.175   7.064
 3389POPC   C4B44398  13.048  19.191   7.364
 3390POPC   NC344399  36.950  26.843   5.564
 3390POPC   PO444400  36.906  26.781   5.864
 3390POPC   GL144401  36.903  26.794   6.164
 3390POPC   GL244402  36.852  26.901   6.164
 3390POPC   C1A44403  36.878  26.821   6.464
 3390POPC   D2A44404  36.875  26.849   6.764
 3390POPC   C3A44405  36.854  26.850   7.064
 3390POPC   C4A44406  36.918  26.801   7.364
 3390POPC   C1B44407  36.896  27.084   6.464
 3390POPC   C2B44408  36.890  27.064   6.764
 3390POPC   C3B44409  36.875  27.052   7.064
 3390POPC   C4B44410  36.868  27.046   7.364
 3391POPC   NC344411  40.821  28.363   5.564
 3391POPC   PO444412  40.797  28.370   5.864
 3391POPC   GL144413  40.798  28.380   6.164
 3391POPC   GL244414  40.816  28.276   6.164
 3391POPC   C1A44415  40.751  28.321   6.464
 3391POPC   D2A44416  40.775  28.362   6.764
 3391POPC   C3A44417  40.767  28.401   7.064
 3391POPC   C4A44418  40.833  28.417   7.364
 3391POPC   C1B44419  40.915  28.174   6.464
 3391POPC   C2B44420  40.981  28.134   6.764
 3391POPC   C3B44421  40.965  28.218   7.064
 3391POPC   C4B44422  40.941  28.158   7.364
 3392POPC   NC344423  29.924   3.570   5.564
 3392POPC   PO444424  29.954   3.525   5.864
 3392POPC   GL144425  29.953   3.494   6.164
 3392POPC   GL244426  29.989   3.694   6.164
 3392POPC   C1A44427  29.932   3.524   6.464
 3392POPC   D2A44428  29.929   3.523   6.764
 3392POPC   C3A44429  29.884   3.569   7.064
 3392POPC   C4A44430  29.943   3.590   7.364
 3392POPC   C1B44431  30.072   3.765   6.464
 3392POPC   C2B44432  30.105   3.798   6.764
 3392POPC   C3B44433  30.051   3.788   7.064
 3392POPC   C4B44434  30.048   3.766   7.364
 3393POPC   NC344435  40.018  22.939   5.564
 3393POPC   PO444436  40.038  22.946   5.864
 3393POPC   GL144437  40.003  22.921   6.164
 3393POPC   GL244438  40.165  22.896   6.164
 3393POPC   C1A44439  39.986  22.967   6.464
 3393POPC   D2A44440  40.008  22.984   6.764
 3393POPC   C3A44441  39.993  22.986   7.064
 3393POPC   C4A44442  39.960  22.958   7.364
 3393POPC   C1B44443  40.287  22.963   6.464
 3393POPC   C2B44444  40.293  22.955   6.764
 3393POPC   C3B44445  40.224  22.920   7.064
 3393POPC   C4B44446  40.213  22.995   7.364
 3394POPC   NC344447   4.326  27.548   5.564
 3394POPC   PO444448   4.315  27.642   5.864
 3394POPC   GL144449   4.284  27.569   6.164
 3394POPC   GL244450   4.302  27.440   6.164
 3394POPC   C1A44451   4.366  27.634   6.464
 3394POPC   D2A44452   4.311  27.549   6.764
 3394POPC   C3A44453   4.268  27.570   7.064
 3394POPC   C4A44454   4.271  27.600   7.364
 3394POPC   C1B44455   4.220  27.378   6.464
 3394POPC   C2B44456   4.252  27.309   6.764
 3394POPC   C3B44457   4.227  27.335   7.064
 3394POPC   C4B44458   4.208  27.385   7.364
 3395POPC   NC344459   6.682  16.710   5.564
 3395POPC   PO444460   6.693  16.755   5.864
 3395POPC   GL144461   6.611  16.766   6.164
 3395POPC   GL244462   6.777  16.820   6.164
 3395POPC   C1A44463   6.600  16.741   6.464
 3395POPC   D2A44464   6.637  16.762   6.764
 3395POPC   C3A44465   6.663  16.745   7.064
 3395POPC   C4A44466   6.684  16.749   7.364
 3395POPC   C1B44467   6.807  16.859   6.464
 3395POPC   C2B44468   6.877  16.877   6.764
 3395POPC   C3B44469   6.815  16.839   7.064
 3395POPC   C4B44470   6.834  16.884   7.364
 3396POPC   NC344471  41.596  10.540   5.564
 3396POPC   PO444472  41.577  10.572   5.864
 3396POPC   GL144473  41.598  10.490   6.164
 3396POPC   GL244474  41.628  10.434   6.164
 3396POPC   C1A44475  41.553  10.558   6.464
 3396POPC   D2A44476  41.596  10.538   6.764
 3396POPC   C3A44477  41.555  10.571   7.064
 3396POPC   C4A44478  41.583  10.556   7.364
 3396POPC   C1B44479  41.753  10.370   6.464
 3396POPC   C2B44480  41.737  10.388   6.764
 3396POPC   C3B44481  41.781  10.366   7.064
 3396POPC   C4B44482  41.730  10.403   7.364
 3397POPC   NC344483   8.178  22.131   5.564
 3397POPC   PO444484   8.223  22.131   5.864
 3397POPC   GL144485   8.220  22.209   6.164
 3397POPC   GL244486   8.271  22.085   6.164
 3397POPC   C1A44487   8.201  22.175   6.464
 3397POPC   D2A44488   8.147  22.206   6.764
 3397POPC   C3A44489   8.209  22.150   7.064
 3397POPC   C4A44490   8.157  22.211   7.364
 3397POPC   C1B44491   8.293  21.894   6.464
 3397POPC   C2B44492   8.279  21.975   6.764
 3397POPC   C3B44493   8.282  21.977   7.064
 3397POPC   C4B44494   8.320  21.916   7.364
 3398POPC   NC344495   2.719  39.227   5.564
 3398POPC   PO444496   2.792  39.202   5.864
 3398POPC   GL144497   2.733  39.237   6.164
 3398POPC   GL244498   2.612  39.295   6.164
 3398POPC   C1A44499   2.808  39.202   6.464
 3398POPC   D2A44500   2.737  39.241   6.764
 3398POPC   C3A44501   2.724  39.210   7.064
 3398POPC   C4A44502   2.803  39.274   7.364
 3398POPC   C1B44503   2.474  39.254   6.464
 3398POPC   C2B44504   2.488  39.336   6.764
 3398POPC   C3B44505   2.478  39.307   7.064
 3398POPC   C4B44506   2.567  39.249   7.364
 3399POPC   NC344507  34.610  19.799   5.564
 3399POPC   PO444508  34.587  19.822   5.864
 3399POPC   GL144509  34.529  19.801   6.164
 3399POPC   GL244510  34.734  19.756   6.164
 3399POPC   C1A44511  34.600  19.805   6.464
 3399POPC   D2A44512  34.549  19.789   6.764
 3399POPC   C3A44513  34.571  19.851   7.064
 3399POPC   C4A44514  34.620  19.813   7.364
 3399POPC   C1B44515  34.816  19.816   6.464
 3399POPC   C2B44516  34.807  19.775   6.764
 3399POPC   C3B44517  34.789  19.783   7.064
 3399POPC   C4B44518  34.840  19.745   7.364
 3400POPC   NC344519  30.672  24.500   5.564
 3400POPC   PO444520  30.703  24.519   5.864
 3400POPC   GL144521  30.725  24.490   6.164
 3400POPC   GL244522  30.676  24.385   6.164
 3400POPC   C1A44523  30.680  24.527   6.464
 3400POPC   D2A44524  30.703  24.493   6.764
 3400POPC   C3A44525  30.681  24.510   7.064
 3400POPC   C4A44526  30.658  24.487   7.364
 3400POPC   C1B44527  30.527  24.261   6.464
 3400POPC   C2B44528  30.605  24.264   6.764
 3400POPC   C3B44529  30.535  24.258   7.064
 3400POPC   C4B44530  30.599  24.276   7.364
 3401POPC   NC344531   2.726  34.598   5.564
 3401POPC   PO444532   2.726  34.586   5.864
 3401POPC   GL144533   2.813  34.595   6.164
 3401POPC   GL244534   2.828  34.665   6.164
 3401POPC   C1A44535   2.774  34.572   6.464
 3401POPC   D2A44536   2.740  34.546   6.764
 3401POPC   C3A44537   2.781  34.557   7.064
 3401POPC   C4A44538   2.726  34.560   7.364
 3401POPC   C1B44539   2.899  34.826   6.464
 3401POPC   C2B44540   2.886  34.816   6.764
 3401POPC   C3B44541   2.929  34.807   7.064
 3401POPC   C4B44542   2.925  34.802   7.364
 3402POPC   NC344543  15.222   0.406   5.564
 3402POPC   PO444544  15.145   0.454   5.864
 3402POPC   GL144545  15.141   0.470   6.164
 3402POPC   GL244546  15.318   0.554   6.164
 3402POPC   C1A44547  15.215   0.420   6.464
 3402POPC   D2A44548  15.190   0.393   6.764
 3402POPC   C3A44549  15.192   0.484   7.064
 3402POPC   C4A44550  15.171   0.415   7.364
 3402POPC   C1B44551  15.386   0.599   6.464
 3402POPC   C2B44552  15.340   0.538   6.764
 3402POPC   C3B44553  15.400   0.547   7.064
 3402POPC   C4B44554  15.363   0.575   7.364
 3403POPC   NC344555  35.333  31.515   5.564
 3403POPC   PO444556  35.314  31.478   5.864
 3403POPC   GL144557  35.357  31.485   6.164
 3403POPC   GL244558  35.393  31.371   6.164
 3403POPC   C1A44559  35.332  31.454   6.464
 3403POPC   D2A44560  35.363  31.431   6.764
 3403POPC   C3A44561  35.303  31.485   7.064
 3403POPC   C4A44562  35.320  31.490   7.364
 3403POPC   C1B44563  35.384  31.195   6.464
 3403POPC   C2B44564  35.369  31.179   6.764
 3403POPC   C3B44565  35.400  31.215   7.064
 3403POPC   C4B44566  35.343  31.180   7.364
 3404POPC   NC344567   8.942   1.968   5.564
 3404POPC   PO444568   8.974   2.036   5.864
 3404POPC   GL144569   8.947   1.946   6.164
 3404POPC   GL244570   9.034   1.876   6.164
 3404POPC   C1A44571   8.938   1.946   6.464
 3404POPC   D2A44572   8.942   1.941   6.764
 3404POPC   C3A44573   8.927   2.003   7.064
 3404POPC   C4A44574   8.950   2.031   7.364
 3404POPC   C1B44575   9.064   1.760   6.464
 3404POPC   C2B44576   9.042   1.777   6.764
 3404POPC   C3B44577   9.097   1.739   7.064
 3404POPC   C4B44578   9.096   1.793   7.364
 3405POPC   NC344579  43.936  21.352   5.564
 3405POPC   PO444580  43.915  21.402   5.864
 3405POPC   GL144581  43.906  21.401   6.164
 3405POPC   GL244582  43.919  21.293   6.164
 3405POPC   C1A44583  43.935  21.385   6.464
 3405POPC   D2A44584  43.848  21.399   6.764
 3405POPC   C3A44585  43.867  21.371   7.064
 3405POPC   C4A44586  43.865  21.379   7.364
 3405POPC   C1B44587  44.066  21.166   6.464
 3405POPC   C2B44588  44.054  21.238   6.764
 3405POPC   C3B44589  44.061  21.153   7.064
 3405POPC   C4B44590  44.037  21.239   7.364
 3406POPC   NC344591   5.867  43.133   5.564
 3406POPC   PO444592   5.878  43.063   5.864
 3406POPC   GL144593   5.903  43.071   6.164
 3406POPC   GL244594   5.874  43.245   6.164
 3406POPC   C1A44595   5.916  43.075   6.464
 3406POPC   D2A44596   5.845  43.107   6.764
 3406POPC   C3A44597   5.918  43.091   7.064
 3406POPC   C4A44598   5.895  43.109   7.364
 3406POPC   C1B44599   5.826  43.394   6.464
 3406POPC   C2B44600   5.899  43.346   6.764
 3406POPC   C3B44601   5.828  43.334   7.064
 3406POPC   C4B44602   5.828  43.366   7.364
 3407POPC   NC344603  25.216  43.847   5.564
 3407POPC   PO444604  25.229  43.905   5.864
 3407POPC   GL144605  25.303  43.918   6.164
 3407POPC   GL244606  25.332  43.784   6.164
 3407POPC   C1A44607  25.243  43.883   6.464
 3407POPC   D2A44608  25.289  43.878   6.764
 3407POPC   C3A44609  25.221  43.861   7.064
 3407POPC   C4A44610  25.224  43.927   7.364
 3407POPC   C1B44611  25.326  43.671   6.464
 3407POPC   C2B44612  25.281  43.641   6.764
 3407POPC   C3B44613  25.358  43.683   7.064
 3407POPC   C4B44614  25.332  43.620   7.364
 3408POPC   NC344615  26.830  20.629   5.564
 3408POPC   PO444616  26.801  20.573   5.864
 3408POPC   GL144617  26.805  20.584   6.164
 3408POPC   GL244618  26.717  20.671   6.164
 3408POPC   C1A44619  26.833  20.589   6.464
 3408POPC   D2A44620  26.815  20.601   6.764
 3408POPC   C3A44621  26.769  20.561   7.064
 3408POPC   C4A44622  26.784  20.566   7.364
 3408POPC   C1B44623  26.722  20.821   6.464
 3408POPC   C2B44624  26.690  20.837   6.764
 3408POPC   C3B44625  26.678  20.849   7.064
 3408POPC   C4B44626  26.658  20.864   7.364
 3409POPC   NC344627  23.732  23.693   5.564
 3409POPC   PO444628  23.678  23.710   5.864
 3409POPC   GL144629  23.763  23.687   6.164
 3409POPC   GL244630  23.660  23.645   6.164
 3409POPC   C1A44631  23.756  23.729   6.464
 3409POPC   D2A44632  23.742  23.721   6.764
 3409POPC   C3A44633  23.736  23.753   7.064
 3409POPC   C4A44634  23.684  23.695   7.364
 3409POPC   C1B44635  23.662  23.455   6.464
 3409POPC   C2B44636  23.648  23.474   6.764
 3409POPC   C3B44637  23.642  23.478   7.064
 3409POPC   C4B44638  23.617  23.494   7.364
 3410POPC   NC344639  28.362  42.306   5.564
 3410POPC   PO444640  28.405  42.328   5.864
 3410POPC   GL144641  28.341  42.294   6.164
 3410POPC   GL244642  28.321  42.257   6.164
 3410POPC   C1A44643  28.358  42.323   6.464
 3410POPC   D2A44644  28.371  42.347   6.764
 3410POPC   C3A44645  28.365  42.344   7.064
 3410POPC   C4A44646  28.355  42.367   7.364
 3410POPC   C1B44647  28.321  42.115   6.464
 3410POPC   C2B44648  28.310  42.069   6.764
 3410POPC   C3B44649  28.359  42.089   7.064
 3410POPC   C4B44650  28.366  42.075   7.364
 3411POPC   NC344651  12.028   5.075   5.564
 3411POPC   PO444652  12.048   5.122   5.864
 3411POPC   GL144653  12.046   5.065   6.164
 3411POPC   GL244654  11.997   5.123   6.164
 3411POPC   C1A44655  12.090   5.108   6.464
 3411POPC   D2A44656  12.116   5.107   6.764
 3411POPC   C3A44657  12.034   5.067   7.064
 3411POPC   C4A44658  12.093   5.093   7.364
 3411POPC   C1B44659  11.788   5.146   6.464
 3411POPC   C2B44660  11.799   5.182   6.764
 3411POPC   C3B44661  11.818   5.142   7.064
 3411POPC   C4B44662  11.788   5.123   7.364
 3412POPC   NC344663  20.660  27.604   5.564
 3412POPC   PO444664  20.638  27.544   5.864
 3412POPC   GL144665  20.575  27.577   6.164
 3412POPC   GL244666  20.720  27.572   6.164
 3412POPC   C1A44667  20.584  27.618   6.464
 3412POPC   D2A44668  20.597  27.552   6.764
 3412POPC   C3A44669  20.575  27.640   7.064
 3412POPC   C4A44670  20.610  27.604   7.364
 3412POPC   C1B44671  20.835  27.651   6.464
 3412POPC   C2B44672  20.875  27.669   6.764
 3412POPC   C3B44673  20.832  27.626   7.064
 3412POPC   C4B44674  20.825  27.638   7.364
 3413POPC   NC344675  36.875  15.197   5.564
 3413POPC   PO444676  36.905  15.180   5.864
 3413POPC   GL144677  36.929  15.224   6.164
 3413POPC   GL244678  37.038  15.176   6.164
 3413POPC   C1A44679  36.868  15.133   6.464
 3413POPC   D2A44680  36.922  15.197   6.764
 3413POPC   C3A44681  36.904  15.225   7.064
 3413POPC   C4A44682  36.859  15.222   7.364
 3413POPC   C1B44683  37.093  15.042   6.464
 3413POPC   C2B44684  37.124  15.052   6.764
 3413POPC   C3B44685  37.179  15.039   7.064
 3413POPC   C4B44686  37.133  15.079   7.364
 3414POPC   NC344687  27.549   3.517   5.564
 3414POPC   PO444688  27.551   3.561   5.864
 3414POPC   GL144689  27.641   3.591   6.164
 3414POPC   GL244690  27.684   3.586   6.164
 3414POPC   C1A44691  27.599   3.545   6.464
 3414POPC   D2A44692  27.626   3.563   6.764
 3414POPC   C3A44693  27.546   3.508   7.064
 3414POPC   C4A44694  27.576   3.578   7.364
 3414POPC   C1B44695  27.865   3.517   6.464
 3414POPC   C2B44696  27.813   3.582   6.764
 3414POPC   C3B44697  27.892   3.516   7.064
 3414POPC   C4B44698  27.883   3.525   7.364
 3415POPC   NC344699  32.293  10.544   5.564
 3415POPC   PO444700  32.222  10.515   5.864
 3415POPC   GL144701  32.266  10.536   6.164
 3415POPC   GL244702  32.318  10.685   6.164
 3415POPC   C1A44703  32.221  10.499   6.464
 3415POPC   D2A44704  32.294  10.523   6.764
 3415POPC   C3A44705  32.258  10.500   7.064
 3415POPC   C4A44706  32.249  10.503   7.364
 3415POPC   C1B44707  32.357  10.765   6.464
 3415POPC   C2B44708  32.308  10.793   6.764
 3415POPC   C3B44709  32.295  10.750   7.064
 3415POPC   C4B44710  32.316  10.806   7.364
 3416POPC   NC344711  22.189  14.356   5.564
 3416POPC   PO444712  22.157  14.390   5.864
 3416POPC   GL144713  22.202  14.449   6.164
 3416POPC   GL244714  22.282  14.459   6.164
 3416POPC   C1A44715  22.174  14.359   6.464
 3416POPC   D2A44716  22.126  14.432   6.764
 3416POPC   C3A44717  22.112  14.400   7.064
 3416POPC   C4A44718  22.165  14.420   7.364
 3416POPC   C1B44719  22.398  14.476   6.464
 3416POPC   C2B44720  22.380  14.455   6.764
 3416POPC   C3B44721  22.422  14.486   7.064
 3416POPC   C4B44722  22.370  14.494   7.364
 3417POPC   NC344723   0.434  11.290   5.564
 3417POPC   PO444724   0.468  11.347   5.864
 3417POPC   GL144725   0.484  11.265   6.164
 3417POPC   GL244726   0.365  11.222   6.164
 3417POPC   C1A44727   0.470  11.311   6.464
 3417POPC   D2A44728   0.418  11.350   6.764
 3417POPC   C3A44729   0.428  11.277   7.064
 3417POPC   C4A44730   0.445  11.314   7.364
 3417POPC   C1B44731   0.294  11.148   6.464
 3417POPC   C2B44732   0.316  11.070   6.764
 3417POPC   C3B44733   0.251  11.136   7.064
 3417POPC   C4B44734   0.281  11.113   7.364
 3418POPC   NC344735  15.973  28.373   5.564
 3418POPC   PO444736  15.951  28.354   5.864
 3418POPC   GL144737  15.939  28.353   6.164
 3418POPC   GL244738  15.829  28.352   6.164
 3418POPC   C1A44739  15.948  28.332   6.464
 3418POPC   D2A44740  16.000  28.417   6.764
 3418POPC   C3A44741  15.955  28.361   7.064
 3418POPC   C4A44742  15.912  28.368   7.364
 3418POPC   C1B44743  15.680  28.395   6.464
 3418POPC   C2B44744  15.725  28.399   6.764
 3418POPC   C3B44745  15.668  28.372   7.064
 3418POPC   C4B44746  15.708  28.418   7.364
 3419POPC   NC344747  19.048   0.483   5.564
 3419POPC   PO444748  19.047   0.456   5.864
 3419POPC   GL144749  19.076   0.447   6.164
 3419POPC   GL244750  18.996   0.285   6.164
 3419POPC   C1A44751  19.104   0.446   6.464
 3419POPC   D2A44752  19.017   0.476   6.764
 3419POPC   C3A44753  19.086   0.392   7.064
 3419POPC   C4A44754  19.036   0.469   7.364
 3419POPC   C1B44755  19.040   0.206   6.464
 3419POPC   C2B44756  19.027   0.188   6.764
 3419POPC   C3B44757  18.966   0.207   7.064
 3419POPC   C4B44758  19.047   0.163   7.364
 3420POPC   NC344759   4.282  37.692   5.564
 3420POPC   PO444760   4.321  37.697   5.864
 3420POPC   GL144761   4.286  37.676   6.164
 3420POPC   GL244762   4.431  37.615   6.164
 3420POPC   C1A44763   4.322  37.670   6.464
 3420POPC   D2A44764   4.329  37.637   6.764
 3420POPC   C3A44765   4.295  37.647   7.064
 3420POPC   C4A44766   4.291  37.675   7.364
 3420POPC   C1B44767   4.485  37.501   6.464
 3420POPC   C2B44768   4.451  37.444   6.764
 3420POPC   C3B44769   4.493  37.498   7.064
 3420POPC   C4B44770   4.449  37.451   7.364
 3421POPC   NC344771  30.707  17.485   5.564
 3421POPC   PO444772  30.717  17.528   5.864
 3421POPC   GL144773  30.685  17.485   6.164
 3421POPC   GL244774  30.614  17.614   6.164
 3421POPC   C1A44775  30.672  17.477   6.464
 3421POPC   D2A44776  30.740  17.495   6.764
 3421POPC   C3A44777  30.660  17.476   7.064
 3421POPC   C4A44778  30.673  17.461   7.364
 3421POPC   C1B44779  30.582  17.680   6.464
 3421POPC   C2B44780  30.615  17.744   6.764
 3421POPC   C3B44781  30.541  17.701   7.064
 3421POPC   C4B44782  30.527  17.685   7.364
 3422POPC   NC344783  22.122  43.072   5.564
 3422POPC   PO444784  22.177  43.146   5.864
 3422POPC   GL144785  22.127  43.138   6.164
 3422POPC   GL244786  22.106  43.219   6.164
 3422POPC   C1A44787  22.126  43.122   6.464
 3422POPC   D2A44788  22.178  43.136   6.764
 3422POPC   C3A44789  22.184  43.125   7.064
 3422POPC   C4A44790  22.179  43.154   7.364
 3422POPC   C1B44791  21.953  43.235   6.464
 3422POPC   C2B44792  21.938  43.248   6.764
 3422POPC   C3B44793  22.006  43.297   7.064
 3422POPC   C4B44794  21.951  43.272   7.364
 3423POPC   NC344795  15.165  43.884   5.564
 3423POPC   PO444796  15.191  43.857   5.864
 3423POPC   GL144797  15.190  43.860   6.164
 3423POPC   GL244798  15.312  43.946   6.164
 3423POPC   C1A44799  15.211  43.861   6.464
 3423POPC   D2A44800  15.142  43.858   6.764
 3423POPC   C3A44801  15.165  43.923   7.064
 3423POPC   C4A44802  15.152  43.868   7.364
 3423POPC   C1B44803  15.322  44.077   6.464
 3423POPC   C2B44804  15.406  44.025   6.764
 3423POPC   C3B44805  15.377  44.070   7.064
 3423POPC   C4B44806  15.376  44.008   7.364
 3424POPC   NC344807  12.895  44.644   5.564
 3424POPC   PO444808  12.859  44.623   5.864
 3424POPC   GL144809  12.868  44.615   6.164
 3424POPC   GL244810  12.869  44.513   6.164
 3424POPC   C1A44811  12.867  44.619   6.464
 3424POPC   D2A44812  12.878  44.695   6.764
 3424POPC   C3A44813  12.886  44.615   7.064
 3424POPC   C4A44814  12.828  44.700   7.364
 3424POPC   C1B44815  12.889  44.422   6.464
 3424POPC   C2B44816  12.952  44.415   6.764
 3424POPC   C3B44817  12.949  44.379   7.064
 3424POPC   C4B44818  12.898  44.377   7.364
 3425POPC   NC344819  20.596   8.167   5.564
 3425POPC   PO444820  20.607   8.169   5.864
 3425POPC   GL144821  20.611   8.237   6.164
 3425POPC   GL244822  20.511   8.292   6.164
 3425POPC   C1A44823  20.572   8.176   6.464
 3425POPC   D2A44824  20.591   8.199   6.764
 3425POPC   C3A44825  20.569   8.190   7.064
 3425POPC   C4A44826  20.586   8.227   7.364
 3425POPC   C1B44827  20.496   8.350   6.464
 3425POPC   C2B44828  20.422   8.344   6.764
 3425POPC   C3B44829  20.412   8.438   7.064
 3425POPC   C4B44830  20.411   8.387   7.364
 3426POPC   NC344831  19.024  34.536   5.564
 3426POPC   PO444832  19.027  34.579   5.864
 3426POPC   GL144833  19.072  34.608   6.164
 3426POPC   GL244834  19.222  34.625   6.164
 3426POPC   C1A44835  19.069  34.613   6.464
 3426POPC   D2A44836  19.106  34.583   6.764
 3426POPC   C3A44837  19.043  34.543   7.064
 3426POPC   C4A44838  19.046  34.560   7.364
 3426POPC   C1B44839  19.290  34.613   6.464
 3426POPC   C2B44840  19.310  34.687   6.764
 3426POPC   C3B44841  19.275  34.681   7.064
 3426POPC   C4B44842  19.257  34.681   7.364
 3427POPC   NC344843  33.020  41.561   5.564
 3427POPC   PO444844  32.997  41.578   5.864
 3427POPC   GL144845  32.984  41.606   6.164
 3427POPC   GL244846  33.166  41.491   6.164
 3427POPC   C1A44847  32.997  41.538   6.464
 3427POPC   D2A44848  33.009  41.565   6.764
 3427POPC   C3A44849  33.023  41.552   7.064
 3427POPC   C4A44850  33.034  41.547   7.364
 3427POPC   C1B44851  33.226  41.429   6.464
 3427POPC   C2B44852  33.244  41.428   6.764
 3427POPC   C3B44853  33.164  41.423   7.064
 3427POPC   C4B44854  33.220  41.356   7.364
 3428POPC   NC344855   1.212  17.510   5.564
 3428POPC   PO444856   1.220  17.511   5.864
 3428POPC   GL144857   1.175  17.556   6.164
 3428POPC   GL244858   1.351  17.453   6.164
 3428POPC   C1A44859   1.261  17.481   6.464
 3428POPC   D2A44860   1.201  17.541   6.764
 3428POPC   C3A44861   1.251  17.500   7.064
 3428POPC   C4A44862   1.186  17.507   7.364
 3428POPC   C1B44863   1.408  17.431   6.464
 3428POPC   C2B44864   1.484  17.389   6.764
 3428POPC   C3B44865   1.400  17.356   7.064
 3428POPC   C4B44866   1.440  17.442   7.364
 3429POPC   NC344867  26.078  22.127   5.564
 3429POPC   PO444868  25.999  22.162   5.864
 3429POPC   GL144869  25.999  22.157   6.164
 3429POPC   GL244870  25.971  22.239   6.164
 3429POPC   C1A44871  25.999  22.204   6.464
 3429POPC   D2A44872  26.069  22.182   6.764
 3429POPC   C3A44873  26.050  22.181   7.064
 3429POPC   C4A44874  26.011  22.196   7.364
 3429POPC   C1B44875  25.922  22.425   6.464
 3429POPC   C2B44876  25.956  22.386   6.764
 3429POPC   C3B44877  25.995  22.361   7.064
 3429POPC   C4B44878  25.958  22.383   7.364
 3430POPC   NC344879  32.984   5.848   5.564
 3430POPC   PO444880  32.997   5.880   5.864
 3430POPC   GL144881  33.051   5.856   6.164
 3430POPC   GL244882  33.123   5.792   6.164
 3430POPC   C1A44883  32.997   5.861   6.464
 3430POPC   D2A44884  32.984   5.836   6.764
 3430POPC   C3A44885  33.058   5.832   7.064
 3430POPC   C4A44886  33.044   5.869   7.364
 3430POPC   C1B44887  33.111   5.690   6.464
 3430POPC   C2B44888  33.130   5.659   6.764
 3430POPC   C3B44889  33.141   5.694   7.064
 3430POPC   C4B44890  33.186   5.632   7.364
 3431POPC   NC344891  20.608  44.674   5.564
 3431POPC   PO444892  20.620  44.677   5.864
 3431POPC   GL144893  20.616  44.620   6.164
 3431POPC   GL244894  20.713  44.595   6.164
 3431POPC   C1A44895  20.573  44.634   6.464
 3431POPC   D2A44896  20.567  44.622   6.764
 3431POPC   C3A44897  20.586  44.691   7.064
 3431POPC   C4A44898  20.636  44.696   7.364
 3431POPC   C1B44899  20.813  44.585   6.464
 3431POPC   C2B44900  20.859  44.614   6.764
 3431POPC   C3B44901  20.868  44.622   7.064
 3431POPC   C4B44902  20.862  44.629   7.364
 3432POPC   NC344903  32.262  41.558   5.564
 3432POPC   PO444904  32.251  41.536   5.864
 3432POPC   GL144905  32.239  41.525   6.164
 3432POPC   GL244906  32.307  41.430   6.164
 3432POPC   C1A44907  32.289  41.535   6.464
 3432POPC   D2A44908  32.218  41.532   6.764
 3432POPC   C3A44909  32.252  41.516   7.064
 3432POPC   C4A44910  32.234  41.541   7.364
 3432POPC   C1B44911  32.267  41.339   6.464
 3432POPC   C2B44912  32.257  41.352   6.764
 3432POPC   C3B44913  32.237  41.330   7.064
 3432POPC   C4B44914  32.262  41.262   7.364
 3433POPC   NC344915  32.250  42.322   5.564
 3433POPC   PO444916  32.215  42.360   5.864
 3433POPC   GL144917  32.208  42.290   6.164
 3433POPC   GL244918  32.347  42.383   6.164
 3433POPC   C1A44919  32.238  42.304   6.464
 3433POPC   D2A44920  32.200  42.315   6.764
 3433POPC   C3A44921  32.216  42.374   7.064
 3433POPC   C4A44922  32.251  42.368   7.364
 3433POPC   C1B44923  32.449  42.421   6.464
 3433POPC   C2B44924  32.475  42.489   6.764
 3433POPC   C3B44925  32.457  42.423   7.064
 3433POPC   C4B44926  32.441  42.437   7.364
 3434POPC   NC344927  31.484  26.835   5.564
 3434POPC   PO444928  31.479  26.817   5.864
 3434POPC   GL144929  31.452  26.770   6.164
 3434POPC   GL244930  31.502  26.720   6.164
 3434POPC   C1A44931  31.462  26.795   6.464
 3434POPC   D2A44932  31.435  26.804   6.764
 3434POPC   C3A44933  31.442  26.794   7.064
 3434POPC   C4A44934  31.481  26.846   7.364
 3434POPC   C1B44935  31.467  26.546   6.464
 3434POPC   C2B44936  31.441  26.541   6.764
 3434POPC   C3B44937  31.459  26.588   7.064
 3434POPC   C4B44938  31.455  26.550   7.364
 3435POPC   NC344939  37.729  32.274   5.564
 3435POPC   PO444940  37.685  32.241   5.864
 3435POPC   GL144941  37.641  32.205   6.164
 3435POPC   GL244942  37.558  32.152   6.164
 3435POPC   C1A44943  37.644  32.285   6.464
 3435POPC   D2A44944  37.702  32.281   6.764
 3435POPC   C3A44945  37.660  32.296   7.064
 3435POPC   C4A44946  37.643  32.223   7.364
 3435POPC   C1B44947  37.483  32.124   6.464
 3435POPC   C2B44948  37.487  32.154   6.764
 3435POPC   C3B44949  37.498  32.116   7.064
 3435POPC   C4B44950  37.489  32.089   7.364
 3436POPC   NC344951  38.455  19.839   5.564
 3436POPC   PO444952  38.438  19.882   5.864
 3436POPC   GL144953  38.488  19.792   6.164
 3436POPC   GL244954  38.443  19.703   6.164
 3436POPC   C1A44955  38.452  19.818   6.464
 3436POPC   D2A44956  38.444  19.847   6.764
 3436POPC   C3A44957  38.452  19.791   7.064
 3436POPC   C4A44958  38.408  19.853   7.364
 3436POPC   C1B44959  38.477  19.616   6.464
 3436POPC   C2B44960  38.475  19.566   6.764
 3436POPC   C3B44961  38.491  19.632   7.064
 3436POPC   C4B44962  38.479  19.626   7.364
 3437POPC   NC344963  27.622  36.103   5.564
 3437POPC   PO444964  27.617  36.147   5.864
 3437POPC   GL144965  27.569  36.114   6.164
 3437POPC   GL244966  27.440  36.052   6.164
 3437POPC   C1A44967  27.631  36.171   6.464
 3437POPC   D2A44968  27.595  36.096   6.764
 3437POPC   C3A44969  27.638  36.162   7.064
 3437POPC   C4A44970  27.592  36.160   7.364
 3437POPC   C1B44971  27.384  36.029   6.464
 3437POPC   C2B44972  27.336  36.043   6.764
 3437POPC   C3B44973  27.377  36.066   7.064
 3437POPC   C4B44974  27.322  36.102   7.364
 3438POPC   NC344975  15.190  38.457   5.564
 3438POPC   PO444976  15.165  38.437   5.864
 3438POPC   GL144977  15.196  38.425   6.164
 3438POPC   GL244978  15.197  38.387   6.164
 3438POPC   C1A44979  15.199  38.496   6.464
 3438POPC   D2A44980  15.202  38.468   6.764
 3438POPC   C3A44981  15.149  38.504   7.064
 3438POPC   C4A44982  15.184  38.414   7.364
 3438POPC   C1B44983  15.323  38.267   6.464
 3438POPC   C2B44984  15.271  38.213   6.764
 3438POPC   C3B44985  15.251  38.227   7.064
 3438POPC   C4B44986  15.306  38.204   7.364
 3439POPC   NC344987  32.206   1.984   5.564
 3439POPC   PO444988  32.265   2.024   5.864
 3439POPC   GL144989  32.244   1.998   6.164
 3439POPC   GL244990  32.337   1.917   6.164
 3439POPC   C1A44991  32.277   2.019   6.464
 3439POPC   D2A44992  32.275   2.037   6.764
 3439POPC   C3A44993  32.238   2.005   7.064
 3439POPC   C4A44994  32.241   2.032   7.364
 3439POPC   C1B44995  32.513   1.872   6.464
 3439POPC   C2B44996  32.483   1.877   6.764
 3439POPC   C3B44997  32.480   1.868   7.064
 3439POPC   C4B44998  32.493   1.859   7.364
 3440POPC   NC344999  43.885  25.238   5.564
 3440POPC   PO445000  43.847  25.265   5.864
 3440POPC   GL145001  43.922  25.243   6.164
 3440POPC   GL245002  43.799  25.223   6.164
 3440POPC   C1A45003  43.892  25.259   6.464
 3440POPC   D2A45004  43.843  25.264   6.764
 3440POPC   C3A45005  43.837  25.229   7.064
 3440POPC   C4A45006  43.892  25.283   7.364
 3440POPC   C1B45007  43.611  25.280   6.464
 3440POPC   C2B45008  43.641  25.235   6.764
 3440POPC   C3B45009  43.674  25.190   7.064
 3440POPC   C4B45010  43.667  25.225   7.364
 3441POPC   NC345011  29.185  43.074   5.564
 3441POPC   PO445012  29.106  43.062   5.864
 3441POPC   GL145013  29.111  43.064   6.164
 3441POPC   GL245014  29.293  43.043   6.164
 3441POPC   C1A45015  29.168  43.072   6.464
 3441POPC   D2A45016  29.125  43.143   6.764
 3441POPC   C3A45017  29.139  43.076   7.064
 3441POPC   C4A45018  29.182  43.144   7.364
 3441POPC   C1B45019  29.330  42.996   6.464
 3441POPC   C2B45020  29.319  42.940   6.764
 3441POPC   C3B45021  29.390  42.974   7.064
 3441POPC   C4B45022  29.408  42.980   7.364
 3442POPC   NC345023   5.074  36.951   5.564
 3442POPC   PO445024   5.062  36.914   5.864
 3442POPC   GL145025   5.052  36.943   6.164
 3442POPC   GL245026   5.031  36.970   6.164
 3442POPC   C1A45027   5.139  36.951   6.464
 3442POPC   D2A45028   5.056  36.929   6.764
 3442POPC   C3A45029   5.124  36.884   7.064
 3442POPC   C4A45030   5.107  36.913   7.364
 3442POPC   C1B45031   4.932  37.054   6.464
 3442POPC   C2B45032   4.862  37.084   6.764
 3442POPC   C3B45033   4.923  37.047   7.064
 3442POPC   C4B45034   4.915  37.058   7.364
 3443POPC   NC345035   2.787  40.805   5.564
 3443POPC   PO445036   2.737  40.790   5.864
 3443POPC   GL145037   2.731  40.754   6.164
 3443POPC   GL245038   2.812  40.889   6.164
 3443POPC   C1A45039   2.774  40.816   6.464
 3443POPC   D2A45040   2.761  40.752   6.764
 3443POPC   C3A45041   2.786  40.819   7.064
 3443POPC   C4A45042   2.766  40.832   7.364
 3443POPC   C1B45043   2.770  41.015   6.464
 3443POPC   C2B45044   2.788  41.022   6.764
 3443POPC   C3B45045   2.786  41.049   7.064
 3443POPC   C4B45046   2.840  40.988   7.364
 3444POPC   NC345047  13.660   4.269   5.564
 3444POPC   PO445048  13.599   4.365   5.864
 3444POPC   GL145049  13.673   4.276   6.164
 3444POPC   GL245050  13.597   4.192   6.164
 3444POPC   C1A45051  13.582   4.355   6.464
 3444POPC   D2A45052  13.663   4.321   6.764
 3444POPC   C3A45053  13.630   4.338   7.064
 3444POPC   C4A45054  13.633   4.310   7.364
 3444POPC   C1B45055  13.475   4.082   6.464
 3444POPC   C2B45056  13.512   4.072   6.764
 3444POPC   C3B45057  13.485   4.131   7.064
 3444POPC   C4B45058  13.510   4.115   7.364
 3445POPC   NC345059   8.189  36.951   5.564
 3445POPC   PO445060   8.210  36.903   5.864
 3445POPC   GL145061   8.180  36.911   6.164
 3445POPC   GL245062   8.129  37.012   6.164
 3445POPC   C1A45063   8.148  36.923   6.464
 3445POPC   D2A45064   8.190  36.882   6.764
 3445POPC   C3A45065   8.233  36.925   7.064
 3445POPC   C4A45066   8.161  36.951   7.364
 3445POPC   C1B45067   7.940  37.076   6.464
 3445POPC   C2B45068   8.027  37.014   6.764
 3445POPC   C3B45069   7.964  37.063   7.064
 3445POPC   C4B45070   8.005  37.044   7.364
 3446POPC   NC345071  33.065  36.120   5.564
 3446POPC   PO445072  32.988  36.130   5.864
 3446POPC   GL145073  33.054  36.168   6.164
 3446POPC   GL245074  32.950  36.226   6.164
 3446POPC   C1A45075  32.982  36.155   6.464
 3446POPC   D2A45076  33.018  36.131   6.764
 3446POPC   C3A45077  33.050  36.159   7.064
 3446POPC   C4A45078  33.024  36.094   7.364
 3446POPC   C1B45079  32.929  36.306   6.464
 3446POPC   C2B45080  32.865  36.312   6.764
 3446POPC   C3B45081  32.948  36.321   7.064
 3446POPC   C4B45082  32.890  36.366   7.364
 3447POPC   NC345083   8.229  11.323   5.564
 3447POPC   PO445084   8.171  11.346   5.864
 3447POPC   GL145085   8.198  11.327   6.164
 3447POPC   GL245086   8.040  11.209   6.164
 3447POPC   C1A45087   8.221  11.312   6.464
 3447POPC   D2A45088   8.157  11.275   6.764
 3447POPC   C3A45089   8.227  11.290   7.064
 3447POPC   C4A45090   8.198  11.314   7.364
 3447POPC   C1B45091   7.956  11.169   6.464
 3447POPC   C2B45092   7.996  11.196   6.764
 3447POPC   C3B45093   7.988  11.209   7.064
 3447POPC   C4B45094   8.013  11.188   7.364
 3448POPC   NC345095  14.354  13.626   5.564
 3448POPC   PO445096  14.385  13.603   5.864
 3448POPC   GL145097  14.367  13.671   6.164
 3448POPC   GL245098  14.315  13.655   6.164
 3448POPC   C1A45099  14.359  13.663   6.464
 3448POPC   D2A45100  14.380  13.613   6.764
 3448POPC   C3A45101  14.448  13.674   7.064
 3448POPC   C4A45102  14.355  13.650   7.364
 3448POPC   C1B45103  14.153  13.659   6.464
 3448POPC   C2B45104  14.120  13.656   6.764
 3448POPC   C3B45105  14.188  13.590   7.064
 3448POPC   C4B45106  14.111  13.622   7.364
 3449POPC   NC345107  20.620   5.085   5.564
 3449POPC   PO445108  20.601   5.045   5.864
 3449POPC   GL145109  20.644   5.052   6.164
 3449POPC   GL245110  20.513   5.145   6.164
 3449POPC   C1A45111  20.577   5.075   6.464
 3449POPC   D2A45112  20.632   5.130   6.764
 3449POPC   C3A45113  20.638   5.093   7.064
 3449POPC   C4A45114  20.584   5.088   7.364
 3449POPC   C1B45115  20.446   5.240   6.464
 3449POPC   C2B45116  20.426   5.226   6.764
 3449POPC   C3B45117  20.458   5.281   7.064
 3449POPC   C4B45118  20.435   5.208   7.364
 3450POPC   NC345119  40.044  19.048   5.564
 3450POPC   PO445120  40.048  19.009   5.864
 3450POPC   GL145121  39.965  19.014   6.164
 3450POPC   GL245122  40.095  19.052   6.164
 3450POPC   C1A45123  39.975  19.017   6.464
 3450POPC   D2A45124  40.023  19.040   6.764
 3450POPC   C3A45125  40.041  19.085   7.064
 3450POPC   C4A45126  40.042  19.043   7.364
 3450POPC   C1B45127  40.257  18.963   6.464
 3450POPC   C2B45128  40.234  18.996   6.764
 3450POPC   C3B45129  40.276  19.010   7.064
 3450POPC   C4B45130  40.223  18.945   7.364
 3451POPC   NC345131  11.296   2.795   5.564
 3451POPC   PO445132  11.332   2.759   5.864
 3451POPC   GL145133  11.338   2.737   6.164
 3451POPC   GL245134  11.368   2.645   6.164
 3451POPC   C1A45135  11.260   2.728   6.464
 3451POPC   D2A45136  11.273   2.782   6.764
 3451POPC   C3A45137  11.268   2.787   7.064
 3451POPC   C4A45138  11.348   2.741   7.364
 3451POPC   C1B45139  11.463   2.566   6.464
 3451POPC   C2B45140  11.466   2.573   6.764
 3451POPC   C3B45141  11.453   2.556   7.064
 3451POPC   C4B45142  11.413   2.581   7.364
 3452POPC   NC345143  39.961  34.605   5.564
 3452POPC   PO445144  39.971  34.588   5.864
 3452POPC   GL145145  39.967  34.620   6.164
 3452POPC   GL245146  39.979  34.465   6.164
 3452POPC   C1A45147  40.057  34.572   6.464
 3452POPC   D2A45148  40.012  34.531   6.764
 3452POPC   C3A45149  39.972  34.605   7.064
 3452POPC   C4A45150  40.027  34.548   7.364
 3452POPC   C1B45151  39.881  34.413   6.464
 3452POPC   C2B45152  39.821  34.392   6.764
 3452POPC   C3B45153  39.822  34.348   7.064
 3452POPC   C4B45154  39.828  34.400   7.364
 3453POPC   NC345155  39.984  15.935   5.564
 3453POPC   PO445156  40.015  15.974   5.864
 3453POPC   GL145157  40.039  15.940   6.164
 3453POPC   GL245158  40.174  16.010   6.164
 3453POPC   C1A45159  39.973  15.972   6.464
 3453POPC   D2A45160  40.055  16.002   6.764
 3453POPC   C3A45161  39.987  15.910   7.064
 3453POPC   C4A45162  39.980  15.929   7.364
 3453POPC   C1B45163  40.213  16.049   6.464
 3453POPC   C2B45164  40.255  16.012   6.764
 3453POPC   C3B45165  40.284  16.038   7.064
 3453POPC   C4B45166  40.265  16.001   7.364
 3454POPC   NC345167   5.061  39.229   5.564
 3454POPC   PO445168   5.094  39.239   5.864
 3454POPC   GL145169   5.104  39.234   6.164
 3454POPC   GL245170   5.095  39.123   6.164
 3454POPC   C1A45171   5.066  39.194   6.464
 3454POPC   D2A45172   5.143  39.241   6.764
 3454POPC   C3A45173   5.070  39.219   7.064
 3454POPC   C4A45174   5.104  39.186   7.364
 3454POPC   C1B45175   5.136  38.984   6.464
 3454POPC   C2B45176   5.182  39.020   6.764
 3454POPC   C3B45177   5.139  39.031   7.064
 3454POPC   C4B45178   5.182  38.957   7.364
 3455POPC   NC345179   6.607  15.954   5.564
 3455POPC   PO445180   6.637  15.979   5.864
 3455POPC   GL145181   6.645  15.992   6.164
 3455POPC   GL245182   6.527  15.902   6.164
 3455POPC   C1A45183   6.643  15.956   6.464
 3455POPC   D2A45184   6.609  15.910   6.764
 3455POPC   C3A45185   6.658  15.935   7.064
 3455POPC   C4A45186   6.678  15.922   7.364
 3455POPC   C1B45187   6.472  15.790   6.464
 3455POPC   C2B45188   6.506  15.741   6.764
 3455POPC   C3B45189   6.461  15.756   7.064
 3455POPC   C4B45190   6.455  15.755   7.364
 3456POPC   NC345191  39.984   9.735   5.564
 3456POPC   PO445192  40.002   9.792   5.864
 3456POPC   GL145193  40.054   9.700   6.164
 3456POPC   GL245194  39.889   9.780   6.164
 3456POPC   C1A45195  40.053   9.702   6.464
 3456POPC   D2A45196  40.031   9.770   6.764
 3456POPC   C3A45197  39.978   9.795   7.064
 3456POPC   C4A45198  40.012   9.774   7.364
 3456POPC   C1B45199  39.791   9.803   6.464
 3456POPC   C2B45200  39.790   9.767   6.764
 3456POPC   C3B45201  39.778   9.727   7.064
 3456POPC   C4B45202  39.717   9.805   7.364
 3457POPC   NC345203  30.720   0.484   5.564
 3457POPC   PO445204  30.686   0.476   5.864
 3457POPC   GL145205  30.699   0.470   6.164
 3457POPC   GL245206  30.786   0.485   6.164
 3457POPC   C1A45207  30.718   0.423   6.464
 3457POPC   D2A45208  30.651   0.419   6.764
 3457POPC   C3A45209  30.724   0.472   7.064
 3457POPC   C4A45210  30.678   0.391   7.364
 3457POPC   C1B45211  30.919   0.594   6.464
 3457POPC   C2B45212  30.932   0.563   6.764
 3457POPC   C3B45213  30.877   0.610   7.064
 3457POPC   C4B45214  30.956   0.589   7.364
 3458POPC   NC345215  41.528  27.558   5.564
 3458POPC   PO445216  41.572  27.599   5.864
 3458POPC   GL145217  41.554  27.568   6.164
 3458POPC   GL245218  41.452  27.717   6.164
 3458POPC   C1A45219  41.574  27.621   6.464
 3458POPC   D2A45220  41.540  27.602   6.764
 3458POPC   C3A45221  41.558  27.622   7.064
 3458POPC   C4A45222  41.524  27.579   7.364
 3458POPC   C1B45223  41.339  27.726   6.464
 3458POPC   C2B45224  41.390  27.727   6.764
 3458POPC   C3B45225  41.418  27.729   7.064
 3458POPC   C4B45226  41.397  27.776   7.364
 3459POPC   NC345227  42.340   1.962   5.564
 3459POPC   PO445228  42.316   2.028   5.864
 3459POPC   GL145229  42.310   1.990   6.164
 3459POPC   GL245230  42.267   2.114   6.164
 3459POPC   C1A45231  42.288   1.981   6.464
 3459POPC   D2A45232  42.338   1.970   6.764
 3459POPC   C3A45233  42.339   2.007   7.064
 3459POPC   C4A45234  42.349   2.016   7.364
 3459POPC   C1B45235  42.238   2.277   6.464
 3459POPC   C2B45236  42.317   2.255   6.764
 3459POPC   C3B45237  42.298   2.189   7.064
 3459POPC   C4B45238  42.329   2.246   7.364
 3460POPC   NC345239  18.260  22.892   5.564
 3460POPC   PO445240  18.310  22.966   5.864
 3460POPC   GL145241  18.242  22.889   6.164
 3460POPC   GL245242  18.444  22.847   6.164
 3460POPC   C1A45243  18.297  22.968   6.464
 3460POPC   D2A45244  18.311  22.929   6.764
 3460POPC   C3A45245  18.286  22.956   7.064
 3460POPC   C4A45246  18.276  22.971   7.364
 3460POPC   C1B45247  18.552  22.818   6.464
 3460POPC   C2B45248  18.483  22.873   6.764
 3460POPC   C3B45249  18.514  22.838   7.064
 3460POPC   C4B45250  18.547  22.827   7.364
 3461POPC   NC345251  44.615  33.794   5.564
 3461POPC   PO445252  44.702  33.777   5.864
 3461POPC   GL145253  44.665  33.775   6.164
 3461POPC   GL245254  44.762  33.864   6.164
 3461POPC   C1A45255  44.692  33.844   6.464
 3461POPC   D2A45256  44.672  33.837   6.764
 3461POPC   C3A45257  44.653  33.840   7.064
 3461POPC   C4A45258  44.668  33.814   7.364
 3461POPC   C1B45259  44.777  34.061   6.464
 3461POPC   C2B45260  44.721  33.989   6.764
 3461POPC   C3B45261  44.800  34.005   7.064
 3461POPC   C4B45262  44.726  34.066   7.364
 3462POPC   NC345263  39.270   4.297   5.564
 3462POPC   PO445264  39.236   4.295   5.864
 3462POPC   GL145265  39.258   4.308   6.164
 3462POPC   GL245266  39.234   4.235   6.164
 3462POPC   C1A45267  39.182   4.282   6.464
 3462POPC   D2A45268  39.228   4.315   6.764
 3462POPC   C3A45269  39.237   4.281   7.064
 3462POPC   C4A45270  39.270   4.306   7.364
 3462POPC   C1B45271  39.330   4.093   6.464
 3462POPC   C2B45272  39.331   4.092   6.764
 3462POPC   C3B45273  39.286   4.060   7.064
 3462POPC   C4B45274  39.351   4.125   7.364
 3463POPC   NC345275  40.030  26.057   5.564
 3463POPC   PO445276  39.994  26.048   5.864
 3463POPC   GL145277  39.983  26.057   6.164
 3463POPC   GL245278  40.090  26.003   6.164
 3463POPC   C1A45279  39.990  26.039   6.464
 3463POPC   D2A45280  40.054  26.033   6.764
 3463POPC   C3A45281  39.965  26.069   7.064
 3463POPC   C4A45282  40.037  26.048   7.364
 3463POPC   C1B45283  40.224  25.951   6.464
 3463POPC   C2B45284  40.253  25.973   6.764
 3463POPC   C3B45285  40.241  25.967   7.064
 3463POPC   C4B45286  40.220  25.975   7.364
 3464POPC   NC345287  22.910  29.945   5.564
 3464POPC   PO445288  22.894  29.949   5.864
 3464POPC   GL145289  22.957  29.926   6.164
 3464POPC   GL245290  22.906  30.069   6.164
 3464POPC   C1A45291  22.947  29.904   6.464
 3464POPC   D2A45292  22.979  29.939   6.764
 3464POPC   C3A45293  22.942  29.921   7.064
 3464POPC   C4A45294  22.904  29.898   7.364
 3464POPC   C1B45295  22.822  30.153   6.464
 3464POPC   C2B45296  22.822  30.130   6.764
 3464POPC   C3B45297  22.828  30.157   7.064
 3464POPC   C4B45298  22.774  30.105   7.364
 3465POPC   NC345299  43.915  32.232   5.564
 3465POPC   PO445300  43.904  32.259   5.864
 3465POPC   GL145301  43.910  32.238   6.164
 3465POPC   GL245302  43.891  32.094   6.164
 3465POPC   C1A45303  43.837  32.273   6.464
 3465POPC   D2A45304  43.855  32.245   6.764
 3465POPC   C3A45305  43.884  32.217   7.064
 3465POPC   C4A45306  43.844  32.245   7.364
 3465POPC   C1B45307  43.970  32.034   6.464
 3465POPC   C2B45308  43.966  32.013   6.764
 3465POPC   C3B45309  43.949  32.037   7.064
 3465POPC   C4B45310  43.906  31.999   7.364
 3466POPC   NC345311   5.893  22.117   5.564
 3466POPC   PO445312   5.914  22.179   5.864
 3466POPC   GL145313   5.888  22.151   6.164
 3466POPC   GL245314   5.804  22.069   6.164
 3466POPC   C1A45315   5.915  22.130   6.464
 3466POPC   D2A45316   5.895  22.114   6.764
 3466POPC   C3A45317   5.898  22.203   7.064
 3466POPC   C4A45318   5.901  22.141   7.364
 3466POPC   C1B45319   5.782  21.982   6.464
 3466POPC   C2B45320   5.742  21.912   6.764
 3466POPC   C3B45321   5.755  21.959   7.064
 3466POPC   C4B45322   5.764  21.965   7.364
 3467POPC   NC345323  29.970   0.463   5.564
 3467POPC   PO445324  29.931   0.482   5.864
 3467POPC   GL145325  29.895   0.458   6.164
 3467POPC   GL245326  29.835   0.336   6.164
 3467POPC   C1A45327  29.936   0.451   6.464
 3467POPC   D2A45328  29.961   0.476   6.764
 3467POPC   C3A45329  29.926   0.485   7.064
 3467POPC   C4A45330  29.970   0.463   7.364
 3467POPC   C1B45331  29.783   0.216   6.464
 3467POPC   C2B45332  29.783   0.226   6.764
 3467POPC   C3B45333  29.789   0.217   7.064
 3467POPC   C4B45334  29.725   0.247   7.364
 3468POPC   NC345335  39.260  33.838   5.564
 3468POPC   PO445336  39.203  33.756   5.864
 3468POPC   GL145337  39.264  33.818   6.164
 3468POPC   GL245338  39.323  33.835   6.164
 3468POPC   C1A45339  39.194  33.791   6.464
 3468POPC   D2A45340  39.195  33.828   6.764
 3468POPC   C3A45341  39.243  33.782   7.064
 3468POPC   C4A45342  39.277  33.796   7.364
 3468POPC   C1B45343  39.450  33.833   6.464
 3468POPC   C2B45344  39.473  33.815   6.764
 3468POPC   C3B45345  39.525  33.810   7.064
 3468POPC   C4B45346  39.453  33.792   7.364
 3469POPC   NC345347   9.785   9.775   5.564
 3469POPC   PO445348   9.734   9.782   5.864
 3469POPC   GL145349   9.751   9.743   6.164
 3469POPC   GL245350   9.756   9.836   6.164
 3469POPC   C1A45351   9.746   9.785   6.464
 3469POPC   D2A45352   9.782   9.787   6.764
 3469POPC   C3A45353   9.751   9.763   7.064
 3469POPC   C4A45354   9.783   9.753   7.364
 3469POPC   C1B45355   9.706   9.992   6.464
 3469POPC   C2B45356   9.752   9.987   6.764
 3469POPC   C3B45357   9.753   9.964   7.064
 3469POPC   C4B45358   9.743  10.020   7.364
 3470POPC   NC345359  21.369   2.759   5.564
 3470POPC   PO445360  21.371   2.735   5.864
 3470POPC   GL145361  21.352   2.718   6.164
 3470POPC   GL245362  21.368   2.628   6.164
 3470POPC   C1A45363  21.406   2.771   6.464
 3470POPC   D2A45364  21.411   2.803   6.764
 3470POPC   C3A45365  21.396   2.749   7.064
 3470POPC   C4A45366  21.405   2.789   7.364
 3470POPC   C1B45367  21.283   2.586   6.464
 3470POPC   C2B45368  21.310   2.506   6.764
 3470POPC   C3B45369  21.242   2.516   7.064
 3470POPC   C4B45370  21.241   2.490   7.364
 3471POPC   NC345371  15.175   1.184   5.564
 3471POPC   PO445372  15.147   1.199   5.864
 3471POPC   GL145373  15.145   1.243   6.164
 3471POPC   GL245374  15.308   1.184   6.164
 3471POPC   C1A45375  15.130   1.179   6.464
 3471POPC   D2A45376  15.213   1.181   6.764
 3471POPC   C3A45377  15.212   1.168   7.064
 3471POPC   C4A45378  15.165   1.237   7.364
 3471POPC   C1B45379  15.352   1.058   6.464
 3471POPC   C2B45380  15.448   1.050   6.764
 3471POPC   C3B45381  15.412   1.107   7.064
 3471POPC   C4B45382  15.426   1.136   7.364
 3472POPC   NC345383  29.114   8.212   5.564
 3472POPC   PO445384  29.167   8.201   5.864
 3472POPC   GL145385  29.184   8.207   6.164
 3472POPC   GL245386  29.133   8.129   6.164
 3472POPC   C1A45387  29.166   8.234   6.464
 3472POPC   D2A45388  29.120   8.160   6.764
 3472POPC   C3A45389  29.119   8.169   7.064
 3472POPC   C4A45390  29.148   8.190   7.364
 3472POPC   C1B45391  29.056   7.989   6.464
 3472POPC   C2B45392  29.095   7.993   6.764
 3472POPC   C3B45393  29.033   7.966   7.064
 3472POPC   C4B45394  29.035   7.931   7.364
 3473POPC   NC345395  32.986  32.284   5.564
 3473POPC   PO445396  32.981  32.240   5.864
 3473POPC   GL145397  33.028  32.271   6.164
 3473POPC   GL245398  33.049  32.356   6.164
 3473POPC   C1A45399  32.986  32.209   6.464
 3473POPC   D2A45400  32.984  32.206   6.764
 3473POPC   C3A45401  33.029  32.217   7.064
 3473POPC   C4A45402  33.062  32.210   7.364
 3473POPC   C1B45403  33.168  32.508   6.464
 3473POPC   C2B45404  33.160  32.489   6.764
 3473POPC   C3B45405  33.155  32.456   7.064
 3473POPC   C4B45406  33.115  32.447   7.364
 3474POPC   NC345407  29.105  21.346   5.564
 3474POPC   PO445408  29.187  21.340   5.864
 3474POPC   GL145409  29.098  21.402   6.164
 3474POPC   GL245410  29.267  21.369   6.164
 3474POPC   C1A45411  29.121  21.401   6.464
 3474POPC   D2A45412  29.131  21.388   6.764
 3474POPC   C3A45413  29.161  21.382   7.064
 3474POPC   C4A45414  29.152  21.394   7.364
 3474POPC   C1B45415  29.397  21.276   6.464
 3474POPC   C2B45416  29.354  21.261   6.764
 3474POPC   C3B45417  29.423  21.300   7.064
 3474POPC   C4B45418  29.376  21.251   7.364
 3475POPC   NC345419  32.260  43.124   5.564
 3475POPC   PO445420  32.222  43.122   5.864
 3475POPC   GL145421  32.233  43.081   6.164
 3475POPC   GL245422  32.164  43.005   6.164
 3475POPC   C1A45423  32.290  43.109   6.464
 3475POPC   D2A45424  32.265  43.065   6.764
 3475POPC   C3A45425  32.201  43.158   7.064
 3475POPC   C4A45426  32.206  43.138   7.364
 3475POPC   C1B45427  32.139  42.842   6.464
 3475POPC   C2B45428  32.165  42.875   6.764
 3475POPC   C3B45429  32.180  42.902   7.064
 3475POPC   C4B45430  32.133  42.910   7.364
 3476POPC   NC345431  18.277  39.272   5.564
 3476POPC   PO445432  18.299  39.272   5.864
 3476POPC   GL145433  18.321  39.229   6.164
 3476POPC   GL245434  18.152  39.183   6.164
 3476POPC   C1A45435  18.236  39.279   6.464
 3476POPC   D2A45436  18.267  39.194   6.764
 3476POPC   C3A45437  18.297  39.247   7.064
 3476POPC   C4A45438  18.279  39.246   7.364
 3476POPC   C1B45439  18.039  39.104   6.464
 3476POPC   C2B45440  18.087  39.149   6.764
 3476POPC   C3B45441  18.106  39.158   7.064
 3476POPC   C4B45442  18.057  39.148   7.364
 3477POPC   NC345443  29.885  41.538   5.564
 3477POPC   PO445444  29.889  41.588   5.864
 3477POPC   GL145445  29.914  41.588   6.164
 3477POPC   GL245446  29.970  41.494   6.164
 3477POPC   C1A45447  29.970  41.511   6.464
 3477POPC   D2A45448  29.939  41.552   6.764
 3477POPC   C3A45449  29.926  41.585   7.064
 3477POPC   C4A45450  29.887  41.564   7.364
 3477POPC   C1B45451  30.078  41.410   6.464
 3477POPC   C2B45452  30.102  41.401   6.764
 3477POPC   C3B45453  30.076  41.406   7.064
 3477POPC   C4B45454  30.071  41.377   7.364
 3478POPC   NC345455   9.779   0.482   5.564
 3478POPC   PO445456   9.775   0.396   5.864
 3478POPC   GL145457   9.765   0.465   6.164
 3478POPC   GL245458   9.654   0.464   6.164
 3478POPC   C1A45459   9.724   0.433   6.464
 3478POPC   D2A45460   9.784   0.398   6.764
 3478POPC   C3A45461   9.778   0.462   7.064
 3478POPC   C4A45462   9.765   0.435   7.364
 3478POPC   C1B45463   9.543   0.463   6.464
 3478POPC   C2B45464   9.496   0.400   6.764
 3478POPC   C3B45465   9.539   0.444   7.064
 3478POPC   C4B45466   9.476   0.370   7.364
 3479POPC   NC345467   5.838   9.767   5.564
 3479POPC   PO445468   5.869   9.797   5.864
 3479POPC   GL145469   5.897   9.798   6.164
 3479POPC   GL245470   5.946   9.834   6.164
 3479POPC   C1A45471   5.854   9.784   6.464
 3479POPC   D2A45472   5.888   9.718   6.764
 3479POPC   C3A45473   5.863   9.749   7.064
 3479POPC   C4A45474   5.893   9.725   7.364
 3479POPC   C1B45475   6.048   9.851   6.464
 3479POPC   C2B45476   6.121   9.908   6.764
 3479POPC   C3B45477   6.057   9.915   7.064
 3479POPC   C4B45478   6.037   9.879   7.364
 3480POPC   NC345479  36.107  19.827   5.564
 3480POPC   PO445480  36.147  19.855   5.864
 3480POPC   GL145481  36.131  19.866   6.164
 3480POPC   GL245482  36.030  19.949   6.164
 3480POPC   C1A45483  36.104  19.873   6.464
 3480POPC   D2A45484  36.143  19.881   6.764
 3480POPC   C3A45485  36.161  19.855   7.064
 3480POPC   C4A45486  36.176  19.789   7.364
 3480POPC   C1B45487  36.002  19.970   6.464
 3480POPC   C2B45488  35.953  20.011   6.764
 3480POPC   C3B45489  35.929  19.964   7.064
 3480POPC   C4B45490  35.907  20.044   7.364
 3481POPC   NC345491  31.500  37.667   5.564
 3481POPC   PO445492  31.489  37.703   5.864
 3481POPC   GL145493  31.516  37.649   6.164
 3481POPC   GL245494  31.425  37.723   6.164
 3481POPC   C1A45495  31.446  37.656   6.464
 3481POPC   D2A45496  31.486  37.632   6.764
 3481POPC   C3A45497  31.425  37.715   7.064
 3481POPC   C4A45498  31.518  37.685   7.364
 3481POPC   C1B45499  31.239  37.817   6.464
 3481POPC   C2B45500  31.298  37.845   6.764
 3481POPC   C3B45501  31.328  37.806   7.064
 3481POPC   C4B45502  31.277  37.866   7.364
 3482POPC   NC345503  31.522   5.908   5.564
 3482POPC   PO445504  31.439   5.883   5.864
 3482POPC   GL145505  31.465   5.898   6.164
 3482POPC   GL245506  31.456   5.791   6.164
 3482POPC   C1A45507  31.483   5.879   6.464
 3482POPC   D2A45508  31.481   5.828   6.764
 3482POPC   C3A45509  31.501   5.828   7.064
 3482POPC   C4A45510  31.464   5.912   7.364
 3482POPC   C1B45511  31.490   5.596   6.464
 3482POPC   C2B45512  31.500   5.586   6.764
 3482POPC   C3B45513  31.551   5.666   7.064
 3482POPC   C4B45514  31.472   5.649   7.364
 3483POPC   NC345515  23.736  12.119   5.564
 3483POPC   PO445516  23.721  12.095   5.864
 3483POPC   GL145517  23.760  12.115   6.164
 3483POPC   GL245518  23.607  12.090   6.164
 3483POPC   C1A45519  23.696  12.093   6.464
 3483POPC   D2A45520  23.696  12.118   6.764
 3483POPC   C3A45521  23.672  12.068   7.064
 3483POPC   C4A45522  23.677  12.051   7.364
 3483POPC   C1B45523  23.507  12.106   6.464
 3483POPC   C2B45524  23.514  12.136   6.764
 3483POPC   C3B45525  23.484  12.145   7.064
 3483POPC   C4B45526  23.499  12.143   7.364
 3484POPC   NC345527  43.140  25.247   5.564
 3484POPC   PO445528  43.125  25.233   5.864
 3484POPC   GL145529  43.066  25.254   6.164
 3484POPC   GL245530  43.057  25.399   6.164
 3484POPC   C1A45531  43.110  25.219   6.464
 3484POPC   D2A45532  43.110  25.252   6.764
 3484POPC   C3A45533  43.112  25.219   7.064
 3484POPC   C4A45534  43.155  25.235   7.364
 3484POPC   C1B45535  42.947  25.466   6.464
 3484POPC   C2B45536  42.941  25.444   6.764
 3484POPC   C3B45537  42.936  25.457   7.064
 3484POPC   C4B45538  42.957  25.469   7.364
 3485POPC   NC345539  12.102  44.653   5.564
 3485POPC   PO445540  12.041  44.671   5.864
 3485POPC   GL145541  12.058  44.641   6.164
 3485POPC   GL245542  11.953  44.642   6.164
 3485POPC   C1A45543  12.038  44.633   6.464
 3485POPC   D2A45544  12.108  44.698   6.764
 3485POPC   C3A45545  12.027  44.686   7.064
 3485POPC   C4A45546  12.125  44.637   7.364
 3485POPC   C1B45547  11.820  44.719   6.464
 3485POPC   C2B45548  11.853  44.709   6.764
 3485POPC   C3B45549  11.805  44.767   7.064
 3485POPC   C4B45550  11.861  44.716   7.364
 3486POPC   NC345551  40.762  32.979   5.564
 3486POPC   PO445552  40.752  33.059   5.864
 3486POPC   GL145553  40.800  33.007   6.164
 3486POPC   GL245554  40.837  33.170   6.164
 3486POPC   C1A45555  40.784  33.006   6.464
 3486POPC   D2A45556  40.795  33.064   6.764
 3486POPC   C3A45557  40.790  33.061   7.064
 3486POPC   C4A45558  40.778  33.049   7.364
 3486POPC   C1B45559  40.882  33.229   6.464
 3486POPC   C2B45560  40.853  33.268   6.764
 3486POPC   C3B45561  40.852  33.304   7.064
 3486POPC   C4B45562  40.809  33.284   7.364
 3487POPC   NC345563  22.936   3.498   5.564
 3487POPC   PO445564  22.938   3.585   5.864
 3487POPC   GL145565  22.941   3.583   6.164
 3487POPC   GL245566  23.028   3.660   6.164
 3487POPC   C1A45567  22.915   3.562   6.464
 3487POPC   D2A45568  22.932   3.574   6.764
 3487POPC   C3A45569  22.982   3.552   7.064
 3487POPC   C4A45570  22.980   3.584   7.364
 3487POPC   C1B45571  23.073   3.770   6.464
 3487POPC   C2B45572  23.118   3.746   6.764
 3487POPC   C3B45573  23.141   3.739   7.064
 3487POPC   C4B45574  23.061   3.739   7.364
 3488POPC   NC345575  19.847   7.468   5.564
 3488POPC   PO445576  19.850   7.417   5.864
 3488POPC   GL145577  19.834   7.440   6.164
 3488POPC   GL245578  19.677   7.486   6.164
 3488POPC   C1A45579  19.870   7.380   6.464
 3488POPC   D2A45580  19.827   7.458   6.764
 3488POPC   C3A45581  19.816   7.395   7.064
 3488POPC   C4A45582  19.809   7.454   7.364
 3488POPC   C1B45583  19.552   7.497   6.464
 3488POPC   C2B45584  19.609   7.505   6.764
 3488POPC   C3B45585  19.643   7.451   7.064
 3488POPC   C4B45586  19.642   7.481   7.364
 3489POPC   NC345587  38.410  31.488   5.564
 3489POPC   PO445588  38.458  31.486   5.864
 3489POPC   GL145589  38.482  31.481   6.164
 3489POPC   GL245590  38.375  31.398   6.164
 3489POPC   C1A45591  38.444  31.484   6.464
 3489POPC   D2A45592  38.423  31.475   6.764
 3489POPC   C3A45593  38.444  31.436   7.064
 3489POPC   C4A45594  38.436  31.439   7.364
 3489POPC   C1B45595  38.349  31.276   6.464
 3489POPC   C2B45596  38.357  31.197   6.764
 3489POPC   C3B45597  38.405  31.270   7.064
 3489POPC   C4B45598  38.396  31.248   7.364
 3490POPC   NC345599  15.945  36.131   5.564
 3490POPC   PO445600  15.947  36.154   5.864
 3490POPC   GL145601  15.920  36.078   6.164
 3490POPC   GL245602  16.111  36.073   6.164
 3490POPC   C1A45603  15.932  36.118   6.464
 3490POPC   D2A45604  15.991  36.085   6.764
 3490POPC   C3A45605  16.000  36.120   7.064
 3490POPC   C4A45606  15.960  36.158   7.364
 3490POPC   C1B45607  16.155  36.070   6.464
 3490POPC   C2B45608  16.209  36.049   6.764
 3490POPC   C3B45609  16.239  36.087   7.064
 3490POPC   C4B45610  16.165  36.083   7.364
 3491POPC   NC345611  21.422  43.845   5.564
 3491POPC   PO445612  21.393  43.909   5.864
 3491POPC   GL145613  21.336  43.878   6.164
 3491POPC   GL245614  21.498  43.836   6.164
 3491POPC   C1A45615  21.407  43.897   6.464
 3491POPC   D2A45616  21.408  43.905   6.764
 3491POPC   C3A45617  21.376  43.878   7.064
 3491POPC   C4A45618  21.387  43.896   7.364
 3491POPC   C1B45619  21.517  43.749   6.464
 3491POPC   C2B45620  21.528  43.670   6.764
 3491POPC   C3B45621  21.536  43.710   7.064
 3491POPC   C4B45622  21.520  43.755   7.364
 3492POPC   NC345623   2.739  39.984   5.564
 3492POPC   PO445624   2.792  40.019   5.864
 3492POPC   GL145625   2.764  39.982   6.164
 3492POPC   GL245626   2.792  40.126   6.164
 3492POPC   C1A45627   2.781  39.993   6.464
 3492POPC   D2A45628   2.791  40.039   6.764
 3492POPC   C3A45629   2.778  40.036   7.064
 3492POPC   C4A45630   2.719  40.020   7.364
 3492POPC   C1B45631   2.814  40.229   6.464
 3492POPC   C2B45632   2.817  40.289   6.764
 3492POPC   C3B45633   2.827  40.223   7.064
 3492POPC   C4B45634   2.837  40.254   7.364
 3493POPC   NC345635   6.632   4.269   5.564
 3493POPC   PO445636   6.616   4.353   5.864
 3493POPC   GL145637   6.623   4.286   6.164
 3493POPC   GL245638   6.689   4.258   6.164
 3493POPC   C1A45639   6.637   4.330   6.464
 3493POPC   D2A45640   6.630   4.278   6.764
 3493POPC   C3A45641   6.631   4.308   7.064
 3493POPC   C4A45642   6.650   4.268   7.364
 3493POPC   C1B45643   6.796   4.115   6.464
 3493POPC   C2B45644   6.731   4.084   6.764
 3493POPC   C3B45645   6.793   4.068   7.064
 3493POPC   C4B45646   6.817   4.135   7.364
 3494POPC   NC345647  18.295  34.591   5.564
 3494POPC   PO445648  18.288  34.603   5.864
 3494POPC   GL145649  18.235  34.588   6.164
 3494POPC   GL245650  18.407  34.501   6.164
 3494POPC   C1A45651  18.294  34.612   6.464
 3494POPC   D2A45652  18.288  34.587   6.764
 3494POPC   C3A45653  18.270  34.583   7.064
 3494POPC   C4A45654  18.259  34.585   7.364
 3494POPC   C1B45655  18.537  34.477   6.464
 3494POPC   C2B45656  18.472  34.457   6.764
 3494POPC   C3B45657  18.525  34.407   7.064
 3494POPC   C4B45658  18.520  34.467   7.364
 3495POPC   NC345659  34.544  42.379   5.564
 3495POPC   PO445660  34.577  42.335   5.864
 3495POPC   GL145661  34.611  42.328   6.164
 3495POPC   GL245662  34.473  42.315   6.164
 3495POPC   C1A45663  34.546  42.371   6.464
 3495POPC   D2A45664  34.601  42.382   6.764
 3495POPC   C3A45665  34.537  42.322   7.064
 3495POPC   C4A45666  34.589  42.362   7.364
 3495POPC   C1B45667  34.302  42.253   6.464
 3495POPC   C2B45668  34.299  42.184   6.764
 3495POPC   C3B45669  34.368  42.224   7.064
 3495POPC   C4B45670  34.309  42.208   7.364
 3496POPC   NC345671  36.929  29.177   5.564
 3496POPC   PO445672  36.863  29.157   5.864
 3496POPC   GL145673  36.864  29.153   6.164
 3496POPC   GL245674  36.803  29.158   6.164
 3496POPC   C1A45675  36.945  29.102   6.464
 3496POPC   D2A45676  36.892  29.132   6.764
 3496POPC   C3A45677  36.864  29.127   7.064
 3496POPC   C4A45678  36.916  29.156   7.364
 3496POPC   C1B45679  36.673  29.224   6.464
 3496POPC   C2B45680  36.609  29.216   6.764
 3496POPC   C3B45681  36.690  29.190   7.064
 3496POPC   C4B45682  36.619  29.150   7.364
 3497POPC   NC345683  40.819  25.240   5.564
 3497POPC   PO445684  40.773  25.272   5.864
 3497POPC   GL145685  40.756  25.232   6.164
 3497POPC   GL245686  40.915  25.344   6.164
 3497POPC   C1A45687  40.738  25.311   6.464
 3497POPC   D2A45688  40.747  25.311   6.764
 3497POPC   C3A45689  40.796  25.295   7.064
 3497POPC   C4A45690  40.832  25.302   7.364
 3497POPC   C1B45691  40.974  25.439   6.464
 3497POPC   C2B45692  41.004  25.470   6.764
 3497POPC   C3B45693  40.937  25.409   7.064
 3497POPC   C4B45694  40.976  25.453   7.364
 3498POPC   NC345695  26.078   8.159   5.564
 3498POPC   PO445696  26.037   8.188   5.864
 3498POPC   GL145697  26.017   8.219   6.164
 3498POPC   GL245698  26.020   8.347   6.164
 3498POPC   C1A45699  26.064   8.229   6.464
 3498POPC   D2A45700  26.003   8.244   6.764
 3498POPC   C3A45701  26.049   8.159   7.064
 3498POPC   C4A45702  25.993   8.224   7.364
 3498POPC   C1B45703  26.130   8.444   6.464
 3498POPC   C2B45704  26.104   8.454   6.764
 3498POPC   C3B45705  26.053   8.404   7.064
 3498POPC   C4B45706  26.117   8.421   7.364
 3499POPC   NC345707  21.432   0.438   5.564
 3499POPC   PO445708  21.364   0.450   5.864
 3499POPC   GL145709  21.411   0.480   6.164
 3499POPC   GL245710  21.471   0.385   6.164
 3499POPC   C1A45711  21.400   0.396   6.464
 3499POPC   D2A45712  21.413   0.472   6.764
 3499POPC   C3A45713  21.353   0.455   7.064
 3499POPC   C4A45714  21.386   0.438   7.364
 3499POPC   C1B45715  21.601   0.354   6.464
 3499POPC   C2B45716  21.609   0.328   6.764
 3499POPC   C3B45717  21.651   0.266   7.064
 3499POPC   C4B45718  21.596   0.316   7.364
 3500POPC   NC345719  22.911  36.130   5.564
 3500POPC   PO445720  22.917  36.112   5.864
 3500POPC   GL145721  22.895  36.100   6.164
 3500POPC   GL245722  22.992  36.231   6.164
 3500POPC   C1A45723  22.931  36.171   6.464
 3500POPC   D2A45724  22.893  36.090   6.764
 3500POPC   C3A45725  22.911  36.083   7.064
 3500POPC   C4A45726  22.925  36.133   7.364
 3500POPC   C1B45727  23.034  36.373   6.464
 3500POPC   C2B45728  23.024  36.402   6.764
 3500POPC   C3B45729  23.085  36.359   7.064
 3500POPC   C4B45730  22.997  36.357   7.364
 3501POPC   NC345731  41.578  12.884   5.564
 3501POPC   PO445732  41.573  12.845   5.864
 3501POPC   GL145733  41.548  12.825   6.164
 3501POPC   GL245734  41.529  12.996   6.164
 3501POPC   C1A45735  41.567  12.866   6.464
 3501POPC   D2A45736  41.600  12.875   6.764
 3501POPC   C3A45737  41.592  12.831   7.064
 3501POPC   C4A45738  41.589  12.846   7.364
 3501POPC   C1B45739  41.523  13.056   6.464
 3501POPC   C2B45740  41.554  13.093   6.764
 3501POPC   C3B45741  41.578  13.147   7.064
 3501POPC   C4B45742  41.540  13.119   7.364
 3502POPC   NC345743  20.603  17.545   5.564
 3502POPC   PO445744  20.609  17.486   5.864
 3502POPC   GL145745  20.657  17.491   6.164
 3502POPC   GL245746  20.484  17.567   6.164
 3502POPC   C1A45747  20.653  17.524   6.464
 3502POPC   D2A45748  20.581  17.469   6.764
 3502POPC   C3A45749  20.603  17.553   7.064
 3502POPC   C4A45750  20.565  17.541   7.364
 3502POPC   C1B45751  20.394  17.642   6.464
 3502POPC   C2B45752  20.415  17.589   6.764
 3502POPC   C3B45753  20.388  17.595   7.064
 3502POPC   C4B45754  20.366  17.571   7.364
 3503POPC   NC345755   1.986  39.216   5.564
 3503POPC   PO445756   2.028  39.219   5.864
 3503POPC   GL145757   2.008  39.224   6.164
 3503POPC   GL245758   1.905  39.079   6.164
 3503POPC   C1A45759   1.986  39.204   6.464
 3503POPC   D2A45760   1.999  39.254   6.764
 3503POPC   C3A45761   1.982  39.258   7.064
 3503POPC   C4A45762   1.985  39.271   7.364
 3503POPC   C1B45763   1.924  38.999   6.464
 3503POPC   C2B45764   1.870  38.986   6.764
 3503POPC   C3B45765   1.945  38.952   7.064
 3503POPC   C4B45766   1.928  38.978   7.364
 3504POPC   NC345767   2.801  16.705   5.564
 3504POPC   PO445768   2.765  16.693   5.864
 3504POPC   GL145769   2.761  16.733   6.164
 3504POPC   GL245770   2.658  16.625   6.164
 3504POPC   C1A45771   2.813  16.697   6.464
 3504POPC   D2A45772   2.769  16.736   6.764
 3504POPC   C3A45773   2.766  16.698   7.064
 3504POPC   C4A45774   2.742  16.778   7.364
 3504POPC   C1B45775   2.555  16.584   6.464
 3504POPC   C2B45776   2.510  16.542   6.764
 3504POPC   C3B45777   2.557  16.635   7.064
 3504POPC   C4B45778   2.509  16.608   7.364
 3505POPC   NC345779  14.436  20.561   5.564
 3505POPC   PO445780  14.386  20.607   5.864
 3505POPC   GL145781  14.413  20.582   6.164
 3505POPC   GL245782  14.544  20.726   6.164
 3505POPC   C1A45783  14.406  20.567   6.464
 3505POPC   D2A45784  14.436  20.639   6.764
 3505POPC   C3A45785  14.354  20.641   7.064
 3505POPC   C4A45786  14.408  20.623   7.364
 3505POPC   C1B45787  14.650  20.756   6.464
 3505POPC   C2B45788  14.628  20.805   6.764
 3505POPC   C3B45789  14.569  20.750   7.064
 3505POPC   C4B45790  14.559  20.724   7.364
 3506POPC   NC345791   3.539  42.351   5.564
 3506POPC   PO445792   3.507  42.288   5.864
 3506POPC   GL145793   3.532  42.303   6.164
 3506POPC   GL245794   3.480  42.282   6.164
 3506POPC   C1A45795   3.589  42.321   6.464
 3506POPC   D2A45796   3.565  42.384   6.764
 3506POPC   C3A45797   3.532  42.347   7.064
 3506POPC   C4A45798   3.574  42.297   7.364
 3506POPC   C1B45799   3.418  42.181   6.464
 3506POPC   C2B45800   3.368  42.148   6.764
 3506POPC   C3B45801   3.415  42.105   7.064
 3506POPC   C4B45802   3.351  42.141   7.364
 3507POPC   NC345803  32.283  44.615   5.564
 3507POPC   PO445804  32.201  44.667   5.864
 3507POPC   GL145805  32.284  44.620   6.164
 3507POPC   GL245806  32.175  44.611   6.164
 3507POPC   C1A45807  32.251  44.626   6.464
 3507POPC   D2A45808  32.242  44.635   6.764
 3507POPC   C3A45809  32.248  44.652   7.064
 3507POPC   C4A45810  32.295  44.657   7.364
 3507POPC   C1B45811  32.012  44.596   6.464
 3507POPC   C2B45812  31.993  44.603   6.764
 3507POPC   C3B45813  32.053  44.548   7.064
 3507POPC   C4B45814  32.045  44.525   7.364
 3508POPC   NC345815  19.081  32.259   5.564
 3508POPC   PO445816  19.058  32.230   5.864
 3508POPC   GL145817  19.086  32.262   6.164
 3508POPC   GL245818  18.942  32.308   6.164
 3508POPC   C1A45819  19.080  32.216   6.464
 3508POPC   D2A45820  19.096  32.263   6.764
 3508POPC   C3A45821  19.061  32.286   7.064
 3508POPC   C4A45822  19.101  32.263   7.364
 3508POPC   C1B45823  18.824  32.402   6.464
 3508POPC   C2B45824  18.874  32.350   6.764
 3508POPC   C3B45825  18.821  32.422   7.064
 3508POPC   C4B45826  18.861  32.378   7.364
 3509POPC   NC345827  30.724  30.696   5.564
 3509POPC   PO445828  30.693  30.736   5.864
 3509POPC   GL145829  30.663  30.739   6.164
 3509POPC   GL245830  30.614  30.724   6.164
 3509POPC   C1A45831  30.674  30.649   6.464
 3509POPC   D2A45832  30.673  30.682   6.764
 3509POPC   C3A45833  30.694  30.699   7.064
 3509POPC   C4A45834  30.654  30.669   7.364
 3509POPC   C1B45835  30.473  30.877   6.464
 3509POPC   C2B45836  30.499  30.874   6.764
 3509POPC   C3B45837  30.453  30.828   7.064
 3509POPC   C4B45838  30.454  30.791   7.364
 3510POPC   NC345839   7.455  23.690   5.564
 3510POPC   PO445840   7.386  23.694   5.864
 3510POPC   GL145841   7.389  23.736   6.164
 3510POPC   GL245842   7.312  23.630   6.164
 3510POPC   C1A45843   7.374  23.727   6.464
 3510POPC   D2A45844   7.422  23.742   6.764
 3510POPC   C3A45845   7.376  23.764   7.064
 3510POPC   C4A45846   7.409  23.748   7.364
 3510POPC   C1B45847   7.217  23.590   6.464
 3510POPC   C2B45848   7.164  23.598   6.764
 3510POPC   C3B45849   7.155  23.647   7.064
 3510POPC   C4B45850   7.203  23.634   7.364
 3511POPC   NC345851   2.765  33.845   5.564
 3511POPC   PO445852   2.731  33.772   5.864
 3511POPC   GL145853   2.747  33.804   6.164
 3511POPC   GL245854   2.870  33.879   6.164
 3511POPC   C1A45855   2.814  33.808   6.464
 3511POPC   D2A45856   2.741  33.818   6.764
 3511POPC   C3A45857   2.814  33.803   7.064
 3511POPC   C4A45858   2.751  33.822   7.364
 3511POPC   C1B45859   2.897  34.009   6.464
 3511POPC   C2B45860   2.835  34.046   6.764
 3511POPC   C3B45861   2.840  34.016   7.064
 3511POPC   C4B45862   2.882  34.001   7.364
 3512POPC   NC345863   0.453  44.633   5.564
 3512POPC   PO445864   0.435  44.681   5.864
 3512POPC   GL145865   0.487  44.680   6.164
 3512POPC   GL245866   0.459  44.805   6.164
 3512POPC   C1A45867   0.485  44.707   6.464
 3512POPC   D2A45868   0.454  44.629   6.764
 3512POPC   C3A45869   0.457  44.628   7.064
 3512POPC   C4A45870   0.393  44.672   7.364
 3512POPC   C1B45871   0.424  44.916   6.464
 3512POPC   C2B45872   0.424  44.861   6.764
 3512POPC   C3B45873   0.498  44.868   7.064
 3512POPC   C4B45874   0.506  44.924   7.364
 3513POPC   NC345875  17.523  27.577   5.564
 3513POPC   PO445876  17.469  27.570   5.864
 3513POPC   GL145877  17.518  27.588   6.164
 3513POPC   GL245878  17.474  27.465   6.164
 3513POPC   C1A45879  17.462  27.576   6.464
 3513POPC   D2A45880  17.554  27.585   6.764
 3513POPC   C3A45881  17.471  27.597   7.064
 3513POPC   C4A45882  17.464  27.579   7.364
 3513POPC   C1B45883  17.546  27.309   6.464
 3513POPC   C2B45884  17.500  27.340   6.764
 3513POPC   C3B45885  17.523  27.305   7.064
 3513POPC   C4B45886  17.474  27.351   7.364
 3514POPC   NC345887  15.951   9.718   5.564
 3514POPC   PO445888  15.938   9.773   5.864
 3514POPC   GL145889  15.906   9.703   6.164
 3514POPC   GL245890  16.089   9.747   6.164
 3514POPC   C1A45891  15.945   9.749   6.464
 3514POPC   D2A45892  15.908   9.724   6.764
 3514POPC   C3A45893  15.945   9.760   7.064
 3514POPC   C4A45894  15.917   9.724   7.364
 3514POPC   C1B45895  16.199   9.772   6.464
 3514POPC   C2B45896  16.253   9.729   6.764
 3514POPC   C3B45897  16.255   9.714   7.064
 3514POPC   C4B45898  16.179   9.725   7.364
 3515POPC   NC345899  41.603   7.411   5.564
 3515POPC   PO445900  41.577   7.397   5.864
 3515POPC   GL145901  41.510   7.426   6.164
 3515POPC   GL245902  41.525   7.282   6.164
 3515POPC   C1A45903  41.549   7.443   6.464
 3515POPC   D2A45904  41.556   7.409   6.764
 3515POPC   C3A45905  41.586   7.459   7.064
 3515POPC   C4A45906  41.592   7.409   7.364
 3515POPC   C1B45907  41.456   7.162   6.464
 3515POPC   C2B45908  41.382   7.194   6.764
 3515POPC   C3B45909  41.387   7.244   7.064
 3515POPC   C4B45910  41.398   7.225   7.364
 3516POPC   NC345911  10.477  36.889   5.564
 3516POPC   PO445912  10.548  36.949   5.864
 3516POPC   GL145913  10.534  36.900   6.164
 3516POPC   GL245914  10.606  36.959   6.164
 3516POPC   C1A45915  10.531  36.924   6.464
 3516POPC   D2A45916  10.551  36.893   6.764
 3516POPC   C3A45917  10.486  36.952   7.064
 3516POPC   C4A45918  10.569  36.939   7.364
 3516POPC   C1B45919  10.758  36.910   6.464
 3516POPC   C2B45920  10.732  36.953   6.764
 3516POPC   C3B45921  10.765  36.973   7.064
 3516POPC   C4B45922  10.724  36.899   7.364
 3517POPC   NC345923  12.119  37.710   5.564
 3517POPC   PO445924  12.039  37.720   5.864
 3517POPC   GL145925  12.098  37.663   6.164
 3517POPC   GL245926  12.092  37.573   6.164
 3517POPC   C1A45927  12.034  37.672   6.464
 3517POPC   D2A45928  12.043  37.689   6.764
 3517POPC   C3A45929  12.104  37.659   7.064
 3517POPC   C4A45930  12.051  37.637   7.364
 3517POPC   C1B45931  12.123  37.470   6.464
 3517POPC   C2B45932  12.076  37.420   6.764
 3517POPC   C3B45933  12.129  37.404   7.064
 3517POPC   C4B45934  12.053  37.401   7.364
 3518POPC   NC345935  32.213  20.570   5.564
 3518POPC   PO445936  32.248  20.634   5.864
 3518POPC   GL145937  32.275  20.636   6.164
 3518POPC   GL245938  32.297  20.734   6.164
 3518POPC   C1A45939  32.214  20.610   6.464
 3518POPC   D2A45940  32.290  20.655   6.764
 3518POPC   C3A45941  32.235  20.653   7.064
 3518POPC   C4A45942  32.297  20.586   7.364
 3518POPC   C1B45943  32.305  20.822   6.464
 3518POPC   C2B45944  32.383  20.851   6.764
 3518POPC   C3B45945  32.330  20.832   7.064
 3518POPC   C4B45946  32.374  20.856   7.364
 3519POPC   NC345947  36.875   3.508   5.564
 3519POPC   PO445948  36.877   3.543   5.864
 3519POPC   GL145949  36.895   3.585   6.164
 3519POPC   GL245950  37.010   3.629   6.164
 3519POPC   C1A45951  36.866   3.574   6.464
 3519POPC   D2A45952  36.943   3.536   6.764
 3519POPC   C3A45953  36.901   3.513   7.064
 3519POPC   C4A45954  36.880   3.566   7.364
 3519POPC   C1B45955  37.104   3.683   6.464
 3519POPC   C2B45956  37.071   3.664   6.764
 3519POPC   C3B45957  37.134   3.662   7.064
 3519POPC   C4B45958  37.129   3.656   7.364
 3520POPC   NC345959  20.572  22.130   5.564
 3520POPC   PO445960  20.656  22.196   5.864
 3520POPC   GL145961  20.660  22.133   6.164
 3520POPC   GL245962  20.459  22.169   6.164
 3520POPC   C1A45963  20.641  22.152   6.464
 3520POPC   D2A45964  20.593  22.188   6.764
 3520POPC   C3A45965  20.604  22.129   7.064
 3520POPC   C4A45966  20.644  22.161   7.364
 3520POPC   C1B45967  20.371  22.159   6.464
 3520POPC   C2B45968  20.380  22.183   6.764
 3520POPC   C3B45969  20.380  22.205   7.064
 3520POPC   C4B45970  20.361  22.146   7.364
 3521POPC   NC345971   7.421  35.356   5.564
 3521POPC   PO445972   7.442  35.388   5.864
 3521POPC   GL145973   7.380  35.383   6.164
 3521POPC   GL245974   7.274  35.446   6.164
 3521POPC   C1A45975   7.373  35.302   6.464
 3521POPC   D2A45976   7.447  35.329   6.764
 3521POPC   C3A45977   7.456  35.328   7.064
 3521POPC   C4A45978   7.413  35.399   7.364
 3521POPC   C1B45979   7.184  35.459   6.464
 3521POPC   C2B45980   7.178  35.489   6.764
 3521POPC   C3B45981   7.166  35.500   7.064
 3521POPC   C4B45982   7.246  35.480   7.364
 3522POPC   NC345983  36.953  24.536   5.564
 3522POPC   PO445984  36.877  24.496   5.864
 3522POPC   GL145985  36.928  24.507   6.164
 3522POPC   GL245986  36.841  24.420   6.164
 3522POPC   C1A45987  36.870  24.452   6.464
 3522POPC   D2A45988  36.871  24.481   6.764
 3522POPC   C3A45989  36.912  24.489   7.064
 3522POPC   C4A45990  36.912  24.487   7.364
 3522POPC   C1B45991  36.766  24.343   6.464
 3522POPC   C2B45992  36.689  24.305   6.764
 3522POPC   C3B45993  36.689  24.300   7.064
 3522POPC   C4B45994  36.702  24.348   7.364
 3523POPC   NC345995  38.459  21.337   5.564
 3523POPC   PO445996  38.461  21.343   5.864
 3523POPC   GL145997  38.496  21.353   6.164
 3523POPC   GL245998  38.500  21.345   6.164
 3523POPC   C1A45999  38.502  21.399   6.464
 3523POPC   D2A46000  38.496  21.343   6.764
 3523POPC   C3A46001  38.500  21.426   7.064
 3523POPC   C4A46002  38.432  21.356   7.364
 3523POPC   C1B46003  38.676  21.187   6.464
 3523POPC   C2B46004  38.608  21.254   6.764
 3523POPC   C3B46005  38.627  21.258   7.064
 3523POPC   C4B46006  38.623  21.230   7.364
 3524POPC   NC346007  28.389  32.248   5.564
 3524POPC   PO446008  28.364  32.277   5.864
 3524POPC   GL146009  28.398  32.295   6.164
 3524POPC   GL246010  28.216  32.146   6.164
 3524POPC   C1A46011  28.389  32.230   6.464
 3524POPC   D2A46012  28.399  32.221   6.764
 3524POPC   C3A46013  28.404  32.225   7.064
 3524POPC   C4A46014  28.397  32.274   7.364
 3524POPC   C1B46015  28.162  32.108   6.464
 3524POPC   C2B46016  28.106  32.131   6.764
 3524POPC   C3B46017  28.172  32.139   7.064
 3524POPC   C4B46018  28.158  32.123   7.364
 3525POPC   NC346019  43.106  12.893   5.564
 3525POPC   PO446020  43.157  12.826   5.864
 3525POPC   GL146021  43.107  12.833   6.164
 3525POPC   GL246022  43.174  12.942   6.164
 3525POPC   C1A46023  43.074  12.864   6.464
 3525POPC   D2A46024  43.068  12.902   6.764
 3525POPC   C3A46025  43.150  12.848   7.064
 3525POPC   C4A46026  43.128  12.855   7.364
 3525POPC   C1B46027  43.376  12.973   6.464
 3525POPC   C2B46028  43.337  12.933   6.764
 3525POPC   C3B46029  43.352  13.014   7.064
 3525POPC   C4B46030  43.360  12.928   7.364
 3526POPC   NC346031  41.595  34.613   5.564
 3526POPC   PO446032  41.554  34.551   5.864
 3526POPC   GL146033  41.556  34.567   6.164
 3526POPC   GL246034  41.416  34.510   6.164
 3526POPC   C1A46035  41.527  34.580   6.464
 3526POPC   D2A46036  41.608  34.615   6.764
 3526POPC   C3A46037  41.557  34.579   7.064
 3526POPC   C4A46038  41.517  34.587   7.364
 3526POPC   C1B46039  41.320  34.463   6.464
 3526POPC   C2B46040  41.304  34.474   6.764
 3526POPC   C3B46041  41.280  34.465   7.064
 3526POPC   C4B46042  41.330  34.455   7.364
 3527POPC   NC346043  42.287  19.858   5.564
 3527POPC   PO446044  42.289  19.883   5.864
 3527POPC   GL146045  42.367  19.839   6.164
 3527POPC   GL246046  42.279  19.718   6.164
 3527POPC   C1A46047  42.384  19.838   6.464
 3527POPC   D2A46048  42.321  19.804   6.764
 3527POPC   C3A46049  42.288  19.835   7.064
 3527POPC   C4A46050  42.343  19.840   7.364
 3527POPC   C1B46051  42.212  19.579   6.464
 3527POPC   C2B46052  42.215  19.616   6.764
 3527POPC   C3B46053  42.200  19.640   7.064
 3527POPC   C4B46054  42.189  19.631   7.364
 3528POPC   NC346055  15.980   5.056   5.564
 3528POPC   PO446056  15.954   5.062   5.864
 3528POPC   GL146057  15.919   5.085   6.164
 3528POPC   GL246058  15.849   4.960   6.164
 3528POPC   C1A46059  15.935   5.107   6.464
 3528POPC   D2A46060  15.935   5.101   6.764
 3528POPC   C3A46061  15.976   5.090   7.064
 3528POPC   C4A46062  15.986   5.060   7.364
 3528POPC   C1B46063  15.797   4.918   6.464
 3528POPC   C2B46064  15.862   4.856   6.764
 3528POPC   C3B46065  15.814   4.851   7.064
 3528POPC   C4B46066  15.846   4.870   7.364
 3529POPC   NC346067  27.557   8.246   5.564
 3529POPC   PO446068  27.620   8.179   5.864
 3529POPC   GL146069  27.588   8.196   6.164
 3529POPC   GL246070  27.574   8.369   6.164
 3529POPC   C1A46071  27.545   8.239   6.464
 3529POPC   D2A46072  27.634   8.183   6.764
 3529POPC   C3A46073  27.578   8.194   7.064
 3529POPC   C4A46074  27.592   8.224   7.364
 3529POPC   C1B46075  27.618   8.411   6.464
 3529POPC   C2B46076  27.611   8.435   6.764
 3529POPC   C3B46077  27.616   8.445   7.064
 3529POPC   C4B46078  27.568   8.447   7.364
 3530POPC   NC346079  18.242  38.498   5.564
 3530POPC   PO446080  18.293  38.475   5.864
 3530POPC   GL146081  18.332  38.501   6.164
 3530POPC   GL246082  18.232  38.518   6.164
 3530POPC   C1A46083  18.330  38.411   6.464
 3530POPC   D2A46084  18.310  38.414   6.764
 3530POPC   C3A46085  18.272  38.475   7.064
 3530POPC   C4A46086  18.274  38.500   7.364
 3530POPC   C1B46087  18.180  38.684   6.464
 3530POPC   C2B46088  18.115  38.614   6.764
 3530POPC   C3B46089  18.127  38.605   7.064
 3530POPC   C4B46090  18.169  38.649   7.364
 3531POPC   NC346091  19.096   1.200   5.564
 3531POPC   PO446092  19.023   1.237   5.864
 3531POPC   GL146093  19.080   1.262   6.164
 3531POPC   GL246094  18.983   1.228   6.164
 3531POPC   C1A46095  19.084   1.215   6.464
 3531POPC   D2A46096  19.031   1.212   6.764
 3531POPC   C3A46097  19.076   1.228   7.064
 3531POPC   C4A46098  19.101   1.185   7.364
 3531POPC   C1B46099  18.811   1.146   6.464
 3531POPC   C2B46100  18.818   1.206   6.764
 3531POPC   C3B46101  18.827   1.221   7.064
 3531POPC   C4B46102  18.824   1.203   7.364
 3532POPC   NC346103   9.789   1.964   5.564
 3532POPC   PO446104   9.700   1.952   5.864
 3532POPC   GL146105   9.750   2.037   6.164
 3532POPC   GL246106   9.663   2.016   6.164
 3532POPC   C1A46107   9.769   1.993   6.464
 3532POPC   D2A46108   9.735   1.964   6.764
 3532POPC   C3A46109   9.787   1.943   7.064
 3532POPC   C4A46110   9.762   1.956   7.364
 3532POPC   C1B46111   9.524   1.997   6.464
 3532POPC   C2B46112   9.551   1.932   6.764
 3532POPC   C3B46113   9.455   1.951   7.064
 3532POPC   C4B46114   9.476   1.943   7.364
 3533POPC   NC346115   6.637  41.600   5.564
 3533POPC   PO446116   6.693  41.559   5.864
 3533POPC   GL146117   6.649  41.513   6.164
 3533POPC   GL246118   6.637  41.690   6.164
 3533POPC   C1A46119   6.638  41.574   6.464
 3533POPC   D2A46120   6.673  41.604   6.764
 3533POPC   C3A46121   6.614  41.511   7.064
 3533POPC   C4A46122   6.632  41.544   7.364
 3533POPC   C1B46123   6.548  41.778   6.464
 3533POPC   C2B46124   6.544  41.755   6.764
 3533POPC   C3B46125   6.622  41.837   7.064
 3533POPC   C4B46126   6.550  41.792   7.364
 3534POPC   NC346127  32.201   8.169   5.564
 3534POPC   PO446128  32.207   8.176   5.864
 3534POPC   GL146129  32.253   8.185   6.164
 3534POPC   GL246130  32.282   8.329   6.164
 3534POPC   C1A46131  32.216   8.154   6.464
 3534POPC   D2A46132  32.281   8.228   6.764
 3534POPC   C3A46133  32.225   8.156   7.064
 3534POPC   C4A46134  32.248   8.231   7.364
 3534POPC   C1B46135  32.328   8.387   6.464
 3534POPC   C2B46136  32.404   8.454   6.764
 3534POPC   C3B46137  32.402   8.399   7.064
 3534POPC   C4B46138  32.407   8.381   7.364
 3535POPC   NC346139   5.906  16.754   5.564
 3535POPC   PO446140   5.917  16.702   5.864
 3535POPC   GL146141   5.846  16.740   6.164
 3535POPC   GL246142   6.002  16.703   6.164
 3535POPC   C1A46143   5.820  16.743   6.464
 3535POPC   D2A46144   5.902  16.753   6.764
 3535POPC   C3A46145   5.851  16.758   7.064
 3535POPC   C4A46146   5.838  16.738   7.364
 3535POPC   C1B46147   6.068  16.650   6.464
 3535POPC   C2B46148   6.141  16.686   6.764
 3535POPC   C3B46149   6.101  16.651   7.064
 3535POPC   C4B46150   6.147  16.642   7.364
 3536POPC   NC346151  15.198  13.588   5.564
 3536POPC   PO446152  15.197  13.656   5.864
 3536POPC   GL146153  15.201  13.588   6.164
 3536POPC   GL246154  15.223  13.741   6.164
 3536POPC   C1A46155  15.206  13.640   6.464
 3536POPC   D2A46156  15.193  13.668   6.764
 3536POPC   C3A46157  15.229  13.604   7.064
 3536POPC   C4A46158  15.199  13.629   7.364
 3536POPC   C1B46159  15.275  13.884   6.464
 3536POPC   C2B46160  15.214  13.868   6.764
 3536POPC   C3B46161  15.276  13.824   7.064
 3536POPC   C4B46162  15.286  13.877   7.364
 3537POPC   NC346163  31.425  38.477   5.564
 3537POPC   PO446164  31.425  38.458   5.864
 3537POPC   GL146165  31.482  38.452   6.164
 3537POPC   GL246166  31.398  38.526   6.164
 3537POPC   C1A46167  31.499  38.470   6.464
 3537POPC   D2A46168  31.432  38.502   6.764
 3537POPC   C3A46169  31.445  38.497   7.064
 3537POPC   C4A46170  31.465  38.496   7.364
 3537POPC   C1B46171  31.347  38.642   6.464
 3537POPC   C2B46172  31.390  38.726   6.764
 3537POPC   C3B46173  31.415  38.678   7.064
 3537POPC   C4B46174  31.409  38.658   7.364
 3538POPC   NC346175  37.677   1.182   5.564
 3538POPC   PO446176  37.649   1.252   5.864
 3538POPC   GL146177  37.641   1.255   6.164
 3538POPC   GL246178  37.550   1.156   6.164
 3538POPC   C1A46179  37.652   1.263   6.464
 3538POPC   D2A46180  37.645   1.175   6.764
 3538POPC   C3A46181  37.717   1.182   7.064
 3538POPC   C4A46182  37.634   1.192   7.364
 3538POPC   C1B46183  37.499   1.032   6.464
 3538POPC   C2B46184  37.498   1.048   6.764
 3538POPC   C3B46185  37.549   1.005   7.064
 3538POPC   C4B46186  37.529   1.002   7.364
 3539POPC   NC346187  27.630  22.894   5.564
 3539POPC   PO446188  27.601  22.915   5.864
 3539POPC   GL146189  27.566  22.927   6.164
 3539POPC   GL246190  27.492  23.020   6.164
 3539POPC   C1A46191  27.592  22.899   6.464
 3539POPC   D2A46192  27.583  22.941   6.764
 3539POPC   C3A46193  27.544  22.949   7.064
 3539POPC   C4A46194  27.547  22.903   7.364
 3539POPC   C1B46195  27.377  23.109   6.464
 3539POPC   C2B46196  27.365  23.128   6.764
 3539POPC   C3B46197  27.445  23.053   7.064
 3539POPC   C4B46198  27.393  23.101   7.364
 3540POPC   NC346199  32.989  19.805   5.564
 3540POPC   PO446200  33.072  19.866   5.864
 3540POPC   GL146201  33.058  19.861   6.164
 3540POPC   GL246202  33.182  19.909   6.164
 3540POPC   C1A46203  33.049  19.800   6.464
 3540POPC   D2A46204  32.986  19.857   6.764
 3540POPC   C3A46205  33.030  19.828   7.064
 3540POPC   C4A46206  32.982  19.870   7.364
 3540POPC   C1B46207  33.277  19.972   6.464
 3540POPC   C2B46208  33.214  19.932   6.764
 3540POPC   C3B46209  33.221  19.909   7.064
 3540POPC   C4B46210  33.258  19.939   7.364
 3541POPC   NC346211  41.596   1.186   5.564
 3541POPC   PO446212  41.545   1.251   5.864
 3541POPC   GL146213  41.539   1.251   6.164
 3541POPC   GL246214  41.553   1.334   6.164
 3541POPC   C1A46215  41.512   1.257   6.464
 3541POPC   D2A46216  41.509   1.254   6.764
 3541POPC   C3A46217  41.521   1.256   7.064
 3541POPC   C4A46218  41.581   1.260   7.364
 3541POPC   C1B46219  41.596   1.485   6.464
 3541POPC   C2B46220  41.567   1.423   6.764
 3541POPC   C3B46221  41.574   1.506   7.064
 3541POPC   C4B46222  41.615   1.511   7.364
 3542POPC   NC346223  33.063  16.725   5.564
 3542POPC   PO446224  33.074  16.699   5.864
 3542POPC   GL146225  32.994  16.720   6.164
 3542POPC   GL246226  32.884  16.767   6.164
 3542POPC   C1A46227  32.996  16.779   6.464
 3542POPC   D2A46228  33.045  16.735   6.764
 3542POPC   C3A46229  33.025  16.730   7.064
 3542POPC   C4A46230  32.988  16.760   7.364
 3542POPC   C1B46231  32.797  16.786   6.464
 3542POPC   C2B46232  32.796  16.750   6.764
 3542POPC   C3B46233  32.810  16.748   7.064
 3542POPC   C4B46234  32.785  16.774   7.364
 3543POPC   NC346235   6.618  38.422   5.564
 3543POPC   PO446236   6.644  38.443   5.864
 3543POPC   GL146237   6.666  38.468   6.164
 3543POPC   GL246238   6.698  38.489   6.164
 3543POPC   C1A46239   6.626  38.498   6.464
 3543POPC   D2A46240   6.641  38.500   6.764
 3543POPC   C3A46241   6.655  38.440   7.064
 3543POPC   C4A46242   6.644  38.489   7.364
 3543POPC   C1B46243   6.821  38.639   6.464
 3543POPC   C2B46244   6.877  38.602   6.764
 3543POPC   C3B46245   6.832  38.551   7.064
 3543POPC   C4B46246   6.884  38.638   7.364
 3544POPC   NC346247  15.989  30.672   5.564
 3544POPC   PO446248  15.966  30.685   5.864
 3544POPC   GL146249  15.915  30.735   6.164
 3544POPC   GL246250  15.991  30.583   6.164
 3544POPC   C1A46251  15.986  30.731   6.464
 3544POPC   D2A46252  15.942  30.659   6.764
 3544POPC   C3A46253  15.921  30.708   7.064
 3544POPC   C4A46254  15.989  30.718   7.364
 3544POPC   C1B46255  15.912  30.453   6.464
 3544POPC   C2B46256  15.993  30.405   6.764
 3544POPC   C3B46257  15.930  30.428   7.064
 3544POPC   C4B46258  15.978  30.433   7.364
 3545POPC   NC346259  10.566  33.766   5.564
 3545POPC   PO446260  10.485  33.829   5.864
 3545POPC   GL146261  10.518  33.813   6.164
 3545POPC   GL246262  10.522  33.711   6.164
 3545POPC   C1A46263  10.572  33.822   6.464
 3545POPC   D2A46264  10.490  33.807   6.764
 3545POPC   C3A46265  10.482  33.846   7.064
 3545POPC   C4A46266  10.509  33.848   7.364
 3545POPC   C1B46267  10.519  33.514   6.464
 3545POPC   C2B46268  10.503  33.578   6.764
 3545POPC   C3B46269  10.550  33.573   7.064
 3545POPC   C4B46270  10.582  33.519   7.364
 3546POPC   NC346271   3.502  38.471   5.564
 3546POPC   PO446272   3.522  38.428   5.864
 3546POPC   GL146273   3.545  38.492   6.164
 3546POPC   GL246274   3.563  38.575   6.164
 3546POPC   C1A46275   3.512  38.448   6.464
 3546POPC   D2A46276   3.555  38.440   6.764
 3546POPC   C3A46277   3.524  38.477   7.064
 3546POPC   C4A46278   3.520  38.453   7.364
 3546POPC   C1B46279   3.571  38.674   6.464
 3546POPC   C2B46280   3.638  38.705   6.764
 3546POPC   C3B46281   3.647  38.687   7.064
 3546POPC   C4B46282   3.666  38.714   7.364
 3547POPC   NC346283  16.741  16.760   5.564
 3547POPC   PO446284  16.767  16.730   5.864
 3547POPC   GL146285  16.750  16.700   6.164
 3547POPC   GL246286  16.840  16.755   6.164
 3547POPC   C1A46287  16.738  16.730   6.464
 3547POPC   D2A46288  16.736  16.772   6.764
 3547POPC   C3A46289  16.757  16.746   7.064
 3547POPC   C4A46290  16.730  16.764   7.364
 3547POPC   C1B46291  17.008  16.699   6.464
 3547POPC   C2B46292  17.022  16.762   6.764
 3547POPC   C3B46293  16.964  16.732   7.064
 3547POPC   C4B46294  16.961  16.726   7.364
 3548POPC   NC346295  26.835  29.969   5.564
 3548POPC   PO446296  26.804  29.947   5.864
 3548POPC   GL146297  26.820  29.951   6.164
 3548POPC   GL246298  26.772  30.061   6.164
 3548POPC   C1A46299  26.863  29.895   6.464
 3548POPC   D2A46300  26.823  29.925   6.764
 3548POPC   C3A46301  26.777  29.950   7.064
 3548POPC   C4A46302  26.769  29.944   7.364
 3548POPC   C1B46303  26.772  30.172   6.464
 3548POPC   C2B46304  26.722  30.210   6.764
 3548POPC   C3B46305  26.779  30.179   7.064
 3548POPC   C4B46306  26.772  30.117   7.364
 3549POPC   NC346307  12.042  10.564   5.564
 3549POPC   PO446308  12.071  10.495   5.864
 3549POPC   GL146309  12.044  10.504   6.164
 3549POPC   GL246310  12.045  10.354   6.164
 3549POPC   C1A46311  12.123  10.537   6.464
 3549POPC   D2A46312  12.124  10.570   6.764
 3549POPC   C3A46313  12.101  10.483   7.064
 3549POPC   C4A46314  12.065  10.570   7.364
 3549POPC   C1B46315  12.045  10.229   6.464
 3549POPC   C2B46316  12.110  10.319   6.764
 3549POPC   C3B46317  12.112  10.260   7.064
 3549POPC   C4B46318  12.052  10.284   7.364
 3550POPC   NC346319  34.537  20.576   5.564
 3550POPC   PO446320  34.581  20.651   5.864
 3550POPC   GL146321  34.533  20.607   6.164
 3550POPC   GL246322  34.665  20.709   6.164
 3550POPC   C1A46323  34.581  20.660   6.464
 3550POPC   D2A46324  34.548  20.580   6.764
 3550POPC   C3A46325  34.618  20.650   7.064
 3550POPC   C4A46326  34.560  20.604   7.364
 3550POPC   C1B46327  34.674  20.777   6.464
 3550POPC   C2B46328  34.673  20.872   6.764
 3550POPC   C3B46329  34.721  20.811   7.064
 3550POPC   C4B46330  34.740  20.797   7.364
 3551POPC   NC346331  30.743  22.928   5.564
 3551POPC   PO446332  30.737  22.913   5.864
 3551POPC   GL146333  30.730  22.966   6.164
 3551POPC   GL246334  30.763  22.826   6.164
 3551POPC   C1A46335  30.713  22.964   6.464
 3551POPC   D2A46336  30.724  22.977   6.764
 3551POPC   C3A46337  30.661  22.896   7.064
 3551POPC   C4A46338  30.729  22.968   7.364
 3551POPC   C1B46339  30.710  22.714   6.464
 3551POPC   C2B46340  30.765  22.692   6.764
 3551POPC   C3B46341  30.771  22.644   7.064
 3551POPC   C4B46342  30.722  22.706   7.364
 3552POPC   NC346343  14.379  12.095   5.564
 3552POPC   PO446344  14.449  12.123   5.864
 3552POPC   GL146345  14.434  12.111   6.164
 3552POPC   GL246346  14.521  12.114   6.164
 3552POPC   C1A46347  14.384  12.117   6.464
 3552POPC   D2A46348  14.389  12.040   6.764
 3552POPC   C3A46349  14.375  12.087   7.064
 3552POPC   C4A46350  14.395  12.084   7.364
 3552POPC   C1B46351  14.678  12.079   6.464
 3552POPC   C2B46352  14.647  12.121   6.764
 3552POPC   C3B46353  14.625  12.125   7.064
 3552POPC   C4B46354  14.661  12.083   7.364
 3553POPC   NC346355  40.823  29.922   5.564
 3553POPC   PO446356  40.816  29.967   5.864
 3553POPC   GL146357  40.798  29.960   6.164
 3553POPC   GL246358  40.687  29.907   6.164
 3553POPC   C1A46359  40.753  29.970   6.464
 3553POPC   D2A46360  40.785  29.948   6.764
 3553POPC   C3A46361  40.741  29.938   7.064
 3553POPC   C4A46362  40.744  29.942   7.364
 3553POPC   C1B46363  40.525  29.912   6.464
 3553POPC   C2B46364  40.569  29.975   6.764
 3553POPC   C3B46365  40.581  29.969   7.064
 3553POPC   C4B46366  40.490  29.978   7.364
 3554POPC   NC346367  12.813  12.076   5.564
 3554POPC   PO446368  12.897  12.086   5.864
 3554POPC   GL146369  12.870  12.061   6.164
 3554POPC   GL246370  12.943  12.133   6.164
 3554POPC   C1A46371  12.861  12.118   6.464
 3554POPC   D2A46372  12.830  12.107   6.764
 3554POPC   C3A46373  12.862  12.057   7.064
 3554POPC   C4A46374  12.853  12.035   7.364
 3554POPC   C1B46375  13.029  12.323   6.464
 3554POPC   C2B46376  12.997  12.308   6.764
 3554POPC   C3B46377  12.957  12.326   7.064
 3554POPC   C4B46378  12.997  12.320   7.364
 3555POPC   NC346379  24.527   5.901   5.564
 3555POPC   PO446380  24.457   5.831   5.864
 3555POPC   GL146381  24.508   5.901   6.164
 3555POPC   GL246382  24.351   5.878   6.164
 3555POPC   C1A46383  24.498   5.856   6.464
 3555POPC   D2A46384  24.532   5.886   6.764
 3555POPC   C3A46385  24.481   5.882   7.064
 3555POPC   C4A46386  24.538   5.913   7.364
 3555POPC   C1B46387  24.249   5.843   6.464
 3555POPC   C2B46388  24.213   5.925   6.764
 3555POPC   C3B46389  24.253   5.896   7.064
 3555POPC   C4B46390  24.283   5.903   7.364
 3556POPC   NC346391  32.297  15.200   5.564
 3556POPC   PO446392  32.242  15.152   5.864
 3556POPC   GL146393  32.289  15.160   6.164
 3556POPC   GL246394  32.211  15.234   6.164
 3556POPC   C1A46395  32.262  15.181   6.464
 3556POPC   D2A46396  32.254  15.166   6.764
 3556POPC   C3A46397  32.280  15.162   7.064
 3556POPC   C4A46398  32.282  15.146   7.364
 3556POPC   C1B46399  32.027  15.380   6.464
 3556POPC   C2B46400  32.064  15.342   6.764
 3556POPC   C3B46401  32.026  15.385   7.064
 3556POPC   C4B46402  32.101  15.402   7.364
 3557POPC   NC346403   6.677  43.838   5.564
 3557POPC   PO446404   6.659  43.921   5.864
 3557POPC   GL146405   6.640  43.842   6.164
 3557POPC   GL246406   6.765  43.880   6.164
 3557POPC   C1A46407   6.600  43.911   6.464
 3557POPC   D2A46408   6.678  43.896   6.764
 3557POPC   C3A46409   6.670  43.857   7.064
 3557POPC   C4A46410   6.629  43.923   7.364
 3557POPC   C1B46411   6.934  43.907   6.464
 3557POPC   C2B46412   6.899  43.957   6.764
 3557POPC   C3B46413   6.893  43.976   7.064
 3557POPC   C4B46414   6.848  44.003   7.364
 3558POPC   NC346415  18.252   8.155   5.564
 3558POPC   PO446416  18.241   8.238   5.864
 3558POPC   GL146417  18.248   8.196   6.164
 3558POPC   GL246418  18.373   8.159   6.164
 3558POPC   C1A46419  18.261   8.246   6.464
 3558POPC   D2A46420  18.318   8.188   6.764
 3558POPC   C3A46421  18.271   8.173   7.064
 3558POPC   C4A46422  18.246   8.157   7.364
 3558POPC   C1B46423  18.518   8.270   6.464
 3558POPC   C2B46424  18.516   8.218   6.764
 3558POPC   C3B46425  18.540   8.184   7.064
 3558POPC   C4B46426  18.483   8.242   7.364
 3559POPC   NC346427  11.302  44.648   5.564
 3559POPC   PO446428  11.319  44.619   5.864
 3559POPC   GL146429  11.254  44.659   6.164
 3559POPC   GL246430  11.379  44.699   6.164
 3559POPC   C1A46431  11.289  44.704   6.464
 3559POPC   D2A46432  11.287  44.681   6.764
 3559POPC   C3A46433  11.322  44.613   7.064
 3559POPC   C4A46434  11.331  44.678   7.364
 3559POPC   C1B46435  11.598  44.686   6.464
 3559POPC   C2B46436  11.535  44.608   6.764
 3559POPC   C3B46437  11.564  44.649   7.064
 3559POPC   C4B46438  11.561  44.683   7.364
 3560POPC   NC346439  43.072  12.079   5.564
 3560POPC   PO446440  43.061  12.033   5.864
 3560POPC   GL146441  43.154  12.053   6.164
 3560POPC   GL246442  43.178  11.936   6.164
 3560POPC   C1A46443  43.132  12.076   6.464
 3560POPC   D2A46444  43.112  12.032   6.764
 3560POPC   C3A46445  43.147  12.125   7.064
 3560POPC   C4A46446  43.098  12.105   7.364
 3560POPC   C1B46447  43.194  11.859   6.464
 3560POPC   C2B46448  43.200  11.912   6.764
 3560POPC   C3B46449  43.255  11.879   7.064
 3560POPC   C4B46450  43.249  11.833   7.364
 3561POPC   NC346451  21.413  42.304   5.564
 3561POPC   PO446452  21.416  42.348   5.864
 3561POPC   GL146453  21.390  42.329   6.164
 3561POPC   GL246454  21.452  42.421   6.164
 3561POPC   C1A46455  21.365  42.310   6.464
 3561POPC   D2A46456  21.388  42.285   6.764
 3561POPC   C3A46457  21.414  42.353   7.064
 3561POPC   C4A46458  21.373  42.300   7.364
 3561POPC   C1B46459  21.433  42.601   6.464
 3561POPC   C2B46460  21.437  42.562   6.764
 3561POPC   C3B46461  21.410  42.616   7.064
 3561POPC   C4B46462  21.420  42.609   7.364
 3562POPC   NC346463  44.682  29.934   5.564
 3562POPC   PO446464  44.621  29.916   5.864
 3562POPC   GL146465  44.712  29.936   6.164
 3562POPC   GL246466  44.718  29.843   6.164
 3562POPC   C1A46467  44.660  29.894   6.464
 3562POPC   D2A46468  44.643  29.892   6.764
 3562POPC   C3A46469  44.684  29.940   7.064
 3562POPC   C4A46470  44.621  29.926   7.364
 3562POPC   C1B46471  44.778  29.759   6.464
 3562POPC   C2B46472  44.772  29.707   6.764
 3562POPC   C3B46473  44.848  29.696   7.064
 3562POPC   C4B46474  44.861  29.684   7.364
 3563POPC   NC346475  18.319  26.820   5.564
 3563POPC   PO446476  18.280  26.847   5.864
 3563POPC   GL146477  18.261  26.813   6.164
 3563POPC   GL246478  18.222  26.949   6.164
 3563POPC   C1A46479  18.270  26.781   6.464
 3563POPC   D2A46480  18.292  26.836   6.764
 3563POPC   C3A46481  18.260  26.848   7.064
 3563POPC   C4A46482  18.251  26.808   7.364
 3563POPC   C1B46483  18.114  26.980   6.464
 3563POPC   C2B46484  18.053  27.004   6.764
 3563POPC   C3B46485  18.128  26.990   7.064
 3563POPC   C4B46486  18.059  26.946   7.364
 3564POPC   NC346487  14.436  41.540   5.564
 3564POPC   PO446488  14.421  41.543   5.864
 3564POPC   GL146489  14.370  41.597   6.164
 3564POPC   GL246490  14.386  41.632   6.164
 3564POPC   C1A46491  14.420  41.517   6.464
 3564POPC   D2A46492  14.381  41.539   6.764
 3564POPC   C3A46493  14.359  41.563   7.064
 3564POPC   C4A46494  14.420  41.551   7.364
 3564POPC   C1B46495  14.321  41.812   6.464
 3564POPC   C2B46496  14.325  41.759   6.764
 3564POPC   C3B46497  14.407  41.785   7.064
 3564POPC   C4B46498  14.343  41.756   7.364
 3565POPC   NC346499  20.573  15.947   5.564
 3565POPC   PO446500  20.613  15.966   5.864
 3565POPC   GL146501  20.603  15.908   6.164
 3565POPC   GL246502  20.465  15.940   6.164
 3565POPC   C1A46503  20.600  15.992   6.464
 3565POPC   D2A46504  20.591  15.949   6.764
 3565POPC   C3A46505  20.590  16.004   7.064
 3565POPC   C4A46506  20.589  15.912   7.364
 3565POPC   C1B46507  20.344  15.878   6.464
 3565POPC   C2B46508  20.363  15.880   6.764
 3565POPC   C3B46509  20.362  15.947   7.064
 3565POPC   C4B46510  20.350  15.859   7.364
 3566POPC   NC346511  22.910  27.603   5.564
 3566POPC   PO446512  22.969  27.565   5.864
 3566POPC   GL146513  22.923  27.573   6.164
 3566POPC   GL246514  22.826  27.642   6.164
 3566POPC   C1A46515  22.942  27.635   6.464
 3566POPC   D2A46516  22.949  27.602   6.764
 3566POPC   C3A46517  22.930  27.561   7.064
 3566POPC   C4A46518  22.974  27.616   7.364
 3566POPC   C1B46519  22.736  27.807   6.464
 3566POPC   C2B46520  22.738  27.743   6.764
 3566POPC   C3B46521  22.744  27.817   7.064
 3566POPC   C4B46522  22.788  27.774   7.364
 3567POPC   NC346523  15.920  40.816   5.564
 3567POPC   PO446524  15.981  40.811   5.864
 3567POPC   GL146525  15.945  40.779   6.164
 3567POPC   GL246526  15.862  40.920   6.164
 3567POPC   C1A46527  15.940  40.796   6.464
 3567POPC   D2A46528  15.981  40.769   6.764
 3567POPC   C3A46529  15.926  40.819   7.064
 3567POPC   C4A46530  15.948  40.761   7.364
 3567POPC   C1B46531  15.816  40.988   6.464
 3567POPC   C2B46532  15.814  41.022   6.764
 3567POPC   C3B46533  15.870  41.021   7.064
 3567POPC   C4B46534  15.807  41.047   7.364
 3568POPC   NC346535   9.012  14.429   5.564
 3568POPC   PO446536   8.955  14.384   5.864
 3568POPC   GL146537   8.966  14.411   6.164
 3568POPC   GL246538   8.856  14.319   6.164
 3568POPC   C1A46539   8.986  14.409   6.464
 3568POPC   D2A46540   9.010  14.449   6.764
 3568POPC   C3A46541   8.999  14.424   7.064
 3568POPC   C4A46542   9.001  14.413   7.364
 3568POPC   C1B46543   8.699  14.336   6.464
 3568POPC   C2B46544   8.697  14.290   6.764
 3568POPC   C3B46545   8.735  14.271   7.064
 3568POPC   C4B46546   8.752  14.307   7.364
 3569POPC   NC346547  43.875  31.452   5.564
 3569POPC   PO446548  43.859  31.465   5.864
 3569POPC   GL146549  43.860  31.481   6.164
 3569POPC   GL246550  43.811  31.415   6.164
 3569POPC   C1A46551  43.872  31.519   6.464
 3569POPC   D2A46552  43.927  31.447   6.764
 3569POPC   C3A46553  43.910  31.520   7.064
 3569POPC   C4A46554  43.870  31.478   7.364
 3569POPC   C1B46555  43.635  31.454   6.464
 3569POPC   C2B46556  43.679  31.454   6.764
 3569POPC   C3B46557  43.618  31.430   7.064
 3569POPC   C4B46558  43.653  31.405   7.364
 3570POPC   NC346559  35.352   0.451   5.564
 3570POPC   PO446560  35.387   0.407   5.864
 3570POPC   GL146561  35.335   0.447   6.164
 3570POPC   GL246562  35.329   0.588   6.164
 3570POPC   C1A46563  35.398   0.399   6.464
 3570POPC   D2A46564  35.349   0.403   6.764
 3570POPC   C3A46565  35.302   0.454   7.064
 3570POPC   C4A46566  35.316   0.486   7.364
 3570POPC   C1B46567  35.189   0.600   6.464
 3570POPC   C2B46568  35.203   0.668   6.764
 3570POPC   C3B46569  35.229   0.679   7.064
 3570POPC   C4B46570  35.251   0.621   7.364
 3571POPC   NC346571  30.745  15.947   5.564
 3571POPC   PO446572  30.714  15.971   5.864
 3571POPC   GL146573  30.658  15.979   6.164
 3571POPC   GL246574  30.695  15.859   6.164
 3571POPC   C1A46575  30.667  15.918   6.464
 3571POPC   D2A46576  30.708  15.972   6.764
 3571POPC   C3A46577  30.686  15.976   7.064
 3571POPC   C4A46578  30.740  15.959   7.364
 3571POPC   C1B46579  30.749  15.669   6.464
 3571POPC   C2B46580  30.791  15.735   6.764
 3571POPC   C3B46581  30.694  15.683   7.064
 3571POPC   C4B46582  30.787  15.725   7.364
 3572POPC   NC346583  28.326   3.514   5.564
 3572POPC   PO446584  28.375   3.572   5.864
 3572POPC   GL146585  28.347   3.553   6.164
 3572POPC   GL246586  28.239   3.596   6.164
 3572POPC   C1A46587  28.393   3.512   6.464
 3572POPC   D2A46588  28.353   3.576   6.764
 3572POPC   C3A46589  28.380   3.582   7.064
 3572POPC   C4A46590  28.360   3.554   7.364
 3572POPC   C1B46591  28.197   3.682   6.464
 3572POPC   C2B46592  28.195   3.688   6.764
 3572POPC   C3B46593  28.144   3.714   7.064
 3572POPC   C4B46594  28.173   3.717   7.364
 3573POPC   NC346595  28.404  22.919   5.564
 3573POPC   PO446596  28.343  22.969   5.864
 3573POPC   GL146597  28.347  22.921   6.164
 3573POPC   GL246598  28.331  23.024   6.164
 3573POPC   C1A46599  28.382  22.959   6.464
 3573POPC   D2A46600  28.362  22.949   6.764
 3573POPC   C3A46601  28.368  22.917   7.064
 3573POPC   C4A46602  28.327  22.905   7.364
 3573POPC   C1B46603  28.405  23.175   6.464
 3573POPC   C2B46604  28.414  23.218   6.764
 3573POPC   C3B46605  28.324  23.154   7.064
 3573POPC   C4B46606  28.379  23.226   7.364
 3574POPC   NC346607  14.442  15.938   5.564
 3574POPC   PO446608  14.402  15.919   5.864
 3574POPC   GL146609  14.374  15.966   6.164
 3574POPC   GL246610  14.474  16.062   6.164
 3574POPC   C1A46611  14.370  16.002   6.464
 3574POPC   D2A46612  14.402  15.946   6.764
 3574POPC   C3A46613  14.409  15.998   7.064
 3574POPC   C4A46614  14.445  15.991   7.364
 3574POPC   C1B46615  14.561  16.133   6.464
 3574POPC   C2B46616  14.612  16.119   6.764
 3574POPC   C3B46617  14.596  16.066   7.064
 3574POPC   C4B46618  14.617  16.129   7.364
 3575POPC   NC346619  30.722   5.058   5.564
 3575POPC   PO446620  30.654   5.093   5.864
 3575POPC   GL146621  30.730   5.097   6.164
 3575POPC   GL246622  30.808   5.052   6.164
 3575POPC   C1A46623  30.746   5.123   6.464
 3575POPC   D2A46624  30.660   5.127   6.764
 3575POPC   C3A46625  30.725   5.123   7.064
 3575POPC   C4A46626  30.671   5.097   7.364
 3575POPC   C1B46627  30.879   5.020   6.464
 3575POPC   C2B46628  30.909   4.960   6.764
 3575POPC   C3B46629  30.950   5.007   7.064
 3575POPC   C4B46630  30.884   4.994   7.364
 3576POPC   NC346631   7.421  22.949   5.564
 3576POPC   PO446632   7.408  22.930   5.864
 3576POPC   GL146633   7.425  22.955   6.164
 3576POPC   GL246634   7.541  22.938   6.164
 3576POPC   C1A46635   7.378  22.986   6.464
 3576POPC   D2A46636   7.396  22.919   6.764
 3576POPC   C3A46637   7.424  22.975   7.064
 3576POPC   C4A46638   7.383  22.914   7.364
 3576POPC   C1B46639   7.611  22.907   6.464
 3576POPC   C2B46640   7.695  22.837   6.764
 3576POPC   C3B46641   7.667  22.850   7.064
 3576POPC   C4B46642   7.687  22.837   7.364
 3577POPC   NC346643  43.131  42.293   5.564
 3577POPC   PO446644  43.157  42.334   5.864
 3577POPC   GL146645  43.088  42.369   6.164
 3577POPC   GL246646  43.162  42.211   6.164
 3577POPC   C1A46647  43.160  42.355   6.464
 3577POPC   D2A46648  43.134  42.361   6.764
 3577POPC   C3A46649  43.087  42.381   7.064
 3577POPC   C4A46650  43.154  42.366   7.364
 3577POPC   C1B46651  43.207  42.171   6.464
 3577POPC   C2B46652  43.197  42.124   6.764
 3577POPC   C3B46653  43.283  42.110   7.064
 3577POPC   C4B46654  43.261  42.145   7.364
 3578POPC   NC346655  11.252   5.913   5.564
 3578POPC   PO446656  11.254   5.890   5.864
 3578POPC   GL146657  11.316   5.843   6.164
 3578POPC   GL246658  11.139   5.926   6.164
 3578POPC   C1A46659  11.263   5.837   6.464
 3578POPC   D2A46660  11.268   5.837   6.764
 3578POPC   C3A46661  11.303   5.864   7.064
 3578POPC   C4A46662  11.308   5.884   7.364
 3578POPC   C1B46663  11.074   5.970   6.464
 3578POPC   C2B46664  11.096   6.007   6.764
 3578POPC   C3B46665  11.084   6.027   7.064
 3578POPC   C4B46666  11.104   5.964   7.364
 3579POPC   NC346667  28.360  14.361   5.564
 3579POPC   PO446668  28.356  14.363   5.864
 3579POPC   GL146669  28.382  14.418   6.164
 3579POPC   GL246670  28.528  14.421   6.164
 3579POPC   C1A46671  28.384  14.444   6.464
 3579POPC   D2A46672  28.360  14.368   6.764
 3579POPC   C3A46673  28.388  14.380   7.064
 3579POPC   C4A46674  28.384  14.362   7.364
 3579POPC   C1B46675  28.565  14.547   6.464
 3579POPC   C2B46676  28.586  14.500   6.764
 3579POPC   C3B46677  28.574  14.492   7.064
 3579POPC   C4B46678  28.613  14.527   7.364
 3580POPC   NC346679   3.573   7.436   5.564
 3580POPC   PO446680   3.565   7.468   5.864
 3580POPC   GL146681   3.497   7.401   6.164
 3580POPC   GL246682   3.446   7.412   6.164
 3580POPC   C1A46683   3.576   7.454   6.464
 3580POPC   D2A46684   3.556   7.377   6.764
 3580POPC   C3A46685   3.498   7.391   7.064
 3580POPC   C4A46686   3.537   7.432   7.364
 3580POPC   C1B46687   3.352   7.384   6.464
 3580POPC   C2B46688   3.331   7.297   6.764
 3580POPC   C3B46689   3.294   7.355   7.064
 3580POPC   C4B46690   3.309   7.381   7.364
 3581POPC   NC346691   9.014  30.689   5.564
 3581POPC   PO446692   8.949  30.693   5.864
 3581POPC   GL146693   8.941  30.712   6.164
 3581POPC   GL246694   9.108  30.607   6.164
 3581POPC   C1A46695   8.982  30.734   6.464
 3581POPC   D2A46696   8.984  30.651   6.764
 3581POPC   C3A46697   8.943  30.657   7.064
 3581POPC   C4A46698   8.989  30.741   7.364
 3581POPC   C1B46699   9.157  30.501   6.464
 3581POPC   C2B46700   9.171  30.569   6.764
 3581POPC   C3B46701   9.186  30.540   7.064
 3581POPC   C4B46702   9.186  30.536   7.364
 3582POPC   NC346703  16.703  29.142   5.564
 3582POPC   PO446704  16.753  29.128   5.864
 3582POPC   GL146705  16.744  29.143   6.164
 3582POPC   GL246706  16.898  29.165   6.164
 3582POPC   C1A46707  16.752  29.144   6.464
 3582POPC   D2A46708  16.684  29.123   6.764
 3582POPC   C3A46709  16.722  29.175   7.064
 3582POPC   C4A46710  16.752  29.182   7.364
 3582POPC   C1B46711  16.974  29.169   6.464
 3582POPC   C2B46712  16.989  29.164   6.764
 3582POPC   C3B46713  16.975  29.190   7.064
 3582POPC   C4B46714  17.011  29.221   7.364
 3583POPC   NC346715  19.828   1.262   5.564
 3583POPC   PO446716  19.850   1.244   5.864
 3583POPC   GL146717  19.877   1.187   6.164
 3583POPC   GL246718  19.878   1.121   6.164
 3583POPC   C1A46719  19.824   1.176   6.464
 3583POPC   D2A46720  19.836   1.244   6.764
 3583POPC   C3A46721  19.851   1.173   7.064
 3583POPC   C4A46722  19.883   1.173   7.364
 3583POPC   C1B46723  20.054   1.046   6.464
 3583POPC   C2B46724  20.056   0.991   6.764
 3583POPC   C3B46725  20.040   1.054   7.064
 3583POPC   C4B46726  20.029   1.018   7.364
 3584POPC   NC346727  28.375  21.371   5.564
 3584POPC   PO446728  28.397  21.368   5.864
 3584POPC   GL146729  28.406  21.413   6.164
 3584POPC   GL246730  28.244  21.352   6.164
 3584POPC   C1A46731  28.409  21.413   6.464
 3584POPC   D2A46732  28.419  21.410   6.764
 3584POPC   C3A46733  28.383  21.336   7.064
 3584POPC   C4A46734  28.414  21.410   7.364
 3584POPC   C1B46735  28.124  21.326   6.464
 3584POPC   C2B46736  28.099  21.344   6.764
 3584POPC   C3B46737  28.088  21.312   7.064
 3584POPC   C4B46738  28.103  21.283   7.364
 3585POPC   NC346739  44.639  36.929   5.564
 3585POPC   PO446740  44.647  36.931   5.864
 3585POPC   GL146741  44.621  36.856   6.164
 3585POPC   GL246742  44.683  37.025   6.164
 3585POPC   C1A46743  44.707  36.874   6.464
 3585POPC   D2A46744  44.684  36.907   6.764
 3585POPC   C3A46745  44.646  36.882   7.064
 3585POPC   C4A46746  44.666  36.933   7.364
 3585POPC   C1B46747  44.701  37.166   6.464
 3585POPC   C2B46748  44.708  37.133   6.764
 3585POPC   C3B46749  44.746  37.178   7.064
 3585POPC   C4B46750  44.712  37.165   7.364
 3586POPC   NC346751  10.554  28.338   5.564
 3586POPC   PO446752  10.517  28.388   5.864
 3586POPC   GL146753  10.485  28.387   6.164
 3586POPC   GL246754  10.493  28.519   6.164
 3586POPC   C1A46755  10.524  28.323   6.464
 3586POPC   D2A46756  10.568  28.352   6.764
 3586POPC   C3A46757  10.516  28.412   7.064
 3586POPC   C4A46758  10.525  28.380   7.364
 3586POPC   C1B46759  10.386  28.626   6.464
 3586POPC   C2B46760  10.356  28.531   6.764
 3586POPC   C3B46761  10.428  28.531   7.064
 3586POPC   C4B46762  10.424  28.562   7.364
 3587POPC   NC346763   8.943  43.131   5.564
 3587POPC   PO446764   8.997  43.064   5.864
 3587POPC   GL146765   8.938  43.061   6.164
 3587POPC   GL246766   9.035  43.279   6.164
 3587POPC   C1A46767   8.946  43.068   6.464
 3587POPC   D2A46768   8.926  43.079   6.764
 3587POPC   C3A46769   9.017  43.142   7.064
 3587POPC   C4A46770   9.009  43.116   7.364
 3587POPC   C1B46771   9.050  43.344   6.464
 3587POPC   C2B46772   9.043  43.315   6.764
 3587POPC   C3B46773   9.036  43.391   7.064
 3587POPC   C4B46774   8.959  43.319   7.364
 3588POPC   NC346775   6.643  43.096   5.564
 3588POPC   PO446776   6.657  43.121   5.864
 3588POPC   GL146777   6.680  43.092   6.164
 3588POPC   GL246778   6.560  43.078   6.164
 3588POPC   C1A46779   6.686  43.092   6.464
 3588POPC   D2A46780   6.691  43.112   6.764
 3588POPC   C3A46781   6.622  43.070   7.064
 3588POPC   C4A46782   6.623  43.134   7.364
 3588POPC   C1B46783   6.419  42.974   6.464
 3588POPC   C2B46784   6.422  42.986   6.764
 3588POPC   C3B46785   6.494  42.934   7.064
 3588POPC   C4B46786   6.482  42.990   7.364
 3589POPC   NC346787  27.584  14.377   5.564
 3589POPC   PO446788  27.626  14.391   5.864
 3589POPC   GL146789  27.599  14.355   6.164
 3589POPC   GL246790  27.489  14.391   6.164
 3589POPC   C1A46791  27.600  14.446   6.464
 3589POPC   D2A46792  27.591  14.449   6.764
 3589POPC   C3A46793  27.643  14.400   7.064
 3589POPC   C4A46794  27.581  14.393   7.364
 3589POPC   C1B46795  27.349  14.313   6.464
 3589POPC   C2B46796  27.361  14.312   6.764
 3589POPC   C3B46797  27.406  14.356   7.064
 3589POPC   C4B46798  27.361  14.347   7.364
 3590POPC   NC346799   1.180  35.332   5.564
 3590POPC   PO446800   1.188  35.323   5.864
 3590POPC   GL146801   1.164  35.352   6.164
 3590POPC   GL246802   1.115  35.409   6.164
 3590POPC   C1A46803   1.224  35.315   6.464
 3590POPC   D2A46804   1.234  35.401   6.764
 3590POPC   C3A46805   1.169  35.348   7.064
 3590POPC   C4A46806   1.166  35.358   7.364
 3590POPC   C1B46807   1.077  35.581   6.464
 3590POPC   C2B46808   1.039  35.501   6.764
 3590POPC   C3B46809   1.012  35.540   7.064
 3590POPC   C4B46810   1.022  35.561   7.364
 3591POPC   NC346811  25.239   5.917   5.564
 3591POPC   PO446812  25.252   5.867   5.864
 3591POPC   GL146813  25.253   5.877   6.164
 3591POPC   GL246814  25.224   5.818   6.164
 3591POPC   C1A46815  25.236   5.823   6.464
 3591POPC   D2A46816  25.288   5.859   6.764
 3591POPC   C3A46817  25.280   5.832   7.064
 3591POPC   C4A46818  25.257   5.879   7.364
 3591POPC   C1B46819  25.093   5.709   6.464
 3591POPC   C2B46820  25.139   5.656   6.764
 3591POPC   C3B46821  25.139   5.633   7.064
 3591POPC   C4B46822  25.057   5.648   7.364
 3592POPC   NC346823  32.237  19.814   5.564
 3592POPC   PO446824  32.237  19.799   5.864
 3592POPC   GL146825  32.294  19.873   6.164
 3592POPC   GL246826  32.294  19.973   6.164
 3592POPC   C1A46827  32.260  19.821   6.464
 3592POPC   D2A46828  32.248  19.822   6.764
 3592POPC   C3A46829  32.220  19.803   7.064
 3592POPC   C4A46830  32.290  19.868   7.364
 3592POPC   C1B46831  32.346  20.083   6.464
 3592POPC   C2B46832  32.354  20.120   6.764
 3592POPC   C3B46833  32.345  20.051   7.064
 3592POPC   C4B46834  32.316  20.042   7.364
 3593POPC   NC346835  41.591  22.951   5.564
 3593POPC   PO446836  41.555  22.987   5.864
 3593POPC   GL146837  41.567  22.906   6.164
 3593POPC   GL246838  41.673  22.849   6.164
 3593POPC   C1A46839  41.569  22.976   6.464
 3593POPC   D2A46840  41.529  22.976   6.764
 3593POPC   C3A46841  41.527  22.937   7.064
 3593POPC   C4A46842  41.561  22.896   7.364
 3593POPC   C1B46843  41.758  22.787   6.464
 3593POPC   C2B46844  41.705  22.769   6.764
 3593POPC   C3B46845  41.686  22.773   7.064
 3593POPC   C4B46846  41.695  22.694   7.364
 3594POPC   NC346847  35.358  21.356   5.564
 3594POPC   PO446848  35.392  21.344   5.864
 3594POPC   GL146849  35.329  21.430   6.164
 3594POPC   GL246850  35.316  21.518   6.164
 3594POPC   C1A46851  35.350  21.385   6.464
 3594POPC   D2A46852  35.306  21.405   6.764
 3594POPC   C3A46853  35.333  21.431   7.064
 3594POPC   C4A46854  35.380  21.362   7.364
 3594POPC   C1B46855  35.204  21.629   6.464
 3594POPC   C2B46856  35.205  21.546   6.764
 3594POPC   C3B46857  35.213  21.623   7.064
 3594POPC   C4B46858  35.163  21.545   7.364
 3595POPC   NC346859  19.883   4.295   5.564
 3595POPC   PO446860  19.853   4.359   5.864
 3595POPC   GL146861  19.859   4.354   6.164
 3595POPC   GL246862  19.944   4.207   6.164
 3595POPC   C1A46863  19.799   4.290   6.464
 3595POPC   D2A46864  19.881   4.293   6.764
 3595POPC   C3A46865  19.848   4.357   7.064
 3595POPC   C4A46866  19.797   4.282   7.364
 3595POPC   C1B46867  19.970   4.100   6.464
 3595POPC   C2B46868  19.963   4.136   6.764
 3595POPC   C3B46869  19.979   4.145   7.064
 3595POPC   C4B46870  19.959   4.061   7.364
 3596POPC   NC346871  38.460  42.289   5.564
 3596POPC   PO446872  38.440  42.327   5.864
 3596POPC   GL146873  38.475  42.373   6.164
 3596POPC   GL246874  38.304  42.337   6.164
 3596POPC   C1A46875  38.445  42.359   6.464
 3596POPC   D2A46876  38.440  42.297   6.764
 3596POPC   C3A46877  38.460  42.328   7.064
 3596POPC   C4A46878  38.478  42.337   7.364
 3596POPC   C1B46879  38.186  42.339   6.464
 3596POPC   C2B46880  38.242  42.312   6.764
 3596POPC   C3B46881  38.215  42.348   7.064
 3596POPC   C4B46882  38.248  42.325   7.364
 3597POPC   NC346883   8.984  33.045   5.564
 3597POPC   PO446884   8.952  33.004   5.864
 3597POPC   GL146885   9.001  33.032   6.164
 3597POPC   GL246886   8.849  32.983   6.164
 3597POPC   C1A46887   8.980  32.991   6.464
 3597POPC   D2A46888   8.974  33.015   6.764
 3597POPC   C3A46889   8.968  33.006   7.064
 3597POPC   C4A46890   8.939  33.036   7.364
 3597POPC   C1B46891   8.753  32.844   6.464
 3597POPC   C2B46892   8.793  32.828   6.764
 3597POPC   C3B46893   8.809  32.839   7.064
 3597POPC   C4B46894   8.756  32.886   7.364
 3598POPC   NC346895   3.498  19.059   5.564
 3598POPC   PO446896   3.550  19.090   5.864
 3598POPC   GL146897   3.584  19.027   6.164
 3598POPC   GL246898   3.650  19.085   6.164
 3598POPC   C1A46899   3.496  19.050   6.464
 3598POPC   D2A46900   3.568  19.047   6.764
 3598POPC   C3A46901   3.508  19.066   7.064
 3598POPC   C4A46902   3.497  19.013   7.364
 3598POPC   C1B46903   3.821  19.018   6.464
 3598POPC   C2B46904   3.774  19.005   6.764
 3598POPC   C3B46905   3.812  19.076   7.064
 3598POPC   C4B46906   3.838  19.022   7.364
 3599POPC   NC346907   7.463  14.416   5.564
 3599POPC   PO446908   7.374  14.429   5.864
 3599POPC   GL146909   7.371  14.405   6.164
 3599POPC   GL246910   7.382  14.558   6.164
 3599POPC   C1A46911   7.454  14.357   6.464
 3599POPC   D2A46912   7.462  14.374   6.764
 3599POPC   C3A46913   7.466  14.423   7.064
 3599POPC   C4A46914   7.391  14.395   7.364
 3599POPC   C1B46915   7.376  14.619   6.464
 3599POPC   C2B46916   7.385  14.618   6.764
 3599POPC   C3B46917   7.338  14.611   7.064
 3599POPC   C4B46918   7.349  14.683   7.364
 3600POPC   NC346919   8.152   9.772   5.564
 3600POPC   PO446920   8.189   9.769   5.864
 3600POPC   GL146921   8.164   9.782   6.164
 3600POPC   GL246922   8.090   9.699   6.164
 3600POPC   C1A46923   8.213   9.794   6.464
 3600POPC   D2A46924   8.178   9.782   6.764
 3600POPC   C3A46925   8.200   9.744   7.064
 3600POPC   C4A46926   8.168   9.713   7.364
 3600POPC   C1B46927   8.038   9.568   6.464
 3600POPC   C2B46928   8.072   9.547   6.764
 3600POPC   C3B46929   8.009   9.594   7.064
 3600POPC   C4B46930   8.011   9.544   7.364
 3601POPC   NC346931  24.512  25.247   5.564
 3601POPC   PO446932  24.510  25.306   5.864
 3601POPC   GL146933  24.453  25.242   6.164
 3601POPC   GL246934  24.517  25.425   6.164
 3601POPC   C1A46935  24.514  25.231   6.464
 3601POPC   D2A46936  24.459  25.282   6.764
 3601POPC   C3A46937  24.518  25.231   7.064
 3601POPC   C4A46938  24.443  25.276   7.364
 3601POPC   C1B46939  24.507  25.491   6.464
 3601POPC   C2B46940  24.602  25.465   6.764
 3601POPC   C3B46941  24.573  25.465   7.064
 3601POPC   C4B46942  24.551  25.489   7.364
 3602POPC   NC346943  29.925   6.651   5.564
 3602POPC   PO446944  29.915   6.631   5.864
 3602POPC   GL146945  29.902   6.610   6.164
 3602POPC   GL246946  29.964   6.471   6.164
 3602POPC   C1A46947  29.879   6.646   6.464
 3602POPC   D2A46948  29.953   6.605   6.764
 3602POPC   C3A46949  29.965   6.604   7.064
 3602POPC   C4A46950  29.955   6.677   7.364
 3602POPC   C1B46951  29.926   6.392   6.464
 3602POPC   C2B46952  29.990   6.416   6.764
 3602POPC   C3B46953  29.947   6.408   7.064
 3602POPC   C4B46954  29.979   6.439   7.364
 3603POPC   NC346955  21.415  29.125   5.564
 3603POPC   PO446956  21.429  29.118   5.864
 3603POPC   GL146957  21.345  29.116   6.164
 3603POPC   GL246958  21.497  29.207   6.164
 3603POPC   C1A46959  21.354  29.172   6.464
 3603POPC   D2A46960  21.424  29.164   6.764
 3603POPC   C3A46961  21.360  29.193   7.064
 3603POPC   C4A46962  21.374  29.181   7.364
 3603POPC   C1B46963  21.559  29.327   6.464
 3603POPC   C2B46964  21.562  29.379   6.764
 3603POPC   C3B46965  21.543  29.405   7.064
 3603POPC   C4B46966  21.479  29.326   7.364
 3604POPC   NC346967  38.458  39.206   5.564
 3604POPC   PO446968  38.504  39.271   5.864
 3604POPC   GL146969  38.488  39.273   6.164
 3604POPC   GL246970  38.531  39.126   6.164
 3604POPC   C1A46971  38.420  39.260   6.464
 3604POPC   D2A46972  38.450  39.223   6.764
 3604POPC   C3A46973  38.449  39.228   7.064
 3604POPC   C4A46974  38.474  39.230   7.364
 3604POPC   C1B46975  38.615  39.007   6.464
 3604POPC   C2B46976  38.609  39.020   6.764
 3604POPC   C3B46977  38.598  38.979   7.064
 3604POPC   C4B46978  38.555  39.045   7.364
 3605POPC   NC346979  13.625  11.317   5.564
 3605POPC   PO446980  13.676  11.302   5.864
 3605POPC   GL146981  13.636  11.334   6.164
 3605POPC   GL246982  13.633  11.460   6.164
 3605POPC   C1A46983  13.613  11.285   6.464
 3605POPC   D2A46984  13.651  11.303   6.764
 3605POPC   C3A46985  13.636  11.291   7.064
 3605POPC   C4A46986  13.673  11.303   7.364
 3605POPC   C1B46987  13.693  11.492   6.464
 3605POPC   C2B46988  13.749  11.505   6.764
 3605POPC   C3B46989  13.705  11.518   7.064
 3605POPC   C4B46990  13.720  11.552   7.364
 3606POPC   NC346991   5.906  31.448   5.564
 3606POPC   PO446992   5.821  31.472   5.864
 3606POPC   GL146993   5.913  31.484   6.164
 3606POPC   GL246994   5.744  31.573   6.164
 3606POPC   C1A46995   5.856  31.462   6.464
 3606POPC   D2A46996   5.859  31.438   6.764
 3606POPC   C3A46997   5.823  31.443   7.064
 3606POPC   C4A46998   5.914  31.428   7.364
 3606POPC   C1B46999   5.674  31.645   6.464
 3606POPC   C2B47000   5.699  31.665   6.764
 3606POPC   C3B47001   5.678  31.698   7.064
 3606POPC   C4B47002   5.709  31.627   7.364
 3607POPC   NC347003  41.588   9.789   5.564
 3607POPC   PO447004  41.540   9.771   5.864
 3607POPC   GL147005  41.560   9.710   6.164
 3607POPC   GL247006  41.644   9.823   6.164
 3607POPC   C1A47007  41.573   9.718   6.464
 3607POPC   D2A47008  41.568   9.785   6.764
 3607POPC   C3A47009  41.587   9.699   7.064
 3607POPC   C4A47010  41.602   9.735   7.364
 3607POPC   C1B47011  41.718   9.957   6.464
 3607POPC   C2B47012  41.749   9.935   6.764
 3607POPC   C3B47013  41.687   9.924   7.064
 3607POPC   C4B47014  41.700   9.963   7.364
 3608POPC   NC347015   7.383  31.478   5.564
 3608POPC   PO447016   7.372  31.478   5.864
 3608POPC   GL147017   7.436  31.454   6.164
 3608POPC   GL247018   7.484  31.516   6.164
 3608POPC   C1A47019   7.420  31.459   6.464
 3608POPC   D2A47020   7.380  31.446   6.764
 3608POPC   C3A47021   7.373  31.455   7.064
 3608POPC   C4A47022   7.443  31.502   7.364
 3608POPC   C1B47023   7.635  31.549   6.464
 3608POPC   C2B47024   7.678  31.568   6.764
 3608POPC   C3B47025   7.615  31.570   7.064
 3608POPC   C4B47026   7.596  31.575   7.364
 3609POPC   NC347027  31.431   7.466   5.564
 3609POPC   PO447028  31.439   7.401   5.864
 3609POPC   GL147029  31.476   7.460   6.164
 3609POPC   GL247030  31.417   7.331   6.164
 3609POPC   C1A47031  31.515   7.454   6.464
 3609POPC   D2A47032  31.508   7.460   6.764
 3609POPC   C3A47033  31.442   7.379   7.064
 3609POPC   C4A47034  31.498   7.445   7.364
 3609POPC   C1B47035  31.359   7.223   6.464
 3609POPC   C2B47036  31.344   7.238   6.764
 3609POPC   C3B47037  31.427   7.224   7.064
 3609POPC   C4B47038  31.344   7.210   7.364
 3610POPC   NC347039  13.634  28.366   5.564
 3610POPC   PO447040  13.650  28.337   5.864
 3610POPC   GL147041  13.622  28.373   6.164
 3610POPC   GL247042  13.506  28.318   6.164
 3610POPC   C1A47043  13.645  28.342   6.464
 3610POPC   D2A47044  13.621  28.341   6.764
 3610POPC   C3A47045  13.632  28.402   7.064
 3610POPC   C4A47046  13.617  28.391   7.364
 3610POPC   C1B47047  13.496  28.153   6.464
 3610POPC   C2B47048  13.470  28.170   6.764
 3610POPC   C3B47049  13.432  28.166   7.064
 3610POPC   C4B47050  13.438  28.159   7.364
 3611POPC   NC347051   9.745   3.524   5.564
 3611POPC   PO447052   9.779   3.532   5.864
 3611POPC   GL147053   9.781   3.536   6.164
 3611POPC   GL247054   9.677   3.613   6.164
 3611POPC   C1A47055   9.731   3.499   6.464
 3611POPC   D2A47056   9.739   3.561   6.764
 3611POPC   C3A47057   9.734   3.516   7.064
 3611POPC   C4A47058   9.798   3.569   7.364
 3611POPC   C1B47059   9.672   3.800   6.464
 3611POPC   C2B47060   9.651   3.763   6.764
 3611POPC   C3B47061   9.615   3.745   7.064
 3611POPC   C4B47062   9.695   3.814   7.364
 3612POPC   NC347063  33.819  25.246   5.564
 3612POPC   PO447064  33.841  25.250   5.864
 3612POPC   GL147065  33.790  25.275   6.164
 3612POPC   GL247066  33.863  25.148   6.164
 3612POPC   C1A47067  33.766  25.227   6.464
 3612POPC   D2A47068  33.805  25.269   6.764
 3612POPC   C3A47069  33.780  25.315   7.064
 3612POPC   C4A47070  33.824  25.294   7.364
 3612POPC   C1B47071  33.922  25.042   6.464
 3612POPC   C2B47072  33.921  25.012   6.764
 3612POPC   C3B47073  33.837  25.030   7.064
 3612POPC   C4B47074  33.857  25.011   7.364
 3613POPC   NC347075  16.775  11.318   5.564
 3613POPC   PO447076  16.732  11.306   5.864
 3613POPC   GL147077  16.694  11.324   6.164
 3613POPC   GL247078  16.784  11.165   6.164
 3613POPC   C1A47079  16.731  11.295   6.464
 3613POPC   D2A47080  16.689  11.340   6.764
 3613POPC   C3A47081  16.700  11.307   7.064
 3613POPC   C4A47082  16.771  11.323   7.364
 3613POPC   C1B47083  16.847  11.031   6.464
 3613POPC   C2B47084  16.799  11.087   6.764
 3613POPC   C3B47085  16.799  11.048   7.064
 3613POPC   C4B47086  16.815  11.042   7.364
 3614POPC   NC347087   1.177  26.828   5.564
 3614POPC   PO447088   1.219  26.801   5.864
 3614POPC   GL147089   1.177  26.862   6.164
 3614POPC   GL247090   1.384  26.796   6.164
 3614POPC   C1A47091   1.238  26.817   6.464
 3614POPC   D2A47092   1.248  26.851   6.764
 3614POPC   C3A47093   1.234  26.788   7.064
 3614POPC   C4A47094   1.206  26.834   7.364
 3614POPC   C1B47095   1.445  26.815   6.464
 3614POPC   C2B47096   1.424  26.794   6.764
 3614POPC   C3B47097   1.424  26.776   7.064
 3614POPC   C4B47098   1.427  26.787   7.364
 3615POPC   NC347099   7.449  18.304   5.564
 3615POPC   PO447100   7.421  18.237   5.864
 3615POPC   GL147101   7.397  18.325   6.164
 3615POPC   GL247102   7.458  18.385   6.164
 3615POPC   C1A47103   7.453  18.291   6.464
 3615POPC   D2A47104   7.426  18.238   6.764
 3615POPC   C3A47105   7.381  18.254   7.064
 3615POPC   C4A47106   7.378  18.268   7.364
 3615POPC   C1B47107   7.503  18.499   6.464
 3615POPC   C2B47108   7.500  18.576   6.764
 3615POPC   C3B47109   7.441  18.510   7.064
 3615POPC   C4B47110   7.486  18.547   7.364
 3616POPC   NC347111  17.540  12.080   5.564
 3616POPC   PO447112  17.536  12.039   5.864
 3616POPC   GL147113  17.490  12.072   6.164
 3616POPC   GL247114  17.354  12.029   6.164
 3616POPC   C1A47115  17.461  12.074   6.464
 3616POPC   D2A47116  17.492  12.114   6.764
 3616POPC   C3A47117  17.515  12.070   7.064
 3616POPC   C4A47118  17.485  12.121   7.364
 3616POPC   C1B47119  17.263  11.966   6.464
 3616POPC   C2B47120  17.261  11.897   6.764
 3616POPC   C3B47121  17.310  11.972   7.064
 3616POPC   C4B47122  17.296  11.956   7.364
 3617POPC   NC347123  38.406  15.988   5.564
 3617POPC   PO447124  38.453  15.911   5.864
 3617POPC   GL147125  38.428  15.993   6.164
 3617POPC   GL247126  38.547  15.957   6.164
 3617POPC   C1A47127  38.432  15.964   6.464
 3617POPC   D2A47128  38.488  15.965   6.764
 3617POPC   C3A47129  38.495  16.001   7.064
 3617POPC   C4A47130  38.407  15.983   7.364
 3617POPC   C1B47131  38.735  16.052   6.464
 3617POPC   C2B47132  38.679  16.059   6.764
 3617POPC   C3B47133  38.668  16.021   7.064
 3617POPC   C4B47134  38.677  16.000   7.364
 3618POPC   NC347135  39.275   5.114   5.564
 3618POPC   PO447136  39.261   5.112   5.864
 3618POPC   GL147137  39.202   5.130   6.164
 3618POPC   GL247138  39.361   5.195   6.164
 3618POPC   C1A47139  39.181   5.106   6.464
 3618POPC   D2A47140  39.246   5.071   6.764
 3618POPC   C3A47141  39.245   5.071   7.064
 3618POPC   C4A47142  39.203   5.047   7.364
 3618POPC   C1B47143  39.487   5.181   6.464
 3618POPC   C2B47144  39.449   5.188   6.764
 3618POPC   C3B47145  39.476   5.257   7.064
 3618POPC   C4B47146  39.448   5.228   7.364
 3619POPC   NC347147  11.312  10.508   5.564
 3619POPC   PO447148  11.270  10.543   5.864
 3619POPC   GL147149  11.342  10.513   6.164
 3619POPC   GL247150  11.170  10.574   6.164
 3619POPC   C1A47151  11.339  10.519   6.464
 3619POPC   D2A47152  11.330  10.498   6.764
 3619POPC   C3A47153  11.336  10.519   7.064
 3619POPC   C4A47154  11.335  10.489   7.364
 3619POPC   C1B47155  11.031  10.539   6.464
 3619POPC   C2B47156  11.033  10.542   6.764
 3619POPC   C3B47157  11.054  10.550   7.064
 3619POPC   C4B47158  11.045  10.598   7.364
 3620POPC   NC347159  39.261   5.875   5.564
 3620POPC   PO447160  39.232   5.825   5.864
 3620POPC   GL147161  39.181   5.858   6.164
 3620POPC   GL247162  39.129   5.813   6.164
 3620POPC   C1A47163  39.259   5.852   6.464
 3620POPC   D2A47164  39.258   5.897   6.764
 3620POPC   C3A47165  39.191   5.829   7.064
 3620POPC   C4A47166  39.199   5.918   7.364
 3620POPC   C1B47167  39.027   5.867   6.464
 3620POPC   C2B47168  38.957   5.775   6.764
 3620POPC   C3B47169  38.987   5.816   7.064
 3620POPC   C4B47170  38.944   5.853   7.364
 3621POPC   NC347171  34.557   9.736   5.564
 3621POPC   PO447172  34.543   9.722   5.864
 3621POPC   GL147173  34.561   9.768   6.164
 3621POPC   GL247174  34.642   9.850   6.164
 3621POPC   C1A47175  34.573   9.700   6.464
 3621POPC   D2A47176  34.609   9.702   6.764
 3621POPC   C3A47177  34.543   9.739   7.064
 3621POPC   C4A47178  34.564   9.719   7.364
 3621POPC   C1B47179  34.789   9.891   6.464
 3621POPC   C2B47180  34.750   9.884   6.764
 3621POPC   C3B47181  34.783   9.957   7.064
 3621POPC   C4B47182  34.789   9.910   7.364
 3622POPC   NC347183   1.213   1.255   5.564
 3622POPC   PO447184   1.216   1.211   5.864
 3622POPC   GL147185   1.191   1.198   6.164
 3622POPC   GL247186   1.215   1.134   6.164
 3622POPC   C1A47187   1.225   1.228   6.464
 3622POPC   D2A47188   1.179   1.173   6.764
 3622POPC   C3A47189   1.233   1.241   7.064
 3622POPC   C4A47190   1.259   1.198   7.364
 3622POPC   C1B47191   1.230   0.985   6.464
 3622POPC   C2B47192   1.256   0.982   6.764
 3622POPC   C3B47193   1.216   1.011   7.064
 3622POPC   C4B47194   1.191   0.988   7.364
 3623POPC   NC347195   9.707  19.078   5.564
 3623POPC   PO447196   9.707  19.104   5.864
 3623POPC   GL147197   9.701  19.070   6.164
 3623POPC   GL247198   9.747  18.915   6.164
 3623POPC   C1A47199   9.767  19.048   6.464
 3623POPC   D2A47200   9.795  19.053   6.764
 3623POPC   C3A47201   9.783  19.066   7.064
 3623POPC   C4A47202   9.773  19.082   7.364
 3623POPC   C1B47203   9.745  18.808   6.464
 3623POPC   C2B47204   9.794  18.823   6.764
 3623POPC   C3B47205   9.773  18.858   7.064
 3623POPC   C4B47206   9.764  18.771   7.364
 3624POPC   NC347207   7.379  12.866   5.564
 3624POPC   PO447208   7.430  12.806   5.864
 3624POPC   GL147209   7.431  12.816   6.164
 3624POPC   GL247210   7.414  12.742   6.164
 3624POPC   C1A47211   7.432  12.865   6.464
 3624POPC   D2A47212   7.434  12.829   6.764
 3624POPC   C3A47213   7.407  12.825   7.064
 3624POPC   C4A47214   7.440  12.873   7.364
 3624POPC   C1B47215   7.390  12.555   6.464
 3624POPC   C2B47216   7.403  12.564   6.764
 3624POPC   C3B47217   7.414  12.644   7.064
 3624POPC   C4B47218   7.373  12.644   7.364
 3625POPC   NC347219   5.880  27.618   5.564
 3625POPC   PO447220   5.909  27.616   5.864
 3625POPC   GL147221   5.890  27.636   6.164
 3625POPC   GL247222   5.948  27.574   6.164
 3625POPC   C1A47223   5.900  27.584   6.464
 3625POPC   D2A47224   5.819  27.559   6.764
 3625POPC   C3A47225   5.918  27.608   7.064
 3625POPC   C4A47226   5.820  27.580   7.364
 3625POPC   C1B47227   6.087  27.627   6.464
 3625POPC   C2B47228   6.080  27.642   6.764
 3625POPC   C3B47229   6.123  27.578   7.064
 3625POPC   C4B47230   6.114  27.573   7.364
 3626POPC   NC347231   7.466  26.823   5.564
 3626POPC   PO447232   7.394  26.802   5.864
 3626POPC   GL147233   7.382  26.819   6.164
 3626POPC   GL247234   7.328  26.820   6.164
 3626POPC   C1A47235   7.407  26.861   6.464
 3626POPC   D2A47236   7.375  26.813   6.764
 3626POPC   C3A47237   7.390  26.841   7.064
 3626POPC   C4A47238   7.458  26.789   7.364
 3626POPC   C1B47239   7.159  26.929   6.464
 3626POPC   C2B47240   7.204  26.934   6.764
 3626POPC   C3B47241   7.140  26.941   7.064
 3626POPC   C4B47242   7.211  26.924   7.364
 3627POPC   NC347243   1.206  36.171   5.564
 3627POPC   PO447244   1.165  36.120   5.864
 3627POPC   GL147245   1.248  36.117   6.164
 3627POPC   GL247246   1.379  36.090   6.164
 3627POPC   C1A47247   1.179  36.154   6.464
 3627POPC   D2A47248   1.231  36.084   6.764
 3627POPC   C3A47249   1.189  36.134   7.064
 3627POPC   C4A47250   1.247  36.126   7.364
 3627POPC   C1B47251   1.481  36.036   6.464
 3627POPC   C2B47252   1.459  36.050   6.764
 3627POPC   C3B47253   1.488  35.993   7.064
 3627POPC   C4B47254   1.423  36.036   7.364
 3628POPC   NC347255  10.522  41.546   5.564
 3628POPC   PO447256  10.537  41.560   5.864
 3628POPC   GL147257  10.523  41.542   6.164
 3628POPC   GL247258  10.471  41.697   6.164
 3628POPC   C1A47259  10.489  41.530   6.464
 3628POPC   D2A47260  10.564  41.555   6.764
 3628POPC   C3A47261  10.572  41.511   7.064
 3628POPC   C4A47262  10.566  41.595   7.364
 3628POPC   C1B47263  10.386  41.805   6.464
 3628POPC   C2B47264  10.391  41.780   6.764
 3628POPC   C3B47265  10.336  41.802   7.064
 3628POPC   C4B47266  10.350  41.791   7.364
 3629POPC   NC347267   3.524  37.648   5.564
 3629POPC   PO447268   3.509  37.724   5.864
 3629POPC   GL147269   3.561  37.632   6.164
 3629POPC   GL247270   3.393  37.646   6.164
 3629POPC   C1A47271   3.570  37.707   6.464
 3629POPC   D2A47272   3.574  37.715   6.764
 3629POPC   C3A47273   3.585  37.669   7.064
 3629POPC   C4A47274   3.507  37.642   7.364
 3629POPC   C1B47275   3.313  37.586   6.464
 3629POPC   C2B47276   3.305  37.494   6.764
 3629POPC   C3B47277   3.303  37.514   7.064
 3629POPC   C4B47278   3.320  37.503   7.364
 3630POPC   NC347279  23.671  11.266   5.564
 3630POPC   PO447280  23.738  11.264   5.864
 3630POPC   GL147281  23.760  11.345   6.164
 3630POPC   GL247282  23.671  11.468   6.164
 3630POPC   C1A47283  23.717  11.270   6.464
 3630POPC   D2A47284  23.752  11.265   6.764
 3630POPC   C3A47285  23.688  11.278   7.064
 3630POPC   C4A47286  23.671  11.347   7.364
 3630POPC   C1B47287  23.658  11.551   6.464
 3630POPC   C2B47288  23.713  11.545   6.764
 3630POPC   C3B47289  23.717  11.591   7.064
 3630POPC   C4B47290  23.628  11.538   7.364
 3631POPC   NC347291   6.643  28.400   5.564
 3631POPC   PO447292   6.603  28.417   5.864
 3631POPC   GL147293   6.609  28.334   6.164
 3631POPC   GL247294   6.551  28.260   6.164
 3631POPC   C1A47295   6.675  28.331   6.464
 3631POPC   D2A47296   6.633  28.359   6.764
 3631POPC   C3A47297   6.609  28.412   7.064
 3631POPC   C4A47298   6.646  28.372   7.364
 3631POPC   C1B47299   6.512  28.202   6.464
 3631POPC   C2B47300   6.506  28.125   6.764
 3631POPC   C3B47301   6.468  28.137   7.064
 3631POPC   C4B47302   6.490  28.185   7.364
 3632POPC   NC347303   7.427  26.066   5.564
 3632POPC   PO447304   7.436  26.090   5.864
 3632POPC   GL147305   7.397  26.082   6.164
 3632POPC   GL247306   7.532  26.116   6.164
 3632POPC   C1A47307   7.394  26.090   6.464
 3632POPC   D2A47308   7.409  26.050   6.764
 3632POPC   C3A47309   7.434  25.993   7.064
 3632POPC   C4A47310   7.372  26.016   7.364
 3632POPC   C1B47311   7.687  26.151   6.464
 3632POPC   C2B47312   7.615  26.181   6.764
 3632POPC   C3B47313   7.663  26.129   7.064
 3632POPC   C4B47314   7.603  26.093   7.364
 3633POPC   NC347315  42.354  34.612   5.564
 3633POPC   PO447316  42.294  34.604   5.864
 3633POPC   GL147317  42.294  34.548   6.164
 3633POPC   GL247318  42.497  34.573   6.164
 3633POPC   C1A47319  42.303  34.589   6.464
 3633POPC   D2A47320  42.376  34.533   6.764
 3633POPC   C3A47321  42.349  34.603   7.064
 3633POPC   C4A47322  42.319  34.553   7.364
 3633POPC   C1B47323  42.544  34.634   6.464
 3633POPC   C2B47324  42.617  34.696   6.764
 3633POPC   C3B47325  42.594  34.679   7.064
 3633POPC   C4B47326  42.529  34.690   7.364
 3634POPC   NC347327  14.393  15.223   5.564
 3634POPC   PO447328  14.387  15.211   5.864
 3634POPC   GL147329  14.371  15.131   6.164
 3634POPC   GL247330  14.479  15.212   6.164
 3634POPC   C1A47331  14.376  15.216   6.464
 3634POPC   D2A47332  14.389  15.178   6.764
 3634POPC   C3A47333  14.369  15.150   7.064
 3634POPC   C4A47334  14.421  15.160   7.364
 3634POPC   C1B47335  14.693  15.194   6.464
 3634POPC   C2B47336  14.691  15.169   6.764
 3634POPC   C3B47337  14.669  15.144   7.064
 3634POPC   C4B47338  14.604  15.182   7.364
 3635POPC   NC347339  26.087   2.012   5.564
 3635POPC   PO447340  26.082   1.986   5.864
 3635POPC   GL147341  26.015   2.008   6.164
 3635POPC   GL247342  26.195   1.901   6.164
 3635POPC   C1A47343  26.045   1.974   6.464
 3635POPC   D2A47344  26.056   1.983   6.764
 3635POPC   C3A47345  25.995   1.954   7.064
 3635POPC   C4A47346  26.084   2.012   7.364
 3635POPC   C1B47347  26.239   1.833   6.464
 3635POPC   C2B47348  26.269   1.871   6.764
 3635POPC   C3B47349  26.281   1.830   7.064
 3635POPC   C4B47350  26.235   1.877   7.364
 3636POPC   NC347351  36.154  19.081   5.564
 3636POPC   PO447352  36.101  19.062   5.864
 3636POPC   GL147353  36.170  19.074   6.164
 3636POPC   GL247354  36.052  18.933   6.164
 3636POPC   C1A47355  36.126  19.082   6.464
 3636POPC   D2A47356  36.178  19.097   6.764
 3636POPC   C3A47357  36.078  19.057   7.064
 3636POPC   C4A47358  36.143  19.102   7.364
 3636POPC   C1B47359  35.919  18.856   6.464
 3636POPC   C2B47360  35.959  18.877   6.764
 3636POPC   C3B47361  35.969  18.903   7.064
 3636POPC   C4B47362  35.881  18.897   7.364
 3637POPC   NC347363  31.478  43.878   5.564
 3637POPC   PO447364  31.516  43.842   5.864
 3637POPC   GL147365  31.518  43.839   6.164
 3637POPC   GL247366  31.389  43.918   6.164
 3637POPC   C1A47367  31.516  43.890   6.464
 3637POPC   D2A47368  31.431  43.917   6.764
 3637POPC   C3A47369  31.480  43.906   7.064
 3637POPC   C4A47370  31.478  43.870   7.364
 3637POPC   C1B47371  31.279  43.978   6.464
 3637POPC   C2B47372  31.195  43.913   6.764
 3637POPC   C3B47373  31.220  43.910   7.064
 3637POPC   C4B47374  31.208  44.004   7.364
 3638POPC   NC347375  42.291  23.731   5.564
 3638POPC   PO447376  42.337  23.670   5.864
 3638POPC   GL147377  42.374  23.740   6.164
 3638POPC   GL247378  42.450  23.713   6.164
 3638POPC   C1A47379  42.288  23.689   6.464
 3638POPC   D2A47380  42.351  23.754   6.764
 3638POPC   C3A47381  42.352  23.668   7.064
 3638POPC   C4A47382  42.382  23.692   7.364
 3638POPC   C1B47383  42.587  23.639   6.464
 3638POPC   C2B47384  42.579  23.682   6.764
 3638POPC   C3B47385  42.563  23.690   7.064
 3638POPC   C4B47386  42.545  23.632   7.364
 3639POPC   NC347387   8.235  23.713   5.564
 3639POPC   PO447388   8.167  23.718   5.864
 3639POPC   GL147389   8.150  23.715   6.164
 3639POPC   GL247390   8.131  23.652   6.164
 3639POPC   C1A47391   8.187  23.688   6.464
 3639POPC   D2A47392   8.221  23.669   6.764
 3639POPC   C3A47393   8.208  23.676   7.064
 3639POPC   C4A47394   8.205  23.679   7.364
 3639POPC   C1B47395   7.992  23.579   6.464
 3639POPC   C2B47396   8.028  23.555   6.764
 3639POPC   C3B47397   8.028  23.600   7.064
 3639POPC   C4B47398   8.027  23.524   7.364
 3640POPC   NC347399  27.612   0.426   5.564
 3640POPC   PO447400  27.602   0.468   5.864
 3640POPC   GL147401  27.547   0.460   6.164
 3640POPC   GL247402  27.694   0.510   6.164
 3640POPC   C1A47403  27.569   0.451   6.464
 3640POPC   D2A47404  27.569   0.472   6.764
 3640POPC   C3A47405  27.636   0.417   7.064
 3640POPC   C4A47406  27.582   0.417   7.364
 3640POPC   C1B47407  27.851   0.466   6.464
 3640POPC   C2B47408  27.833   0.509   6.764
 3640POPC   C3B47409  27.869   0.521   7.064
 3640POPC   C4B47410  27.783   0.485   7.364
 3641POPC   NC347411  12.884  28.354   5.564
 3641POPC   PO447412  12.873  28.369   5.864
 3641POPC   GL147413  12.817  28.386   6.164
 3641POPC   GL247414  12.846  28.471   6.164
 3641POPC   C1A47415  12.852  28.323   6.464
 3641POPC   D2A47416  12.852  28.345   6.764
 3641POPC   C3A47417  12.838  28.371   7.064
 3641POPC   C4A47418  12.836  28.400   7.364
 3641POPC   C1B47419  12.873  28.602   6.464
 3641POPC   C2B47420  12.890  28.632   6.764
 3641POPC   C3B47421  12.855  28.567   7.064
 3641POPC   C4B47422  12.851  28.595   7.364
 3642POPC   NC347423   3.564  14.373   5.564
 3642POPC   PO447424   3.550  14.369   5.864
 3642POPC   GL147425   3.566  14.415   6.164
 3642POPC   GL247426   3.688  14.347   6.164
 3642POPC   C1A47427   3.520  14.403   6.464
 3642POPC   D2A47428   3.561  14.406   6.764
 3642POPC   C3A47429   3.518  14.387   7.064
 3642POPC   C4A47430   3.587  14.368   7.364
 3642POPC   C1B47431   3.708  14.267   6.464
 3642POPC   C2B47432   3.719  14.214   6.764
 3642POPC   C3B47433   3.730  14.294   7.064
 3642POPC   C4B47434   3.761  14.281   7.364
 3643POPC   NC347435   2.031   8.988   5.564
 3643POPC   PO447436   2.016   9.019   5.864
 3643POPC   GL147437   1.998   8.949   6.164
 3643POPC   GL247438   1.996   8.843   6.164
 3643POPC   C1A47439   2.023   9.021   6.464
 3643POPC   D2A47440   1.991   8.975   6.764
 3643POPC   C3A47441   1.969   8.992   7.064
 3643POPC   C4A47442   1.974   8.937   7.364
 3643POPC   C1B47443   2.090   8.757   6.464
 3643POPC   C2B47444   2.020   8.761   6.764
 3643POPC   C3B47445   1.996   8.751   7.064
 3643POPC   C4B47446   2.076   8.733   7.364
 3644POPC   NC347447   7.451   8.192   5.564
 3644POPC   PO447448   7.457   8.221   5.864
 3644POPC   GL147449   7.468   8.201   6.164
 3644POPC   GL247450   7.536   8.227   6.164
 3644POPC   C1A47451   7.401   8.195   6.464
 3644POPC   D2A47452   7.454   8.234   6.764
 3644POPC   C3A47453   7.438   8.211   7.064
 3644POPC   C4A47454   7.420   8.217   7.364
 3644POPC   C1B47455   7.653   8.272   6.464
 3644POPC   C2B47456   7.703   8.237   6.764
 3644POPC   C3B47457   7.651   8.259   7.064
 3644POPC   C4B47458   7.629   8.319   7.364
 3645POPC   NC347459  23.727  28.340   5.564
 3645POPC   PO447460  23.680  28.385   5.864
 3645POPC   GL147461  23.665  28.330   6.164
 3645POPC   GL247462  23.864  28.401   6.164
 3645POPC   C1A47463  23.755  28.330   6.464
 3645POPC   D2A47464  23.712  28.412   6.764
 3645POPC   C3A47465  23.712  28.364   7.064
 3645POPC   C4A47466  23.756  28.358   7.364
 3645POPC   C1B47467  23.971  28.517   6.464
 3645POPC   C2B47468  23.930  28.512   6.764
 3645POPC   C3B47469  23.971  28.467   7.064
 3645POPC   C4B47470  23.898  28.492   7.364
 3646POPC   NC347471  31.439   2.718   5.564
 3646POPC   PO447472  31.489   2.803   5.864
 3646POPC   GL147473  31.471   2.722   6.164
 3646POPC   GL247474  31.475   2.673   6.164
 3646POPC   C1A47475  31.455   2.781   6.464
 3646POPC   D2A47476  31.505   2.763   6.764
 3646POPC   C3A47477  31.510   2.766   7.064
 3646POPC   C4A47478  31.448   2.782   7.364
 3646POPC   C1B47479  31.532   2.561   6.464
 3646POPC   C2B47480  31.559   2.526   6.764
 3646POPC   C3B47481  31.557   2.527   7.064
 3646POPC   C4B47482  31.507   2.525   7.364
 3647POPC   NC347483  31.478  14.387   5.564
 3647POPC   PO447484  31.479  14.382   5.864
 3647POPC   GL147485  31.442  14.441   6.164
 3647POPC   GL247486  31.429  14.482   6.164
 3647POPC   C1A47487  31.434  14.367   6.464
 3647POPC   D2A47488  31.506  14.440   6.764
 3647POPC   C3A47489  31.490  14.432   7.064
 3647POPC   C4A47490  31.474  14.362   7.364
 3647POPC   C1B47491  31.400  14.644   6.464
 3647POPC   C2B47492  31.428  14.677   6.764
 3647POPC   C3B47493  31.485  14.624   7.064
 3647POPC   C4B47494  31.478  14.674   7.364
 3648POPC   NC347495  33.827   1.256   5.564
 3648POPC   PO447496  33.811   1.175   5.864
 3648POPC   GL147497  33.784   1.235   6.164
 3648POPC   GL247498  33.912   1.099   6.164
 3648POPC   C1A47499  33.804   1.170   6.464
 3648POPC   D2A47500  33.822   1.250   6.764
 3648POPC   C3A47501  33.844   1.168   7.064
 3648POPC   C4A47502  33.765   1.224   7.364
 3648POPC   C1B47503  33.971   1.105   6.464
 3648POPC   C2B47504  34.041   1.055   6.764
 3648POPC   C3B47505  34.006   1.027   7.064
 3648POPC   C4B47506  33.976   1.072   7.364
 3649POPC   NC347507  17.476  16.749   5.564
 3649POPC   PO447508  17.547  16.695   5.864
 3649POPC   GL147509  17.513  16.693   6.164
 3649POPC   GL247510  17.601  16.771   6.164
 3649POPC   C1A47511  17.545  16.733   6.464
 3649POPC   D2A47512  17.511  16.683   6.764
 3649POPC   C3A47513  17.493  16.706   7.064
 3649POPC   C4A47514  17.477  16.746   7.364
 3649POPC   C1B47515  17.726  16.869   6.464
 3649POPC   C2B47516  17.739  16.901   6.764
 3649POPC   C3B47517  17.749  16.899   7.064
 3649POPC   C4B47518  17.761  16.818   7.364
 3650POPC   NC347519  39.241   1.260   5.564
 3650POPC   PO447520  39.198   1.178   5.864
 3650POPC   GL147521  39.206   1.226   6.164
 3650POPC   GL247522  39.326   1.365   6.164
 3650POPC   C1A47523  39.229   1.261   6.464
 3650POPC   D2A47524  39.205   1.218   6.764
 3650POPC   C3A47525  39.209   1.188   7.064
 3650POPC   C4A47526  39.232   1.218   7.364
 3650POPC   C1B47527  39.343   1.425   6.464
 3650POPC   C2B47528  39.289   1.484   6.764
 3650POPC   C3B47529  39.367   1.439   7.064
 3650POPC   C4B47530  39.325   1.491   7.364
 3651POPC   NC347531  35.361  25.277   5.564
 3651POPC   PO447532  35.356  25.284   5.864
 3651POPC   GL147533  35.364  25.266   6.164
 3651POPC   GL247534  35.356  25.431   6.164
 3651POPC   C1A47535  35.400  25.302   6.464
 3651POPC   D2A47536  35.321  25.250   6.764
 3651POPC   C3A47537  35.365  25.313   7.064
 3651POPC   C4A47538  35.340  25.252   7.364
 3651POPC   C1B47539  35.292  25.463   6.464
 3651POPC   C2B47540  35.247  25.553   6.764
 3651POPC   C3B47541  35.256  25.516   7.064
 3651POPC   C4B47542  35.309  25.498   7.364
 3652POPC   NC347543  18.332  36.108   5.564
 3652POPC   PO447544  18.256  36.105   5.864
 3652POPC   GL147545  18.277  36.141   6.164
 3652POPC   GL247546  18.153  36.123   6.164
 3652POPC   C1A47547  18.298  36.114   6.464
 3652POPC   D2A47548  18.250  36.121   6.764
 3652POPC   C3A47549  18.252  36.134   7.064
 3652POPC   C4A47550  18.323  36.145   7.364
 3652POPC   C1B47551  18.059  36.153   6.464
 3652POPC   C2B47552  18.043  36.221   6.764
 3652POPC   C3B47553  18.003  36.135   7.064
 3652POPC   C4B47554  18.023  36.184   7.364
 3653POPC   NC347555  26.003  12.113   5.564
 3653POPC   PO447556  26.041  12.112   5.864
 3653POPC   GL147557  25.996  12.074   6.164
 3653POPC   GL247558  25.933  11.984   6.164
 3653POPC   C1A47559  26.002  12.091   6.464
 3653POPC   D2A47560  26.044  12.028   6.764
 3653POPC   C3A47561  26.008  12.114   7.064
 3653POPC   C4A47562  25.999  12.084   7.364
 3653POPC   C1B47563  25.805  11.951   6.464
 3653POPC   C2B47564  25.849  11.903   6.764
 3653POPC   C3B47565  25.819  11.986   7.064
 3653POPC   C4B47566  25.807  11.932   7.364
 3654POPC   NC347567  36.083  42.368   5.564
 3654POPC   PO447568  36.141  42.361   5.864
 3654POPC   GL147569  36.155  42.305   6.164
 3654POPC   GL247570  35.966  42.291   6.164
 3654POPC   C1A47571  36.168  42.295   6.464
 3654POPC   D2A47572  36.124  42.305   6.764
 3654POPC   C3A47573  36.131  42.345   7.064
 3654POPC   C4A47574  36.144  42.314   7.364
 3654POPC   C1B47575  35.870  42.300   6.464
 3654POPC   C2B47576  35.850  42.302   6.764
 3654POPC   C3B47577  35.841  42.309   7.064
 3654POPC   C4B47578  35.889  42.320   7.364
 3655POPC   NC347579  26.069  32.235   5.564
 3655POPC   PO447580  25.994  32.249   5.864
 3655POPC   GL147581  25.996  32.209   6.164
 3655POPC   GL247582  26.192  32.240   6.164
 3655POPC   C1A47583  26.068  32.229   6.464
 3655POPC   D2A47584  25.998  32.246   6.764
 3655POPC   C3A47585  26.055  32.294   7.064
 3655POPC   C4A47586  26.072  32.202   7.364
 3655POPC   C1B47587  26.313  32.287   6.464
 3655POPC   C2B47588  26.321  32.265   6.764
 3655POPC   C3B47589  26.308  32.237   7.064
 3655POPC   C4B47590  26.320  32.263   7.364
 3656POPC   NC347591  15.149  36.880   5.564
 3656POPC   PO447592  15.196  36.876   5.864
 3656POPC   GL147593  15.133  36.911   6.164
 3656POPC   GL247594  15.107  37.027   6.164
 3656POPC   C1A47595  15.149  36.932   6.464
 3656POPC   D2A47596  15.147  36.899   6.764
 3656POPC   C3A47597  15.209  36.878   7.064
 3656POPC   C4A47598  15.148  36.941   7.364
 3656POPC   C1B47599  15.018  37.157   6.464
 3656POPC   C2B47600  15.032  37.089   6.764
 3656POPC   C3B47601  15.037  37.081   7.064
 3656POPC   C4B47602  15.007  37.129   7.364
 3657POPC   NC347603  18.273  19.027   5.564
 3657POPC   PO447604  18.304  19.035   5.864
 3657POPC   GL147605  18.283  19.099   6.164
 3657POPC   GL247606  18.227  18.948   6.164
 3657POPC   C1A47607  18.263  19.092   6.464
 3657POPC   D2A47608  18.296  19.089   6.764
 3657POPC   C3A47609  18.309  19.090   7.064
 3657POPC   C4A47610  18.316  19.100   7.364
 3657POPC   C1B47611  18.238  18.767   6.464
 3657POPC   C2B47612  18.251  18.787   6.764
 3657POPC   C3B47613  18.272  18.811   7.064
 3657POPC   C4B47614  18.217  18.769   7.364
 3658POPC   NC347615  39.206  43.132   5.564
 3658POPC   PO447616  39.245  43.091   5.864
 3658POPC   GL147617  39.189  43.064   6.164
 3658POPC   GL247618  39.240  43.235   6.164
 3658POPC   C1A47619  39.218  43.063   6.464
 3658POPC   D2A47620  39.221  43.097   6.764
 3658POPC   C3A47621  39.212  43.076   7.064
 3658POPC   C4A47622  39.245  43.126   7.364
 3658POPC   C1B47623  39.262  43.397   6.464
 3658POPC   C2B47624  39.242  43.399   6.764
 3658POPC   C3B47625  39.211  43.312   7.064
 3658POPC   C4B47626  39.207  43.390   7.364
 3659POPC   NC347627   7.447  30.703   5.564
 3659POPC   PO447628   7.436  30.672   5.864
 3659POPC   GL147629   7.467  30.741   6.164
 3659POPC   GL247630   7.326  30.557   6.164
 3659POPC   C1A47631   7.420  30.685   6.464
 3659POPC   D2A47632   7.433  30.726   6.764
 3659POPC   C3A47633   7.401  30.685   7.064
 3659POPC   C4A47634   7.399  30.735   7.364
 3659POPC   C1B47635   7.250  30.490   6.464
 3659POPC   C2B47636   7.276  30.520   6.764
 3659POPC   C3B47637   7.207  30.505   7.064
 3659POPC   C4B47638   7.208  30.545   7.364
 3660POPC   NC347639  29.137  29.937   5.564
 3660POPC   PO447640  29.136  29.872   5.864
 3660POPC   GL147641  29.167  29.902   6.164
 3660POPC   GL247642  29.169  30.026   6.164
 3660POPC   C1A47643  29.137  29.921   6.464
 3660POPC   D2A47644  29.155  29.912   6.764
 3660POPC   C3A47645  29.117  29.970   7.064
 3660POPC   C4A47646  29.178  29.931   7.364
 3660POPC   C1B47647  29.242  30.184   6.464
 3660POPC   C2B47648  29.223  30.143   6.764
 3660POPC   C3B47649  29.220  30.175   7.064
 3660POPC   C4B47650  29.282  30.126   7.364
 3661POPC   NC347651  19.014   9.778   5.564
 3661POPC   PO447652  19.079   9.749   5.864
 3661POPC   GL147653  19.084   9.766   6.164
 3661POPC   GL247654  18.988   9.839   6.164
 3661POPC   C1A47655  19.092   9.728   6.464
 3661POPC   D2A47656  19.075   9.762   6.764
 3661POPC   C3A47657  19.015   9.743   7.064
 3661POPC   C4A47658  19.069   9.728   7.364
 3661POPC   C1B47659  18.933   9.967   6.464
 3661POPC   C2B47660  18.976   9.980   6.764
 3661POPC   C3B47661  18.942   9.987   7.064
 3661POPC   C4B47662  18.883   9.924   7.364
 3662POPC   NC347663   8.944   5.111   5.564
 3662POPC   PO447664   8.948   5.131   5.864
 3662POPC   GL147665   8.957   5.135   6.164
 3662POPC   GL247666   9.022   5.003   6.164
 3662POPC   C1A47667   8.979   5.053   6.464
 3662POPC   D2A47668   8.998   5.058   6.764
 3662POPC   C3A47669   8.961   5.125   7.064
 3662POPC   C4A47670   8.970   5.051   7.364
 3662POPC   C1B47671   9.002   4.801   6.464
 3662POPC   C2B47672   9.058   4.846   6.764
 3662POPC   C3B47673   9.023   4.841   7.064
 3662POPC   C4B47674   8.993   4.871   7.364
 3663POPC   NC347675   5.838  39.250   5.564
 3663POPC   PO447676   5.888  39.240   5.864
 3663POPC   GL147677   5.914  39.243   6.164
 3663POPC   GL247678   5.724  39.264   6.164
 3663POPC   C1A47679   5.833  39.207   6.464
 3663POPC   D2A47680   5.888  39.207   6.764
 3663POPC   C3A47681   5.820  39.200   7.064
 3663POPC   C4A47682   5.895  39.245   7.364
 3663POPC   C1B47683   5.661  39.285   6.464
 3663POPC   C2B47684   5.626  39.316   6.764
 3663POPC   C3B47685   5.653  39.272   7.064
 3663POPC   C4B47686   5.674  39.334   7.364
 3664POPC   NC347687  17.521  21.356   5.564
 3664POPC   PO447688  17.509  21.359   5.864
 3664POPC   GL147689  17.548  21.421   6.164
 3664POPC   GL247690  17.567  21.320   6.164
 3664POPC   C1A47691  17.493  21.390   6.464
 3664POPC   D2A47692  17.508  21.430   6.764
 3664POPC   C3A47693  17.507  21.414   7.064
 3664POPC   C4A47694  17.507  21.429   7.364
 3664POPC   C1B47695  17.719  21.274   6.464
 3664POPC   C2B47696  17.748  21.209   6.764
 3664POPC   C3B47697  17.723  21.210   7.064
 3664POPC   C4B47698  17.730  21.288   7.364
 3665POPC   NC347699  35.386  29.099   5.564
 3665POPC   PO447700  35.385  29.131   5.864
 3665POPC   GL147701  35.366  29.151   6.164
 3665POPC   GL247702  35.464  29.184   6.164
 3665POPC   C1A47703  35.315  29.190   6.464
 3665POPC   D2A47704  35.315  29.113   6.764
 3665POPC   C3A47705  35.342  29.160   7.064
 3665POPC   C4A47706  35.397  29.110   7.364
 3665POPC   C1B47707  35.541  29.308   6.464
 3665POPC   C2B47708  35.598  29.261   6.764
 3665POPC   C3B47709  35.591  29.262   7.064
 3665POPC   C4B47710  35.611  29.277   7.364
 3666POPC   NC347711  38.415  43.089   5.564
 3666POPC   PO447712  38.467  43.095   5.864
 3666POPC   GL147713  38.494  43.077   6.164
 3666POPC   GL247714  38.608  43.168   6.164
 3666POPC   C1A47715  38.412  43.159   6.464
 3666POPC   D2A47716  38.452  43.102   6.764
 3666POPC   C3A47717  38.456  43.112   7.064
 3666POPC   C4A47718  38.431  43.122   7.364
 3666POPC   C1B47719  38.714  43.168   6.464
 3666POPC   C2B47720  38.686  43.139   6.764
 3666POPC   C3B47721  38.654  43.220   7.064
 3666POPC   C4B47722  38.730  43.135   7.364
 3667POPC   NC347723   8.950  31.429   5.564
 3667POPC   PO447724   8.948  31.475   5.864
 3667POPC   GL147725   9.001  31.447   6.164
 3667POPC   GL247726   8.910  31.344   6.164
 3667POPC   C1A47727   8.994  31.461   6.464
 3667POPC   D2A47728   9.005  31.467   6.764
 3667POPC   C3A47729   8.968  31.505   7.064
 3667POPC   C4A47730   8.948  31.489   7.364
 3667POPC   C1B47731   8.904  31.264   6.464
 3667POPC   C2B47732   8.870  31.272   6.764
 3667POPC   C3B47733   8.901  31.249   7.064
 3667POPC   C4B47734   8.886  31.289   7.364
 3668POPC   NC347735  19.841  33.819   5.564
 3668POPC   PO447736  19.857  33.795   5.864
 3668POPC   GL147737  19.860  33.763   6.164
 3668POPC   GL247738  19.817  33.910   6.164
 3668POPC   C1A47739  19.849  33.815   6.464
 3668POPC   D2A47740  19.874  33.837   6.764
 3668POPC   C3A47741  19.850  33.776   7.064
 3668POPC   C4A47742  19.787  33.764   7.364
 3668POPC   C1B47743  19.797  34.093   6.464
 3668POPC   C2B47744  19.775  34.040   6.764
 3668POPC   C3B47745  19.798  34.028   7.064
 3668POPC   C4B47746  19.786  34.077   7.364
 3669POPC   NC347747  17.459  43.115   5.564
 3669POPC   PO447748  17.554  43.085   5.864
 3669POPC   GL147749  17.473  43.144   6.164
 3669POPC   GL247750  17.647  43.140   6.164
 3669POPC   C1A47751  17.545  43.080   6.464
 3669POPC   D2A47752  17.459  43.113   6.764
 3669POPC   C3A47753  17.516  43.118   7.064
 3669POPC   C4A47754  17.484  43.085   7.364
 3669POPC   C1B47755  17.709  43.258   6.464
 3669POPC   C2B47756  17.760  43.203   6.764
 3669POPC   C3B47757  17.754  43.263   7.064
 3669POPC   C4B47758  17.673  43.286   7.364
 3670POPC   NC347759  27.559  36.914   5.564
 3670POPC   PO447760  27.546  36.895   5.864
 3670POPC   GL147761  27.596  36.915   6.164
 3670POPC   GL247762  27.642  37.005   6.164
 3670POPC   C1A47763  27.584  36.948   6.464
 3670POPC   D2A47764  27.638  36.878   6.764
 3670POPC   C3A47765  27.601  36.886   7.064
 3670POPC   C4A47766  27.562  36.953   7.364
 3670POPC   C1B47767  27.711  37.072   6.464
 3670POPC   C2B47768  27.769  37.092   6.764
 3670POPC   C3B47769  27.749  37.149   7.064
 3670POPC   C4B47770  27.697  37.098   7.364
 3671POPC   NC347771  38.482   5.052   5.564
 3671POPC   PO447772  38.471   5.057   5.864
 3671POPC   GL147773  38.472   5.133   6.164
 3671POPC   GL247774  38.451   5.160   6.164
 3671POPC   C1A47775  38.432   5.097   6.464
 3671POPC   D2A47776  38.461   5.092   6.764
 3671POPC   C3A47777  38.464   5.045   7.064
 3671POPC   C4A47778  38.419   5.110   7.364
 3671POPC   C1B47779  38.316   5.297   6.464
 3671POPC   C2B47780  38.333   5.296   6.764
 3671POPC   C3B47781  38.350   5.292   7.064
 3671POPC   C4B47782  38.402   5.340   7.364
 3672POPC   NC347783   2.770  36.899   5.564
 3672POPC   PO447784   2.740  36.923   5.864
 3672POPC   GL147785   2.756  36.951   6.164
 3672POPC   GL247786   2.758  36.780   6.164
 3672POPC   C1A47787   2.799  36.927   6.464
 3672POPC   D2A47788   2.787  36.864   6.764
 3672POPC   C3A47789   2.806  36.936   7.064
 3672POPC   C4A47790   2.765  36.924   7.364
 3672POPC   C1B47791   2.696  36.612   6.464
 3672POPC   C2B47792   2.769  36.654   6.764
 3672POPC   C3B47793   2.704  36.653   7.064
 3672POPC   C4B47794   2.712  36.652   7.364
 3673POPC   NC347795  20.604  30.714   5.564
 3673POPC   PO447796  20.583  30.735   5.864
 3673POPC   GL147797  20.646  30.656   6.164
 3673POPC   GL247798  20.715  30.708   6.164
 3673POPC   C1A47799  20.655  30.711   6.464
 3673POPC   D2A47800  20.646  30.722   6.764
 3673POPC   C3A47801  20.646  30.665   7.064
 3673POPC   C4A47802  20.601  30.746   7.364
 3673POPC   C1B47803  20.871  30.651   6.464
 3673POPC   C2B47804  20.890  30.640   6.764
 3673POPC   C3B47805  20.897  30.636   7.064
 3673POPC   C4B47806  20.855  30.707   7.364
 3674POPC   NC347807  24.521  32.256   5.564
 3674POPC   PO447808  24.510  32.234   5.864
 3674POPC   GL147809  24.447  32.237   6.164
 3674POPC   GL247810  24.613  32.343   6.164
 3674POPC   C1A47811  24.505  32.213   6.464
 3674POPC   D2A47812  24.517  32.200   6.764
 3674POPC   C3A47813  24.486  32.271   7.064
 3674POPC   C4A47814  24.455  32.230   7.364
 3674POPC   C1B47815  24.647  32.484   6.464
 3674POPC   C2B47816  24.670  32.417   6.764
 3674POPC   C3B47817  24.657  32.414   7.064
 3674POPC   C4B47818  24.606  32.455   7.364
 3675POPC   NC347819   9.742  12.841   5.564
 3675POPC   PO447820   9.777  12.823   5.864
 3675POPC   GL147821   9.710  12.869   6.164
 3675POPC   GL247822   9.866  12.940   6.164
 3675POPC   C1A47823   9.754  12.838   6.464
 3675POPC   D2A47824   9.736  12.874   6.764
 3675POPC   C3A47825   9.795  12.864   7.064
 3675POPC   C4A47826   9.726  12.804   7.364
 3675POPC   C1B47827   9.953  13.014   6.464
 3675POPC   C2B47828   9.978  12.933   6.764
 3675POPC   C3B47829   9.987  12.987   7.064
 3675POPC   C4B47830   9.932  12.994   7.364
 3676POPC   NC347831  32.224   4.337   5.564
 3676POPC   PO447832  32.233   4.336   5.864
 3676POPC   GL147833  32.234   4.346   6.164
 3676POPC   GL247834  32.276   4.387   6.164
 3676POPC   C1A47835  32.285   4.312   6.464
 3676POPC   D2A47836  32.199   4.299   6.764
 3676POPC   C3A47837  32.287   4.342   7.064
 3676POPC   C4A47838  32.244   4.344   7.364
 3676POPC   C1B47839  32.431   4.537   6.464
 3676POPC   C2B47840  32.381   4.523   6.764
 3676POPC   C3B47841  32.422   4.527   7.064
 3676POPC   C4B47842  32.363   4.475   7.364
 3677POPC   NC347843  16.695  27.618   5.564
 3677POPC   PO447844  16.778  27.560   5.864
 3677POPC   GL147845  16.771  27.553   6.164
 3677POPC   GL247846  16.845  27.625   6.164
 3677POPC   C1A47847  16.765  27.562   6.464
 3677POPC   D2A47848  16.681  27.606   6.764
 3677POPC   C3A47849  16.721  27.561   7.064
 3677POPC   C4A47850  16.716  27.578   7.364
 3677POPC   C1B47851  16.949  27.653   6.464
 3677POPC   C2B47852  16.985  27.686   6.764
 3677POPC   C3B47853  16.983  27.673   7.064
 3677POPC   C4B47854  17.017  27.663   7.364
 3678POPC   NC347855  16.698  21.376   5.564
 3678POPC   PO447856  16.730  21.408   5.864
 3678POPC   GL147857  16.726  21.434   6.164
 3678POPC   GL247858  16.609  21.434   6.164
 3678POPC   C1A47859  16.762  21.359   6.464
 3678POPC   D2A47860  16.702  21.346   6.764
 3678POPC   C3A47861  16.739  21.406   7.064
 3678POPC   C4A47862  16.757  21.350   7.364
 3678POPC   C1B47863  16.512  21.433   6.464
 3678POPC   C2B47864  16.452  21.463   6.764
 3678POPC   C3B47865  16.538  21.417   7.064
 3678POPC   C4B47866  16.487  21.430   7.364
 3679POPC   NC347867  24.507  27.563   5.564
 3679POPC   PO447868  24.470  27.551   5.864
 3679POPC   GL147869  24.501  27.618   6.164
 3679POPC   GL247870  24.478  27.715   6.164
 3679POPC   C1A47871  24.536  27.639   6.464
 3679POPC   D2A47872  24.514  27.567   6.764
 3679POPC   C3A47873  24.445  27.627   7.064
 3679POPC   C4A47874  24.442  27.581   7.364
 3679POPC   C1B47875  24.445  27.855   6.464
 3679POPC   C2B47876  24.514  27.806   6.764
 3679POPC   C3B47877  24.497  27.852   7.064
 3679POPC   C4B47878  24.432  27.810   7.364
 3680POPC   NC347879   3.500  40.785   5.564
 3680POPC   PO447880   3.590  40.795   5.864
 3680POPC   GL147881   3.492  40.782   6.164
 3680POPC   GL247882   3.605  40.903   6.164
 3680POPC   C1A47883   3.584  40.821   6.464
 3680POPC   D2A47884   3.527  40.788   6.764
 3680POPC   C3A47885   3.561  40.805   7.064
 3680POPC   C4A47886   3.580  40.810   7.364
 3680POPC   C1B47887   3.633  41.024   6.464
 3680POPC   C2B47888   3.663  41.048   6.764
 3680POPC   C3B47889   3.639  41.007   7.064
 3680POPC   C4B47890   3.657  40.985   7.364
 3681POPC   NC347891   5.905   5.063   5.564
 3681POPC   PO447892   5.847   5.098   5.864
 3681POPC   GL147893   5.874   5.139   6.164
 3681POPC   GL247894   5.736   5.129   6.164
 3681POPC   C1A47895   5.822   5.110   6.464
 3681POPC   D2A47896   5.909   5.069   6.764
 3681POPC   C3A47897   5.897   5.055   7.064
 3681POPC   C4A47898   5.885   5.124   7.364
 3681POPC   C1B47899   5.575   5.040   6.464
 3681POPC   C2B47900   5.651   5.090   6.764
 3681POPC   C3B47901   5.612   5.109   7.064
 3681POPC   C4B47902   5.579   5.089   7.364
 3682POPC   NC347903  35.311  26.012   5.564
 3682POPC   PO447904  35.402  26.008   5.864
 3682POPC   GL147905  35.348  26.038   6.164
 3682POPC   GL247906  35.446  26.128   6.164
 3682POPC   C1A47907  35.305  25.997   6.464
 3682POPC   D2A47908  35.392  26.045   6.764
 3682POPC   C3A47909  35.352  26.017   7.064
 3682POPC   C4A47910  35.332  26.015   7.364
 3682POPC   C1B47911  35.478  26.239   6.464
 3682POPC   C2B47912  35.516  26.251   6.764
 3682POPC   C3B47913  35.528  26.298   7.064
 3682POPC   C4B47914  35.446  26.270   7.364
 3683POPC   NC347915  29.880  32.976   5.564
 3683POPC   PO447916  29.897  33.071   5.864
 3683POPC   GL147917  29.888  32.985   6.164
 3683POPC   GL247918  29.797  33.025   6.164
 3683POPC   C1A47919  29.876  32.997   6.464
 3683POPC   D2A47920  29.921  33.054   6.764
 3683POPC   C3A47921  29.913  32.983   7.064
 3683POPC   C4A47922  29.897  33.024   7.364
 3683POPC   C1B47923  29.694  33.044   6.464
 3683POPC   C2B47924  29.661  32.954   6.764
 3683POPC   C3B47925  29.657  32.962   7.064
 3683POPC   C4B47926  29.713  32.974   7.364
 3684POPC   NC347927  10.562  26.815   5.564
 3684POPC   PO447928  10.567  26.863   5.864
 3684POPC   GL147929  10.531  26.802   6.164
 3684POPC   GL247930  10.645  26.895   6.164
 3684POPC   C1A47931  10.492  26.789   6.464
 3684POPC   D2A47932  10.532  26.820   6.764
 3684POPC   C3A47933  10.513  26.780   7.064
 3684POPC   C4A47934  10.518  26.841   7.364
 3684POPC   C1B47935  10.675  27.047   6.464
 3684POPC   C2B47936  10.664  27.017   6.764
 3684POPC   C3B47937  10.667  27.052   7.064
 3684POPC   C4B47938  10.663  27.022   7.364
 3685POPC   NC347939  43.890  26.059   5.564
 3685POPC   PO447940  43.908  26.047   5.864
 3685POPC   GL147941  43.898  26.011   6.164
 3685POPC   GL247942  43.901  26.134   6.164
 3685POPC   C1A47943  43.884  25.997   6.464
 3685POPC   D2A47944  43.912  26.081   6.764
 3685POPC   C3A47945  43.932  26.054   7.064
 3685POPC   C4A47946  43.894  26.011   7.364
 3685POPC   C1B47947  44.007  26.242   6.464
 3685POPC   C2B47948  43.987  26.304   6.764
 3685POPC   C3B47949  43.921  26.316   7.064
 3685POPC   C4B47950  43.937  26.273   7.364
 3686POPC   NC347951  43.877   4.305   5.564
 3686POPC   PO447952  43.860   4.285   5.864
 3686POPC   GL147953  43.928   4.320   6.164
 3686POPC   GL247954  43.775   4.267   6.164
 3686POPC   C1A47955  43.898   4.343   6.464
 3686POPC   D2A47956  43.930   4.330   6.764
 3686POPC   C3A47957  43.894   4.271   7.064
 3686POPC   C4A47958  43.866   4.304   7.364
 3686POPC   C1B47959  43.637   4.284   6.464
 3686POPC   C2B47960  43.623   4.344   6.764
 3686POPC   C3B47961  43.662   4.280   7.064
 3686POPC   C4B47962  43.682   4.329   7.364
 3687POPC   NC347963  16.768   9.786   5.564
 3687POPC   PO447964  16.779   9.733   5.864
 3687POPC   GL147965  16.772   9.730   6.164
 3687POPC   GL247966  16.599   9.664   6.164
 3687POPC   C1A47967  16.696   9.716   6.464
 3687POPC   D2A47968  16.729   9.792   6.764
 3687POPC   C3A47969  16.721   9.782   7.064
 3687POPC   C4A47970  16.747   9.700   7.364
 3687POPC   C1B47971  16.523   9.643   6.464
 3687POPC   C2B47972  16.449   9.660   6.764
 3687POPC   C3B47973  16.501   9.693   7.064
 3687POPC   C4B47974  16.534   9.631   7.364
 3688POPC   NC347975  42.347  33.048   5.564
 3688POPC   PO447976  42.349  33.071   5.864
 3688POPC   GL147977  42.338  32.996   6.164
 3688POPC   GL247978  42.430  33.042   6.164
 3688POPC   C1A47979  42.326  33.008   6.464
 3688POPC   D2A47980  42.312  33.036   6.764
 3688POPC   C3A47981  42.358  33.039   7.064
 3688POPC   C4A47982  42.361  33.007   7.364
 3688POPC   C1B47983  42.566  33.060   6.464
 3688POPC   C2B47984  42.626  33.014   6.764
 3688POPC   C3B47985  42.535  33.085   7.064
 3688POPC   C4B47986  42.592  33.013   7.364
 3689POPC   NC347987   2.038  15.209   5.564
 3689POPC   PO447988   1.991  15.213   5.864
 3689POPC   GL147989   1.961  15.191   6.164
 3689POPC   GL247990   2.007  15.075   6.164
 3689POPC   C1A47991   1.980  15.204   6.464
 3689POPC   D2A47992   2.029  15.142   6.764
 3689POPC   C3A47993   2.004  15.225   7.064
 3689POPC   C4A47994   1.984  15.220   7.364
 3689POPC   C1B47995   1.930  14.909   6.464
 3689POPC   C2B47996   1.938  14.937   6.764
 3689POPC   C3B47997   1.897  14.955   7.064
 3689POPC   C4B47998   1.920  14.896   7.364
 3690POPC   NC347999  16.722   0.417   5.564
 3690POPC   PO448000  16.771   0.411   5.864
 3690POPC   GL148001  16.731   0.410   6.164
 3690POPC   GL248002  16.806   0.522   6.164
 3690POPC   C1A48003  16.708   0.415   6.464
 3690POPC   D2A48004  16.693   0.413   6.764
 3690POPC   C3A48005  16.712   0.465   7.064
 3690POPC   C4A48006  16.749   0.448   7.364
 3690POPC   C1B48007  16.959   0.642   6.464
 3690POPC   C2B48008  16.939   0.588   6.764
 3690POPC   C3B48009  16.891   0.623   7.064
 3690POPC   C4B48010  16.931   0.641   7.364
 3691POPC   NC348011  12.062  30.690   5.564
 3691POPC   PO448012  12.084  30.661   5.864
 3691POPC   GL148013  12.123  30.695   6.164
 3691POPC   GL248014  12.000  30.570   6.164
 3691POPC   C1A48015  12.043  30.659   6.464
 3691POPC   D2A48016  12.044  30.655   6.764
 3691POPC   C3A48017  12.076  30.702   7.064
 3691POPC   C4A48018  12.097  30.674   7.364
 3691POPC   C1B48019  11.919  30.535   6.464
 3691POPC   C2B48020  11.928  30.484   6.764
 3691POPC   C3B48021  11.937  30.541   7.064
 3691POPC   C4B48022  11.970  30.470   7.364
 3692POPC   NC348023   5.137  43.145   5.564
 3692POPC   PO448024   5.083  43.109   5.864
 3692POPC   GL148025   5.064  43.074   6.164
 3692POPC   GL248026   5.153  43.180   6.164
 3692POPC   C1A48027   5.089  43.123   6.464
 3692POPC   D2A48028   5.127  43.130   6.764
 3692POPC   C3A48029   5.062  43.088   7.064
 3692POPC   C4A48030   5.136  43.102   7.364
 3692POPC   C1B48031   5.296  43.283   6.464
 3692POPC   C2B48032   5.281  43.243   6.764
 3692POPC   C3B48033   5.242  43.311   7.064
 3692POPC   C4B48034   5.299  43.278   7.364
 3693POPC   NC348035  13.661  21.404   5.564
 3693POPC   PO448036  13.622  21.342   5.864
 3693POPC   GL148037  13.675  21.411   6.164
 3693POPC   GL248038  13.766  21.450   6.164
 3693POPC   C1A48039  13.619  21.410   6.464
 3693POPC   D2A48040  13.652  21.354   6.764
 3693POPC   C3A48041  13.597  21.359   7.064
 3693POPC   C4A48042  13.595  21.390   7.364
 3693POPC   C1B48043  13.863  21.538   6.464
 3693POPC   C2B48044  13.845  21.503   6.764
 3693POPC   C3B48045  13.887  21.552   7.064
 3693POPC   C4B48046  13.857  21.491   7.364
 3694POPC   NC348047  10.554   1.997   5.564
 3694POPC   PO448048  10.491   1.990   5.864
 3694POPC   GL148049  10.529   2.033   6.164
 3694POPC   GL248050  10.527   2.154   6.164
 3694POPC   C1A48051  10.507   2.012   6.464
 3694POPC   D2A48052  10.486   1.966   6.764
 3694POPC   C3A48053  10.510   1.998   7.064
 3694POPC   C4A48054  10.483   2.012   7.364
 3694POPC   C1B48055  10.616   2.228   6.464
 3694POPC   C2B48056  10.630   2.203   6.764
 3694POPC   C3B48057  10.575   2.215   7.064
 3694POPC   C4B48058  10.608   2.263   7.364
 3695POPC   NC348059  19.054  25.298   5.564
 3695POPC   PO448060  19.026  25.257   5.864
 3695POPC   GL148061  19.051  25.249   6.164
 3695POPC   GL248062  18.963  25.310   6.164
 3695POPC   C1A48063  19.088  25.293   6.464
 3695POPC   D2A48064  19.049  25.285   6.764
 3695POPC   C3A48065  19.100  25.225   7.064
 3695POPC   C4A48066  19.077  25.236   7.364
 3695POPC   C1B48067  18.884  25.402   6.464
 3695POPC   C2B48068  18.832  25.473   6.764
 3695POPC   C3B48069  18.911  25.418   7.064
 3695POPC   C4B48070  18.839  25.398   7.364
 3696POPC   NC348071  29.170  41.520   5.564
 3696POPC   PO448072  29.142  41.585   5.864
 3696POPC   GL148073  29.126  41.538   6.164
 3696POPC   GL248074  29.034  41.551   6.164
 3696POPC   C1A48075  29.112  41.585   6.464
 3696POPC   D2A48076  29.187  41.599   6.764
 3696POPC   C3A48077  29.135  41.556   7.064
 3696POPC   C4A48078  29.111  41.554   7.364
 3696POPC   C1B48079  28.871  41.477   6.464
 3696POPC   C2B48080  28.895  41.508   6.764
 3696POPC   C3B48081  28.880  41.491   7.064
 3696POPC   C4B48082  28.948  41.512   7.364
 3697POPC   NC348083  29.180  19.803   5.564
 3697POPC   PO448084  29.122  19.867   5.864
 3697POPC   GL148085  29.130  19.820   6.164
 3697POPC   GL248086  29.042  19.890   6.164
 3697POPC   C1A48087  29.104  19.831   6.464
 3697POPC   D2A48088  29.111  19.830   6.764
 3697POPC   C3A48089  29.155  19.847   7.064
 3697POPC   C4A48090  29.192  19.850   7.364
 3697POPC   C1B48091  28.885  19.914   6.464
 3697POPC   C2B48092  28.946  19.945   6.764
 3697POPC   C3B48093  28.870  19.862   7.064
 3697POPC   C4B48094  28.861  19.877   7.364
 3698POPC   NC348095  21.384   9.785   5.564
 3698POPC   PO448096  21.407   9.715   5.864
 3698POPC   GL148097  21.388   9.755   6.164
 3698POPC   GL248098  21.374   9.610   6.164
 3698POPC   C1A48099  21.349   9.724   6.464
 3698POPC   D2A48100  21.384   9.726   6.764
 3698POPC   C3A48101  21.346   9.752   7.064
 3698POPC   C4A48102  21.384   9.767   7.364
 3698POPC   C1B48103  21.322   9.477   6.464
 3698POPC   C2B48104  21.335   9.459   6.764
 3698POPC   C3B48105  21.300   9.548   7.064
 3698POPC   C4B48106  21.331   9.464   7.364
 3699POPC   NC348107  19.884   5.061   5.564
 3699POPC   PO448108  19.844   5.073   5.864
 3699POPC   GL148109  19.795   5.117   6.164
 3699POPC   GL248110  19.848   5.229   6.164
 3699POPC   C1A48111  19.812   5.133   6.464
 3699POPC   D2A48112  19.882   5.074   6.764
 3699POPC   C3A48113  19.880   5.102   7.064
 3699POPC   C4A48114  19.866   5.070   7.364
 3699POPC   C1B48115  19.939   5.341   6.464
 3699POPC   C2B48116  19.911   5.372   6.764
 3699POPC   C3B48117  19.906   5.298   7.064
 3699POPC   C4B48118  19.885   5.289   7.364
 3700POPC   NC348119   3.528  28.370   5.564
 3700POPC   PO448120   3.578  28.367   5.864
 3700POPC   GL148121   3.530  28.387   6.164
 3700POPC   GL248122   3.657  28.462   6.164
 3700POPC   C1A48123   3.584  28.381   6.464
 3700POPC   D2A48124   3.535  28.399   6.764
 3700POPC   C3A48125   3.586  28.385   7.064
 3700POPC   C4A48126   3.545  28.335   7.364
 3700POPC   C1B48127   3.694  28.532   6.464
 3700POPC   C2B48128   3.737  28.526   6.764
 3700POPC   C3B48129   3.682  28.565   7.064
 3700POPC   C4B48130   3.712  28.530   7.364
 3701POPC   NC348131  24.449  19.101   5.564
 3701POPC   PO448132  24.442  19.058   5.864
 3701POPC   GL148133  24.456  19.027   6.164
 3701POPC   GL248134  24.601  19.087   6.164
 3701POPC   C1A48135  24.447  19.104   6.464
 3701POPC   D2A48136  24.478  19.046   6.764
 3701POPC   C3A48137  24.486  19.019   7.064
 3701POPC   C4A48138  24.442  19.088   7.364
 3701POPC   C1B48139  24.742  19.173   6.464
 3701POPC   C2B48140  24.705  19.177   6.764
 3701POPC   C3B48141  24.661  19.195   7.064
 3701POPC   C4B48142  24.660  19.248   7.364
 3702POPC   NC348143  12.037   3.526   5.564
 3702POPC   PO448144  12.091   3.526   5.864
 3702POPC   GL148145  12.047   3.579   6.164
 3702POPC   GL248146  12.093   3.657   6.164
 3702POPC   C1A48147  12.035   3.543   6.464
 3702POPC   D2A48148  12.028   3.542   6.764
 3702POPC   C3A48149  12.034   3.586   7.064
 3702POPC   C4A48150  12.034   3.575   7.364
 3702POPC   C1B48151  12.168   3.747   6.464
 3702POPC   C2B48152  12.231   3.751   6.764
 3702POPC   C3B48153  12.153   3.788   7.064
 3702POPC   C4B48154  12.165   3.761   7.364
 3703POPC   NC348155   6.624  17.521   5.564
 3703POPC   PO448156   6.606  17.542   5.864
 3703POPC   GL148157   6.684  17.498   6.164
 3703POPC   GL248158   6.510  17.490   6.164
 3703POPC   C1A48159   6.631  17.542   6.464
 3703POPC   D2A48160   6.644  17.541   6.764
 3703POPC   C3A48161   6.618  17.482   7.064
 3703POPC   C4A48162   6.663  17.529   7.364
 3703POPC   C1B48163   6.397  17.481   6.464
 3703POPC   C2B48164   6.437  17.422   6.764
 3703POPC   C3B48165   6.419  17.503   7.064
 3703POPC   C4B48166   6.440  17.447   7.364
 3704POPC   NC348167   8.171   5.088   5.564
 3704POPC   PO448168   8.226   5.119   5.864
 3704POPC   GL148169   8.162   5.093   6.164
 3704POPC   GL248170   8.341   5.068   6.164
 3704POPC   C1A48171   8.234   5.117   6.464
 3704POPC   D2A48172   8.229   5.070   6.764
 3704POPC   C3A48173   8.178   5.117   7.064
 3704POPC   C4A48174   8.240   5.065   7.364
 3704POPC   C1B48175   8.462   5.046   6.464
 3704POPC   C2B48176   8.479   5.062   6.764
 3704POPC   C3B48177   8.464   4.984   7.064
 3704POPC   C4B48178   8.477   4.991   7.364
 3705POPC   NC348179  28.347   4.332   5.564
 3705POPC   PO448180  28.416   4.310   5.864
 3705POPC   GL148181  28.359   4.333   6.164
 3705POPC   GL248182  28.461   4.243   6.164
 3705POPC   C1A48183  28.352   4.316   6.464
 3705POPC   D2A48184  28.357   4.279   6.764
 3705POPC   C3A48185  28.330   4.312   7.064
 3705POPC   C4A48186  28.354   4.337   7.364
 3705POPC   C1B48187  28.483   4.041   6.464
 3705POPC   C2B48188  28.468   4.107   6.764
 3705POPC   C3B48189  28.468   4.063   7.064
 3705POPC   C4B48190  28.436   4.062   7.364
 3706POPC   NC348191  33.759  40.797   5.564
 3706POPC   PO448192  33.805  40.822   5.864
 3706POPC   GL148193  33.771  40.770   6.164
 3706POPC   GL248194  33.816  40.939   6.164
 3706POPC   C1A48195  33.820  40.758   6.464
 3706POPC   D2A48196  33.810  40.740   6.764
 3706POPC   C3A48197  33.778  40.757   7.064
 3706POPC   C4A48198  33.775  40.768   7.364
 3706POPC   C1B48199  33.814  41.021   6.464
 3706POPC   C2B48200  33.830  41.031   6.764
 3706POPC   C3B48201  33.795  41.020   7.064
 3706POPC   C4B48202  33.767  41.036   7.364
 3707POPC   NC348203  44.668  43.848   5.564
 3707POPC   PO448204  44.706  43.911   5.864
 3707POPC   GL148205  44.701  43.837   6.164
 3707POPC   GL248206  44.623  43.990   6.164
 3707POPC   C1A48207  44.637  43.843   6.464
 3707POPC   D2A48208  44.667  43.852   6.764
 3707POPC   C3A48209  44.676  43.935   7.064
 3707POPC   C4A48210  44.710  43.914   7.364
 3707POPC   C1B48211  44.667  44.090   6.464
 3707POPC   C2B48212  44.600  44.106   6.764
 3707POPC   C3B48213  44.677  44.116   7.064
 3707POPC   C4B48214  44.659  44.128   7.364
 3708POPC   NC348215  26.006  36.083   5.564
 3708POPC   PO448216  26.019  36.127   5.864
 3708POPC   GL148217  26.007  36.129   6.164
 3708POPC   GL248218  26.172  36.236   6.164
 3708POPC   C1A48219  26.074  36.153   6.464
 3708POPC   D2A48220  26.036  36.127   6.764
 3708POPC   C3A48221  26.033  36.108   7.064
 3708POPC   C4A48222  26.041  36.101   7.364
 3708POPC   C1B48223  26.267  36.304   6.464
 3708POPC   C2B48224  26.222  36.258   6.764
 3708POPC   C3B48225  26.278  36.310   7.064
 3708POPC   C4B48226  26.301  36.253   7.364
 3709POPC   NC348227  12.900   5.056   5.564
 3709POPC   PO448228  12.842   5.073   5.864
 3709POPC   GL148229  12.861   5.113   6.164
 3709POPC   GL248230  12.852   5.014   6.164
 3709POPC   C1A48231  12.877   5.077   6.464
 3709POPC   D2A48232  12.843   5.063   6.764
 3709POPC   C3A48233  12.892   5.109   7.064
 3709POPC   C4A48234  12.892   5.122   7.364
 3709POPC   C1B48235  12.932   4.853   6.464
 3709POPC   C2B48236  12.948   4.891   6.764
 3709POPC   C3B48237  12.929   4.845   7.064
 3709POPC   C4B48238  12.949   4.854   7.364
 3710POPC   NC348239  15.171  42.328   5.564
 3710POPC   PO448240  15.147  42.330   5.864
 3710POPC   GL148241  15.195  42.349   6.164
 3710POPC   GL248242  15.062  42.236   6.164
 3710POPC   C1A48243  15.220  42.288   6.464
 3710POPC   D2A48244  15.159  42.337   6.764
 3710POPC   C3A48245  15.201  42.292   7.064
 3710POPC   C4A48246  15.161  42.375   7.364
 3710POPC   C1B48247  14.968  42.236   6.464
 3710POPC   C2B48248  14.984  42.277   6.764
 3710POPC   C3B48249  14.981  42.246   7.064
 3710POPC   C4B48250  14.924  42.274   7.364
 3711POPC   NC348251   1.942  29.174   5.564
 3711POPC   PO448252   2.032  29.128   5.864
 3711POPC   GL148253   1.966  29.167   6.164
 3711POPC   GL248254   2.049  28.984   6.164
 3711POPC   C1A48255   1.992  29.121   6.464
 3711POPC   D2A48256   1.973  29.184   6.764
 3711POPC   C3A48257   1.955  29.124   7.064
 3711POPC   C4A48258   2.029  29.150   7.364
 3711POPC   C1B48259   1.995  28.882   6.464
 3711POPC   C2B48260   2.014  28.932   6.764
 3711POPC   C3B48261   2.025  28.935   7.064
 3711POPC   C4B48262   2.070  28.922   7.364
 3712POPC   NC348263  17.491  15.216   5.564
 3712POPC   PO448264  17.498  15.181   5.864
 3712POPC   GL148265  17.551  15.135   6.164
 3712POPC   GL248266  17.386  15.308   6.164
 3712POPC   C1A48267  17.530  15.173   6.464
 3712POPC   D2A48268  17.475  15.140   6.764
 3712POPC   C3A48269  17.546  15.218   7.064
 3712POPC   C4A48270  17.555  15.200   7.364
 3712POPC   C1B48271  17.364  15.311   6.464
 3712POPC   C2B48272  17.360  15.321   6.764
 3712POPC   C3B48273  17.312  15.316   7.064
 3712POPC   C4B48274  17.280  15.402   7.364
 3713POPC   NC348275  42.357  22.975   5.564
 3713POPC   PO448276  42.331  22.913   5.864
 3713POPC   GL148277  42.373  22.950   6.164
 3713POPC   GL248278  42.371  22.852   6.164
 3713POPC   C1A48279  42.304  22.980   6.464
 3713POPC   D2A48280  42.288  22.938   6.764
 3713POPC   C3A48281  42.360  22.956   7.064
 3713POPC   C4A48282  42.369  22.938   7.364
 3713POPC   C1B48283  42.500  22.698   6.464
 3713POPC   C2B48284  42.482  22.704   6.764
 3713POPC   C3B48285  42.520  22.756   7.064
 3713POPC   C4B48286  42.437  22.712   7.364
 3714POPC   NC348287  36.097  22.159   5.564
 3714POPC   PO448288  36.167  22.179   5.864
 3714POPC   GL148289  36.086  22.149   6.164
 3714POPC   GL248290  36.164  22.246   6.164
 3714POPC   C1A48291  36.105  22.149   6.464
 3714POPC   D2A48292  36.080  22.125   6.764
 3714POPC   C3A48293  36.147  22.173   7.064
 3714POPC   C4A48294  36.097  22.163   7.364
 3714POPC   C1B48295  36.249  22.389   6.464
 3714POPC   C2B48296  36.218  22.403   6.764
 3714POPC   C3B48297  36.280  22.384   7.064
 3714POPC   C4B48298  36.209  22.416   7.364
 3715POPC   NC348299  43.857  43.890   5.564
 3715POPC   PO448300  43.936  43.936   5.864
 3715POPC   GL148301  43.869  43.930   6.164
 3715POPC   GL248302  44.015  43.967   6.164
 3715POPC   C1A48303  43.892  43.907   6.464
 3715POPC   D2A48304  43.920  43.882   6.764
 3715POPC   C3A48305  43.917  43.925   7.064
 3715POPC   C4A48306  43.871  43.917   7.364
 3715POPC   C1B48307  44.017  44.109   6.464
 3715POPC   C2B48308  44.054  44.035   6.764
 3715POPC   C3B48309  44.087  44.051   7.064
 3715POPC   C4B48310  44.068  44.121   7.364
 3716POPC   NC348311  39.991  16.697   5.564
 3716POPC   PO448312  40.041  16.725   5.864
 3716POPC   GL148313  40.039  16.720   6.164
 3716POPC   GL248314  40.132  16.632   6.164
 3716POPC   C1A48315  39.977  16.733   6.464
 3716POPC   D2A48316  40.032  16.774   6.764
 3716POPC   C3A48317  39.995  16.731   7.064
 3716POPC   C4A48318  40.049  16.723   7.364
 3716POPC   C1B48319  40.189  16.538   6.464
 3716POPC   C2B48320  40.160  16.564   6.764
 3716POPC   C3B48321  40.203  16.550   7.064
 3716POPC   C4B48322  40.221  16.529   7.364
 3717POPC   NC348323  37.652  35.371   5.564
 3717POPC   PO448324  37.692  35.354   5.864
 3717POPC   GL148325  37.635  35.337   6.164
 3717POPC   GL248326  37.584  35.222   6.164
 3717POPC   C1A48327  37.701  35.374   6.464
 3717POPC   D2A48328  37.682  35.339   6.764
 3717POPC   C3A48329  37.659  35.326   7.064
 3717POPC   C4A48330  37.678  35.315   7.364
 3717POPC   C1B48331  37.537  35.113   6.464
 3717POPC   C2B48332  37.591  35.134   6.764
 3717POPC   C3B48333  37.593  35.091   7.064
 3717POPC   C4B48334  37.622  35.127   7.364
 3718POPC   NC348335   0.418   6.692   5.564
 3718POPC   PO448336   0.477   6.679   5.864
 3718POPC   GL148337   0.447   6.659   6.164
 3718POPC   GL248338   0.518   6.758   6.164
 3718POPC   C1A48339   0.414   6.613   6.464
 3718POPC   D2A48340   0.474   6.636   6.764
 3718POPC   C3A48341   0.417   6.689   7.064
 3718POPC   C4A48342   0.420   6.611   7.364
 3718POPC   C1B48343   0.620   6.797   6.464
 3718POPC   C2B48344   0.659   6.840   6.764
 3718POPC   C3B48345   0.673   6.827   7.064
 3718POPC   C4B48346   0.618   6.834   7.364
 3719POPC   NC348347   0.442   0.394   5.564
 3719POPC   PO448348   0.479   0.396   5.864
 3719POPC   GL148349   0.429   0.470   6.164
 3719POPC   GL248350   0.541   0.443   6.164
 3719POPC   C1A48351   0.427   0.435   6.464
 3719POPC   D2A48352   0.413   0.478   6.764
 3719POPC   C3A48353   0.392   0.423   7.064
 3719POPC   C4A48354   0.439   0.460   7.364
 3719POPC   C1B48355   0.682   0.384   6.464
 3719POPC   C2B48356   0.730   0.420   6.764
 3719POPC   C3B48357   0.678   0.434   7.064
 3719POPC   C4B48358   0.731   0.424   7.364
 3720POPC   NC348359  15.971  36.931   5.564
 3720POPC   PO448360  15.927  36.857   5.864
 3720POPC   GL148361  15.937  36.905   6.164
 3720POPC   GL248362  16.107  36.927   6.164
 3720POPC   C1A48363  15.962  36.862   6.464
 3720POPC   D2A48364  15.946  36.879   6.764
 3720POPC   C3A48365  15.962  36.944   7.064
 3720POPC   C4A48366  15.949  36.924   7.364
 3720POPC   C1B48367  16.242  36.922   6.464
 3720POPC   C2B48368  16.162  36.943   6.764
 3720POPC   C3B48369  16.148  36.929   7.064
 3720POPC   C4B48370  16.231  37.003   7.364
 3721POPC   NC348371   7.376  43.070   5.564
 3721POPC   PO448372   7.426  43.144   5.864
 3721POPC   GL148373   7.450  43.089   6.164
 3721POPC   GL248374   7.471  43.056   6.164
 3721POPC   C1A48375   7.436  43.108   6.464
 3721POPC   D2A48376   7.433  43.094   6.764
 3721POPC   C3A48377   7.433  43.124   7.064
 3721POPC   C4A48378   7.429  43.134   7.364
 3721POPC   C1B48379   7.605  42.917   6.464
 3721POPC   C2B48380   7.644  42.913   6.764
 3721POPC   C3B48381   7.637  42.881   7.064
 3721POPC   C4B48382   7.642  42.891   7.364
 3722POPC   NC348383   6.613  12.096   5.564
 3722POPC   PO448384   6.648  12.072   5.864
 3722POPC   GL148385   6.692  12.109   6.164
 3722POPC   GL248386   6.582  11.988   6.164
 3722POPC   C1A48387   6.596  12.035   6.464
 3722POPC   D2A48388   6.607  12.062   6.764
 3722POPC   C3A48389   6.621  12.114   7.064
 3722POPC   C4A48390   6.652  12.030   7.364
 3722POPC   C1B48391   6.553  11.856   6.464
 3722POPC   C2B48392   6.595  11.863   6.764
 3722POPC   C3B48393   6.573  11.856   7.064
 3722POPC   C4B48394   6.593  11.821   7.364
 3723POPC   NC348395  36.156  23.716   5.564
 3723POPC   PO448396  36.164  23.747   5.864
 3723POPC   GL148397  36.090  23.745   6.164
 3723POPC   GL248398  36.242  23.669   6.164
 3723POPC   C1A48399  36.161  23.702   6.464
 3723POPC   D2A48400  36.107  23.693   6.764
 3723POPC   C3A48401  36.144  23.688   7.064
 3723POPC   C4A48402  36.145  23.761   7.364
 3723POPC   C1B48403  36.341  23.632   6.464
 3723POPC   C2B48404  36.362  23.631   6.764
 3723POPC   C3B48405  36.362  23.698   7.064
 3723POPC   C4B48406  36.363  23.703   7.364
 3724POPC   NC348407  30.690   5.906   5.564
 3724POPC   PO448408  30.676   5.851   5.864
 3724POPC   GL148409  30.683   5.895   6.164
 3724POPC   GL248410  30.846   5.881   6.164
 3724POPC   C1A48411  30.721   5.828   6.464
 3724POPC   D2A48412  30.736   5.914   6.764
 3724POPC   C3A48413  30.732   5.914   7.064
 3724POPC   C4A48414  30.649   5.833   7.364
 3724POPC   C1B48415  30.949   5.748   6.464
 3724POPC   C2B48416  30.893   5.838   6.764
 3724POPC   C3B48417  30.953   5.761   7.064
 3724POPC   C4B48418  30.887   5.804   7.364
 3725POPC   NC348419  15.198  26.810   5.564
 3725POPC   PO448420  15.177  26.812   5.864
 3725POPC   GL148421  15.212  26.828   6.164
 3725POPC   GL248422  15.029  26.808   6.164
 3725POPC   C1A48423  15.173  26.838   6.464
 3725POPC   D2A48424  15.188  26.841   6.764
 3725POPC   C3A48425  15.198  26.801   7.064
 3725POPC   C4A48426  15.142  26.779   7.364
 3725POPC   C1B48427  14.953  26.763   6.464
 3725POPC   C2B48428  14.960  26.801   6.764
 3725POPC   C3B48429  14.919  26.792   7.064
 3725POPC   C4B48430  14.913  26.745   7.364
 3726POPC   NC348431  19.854  12.096   5.564
 3726POPC   PO448432  19.860  12.100   5.864
 3726POPC   GL148433  19.882  12.098   6.164
 3726POPC   GL248434  19.737  12.121   6.164
 3726POPC   C1A48435  19.791  12.079   6.464
 3726POPC   D2A48436  19.882  12.037   6.764
 3726POPC   C3A48437  19.826  12.118   7.064
 3726POPC   C4A48438  19.826  12.057   7.364
 3726POPC   C1B48439  19.539  12.065   6.464
 3726POPC   C2B48440  19.569  12.074   6.764
 3726POPC   C3B48441  19.538  12.132   7.064
 3726POPC   C4B48442  19.625  12.075   7.364
 3727POPC   NC348443  21.409   3.560   5.564
 3727POPC   PO448444  21.410   3.572   5.864
 3727POPC   GL148445  21.341   3.528   6.164
 3727POPC   GL248446  21.460   3.510   6.164
 3727POPC   C1A48447  21.386   3.521   6.464
 3727POPC   D2A48448  21.341   3.578   6.764
 3727POPC   C3A48449  21.406   3.493   7.064
 3727POPC   C4A48450  21.347   3.500   7.364
 3727POPC   C1B48451  21.584   3.421   6.464
 3727POPC   C2B48452  21.636   3.430   6.764
 3727POPC   C3B48453  21.585   3.513   7.064
 3727POPC   C4B48454  21.590   3.502   7.364
 3728POPC   NC348455  12.876  29.940   5.564
 3728POPC   PO448456  12.894  29.913   5.864
 3728POPC   GL148457  12.890  29.897   6.164
 3728POPC   GL248458  12.922  29.975   6.164
 3728POPC   C1A48459  12.893  29.909   6.464
 3728POPC   D2A48460  12.832  29.949   6.764
 3728POPC   C3A48461  12.829  29.939   7.064
 3728POPC   C4A48462  12.863  29.971   7.364
 3728POPC   C1B48463  13.049  30.115   6.464
 3728POPC   C2B48464  13.056  30.148   6.764
 3728POPC   C3B48465  12.991  30.068   7.064
 3728POPC   C4B48466  13.038  30.071   7.364
 3729POPC   NC348467  44.677  22.930   5.564
 3729POPC   PO448468  44.641  22.895   5.864
 3729POPC   GL148469  44.660  22.914   6.164
 3729POPC   GL248470  44.551  22.787   6.164
 3729POPC   C1A48471  44.618  22.967   6.464
 3729POPC   D2A48472  44.625  22.903   6.764
 3729POPC   C3A48473  44.670  22.922   7.064
 3729POPC   C4A48474  44.689  22.907   7.364
 3729POPC   C1B48475  44.481  22.772   6.464
 3729POPC   C2B48476  44.562  22.743   6.764
 3729POPC   C3B48477  44.559  22.730   7.064
 3729POPC   C4B48478  44.481  22.760   7.364
 3730POPC   NC348479  40.049  18.279   5.564
 3730POPC   PO448480  39.998  18.281   5.864
 3730POPC   GL148481  39.980  18.259   6.164
 3730POPC   GL248482  40.065  18.431   6.164
 3730POPC   C1A48483  40.015  18.258   6.464
 3730POPC   D2A48484  39.960  18.263   6.764
 3730POPC   C3A48485  40.049  18.276   7.064
 3730POPC   C4A48486  40.012  18.237   7.364
 3730POPC   C1B48487  40.183  18.439   6.464
 3730POPC   C2B48488  40.135  18.447   6.764
 3730POPC   C3B48489  40.188  18.536   7.064
 3730POPC   C4B48490  40.199  18.452   7.364
 3731POPC   NC348491  30.675  36.161   5.564
 3731POPC   PO448492  30.691  36.165   5.864
 3731POPC   GL148493  30.713  36.144   6.164
 3731POPC   GL248494  30.821  36.157   6.164
 3731POPC   C1A48495  30.648  36.080   6.464
 3731POPC   D2A48496  30.743  36.166   6.764
 3731POPC   C3A48497  30.656  36.125   7.064
 3731POPC   C4A48498  30.738  36.101   7.364
 3731POPC   C1B48499  30.884  36.248   6.464
 3731POPC   C2B48500  30.905  36.228   6.764
 3731POPC   C3B48501  30.890  36.262   7.064
 3731POPC   C4B48502  30.911  36.184   7.364
 3732POPC   NC348503  19.808  34.558   5.564
 3732POPC   PO448504  19.857  34.581   5.864
 3732POPC   GL148505  19.855  34.613   6.164
 3732POPC   GL248506  19.827  34.441   6.164
 3732POPC   C1A48507  19.820  34.572   6.464
 3732POPC   D2A48508  19.834  34.529   6.764
 3732POPC   C3A48509  19.839  34.602   7.064
 3732POPC   C4A48510  19.868  34.545   7.364
 3732POPC   C1B48511  19.797  34.277   6.464
 3732POPC   C2B48512  19.802  34.356   6.764
 3732POPC   C3B48513  19.817  34.352   7.064
 3732POPC   C4B48514  19.826  34.287   7.364
 3733POPC   NC348515  10.548   6.665   5.564
 3733POPC   PO448516  10.572   6.674   5.864
 3733POPC   GL148517  10.539   6.672   6.164
 3733POPC   GL248518  10.662   6.674   6.164
 3733POPC   C1A48519  10.545   6.598   6.464
 3733POPC   D2A48520  10.516   6.599   6.764
 3733POPC   C3A48521  10.569   6.683   7.064
 3733POPC   C4A48522  10.507   6.645   7.364
 3733POPC   C1B48523  10.711   6.810   6.464
 3733POPC   C2B48524  10.765   6.755   6.764
 3733POPC   C3B48525  10.744   6.784   7.064
 3733POPC   C4B48526  10.764   6.791   7.364
 3734POPC   NC348527  12.824  22.903   5.564
 3734POPC   PO448528  12.821  22.889   5.864
 3734POPC   GL148529  12.894  22.892   6.164
 3734POPC   GL248530  12.897  22.820   6.164
 3734POPC   C1A48531  12.880  22.951   6.464
 3734POPC   D2A48532  12.876  22.934   6.764
 3734POPC   C3A48533  12.885  22.983   7.064
 3734POPC   C4A48534  12.891  22.922   7.364
 3734POPC   C1B48535  12.978  22.772   6.464
 3734POPC   C2B48536  12.950  22.774   6.764
 3734POPC   C3B48537  12.998  22.704   7.064
 3734POPC   C4B48538  12.956  22.710   7.364
 3735POPC   NC348539   7.372  42.312   5.564
 3735POPC   PO448540   7.407  42.383   5.864
 3735POPC   GL148541   7.426  42.379   6.164
 3735POPC   GL248542   7.371  42.420   6.164
 3735POPC   C1A48543   7.376  42.335   6.464
 3735POPC   D2A48544   7.427  42.292   6.764
 3735POPC   C3A48545   7.377  42.318   7.064
 3735POPC   C4A48546   7.388  42.380   7.364
 3735POPC   C1B48547   7.272  42.491   6.464
 3735POPC   C2B48548   7.237  42.546   6.764
 3735POPC   C3B48549   7.205  42.514   7.064
 3735POPC   C4B48550   7.272  42.473   7.364
 3736POPC   NC348551  25.250  34.574   5.564
 3736POPC   PO448552  25.288  34.558   5.864
 3736POPC   GL148553  25.283  34.532   6.164
 3736POPC   GL248554  25.271  34.462   6.164
 3736POPC   C1A48555  25.285  34.597   6.464
 3736POPC   D2A48556  25.246  34.613   6.764
 3736POPC   C3A48557  25.285  34.538   7.064
 3736POPC   C4A48558  25.300  34.545   7.364
 3736POPC   C1B48559  25.250  34.371   6.464
 3736POPC   C2B48560  25.214  34.346   6.764
 3736POPC   C3B48561  25.226  34.364   7.064
 3736POPC   C4B48562  25.220  34.303   7.364
 3737POPC   NC348563  16.700  20.632   5.564
 3737POPC   PO448564  16.712  20.653   5.864
 3737POPC   GL148565  16.772  20.633   6.164
 3737POPC   GL248566  16.659  20.746   6.164
 3737POPC   C1A48567  16.759  20.570   6.464
 3737POPC   D2A48568  16.727  20.654   6.764
 3737POPC   C3A48569  16.686  20.583   7.064
 3737POPC   C4A48570  16.732  20.627   7.364
 3737POPC   C1B48571  16.626  20.863   6.464
 3737POPC   C2B48572  16.612  20.787   6.764
 3737POPC   C3B48573  16.666  20.813   7.064
 3737POPC   C4B48574  16.613  20.813   7.364
 3738POPC   NC348575  36.175  26.058   5.564
 3738POPC   PO448576  36.113  25.999   5.864
 3738POPC   GL148577  36.081  26.017   6.164
 3738POPC   GL248578  36.201  26.148   6.164
 3738POPC   C1A48579  36.176  26.015   6.464
 3738POPC   D2A48580  36.090  26.006   6.764
 3738POPC   C3A48581  36.109  26.018   7.064
 3738POPC   C4A48582  36.134  26.036   7.364
 3738POPC   C1B48583  36.292  26.261   6.464
 3738POPC   C2B48584  36.345  26.204   6.764
 3738POPC   C3B48585  36.290  26.189   7.064
 3738POPC   C4B48586  36.319  26.196   7.364
 3739POPC   NC348587  24.475   7.416   5.564
 3739POPC   PO448588  24.521   7.447   5.864
 3739POPC   GL148589  24.448   7.374   6.164
 3739POPC   GL248590  24.387   7.489   6.164
 3739POPC   C1A48591  24.448   7.396   6.464
 3739POPC   D2A48592  24.508   7.380   6.764
 3739POPC   C3A48593  24.450   7.371   7.064
 3739POPC   C4A48594  24.510   7.451   7.364
 3739POPC   C1B48595  24.325   7.646   6.464
 3739POPC   C2B48596  24.358   7.607   6.764
 3739POPC   C3B48597  24.327   7.648   7.064
 3739POPC   C4B48598  24.338   7.642   7.364
 3740POPC   NC348599  37.715   0.415   5.564
 3740POPC   PO448600  37.694   0.405   5.864
 3740POPC   GL148601  37.692   0.433   6.164
 3740POPC   GL248602  37.822   0.452   6.164
 3740POPC   C1A48603  37.687   0.391   6.464
 3740POPC   D2A48604  37.666   0.457   6.764
 3740POPC   C3A48605  37.719   0.426   7.064
 3740POPC   C4A48606  37.656   0.420   7.364
 3740POPC   C1B48607  37.900   0.365   6.464
 3740POPC   C2B48608  37.890   0.396   6.764
 3740POPC   C3B48609  37.882   0.417   7.064
 3740POPC   C4B48610  37.974   0.451   7.364
 3741POPC   NC348611  12.093  15.981   5.564
 3741POPC   PO448612  12.092  15.916   5.864
 3741POPC   GL148613  12.093  15.994   6.164
 3741POPC   GL248614  12.080  16.082   6.164
 3741POPC   C1A48615  12.124  15.952   6.464
 3741POPC   D2A48616  12.083  15.945   6.764
 3741POPC   C3A48617  12.079  16.000   7.064
 3741POPC   C4A48618  12.087  15.917   7.364
 3741POPC   C1B48619  12.143  16.208   6.464
 3741POPC   C2B48620  12.175  16.231   6.764
 3741POPC   C3B48621  12.140  16.212   7.064
 3741POPC   C4B48622  12.219  16.159   7.364
 3742POPC   NC348623  32.217   5.109   5.564
 3742POPC   PO448624  32.232   5.115   5.864
 3742POPC   GL148625  32.296   5.057   6.164
 3742POPC   GL248626  32.138   5.241   6.164
 3742POPC   C1A48627  32.285   5.118   6.464
 3742POPC   D2A48628  32.211   5.136   6.764
 3742POPC   C3A48629  32.207   5.044   7.064
 3742POPC   C4A48630  32.288   5.059   7.364
 3742POPC   C1B48631  32.050   5.289   6.464
 3742POPC   C2B48632  32.129   5.302   6.764
 3742POPC   C3B48633  32.080   5.258   7.064
 3742POPC   C4B48634  32.088   5.273   7.364
 3743POPC   NC348635  10.513  17.524   5.564
 3743POPC   PO448636  10.527  17.499   5.864
 3743POPC   GL148637  10.558  17.470   6.164
 3743POPC   GL248638  10.656  17.450   6.164
 3743POPC   C1A48639  10.557  17.524   6.464
 3743POPC   D2A48640  10.534  17.517   6.764
 3743POPC   C3A48641  10.555  17.531   7.064
 3743POPC   C4A48642  10.474  17.457   7.364
 3743POPC   C1B48643  10.699  17.360   6.464
 3743POPC   C2B48644  10.780  17.329   6.764
 3743POPC   C3B48645  10.717  17.422   7.064
 3743POPC   C4B48646  10.764  17.406   7.364
 3744POPC   NC348647  38.412   3.558   5.564
 3744POPC   PO448648  38.464   3.498   5.864
 3744POPC   GL148649  38.429   3.580   6.164
 3744POPC   GL248650  38.347   3.669   6.164
 3744POPC   C1A48651  38.425   3.527   6.464
 3744POPC   D2A48652  38.442   3.532   6.764
 3744POPC   C3A48653  38.483   3.559   7.064
 3744POPC   C4A48654  38.419   3.588   7.364
 3744POPC   C1B48655  38.265   3.754   6.464
 3744POPC   C2B48656  38.331   3.692   6.764
 3744POPC   C3B48657  38.262   3.769   7.064
 3744POPC   C4B48658  38.248   3.723   7.364
 3745POPC   NC348659  27.643   5.897   5.564
 3745POPC   PO448660  27.603   5.900   5.864
 3745POPC   GL148661  27.567   5.827   6.164
 3745POPC   GL248662  27.709   5.786   6.164
 3745POPC   C1A48663  27.559   5.918   6.464
 3745POPC   D2A48664  27.545   5.854   6.764
 3745POPC   C3A48665  27.577   5.898   7.064
 3745POPC   C4A48666  27.589   5.851   7.364
 3745POPC   C1B48667  27.816   5.786   6.464
 3745POPC   C2B48668  27.777   5.727   6.764
 3745POPC   C3B48669  27.810   5.773   7.064
 3745POPC   C4B48670  27.810   5.817   7.364
 3746POPC   NC348671  26.772  14.370   5.564
 3746POPC   PO448672  26.864  14.424   5.864
 3746POPC   GL148673  26.820  14.414   6.164
 3746POPC   GL248674  26.880  14.498   6.164
 3746POPC   C1A48675  26.788  14.428   6.464
 3746POPC   D2A48676  26.864  14.359   6.764
 3746POPC   C3A48677  26.817  14.365   7.064
 3746POPC   C4A48678  26.823  14.440   7.364
 3746POPC   C1B48679  26.893  14.655   6.464
 3746POPC   C2B48680  26.853  14.663   6.764
 3746POPC   C3B48681  26.898  14.686   7.064
 3746POPC   C4B48682  26.851  14.632   7.364
 3747POPC   NC348683  19.785  29.117   5.564
 3747POPC   PO448684  19.788  29.152   5.864
 3747POPC   GL148685  19.792  29.156   6.164
 3747POPC   GL248686  19.836  29.049   6.164
 3747POPC   C1A48687  19.785  29.145   6.464
 3747POPC   D2A48688  19.795  29.113   6.764
 3747POPC   C3A48689  19.835  29.136   7.064
 3747POPC   C4A48690  19.810  29.151   7.364
 3747POPC   C1B48691  19.731  28.869   6.464
 3747POPC   C2B48692  19.770  28.952   6.764
 3747POPC   C3B48693  19.772  28.899   7.064
 3747POPC   C4B48694  19.769  28.943   7.364
 3748POPC   NC348695  32.294  26.786   5.564
 3748POPC   PO448696  32.259  26.799   5.864
 3748POPC   GL148697  32.211  26.782   6.164
 3748POPC   GL248698  32.142  26.753   6.164
 3748POPC   C1A48699  32.287  26.825   6.464
 3748POPC   D2A48700  32.221  26.839   6.764
 3748POPC   C3A48701  32.228  26.769   7.064
 3748POPC   C4A48702  32.208  26.862   7.364
 3748POPC   C1B48703  31.962  26.760   6.464
 3748POPC   C2B48704  32.040  26.731   6.764
 3748POPC   C3B48705  32.031  26.785   7.064
 3748POPC   C4B48706  31.979  26.780   7.364
 3749POPC   NC348707  14.393   5.141   5.564
 3749POPC   PO448708  14.385   5.057   5.864
 3749POPC   GL148709  14.367   5.076   6.164
 3749POPC   GL248710  14.292   5.062   6.164
 3749POPC   C1A48711  14.437   5.101   6.464
 3749POPC   D2A48712  14.440   5.128   6.764
 3749POPC   C3A48713  14.413   5.060   7.064
 3749POPC   C4A48714  14.382   5.077   7.364
 3749POPC   C1B48715  14.124   4.968   6.464
 3749POPC   C2B48716  14.129   5.063   6.764
 3749POPC   C3B48717  14.203   4.971   7.064
 3749POPC   C4B48718  14.198   5.009   7.364
 3750POPC   NC348719  29.126   7.392   5.564
 3750POPC   PO448720  29.129   7.395   5.864
 3750POPC   GL148721  29.100   7.470   6.164
 3750POPC   GL248722  29.076   7.340   6.164
 3750POPC   C1A48723  29.186   7.389   6.464
 3750POPC   D2A48724  29.110   7.468   6.764
 3750POPC   C3A48725  29.178   7.463   7.064
 3750POPC   C4A48726  29.134   7.463   7.364
 3750POPC   C1B48727  28.952   7.260   6.464
 3750POPC   C2B48728  28.985   7.304   6.764
 3750POPC   C3B48729  28.962   7.300   7.064
 3750POPC   C4B48730  28.915   7.253   7.364
 3751POPC   NC348731  16.756  26.844   5.564
 3751POPC   PO448732  16.696  26.845   5.864
 3751POPC   GL148733  16.761  26.820   6.164
 3751POPC   GL248734  16.799  26.764   6.164
 3751POPC   C1A48735  16.732  26.810   6.464
 3751POPC   D2A48736  16.695  26.814   6.764
 3751POPC   C3A48737  16.692  26.826   7.064
 3751POPC   C4A48738  16.760  26.803   7.364
 3751POPC   C1B48739  16.919  26.753   6.464
 3751POPC   C2B48740  16.992  26.777   6.764
 3751POPC   C3B48741  16.971  26.720   7.064
 3751POPC   C4B48742  16.953  26.771   7.364
 3752POPC   NC348743  15.213  31.457   5.564
 3752POPC   PO448744  15.144  31.485   5.864
 3752POPC   GL148745  15.180  31.519   6.164
 3752POPC   GL248746  15.095  31.459   6.164
 3752POPC   C1A48747  15.147  31.468   6.464
 3752POPC   D2A48748  15.222  31.481   6.764
 3752POPC   C3A48749  15.203  31.472   7.064
 3752POPC   C4A48750  15.229  31.452   7.364
 3752POPC   C1B48751  14.965  31.455   6.464
 3752POPC   C2B48752  14.982  31.400   6.764
 3752POPC   C3B48753  14.973  31.372   7.064
 3752POPC   C4B48754  14.892  31.437   7.364
 3753POPC   NC348755  29.962  26.813   5.564
 3753POPC   PO448756  29.909  26.779   5.864
 3753POPC   GL148757  29.874  26.824   6.164
 3753POPC   GL248758  29.784  26.856   6.164
 3753POPC   C1A48759  29.879  26.810   6.464
 3753POPC   D2A48760  29.963  26.802   6.764
 3753POPC   C3A48761  29.908  26.839   7.064
 3753POPC   C4A48762  29.895  26.811   7.364
 3753POPC   C1B48763  29.679  26.899   6.464
 3753POPC   C2B48764  29.687  26.838   6.764
 3753POPC   C3B48765  29.659  26.900   7.064
 3753POPC   C4B48766  29.672  26.847   7.364
 3754POPC   NC348767  13.645   1.948   5.564
 3754POPC   PO448768  13.603   1.995   5.864
 3754POPC   GL148769  13.648   1.998   6.164
 3754POPC   GL248770  13.789   1.912   6.164
 3754POPC   C1A48771  13.590   2.014   6.464
 3754POPC   D2A48772  13.607   1.991   6.764
 3754POPC   C3A48773  13.673   1.973   7.064
 3754POPC   C4A48774  13.667   2.020   7.364
 3754POPC   C1B48775  13.822   1.969   6.464
 3754POPC   C2B48776  13.871   1.903   6.764
 3754POPC   C3B48777  13.869   1.936   7.064
 3754POPC   C4B48778  13.819   1.886   7.364
 3755POPC   NC348779  34.565  43.840   5.564
 3755POPC   PO448780  34.540  43.906   5.864
 3755POPC   GL148781  34.574  43.871   6.164
 3755POPC   GL248782  34.694  44.009   6.164
 3755POPC   C1A48783  34.555  43.902   6.464
 3755POPC   D2A48784  34.529  43.898   6.764
 3755POPC   C3A48785  34.563  43.913   7.064
 3755POPC   C4A48786  34.611  43.898   7.364
 3755POPC   C1B48787  34.824  44.026   6.464
 3755POPC   C2B48788  34.780  44.058   6.764
 3755POPC   C3B48789  34.771  43.996   7.064
 3755POPC   C4B48790  34.741  44.041   7.364
 3756POPC   NC348791  19.810   6.631   5.564
 3756POPC   PO448792  19.818   6.613   5.864
 3756POPC   GL148793  19.803   6.683   6.164
 3756POPC   GL248794  19.859   6.812   6.164
 3756POPC   C1A48795  19.868   6.681   6.464
 3756POPC   D2A48796  19.817   6.676   6.764
 3756POPC   C3A48797  19.788   6.638   7.064
 3756POPC   C4A48798  19.874   6.667   7.364
 3756POPC   C1B48799  19.840   6.862   6.464
 3756POPC   C2B48800  19.824   6.922   6.764
 3756POPC   C3B48801  19.825   6.940   7.064
 3756POPC   C4B48802  19.816   6.858   7.364
 3757POPC   NC348803  13.672  30.729   5.564
 3757POPC   PO448804  13.667  30.673   5.864
 3757POPC   GL148805  13.652  30.694   6.164
 3757POPC   GL248806  13.680  30.558   6.164
 3757POPC   C1A48807  13.595  30.721   6.464
 3757POPC   D2A48808  13.665  30.665   6.764
 3757POPC   C3A48809  13.646  30.704   7.064
 3757POPC   C4A48810  13.621  30.728   7.364
 3757POPC   C1B48811  13.715  30.477   6.464
 3757POPC   C2B48812  13.786  30.432   6.764
 3757POPC   C3B48813  13.790  30.490   7.064
 3757POPC   C4B48814  13.796  30.439   7.364
 3758POPC   NC348815  33.041  33.062   5.564
 3758POPC   PO448816  33.021  33.012   5.864
 3758POPC   GL148817  33.023  33.062   6.164
 3758POPC   GL248818  32.968  32.900   6.164
 3758POPC   C1A48819  32.986  33.005   6.464
 3758POPC   D2A48820  33.060  33.066   6.764
 3758POPC   C3A48821  32.989  33.026   7.064
 3758POPC   C4A48822  33.041  32.996   7.364
 3758POPC   C1B48823  32.844  32.867   6.464
 3758POPC   C2B48824  32.816  32.924   6.764
 3758POPC   C3B48825  32.800  32.836   7.064
 3758POPC   C4B48826  32.784  32.909   7.364
 3759POPC   NC348827  14.441  27.584   5.564
 3759POPC   PO448828  14.383  27.579   5.864
 3759POPC   GL148829  14.382  27.547   6.164
 3759POPC   GL248830  14.364  27.677   6.164
 3759POPC   C1A48831  14.439  27.580   6.464
 3759POPC   D2A48832  14.395  27.609   6.764
 3759POPC   C3A48833  14.358  27.560   7.064
 3759POPC   C4A48834  14.434  27.617   7.364
 3759POPC   C1B48835  14.376  27.831   6.464
 3759POPC   C2B48836  14.438  27.841   6.764
 3759POPC   C3B48837  14.410  27.861   7.064
 3759POPC   C4B48838  14.419  27.846   7.364
 3760POPC   NC348839  18.330  35.317   5.564
 3760POPC   PO448840  18.317  35.326   5.864
 3760POPC   GL148841  18.277  35.357   6.164
 3760POPC   GL248842  18.149  35.314   6.164
 3760POPC   C1A48843  18.245  35.385   6.464
 3760POPC   D2A48844  18.237  35.339   6.764
 3760POPC   C3A48845  18.237  35.305   7.064
 3760POPC   C4A48846  18.268  35.312   7.364
 3760POPC   C1B48847  18.000  35.337   6.464
 3760POPC   C2B48848  18.014  35.396   6.764
 3760POPC   C3B48849  17.988  35.368   7.064
 3760POPC   C4B48850  18.023  35.370   7.364
 3761POPC   NC348851  44.630  23.670   5.564
 3761POPC   PO448852  44.664  23.721   5.864
 3761POPC   GL148853  44.652  23.691   6.164
 3761POPC   GL248854  44.737  23.642   6.164
 3761POPC   C1A48855  44.613  23.754   6.464
 3761POPC   D2A48856  44.666  23.745   6.764
 3761POPC   C3A48857  44.668  23.671   7.064
 3761POPC   C4A48858  44.618  23.714   7.364
 3761POPC   C1B48859  44.818  23.551   6.464
 3761POPC   C2B48860  44.865  23.583   6.764
 3761POPC   C3B48861  44.877  23.505   7.064
 3761POPC   C4B48862  44.881  23.534   7.364
 3762POPC   NC348863  15.194   1.979   5.564
 3762POPC   PO448864  15.219   2.035   5.864
 3762POPC   GL148865  15.140   1.979   6.164
 3762POPC   GL248866  15.134   1.939   6.164
 3762POPC   C1A48867  15.158   1.965   6.464
 3762POPC   D2A48868  15.212   2.016   6.764
 3762POPC   C3A48869  15.226   2.001   7.064
 3762POPC   C4A48870  15.166   2.030   7.364
 3762POPC   C1B48871  14.980   1.784   6.464
 3762POPC   C2B48872  15.009   1.804   6.764
 3762POPC   C3B48873  15.055   1.761   7.064
 3762POPC   C4B48874  14.998   1.842   7.364
 3763POPC   NC348875  43.135  27.584   5.564
 3763POPC   PO448876  43.157  27.593   5.864
 3763POPC   GL148877  43.114  27.577   6.164
 3763POPC   GL248878  43.022  27.679   6.164
 3763POPC   C1A48879  43.158  27.553   6.464
 3763POPC   D2A48880  43.087  27.576   6.764
 3763POPC   C3A48881  43.120  27.589   7.064
 3763POPC   C4A48882  43.062  27.608   7.364
 3763POPC   C1B48883  42.855  27.765   6.464
 3763POPC   C2B48884  42.930  27.745   6.764
 3763POPC   C3B48885  42.899  27.752   7.064
 3763POPC   C4B48886  42.892  27.757   7.364
 3764POPC   NC348887  36.138  15.930   5.564
 3764POPC   PO448888  36.111  15.942   5.864
 3764POPC   GL148889  36.153  15.998   6.164
 3764POPC   GL248890  36.181  16.121   6.164
 3764POPC   C1A48891  36.082  15.980   6.464
 3764POPC   D2A48892  36.101  15.993   6.764
 3764POPC   C3A48893  36.135  15.985   7.064
 3764POPC   C4A48894  36.109  15.917   7.364
 3764POPC   C1B48895  36.176  16.184   6.464
 3764POPC   C2B48896  36.153  16.245   6.764
 3764POPC   C3B48897  36.130  16.236   7.064
 3764POPC   C4B48898  36.169  16.194   7.364
 3765POPC   NC348899  32.203  19.103   5.564
 3765POPC   PO448900  32.254  19.092   5.864
 3765POPC   GL148901  32.278  19.051   6.164
 3765POPC   GL248902  32.414  19.076   6.164
 3765POPC   C1A48903  32.235  19.052   6.464
 3765POPC   D2A48904  32.204  19.023   6.764
 3765POPC   C3A48905  32.221  19.066   7.064
 3765POPC   C4A48906  32.216  19.097   7.364
 3765POPC   C1B48907  32.463  19.126   6.464
 3765POPC   C2B48908  32.457  19.100   6.764
 3765POPC   C3B48909  32.472  19.137   7.064
 3765POPC   C4B48910  32.458  19.126   7.364
 3766POPC   NC348911  16.686  15.988   5.564
 3766POPC   PO448912  16.764  15.919   5.864
 3766POPC   GL148913  16.763  15.945   6.164
 3766POPC   GL248914  16.615  15.876   6.164
 3766POPC   C1A48915  16.700  15.943   6.464
 3766POPC   D2A48916  16.727  15.938   6.764
 3766POPC   C3A48917  16.729  15.908   7.064
 3766POPC   C4A48918  16.780  15.930   7.364
 3766POPC   C1B48919  16.457  15.933   6.464
 3766POPC   C2B48920  16.471  15.865   6.764
 3766POPC   C3B48921  16.489  15.906   7.064
 3766POPC   C4B48922  16.540  15.934   7.364
 3767POPC   NC348923  26.857  18.318   5.564
 3767POPC   PO448924  26.777  18.286   5.864
 3767POPC   GL148925  26.810  18.332   6.164
 3767POPC   GL248926  26.958  18.320   6.164
 3767POPC   C1A48927  26.811  18.260   6.464
 3767POPC   D2A48928  26.860  18.326   6.764
 3767POPC   C3A48929  26.859  18.281   7.064
 3767POPC   C4A48930  26.854  18.287   7.364
 3767POPC   C1B48931  27.027  18.373   6.464
 3767POPC   C2B48932  27.009  18.396   6.764
 3767POPC   C3B48933  27.071  18.419   7.064
 3767POPC   C4B48934  27.080  18.351   7.364
 3768POPC   NC348935  33.059  15.229   5.564
 3768POPC   PO448936  32.999  15.194   5.864
 3768POPC   GL148937  33.073  15.194   6.164
 3768POPC   GL248938  32.922  15.295   6.164
 3768POPC   C1A48939  32.998  15.172   6.464
 3768POPC   D2A48940  33.015  15.195   6.764
 3768POPC   C3A48941  32.988  15.166   7.064
 3768POPC   C4A48942  32.986  15.191   7.364
 3768POPC   C1B48943  32.862  15.343   6.464
 3768POPC   C2B48944  32.812  15.339   6.764
 3768POPC   C3B48945  32.828  15.349   7.064
 3768POPC   C4B48946  32.861  15.290   7.364
 3769POPC   NC348947  18.324  20.612   5.564
 3769POPC   PO448948  18.311  20.590   5.864
 3769POPC   GL148949  18.264  20.619   6.164
 3769POPC   GL248950  18.262  20.695   6.164
 3769POPC   C1A48951  18.290  20.625   6.464
 3769POPC   D2A48952  18.237  20.591   6.764
 3769POPC   C3A48953  18.280  20.567   7.064
 3769POPC   C4A48954  18.248  20.565   7.364
 3769POPC   C1B48955  18.142  20.830   6.464
 3769POPC   C2B48956  18.224  20.809   6.764
 3769POPC   C3B48957  18.160  20.800   7.064
 3769POPC   C4B48958  18.155  20.835   7.364
 3770POPC   NC348959  21.398  20.562   5.564
 3770POPC   PO448960  21.406  20.629   5.864
 3770POPC   GL148961  21.376  20.626   6.164
 3770POPC   GL248962  21.293  20.541   6.164
 3770POPC   C1A48963  21.404  20.620   6.464
 3770POPC   D2A48964  21.339  20.650   6.764
 3770POPC   C3A48965  21.425  20.607   7.064
 3770POPC   C4A48966  21.427  20.655   7.364
 3770POPC   C1B48967  21.217  20.440   6.464
 3770POPC   C2B48968  21.232  20.477   6.764
 3770POPC   C3B48969  21.219  20.480   7.064
 3770POPC   C4B48970  21.226  20.455   7.364
 3771POPC   NC348971   8.230  21.425   5.564
 3771POPC   PO448972   8.230  21.403   5.864
 3771POPC   GL148973   8.227  21.371   6.164
 3771POPC   GL248974   8.037  21.322   6.164
 3771POPC   C1A48975   8.193  21.431   6.464
 3771POPC   D2A48976   8.178  21.417   6.764
 3771POPC   C3A48977   8.230  21.410   7.064
 3771POPC   C4A48978   8.169  21.405   7.364
 3771POPC   C1B48979   7.992  21.344   6.464
 3771POPC   C2B48980   7.980  21.343   6.764
 3771POPC   C3B48981   7.923  21.384   7.064
 3771POPC   C4B48982   7.980  21.400   7.364
 3772POPC   NC348983  20.625  39.220   5.564
 3772POPC   PO448984  20.622  39.263   5.864
 3772POPC   GL148985  20.581  39.244   6.164
 3772POPC   GL248986  20.718  39.274   6.164
 3772POPC   C1A48987  20.574  39.235   6.464
 3772POPC   D2A48988  20.574  39.209   6.764
 3772POPC   C3A48989  20.632  39.237   7.064
 3772POPC   C4A48990  20.625  39.270   7.364
 3772POPC   C1B48991  20.806  39.340   6.464
 3772POPC   C2B48992  20.781  39.329   6.764
 3772POPC   C3B48993  20.827  39.336   7.064
 3772POPC   C4B48994  20.786  39.329   7.364
 3773POPC   NC348995  26.864  36.106   5.564
 3773POPC   PO448996  26.807  36.150   5.864
 3773POPC   GL148997  26.849  36.150   6.164
 3773POPC   GL248998  26.806  36.289   6.164
 3773POPC   C1A48999  26.837  36.120   6.464
 3773POPC   D2A49000  26.812  36.149   6.764
 3773POPC   C3A49001  26.769  36.090   7.064
 3773POPC   C4A49002  26.844  36.080   7.364
 3773POPC   C1B49003  26.858  36.323   6.464
 3773POPC   C2B49004  26.929  36.382   6.764
 3773POPC   C3B49005  26.886  36.349   7.064
 3773POPC   C4B49006  26.905  36.365   7.364
 3774POPC   NC349007  43.089  26.087   5.564
 3774POPC   PO449008  43.084  26.026   5.864
 3774POPC   GL149009  43.152  26.003   6.164
 3774POPC   GL249010  43.034  26.114   6.164
 3774POPC   C1A49011  43.148  26.010   6.464
 3774POPC   D2A49012  43.093  26.053   6.764
 3774POPC   C3A49013  43.070  26.054   7.064
 3774POPC   C4A49014  43.144  26.014   7.364
 3774POPC   C1B49015  42.971  26.260   6.464
 3774POPC   C2B49016  42.955  26.284   6.764
 3774POPC   C3B49017  42.997  26.235   7.064
 3774POPC   C4B49018  42.959  26.242   7.364
 3775POPC   NC349019  43.090  21.402   5.564
 3775POPC   PO449020  43.070  21.343   5.864
 3775POPC   GL149021  43.086  21.414   6.164
 3775POPC   GL249022  43.218  21.451   6.164
 3775POPC   C1A49023  43.132  21.380   6.464
 3775POPC   D2A49024  43.139  21.389   6.764
 3775POPC   C3A49025  43.113  21.424   7.064
 3775POPC   C4A49026  43.109  21.419   7.364
 3775POPC   C1B49027  43.376  21.452   6.464
 3775POPC   C2B49028  43.332  21.376   6.764
 3775POPC   C3B49029  43.373  21.447   7.064
 3775POPC   C4B49030  43.388  21.404   7.364
 3776POPC   NC349031   0.455  19.862   5.564
 3776POPC   PO449032   0.443  19.875   5.864
 3776POPC   GL149033   0.399  19.871   6.164
 3776POPC   GL249034   0.490  20.002   6.164
 3776POPC   C1A49035   0.394  19.810   6.464
 3776POPC   D2A49036   0.408  19.850   6.764
 3776POPC   C3A49037   0.473  19.831   7.064
 3776POPC   C4A49038   0.436  19.878   7.364
 3776POPC   C1B49039   0.432  20.073   6.464
 3776POPC   C2B49040   0.415  20.064   6.764
 3776POPC   C3B49041   0.479  20.065   7.064
 3776POPC   C4B49042   0.487  20.129   7.364
 3777POPC   NC349043   5.831  12.096   5.564
 3777POPC   PO449044   5.886  12.032   5.864
 3777POPC   GL149045   5.835  12.032   6.164
 3777POPC   GL249046   5.937  11.935   6.164
 3777POPC   C1A49047   5.877  12.042   6.464
 3777POPC   D2A49048   5.844  12.078   6.764
 3777POPC   C3A49049   5.847  12.109   7.064
 3777POPC   C4A49050   5.859  12.115   7.364
 3777POPC   C1B49051   6.001  11.802   6.464
 3777POPC   C2B49052   5.981  11.889   6.764
 3777POPC   C3B49053   5.998  11.849   7.064
 3777POPC   C4B49054   5.921  11.883   7.364
 3778POPC   NC349055  29.144  20.637   5.564
 3778POPC   PO449056  29.170  20.574   5.864
 3778POPC   GL149057  29.107  20.632   6.164
 3778POPC   GL249058  29.206  20.723   6.164
 3778POPC   C1A49059  29.114  20.630   6.464
 3778POPC   D2A49060  29.182  20.575   6.764
 3778POPC   C3A49061  29.113  20.630   7.064
 3778POPC   C4A49062  29.119  20.564   7.364
 3778POPC   C1B49063  29.230  20.824   6.464
 3778POPC   C2B49064  29.230  20.823   6.764
 3778POPC   C3B49065  29.284  20.789   7.064
 3778POPC   C4B49066  29.247  20.809   7.364
 3779POPC   NC349067  14.422  31.503   5.564
 3779POPC   PO449068  14.356  31.432   5.864
 3779POPC   GL149069  14.442  31.471   6.164
 3779POPC   GL249070  14.560  31.414   6.164
 3779POPC   C1A49071  14.432  31.489   6.464
 3779POPC   D2A49072  14.437  31.506   6.764
 3779POPC   C3A49073  14.378  31.452   7.064
 3779POPC   C4A49074  14.395  31.500   7.364
 3779POPC   C1B49075  14.623  31.378   6.464
 3779POPC   C2B49076  14.643  31.415   6.764
 3779POPC   C3B49077  14.620  31.386   7.064
 3779POPC   C4B49078  14.624  31.401   7.364
 3780POPC   NC349079   2.006  12.841   5.564
 3780POPC   PO449080   1.992  12.811   5.864
 3780POPC   GL149081   1.994  12.899   6.164
 3780POPC   GL249082   2.071  12.771   6.164
 3780POPC   C1A49083   1.941  12.890   6.464
 3780POPC   D2A49084   2.021  12.867   6.764
 3780POPC   C3A49085   2.032  12.872   7.064
 3780POPC   C4A49086   1.986  12.834   7.364
 3780POPC   C1B49087   2.212  12.641   6.464
 3780POPC   C2B49088   2.176  12.692   6.764
 3780POPC   C3B49089   2.187  12.667   7.064
 3780POPC   C4B49090   2.116  12.704   7.364
 3781POPC   NC349091   5.909  21.422   5.564
 3781POPC   PO449092   5.826  21.386   5.864
 3781POPC   GL149093   5.892  21.407   6.164
 3781POPC   GL249094   5.814  21.536   6.164
 3781POPC   C1A49095   5.883  21.420   6.464
 3781POPC   D2A49096   5.890  21.367   6.764
 3781POPC   C3A49097   5.846  21.378   7.064
 3781POPC   C4A49098   5.830  21.377   7.364
 3781POPC   C1B49099   5.755  21.627   6.464
 3781POPC   C2B49100   5.739  21.602   6.764
 3781POPC   C3B49101   5.710  21.589   7.064
 3781POPC   C4B49102   5.756  21.564   7.364
 3782POPC   NC349103   7.440  15.949   5.564
 3782POPC   PO449104   7.410  15.924   5.864
 3782POPC   GL149105   7.440  15.930   6.164
 3782POPC   GL249106   7.296  15.961   6.164
 3782POPC   C1A49107   7.468  16.003   6.464
 3782POPC   D2A49108   7.384  15.968   6.764
 3782POPC   C3A49109   7.432  15.981   7.064
 3782POPC   C4A49110   7.389  15.934   7.364
 3782POPC   C1B49111   7.127  15.936   6.464
 3782POPC   C2B49112   7.170  15.953   6.764
 3782POPC   C3B49113   7.194  15.909   7.064
 3782POPC   C4B49114   7.194  15.945   7.364
 3783POPC   NC349115  36.082  43.874   5.564
 3783POPC   PO449116  36.102  43.909   5.864
 3783POPC   GL149117  36.145  43.871   6.164
 3783POPC   GL249118  36.023  43.804   6.164
 3783POPC   C1A49119  36.140  43.837   6.464
 3783POPC   D2A49120  36.162  43.934   6.764
 3783POPC   C3A49121  36.078  43.840   7.064
 3783POPC   C4A49122  36.156  43.906   7.364
 3783POPC   C1B49123  36.011  43.702   6.464
 3783POPC   C2B49124  35.941  43.739   6.764
 3783POPC   C3B49125  36.010  43.685   7.064
 3783POPC   C4B49126  35.955  43.735   7.364
 3784POPC   NC349127  15.202  14.440   5.564
 3784POPC   PO449128  15.156  14.402   5.864
 3784POPC   GL149129  15.217  14.404   6.164
 3784POPC   GL249130  15.155  14.335   6.164
 3784POPC   C1A49131  15.147  14.420   6.464
 3784POPC   D2A49132  15.135  14.399   6.764
 3784POPC   C3A49133  15.183  14.374   7.064
 3784POPC   C4A49134  15.189  14.404   7.364
 3784POPC   C1B49135  15.084  14.230   6.464
 3784POPC   C2B49136  15.076  14.214   6.764
 3784POPC   C3B49137  15.074  14.210   7.064
 3784POPC   C4B49138  15.065  14.230   7.364
 3785POPC   NC349139  29.943  32.262   5.564
 3785POPC   PO449140  29.920  32.223   5.864
 3785POPC   GL149141  29.914  32.273   6.164
 3785POPC   GL249142  29.967  32.166   6.164
 3785POPC   C1A49143  29.892  32.290   6.464
 3785POPC   D2A49144  29.928  32.256   6.764
 3785POPC   C3A49145  29.966  32.249   7.064
 3785POPC   C4A49146  29.890  32.287   7.364
 3785POPC   C1B49147  29.960  31.992   6.464
 3785POPC   C2B49148  29.943  31.999   6.764
 3785POPC   C3B49149  29.958  31.980   7.064
 3785POPC   C4B49150  29.939  31.992   7.364
 3786POPC   NC349151  18.318   8.942   5.564
 3786POPC   PO449152  18.282   8.955   5.864
 3786POPC   GL149153  18.294   8.930   6.164
 3786POPC   GL249154  18.271   8.871   6.164
 3786POPC   C1A49155  18.240   8.959   6.464
 3786POPC   D2A49156  18.297   8.996   6.764
 3786POPC   C3A49157  18.240   8.993   7.064
 3786POPC   C4A49158  18.292   8.991   7.364
 3786POPC   C1B49159  18.339   8.772   6.464
 3786POPC   C2B49160  18.321   8.763   6.764
 3786POPC   C3B49161  18.341   8.753   7.064
 3786POPC   C4B49162  18.364   8.719   7.364
 3787POPC   NC349163  35.359   2.028   5.564
 3787POPC   PO449164  35.396   2.035   5.864
 3787POPC   GL149165  35.386   1.975   6.164
 3787POPC   GL249166  35.259   1.980   6.164
 3787POPC   C1A49167  35.395   2.016   6.464
 3787POPC   D2A49168  35.348   1.942   6.764
 3787POPC   C3A49169  35.368   2.000   7.064
 3787POPC   C4A49170  35.372   2.015   7.364
 3787POPC   C1B49171  35.065   2.007   6.464
 3787POPC   C2B49172  35.091   2.008   6.764
 3787POPC   C3B49173  35.119   1.960   7.064
 3787POPC   C4B49174  35.128   1.945   7.364
 3788POPC   NC349175  36.925   5.108   5.564
 3788POPC   PO449176  36.948   5.084   5.864
 3788POPC   GL149177  36.943   5.132   6.164
 3788POPC   GL249178  36.961   5.012   6.164
 3788POPC   C1A49179  36.896   5.044   6.464
 3788POPC   D2A49180  36.916   5.099   6.764
 3788POPC   C3A49181  36.868   5.122   7.064
 3788POPC   C4A49182  36.872   5.051   7.364
 3788POPC   C1B49183  36.985   4.832   6.464
 3788POPC   C2B49184  36.986   4.819   6.764
 3788POPC   C3B49185  37.055   4.866   7.064
 3788POPC   C4B49186  37.038   4.870   7.364
 3789POPC   NC349187  11.334  33.058   5.564
 3789POPC   PO449188  11.267  33.004   5.864
 3789POPC   GL149189  11.280  33.053   6.164
 3789POPC   GL249190  11.456  33.034   6.164
 3789POPC   C1A49191  11.278  32.984   6.464
 3789POPC   D2A49192  11.336  33.037   6.764
 3789POPC   C3A49193  11.312  33.029   7.064
 3789POPC   C4A49194  11.258  33.019   7.364
 3789POPC   C1B49195  11.513  32.997   6.464
 3789POPC   C2B49196  11.552  33.037   6.764
 3789POPC   C3B49197  11.540  33.028   7.064
 3789POPC   C4B49198  11.568  33.028   7.364
 3790POPC   NC349199   7.420  32.975   5.564
 3790POPC   PO449200   7.382  33.054   5.864
 3790POPC   GL149201   7.405  32.991   6.164
 3790POPC   GL249202   7.478  32.860   6.164
 3790POPC   C1A49203   7.418  33.000   6.464
 3790POPC   D2A49204   7.459  33.026   6.764
 3790POPC   C3A49205   7.372  33.029   7.064
 3790POPC   C4A49206   7.376  33.006   7.364
 3790POPC   C1B49207   7.516  32.762   6.464
 3790POPC   C2B49208   7.505  32.766   6.764
 3790POPC   C3B49209   7.471  32.804   7.064
 3790POPC   C4B49210   7.536  32.779   7.364
 3791POPC   NC349211  17.524   8.926   5.564
 3791POPC   PO449212  17.508   8.937   5.864
 3791POPC   GL149213  17.524   8.973   6.164
 3791POPC   GL249214  17.413   8.943   6.164
 3791POPC   C1A49215  17.483   8.946   6.464
 3791POPC   D2A49216  17.530   9.006   6.764
 3791POPC   C3A49217  17.470   8.954   7.064
 3791POPC   C4A49218  17.513   8.928   7.364
 3791POPC   C1B49219  17.336   8.794   6.464
 3791POPC   C2B49220  17.341   8.888   6.764
 3791POPC   C3B49221  17.342   8.884   7.064
 3791POPC   C4B49222  17.335   8.810   7.364
 3792POPC   NC349223  44.700  43.150   5.564
 3792POPC   PO449224  44.663  43.065   5.864
 3792POPC   GL149225  44.614  43.115   6.164
 3792POPC   GL249226  44.604  43.171   6.164
 3792POPC   C1A49227  44.632  43.098   6.464
 3792POPC   D2A49228  44.702  43.102   6.764
 3792POPC   C3A49229  44.685  43.130   7.064
 3792POPC   C4A49230  44.678  43.158   7.364
 3792POPC   C1B49231  44.538  43.276   6.464
 3792POPC   C2B49232  44.514  43.320   6.764
 3792POPC   C3B49233  44.533  43.340   7.064
 3792POPC   C4B49234  44.534  43.293   7.364
 3793POPC   NC349235  15.216   9.767   5.564
 3793POPC   PO449236  15.174   9.732   5.864
 3793POPC   GL149237  15.198   9.768   6.164
 3793POPC   GL249238  15.324   9.756   6.164
 3793POPC   C1A49239  15.144   9.738   6.464
 3793POPC   D2A49240  15.180   9.747   6.764
 3793POPC   C3A49241  15.146   9.774   7.064
 3793POPC   C4A49242  15.198   9.756   7.364
 3793POPC   C1B49243  15.439   9.867   6.464
 3793POPC   C2B49244  15.389   9.860   6.764
 3793POPC   C3B49245  15.457   9.878   7.064
 3793POPC   C4B49246  15.374   9.861   7.364
 3794POPC   NC349247  12.827  42.333   5.564
 3794POPC   PO449248  12.897  42.344   5.864
 3794POPC   GL149249  12.901  42.369   6.164
 3794POPC   GL249250  12.771  42.312   6.164
 3794POPC   C1A49251  12.886  42.364   6.464
 3794POPC   D2A49252  12.826  42.380   6.764
 3794POPC   C3A49253  12.881  42.355   7.064
 3794POPC   C4A49254  12.833  42.300   7.364
 3794POPC   C1B49255  12.635  42.417   6.464
 3794POPC   C2B49256  12.602  42.349   6.764
 3794POPC   C3B49257  12.613  42.357   7.064
 3794POPC   C4B49258  12.649  42.404   7.364
 3795POPC   NC349259  20.598  16.719   5.564
 3795POPC   PO449260  20.624  16.760   5.864
 3795POPC   GL149261  20.588  16.757   6.164
 3795POPC   GL249262  20.670  16.640   6.164
 3795POPC   C1A49263  20.653  16.704   6.464
 3795POPC   D2A49264  20.641  16.701   6.764
 3795POPC   C3A49265  20.619  16.698   7.064
 3795POPC   C4A49266  20.654  16.692   7.364
 3795POPC   C1B49267  20.760  16.529   6.464
 3795POPC   C2B49268  20.744  16.518   6.764
 3795POPC   C3B49269  20.765  16.538   7.064
 3795POPC   C4B49270  20.796  16.542   7.364
 3796POPC   NC349271   0.391   5.866   5.564
 3796POPC   PO449272   0.431   5.830   5.864
 3796POPC   GL149273   0.446   5.859   6.164
 3796POPC   GL249274   0.406   5.773   6.164
 3796POPC   C1A49275   0.451   5.883   6.464
 3796POPC   D2A49276   0.425   5.891   6.764
 3796POPC   C3A49277   0.446   5.852   7.064
 3796POPC   C4A49278   0.440   5.840   7.364
 3796POPC   C1B49279   0.369   5.667   6.464
 3796POPC   C2B49280   0.461   5.645   6.764
 3796POPC   C3B49281   0.433   5.578   7.064
 3796POPC   C4B49282   0.398   5.657   7.364
 3797POPC   NC349283   4.361  29.873   5.564
 3797POPC   PO449284   4.357  29.931   5.864
 3797POPC   GL149285   4.280  29.924   6.164
 3797POPC   GL249286   4.432  29.885   6.164
 3797POPC   C1A49287   4.271  29.970   6.464
 3797POPC   D2A49288   4.367  29.877   6.764
 3797POPC   C3A49289   4.317  29.933   7.064
 3797POPC   C4A49290   4.355  29.925   7.364
 3797POPC   C1B49291   4.517  29.811   6.464
 3797POPC   C2B49292   4.546  29.831   6.764
 3797POPC   C3B49293   4.479  29.738   7.064
 3797POPC   C4B49294   4.566  29.749   7.364
 3798POPC   NC349295  36.110  18.286   5.564
 3798POPC   PO449296  36.133  18.318   5.864
 3798POPC   GL149297  36.163  18.277   6.164
 3798POPC   GL249298  36.173  18.157   6.164
 3798POPC   C1A49299  36.109  18.277   6.464
 3798POPC   D2A49300  36.115  18.311   6.764
 3798POPC   C3A49301  36.176  18.322   7.064
 3798POPC   C4A49302  36.101  18.272   7.364
 3798POPC   C1B49303  36.274  18.166   6.464
 3798POPC   C2B49304  36.333  18.077   6.764
 3798POPC   C3B49305  36.320  18.088   7.064
 3798POPC   C4B49306  36.287  18.096   7.364
 3799POPC   NC349307  40.751   8.999   5.564
 3799POPC   PO449308  40.744   8.970   5.864
 3799POPC   GL149309  40.761   8.990   6.164
 3799POPC   GL249310  40.662   8.940   6.164
 3799POPC   C1A49311  40.799   8.932   6.464
 3799POPC   D2A49312  40.753   9.019   6.764
 3799POPC   C3A49313  40.733   8.963   7.064
 3799POPC   C4A49314  40.760   8.988   7.364
 3799POPC   C1B49315  40.545   8.982   6.464
 3799POPC   C2B49316  40.545   8.976   6.764
 3799POPC   C3B49317  40.548   9.033   7.064
 3799POPC   C4B49318  40.538   9.007   7.364
 3800POPC   NC349319   9.733  19.866   5.564
 3800POPC   PO449320   9.707  19.871   5.864
 3800POPC   GL149321   9.787  19.871   6.164
 3800POPC   GL249322   9.663  19.918   6.164
 3800POPC   C1A49323   9.744  19.851   6.464
 3800POPC   D2A49324   9.746  19.828   6.764
 3800POPC   C3A49325   9.729  19.828   7.064
 3800POPC   C4A49326   9.719  19.817   7.364
 3800POPC   C1B49327   9.576  19.960   6.464
 3800POPC   C2B49328   9.495  19.949   6.764
 3800POPC   C3B49329   9.487  19.943   7.064
 3800POPC   C4B49330   9.526  19.983   7.364
 3801POPC   NC349331   7.449   1.179   5.564
 3801POPC   PO449332   7.399   1.181   5.864
 3801POPC   GL149333   7.399   1.188   6.164
 3801POPC   GL249334   7.390   1.061   6.164
 3801POPC   C1A49335   7.446   1.190   6.464
 3801POPC   D2A49336   7.446   1.206   6.764
 3801POPC   C3A49337   7.456   1.173   7.064
 3801POPC   C4A49338   7.427   1.173   7.364
 3801POPC   C1B49339   7.373   1.006   6.464
 3801POPC   C2B49340   7.348   0.931   6.764
 3801POPC   C3B49341   7.317   0.984   7.064
 3801POPC   C4B49342   7.362   0.939   7.364
 3802POPC   NC349343   7.464   6.676   5.564
 3802POPC   PO449344   7.393   6.636   5.864
 3802POPC   GL149345   7.419   6.659   6.164
 3802POPC   GL249346   7.506   6.570   6.164
 3802POPC   C1A49347   7.409   6.619   6.464
 3802POPC   D2A49348   7.428   6.617   6.764
 3802POPC   C3A49349   7.463   6.651   7.064
 3802POPC   C4A49350   7.467   6.660   7.364
 3802POPC   C1B49351   7.651   6.541   6.464
 3802POPC   C2B49352   7.699   6.537   6.764
 3802POPC   C3B49353   7.671   6.569   7.064
 3802POPC   C4B49354   7.676   6.584   7.364
 3803POPC   NC349355  40.754  40.022   5.564
 3803POPC   PO449356  40.820  40.002   5.864
 3803POPC   GL149357  40.778  40.044   6.164
 3803POPC   GL249358  40.707  39.995   6.164
 3803POPC   C1A49359  40.737  39.979   6.464
 3803POPC   D2A49360  40.801  40.019   6.764
 3803POPC   C3A49361  40.736  39.963   7.064
 3803POPC   C4A49362  40.743  40.020   7.364
 3803POPC   C1B49363  40.533  39.844   6.464
 3803POPC   C2B49364  40.571  39.893   6.764
 3803POPC   C3B49365  40.582  39.883   7.064
 3803POPC   C4B49366  40.578  39.925   7.364
 3804POPC   NC349367  33.753  25.992   5.564
 3804POPC   PO449368  33.769  26.070   5.864
 3804POPC   GL149369  33.802  26.058   6.164
 3804POPC   GL249370  33.827  25.928   6.164
 3804POPC   C1A49371  33.794  26.065   6.464
 3804POPC   D2A49372  33.781  26.090   6.764
 3804POPC   C3A49373  33.847  26.024   7.064
 3804POPC   C4A49374  33.762  26.060   7.364
 3804POPC   C1B49375  33.712  25.792   6.464
 3804POPC   C2B49376  33.787  25.769   6.764
 3804POPC   C3B49377  33.729  25.811   7.064
 3804POPC   C4B49378  33.794  25.782   7.364
 3805POPC   NC349379  23.697  26.782   5.564
 3805POPC   PO449380  23.675  26.854   5.864
 3805POPC   GL149381  23.697  26.804   6.164
 3805POPC   GL249382  23.737  26.722   6.164
 3805POPC   C1A49383  23.667  26.818   6.464
 3805POPC   D2A49384  23.675  26.837   6.764
 3805POPC   C3A49385  23.711  26.859   7.064
 3805POPC   C4A49386  23.733  26.792   7.364
 3805POPC   C1B49387  23.679  26.553   6.464
 3805POPC   C2B49388  23.707  26.538   6.764
 3805POPC   C3B49389  23.716  26.602   7.064
 3805POPC   C4B49390  23.701  26.552   7.364
 3806POPC   NC349391   1.246  42.301   5.564
 3806POPC   PO449392   1.232  42.357   5.864
 3806POPC   GL149393   1.226  42.337   6.164
 3806POPC   GL249394   1.160  42.183   6.164
 3806POPC   C1A49395   1.194  42.322   6.464
 3806POPC   D2A49396   1.225  42.341   6.764
 3806POPC   C3A49397   1.227  42.318   7.064
 3806POPC   C4A49398   1.228  42.342   7.364
 3806POPC   C1B49399   1.099  42.058   6.464
 3806POPC   C2B49400   1.127  42.133   6.764
 3806POPC   C3B49401   1.130  42.133   7.064
 3806POPC   C4B49402   1.116  42.055   7.364
 3807POPC   NC349403  29.970  10.511   5.564
 3807POPC   PO449404  29.917  10.486   5.864
 3807POPC   GL149405  29.881  10.540   6.164
 3807POPC   GL249406  30.028  10.533   6.164
 3807POPC   C1A49407  29.931  10.538   6.464
 3807POPC   D2A49408  29.965  10.532   6.764
 3807POPC   C3A49409  29.950  10.562   7.064
 3807POPC   C4A49410  29.956  10.510   7.364
 3807POPC   C1B49411  30.171  10.539   6.464
 3807POPC   C2B49412  30.184  10.559   6.764
 3807POPC   C3B49413  30.199  10.569   7.064
 3807POPC   C4B49414  30.120  10.583   7.364
 3808POPC   NC349415  38.438  19.015   5.564
 3808POPC   PO449416  38.480  19.053   5.864
 3808POPC   GL149417  38.483  19.088   6.164
 3808POPC   GL249418  38.342  19.092   6.164
 3808POPC   C1A49419  38.463  19.050   6.464
 3808POPC   D2A49420  38.433  19.105   6.764
 3808POPC   C3A49421  38.501  19.106   7.064
 3808POPC   C4A49422  38.502  19.079   7.364
 3808POPC   C1B49423  38.203  19.066   6.464
 3808POPC   C2B49424  38.174  19.031   6.764
 3808POPC   C3B49425  38.232  19.058   7.064
 3808POPC   C4B49426  38.188  19.026   7.364
 3809POPC   NC349427  17.552  11.251   5.564
 3809POPC   PO449428  17.479  11.256   5.864
 3809POPC   GL149429  17.484  11.316   6.164
 3809POPC   GL249430  17.492  11.459   6.164
 3809POPC   C1A49431  17.518  11.337   6.464
 3809POPC   D2A49432  17.496  11.264   6.764
 3809POPC   C3A49433  17.481  11.269   7.064
 3809POPC   C4A49434  17.500  11.299   7.364
 3809POPC   C1B49435  17.398  11.505   6.464
 3809POPC   C2B49436  17.366  11.577   6.764
 3809POPC   C3B49437  17.409  11.526   7.064
 3809POPC   C4B49438  17.440  11.486   7.364
 3810POPC   NC349439   1.971  17.510   5.564
 3810POPC   PO449440   1.976  17.495   5.864
 3810POPC   GL149441   2.019  17.527   6.164
 3810POPC   GL249442   2.071  17.361   6.164
 3810POPC   C1A49443   1.971  17.535   6.464
 3810POPC   D2A49444   1.991  17.468   6.764
 3810POPC   C3A49445   2.012  17.494   7.064
 3810POPC   C4A49446   1.945  17.511   7.364
 3810POPC   C1B49447   2.153  17.282   6.464
 3810POPC   C2B49448   2.102  17.255   6.764
 3810POPC   C3B49449   2.105  17.277   7.064
 3810POPC   C4B49450   2.095  17.287   7.364
 3811POPC   NC349451  17.535  33.756   5.564
 3811POPC   PO449452  17.525  33.759   5.864
 3811POPC   GL149453  17.501  33.752   6.164
 3811POPC   GL249454  17.625  33.786   6.164
 3811POPC   C1A49455  17.541  33.802   6.464
 3811POPC   D2A49456  17.551  33.776   6.764
 3811POPC   C3A49457  17.542  33.769   7.064
 3811POPC   C4A49458  17.462  33.831   7.364
 3811POPC   C1B49459  17.732  33.789   6.464
 3811POPC   C2B49460  17.725  33.768   6.764
 3811POPC   C3B49461  17.780  33.762   7.064
 3811POPC   C4B49462  17.732  33.790   7.364
 3812POPC   NC349463  42.334  22.187   5.564
 3812POPC   PO449464  42.365  22.133   5.864
 3812POPC   GL149465  42.315  22.168   6.164
 3812POPC   GL249466  42.446  22.059   6.164
 3812POPC   C1A49467  42.295  22.188   6.464
 3812POPC   D2A49468  42.349  22.162   6.764
 3812POPC   C3A49469  42.289  22.189   7.064
 3812POPC   C4A49470  42.297  22.203   7.364
 3812POPC   C1B49471  42.531  22.026   6.464
 3812POPC   C2B49472  42.566  22.043   6.764
 3812POPC   C3B49473  42.508  22.066   7.064
 3812POPC   C4B49474  42.541  22.050   7.364
 3813POPC   NC349475  44.678  30.746   5.564
 3813POPC   PO449476  44.631  30.733   5.864
 3813POPC   GL149477  44.701  30.682   6.164
 3813POPC   GL249478  44.809  30.643   6.164
 3813POPC   C1A49479  44.675  30.739   6.464
 3813POPC   D2A49480  44.662  30.675   6.764
 3813POPC   C3A49481  44.649  30.717   7.064
 3813POPC   C4A49482  44.669  30.703   7.364
 3813POPC   C1B49483  44.823  30.525   6.464
 3813POPC   C2B49484  44.843  30.584   6.764
 3813POPC   C3B49485  44.883  30.576   7.064
 3813POPC   C4B49486  44.890  30.566   7.364
 3814POPC   NC349487  18.327  25.993   5.564
 3814POPC   PO449488  18.260  25.995   5.864
 3814POPC   GL149489  18.243  26.061   6.164
 3814POPC   GL249490  18.350  25.980   6.164
 3814POPC   C1A49491  18.258  26.049   6.464
 3814POPC   D2A49492  18.279  26.058   6.764
 3814POPC   C3A49493  18.308  26.008   7.064
 3814POPC   C4A49494  18.245  26.038   7.364
 3814POPC   C1B49495  18.474  25.842   6.464
 3814POPC   C2B49496  18.455  25.882   6.764
 3814POPC   C3B49497  18.502  25.838   7.064
 3814POPC   C4B49498  18.482  25.892   7.364
 3815POPC   NC349499  30.706  19.803   5.564
 3815POPC   PO449500  30.671  19.843   5.864
 3815POPC   GL149501  30.702  19.870   6.164
 3815POPC   GL249502  30.779  19.820   6.164
 3815POPC   C1A49503  30.713  19.816   6.464
 3815POPC   D2A49504  30.742  19.825   6.764
 3815POPC   C3A49505  30.655  19.815   7.064
 3815POPC   C4A49506  30.686  19.806   7.364
 3815POPC   C1B49507  30.961  19.705   6.464
 3815POPC   C2B49508  30.935  19.780   6.764
 3815POPC   C3B49509  30.889  19.731   7.064
 3815POPC   C4B49510  30.893  19.742   7.364
 3816POPC   NC349511   3.580  31.453   5.564
 3816POPC   PO449512   3.493  31.457   5.864
 3816POPC   GL149513   3.544  31.447   6.164
 3816POPC   GL249514   3.468  31.614   6.164
 3816POPC   C1A49515   3.525  31.519   6.464
 3816POPC   D2A49516   3.533  31.463   6.764
 3816POPC   C3A49517   3.569  31.423   7.064
 3816POPC   C4A49518   3.570  31.470   7.364
 3816POPC   C1B49519   3.507  31.681   6.464
 3816POPC   C2B49520   3.502  31.692   6.764
 3816POPC   C3B49521   3.441  31.730   7.064
 3816POPC   C4B49522   3.490  31.735   7.364
 3817POPC   NC349523  38.439   6.666   5.564
 3817POPC   PO449524  38.439   6.621   5.864
 3817POPC   GL149525  38.481   6.631   6.164
 3817POPC   GL249526  38.329   6.713   6.164
 3817POPC   C1A49527  38.501   6.630   6.464
 3817POPC   D2A49528  38.486   6.631   6.764
 3817POPC   C3A49529  38.411   6.634   7.064
 3817POPC   C4A49530  38.442   6.682   7.364
 3817POPC   C1B49531  38.265   6.828   6.464
 3817POPC   C2B49532  38.287   6.784   6.764
 3817POPC   C3B49533  38.255   6.847   7.064
 3817POPC   C4B49534  38.300   6.830   7.364
 3818POPC   NC349535  17.539  31.468   5.564
 3818POPC   PO449536  17.478  31.430   5.864
 3818POPC   GL149537  17.500  31.511   6.164
 3818POPC   GL249538  17.612  31.503   6.164
 3818POPC   C1A49539  17.553  31.456   6.464
 3818POPC   D2A49540  17.469  31.445   6.764
 3818POPC   C3A49541  17.503  31.456   7.064
 3818POPC   C4A49542  17.487  31.443   7.364
 3818POPC   C1B49543  17.731  31.486   6.464
 3818POPC   C2B49544  17.738  31.423   6.764
 3818POPC   C3B49545  17.746  31.430   7.064
 3818POPC   C4B49546  17.710  31.459   7.364
 3819POPC   NC349547   3.495  20.599   5.564
 3819POPC   PO449548   3.573  20.600   5.864
 3819POPC   GL149549   3.572  20.634   6.164
 3819POPC   GL249550   3.462  20.557   6.164
 3819POPC   C1A49551   3.584  20.606   6.464
 3819POPC   D2A49552   3.535  20.622   6.764
 3819POPC   C3A49553   3.539  20.568   7.064
 3819POPC   C4A49554   3.534  20.601   7.364
 3819POPC   C1B49555   3.279  20.538   6.464
 3819POPC   C2B49556   3.318  20.586   6.764
 3819POPC   C3B49557   3.280  20.504   7.064
 3819POPC   C4B49558   3.329  20.586   7.364
 3820POPC   NC349559  35.320  28.359   5.564
 3820POPC   PO449560  35.353  28.408   5.864
 3820POPC   GL149561  35.324  28.398   6.164
 3820POPC   GL249562  35.291  28.267   6.164
 3820POPC   C1A49563  35.323  28.381   6.464
 3820POPC   D2A49564  35.332  28.327   6.764
 3820POPC   C3A49565  35.401  28.341   7.064
 3820POPC   C4A49566  35.369  28.321   7.364
 3820POPC   C1B49567  35.235  28.179   6.464
 3820POPC   C2B49568  35.203  28.176   6.764
 3820POPC   C3B49569  35.163  28.163   7.064
 3820POPC   C4B49570  35.200  28.136   7.364
 3821POPC   NC349571  25.276   8.149   5.564
 3821POPC   PO449572  25.277   8.246   5.864
 3821POPC   GL149573  25.240   8.212   6.164
 3821POPC   GL249574  25.191   8.251   6.164
 3821POPC   C1A49575  25.265   8.235   6.464
 3821POPC   D2A49576  25.282   8.226   6.764
 3821POPC   C3A49577  25.269   8.219   7.064
 3821POPC   C4A49578  25.269   8.187   7.364
 3821POPC   C1B49579  25.006   8.221   6.464
 3821POPC   C2B49580  24.980   8.208   6.764
 3821POPC   C3B49581  25.066   8.259   7.064
 3821POPC   C4B49582  24.985   8.241   7.364
 3822POPC   NC349583   8.934  20.619   5.564
 3822POPC   PO449584   8.995  20.605   5.864
 3822POPC   GL149585   8.986  20.657   6.164
 3822POPC   GL249586   8.980  20.730   6.164
 3822POPC   C1A49587   8.964  20.652   6.464
 3822POPC   D2A49588   8.956  20.631   6.764
 3822POPC   C3A49589   8.942  20.601   7.064
 3822POPC   C4A49590   8.980  20.643   7.364
 3822POPC   C1B49591   8.929  20.903   6.464
 3822POPC   C2B49592   8.932  20.866   6.764
 3822POPC   C3B49593   8.964  20.813   7.064
 3822POPC   C4B49594   8.971  20.813   7.364
 3823POPC   NC349595  38.494  44.652   5.564
 3823POPC   PO449596  38.415  44.636   5.864
 3823POPC   GL149597  38.472  44.637   6.164
 3823POPC   GL249598  38.570  44.640   6.164
 3823POPC   C1A49599  38.407  44.711   6.464
 3823POPC   D2A49600  38.484  44.653   6.764
 3823POPC   C3A49601  38.409  44.702   7.064
 3823POPC   C4A49602  38.454  44.705   7.364
 3823POPC   C1B49603  38.704  44.582   6.464
 3823POPC   C2B49604  38.682  44.600   6.764
 3823POPC   C3B49605  38.721  44.641   7.064
 3823POPC   C4B49606  38.698  44.642   7.364
 3824POPC   NC349607  41.528  24.491   5.564
 3824POPC   PO449608  41.525  24.504   5.864
 3824POPC   GL149609  41.585  24.473   6.164
 3824POPC   GL249610  41.693  24.422   6.164
 3824POPC   C1A49611  41.523  24.519   6.464
 3824POPC   D2A49612  41.535  24.508   6.764
 3824POPC   C3A49613  41.590  24.486   7.064
 3824POPC   C4A49614  41.515  24.443   7.364
 3824POPC   C1B49615  41.758  24.447   6.464
 3824POPC   C2B49616  41.757  24.425   6.764
 3824POPC   C3B49617  41.804  24.409   7.064
 3824POPC   C4B49618  41.824  24.469   7.364
 3825POPC   NC349619  10.538   9.767   5.564
 3825POPC   PO449620  10.534   9.707   5.864
 3825POPC   GL149621  10.546   9.715   6.164
 3825POPC   GL249622  10.439   9.688   6.164
 3825POPC   C1A49623  10.536   9.753   6.464
 3825POPC   D2A49624  10.480   9.757   6.764
 3825POPC   C3A49625  10.501   9.712   7.064
 3825POPC   C4A49626  10.540   9.707   7.364
 3825POPC   C1B49627  10.253   9.689   6.464
 3825POPC   C2B49628  10.258   9.674   6.764
 3825POPC   C3B49629  10.309   9.747   7.064
 3825POPC   C4B49630  10.286   9.725   7.364
 3826POPC   NC349631   9.711  33.001   5.564
 3826POPC   PO449632   9.788  33.065   5.864
 3826POPC   GL149633   9.736  33.002   6.164
 3826POPC   GL249634   9.644  32.971   6.164
 3826POPC   C1A49635   9.769  33.068   6.464
 3826POPC   D2A49636   9.772  32.998   6.764
 3826POPC   C3A49637   9.776  33.053   7.064
 3826POPC   C4A49638   9.770  33.053   7.364
 3826POPC   C1B49639   9.541  32.861   6.464
 3826POPC   C2B49640   9.579  32.947   6.764
 3826POPC   C3B49641   9.496  32.892   7.064
 3826POPC   C4B49642   9.567  32.880   7.364
 3827POPC   NC349643  36.892  21.424   5.564
 3827POPC   PO449644  36.871  21.379   5.864
 3827POPC   GL149645  36.916  21.389   6.164
 3827POPC   GL249646  37.028  21.330   6.164
 3827POPC   C1A49647  36.857  21.374   6.464
 3827POPC   D2A49648  36.930  21.434   6.764
 3827POPC   C3A49649  36.874  21.384   7.064
 3827POPC   C4A49650  36.880  21.364   7.364
 3827POPC   C1B49651  37.077  21.206   6.464
 3827POPC   C2B49652  37.086  21.297   6.764
 3827POPC   C3B49653  37.101  21.221   7.064
 3827POPC   C4B49654  37.111  21.221   7.364
 3828POPC   NC349655  12.836  14.419   5.564
 3828POPC   PO449656  12.814  14.445   5.864
 3828POPC   GL149657  12.901  14.410   6.164
 3828POPC   GL249658  12.788  14.310   6.164
 3828POPC   C1A49659  12.869  14.371   6.464
 3828POPC   D2A49660  12.877  14.427   6.764
 3828POPC   C3A49661  12.806  14.382   7.064
 3828POPC   C4A49662  12.853  14.405   7.364
 3828POPC   C1B49663  12.815  14.172   6.464
 3828POPC   C2B49664  12.848  14.128   6.764
 3828POPC   C3B49665  12.838  14.135   7.064
 3828POPC   C4B49666  12.776  14.205   7.364
 3829POPC   NC349667  21.418  11.340   5.564
 3829POPC   PO449668  21.348  11.317   5.864
 3829POPC   GL149669  21.426  11.273   6.164
 3829POPC   GL249670  21.472  11.369   6.164
 3829POPC   C1A49671  21.370  11.316   6.464
 3829POPC   D2A49672  21.353  11.267   6.764
 3829POPC   C3A49673  21.426  11.257   7.064
 3829POPC   C4A49674  21.406  11.346   7.364
 3829POPC   C1B49675  21.506  11.538   6.464
 3829POPC   C2B49676  21.544  11.541   6.764
 3829POPC   C3B49677  21.563  11.504   7.064
 3829POPC   C4B49678  21.568  11.516   7.364
 3830POPC   NC349679  39.187  21.357   5.564
 3830POPC   PO449680  39.243  21.362   5.864
 3830POPC   GL149681  39.256  21.422   6.164
 3830POPC   GL249682  39.096  21.335   6.164
 3830POPC   C1A49683  39.187  21.345   6.464
 3830POPC   D2A49684  39.187  21.424   6.764
 3830POPC   C3A49685  39.235  21.389   7.064
 3830POPC   C4A49686  39.239  21.420   7.364
 3830POPC   C1B49687  38.973  21.263   6.464
 3830POPC   C2B49688  39.052  21.281   6.764
 3830POPC   C3B49689  38.970  21.252   7.064
 3830POPC   C4B49690  39.005  21.280   7.364
 3831POPC   NC349691   5.106   8.160   5.564
 3831POPC   PO449692   5.068   8.210   5.864
 3831POPC   GL149693   5.139   8.227   6.164
 3831POPC   GL249694   5.161   8.176   6.164
 3831POPC   C1A49695   5.114   8.205   6.464
 3831POPC   D2A49696   5.073   8.226   6.764
 3831POPC   C3A49697   5.114   8.246   7.064
 3831POPC   C4A49698   5.055   8.210   7.364
 3831POPC   C1B49699   5.314   8.022   6.464
 3831POPC   C2B49700   5.301   8.090   6.764
 3831POPC   C3B49701   5.350   8.070   7.064
 3831POPC   C4B49702   5.311   8.058   7.364
 3832POPC   NC349703  40.042  10.520   5.564
 3832POPC   PO449704  39.985  10.487   5.864
 3832POPC   GL149705  40.030  10.524   6.164
 3832POPC   GL249706  40.137  10.548   6.164
 3832POPC   C1A49707  39.998  10.523   6.464
 3832POPC   D2A49708  39.963  10.479   6.764
 3832POPC   C3A49709  40.038  10.499   7.064
 3832POPC   C4A49710  39.993  10.570   7.364
 3832POPC   C1B49711  40.171  10.644   6.464
 3832POPC   C2B49712  40.184  10.700   6.764
 3832POPC   C3B49713  40.258  10.636   7.064
 3832POPC   C4B49714  40.262  10.640   7.364
 3833POPC   NC349715   1.238  26.036   5.564
 3833POPC   PO449716   1.206  26.016   5.864
 3833POPC   GL149717   1.208  26.043   6.164
 3833POPC   GL249718   1.378  26.059   6.164
 3833POPC   C1A49719   1.203  26.044   6.464
 3833POPC   D2A49720   1.167  26.051   6.764
 3833POPC   C3A49721   1.218  26.089   7.064
 3833POPC   C4A49722   1.249  26.061   7.364
 3833POPC   C1B49723   1.450  25.960   6.464
 3833POPC   C2B49724   1.437  25.983   6.764
 3833POPC   C3B49725   1.434  26.013   7.064
 3833POPC   C4B49726   1.509  26.034   7.364
 3834POPC   NC349727  15.209   9.008   5.564
 3834POPC   PO449728  15.172   9.018   5.864
 3834POPC   GL149729  15.212   8.936   6.164
 3834POPC   GL249730  15.072   8.960   6.164
 3834POPC   C1A49731  15.188   8.958   6.464
 3834POPC   D2A49732  15.174   8.976   6.764
 3834POPC   C3A49733  15.221   8.958   7.064
 3834POPC   C4A49734  15.168   8.994   7.364
 3834POPC   C1B49735  14.937   9.003   6.464
 3834POPC   C2B49736  14.900   8.965   6.764
 3834POPC   C3B49737  14.896   8.992   7.064
 3834POPC   C4B49738  14.891   8.977   7.364
 3835POPC   NC349739  43.848  38.462   5.564
 3835POPC   PO449740  43.841  38.413   5.864
 3835POPC   GL149741  43.932  38.441   6.164
 3835POPC   GL249742  43.839  38.314   6.164
 3835POPC   C1A49743  43.839  38.422   6.464
 3835POPC   D2A49744  43.914  38.414   6.764
 3835POPC   C3A49745  43.885  38.416   7.064
 3835POPC   C4A49746  43.921  38.495   7.364
 3835POPC   C1B49747  43.870  38.228   6.464
 3835POPC   C2B49748  43.838  38.233   6.764
 3835POPC   C3B49749  43.846  38.184   7.064
 3835POPC   C4B49750  43.852  38.214   7.364
 3836POPC   NC349751  43.087  18.265   5.564
 3836POPC   PO449752  43.083  18.291   5.864
 3836POPC   GL149753  43.094  18.292   6.164
 3836POPC   GL249754  43.057  18.366   6.164
 3836POPC   C1A49755  43.091  18.305   6.464
 3836POPC   D2A49756  43.110  18.326   6.764
 3836POPC   C3A49757  43.153  18.302   7.064
 3836POPC   C4A49758  43.101  18.323   7.364
 3836POPC   C1B49759  42.900  18.455   6.464
 3836POPC   C2B49760  42.890  18.460   6.764
 3836POPC   C3B49761  42.951  18.401   7.064
 3836POPC   C4B49762  42.910  18.469   7.364
 3837POPC   NC349763  20.579  43.910   5.564
 3837POPC   PO449764  20.587  43.895   5.864
 3837POPC   GL149765  20.618  43.906   6.164
 3837POPC   GL249766  20.511  43.910   6.164
 3837POPC   C1A49767  20.618  43.920   6.464
 3837POPC   D2A49768  20.583  43.935   6.764
 3837POPC   C3A49769  20.657  43.936   7.064
 3837POPC   C4A49770  20.594  43.872   7.364
 3837POPC   C1B49771  20.354  43.960   6.464
 3837POPC   C2B49772  20.423  43.928   6.764
 3837POPC   C3B49773  20.385  43.982   7.064
 3837POPC   C4B49774  20.357  44.006   7.364
 3838POPC   NC349775  25.231  29.096   5.564
 3838POPC   PO449776  25.263  29.099   5.864
 3838POPC   GL149777  25.280  29.105   6.164
 3838POPC   GL249778  25.334  29.193   6.164
 3838POPC   C1A49779  25.243  29.187   6.464
 3838POPC   D2A49780  25.231  29.180   6.764
 3838POPC   C3A49781  25.249  29.121   7.064
 3838POPC   C4A49782  25.271  29.165   7.364
 3838POPC   C1B49783  25.418  29.281   6.464
 3838POPC   C2B49784  25.437  29.292   6.764
 3838POPC   C3B49785  25.492  29.268   7.064
 3838POPC   C4B49786  25.431  29.296   7.364
 3839POPC   NC349787   8.964  22.142   5.564
 3839POPC   PO449788   8.931  22.120   5.864
 3839POPC   GL149789   9.005  22.140   6.164
 3839POPC   GL249790   9.102  22.199   6.164
 3839POPC   C1A49791   8.980  22.159   6.464
 3839POPC   D2A49792   8.938  22.182   6.764
 3839POPC   C3A49793   8.998  22.174   7.064
 3839POPC   C4A49794   8.964  22.177   7.364
 3839POPC   C1B49795   9.259  22.183   6.464
 3839POPC   C2B49796   9.204  22.236   6.764
 3839POPC   C3B49797   9.249  22.221   7.064
 3839POPC   C4B49798   9.180  22.245   7.364
 3840POPC   NC349799  26.796  12.125   5.564
 3840POPC   PO449800  26.816  12.027   5.864
 3840POPC   GL149801  26.807  12.089   6.164
 3840POPC   GL249802  26.693  12.142   6.164
 3840POPC   C1A49803  26.842  12.093   6.464
 3840POPC   D2A49804  26.794  12.074   6.764
 3840POPC   C3A49805  26.858  12.041   7.064
 3840POPC   C4A49806  26.854  12.119   7.364
 3840POPC   C1B49807  26.678  12.201   6.464
 3840POPC   C2B49808  26.587  12.265   6.764
 3840POPC   C3B49809  26.655  12.279   7.064
 3840POPC   C4B49810  26.592  12.277   7.364
 3841POPC   NC349811  43.883  34.611   5.564
 3841POPC   PO449812  43.859  34.618   5.864
 3841POPC   GL149813  43.839  34.619   6.164
 3841POPC   GL249814  43.922  34.484   6.164
 3841POPC   C1A49815  43.845  34.607   6.464
 3841POPC   D2A49816  43.921  34.528   6.764
 3841POPC   C3A49817  43.935  34.594   7.064
 3841POPC   C4A49818  43.911  34.533   7.364
 3841POPC   C1B49819  43.846  34.308   6.464
 3841POPC   C2B49820  43.852  34.360   6.764
 3841POPC   C3B49821  43.859  34.299   7.064
 3841POPC   C4B49822  43.853  34.292   7.364
 3842POPC   NC349823  10.507  19.826   5.564
 3842POPC   PO449824  10.568  19.884   5.864
 3842POPC   GL149825  10.555  19.848   6.164
 3842POPC   GL249826  10.527  19.712   6.164
 3842POPC   C1A49827  10.550  19.866   6.464
 3842POPC   D2A49828  10.494  19.867   6.764
 3842POPC   C3A49829  10.570  19.835   7.064
 3842POPC   C4A49830  10.572  19.840   7.364
 3842POPC   C1B49831  10.429  19.600   6.464
 3842POPC   C2B49832  10.413  19.609   6.764
 3842POPC   C3B49833  10.420  19.583   7.064
 3842POPC   C4B49834  10.469  19.591   7.364
 3843POPC   NC349835  31.493   1.228   5.564
 3843POPC   PO449836  31.499   1.192   5.864
 3843POPC   GL149837  31.461   1.243   6.164
 3843POPC   GL249838  31.388   1.304   6.164
 3843POPC   C1A49839  31.479   1.179   6.464
 3843POPC   D2A49840  31.464   1.253   6.764
 3843POPC   C3A49841  31.476   1.263   7.064
 3843POPC   C4A49842  31.467   1.238   7.364
 3843POPC   C1B49843  31.303   1.420   6.464
 3843POPC   C2B49844  31.319   1.415   6.764
 3843POPC   C3B49845  31.360   1.410   7.064
 3843POPC   C4B49846  31.336   1.439   7.364
 3844POPC   NC349847  27.560  22.206   5.564
 3844POPC   PO449848  27.603  22.201   5.864
 3844POPC   GL149849  27.596  22.117   6.164
 3844POPC   GL249850  27.626  22.276   6.164
 3844POPC   C1A49851  27.604  22.209   6.464
 3844POPC   D2A49852  27.643  22.152   6.764
 3844POPC   C3A49853  27.605  22.171   7.064
 3844POPC   C4A49854  27.636  22.173   7.364
 3844POPC   C1B49855  27.717  22.359   6.464
 3844POPC   C2B49856  27.703  22.439   6.764
 3844POPC   C3B49857  27.646  22.399   7.064
 3844POPC   C4B49858  27.656  22.353   7.364
 3845POPC   NC349859  41.591  19.840   5.564
 3845POPC   PO449860  41.544  19.881   5.864
 3845POPC   GL149861  41.539  19.870   6.164
 3845POPC   GL249862  41.628  19.905   6.164
 3845POPC   C1A49863  41.608  19.881   6.464
 3845POPC   D2A49864  41.516  19.844   6.764
 3845POPC   C3A49865  41.563  19.811   7.064
 3845POPC   C4A49866  41.608  19.821   7.364
 3845POPC   C1B49867  41.653  20.013   6.464
 3845POPC   C2B49868  41.697  20.075   6.764
 3845POPC   C3B49869  41.631  20.091   7.064
 3845POPC   C4B49870  41.626  20.020   7.364
 3846POPC   NC349871  19.102  21.338   5.564
 3846POPC   PO449872  19.065  21.376   5.864
 3846POPC   GL149873  19.091  21.392   6.164
 3846POPC   GL249874  18.923  21.372   6.164
 3846POPC   C1A49875  19.012  21.418   6.464
 3846POPC   D2A49876  19.014  21.422   6.764
 3846POPC   C3A49877  19.037  21.399   7.064
 3846POPC   C4A49878  19.107  21.398   7.364
 3846POPC   C1B49879  18.848  21.340   6.464
 3846POPC   C2B49880  18.840  21.348   6.764
 3846POPC   C3B49881  18.782  21.370   7.064
 3846POPC   C4B49882  18.800  21.323   7.364
 3847POPC   NC349883  29.897  20.622   5.564
 3847POPC   PO449884  29.937  20.610   5.864
 3847POPC   GL149885  29.947  20.637   6.164
 3847POPC   GL249886  30.069  20.724   6.164
 3847POPC   C1A49887  29.897  20.574   6.464
 3847POPC   D2A49888  29.950  20.605   6.764
 3847POPC   C3A49889  29.911  20.636   7.064
 3847POPC   C4A49890  29.938  20.644   7.364
 3847POPC   C1B49891  30.122  20.769   6.464
 3847POPC   C2B49892  30.076  20.770   6.764
 3847POPC   C3B49893  30.137  20.809   7.064
 3847POPC   C4B49894  30.154  20.775   7.364
 3848POPC   NC349895  24.533   4.318   5.564
 3848POPC   PO449896  24.478   4.355   5.864
 3848POPC   GL149897  24.483   4.355   6.164
 3848POPC   GL249898  24.534   4.397   6.164
 3848POPC   C1A49899  24.498   4.316   6.464
 3848POPC   D2A49900  24.471   4.361   6.764
 3848POPC   C3A49901  24.441   4.335   7.064
 3848POPC   C4A49902  24.467   4.314   7.364
 3848POPC   C1B49903  24.621   4.529   6.464
 3848POPC   C2B49904  24.576   4.593   6.764
 3848POPC   C3B49905  24.555   4.539   7.064
 3848POPC   C4B49906  24.594   4.569   7.364
 3849POPC   NC349907  15.996   7.386   5.564
 3849POPC   PO449908  15.931   7.440   5.864
 3849POPC   GL149909  15.993   7.438   6.164
 3849POPC   GL249910  16.119   7.399   6.164
 3849POPC   C1A49911  15.949   7.424   6.464
 3849POPC   D2A49912  15.985   7.386   6.764
 3849POPC   C3A49913  15.990   7.399   7.064
 3849POPC   C4A49914  15.999   7.372   7.364
 3849POPC   C1B49915  16.195   7.423   6.464
 3849POPC   C2B49916  16.178   7.422   6.764
 3849POPC   C3B49917  16.208   7.451   7.064
 3849POPC   C4B49918  16.247   7.444   7.364
 3850POPC   NC349919  19.836  21.338   5.564
 3850POPC   PO449920  19.824  21.338   5.864
 3850POPC   GL149921  19.787  21.379   6.164
 3850POPC   GL249922  19.972  21.309   6.164
 3850POPC   C1A49923  19.797  21.434   6.464
 3850POPC   D2A49924  19.793  21.405   6.764
 3850POPC   C3A49925  19.842  21.429   7.064
 3850POPC   C4A49926  19.797  21.396   7.364
 3850POPC   C1B49927  20.046  21.202   6.464
 3850POPC   C2B49928  20.025  21.284   6.764
 3850POPC   C3B49929  20.065  21.291   7.064
 3850POPC   C4B49930  20.042  21.266   7.364
 3851POPC   NC349931  39.989  11.296   5.564
 3851POPC   PO449932  39.957  11.251   5.864
 3851POPC   GL149933  40.050  11.262   6.164
 3851POPC   GL249934  40.144  11.260   6.164
 3851POPC   C1A49935  40.017  11.267   6.464
 3851POPC   D2A49936  40.049  11.299   6.764
 3851POPC   C3A49937  40.031  11.303   7.064
 3851POPC   C4A49938  40.043  11.346   7.364
 3851POPC   C1B49939  40.300  11.210   6.464
 3851POPC   C2B49940  40.288  11.242   6.764
 3851POPC   C3B49941  40.206  11.240   7.064
 3851POPC   C4B49942  40.270  11.232   7.364
 3852POPC   NC349943   8.976  36.117   5.564
 3852POPC   PO449944   8.994  36.103   5.864
 3852POPC   GL149945   8.996  36.152   6.164
 3852POPC   GL249946   8.893  36.205   6.164
 3852POPC   C1A49947   8.962  36.138   6.464
 3852POPC   D2A49948   8.940  36.082   6.764
 3852POPC   C3A49949   8.966  36.089   7.064
 3852POPC   C4A49950   8.949  36.136   7.364
 3852POPC   C1B49951   8.864  36.315   6.464
 3852POPC   C2B49952   8.884  36.355   6.764
 3852POPC   C3B49953   8.855  36.340   7.064
 3852POPC   C4B49954   8.838  36.380   7.364
 3853POPC   NC349955  22.976  12.026   5.564
 3853POPC   PO449956  22.953  12.077   5.864
 3853POPC   GL149957  22.959  12.051   6.164
 3853POPC   GL249958  22.793  12.196   6.164
 3853POPC   C1A49959  22.975  12.096   6.464
 3853POPC   D2A49960  22.979  12.067   6.764
 3853POPC   C3A49961  22.906  12.072   7.064
 3853POPC   C4A49962  22.973  12.094   7.364
 3853POPC   C1B49963  22.763  12.203   6.464
 3853POPC   C2B49964  22.752  12.199   6.764
 3853POPC   C3B49965  22.748  12.267   7.064
 3853POPC   C4B49966  22.696  12.202   7.364
 3854POPC   NC349967  38.414   9.000   5.564
 3854POPC   PO449968  38.415   8.974   5.864
 3854POPC   GL149969  38.457   9.020   6.164
 3854POPC   GL249970  38.548   8.906   6.164
 3854POPC   C1A49971  38.445   8.992   6.464
 3854POPC   D2A49972  38.426   8.988   6.764
 3854POPC   C3A49973  38.498   8.951   7.064
 3854POPC   C4A49974  38.465   8.960   7.364
 3854POPC   C1B49975  38.675   8.870   6.464
 3854POPC   C2B49976  38.710   8.879   6.764
 3854POPC   C3B49977  38.652   8.864   7.064
 3854POPC   C4B49978  38.704   8.906   7.364
 3855POPC   NC349979  26.031  43.107   5.564
 3855POPC   PO449980  26.005  43.099   5.864
 3855POPC   GL149981  26.060  43.160   6.164
 3855POPC   GL249982  26.085  43.006   6.164
 3855POPC   C1A49983  26.045  43.128   6.464
 3855POPC   D2A49984  26.066  43.159   6.764
 3855POPC   C3A49985  25.996  43.131   7.064
 3855POPC   C4A49986  26.061  43.110   7.364
 3855POPC   C1B49987  26.110  42.875   6.464
 3855POPC   C2B49988  26.107  42.909   6.764
 3855POPC   C3B49989  26.057  42.899   7.064
 3855POPC   C4B49990  26.078  42.838   7.364
 3856POPC   NC349991  16.747   7.455   5.564
 3856POPC   PO449992  16.777   7.413   5.864
 3856POPC   GL149993  16.774   7.409   6.164
 3856POPC   GL249994  16.810   7.575   6.164
 3856POPC   C1A49995  16.731   7.420   6.464
 3856POPC   D2A49996  16.746   7.379   6.764
 3856POPC   C3A49997  16.689   7.405   7.064
 3856POPC   C4A49998  16.758   7.449   7.364
 3856POPC   C1B49999  16.873   7.699   6.464
 3856POPC   C2B50000  16.805   7.659   6.764
 3856POPC   C3B50001  16.793   7.658   7.064
 3856POPC   C4B50002  16.796   7.629   7.364
 3857POPC   NC350003  28.389  23.736   5.564
 3857POPC   PO450004  28.365  23.698   5.864
 3857POPC   GL150005  28.416  23.751   6.164
 3857POPC   GL250006  28.311  23.855   6.164
 3857POPC   C1A50007  28.396  23.735   6.464
 3857POPC   D2A50008  28.391  23.763   6.764
 3857POPC   C3A50009  28.375  23.677   7.064
 3857POPC   C4A50010  28.324  23.713   7.364
 3857POPC   C1B50011  28.213  23.975   6.464
 3857POPC   C2B50012  28.293  23.973   6.764
 3857POPC   C3B50013  28.214  23.920   7.064
 3857POPC   C4B50014  28.232  23.940   7.364
 3858POPC   NC350015   4.335  42.342   5.564
 3858POPC   PO450016   4.366  42.300   5.864
 3858POPC   GL150017   4.346  42.319   6.164
 3858POPC   GL250018   4.370  42.421   6.164
 3858POPC   C1A50019   4.340  42.341   6.464
 3858POPC   D2A50020   4.304  42.290   6.764
 3858POPC   C3A50021   4.356  42.341   7.064
 3858POPC   C4A50022   4.302  42.332   7.364
 3858POPC   C1B50023   4.557  42.514   6.464
 3858POPC   C2B50024   4.555  42.528   6.764
 3858POPC   C3B50025   4.498  42.447   7.064
 3858POPC   C4B50026   4.559  42.497   7.364
 3859POPC   NC350027  17.530   1.195   5.564
 3859POPC   PO450028  17.469   1.179   5.864
 3859POPC   GL150029  17.555   1.247   6.164
 3859POPC   GL250030  17.422   1.307   6.164
 3859POPC   C1A50031  17.495   1.205   6.464
 3859POPC   D2A50032  17.511   1.213   6.764
 3859POPC   C3A50033  17.535   1.183   7.064
 3859POPC   C4A50034  17.464   1.176   7.364
 3859POPC   C1B50035  17.251   1.300   6.464
 3859POPC   C2B50036  17.318   1.331   6.764
 3859POPC   C3B50037  17.308   1.379   7.064
 3859POPC   C4B50038  17.307   1.325   7.364
 3860POPC   NC350039  42.320  36.938   5.564
 3860POPC   PO450040  42.333  36.910   5.864
 3860POPC   GL150041  42.321  36.943   6.164
 3860POPC   GL250042  42.186  36.977   6.164
 3860POPC   C1A50043  42.346  36.921   6.464
 3860POPC   D2A50044  42.363  36.907   6.764
 3860POPC   C3A50045  42.337  36.930   7.064
 3860POPC   C4A50046  42.312  36.937   7.364
 3860POPC   C1B50047  42.088  37.086   6.464
 3860POPC   C2B50048  42.176  37.044   6.764
 3860POPC   C3B50049  42.134  37.069   7.064
 3860POPC   C4B50050  42.152  37.039   7.364
 3861POPC   NC350051  37.707  37.722   5.564
 3861POPC   PO450052  37.660  37.648   5.864
 3861POPC   GL150053  37.686  37.693   6.164
 3861POPC   GL250054  37.585  37.741   6.164
 3861POPC   C1A50055  37.729  37.637   6.464
 3861POPC   D2A50056  37.724  37.677   6.764
 3861POPC   C3A50057  37.707  37.647   7.064
 3861POPC   C4A50058  37.632  37.639   7.364
 3861POPC   C1B50059  37.468  37.768   6.464
 3861POPC   C2B50060  37.437  37.786   6.764
 3861POPC   C3B50061  37.405  37.753   7.064
 3861POPC   C4B50062  37.432  37.778   7.364
 3862POPC   NC350063  23.686   9.013   5.564
 3862POPC   PO450064  23.747   9.020   5.864
 3862POPC   GL150065  23.665   8.929   6.164
 3862POPC   GL250066  23.796   8.992   6.164
 3862POPC   C1A50067  23.709   8.922   6.464
 3862POPC   D2A50068  23.678   8.997   6.764
 3862POPC   C3A50069  23.737   8.994   7.064
 3862POPC   C4A50070  23.750   8.932   7.364
 3862POPC   C1B50071  23.919   8.993   6.464
 3862POPC   C2B50072  23.910   9.007   6.764
 3862POPC   C3B50073  23.990   9.060   7.064
 3862POPC   C4B50074  23.917   8.993   7.364
 3863POPC   NC350075  27.637  34.586   5.564
 3863POPC   PO450076  27.604  34.553   5.864
 3863POPC   GL150077  27.547  34.551   6.164
 3863POPC   GL250078  27.723  34.446   6.164
 3863POPC   C1A50079  27.575  34.625   6.464
 3863POPC   D2A50080  27.601  34.528   6.764
 3863POPC   C3A50081  27.600  34.560   7.064
 3863POPC   C4A50082  27.618  34.562   7.364
 3863POPC   C1B50083  27.732  34.446   6.464
 3863POPC   C2B50084  27.730  34.392   6.764
 3863POPC   C3B50085  27.818  34.397   7.064
 3863POPC   C4B50086  27.732  34.419   7.364
 3864POPC   NC350087  10.526  11.313   5.564
 3864POPC   PO450088  10.544  11.308   5.864
 3864POPC   GL150089  10.563  11.304   6.164
 3864POPC   GL250090  10.537  11.381   6.164
 3864POPC   C1A50091  10.535  11.304   6.464
 3864POPC   D2A50092  10.517  11.343   6.764
 3864POPC   C3A50093  10.543  11.291   7.064
 3864POPC   C4A50094  10.482  11.257   7.364
 3864POPC   C1B50095  10.556  11.548   6.464
 3864POPC   C2B50096  10.560  11.577   6.764
 3864POPC   C3B50097  10.572  11.548   7.064
 3864POPC   C4B50098  10.538  11.532   7.364
 3865POPC   NC350099  38.470  13.614   5.564
 3865POPC   PO450100  38.467  13.659   5.864
 3865POPC   GL150101  38.472  13.641   6.164
 3865POPC   GL250102  38.310  13.666   6.164
 3865POPC   C1A50103  38.440  13.615   6.464
 3865POPC   D2A50104  38.455  13.603   6.764
 3865POPC   C3A50105  38.454  13.660   7.064
 3865POPC   C4A50106  38.420  13.640   7.364
 3865POPC   C1B50107  38.212  13.631   6.464
 3865POPC   C2B50108  38.164  13.621   6.764
 3865POPC   C3B50109  38.186  13.662   7.064
 3865POPC   C4B50110  38.254  13.653   7.364
 3866POPC   NC350111  31.447  22.208   5.564
 3866POPC   PO450112  31.479  22.137   5.864
 3866POPC   GL150113  31.520  22.126   6.164
 3866POPC   GL250114  31.397  22.256   6.164
 3866POPC   C1A50115  31.501  22.145   6.464
 3866POPC   D2A50116  31.437  22.118   6.764
 3866POPC   C3A50117  31.470  22.193   7.064
 3866POPC   C4A50118  31.506  22.115   7.364
 3866POPC   C1B50119  31.231  22.233   6.464
 3866POPC   C2B50120  31.236  22.241   6.764
 3866POPC   C3B50121  31.277  22.258   7.064
 3866POPC   C4B50122  31.277  22.226   7.364
 3867POPC   NC350123  29.172  18.301   5.564
 3867POPC   PO450124  29.178  18.303   5.864
 3867POPC   GL150125  29.161  18.253   6.164
 3867POPC   GL250126  29.245  18.235   6.164
 3867POPC   C1A50127  29.192  18.249   6.464
 3867POPC   D2A50128  29.172  18.332   6.764
 3867POPC   C3A50129  29.149  18.279   7.064
 3867POPC   C4A50130  29.183  18.332   7.364
 3867POPC   C1B50131  29.419  18.242   6.464
 3867POPC   C2B50132  29.424  18.252   6.764
 3867POPC   C3B50133  29.353  18.179   7.064
 3867POPC   C4B50134  29.369  18.175   7.364
 3868POPC   NC350135  41.572   4.320   5.564
 3868POPC   PO450136  41.570   4.337   5.864
 3868POPC   GL150137  41.562   4.298   6.164
 3868POPC   GL250138  41.621   4.228   6.164
 3868POPC   C1A50139  41.575   4.349   6.464
 3868POPC   D2A50140  41.591   4.343   6.764
 3868POPC   C3A50141  41.514   4.278   7.064
 3868POPC   C4A50142  41.523   4.320   7.364
 3868POPC   C1B50143  41.696   4.119   6.464
 3868POPC   C2B50144  41.701   4.120   6.764
 3868POPC   C3B50145  41.677   4.048   7.064
 3868POPC   C4B50146  41.630   4.059   7.364
 3869POPC   NC350147  30.723  43.085   5.564
 3869POPC   PO450148  30.724  43.072   5.864
 3869POPC   GL150149  30.738  43.129   6.164
 3869POPC   GL250150  30.780  43.073   6.164
 3869POPC   C1A50151  30.676  43.082   6.464
 3869POPC   D2A50152  30.734  43.134   6.764
 3869POPC   C3A50153  30.718  43.092   7.064
 3869POPC   C4A50154  30.689  43.068   7.364
 3869POPC   C1B50155  30.887  43.045   6.464
 3869POPC   C2B50156  30.881  43.066   6.764
 3869POPC   C3B50157  30.917  43.020   7.064
 3869POPC   C4B50158  30.917  42.993   7.364
 3870POPC   NC350159  10.534  33.068   5.564
 3870POPC   PO450160  10.522  33.020   5.864
 3870POPC   GL150161  10.546  33.044   6.164
 3870POPC   GL250162  10.599  32.897   6.164
 3870POPC   C1A50163  10.556  32.995   6.464
 3870POPC   D2A50164  10.529  33.019   6.764
 3870POPC   C3A50165  10.537  33.021   7.064
 3870POPC   C4A50166  10.498  32.990   7.364
 3870POPC   C1B50167  10.749  32.841   6.464
 3870POPC   C2B50168  10.738  32.869   6.764
 3870POPC   C3B50169  10.680  32.865   7.064
 3870POPC   C4B50170  10.739  32.896   7.364
 3871POPC   NC350171  12.108  33.013   5.564
 3871POPC   PO450172  12.061  33.042   5.864
 3871POPC   GL150173  12.103  33.001   6.164
 3871POPC   GL250174  11.957  32.972   6.164
 3871POPC   C1A50175  12.095  33.037   6.464
 3871POPC   D2A50176  12.082  33.058   6.764
 3871POPC   C3A50177  12.074  33.073   7.064
 3871POPC   C4A50178  12.117  32.992   7.364
 3871POPC   C1B50179  11.894  32.853   6.464
 3871POPC   C2B50180  11.897  32.888   6.764
 3871POPC   C3B50181  11.908  32.828   7.064
 3871POPC   C4B50182  11.935  32.833   7.364
 3872POPC   NC350183   5.088  26.034   5.564
 3872POPC   PO450184   5.064  26.035   5.864
 3872POPC   GL150185   5.137  26.059   6.164
 3872POPC   GL250186   5.201  25.963   6.164
 3872POPC   C1A50187   5.051  26.050   6.464
 3872POPC   D2A50188   5.125  26.034   6.764
 3872POPC   C3A50189   5.053  26.038   7.064
 3872POPC   C4A50190   5.128  26.063   7.364
 3872POPC   C1B50191   5.356  26.017   6.464
 3872POPC   C2B50192   5.346  25.949   6.764
 3872POPC   C3B50193   5.343  25.987   7.064
 3872POPC   C4B50194   5.297  25.966   7.364
 3873POPC   NC350195  31.432  42.314   5.564
 3873POPC   PO450196  31.472  42.383   5.864
 3873POPC   GL150197  31.461  42.310   6.164
 3873POPC   GL250198  31.557  42.221   6.164
 3873POPC   C1A50199  31.473  42.323   6.464
 3873POPC   D2A50200  31.426  42.323   6.764
 3873POPC   C3A50201  31.424  42.381   7.064
 3873POPC   C4A50202  31.498  42.300   7.364
 3873POPC   C1B50203  31.610  42.171   6.464
 3873POPC   C2B50204  31.612  42.119   6.764
 3873POPC   C3B50205  31.620  42.111   7.064
 3873POPC   C4B50206  31.625  42.141   7.364
 3874POPC   NC350207  25.227   2.019   5.564
 3874POPC   PO450208  25.221   1.961   5.864
 3874POPC   GL150209  25.250   2.014   6.164
 3874POPC   GL250210  25.179   1.880   6.164
 3874POPC   C1A50211  25.230   2.008   6.464
 3874POPC   D2A50212  25.251   1.959   6.764
 3874POPC   C3A50213  25.260   2.011   7.064
 3874POPC   C4A50214  25.220   1.942   7.364
 3874POPC   C1B50215  25.037   1.796   6.464
 3874POPC   C2B50216  25.104   1.837   6.764
 3874POPC   C3B50217  25.016   1.851   7.064
 3874POPC   C4B50218  25.040   1.812   7.364
 3875POPC   NC350219  24.532  26.793   5.564
 3875POPC   PO450220  24.540  26.799   5.864
 3875POPC   GL150221  24.496  26.845   6.164
 3875POPC   GL250222  24.350  26.768   6.164
 3875POPC   C1A50223  24.527  26.838   6.464
 3875POPC   D2A50224  24.520  26.848   6.764
 3875POPC   C3A50225  24.456  26.814   7.064
 3875POPC   C4A50226  24.502  26.853   7.364
 3875POPC   C1B50227  24.285  26.667   6.464
 3875POPC   C2B50228  24.224  26.659   6.764
 3875POPC   C3B50229  24.232  26.703   7.064
 3875POPC   C4B50230  24.303  26.750   7.364
 3876POPC   NC350231  20.631   5.899   5.564
 3876POPC   PO450232  20.630   5.918   5.864
 3876POPC   GL150233  20.613   5.915   6.164
 3876POPC   GL250234  20.700   6.002   6.164
 3876POPC   C1A50235  20.610   5.917   6.464
 3876POPC   D2A50236  20.613   5.867   6.764
 3876POPC   C3A50237  20.588   5.893   7.064
 3876POPC   C4A50238  20.639   5.918   7.364
 3876POPC   C1B50239  20.781   6.117   6.464
 3876POPC   C2B50240  20.741   6.057   6.764
 3876POPC   C3B50241  20.779   6.025   7.064
 3876POPC   C4B50242  20.762   6.062   7.364
 3877POPC   NC350243  43.077  22.951   5.564
 3877POPC   PO450244  43.080  22.897   5.864
 3877POPC   GL150245  43.110  22.931   6.164
 3877POPC   GL250246  43.068  22.869   6.164
 3877POPC   C1A50247  43.115  22.909   6.464
 3877POPC   D2A50248  43.126  22.961   6.764
 3877POPC   C3A50249  43.106  22.977   7.064
 3877POPC   C4A50250  43.136  22.982   7.364
 3877POPC   C1B50251  42.943  22.779   6.464
 3877POPC   C2B50252  42.933  22.811   6.764
 3877POPC   C3B50253  42.961  22.765   7.064
 3877POPC   C4B50254  42.910  22.802   7.364
 3878POPC   NC350255  20.614  32.211   5.564
 3878POPC   PO450256  20.597  32.208   5.864
 3878POPC   GL150257  20.599  32.223   6.164
 3878POPC   GL250258  20.696  32.175   6.164
 3878POPC   C1A50259  20.605  32.209   6.464
 3878POPC   D2A50260  20.608  32.278   6.764
 3878POPC   C3A50261  20.612  32.228   7.064
 3878POPC   C4A50262  20.624  32.212   7.364
 3878POPC   C1B50263  20.788  32.125   6.464
 3878POPC   C2B50264  20.878  32.109   6.764
 3878POPC   C3B50265  20.839  32.117   7.064
 3878POPC   C4B50266  20.873  32.104   7.364
 3879POPC   NC350267  15.144  28.342   5.564
 3879POPC   PO450268  15.202  28.359   5.864
 3879POPC   GL150269  15.159  28.398   6.164
 3879POPC   GL250270  15.072  28.292   6.164
 3879POPC   C1A50271  15.213  28.402   6.464
 3879POPC   D2A50272  15.228  28.391   6.764
 3879POPC   C3A50273  15.188  28.338   7.064
 3879POPC   C4A50274  15.205  28.358   7.364
 3879POPC   C1B50275  14.994  28.168   6.464
 3879POPC   C2B50276  14.955  28.245   6.764
 3879POPC   C3B50277  15.006  28.245   7.064
 3879POPC   C4B50278  15.027  28.205   7.364
 3880POPC   NC350279  35.366  29.902   5.564
 3880POPC   PO450280  35.339  29.936   5.864
 3880POPC   GL150281  35.331  29.900   6.164
 3880POPC   GL250282  35.303  29.782   6.164
 3880POPC   C1A50283  35.307  29.905   6.464
 3880POPC   D2A50284  35.322  29.872   6.764
 3880POPC   C3A50285  35.307  29.929   7.064
 3880POPC   C4A50286  35.347  29.961   7.364
 3880POPC   C1B50287  35.310  29.679   6.464
 3880POPC   C2B50288  35.289  29.651   6.764
 3880POPC   C3B50289  35.337  29.700   7.064
 3880POPC   C4B50290  35.337  29.719   7.364
 3881POPC   NC350291  28.419  13.600   5.564
 3881POPC   PO450292  28.390  13.675   5.864
 3881POPC   GL150293  28.387  13.583   6.164
 3881POPC   GL250294  28.354  13.793   6.164
 3881POPC   C1A50295  28.346  13.670   6.464
 3881POPC   D2A50296  28.392  13.668   6.764
 3881POPC   C3A50297  28.378  13.603   7.064
 3881POPC   C4A50298  28.356  13.586   7.364
 3881POPC   C1B50299  28.375  13.916   6.464
 3881POPC   C2B50300  28.374  13.890   6.764
 3881POPC   C3B50301  28.320  13.848   7.064
 3881POPC   C4B50302  28.391  13.837   7.364
 3882POPC   NC350303  29.938  18.326   5.564
 3882POPC   PO450304  29.942  18.325   5.864
 3882POPC   GL150305  29.923  18.242   6.164
 3882POPC   GL250306  30.086  18.290   6.164
 3882POPC   C1A50307  29.878  18.248   6.464
 3882POPC   D2A50308  29.885  18.245   6.764
 3882POPC   C3A50309  29.934  18.277   7.064
 3882POPC   C4A50310  29.928  18.245   7.364
 3882POPC   C1B50311  30.144  18.246   6.464
 3882POPC   C2B50312  30.219  18.249   6.764
 3882POPC   C3B50313  30.125  18.228   7.064
 3882POPC   C4B50314  30.146  18.307   7.364
 3883POPC   NC350315  26.834   8.946   5.564
 3883POPC   PO450316  26.788   8.999   5.864
 3883POPC   GL150317  26.781   8.958   6.164
 3883POPC   GL250318  26.957   8.897   6.164
 3883POPC   C1A50319  26.826   8.938   6.464
 3883POPC   D2A50320  26.808   8.989   6.764
 3883POPC   C3A50321  26.847   8.978   7.064
 3883POPC   C4A50322  26.815   8.976   7.364
 3883POPC   C1B50323  27.067   8.795   6.464
 3883POPC   C2B50324  26.980   8.870   6.764
 3883POPC   C3B50325  27.007   8.854   7.064
 3883POPC   C4B50326  27.038   8.793   7.364
 3884POPC   NC350327  12.855  12.819   5.564
 3884POPC   PO450328  12.802  12.831   5.864
 3884POPC   GL150329  12.826  12.877   6.164
 3884POPC   GL250330  12.838  12.756   6.164
 3884POPC   C1A50331  12.870  12.862   6.464
 3884POPC   D2A50332  12.858  12.804   6.764
 3884POPC   C3A50333  12.896  12.818   7.064
 3884POPC   C4A50334  12.806  12.893   7.364
 3884POPC   C1B50335  12.811  12.616   6.464
 3884POPC   C2B50336  12.814  12.580   6.764
 3884POPC   C3B50337  12.894  12.610   7.064
 3884POPC   C4B50338  12.818  12.557   7.364
 3885POPC   NC350339   4.295   5.827   5.564
 3885POPC   PO450340   4.361   5.830   5.864
 3885POPC   GL150341   4.267   5.845   6.164
 3885POPC   GL250342   4.210   5.874   6.164
 3885POPC   C1A50343   4.269   5.848   6.464
 3885POPC   D2A50344   4.286   5.857   6.764
 3885POPC   C3A50345   4.322   5.858   7.064
 3885POPC   C4A50346   4.309   5.841   7.364
 3885POPC   C1B50347   4.084   5.896   6.464
 3885POPC   C2B50348   4.040   5.981   6.764
 3885POPC   C3B50349   4.082   5.932   7.064
 3885POPC   C4B50350   4.116   5.946   7.364
 3886POPC   NC350351   5.057   3.510   5.564
 3886POPC   PO450352   5.113   3.567   5.864
 3886POPC   GL150353   5.091   3.539   6.164
 3886POPC   GL250354   5.014   3.475   6.164
 3886POPC   C1A50355   5.128   3.552   6.464
 3886POPC   D2A50356   5.141   3.499   6.764
 3886POPC   C3A50357   5.111   3.492   7.064
 3886POPC   C4A50358   5.098   3.580   7.364
 3886POPC   C1B50359   4.877   3.382   6.464
 3886POPC   C2B50360   4.843   3.398   6.764
 3886POPC   C3B50361   4.833   3.441   7.064
 3886POPC   C4B50362   4.860   3.404   7.364
 3887POPC   NC350363  31.467   8.978   5.564
 3887POPC   PO450364  31.517   8.990   5.864
 3887POPC   GL150365  31.470   8.950   6.164
 3887POPC   GL250366  31.580   8.904   6.164
 3887POPC   C1A50367  31.446   8.941   6.464
 3887POPC   D2A50368  31.514   9.004   6.764
 3887POPC   C3A50369  31.498   8.938   7.064
 3887POPC   C4A50370  31.480   8.978   7.364
 3887POPC   C1B50371  31.700   8.883   6.464
 3887POPC   C2B50372  31.742   8.903   6.764
 3887POPC   C3B50373  31.721   8.893   7.064
 3887POPC   C4B50374  31.723   8.870   7.364
 3888POPC   NC350375  19.074  14.431   5.564
 3888POPC   PO450376  19.059  14.369   5.864
 3888POPC   GL150377  19.068  14.424   6.164
 3888POPC   GL250378  19.071  14.491   6.164
 3888POPC   C1A50379  19.013  14.394   6.464
 3888POPC   D2A50380  19.108  14.388   6.764
 3888POPC   C3A50381  19.024  14.388   7.064
 3888POPC   C4A50382  19.074  14.442   7.364
 3888POPC   C1B50383  19.130  14.600   6.464
 3888POPC   C2B50384  19.111  14.649   6.764
 3888POPC   C3B50385  19.185  14.604   7.064
 3888POPC   C4B50386  19.135  14.624   7.364
 3889POPC   NC350387  10.505   3.579   5.564
 3889POPC   PO450388  10.558   3.576   5.864
 3889POPC   GL150389  10.555   3.562   6.164
 3889POPC   GL250390  10.636   3.627   6.164
 3889POPC   C1A50391  10.495   3.514   6.464
 3889POPC   D2A50392  10.490   3.497   6.764
 3889POPC   C3A50393  10.554   3.493   7.064
 3889POPC   C4A50394  10.505   3.530   7.364
 3889POPC   C1B50395  10.691   3.700   6.464
 3889POPC   C2B50396  10.735   3.675   6.764
 3889POPC   C3B50397  10.697   3.704   7.064
 3889POPC   C4B50398  10.733   3.632   7.364
 3890POPC   NC350399  39.217  20.600   5.564
 3890POPC   PO450400  39.210  20.563   5.864
 3890POPC   GL150401  39.253  20.617   6.164
 3890POPC   GL250402  39.377  20.556   6.164
 3890POPC   C1A50403  39.243  20.591   6.464
 3890POPC   D2A50404  39.203  20.639   6.764
 3890POPC   C3A50405  39.252  20.611   7.064
 3890POPC   C4A50406  39.207  20.614   7.364
 3890POPC   C1B50407  39.445  20.490   6.464
 3890POPC   C2B50408  39.411  20.420   6.764
 3890POPC   C3B50409  39.457  20.418   7.064
 3890POPC   C4B50410  39.399  20.479   7.364
 3891POPC   NC350411   9.700  35.384   5.564
 3891POPC   PO450412   9.750  35.369   5.864
 3891POPC   GL150413   9.788  35.376   6.164
 3891POPC   GL250414   9.739  35.428   6.164
 3891POPC   C1A50415   9.711  35.396   6.464
 3891POPC   D2A50416   9.715  35.338   6.764
 3891POPC   C3A50417   9.766  35.309   7.064
 3891POPC   C4A50418   9.710  35.335   7.364
 3891POPC   C1B50419   9.791  35.558   6.464
 3891POPC   C2B50420   9.829  35.605   6.764
 3891POPC   C3B50421   9.789  35.577   7.064
 3891POPC   C4B50422   9.844  35.619   7.364
 3892POPC   NC350423   6.599   8.201   5.564
 3892POPC   PO450424   6.641   8.177   5.864
 3892POPC   GL150425   6.614   8.183   6.164
 3892POPC   GL250426   6.706   8.134   6.164
 3892POPC   C1A50427   6.615   8.168   6.464
 3892POPC   D2A50428   6.691   8.187   6.764
 3892POPC   C3A50429   6.624   8.219   7.064
 3892POPC   C4A50430   6.660   8.225   7.364
 3892POPC   C1B50431   6.819   8.043   6.464
 3892POPC   C2B50432   6.869   8.031   6.764
 3892POPC   C3B50433   6.827   7.999   7.064
 3892POPC   C4B50434   6.860   8.053   7.364
 3893POPC   NC350435  40.822  43.847   5.564
 3893POPC   PO450436  40.814  43.846   5.864
 3893POPC   GL150437  40.766  43.888   6.164
 3893POPC   GL250438  40.676  43.914   6.164
 3893POPC   C1A50439  40.812  43.932   6.464
 3893POPC   D2A50440  40.755  43.869   6.764
 3893POPC   C3A50441  40.805  43.882   7.064
 3893POPC   C4A50442  40.771  43.885   7.364
 3893POPC   C1B50443  40.565  43.884   6.464
 3893POPC   C2B50444  40.497  43.863   6.764
 3893POPC   C3B50445  40.519  43.838   7.064
 3893POPC   C4B50446  40.547  43.892   7.364
 3894POPC   NC350447   2.805  29.880   5.564
 3894POPC   PO450448   2.815  29.925   5.864
 3894POPC   GL150449   2.764  29.921   6.164
 3894POPC   GL250450   2.913  29.922   6.164
 3894POPC   C1A50451   2.776  29.920   6.464
 3894POPC   D2A50452   2.771  29.950   6.764
 3894POPC   C3A50453   2.763  29.907   7.064
 3894POPC   C4A50454   2.731  29.911   7.364
 3894POPC   C1B50455   2.966  29.936   6.464
 3894POPC   C2B50456   2.991  29.952   6.764
 3894POPC   C3B50457   2.971  29.872   7.064
 3894POPC   C4B50458   3.035  29.875   7.364
 3895POPC   NC350459  40.747   8.181   5.564
 3895POPC   PO450460  40.811   8.207   5.864
 3895POPC   GL150461  40.745   8.175   6.164
 3895POPC   GL250462  40.718   8.277   6.164
 3895POPC   C1A50463  40.811   8.153   6.464
 3895POPC   D2A50464  40.803   8.206   6.764
 3895POPC   C3A50465  40.818   8.173   7.064
 3895POPC   C4A50466  40.813   8.246   7.364
 3895POPC   C1B50467  40.697   8.439   6.464
 3895POPC   C2B50468  40.711   8.422   6.764
 3895POPC   C3B50469  40.722   8.415   7.064
 3895POPC   C4B50470  40.711   8.470   7.364
 3896POPC   NC350471  27.545  25.217   5.564
 3896POPC   PO450472  27.548  25.225   5.864
 3896POPC   GL150473  27.552  25.250   6.164
 3896POPC   GL250474  27.589  25.120   6.164
 3896POPC   C1A50475  27.554  25.295   6.464
 3896POPC   D2A50476  27.570  25.309   6.764
 3896POPC   C3A50477  27.578  25.294   7.064
 3896POPC   C4A50478  27.618  25.296   7.364
 3896POPC   C1B50479  27.638  24.988   6.464
 3896POPC   C2B50480  27.603  25.031   6.764
 3896POPC   C3B50481  27.592  24.990   7.064
 3896POPC   C4B50482  27.606  25.043   7.364
 3897POPC   NC350483  12.845  16.775   5.564
 3897POPC   PO450484  12.848  16.752   5.864
 3897POPC   GL150485  12.885  16.702   6.164
 3897POPC   GL250486  12.889  16.827   6.164
 3897POPC   C1A50487  12.825  16.705   6.464
 3897POPC   D2A50488  12.834  16.708   6.764
 3897POPC   C3A50489  12.898  16.726   7.064
 3897POPC   C4A50490  12.806  16.721   7.364
 3897POPC   C1B50491  12.848  16.930   6.464
 3897POPC   C2B50492  12.875  16.952   6.764
 3897POPC   C3B50493  12.847  16.978   7.064
 3897POPC   C4B50494  12.847  16.939   7.364
 3898POPC   NC350495  40.031   0.488   5.564
 3898POPC   PO450496  39.995   0.420   5.864
 3898POPC   GL150497  40.018   0.442   6.164
 3898POPC   GL250498  40.179   0.394   6.164
 3898POPC   C1A50499  39.957   0.472   6.464
 3898POPC   D2A50500  40.033   0.483   6.764
 3898POPC   C3A50501  40.053   0.391   7.064
 3898POPC   C4A50502  39.958   0.474   7.364
 3898POPC   C1B50503  40.249   0.455   6.464
 3898POPC   C2B50504  40.299   0.455   6.764
 3898POPC   C3B50505  40.299   0.399   7.064
 3898POPC   C4B50506  40.300   0.451   7.364
 3899POPC   NC350507   8.936  43.853   5.564
 3899POPC   PO450508   8.926  43.859   5.864
 3899POPC   GL150509   8.955  43.903   6.164
 3899POPC   GL250510   9.071  43.949   6.164
 3899POPC   C1A50511   8.972  43.917   6.464
 3899POPC   D2A50512   8.942  43.933   6.764
 3899POPC   C3A50513   8.982  43.839   7.064
 3899POPC   C4A50514   9.000  43.838   7.364
 3899POPC   C1B50515   9.169  44.000   6.464
 3899POPC   C2B50516   9.246  43.934   6.764
 3899POPC   C3B50517   9.234  43.936   7.064
 3899POPC   C4B50518   9.215  43.969   7.364
 3900POPC   NC350519  22.178  33.846   5.564
 3900POPC   PO450520  22.160  33.764   5.864
 3900POPC   GL150521  22.154  33.776   6.164
 3900POPC   GL250522  22.294  33.850   6.164
 3900POPC   C1A50523  22.150  33.754   6.464
 3900POPC   D2A50524  22.130  33.838   6.764
 3900POPC   C3A50525  22.186  33.826   7.064
 3900POPC   C4A50526  22.205  33.835   7.364
 3900POPC   C1B50527  22.393  33.889   6.464
 3900POPC   C2B50528  22.401  33.910   6.764
 3900POPC   C3B50529  22.443  33.892   7.064
 3900POPC   C4B50530  22.371  33.854   7.364
 3901POPC   NC350531  16.690  23.714   5.564
 3901POPC   PO450532  16.687  23.667   5.864
 3901POPC   GL150533  16.770  23.742   6.164
 3901POPC   GL250534  16.721  23.862   6.164
 3901POPC   C1A50535  16.764  23.683   6.464
 3901POPC   D2A50536  16.698  23.725   6.764
 3901POPC   C3A50537  16.738  23.763   7.064
 3901POPC   C4A50538  16.709  23.670   7.364
 3901POPC   C1B50539  16.646  23.971   6.464
 3901POPC   C2B50540  16.603  23.921   6.764
 3901POPC   C3B50541  16.633  23.907   7.064
 3901POPC   C4B50542  16.591  23.903   7.364
 3902POPC   NC350543  27.571  41.518   5.564
 3902POPC   PO450544  27.580  41.599   5.864
 3902POPC   GL150545  27.578  41.510   6.164
 3902POPC   GL250546  27.518  41.414   6.164
 3902POPC   C1A50547  27.578  41.541   6.464
 3902POPC   D2A50548  27.601  41.561   6.764
 3902POPC   C3A50549  27.620  41.565   7.064
 3902POPC   C4A50550  27.573  41.585   7.364
 3902POPC   C1B50551  27.534  41.310   6.464
 3902POPC   C2B50552  27.480  41.340   6.764
 3902POPC   C3B50553  27.503  41.353   7.064
 3902POPC   C4B50554  27.548  41.311   7.364
 3903POPC   NC350555  37.662  21.399   5.564
 3903POPC   PO450556  37.725  21.420   5.864
 3903POPC   GL150557  37.682  21.399   6.164
 3903POPC   GL250558  37.600  21.448   6.164
 3903POPC   C1A50559  37.639  21.412   6.464
 3903POPC   D2A50560  37.661  21.341   6.764
 3903POPC   C3A50561  37.697  21.359   7.064
 3903POPC   C4A50562  37.670  21.346   7.364
 3903POPC   C1B50563  37.468  21.445   6.464
 3903POPC   C2B50564  37.393  21.455   6.764
 3903POPC   C3B50565  37.457  21.377   7.064
 3903POPC   C4B50566  37.431  21.413   7.364
 3904POPC   NC350567  12.848  20.631   5.564
 3904POPC   PO450568  12.862  20.633   5.864
 3904POPC   GL150569  12.816  20.657   6.164
 3904POPC   GL250570  12.895  20.501   6.164
 3904POPC   C1A50571  12.882  20.603   6.464
 3904POPC   D2A50572  12.888  20.577   6.764
 3904POPC   C3A50573  12.877  20.627   7.064
 3904POPC   C4A50574  12.828  20.618   7.364
 3904POPC   C1B50575  12.980  20.452   6.464
 3904POPC   C2B50576  13.013  20.359   6.764
 3904POPC   C3B50577  13.031  20.454   7.064
 3904POPC   C4B50578  13.030  20.365   7.364
 3905POPC   NC350579  14.437  17.498   5.564
 3905POPC   PO450580  14.360  17.549   5.864
 3905POPC   GL150581  14.415  17.534   6.164
 3905POPC   GL250582  14.551  17.486   6.164
 3905POPC   C1A50583  14.377  17.550   6.464
 3905POPC   D2A50584  14.449  17.496   6.764
 3905POPC   C3A50585  14.417  17.535   7.064
 3905POPC   C4A50586  14.403  17.486   7.364
 3905POPC   C1B50587  14.584  17.407   6.464
 3905POPC   C2B50588  14.670  17.383   6.764
 3905POPC   C3B50589  14.666  17.366   7.064
 3905POPC   C4B50590  14.632  17.410   7.364
 3906POPC   NC350591   9.744  10.476   5.564
 3906POPC   PO450592   9.726  10.566   5.864
 3906POPC   GL150593   9.772  10.521   6.164
 3906POPC   GL250594   9.749  10.601   6.164
 3906POPC   C1A50595   9.760  10.535   6.464
 3906POPC   D2A50596   9.759  10.546   6.764
 3906POPC   C3A50597   9.736  10.534   7.064
 3906POPC   C4A50598   9.748  10.542   7.364
 3906POPC   C1B50599   9.830  10.749   6.464
 3906POPC   C2B50600   9.871  10.745   6.764
 3906POPC   C3B50601   9.863  10.803   7.064
 3906POPC   C4B50602   9.824  10.727   7.364
 3907POPC   NC350603  15.957  10.515   5.564
 3907POPC   PO450604  15.906  10.531   5.864
 3907POPC   GL150605  15.982  10.540   6.164
 3907POPC   GL250606  15.838  10.519   6.164
 3907POPC   C1A50607  15.982  10.483   6.464
 3907POPC   D2A50608  15.993  10.517   6.764
 3907POPC   C3A50609  15.999  10.477   7.064
 3907POPC   C4A50610  15.958  10.509   7.364
 3907POPC   C1B50611  15.742  10.447   6.464
 3907POPC   C2B50612  15.691  10.497   6.764
 3907POPC   C3B50613  15.674  10.482   7.064
 3907POPC   C4B50614  15.759  10.488   7.364
 3908POPC   NC350615  41.598  28.363   5.564
 3908POPC   PO450616  41.591  28.348   5.864
 3908POPC   GL150617  41.512  28.327   6.164
 3908POPC   GL250618  41.655  28.455   6.164
 3908POPC   C1A50619  41.549  28.411   6.464
 3908POPC   D2A50620  41.547  28.401   6.764
 3908POPC   C3A50621  41.588  28.384   7.064
 3908POPC   C4A50622  41.588  28.355   7.364
 3908POPC   C1B50623  41.725  28.504   6.464
 3908POPC   C2B50624  41.767  28.479   6.764
 3908POPC   C3B50625  41.813  28.555   7.064
 3908POPC   C4B50626  41.737  28.555   7.364
 3909POPC   NC350627   4.329  29.123   5.564
 3909POPC   PO450628   4.350  29.193   5.864
 3909POPC   GL150629   4.332  29.178   6.164
 3909POPC   GL250630   4.241  29.264   6.164
 3909POPC   C1A50631   4.344  29.106   6.464
 3909POPC   D2A50632   4.280  29.183   6.764
 3909POPC   C3A50633   4.334  29.180   7.064
 3909POPC   C4A50634   4.319  29.109   7.364
 3909POPC   C1B50635   4.068  29.329   6.464
 3909POPC   C2B50636   4.127  29.252   6.764
 3909POPC   C3B50637   4.078  29.246   7.064
 3909POPC   C4B50638   4.074  29.259   7.364
 3910POPC   NC350639  42.293  36.082   5.564
 3910POPC   PO450640  42.348  36.171   5.864
 3910POPC   GL150641  42.341  36.175   6.164
 3910POPC   GL250642  42.350  35.967   6.164
 3910POPC   C1A50643  42.379  36.086   6.464
 3910POPC   D2A50644  42.384  36.111   6.764
 3910POPC   C3A50645  42.383  36.146   7.064
 3910POPC   C4A50646  42.285  36.173   7.364
 3910POPC   C1B50647  42.369  35.906   6.464
 3910POPC   C2B50648  42.294  35.880   6.764
 3910POPC   C3B50649  42.364  35.910   7.064
 3910POPC   C4B50650  42.351  35.848   7.364
 3911POPC   NC350651  36.153  33.038   5.564
 3911POPC   PO450652  36.080  32.991   5.864
 3911POPC   GL150653  36.112  32.981   6.164
 3911POPC   GL250654  36.218  33.084   6.164
 3911POPC   C1A50655  36.128  33.002   6.464
 3911POPC   D2A50656  36.137  33.047   6.764
 3911POPC   C3A50657  36.168  33.016   7.064
 3911POPC   C4A50658  36.172  33.037   7.364
 3911POPC   C1B50659  36.294  33.208   6.464
 3911POPC   C2B50660  36.286  33.189   6.764
 3911POPC   C3B50661  36.252  33.212   7.064
 3911POPC   C4B50662  36.281  33.266   7.364
 3912POPC   NC350663  38.436  35.399   5.564
 3912POPC   PO450664  38.465  35.331   5.864
 3912POPC   GL150665  38.487  35.312   6.164
 3912POPC   GL250666  38.535  35.287   6.164
 3912POPC   C1A50667  38.481  35.375   6.464
 3912POPC   D2A50668  38.406  35.307   6.764
 3912POPC   C3A50669  38.437  35.306   7.064
 3912POPC   C4A50670  38.428  35.302   7.364
 3912POPC   C1B50671  38.632  35.289   6.464
 3912POPC   C2B50672  38.706  35.224   6.764
 3912POPC   C3B50673  38.674  35.275   7.064
 3912POPC   C4B50674  38.693  35.230   7.364
 3913POPC   NC350675   1.229  15.196   5.564
 3913POPC   PO450676   1.205  15.155   5.864
 3913POPC   GL150677   1.165  15.146   6.164
 3913POPC   GL250678   1.301  15.215   6.164
 3913POPC   C1A50679   1.256  15.181   6.464
 3913POPC   D2A50680   1.221  15.208   6.764
 3913POPC   C3A50681   1.204  15.177   7.064
 3913POPC   C4A50682   1.212  15.198   7.364
 3913POPC   C1B50683   1.428  15.213   6.464
 3913POPC   C2B50684   1.508  15.180   6.764
 3913POPC   C3B50685   1.511  15.149   7.064
 3913POPC   C4B50686   1.506  15.234   7.364
 3914POPC   NC350687  42.327  16.713   5.564
 3914POPC   PO450688  42.311  16.682   5.864
 3914POPC   GL150689  42.373  16.739   6.164
 3914POPC   GL250690  42.202  16.670   6.164
 3914POPC   C1A50691  42.331  16.731   6.464
 3914POPC   D2A50692  42.306  16.705   6.764
 3914POPC   C3A50693  42.307  16.766   7.064
 3914POPC   C4A50694  42.352  16.703   7.364
 3914POPC   C1B50695  42.091  16.621   6.464
 3914POPC   C2B50696  42.173  16.578   6.764
 3914POPC   C3B50697  42.093  16.595   7.064
 3914POPC   C4B50698  42.124  16.600   7.364
 3915POPC   NC350699  26.861  41.584   5.564
 3915POPC   PO450700  26.866  41.598   5.864
 3915POPC   GL150701  26.837  41.574   6.164
 3915POPC   GL250702  26.699  41.575   6.164
 3915POPC   C1A50703  26.817  41.529   6.464
 3915POPC   D2A50704  26.770  41.514   6.764
 3915POPC   C3A50705  26.818  41.564   7.064
 3915POPC   C4A50706  26.866  41.554   7.364
 3915POPC   C1B50707  26.616  41.570   6.464
 3915POPC   C2B50708  26.585  41.538   6.764
 3915POPC   C3B50709  26.592  41.576   7.064
 3915POPC   C4B50710  26.525  41.575   7.364
 3916POPC   NC350711  40.025  42.298   5.564
 3916POPC   PO450712  40.039  42.300   5.864
 3916POPC   GL150713  39.968  42.368   6.164
 3916POPC   GL250714  40.014  42.406   6.164
 3916POPC   C1A50715  40.045  42.344   6.464
 3916POPC   D2A50716  40.017  42.336   6.764
 3916POPC   C3A50717  40.037  42.329   7.064
 3916POPC   C4A50718  39.974  42.357   7.364
 3916POPC   C1B50719  39.902  42.561   6.464
 3916POPC   C2B50720  39.946  42.561   6.764
 3916POPC   C3B50721  39.942  42.533   7.064
 3916POPC   C4B50722  39.973  42.601   7.364
 3917POPC   NC350723  16.729  18.281   5.564
 3917POPC   PO450724  16.684  18.236   5.864
 3917POPC   GL150725  16.694  18.259   6.164
 3917POPC   GL250726  16.562  18.349   6.164
 3917POPC   C1A50727  16.704  18.281   6.464
 3917POPC   D2A50728  16.726  18.330   6.764
 3917POPC   C3A50729  16.772  18.302   7.064
 3917POPC   C4A50730  16.692  18.308   7.364
 3917POPC   C1B50731  16.473  18.361   6.464
 3917POPC   C2B50732  16.445  18.313   6.764
 3917POPC   C3B50733  16.529  18.314   7.064
 3917POPC   C4B50734  16.528  18.323   7.364
 3918POPC   NC350735  27.552  30.693   5.564
 3918POPC   PO450736  27.599  30.658   5.864
 3918POPC   GL150737  27.576  30.695   6.164
 3918POPC   GL250738  27.492  30.697   6.164
 3918POPC   C1A50739  27.580  30.709   6.464
 3918POPC   D2A50740  27.628  30.680   6.764
 3918POPC   C3A50741  27.603  30.675   7.064
 3918POPC   C4A50742  27.555  30.656   7.364
 3918POPC   C1B50743  27.336  30.602   6.464
 3918POPC   C2B50744  27.351  30.597   6.764
 3918POPC   C3B50745  27.390  30.597   7.064
 3918POPC   C4B50746  27.398  30.665   7.364
 3919POPC   NC350747  20.583   4.335   5.564
 3919POPC   PO450748  20.577   4.357   5.864
 3919POPC   GL150749  20.660   4.328   6.164
 3919POPC   GL250750  20.630   4.235   6.164
 3919POPC   C1A50751  20.644   4.354   6.464
 3919POPC   D2A50752  20.647   4.332   6.764
 3919POPC   C3A50753  20.581   4.315   7.064
 3919POPC   C4A50754  20.576   4.355   7.364
 3919POPC   C1B50755  20.607   4.021   6.464
 3919POPC   C2B50756  20.634   4.066   6.764
 3919POPC   C3B50757  20.549   4.029   7.064
 3919POPC   C4B50758  20.560   4.082   7.364
 3920POPC   NC350759  40.815  22.208   5.564
 3920POPC   PO450760  40.784  22.164   5.864
 3920POPC   GL150761  40.753  22.170   6.164
 3920POPC   GL250762  40.715  22.023   6.164
 3920POPC   C1A50763  40.794  22.167   6.464
 3920POPC   D2A50764  40.748  22.209   6.764
 3920POPC   C3A50765  40.787  22.210   7.064
 3920POPC   C4A50766  40.830  22.167   7.364
 3920POPC   C1B50767  40.679  21.903   6.464
 3920POPC   C2B50768  40.630  21.974   6.764
 3920POPC   C3B50769  40.684  21.927   7.064
 3920POPC   C4B50770  40.616  21.942   7.364
 3921POPC   NC350771   9.709  36.922   5.564
 3921POPC   PO450772   9.700  36.856   5.864
 3921POPC   GL150773   9.750  36.924   6.164
 3921POPC   GL250774   9.833  36.931   6.164
 3921POPC   C1A50775   9.707  36.945   6.464
 3921POPC   D2A50776   9.755  36.872   6.764
 3921POPC   C3A50777   9.754  36.930   7.064
 3921POPC   C4A50778   9.766  36.894   7.364
 3921POPC   C1B50779   9.994  37.056   6.464
 3921POPC   C2B50780   9.972  37.015   6.764
 3921POPC   C3B50781  10.012  36.998   7.064
 3921POPC   C4B50782   9.982  37.067   7.364
 3922POPC   NC350783  12.122  15.164   5.564
 3922POPC   PO450784  12.049  15.148   5.864
 3922POPC   GL150785  12.055  15.159   6.164
 3922POPC   GL250786  12.003  15.266   6.164
 3922POPC   C1A50787  12.123  15.145   6.464
 3922POPC   D2A50788  12.038  15.151   6.764
 3922POPC   C3A50789  12.103  15.192   7.064
 3922POPC   C4A50790  12.072  15.207   7.364
 3922POPC   C1B50791  11.933  15.390   6.464
 3922POPC   C2B50792  11.966  15.366   6.764
 3922POPC   C3B50793  11.902  15.374   7.064
 3922POPC   C4B50794  11.920  15.360   7.364
 3923POPC   NC350795  43.134   2.726   5.564
 3923POPC   PO450796  43.079   2.815   5.864
 3923POPC   GL150797  43.147   2.733   6.164
 3923POPC   GL250798  43.011   2.686   6.164
 3923POPC   C1A50799  43.159   2.784   6.464
 3923POPC   D2A50800  43.153   2.769   6.764
 3923POPC   C3A50801  43.068   2.763   7.064
 3923POPC   C4A50802  43.070   2.740   7.364
 3923POPC   C1B50803  42.913   2.605   6.464
 3923POPC   C2B50804  42.933   2.624   6.764
 3923POPC   C3B50805  42.887   2.576   7.064
 3923POPC   C4B50806  42.972   2.633   7.364
 3924POPC   NC350807  11.316  27.559   5.564
 3924POPC   PO450808  11.332  27.613   5.864
 3924POPC   GL150809  11.275  27.642   6.164
 3924POPC   GL250810  11.446  27.581   6.164
 3924POPC   C1A50811  11.287  27.592   6.464
 3924POPC   D2A50812  11.255  27.631   6.764
 3924POPC   C3A50813  11.292  27.576   7.064
 3924POPC   C4A50814  11.323  27.550   7.364
 3924POPC   C1B50815  11.594  27.541   6.464
 3924POPC   C2B50816  11.509  27.581   6.764
 3924POPC   C3B50817  11.510  27.583   7.064
 3924POPC   C4B50818  11.594  27.567   7.364
 3925POPC   NC350819  39.979  33.021   5.564
 3925POPC   PO450820  40.049  33.055   5.864
 3925POPC   GL150821  39.976  32.997   6.164
 3925POPC   GL250822  40.052  32.961   6.164
 3925POPC   C1A50823  40.027  33.019   6.464
 3925POPC   D2A50824  39.983  33.012   6.764
 3925POPC   C3A50825  40.036  33.034   7.064
 3925POPC   C4A50826  40.010  33.015   7.364
 3925POPC   C1B50827  40.162  32.796   6.464
 3925POPC   C2B50828  40.159  32.875   6.764
 3925POPC   C3B50829  40.192  32.800   7.064
 3925POPC   C4B50830  40.186  32.788   7.364
 3926POPC   NC350831  22.975  10.562   5.564
 3926POPC   PO450832  22.915  10.549   5.864
 3926POPC   GL150833  22.892  10.521   6.164
 3926POPC   GL250834  22.878  10.433   6.164
 3926POPC   C1A50835  22.925  10.527   6.464
 3926POPC   D2A50836  22.932  10.505   6.764
 3926POPC   C3A50837  22.921  10.482   7.064
 3926POPC   C4A50838  22.893  10.478   7.364
 3926POPC   C1B50839  22.716  10.361   6.464
 3926POPC   C2B50840  22.766  10.312   6.764
 3926POPC   C3B50841  22.750  10.313   7.064
 3926POPC   C4B50842  22.727  10.387   7.364
 3927POPC   NC350843  20.636  19.092   5.564
 3927POPC   PO450844  20.615  19.099   5.864
 3927POPC   GL150845  20.565  19.009   6.164
 3927POPC   GL250846  20.485  19.123   6.164
 3927POPC   C1A50847  20.562  19.108   6.464
 3927POPC   D2A50848  20.657  19.035   6.764
 3927POPC   C3A50849  20.573  19.038   7.064
 3927POPC   C4A50850  20.598  19.040   7.364
 3927POPC   C1B50851  20.406  19.111   6.464
 3927POPC   C2B50852  20.339  19.185   6.764
 3927POPC   C3B50853  20.384  19.151   7.064
 3927POPC   C4B50854  20.408  19.176   7.364
 3928POPC   NC350855  21.398  32.978   5.564
 3928POPC   PO450856  21.368  32.998   5.864
 3928POPC   GL150857  21.417  32.991   6.164
 3928POPC   GL250858  21.361  33.124   6.164
 3928POPC   C1A50859  21.374  32.990   6.464
 3928POPC   D2A50860  21.393  33.013   6.764
 3928POPC   C3A50861  21.377  33.047   7.064
 3928POPC   C4A50862  21.376  33.006   7.364
 3928POPC   C1B50863  21.349  33.295   6.464
 3928POPC   C2B50864  21.274  33.225   6.764
 3928POPC   C3B50865  21.300  33.290   7.064
 3928POPC   C4B50866  21.284  33.307   7.364
 3929POPC   NC350867  16.735  39.234   5.564
 3929POPC   PO450868  16.715  39.217   5.864
 3929POPC   GL150869  16.731  39.253   6.164
 3929POPC   GL250870  16.838  39.302   6.164
 3929POPC   C1A50871  16.710  39.251   6.464
 3929POPC   D2A50872  16.762  39.230   6.764
 3929POPC   C3A50873  16.700  39.213   7.064
 3929POPC   C4A50874  16.714  39.195   7.364
 3929POPC   C1B50875  16.881  39.385   6.464
 3929POPC   C2B50876  16.870  39.416   6.764
 3929POPC   C3B50877  16.903  39.411   7.064
 3929POPC   C4B50878  16.858  39.397   7.364
 3930POPC   NC350879  18.318  21.353   5.564
 3930POPC   PO450880  18.288  21.356   5.864
 3930POPC   GL150881  18.245  21.391   6.164
 3930POPC   GL250882  18.299  21.516   6.164
 3930POPC   C1A50883  18.282  21.426   6.464
 3930POPC   D2A50884  18.235  21.382   6.764
 3930POPC   C3A50885  18.280  21.342   7.064
 3930POPC   C4A50886  18.295  21.366   7.364
 3930POPC   C1B50887  18.384  21.609   6.464
 3930POPC   C2B50888  18.354  21.574   6.764
 3930POPC   C3B50889  18.416  21.647   7.064
 3930POPC   C4B50890  18.356  21.607   7.364
 3931POPC   NC350891  25.291  19.047   5.564
 3931POPC   PO450892  25.266  19.033   5.864
 3931POPC   GL150893  25.254  19.013   6.164
 3931POPC   GL250894  25.152  19.179   6.164
 3931POPC   C1A50895  25.268  19.075   6.464
 3931POPC   D2A50896  25.286  19.046   6.764
 3931POPC   C3A50897  25.281  19.104   7.064
 3931POPC   C4A50898  25.234  19.040   7.364
 3931POPC   C1B50899  25.059  19.236   6.464
 3931POPC   C2B50900  25.070  19.237   6.764
 3931POPC   C3B50901  25.040  19.243   7.064
 3931POPC   C4B50902  25.058  19.215   7.364
 3932POPC   NC350903  32.288  27.563   5.564
 3932POPC   PO450904  32.235  27.596   5.864
 3932POPC   GL150905  32.205  27.599   6.164
 3932POPC   GL250906  32.206  27.739   6.164
 3932POPC   C1A50907  32.284  27.609   6.464
 3932POPC   D2A50908  32.280  27.548   6.764
 3932POPC   C3A50909  32.224  27.622   7.064
 3932POPC   C4A50910  32.226  27.627   7.364
 3932POPC   C1B50911  32.281  27.840   6.464
 3932POPC   C2B50912  32.214  27.849   6.764
 3932POPC   C3B50913  32.230  27.810   7.064
 3932POPC   C4B50914  32.272  27.827   7.364
 3933POPC   NC350915  19.878  37.666   5.564
 3933POPC   PO450916  19.852  37.704   5.864
 3933POPC   GL150917  19.802  37.658   6.164
 3933POPC   GL250918  19.740  37.705   6.164
 3933POPC   C1A50919  19.808  37.700   6.464
 3933POPC   D2A50920  19.827  37.694   6.764
 3933POPC   C3A50921  19.854  37.695   7.064
 3933POPC   C4A50922  19.816  37.694   7.364
 3933POPC   C1B50923  19.572  37.726   6.464
 3933POPC   C2B50924  19.537  37.676   6.764
 3933POPC   C3B50925  19.583  37.692   7.064
 3933POPC   C4B50926  19.546  37.689   7.364
 3934POPC   NC350927   8.162  27.631   5.564
 3934POPC   PO450928   8.219  27.548   5.864
 3934POPC   GL150929   8.159  27.627   6.164
 3934POPC   GL250930   8.127  27.690   6.164
 3934POPC   C1A50931   8.234  27.626   6.464
 3934POPC   D2A50932   8.211  27.632   6.764
 3934POPC   C3A50933   8.181  27.613   7.064
 3934POPC   C4A50934   8.197  27.566   7.364
 3934POPC   C1B50935   7.984  27.803   6.464
 3934POPC   C2B50936   8.030  27.766   6.764
 3934POPC   C3B50937   8.000  27.757   7.064
 3934POPC   C4B50938   8.027  27.772   7.364
 3935POPC   NC350939  15.206  12.879   5.564
 3935POPC   PO450940  15.139  12.846   5.864
 3935POPC   GL150941  15.171  12.856   6.164
 3935POPC   GL250942  15.070  12.902   6.164
 3935POPC   C1A50943  15.148  12.886   6.464
 3935POPC   D2A50944  15.214  12.871   6.764
 3935POPC   C3A50945  15.192  12.835   7.064
 3935POPC   C4A50946  15.153  12.899   7.364
 3935POPC   C1B50947  14.959  13.015   6.464
 3935POPC   C2B50948  14.985  13.021   6.764
 3935POPC   C3B50949  15.044  13.067   7.064
 3935POPC   C4B50950  14.974  13.039   7.364
 3936POPC   NC350951  15.910  37.670   5.564
 3936POPC   PO450952  16.001  37.699   5.864
 3936POPC   GL150953  15.920  37.667   6.164
 3936POPC   GL250954  15.842  37.661   6.164
 3936POPC   C1A50955  15.944  37.631   6.464
 3936POPC   D2A50956  16.000  37.672   6.764
 3936POPC   C3A50957  15.938  37.644   7.064
 3936POPC   C4A50958  15.959  37.711   7.364
 3936POPC   C1B50959  15.683  37.603   6.464
 3936POPC   C2B50960  15.718  37.591   6.764
 3936POPC   C3B50961  15.716  37.582   7.064
 3936POPC   C4B50962  15.702  37.626   7.364
 3937POPC   NC350963   5.847  33.002   5.564
 3937POPC   PO450964   5.907  33.073   5.864
 3937POPC   GL150965   5.820  32.985   6.164
 3937POPC   GL250966   6.000  33.114   6.164
 3937POPC   C1A50967   5.846  32.975   6.464
 3937POPC   D2A50968   5.852  33.015   6.764
 3937POPC   C3A50969   5.894  33.014   7.064
 3937POPC   C4A50970   5.849  33.027   7.364
 3937POPC   C1B50971   6.124  33.122   6.464
 3937POPC   C2B50972   6.030  33.164   6.764
 3937POPC   C3B50973   6.112  33.160   7.064
 3937POPC   C4B50974   6.122  33.113   7.364
 3938POPC   NC350975  17.522  19.827   5.564
 3938POPC   PO450976  17.490  19.817   5.864
 3938POPC   GL150977  17.506  19.798   6.164
 3938POPC   GL250978  17.382  19.942   6.164
 3938POPC   C1A50979  17.500  19.806   6.464
 3938POPC   D2A50980  17.549  19.879   6.764
 3938POPC   C3A50981  17.519  19.785   7.064
 3938POPC   C4A50982  17.491  19.853   7.364
 3938POPC   C1B50983  17.321  19.993   6.464
 3938POPC   C2B50984  17.303  19.995   6.764
 3938POPC   C3B50985  17.333  20.051   7.064
 3938POPC   C4B50986  17.392  20.001   7.364
 3939POPC   NC350987  26.775  42.325   5.564
 3939POPC   PO450988  26.865  42.332   5.864
 3939POPC   GL150989  26.812  42.311   6.164
 3939POPC   GL250990  26.872  42.414   6.164
 3939POPC   C1A50991  26.793  42.358   6.464
 3939POPC   D2A50992  26.843  42.374   6.764
 3939POPC   C3A50993  26.843  42.294   7.064
 3939POPC   C4A50994  26.845  42.322   7.364
 3939POPC   C1B50995  26.958  42.501   6.464
 3939POPC   C2B50996  26.965  42.504   6.764
 3939POPC   C3B50997  26.973  42.494   7.064
 3939POPC   C4B50998  27.024  42.490   7.364
 3940POPC   NC350999  40.798  40.794   5.564
 3940POPC   PO451000  40.786  40.757   5.864
 3940POPC   GL151001  40.755  40.828   6.164
 3940POPC   GL251002  40.896  40.753   6.164
 3940POPC   C1A51003  40.826  40.764   6.464
 3940POPC   D2A51004  40.767  40.763   6.764
 3940POPC   C3A51005  40.784  40.779   7.064
 3940POPC   C4A51006  40.802  40.803   7.364
 3940POPC   C1B51007  41.002  40.780   6.464
 3940POPC   C2B51008  41.070  40.762   6.764
 3940POPC   C3B51009  41.040  40.773   7.064
 3940POPC   C4B51010  41.081  40.796   7.364
 3941POPC   NC351011  40.813  21.408   5.564
 3941POPC   PO451012  40.802  21.381   5.864
 3941POPC   GL151013  40.789  21.425   6.164
 3941POPC   GL251014  40.871  21.512   6.164
 3941POPC   C1A51015  40.827  21.338   6.464
 3941POPC   D2A51016  40.763  21.361   6.764
 3941POPC   C3A51017  40.753  21.432   7.064
 3941POPC   C4A51018  40.829  21.363   7.364
 3941POPC   C1B51019  40.949  21.541   6.464
 3941POPC   C2B51020  40.993  21.514   6.764
 3941POPC   C3B51021  40.943  21.551   7.064
 3941POPC   C4B51022  40.939  21.545   7.364
 3942POPC   NC351023  35.342   9.741   5.564
 3942POPC   PO451024  35.328   9.764   5.864
 3942POPC   GL151025  35.319   9.783   6.164
 3942POPC   GL251026  35.226   9.724   6.164
 3942POPC   C1A51027  35.320   9.702   6.464
 3942POPC   D2A51028  35.394   9.721   6.764
 3942POPC   C3A51029  35.312   9.750   7.064
 3942POPC   C4A51030  35.313   9.700   7.364
 3942POPC   C1B51031  35.127   9.787   6.464
 3942POPC   C2B51032  35.120   9.741   6.764
 3942POPC   C3B51033  35.128   9.724   7.064
 3942POPC   C4B51034  35.115   9.705   7.364
 3943POPC   NC351035  29.896  40.790   5.564
 3943POPC   PO451036  29.970  40.750   5.864
 3943POPC   GL151037  29.950  40.820   6.164
 3943POPC   GL251038  30.056  40.740   6.164
 3943POPC   C1A51039  29.890  40.777   6.464
 3943POPC   D2A51040  29.904  40.798   6.764
 3943POPC   C3A51041  29.910  40.751   7.064
 3943POPC   C4A51042  29.895  40.736   7.364
 3943POPC   C1B51043  30.166  40.748   6.464
 3943POPC   C2B51044  30.189  40.745   6.764
 3943POPC   C3B51045  30.214  40.802   7.064
 3943POPC   C4B51046  30.214  40.794   7.364
 3944POPC   NC351047  16.712   1.195   5.564
 3944POPC   PO451048  16.721   1.263   5.864
 3944POPC   GL151049  16.745   1.209   6.164
 3944POPC   GL251050  16.643   1.178   6.164
 3944POPC   C1A51051  16.740   1.224   6.464
 3944POPC   D2A51052  16.736   1.175   6.764
 3944POPC   C3A51053  16.715   1.231   7.064
 3944POPC   C4A51054  16.713   1.247   7.364
 3944POPC   C1B51055  16.496   1.076   6.464
 3944POPC   C2B51056  16.532   1.056   6.764
 3944POPC   C3B51057  16.501   1.055   7.064
 3944POPC   C4B51058  16.498   1.008   7.364
 3945POPC   NC351059  43.891  22.944   5.564
 3945POPC   PO451060  43.839  22.905   5.864
 3945POPC   GL151061  43.932  22.945   6.164
 3945POPC   GL251062  43.977  22.890   6.164
 3945POPC   C1A51063  43.895  22.961   6.464
 3945POPC   D2A51064  43.838  22.951   6.764
 3945POPC   C3A51065  43.928  22.986   7.064
 3945POPC   C4A51066  43.904  22.977   7.364
 3945POPC   C1B51067  44.071  22.712   6.464
 3945POPC   C2B51068  44.075  22.801   6.764
 3945POPC   C3B51069  44.105  22.752   7.064
 3945POPC   C4B51070  44.042  22.714   7.364
 3946POPC   NC351071   8.168  28.414   5.564
 3946POPC   PO451072   8.208  28.363   5.864
 3946POPC   GL151073   8.200  28.349   6.164
 3946POPC   GL251074   8.331  28.357   6.164
 3946POPC   C1A51075   8.172  28.321   6.464
 3946POPC   D2A51076   8.156  28.344   6.764
 3946POPC   C3A51077   8.160  28.341   7.064
 3946POPC   C4A51078   8.226  28.361   7.364
 3946POPC   C1B51079   8.445  28.397   6.464
 3946POPC   C2B51080   8.452  28.407   6.764
 3946POPC   C3B51081   8.484  28.411   7.064
 3946POPC   C4B51082   8.458  28.468   7.364
 3947POPC   NC351083  43.903  22.113   5.564
 3947POPC   PO451084  43.877  22.148   5.864
 3947POPC   GL151085  43.881  22.182   6.164
 3947POPC   GL251086  43.904  22.298   6.164
 3947POPC   C1A51087  43.848  22.197   6.464
 3947POPC   D2A51088  43.899  22.126   6.764
 3947POPC   C3A51089  43.915  22.151   7.064
 3947POPC   C4A51090  43.925  22.167   7.364
 3947POPC   C1B51091  43.997  22.373   6.464
 3947POPC   C2B51092  43.939  22.418   6.764
 3947POPC   C3B51093  43.946  22.377   7.064
 3947POPC   C4B51094  43.991  22.438   7.364
 3948POPC   NC351095  16.724   3.518   5.564
 3948POPC   PO451096  16.691   3.590   5.864
 3948POPC   GL151097  16.693   3.574   6.164
 3948POPC   GL251098  16.899   3.567   6.164
 3948POPC   C1A51099  16.723   3.497   6.464
 3948POPC   D2A51100  16.758   3.500   6.764
 3948POPC   C3A51101  16.751   3.493   7.064
 3948POPC   C4A51102  16.725   3.530   7.364
 3948POPC   C1B51103  16.959   3.519   6.464
 3948POPC   C2B51104  16.962   3.557   6.764
 3948POPC   C3B51105  16.953   3.545   7.064
 3948POPC   C4B51106  17.004   3.480   7.364
 3949POPC   NC351107  15.209  15.911   5.564
 3949POPC   PO451108  15.222  15.992   5.864
 3949POPC   GL151109  15.214  15.973   6.164
 3949POPC   GL251110  15.110  15.807   6.164
 3949POPC   C1A51111  15.217  16.002   6.464
 3949POPC   D2A51112  15.134  15.952   6.764
 3949POPC   C3A51113  15.202  15.969   7.064
 3949POPC   C4A51114  15.154  15.987   7.364
 3949POPC   C1B51115  15.139  15.753   6.464
 3949POPC   C2B51116  15.115  15.716   6.764
 3949POPC   C3B51117  15.114  15.735   7.064
 3949POPC   C4B51118  15.146  15.674   7.364
 3950POPC   NC351119  39.197  30.705   5.564
 3950POPC   PO451120  39.182  30.656   5.864
 3950POPC   GL151121  39.227  30.684   6.164
 3950POPC   GL251122  39.379  30.754   6.164
 3950POPC   C1A51123  39.238  30.662   6.464
 3950POPC   D2A51124  39.276  30.725   6.764
 3950POPC   C3A51125  39.258  30.700   7.064
 3950POPC   C4A51126  39.219  30.725   7.364
 3950POPC   C1B51127  39.447  30.839   6.464
 3950POPC   C2B51128  39.420  30.845   6.764
 3950POPC   C3B51129  39.423  30.823   7.064
 3950POPC   C4B51130  39.413  30.798   7.364
 3951POPC   NC351131  12.861  29.121   5.564
 3951POPC   PO451132  12.802  29.158   5.864
 3951POPC   GL151133  12.890  29.107   6.164
 3951POPC   GL251134  12.801  29.060   6.164
 3951POPC   C1A51135  12.869  29.139   6.464
 3951POPC   D2A51136  12.864  29.111   6.764
 3951POPC   C3A51137  12.860  29.158   7.064
 3951POPC   C4A51138  12.821  29.159   7.364
 3951POPC   C1B51139  12.753  28.883   6.464
 3951POPC   C2B51140  12.741  28.925   6.764
 3951POPC   C3B51141  12.718  28.869   7.064
 3951POPC   C4B51142  12.723  28.918   7.364
 3952POPC   NC351143   2.014  19.015   5.564
 3952POPC   PO451144   1.997  19.011   5.864
 3952POPC   GL151145   2.035  19.064   6.164
 3952POPC   GL251146   1.886  19.110   6.164
 3952POPC   C1A51147   1.987  19.075   6.464
 3952POPC   D2A51148   1.956  19.087   6.764
 3952POPC   C3A51149   1.976  19.071   7.064
 3952POPC   C4A51150   2.023  19.080   7.364
 3952POPC   C1B51151   1.875  19.200   6.464
 3952POPC   C2B51152   1.853  19.284   6.764
 3952POPC   C3B51153   1.822  19.258   7.064
 3952POPC   C4B51154   1.827  19.234   7.364
 3953POPC   NC351155   0.409  39.989   5.564
 3953POPC   PO451156   0.449  40.024   5.864
 3953POPC   GL151157   0.398  39.963   6.164
 3953POPC   GL251158   0.508  40.073   6.164
 3953POPC   C1A51159   0.429  39.966   6.464
 3953POPC   D2A51160   0.433  40.005   6.764
 3953POPC   C3A51161   0.414  39.966   7.064
 3953POPC   C4A51162   0.437  40.044   7.364
 3953POPC   C1B51163   0.626  40.155   6.464
 3953POPC   C2B51164   0.662  40.081   6.764
 3953POPC   C3B51165   0.702  40.103   7.064
 3953POPC   C4B51166   0.688  40.125   7.364
 3954POPC   NC351167  15.138  22.207   5.564
 3954POPC   PO451168  15.223  22.192   5.864
 3954POPC   GL151169  15.131  22.115   6.164
 3954POPC   GL251170  15.269  22.220   6.164
 3954POPC   C1A51171  15.204  22.212   6.464
 3954POPC   D2A51172  15.173  22.187   6.764
 3954POPC   C3A51173  15.161  22.118   7.064
 3954POPC   C4A51174  15.213  22.202   7.364
 3954POPC   C1B51175  15.338  22.358   6.464
 3954POPC   C2B51176  15.336  22.340   6.764
 3954POPC   C3B51177  15.329  22.355   7.064
 3954POPC   C4B51178  15.317  22.366   7.364
 3955POPC   NC351179  15.996  33.803   5.564
 3955POPC   PO451180  15.915  33.783   5.864
 3955POPC   GL151181  15.928  33.767   6.164
 3955POPC   GL251182  16.032  33.674   6.164
 3955POPC   C1A51183  15.998  33.758   6.464
 3955POPC   D2A51184  15.922  33.789   6.764
 3955POPC   C3A51185  15.933  33.792   7.064
 3955POPC   C4A51186  16.000  33.817   7.364
 3955POPC   C1B51187  16.157  33.587   6.464
 3955POPC   C2B51188  16.165  33.635   6.764
 3955POPC   C3B51189  16.160  33.655   7.064
 3955POPC   C4B51190  16.116  33.676   7.364
 3956POPC   NC351191  31.465  15.191   5.564
 3956POPC   PO451192  31.511  15.135   5.864
 3956POPC   GL151193  31.430  15.134   6.164
 3956POPC   GL251194  31.548  15.201   6.164
 3956POPC   C1A51195  31.504  15.131   6.464
 3956POPC   D2A51196  31.510  15.199   6.764
 3956POPC   C3A51197  31.512  15.162   7.064
 3956POPC   C4A51198  31.522  15.188   7.364
 3956POPC   C1B51199  31.755  15.170   6.464
 3956POPC   C2B51200  31.726  15.170   6.764
 3956POPC   C3B51201  31.710  15.165   7.064
 3956POPC   C4B51202  31.694  15.214   7.364
 3957POPC   NC351203  29.942   5.831   5.564
 3957POPC   PO451204  29.968   5.916   5.864
 3957POPC   GL151205  29.890   5.847   6.164
 3957POPC   GL251206  29.821   5.760   6.164
 3957POPC   C1A51207  29.959   5.844   6.464
 3957POPC   D2A51208  29.918   5.884   6.764
 3957POPC   C3A51209  29.957   5.863   7.064
 3957POPC   C4A51210  29.883   5.856   7.364
 3957POPC   C1B51211  29.700   5.761   6.464
 3957POPC   C2B51212  29.756   5.770   6.764
 3957POPC   C3B51213  29.763   5.692   7.064
 3957POPC   C4B51214  29.692   5.701   7.364
 3958POPC   NC351215  25.280  31.470   5.564
 3958POPC   PO451216  25.278  31.501   5.864
 3958POPC   GL151217  25.265  31.474   6.164
 3958POPC   GL251218  25.171  31.465   6.164
 3958POPC   C1A51219  25.240  31.481   6.464
 3958POPC   D2A51220  25.278  31.501   6.764
 3958POPC   C3A51221  25.292  31.450   7.064
 3958POPC   C4A51222  25.276  31.465   7.364
 3958POPC   C1B51223  25.059  31.409   6.464
 3958POPC   C2B51224  24.996  31.408   6.764
 3958POPC   C3B51225  24.999  31.383   7.064
 3958POPC   C4B51226  25.078  31.392   7.364
 3959POPC   NC351227  25.253  27.575   5.564
 3959POPC   PO451228  25.300  27.558   5.864
 3959POPC   GL151229  25.273  27.614   6.164
 3959POPC   GL251230  25.170  27.461   6.164
 3959POPC   C1A51231  25.263  27.590   6.464
 3959POPC   D2A51232  25.311  27.622   6.764
 3959POPC   C3A51233  25.308  27.602   7.064
 3959POPC   C4A51234  25.216  27.604   7.364
 3959POPC   C1B51235  25.114  27.365   6.464
 3959POPC   C2B51236  25.153  27.392   6.764
 3959POPC   C3B51237  25.103  27.358   7.064
 3959POPC   C4B51238  25.117  27.389   7.364
 3960POPC   NC351239  29.876  11.343   5.564
 3960POPC   PO451240  29.944  11.348   5.864
 3960POPC   GL151241  29.929  11.322   6.164
 3960POPC   GL251242  29.810  11.274   6.164
 3960POPC   C1A51243  29.894  11.315   6.464
 3960POPC   D2A51244  29.926  11.345   6.764
 3960POPC   C3A51245  29.898  11.290   7.064
 3960POPC   C4A51246  29.916  11.338   7.364
 3960POPC   C1B51247  29.653  11.287   6.464
 3960POPC   C2B51248  29.648  11.340   6.764
 3960POPC   C3B51249  29.629  11.371   7.064
 3960POPC   C4B51250  29.694  11.294   7.364
 3961POPC   NC351251  26.825  33.061   5.564
 3961POPC   PO451252  26.799  32.995   5.864
 3961POPC   GL151253  26.820  33.013   6.164
 3961POPC   GL251254  26.904  32.882   6.164
 3961POPC   C1A51255  26.839  32.983   6.464
 3961POPC   D2A51256  26.788  32.984   6.764
 3961POPC   C3A51257  26.844  33.013   7.064
 3961POPC   C4A51258  26.808  32.974   7.364
 3961POPC   C1B51259  26.935  32.758   6.464
 3961POPC   C2B51260  26.900  32.801   6.764
 3961POPC   C3B51261  26.860  32.806   7.064
 3961POPC   C4B51262  26.853  32.801   7.364
 3962POPC   NC351263   4.357  34.551   5.564
 3962POPC   PO451264   4.270  34.599   5.864
 3962POPC   GL151265   4.312  34.617   6.164
 3962POPC   GL251266   4.441  34.523   6.164
 3962POPC   C1A51267   4.322  34.549   6.464
 3962POPC   D2A51268   4.295  34.540   6.764
 3962POPC   C3A51269   4.312  34.614   7.064
 3962POPC   C4A51270   4.320  34.616   7.364
 3962POPC   C1B51271   4.505  34.397   6.464
 3962POPC   C2B51272   4.464  34.427   6.764
 3962POPC   C3B51273   4.537  34.368   7.064
 3962POPC   C4B51274   4.465  34.445   7.364
 3963POPC   NC351275  29.873  38.434   5.564
 3963POPC   PO451276  29.969  38.483   5.864
 3963POPC   GL151277  29.891  38.421   6.164
 3963POPC   GL251278  29.859  38.328   6.164
 3963POPC   C1A51279  29.945  38.430   6.464
 3963POPC   D2A51280  29.962  38.445   6.764
 3963POPC   C3A51281  29.871  38.438   7.064
 3963POPC   C4A51282  29.959  38.407   7.364
 3963POPC   C1B51283  29.743  38.295   6.464
 3963POPC   C2B51284  29.765  38.262   6.764
 3963POPC   C3B51285  29.772  38.285   7.064
 3963POPC   C4B51286  29.721  38.230   7.364
 3964POPC   NC351287  37.658   3.577   5.564
 3964POPC   PO451288  37.699   3.553   5.864
 3964POPC   GL151289  37.723   3.590   6.164
 3964POPC   GL251290  37.838   3.518   6.164
 3964POPC   C1A51291  37.661   3.509   6.464
 3964POPC   D2A51292  37.655   3.572   6.764
 3964POPC   C3A51293  37.724   3.567   7.064
 3964POPC   C4A51294  37.669   3.554   7.364
 3964POPC   C1B51295  37.920   3.529   6.464
 3964POPC   C2B51296  37.934   3.517   6.764
 3964POPC   C3B51297  37.905   3.478   7.064
 3964POPC   C4B51298  37.961   3.531   7.364
 3965POPC   NC351299  41.603  33.768   5.564
 3965POPC   PO451300  41.575  33.816   5.864
 3965POPC   GL151301  41.538  33.767   6.164
 3965POPC   GL251302  41.545  33.943   6.164
 3965POPC   C1A51303  41.526  33.827   6.464
 3965POPC   D2A51304  41.594  33.775   6.764
 3965POPC   C3A51305  41.564  33.778   7.064
 3965POPC   C4A51306  41.512  33.832   7.364
 3965POPC   C1B51307  41.516  34.088   6.464
 3965POPC   C2B51308  41.449  33.994   6.764
 3965POPC   C3B51309  41.479  34.004   7.064
 3965POPC   C4B51310  41.491  34.064   7.364
 3966POPC   NC351311  31.507   2.031   5.564
 3966POPC   PO451312  31.501   2.011   5.864
 3966POPC   GL151313  31.520   2.003   6.164
 3966POPC   GL251314  31.348   2.027   6.164
 3966POPC   C1A51315  31.446   1.945   6.464
 3966POPC   D2A51316  31.488   2.006   6.764
 3966POPC   C3A51317  31.427   2.023   7.064
 3966POPC   C4A51318  31.435   1.974   7.364
 3966POPC   C1B51319  31.178   2.060   6.464
 3966POPC   C2B51320  31.213   1.990   6.764
 3966POPC   C3B51321  31.196   1.993   7.064
 3966POPC   C4B51322  31.263   2.075   7.364
 3967POPC   NC351323  43.846  19.835   5.564
 3967POPC   PO451324  43.848  19.810   5.864
 3967POPC   GL151325  43.854  19.878   6.164
 3967POPC   GL251326  43.997  19.884   6.164
 3967POPC   C1A51327  43.863  19.793   6.464
 3967POPC   D2A51328  43.900  19.802   6.764
 3967POPC   C3A51329  43.852  19.798   7.064
 3967POPC   C4A51330  43.843  19.878   7.364
 3967POPC   C1B51331  44.048  20.056   6.464
 3967POPC   C2B51332  44.018  19.973   6.764
 3967POPC   C3B51333  44.077  20.045   7.064
 3967POPC   C4B51334  44.017  20.061   7.364
 3968POPC   NC351335   5.889  19.033   5.564
 3968POPC   PO451336   5.862  19.092   5.864
 3968POPC   GL151337   5.898  19.039   6.164
 3968POPC   GL251338   5.924  19.203   6.164
 3968POPC   C1A51339   5.880  19.095   6.464
 3968POPC   D2A51340   5.884  19.065   6.764
 3968POPC   C3A51341   5.831  19.058   7.064
 3968POPC   C4A51342   5.919  19.067   7.364
 3968POPC   C1B51343   5.837  19.263   6.464
 3968POPC   C2B51344   5.921  19.336   6.764
 3968POPC   C3B51345   5.843  19.350   7.064
 3968POPC   C4B51346   5.847  19.297   7.364
 3969POPC   NC351347   5.871  16.000   5.564
 3969POPC   PO451348   5.904  15.948   5.864
 3969POPC   GL151349   5.915  15.945   6.164
 3969POPC   GL251350   5.839  16.044   6.164
 3969POPC   C1A51351   5.913  15.970   6.464
 3969POPC   D2A51352   5.872  15.979   6.764
 3969POPC   C3A51353   5.867  15.949   7.064
 3969POPC   C4A51354   5.876  15.910   7.364
 3969POPC   C1B51355   5.801  16.218   6.464
 3969POPC   C2B51356   5.703  16.209   6.764
 3969POPC   C3B51357   5.719  16.222   7.064
 3969POPC   C4B51358   5.783  16.189   7.364
 3970POPC   NC351359   8.159  31.435   5.564
 3970POPC   PO451360   8.198  31.496   5.864
 3970POPC   GL151361   8.193  31.480   6.164
 3970POPC   GL251362   8.370  31.512   6.164
 3970POPC   C1A51363   8.160  31.429   6.464
 3970POPC   D2A51364   8.219  31.434   6.764
 3970POPC   C3A51365   8.149  31.494   7.064
 3970POPC   C4A51366   8.205  31.482   7.364
 3970POPC   C1B51367   8.475  31.501   6.464
 3970POPC   C2B51368   8.398  31.473   6.764
 3970POPC   C3B51369   8.426  31.544   7.064
 3970POPC   C4B51370   8.435  31.497   7.364
 3971POPC   NC351371  38.490  27.552   5.564
 3971POPC   PO451372  38.409  27.563   5.864
 3971POPC   GL151373  38.503  27.613   6.164
 3971POPC   GL251374  38.494  27.658   6.164
 3971POPC   C1A51375  38.439  27.565   6.464
 3971POPC   D2A51376  38.494  27.612   6.764
 3971POPC   C3A51377  38.453  27.564   7.064
 3971POPC   C4A51378  38.431  27.584   7.364
 3971POPC   C1B51379  38.609  27.836   6.464
 3971POPC   C2B51380  38.597  27.855   6.764
 3971POPC   C3B51381  38.533  27.807   7.064
 3971POPC   C4B51382  38.512  27.779   7.364
 3972POPC   NC351383   5.097  22.202   5.564
 3972POPC   PO451384   5.118  22.181   5.864
 3972POPC   GL151385   5.079  22.174   6.164
 3972POPC   GL251386   5.096  22.284   6.164
 3972POPC   C1A51387   5.085  22.116   6.464
 3972POPC   D2A51388   5.092  22.209   6.764
 3972POPC   C3A51389   5.101  22.128   7.064
 3972POPC   C4A51390   5.068  22.144   7.364
 3972POPC   C1B51391   5.126  22.445   6.464
 3972POPC   C2B51392   5.128  22.360   6.764
 3972POPC   C3B51393   5.177  22.420   7.064
 3972POPC   C4B51394   5.188  22.420   7.364
 3973POPC   NC351395  23.678   3.542   5.564
 3973POPC   PO451396  23.736   3.562   5.864
 3973POPC   GL151397  23.709   3.534   6.164
 3973POPC   GL251398  23.801   3.485   6.164
 3973POPC   C1A51399  23.711   3.564   6.464
 3973POPC   D2A51400  23.690   3.528   6.764
 3973POPC   C3A51401  23.723   3.523   7.064
 3973POPC   C4A51402  23.711   3.557   7.364
 3973POPC   C1B51403  23.982   3.449   6.464
 3973POPC   C2B51404  23.981   3.457   6.764
 3973POPC   C3B51405  23.897   3.450   7.064
 3973POPC   C4B51406  23.939   3.400   7.364
 3974POPC   NC351407  36.091  41.558   5.564
 3974POPC   PO451408  36.087  41.604   5.864
 3974POPC   GL151409  36.134  41.599   6.164
 3974POPC   GL251410  36.187  41.412   6.164
 3974POPC   C1A51411  36.130  41.510   6.464
 3974POPC   D2A51412  36.165  41.529   6.764
 3974POPC   C3A51413  36.161  41.588   7.064
 3974POPC   C4A51414  36.101  41.566   7.364
 3974POPC   C1B51415  36.300  41.398   6.464
 3974POPC   C2B51416  36.316  41.318   6.764
 3974POPC   C3B51417  36.298  41.314   7.064
 3974POPC   C4B51418  36.302  41.329   7.364
 3975POPC   NC351419  18.242   7.406   5.564
 3975POPC   PO451420  18.300   7.407   5.864
 3975POPC   GL151421  18.331   7.375   6.164
 3975POPC   GL251422  18.274   7.581   6.164
 3975POPC   C1A51423  18.253   7.445   6.464
 3975POPC   D2A51424  18.241   7.399   6.764
 3975POPC   C3A51425  18.280   7.443   7.064
 3975POPC   C4A51426  18.268   7.461   7.364
 3975POPC   C1B51427  18.283   7.665   6.464
 3975POPC   C2B51428  18.353   7.695   6.764
 3975POPC   C3B51429  18.307   7.701   7.064
 3975POPC   C4B51430  18.364   7.673   7.364
 3976POPC   NC351431  27.576  33.838   5.564
 3976POPC   PO451432  27.568  33.808   5.864
 3976POPC   GL151433  27.588  33.833   6.164
 3976POPC   GL251434  27.429  33.724   6.164
 3976POPC   C1A51435  27.567  33.751   6.464
 3976POPC   D2A51436  27.637  33.847   6.764
 3976POPC   C3A51437  27.545  33.782   7.064
 3976POPC   C4A51438  27.551  33.770   7.364
 3976POPC   C1B51439  27.338  33.721   6.464
 3976POPC   C2B51440  27.301  33.761   6.764
 3976POPC   C3B51441  27.341  33.764   7.064
 3976POPC   C4B51442  27.324  33.696   7.364
 3977POPC   NC351443  33.046  26.008   5.564
 3977POPC   PO451444  33.051  26.017   5.864
 3977POPC   GL151445  32.993  26.046   6.164
 3977POPC   GL251446  33.068  26.142   6.164
 3977POPC   C1A51447  33.033  26.000   6.464
 3977POPC   D2A51448  33.064  25.994   6.764
 3977POPC   C3A51449  32.982  26.045   7.064
 3977POPC   C4A51450  33.013  26.070   7.364
 3977POPC   C1B51451  33.120  26.332   6.464
 3977POPC   C2B51452  33.114  26.257   6.764
 3977POPC   C3B51453  33.056  26.311   7.064
 3977POPC   C4B51454  33.059  26.321   7.364
 3978POPC   NC351455   0.413  24.512   5.564
 3978POPC   PO451456   0.412  24.484   5.864
 3978POPC   GL151457   0.450  24.528   6.164
 3978POPC   GL251458   0.528  24.422   6.164
 3978POPC   C1A51459   0.485  24.521   6.464
 3978POPC   D2A51460   0.482  24.489   6.764
 3978POPC   C3A51461   0.398  24.505   7.064
 3978POPC   C4A51462   0.481  24.491   7.364
 3978POPC   C1B51463   0.611  24.329   6.464
 3978POPC   C2B51464   0.667  24.306   6.764
 3978POPC   C3B51465   0.653  24.352   7.064
 3978POPC   C4B51466   0.630  24.303   7.364
 3979POPC   NC351467  19.853  43.862   5.564
 3979POPC   PO451468  19.827  43.843   5.864
 3979POPC   GL151469  19.788  43.926   6.164
 3979POPC   GL251470  19.961  43.931   6.164
 3979POPC   C1A51471  19.848  43.901   6.464
 3979POPC   D2A51472  19.789  43.851   6.764
 3979POPC   C3A51473  19.867  43.848   7.064
 3979POPC   C4A51474  19.791  43.924   7.364
 3979POPC   C1B51475  20.068  44.051   6.464
 3979POPC   C2B51476  20.037  44.009   6.764
 3979POPC   C3B51477  20.095  44.024   7.064
 3979POPC   C4B51478  20.075  44.038   7.364
 3980POPC   NC351479  35.398  26.769   5.564
 3980POPC   PO451480  35.391  26.842   5.864
 3980POPC   GL151481  35.336  26.828   6.164
 3980POPC   GL251482  35.505  26.830   6.164
 3980POPC   C1A51483  35.316  26.773   6.464
 3980POPC   D2A51484  35.333  26.810   6.764
 3980POPC   C3A51485  35.357  26.867   7.064
 3980POPC   C4A51486  35.358  26.800   7.364
 3980POPC   C1B51487  35.556  26.761   6.464
 3980POPC   C2B51488  35.600  26.724   6.764
 3980POPC   C3B51489  35.558  26.805   7.064
 3980POPC   C4B51490  35.590  26.800   7.364
 3981POPC   NC351491  11.252  36.869   5.564
 3981POPC   PO451492  11.278  36.857   5.864
 3981POPC   GL151493  11.311  36.900   6.164
 3981POPC   GL251494  11.236  36.824   6.164
 3981POPC   C1A51495  11.321  36.946   6.464
 3981POPC   D2A51496  11.336  36.937   6.764
 3981POPC   C3A51497  11.336  36.889   7.064
 3981POPC   C4A51498  11.267  36.909   7.364
 3981POPC   C1B51499  11.157  36.751   6.464
 3981POPC   C2B51500  11.159  36.685   6.764
 3981POPC   C3B51501  11.128  36.739   7.064
 3981POPC   C4B51502  11.157  36.750   7.364
 3982POPC   NC351503  41.537   2.793   5.564
 3982POPC   PO451504  41.566   2.772   5.864
 3982POPC   GL151505  41.605   2.725   6.164
 3982POPC   GL251506  41.559   2.625   6.164
 3982POPC   C1A51507  41.570   2.814   6.464
 3982POPC   D2A51508  41.546   2.810   6.764
 3982POPC   C3A51509  41.561   2.752   7.064
 3982POPC   C4A51510  41.580   2.813   7.364
 3982POPC   C1B51511  41.509   2.476   6.464
 3982POPC   C2B51512  41.550   2.533   6.764
 3982POPC   C3B51513  41.529   2.523   7.064
 3982POPC   C4B51514  41.526   2.466   7.364
 3983POPC   NC351515  43.895  44.618   5.564
 3983POPC   PO451516  43.927  44.643   5.864
 3983POPC   GL151517  43.871  44.685   6.164
 3983POPC   GL251518  43.970  44.729   6.164
 3983POPC   C1A51519  43.854  44.676   6.464
 3983POPC   D2A51520  43.896  44.700   6.764
 3983POPC   C3A51521  43.855  44.648   7.064
 3983POPC   C4A51522  43.926  44.624   7.364
 3983POPC   C1B51523  44.006  44.826   6.464
 3983POPC   C2B51524  43.969  44.827   6.764
 3983POPC   C3B51525  44.050  44.900   7.064
 3983POPC   C4B51526  44.013  44.917   7.364
 3984POPC   NC351527   6.658  20.648   5.564
 3984POPC   PO451528   6.673  20.651   5.864
 3984POPC   GL151529   6.668  20.656   6.164
 3984POPC   GL251530   6.746  20.696   6.164
 3984POPC   C1A51531   6.608  20.631   6.464
 3984POPC   D2A51532   6.596  20.570   6.764
 3984POPC   C3A51533   6.629  20.596   7.064
 3984POPC   C4A51534   6.652  20.587   7.364
 3984POPC   C1B51535   6.861  20.683   6.464
 3984POPC   C2B51536   6.890  20.665   6.764
 3984POPC   C3B51537   6.878  20.697   7.064
 3984POPC   C4B51538   6.907  20.694   7.364
 3985POPC   NC351539  15.954  22.951   5.564
 3985POPC   PO451540  15.916  22.951   5.864
 3985POPC   GL151541  15.972  22.946   6.164
 3985POPC   GL251542  15.989  22.807   6.164
 3985POPC   C1A51543  15.962  22.948   6.464
 3985POPC   D2A51544  15.926  22.945   6.764
 3985POPC   C3A51545  15.984  22.967   7.064
 3985POPC   C4A51546  15.965  22.967   7.364
 3985POPC   C1B51547  15.963  22.704   6.464
 3985POPC   C2B51548  15.991  22.730   6.764
 3985POPC   C3B51549  16.015  22.710   7.064
 3985POPC   C4B51550  15.982  22.737   7.364
 3986POPC   NC351551  40.813   7.426   5.564
 3986POPC   PO451552  40.810   7.410   5.864
 3986POPC   GL151553  40.802   7.446   6.164
 3986POPC   GL251554  40.803   7.572   6.164
 3986POPC   C1A51555  40.821   7.440   6.464
 3986POPC   D2A51556  40.756   7.399   6.764
 3986POPC   C3A51557  40.748   7.434   7.064
 3986POPC   C4A51558  40.745   7.393   7.364
 3986POPC   C1B51559  40.792   7.629   6.464
 3986POPC   C2B51560  40.821   7.656   6.764
 3986POPC   C3B51561  40.867   7.636   7.064
 3986POPC   C4B51562  40.823   7.633   7.364
 3987POPC   NC351563  32.999   2.758   5.564
 3987POPC   PO451564  33.034   2.794   5.864
 3987POPC   GL151565  32.989   2.782   6.164
 3987POPC   GL251566  32.889   2.828   6.164
 3987POPC   C1A51567  33.058   2.796   6.464
 3987POPC   D2A51568  33.014   2.787   6.764
 3987POPC   C3A51569  33.058   2.719   7.064
 3987POPC   C4A51570  33.010   2.746   7.364
 3987POPC   C1B51571  32.742   2.823   6.464
 3987POPC   C2B51572  32.785   2.862   6.764
 3987POPC   C3B51573  32.757   2.865   7.064
 3987POPC   C4B51574  32.756   2.819   7.364
 3988POPC   NC351575  44.617  35.353   5.564
 3988POPC   PO451576  44.702  35.375   5.864
 3988POPC   GL151577  44.680  35.318   6.164
 3988POPC   GL251578  44.734  35.392   6.164
 3988POPC   C1A51579  44.700  35.325   6.464
 3988POPC   D2A51580  44.710  35.383   6.764
 3988POPC   C3A51581  44.622  35.332   7.064
 3988POPC   C4A51582  44.711  35.322   7.364
 3988POPC   C1B51583  44.916  35.425   6.464
 3988POPC   C2B51584  44.941  35.440   6.764
 3988POPC   C3B51585  44.867  35.480   7.064
 3988POPC   C4B51586  44.845  35.400   7.364
 3989POPC   NC351587  12.125  18.299   5.564
 3989POPC   PO451588  12.033  18.314   5.864
 3989POPC   GL151589  12.050  18.322   6.164
 3989POPC   GL251590  12.039  18.194   6.164
 3989POPC   C1A51591  12.095  18.235   6.464
 3989POPC   D2A51592  12.066  18.305   6.764
 3989POPC   C3A51593  12.110  18.287   7.064
 3989POPC   C4A51594  12.062  18.323   7.364
 3989POPC   C1B51595  11.953  18.124   6.464
 3989POPC   C2B51596  11.918  18.098   6.764
 3989POPC   C3B51597  11.891  18.083   7.064
 3989POPC   C4B51598  11.914  18.068   7.364
 3990POPC   NC351599  23.736  35.356   5.564
 3990POPC   PO451600  23.740  35.313   5.864
 3990POPC   GL151601  23.743  35.333   6.164
 3990POPC   GL251602  23.748  35.435   6.164
 3990POPC   C1A51603  23.758  35.384   6.464
 3990POPC   D2A51604  23.757  35.345   6.764
 3990POPC   C3A51605  23.715  35.314   7.064
 3990POPC   C4A51606  23.665  35.341   7.364
 3990POPC   C1B51607  23.837  35.553   6.464
 3990POPC   C2B51608  23.878  35.544   6.764
 3990POPC   C3B51609  23.858  35.596   7.064
 3990POPC   C4B51610  23.878  35.541   7.364
 3991POPC   NC351611  42.323  40.774   5.564
 3991POPC   PO451612  42.319  40.734   5.864
 3991POPC   GL151613  42.360  40.800   6.164
 3991POPC   GL251614  42.444  40.686   6.164
 3991POPC   C1A51615  42.315  40.747   6.464
 3991POPC   D2A51616  42.335  40.752   6.764
 3991POPC   C3A51617  42.346  40.755   7.064
 3991POPC   C4A51618  42.339  40.733   7.364
 3991POPC   C1B51619  42.519  40.608   6.464
 3991POPC   C2B51620  42.455  40.582   6.764
 3991POPC   C3B51621  42.484  40.603   7.064
 3991POPC   C4B51622  42.533  40.556   7.364
 3992POPC   NC351623  37.700  33.792   5.564
 3992POPC   PO451624  37.672  33.807   5.864
 3992POPC   GL151625  37.728  33.768   6.164
 3992POPC   GL251626  37.592  33.738   6.164
 3992POPC   C1A51627  37.703  33.791   6.464
 3992POPC   D2A51628  37.703  33.755   6.764
 3992POPC   C3A51629  37.713  33.827   7.064
 3992POPC   C4A51630  37.658  33.807   7.364
 3992POPC   C1B51631  37.505  33.701   6.464
 3992POPC   C2B51632  37.419  33.711   6.764
 3992POPC   C3B51633  37.470  33.680   7.064
 3992POPC   C4B51634  37.482  33.688   7.364
 3993POPC   NC351635   4.267  26.810   5.564
 3993POPC   PO451636   4.267  26.855   5.864
 3993POPC   GL151637   4.303  26.769   6.164
 3993POPC   GL251638   4.341  26.685   6.164
 3993POPC   C1A51639   4.344  26.810   6.464
 3993POPC   D2A51640   4.315  26.816   6.764
 3993POPC   C3A51641   4.350  26.847   7.064
 3993POPC   C4A51642   4.275  26.809   7.364
 3993POPC   C1B51643   4.424  26.529   6.464
 3993POPC   C2B51644   4.374  26.557   6.764
 3993POPC   C3B51645   4.346  26.537   7.064
 3993POPC   C4B51646   4.341  26.604   7.364
 3994POPC   NC351647   5.822  43.846   5.564
 3994POPC   PO451648   5.839  43.928   5.864
 3994POPC   GL151649   5.841  43.921   6.164
 3994POPC   GL251650   5.805  43.784   6.164
 3994POPC   C1A51651   5.903  43.860   6.464
 3994POPC   D2A51652   5.835  43.909   6.764
 3994POPC   C3A51653   5.827  43.855   7.064
 3994POPC   C4A51654   5.876  43.897   7.364
 3994POPC   C1B51655   5.694  43.739   6.464
 3994POPC   C2B51656   5.678  43.687   6.764
 3994POPC   C3B51657   5.698  43.699   7.064
 3994POPC   C4B51658   5.684  43.710   7.364
 3995POPC   NC351659  11.328  33.796   5.564
 3995POPC   PO451660  11.332  33.785   5.864
 3995POPC   GL151661  11.315  33.800   6.164
 3995POPC   GL251662  11.256  33.893   6.164
 3995POPC   C1A51663  11.261  33.756   6.464
 3995POPC   D2A51664  11.259  33.821   6.764
 3995POPC   C3A51665  11.287  33.790   7.064
 3995POPC   C4A51666  11.301  33.809   7.364
 3995POPC   C1B51667  11.263  34.026   6.464
 3995POPC   C2B51668  11.282  34.085   6.764
 3995POPC   C3B51669  11.196  34.030   7.064
 3995POPC   C4B51670  11.215  34.015   7.364
 3996POPC   NC351671  13.656  40.780   5.564
 3996POPC   PO451672  13.628  40.745   5.864
 3996POPC   GL151673  13.667  40.831   6.164
 3996POPC   GL251674  13.590  40.905   6.164
 3996POPC   C1A51675  13.633  40.766   6.464
 3996POPC   D2A51676  13.652  40.803   6.764
 3996POPC   C3A51677  13.657  40.829   7.064
 3996POPC   C4A51678  13.650  40.819   7.364
 3996POPC   C1B51679  13.487  40.999   6.464
 3996POPC   C2B51680  13.423  40.949   6.764
 3996POPC   C3B51681  13.428  40.989   7.064
 3996POPC   C4B51682  13.412  40.915   7.364
 3997POPC   NC351683  19.043  11.260   5.564
 3997POPC   PO451684  19.026  11.284   5.864
 3997POPC   GL151685  19.021  11.333   6.164
 3997POPC   GL251686  19.204  11.349   6.164
 3997POPC   C1A51687  19.022  11.287   6.464
 3997POPC   D2A51688  19.051  11.274   6.764
 3997POPC   C3A51689  19.022  11.345   7.064
 3997POPC   C4A51690  19.058  11.321   7.364
 3997POPC   C1B51691  19.249  11.448   6.464
 3997POPC   C2B51692  19.250  11.410   6.764
 3997POPC   C3B51693  19.261  11.419   7.064
 3997POPC   C4B51694  19.271  11.422   7.364
 3998POPC   NC351695   2.732  14.453   5.564
 3998POPC   PO451696   2.738  14.438   5.864
 3998POPC   GL151697   2.717  14.453   6.164
 3998POPC   GL251698   2.657  14.247   6.164
 3998POPC   C1A51699   2.747  14.423   6.464
 3998POPC   D2A51700   2.749  14.395   6.764
 3998POPC   C3A51701   2.740  14.354   7.064
 3998POPC   C4A51702   2.807  14.403   7.364
 3998POPC   C1B51703   2.645  14.155   6.464
 3998POPC   C2B51704   2.674  14.155   6.764
 3998POPC   C3B51705   2.606  14.177   7.064
 3998POPC   C4B51706   2.616  14.181   7.364
 3999POPC   NC351707  20.574  26.844   5.564
 3999POPC   PO451708  20.657  26.779   5.864
 3999POPC   GL151709  20.638  26.781   6.164
 3999POPC   GL251710  20.545  26.868   6.164
 3999POPC   C1A51711  20.595  26.777   6.464
 3999POPC   D2A51712  20.643  26.864   6.764
 3999POPC   C3A51713  20.592  26.859   7.064
 3999POPC   C4A51714  20.649  26.830   7.364
 3999POPC   C1B51715  20.460  27.014   6.464
 3999POPC   C2B51716  20.426  27.010   6.764
 3999POPC   C3B51717  20.423  26.984   7.064
 3999POPC   C4B51718  20.449  26.951   7.364
 4000POPC   NC351719  29.182   4.342   5.564
 4000POPC   PO451720  29.161   4.347   5.864
 4000POPC   GL151721  29.151   4.287   6.164
 4000POPC   GL251722  29.216   4.227   6.164
 4000POPC   C1A51723  29.163   4.321   6.464
 4000POPC   D2A51724  29.151   4.272   6.764
 4000POPC   C3A51725  29.138   4.315   7.064
 4000POPC   C4A51726  29.191   4.347   7.364
 4000POPC   C1B51727  29.389   4.151   6.464
 4000POPC   C2B51728  29.403   4.152   6.764
 4000POPC   C3B51729  29.342   4.171   7.064
 4000POPC   C4B51730  29.361   4.149   7.364
 4001POPC   NC351731  42.344  41.509   5.564
 4001POPC   PO451732  42.310  41.512   5.864
 4001POPC   GL151733  42.339  41.590   6.164
 4001POPC   GL251734  42.238  41.562   6.164
 4001POPC   C1A51735  42.369  41.515   6.464
 4001POPC   D2A51736  42.307  41.518   6.764
 4001POPC   C3A51737  42.364  41.563   7.064
 4001POPC   C4A51738  42.329  41.542   7.364
 4001POPC   C1B51739  42.094  41.558   6.464
 4001POPC   C2B51740  42.056  41.517   6.764
 4001POPC   C3B51741  42.037  41.574   7.064
 4001POPC   C4B51742  42.125  41.489   7.364
 4002POPC   NC351743  36.856   0.411   5.564
 4002POPC   PO451744  36.951   0.390   5.864
 4002POPC   GL151745  36.948   0.461   6.164
 4002POPC   GL251746  36.857   0.534   6.164
 4002POPC   C1A51747  36.889   0.417   6.464
 4002POPC   D2A51748  36.923   0.435   6.764
 4002POPC   C3A51749  36.865   0.484   7.064
 4002POPC   C4A51750  36.865   0.460   7.364
 4002POPC   C1B51751  36.733   0.661   6.464
 4002POPC   C2B51752  36.709   0.627   6.764
 4002POPC   C3B51753  36.714   0.628   7.064
 4002POPC   C4B51754  36.757   0.621   7.364
 4003POPC   NC351755  31.433  10.573   5.564
 4003POPC   PO451756  31.520  10.553   5.864
 4003POPC   GL151757  31.468  10.539   6.164
 4003POPC   GL251758  31.370  10.429   6.164
 4003POPC   C1A51759  31.437  10.491   6.464
 4003POPC   D2A51760  31.468  10.493   6.764
 4003POPC   C3A51761  31.481  10.558   7.064
 4003POPC   C4A51762  31.478  10.487   7.364
 4003POPC   C1B51763  31.395  10.326   6.464
 4003POPC   C2B51764  31.397  10.277   6.764
 4003POPC   C3B51765  31.404  10.346   7.064
 4003POPC   C4B51766  31.357  10.345   7.364
 4004POPC   NC351767   1.198  43.843   5.564
 4004POPC   PO451768   1.211  43.850   5.864
 4004POPC   GL151769   1.211  43.882   6.164
 4004POPC   GL251770   1.083  43.906   6.164
 4004POPC   C1A51771   1.258  43.886   6.464
 4004POPC   D2A51772   1.226  43.862   6.764
 4004POPC   C3A51773   1.180  43.898   7.064
 4004POPC   C4A51774   1.243  43.857   7.364
 4004POPC   C1B51775   0.943  43.854   6.464
 4004POPC   C2B51776   0.946  43.896   6.764
 4004POPC   C3B51777   0.981  43.875   7.064
 4004POPC   C4B51778   0.952  43.868   7.364
 4005POPC   NC351779  40.035   4.321   5.564
 4005POPC   PO451780  39.977   4.282   5.864
 4005POPC   GL151781  39.995   4.350   6.164
 4005POPC   GL251782  39.930   4.394   6.164
 4005POPC   C1A51783  40.032   4.359   6.464
 4005POPC   D2A51784  39.996   4.359   6.764
 4005POPC   C3A51785  40.046   4.338   7.064
 4005POPC   C4A51786  40.044   4.367   7.364
 4005POPC   C1B51787  39.905   4.520   6.464
 4005POPC   C2B51788  39.943   4.569   6.764
 4005POPC   C3B51789  39.909   4.574   7.064
 4005POPC   C4B51790  39.889   4.513   7.364
 4006POPC   NC351791   6.669  13.655   5.564
 4006POPC   PO451792   6.687  13.655   5.864
 4006POPC   GL151793   6.693  13.663   6.164
 4006POPC   GL251794   6.760  13.582   6.164
 4006POPC   C1A51795   6.691  13.640   6.464
 4006POPC   D2A51796   6.599  13.610   6.764
 4006POPC   C3A51797   6.663  13.615   7.064
 4006POPC   C4A51798   6.645  13.629   7.364
 4006POPC   C1B51799   6.915  13.522   6.464
 4006POPC   C2B51800   6.850  13.488   6.764
 4006POPC   C3B51801   6.908  13.533   7.064
 4006POPC   C4B51802   6.914  13.528   7.364
 4007POPC   NC351803  35.320  44.664   5.564
 4007POPC   PO451804  35.304  44.668   5.864
 4007POPC   GL151805  35.360  44.653   6.164
 4007POPC   GL251806  35.443  44.572   6.164
 4007POPC   C1A51807  35.360  44.654   6.464
 4007POPC   D2A51808  35.389  44.646   6.764
 4007POPC   C3A51809  35.327  44.620   7.064
 4007POPC   C4A51810  35.371  44.677   7.364
 4007POPC   C1B51811  35.452  44.442   6.464
 4007POPC   C2B51812  35.466  44.428   6.764
 4007POPC   C3B51813  35.462  44.406   7.064
 4007POPC   C4B51814  35.415  44.462   7.364
 4008POPC   NC351815   9.770  34.572   5.564
 4008POPC   PO451816   9.718  34.580   5.864
 4008POPC   GL151817   9.790  34.583   6.164
 4008POPC   GL251818   9.583  34.593   6.164
 4008POPC   C1A51819   9.720  34.598   6.464
 4008POPC   D2A51820   9.756  34.589   6.764
 4008POPC   C3A51821   9.790  34.528   7.064
 4008POPC   C4A51822   9.699  34.579   7.364
 4008POPC   C1B51823   9.539  34.611   6.464
 4008POPC   C2B51824   9.526  34.615   6.764
 4008POPC   C3B51825   9.527  34.533   7.064
 4008POPC   C4B51826   9.518  34.529   7.364
 4009POPC   NC351827   5.887   8.154   5.564
 4009POPC   PO451828   5.853   8.178   5.864
 4009POPC   GL151829   5.826   8.199   6.164
 4009POPC   GL251830   5.770   8.178   6.164
 4009POPC   C1A51831   5.841   8.158   6.464
 4009POPC   D2A51832   5.832   8.197   6.764
 4009POPC   C3A51833   5.918   8.203   7.064
 4009POPC   C4A51834   5.825   8.226   7.364
 4009POPC   C1B51835   5.655   8.193   6.464
 4009POPC   C2B51836   5.617   8.127   6.764
 4009POPC   C3B51837   5.621   8.166   7.064
 4009POPC   C4B51838   5.592   8.125   7.364
 4010POPC   NC351839  26.053  37.650   5.564
 4010POPC   PO451840  26.078  37.631   5.864
 4010POPC   GL151841  26.044  37.658   6.164
 4010POPC   GL251842  26.183  37.695   6.164
 4010POPC   C1A51843  26.040  37.644   6.464
 4010POPC   D2A51844  26.081  37.636   6.764
 4010POPC   C3A51845  26.068  37.650   7.064
 4010POPC   C4A51846  26.030  37.684   7.364
 4010POPC   C1B51847  26.288  37.695   6.464
 4010POPC   C2B51848  26.291  37.711   6.764
 4010POPC   C3B51849  26.275  37.740   7.064
 4010POPC   C4B51850  26.240  37.753   7.364
 4011POPC   NC351851  21.341  12.889   5.564
 4011POPC   PO451852  21.423  12.841   5.864
 4011POPC   GL151853  21.346  12.874   6.164
 4011POPC   GL251854  21.433  12.709   6.164
 4011POPC   C1A51855  21.366  12.876   6.464
 4011POPC   D2A51856  21.434  12.880   6.764
 4011POPC   C3A51857  21.380  12.870   7.064
 4011POPC   C4A51858  21.381  12.880   7.364
 4011POPC   C1B51859  21.356  12.617   6.464
 4011POPC   C2B51860  21.441  12.552   6.764
 4011POPC   C3B51861  21.419  12.645   7.064
 4011POPC   C4B51862  21.392  12.552   7.364
 4012POPC   NC351863  29.891  14.357   5.564
 4012POPC   PO451864  29.938  14.412   5.864
 4012POPC   GL151865  29.930  14.420   6.164
 4012POPC   GL251866  30.031  14.426   6.164
 4012POPC   C1A51867  29.896  14.414   6.464
 4012POPC   D2A51868  29.906  14.389   6.764
 4012POPC   C3A51869  29.877  14.419   7.064
 4012POPC   C4A51870  29.897  14.428   7.364
 4012POPC   C1B51871  30.204  14.371   6.464
 4012POPC   C2B51872  30.170  14.428   6.764
 4012POPC   C3B51873  30.156  14.415   7.064
 4012POPC   C4B51874  30.131  14.372   7.364
 4013POPC   NC351875  43.146   8.186   5.564
 4013POPC   PO451876  43.062   8.236   5.864
 4013POPC   GL151877  43.108   8.238   6.164
 4013POPC   GL251878  42.983   8.177   6.164
 4013POPC   C1A51879  43.134   8.212   6.464
 4013POPC   D2A51880  43.080   8.149   6.764
 4013POPC   C3A51881  43.103   8.199   7.064
 4013POPC   C4A51882  43.094   8.206   7.364
 4013POPC   C1B51883  42.887   8.211   6.464
 4013POPC   C2B51884  42.892   8.196   6.764
 4013POPC   C3B51885  42.853   8.162   7.064
 4013POPC   C4B51886  42.821   8.178   7.364
 4014POPC   NC351887   6.678  19.092   5.564
 4014POPC   PO451888   6.663  19.080   5.864
 4014POPC   GL151889   6.639  19.014   6.164
 4014POPC   GL251890   6.569  18.953   6.164
 4014POPC   C1A51891   6.652  19.053   6.464
 4014POPC   D2A51892   6.641  19.020   6.764
 4014POPC   C3A51893   6.646  19.058   7.064
 4014POPC   C4A51894   6.627  19.013   7.364
 4014POPC   C1B51895   6.475  18.845   6.464
 4014POPC   C2B51896   6.472  18.853   6.764
 4014POPC   C3B51897   6.466  18.852   7.064
 4014POPC   C4B51898   6.499  18.823   7.364
 4015POPC   NC351899   0.451  14.411   5.564
 4015POPC   PO451900   0.424  14.399   5.864
 4015POPC   GL151901   0.394  14.420   6.164
 4015POPC   GL251902   0.296  14.411   6.164
 4015POPC   C1A51903   0.389  14.401   6.464
 4015POPC   D2A51904   0.438  14.391   6.764
 4015POPC   C3A51905   0.416  14.434   7.064
 4015POPC   C4A51906   0.473  14.358   7.364
 4015POPC   C1B51907   0.174  14.467   6.464
 4015POPC   C2B51908   0.202  14.423   6.764
 4015POPC   C3B51909   0.214  14.402   7.064
 4015POPC   C4B51910   0.169  14.489   7.364
 4016POPC   NC351911  17.482  12.896   5.564
 4016POPC   PO451912  17.531  12.803   5.864
 4016POPC   GL151913  17.557  12.872   6.164
 4016POPC   GL251914  17.558  12.953   6.164
 4016POPC   C1A51915  17.526  12.867   6.464
 4016POPC   D2A51916  17.518  12.820   6.764
 4016POPC   C3A51917  17.467  12.875   7.064
 4016POPC   C4A51918  17.552  12.837   7.364
 4016POPC   C1B51919  17.600  13.104   6.464
 4016POPC   C2B51920  17.566  13.034   6.764
 4016POPC   C3B51921  17.593  13.066   7.064
 4016POPC   C4B51922  17.645  13.117   7.364
 4017POPC   NC351923  12.899  21.341   5.564
 4017POPC   PO451924  12.886  21.389   5.864
 4017POPC   GL151925  12.896  21.394   6.164
 4017POPC   GL251926  12.905  21.243   6.164
 4017POPC   C1A51927  12.868  21.352   6.464
 4017POPC   D2A51928  12.892  21.349   6.764
 4017POPC   C3A51929  12.819  21.382   7.064
 4017POPC   C4A51930  12.840  21.353   7.364
 4017POPC   C1B51931  13.048  21.159   6.464
 4017POPC   C2B51932  13.017  21.157   6.764
 4017POPC   C3B51933  12.953  21.147   7.064
 4017POPC   C4B51934  13.022  21.181   7.364
 4018POPC   NC351935   7.377   2.807   5.564
 4018POPC   PO451936   7.377   2.765   5.864
 4018POPC   GL151937   7.374   2.719   6.164
 4018POPC   GL251938   7.443   2.658   6.164
 4018POPC   C1A51939   7.382   2.802   6.464
 4018POPC   D2A51940   7.405   2.769   6.764
 4018POPC   C3A51941   7.467   2.766   7.064
 4018POPC   C4A51942   7.374   2.791   7.364
 4018POPC   C1B51943   7.380   2.502   6.464
 4018POPC   C2B51944   7.394   2.556   6.764
 4018POPC   C3B51945   7.342   2.526   7.064
 4018POPC   C4B51946   7.375   2.515   7.364
 4019POPC   NC351947  38.420  36.931   5.564
 4019POPC   PO451948  38.436  36.855   5.864
 4019POPC   GL151949  38.484  36.892   6.164
 4019POPC   GL251950  38.466  36.788   6.164
 4019POPC   C1A51951  38.426  36.882   6.464
 4019POPC   D2A51952  38.406  36.916   6.764
 4019POPC   C3A51953  38.500  36.854   7.064
 4019POPC   C4A51954  38.492  36.911   7.364
 4019POPC   C1B51955  38.365  36.692   6.464
 4019POPC   C2B51956  38.449  36.672   6.764
 4019POPC   C3B51957  38.393  36.693   7.064
 4019POPC   C4B51958  38.405  36.663   7.364
 4020POPC   NC351959  22.943  43.844   5.564
 4020POPC   PO451960  22.914  43.920   5.864
 4020POPC   GL151961  22.892  43.843   6.164
 4020POPC   GL251962  22.882  44.006   6.164
 4020POPC   C1A51963  22.901  43.854   6.464
 4020POPC   D2A51964  22.959  43.889   6.764
 4020POPC   C3A51965  22.907  43.884   7.064
 4020POPC   C4A51966  22.931  43.902   7.364
 4020POPC   C1B51967  22.753  44.080   6.464
 4020POPC   C2B51968  22.807  44.039   6.764
 4020POPC   C3B51969  22.790  44.033   7.064
 4020POPC   C4B51970  22.771  44.105   7.364
 4021POPC   NC351971   5.123   1.224   5.564
 4021POPC   PO451972   5.111   1.244   5.864
 4021POPC   GL151973   5.044   1.221   6.164
 4021POPC   GL251974   5.204   1.193   6.164
 4021POPC   C1A51975   5.097   1.200   6.464
 4021POPC   D2A51976   5.064   1.257   6.764
 4021POPC   C3A51977   5.051   1.234   7.064
 4021POPC   C4A51978   5.094   1.212   7.364
 4021POPC   C1B51979   5.383   1.154   6.464
 4021POPC   C2B51980   5.322   1.149   6.764
 4021POPC   C3B51981   5.297   1.209   7.064
 4021POPC   C4B51982   5.351   1.174   7.364
 4022POPC   NC351983  22.890  24.515   5.564
 4022POPC   PO451984  22.892  24.477   5.864
 4022POPC   GL151985  22.985  24.449   6.164
 4022POPC   GL251986  22.937  24.365   6.164
 4022POPC   C1A51987  22.984  24.521   6.464
 4022POPC   D2A51988  22.984  24.457   6.764
 4022POPC   C3A51989  22.962  24.489   7.064
 4022POPC   C4A51990  22.930  24.495   7.364
 4022POPC   C1B51991  22.937  24.227   6.464
 4022POPC   C2B51992  22.896  24.241   6.764
 4022POPC   C3B51993  22.898  24.256   7.064
 4022POPC   C4B51994  22.981  24.250   7.364
 4023POPC   NC351995  26.064  24.474   5.564
 4023POPC   PO451996  26.048  24.537   5.864
 4023POPC   GL151997  26.011  24.494   6.164
 4023POPC   GL251998  26.087  24.545   6.164
 4023POPC   C1A51999  26.065  24.490   6.464
 4023POPC   D2A52000  26.018  24.499   6.764
 4023POPC   C3A52001  25.995  24.537   7.064
 4023POPC   C4A52002  26.034  24.528   7.364
 4023POPC   C1B52003  26.231  24.728   6.464
 4023POPC   C2B52004  26.190  24.652   6.764
 4023POPC   C3B52005  26.250  24.633   7.064
 4023POPC   C4B52006  26.240  24.727   7.364
 4024POPC   NC352007  19.108  43.155   5.564
 4024POPC   PO452008  19.096  43.092   5.864
 4024POPC   GL152009  19.036  43.117   6.164
 4024POPC   GL252010  18.988  43.020   6.164
 4024POPC   C1A52011  19.093  43.103   6.464
 4024POPC   D2A52012  19.065  43.078   6.764
 4024POPC   C3A52013  19.105  43.069   7.064
 4024POPC   C4A52014  19.053  43.118   7.364
 4024POPC   C1B52015  18.835  42.972   6.464
 4024POPC   C2B52016  18.873  42.931   6.764
 4024POPC   C3B52017  18.880  42.967   7.064
 4024POPC   C4B52018  18.836  42.944   7.364
 4025POPC   NC352019  43.881  17.516   5.564
 4025POPC   PO452020  43.867  17.552   5.864
 4025POPC   GL152021  43.905  17.528   6.164
 4025POPC   GL252022  43.728  17.547   6.164
 4025POPC   C1A52023  43.899  17.539   6.464
 4025POPC   D2A52024  43.862  17.541   6.764
 4025POPC   C3A52025  43.864  17.501   7.064
 4025POPC   C4A52026  43.928  17.459   7.364
 4025POPC   C1B52027  43.629  17.516   6.464
 4025POPC   C2B52028  43.621  17.472   6.764
 4025POPC   C3B52029  43.613  17.536   7.064
 4025POPC   C4B52030  43.602  17.459   7.364
 4026POPC   NC352031  12.830  30.667   5.564
 4026POPC   PO452032  12.851  30.702   5.864
 4026POPC   GL152033  12.818  30.699   6.164
 4026POPC   GL252034  12.752  30.672   6.164
 4026POPC   C1A52035  12.802  30.684   6.464
 4026POPC   D2A52036  12.857  30.737   6.764
 4026POPC   C3A52037  12.812  30.698   7.064
 4026POPC   C4A52038  12.877  30.701   7.364
 4026POPC   C1B52039  12.584  30.611   6.464
 4026POPC   C2B52040  12.606  30.610   6.764
 4026POPC   C3B52041  12.652  30.573   7.064
 4026POPC   C4B52042  12.623  30.533   7.364
 4027POPC   NC352043  14.385   0.435   5.564
 4027POPC   PO452044  14.369   0.485   5.864
 4027POPC   GL152045  14.434   0.400   6.164
 4027POPC   GL252046  14.518   0.496   6.164
 4027POPC   C1A52047  14.394   0.466   6.464
 4027POPC   D2A52048  14.440   0.460   6.764
 4027POPC   C3A52049  14.378   0.402   7.064
 4027POPC   C4A52050  14.392   0.410   7.364
 4027POPC   C1B52051  14.645   0.459   6.464
 4027POPC   C2B52052  14.626   0.478   6.764
 4027POPC   C3B52053  14.631   0.499   7.064
 4027POPC   C4B52054  14.689   0.502   7.364
 4028POPC   NC352055  33.847  28.349   5.564
 4028POPC   PO452056  33.817  28.340   5.864
 4028POPC   GL152057  33.847  28.339   6.164
 4028POPC   GL252058  33.827  28.239   6.164
 4028POPC   C1A52059  33.819  28.337   6.464
 4028POPC   D2A52060  33.835  28.383   6.764
 4028POPC   C3A52061  33.839  28.382   7.064
 4028POPC   C4A52062  33.750  28.371   7.364
 4028POPC   C1B52063  33.816  28.152   6.464
 4028POPC   C2B52064  33.907  28.123   6.764
 4028POPC   C3B52065  33.879  28.152   7.064
 4028POPC   C4B52066  33.817  28.158   7.364
 4029POPC   NC352067  25.244  37.646   5.564
 4029POPC   PO452068  25.272  37.704   5.864
 4029POPC   GL152069  25.311  37.668   6.164
 4029POPC   GL252070  25.164  37.744   6.164
 4029POPC   C1A52071  25.309  37.657   6.464
 4029POPC   D2A52072  25.231  37.727   6.764
 4029POPC   C3A52073  25.259  37.661   7.064
 4029POPC   C4A52074  25.291  37.699   7.364
 4029POPC   C1B52075  25.163  37.910   6.464
 4029POPC   C2B52076  25.138  37.903   6.764
 4029POPC   C3B52077  25.104  37.881   7.064
 4029POPC   C4B52078  25.107  37.849   7.364
 4030POPC   NC352079  24.520  22.894   5.564
 4030POPC   PO452080  24.459  22.924   5.864
 4030POPC   GL152081  24.498  22.937   6.164
 4030POPC   GL252082  24.418  22.914   6.164
 4030POPC   C1A52083  24.453  22.953   6.464
 4030POPC   D2A52084  24.474  22.906   6.764
 4030POPC   C3A52085  24.537  22.972   7.064
 4030POPC   C4A52086  24.531  22.977   7.364
 4030POPC   C1B52087  24.273  22.834   6.464
 4030POPC   C2B52088  24.251  22.819   6.764
 4030POPC   C3B52089  24.324  22.786   7.064
 4030POPC   C4B52090  24.284  22.813   7.364
 4031POPC   NC352091  38.491  24.476   5.564
 4031POPC   PO452092  38.497  24.473   5.864
 4031POPC   GL152093  38.468  24.468   6.164
 4031POPC   GL252094  38.484  24.552   6.164
 4031POPC   C1A52095  38.448  24.501   6.464
 4031POPC   D2A52096  38.488  24.480   6.764
 4031POPC   C3A52097  38.422  24.473   7.064
 4031POPC   C4A52098  38.464  24.478   7.364
 4031POPC   C1B52099  38.577  24.734   6.464
 4031POPC   C2B52100  38.576  24.646   6.764
 4031POPC   C3B52101  38.583  24.735   7.064
 4031POPC   C4B52102  38.652  24.676   7.364
 4032POPC   NC352103  22.944  33.766   5.564
 4032POPC   PO452104  22.941  33.769   5.864
 4032POPC   GL152105  22.903  33.823   6.164
 4032POPC   GL252106  22.854  33.739   6.164
 4032POPC   C1A52107  22.935  33.793   6.464
 4032POPC   D2A52108  22.975  33.804   6.764
 4032POPC   C3A52109  22.908  33.800   7.064
 4032POPC   C4A52110  22.889  33.833   7.364
 4032POPC   C1B52111  22.727  33.703   6.464
 4032POPC   C2B52112  22.694  33.678   6.764
 4032POPC   C3B52113  22.689  33.715   7.064
 4032POPC   C4B52114  22.682  33.705   7.364
 4033POPC   NC352115  35.337  30.683   5.564
 4033POPC   PO452116  35.365  30.682   5.864
 4033POPC   GL152117  35.347  30.712   6.164
 4033POPC   GL252118  35.261  30.616   6.164
 4033POPC   C1A52119  35.363  30.651   6.464
 4033POPC   D2A52120  35.321  30.681   6.764
 4033POPC   C3A52121  35.356  30.744   7.064
 4033POPC   C4A52122  35.305  30.655   7.364
 4033POPC   C1B52123  35.172  30.508   6.464
 4033POPC   C2B52124  35.208  30.549   6.764
 4033POPC   C3B52125  35.204  30.477   7.064
 4033POPC   C4B52126  35.133  30.488   7.364
 4034POPC   NC352127   5.910   4.276   5.564
 4034POPC   PO452128   5.829   4.270   5.864
 4034POPC   GL152129   5.876   4.283   6.164
 4034POPC   GL252130   5.765   4.233   6.164
 4034POPC   C1A52131   5.858   4.363   6.464
 4034POPC   D2A52132   5.892   4.295   6.764
 4034POPC   C3A52133   5.841   4.288   7.064
 4034POPC   C4A52134   5.873   4.298   7.364
 4034POPC   C1B52135   5.735   4.144   6.464
 4034POPC   C2B52136   5.717   4.099   6.764
 4034POPC   C3B52137   5.663   4.156   7.064
 4034POPC   C4B52138   5.665   4.092   7.364
 4035POPC   NC352139  26.812  15.925   5.564
 4035POPC   PO452140  26.826  15.996   5.864
 4035POPC   GL152141  26.862  15.985   6.164
 4035POPC   GL252142  26.852  15.804   6.164
 4035POPC   C1A52143  26.836  15.916   6.464
 4035POPC   D2A52144  26.850  15.920   6.764
 4035POPC   C3A52145  26.770  15.929   7.064
 4035POPC   C4A52146  26.799  15.977   7.364
 4035POPC   C1B52147  26.916  15.737   6.464
 4035POPC   C2B52148  26.917  15.745   6.764
 4035POPC   C3B52149  26.861  15.715   7.064
 4035POPC   C4B52150  26.944  15.751   7.364
 4036POPC   NC352151  41.605  25.282   5.564
 4036POPC   PO452152  41.539  25.250   5.864
 4036POPC   GL152153  41.539  25.297   6.164
 4036POPC   GL252154  41.687  25.359   6.164
 4036POPC   C1A52155  41.558  25.254   6.464
 4036POPC   D2A52156  41.591  25.299   6.764
 4036POPC   C3A52157  41.519  25.218   7.064
 4036POPC   C4A52158  41.552  25.269   7.364
 4036POPC   C1B52159  41.773  25.347   6.464
 4036POPC   C2B52160  41.766  25.401   6.764
 4036POPC   C3B52161  41.782  25.412   7.064
 4036POPC   C4B52162  41.767  25.371   7.364
 4037POPC   NC352163  24.500   1.179   5.564
 4037POPC   PO452164  24.535   1.193   5.864
 4037POPC   GL152165  24.507   1.209   6.164
 4037POPC   GL252166  24.482   1.306   6.164
 4037POPC   C1A52167  24.469   1.186   6.464
 4037POPC   D2A52168  24.479   1.186   6.764
 4037POPC   C3A52169  24.515   1.220   7.064
 4037POPC   C4A52170  24.450   1.180   7.364
 4037POPC   C1B52171  24.485   1.511   6.464
 4037POPC   C2B52172  24.541   1.504   6.764
 4037POPC   C3B52173  24.462   1.501   7.064
 4037POPC   C4B52174  24.501   1.443   7.364
 4038POPC   NC352175  20.578  26.069   5.564
 4038POPC   PO452176  20.564  26.006   5.864
 4038POPC   GL152177  20.562  26.030   6.164
 4038POPC   GL252178  20.596  26.133   6.164
 4038POPC   C1A52179  20.582  26.011   6.464
 4038POPC   D2A52180  20.645  26.088   6.764
 4038POPC   C3A52181  20.578  26.084   7.064
 4038POPC   C4A52182  20.655  26.057   7.364
 4038POPC   C1B52183  20.523  26.241   6.464
 4038POPC   C2B52184  20.564  26.272   6.764
 4038POPC   C3B52185  20.486  26.238   7.064
 4038POPC   C4B52186  20.562  26.323   7.364
 4039POPC   NC352187  23.753  22.151   5.564
 4039POPC   PO452188  23.677  22.174   5.864
 4039POPC   GL152189  23.703  22.145   6.164
 4039POPC   GL252190  23.789  22.237   6.164
 4039POPC   C1A52191  23.748  22.169   6.464
 4039POPC   D2A52192  23.691  22.134   6.764
 4039POPC   C3A52193  23.718  22.133   7.064
 4039POPC   C4A52194  23.728  22.116   7.364
 4039POPC   C1B52195  23.844  22.348   6.464
 4039POPC   C2B52196  23.860  22.314   6.764
 4039POPC   C3B52197  23.864  22.319   7.064
 4039POPC   C4B52198  23.855  22.310   7.364
 4040POPC   NC352199  32.277  28.376   5.564
 4040POPC   PO452200  32.270  28.373   5.864
 4040POPC   GL152201  32.271  28.333   6.164
 4040POPC   GL252202  32.399  28.313   6.164
 4040POPC   C1A52203  32.259  28.334   6.464
 4040POPC   D2A52204  32.289  28.364   6.764
 4040POPC   C3A52205  32.204  28.345   7.064
 4040POPC   C4A52206  32.254  28.398   7.364
 4040POPC   C1B52207  32.481  28.268   6.464
 4040POPC   C2B52208  32.502  28.220   6.764
 4040POPC   C3B52209  32.457  28.307   7.064
 4040POPC   C4B52210  32.490  28.303   7.364
 4041POPC   NC352211   8.151  25.225   5.564
 4041POPC   PO452212   8.156  25.266   5.864
 4041POPC   GL152213   8.200  25.219   6.164
 4041POPC   GL252214   8.132  25.406   6.164
 4041POPC   C1A52215   8.194  25.236   6.464
 4041POPC   D2A52216   8.192  25.289   6.764
 4041POPC   C3A52217   8.238  25.257   7.064
 4041POPC   C4A52218   8.166  25.220   7.364
 4041POPC   C1B52219   8.063  25.491   6.464
 4041POPC   C2B52220   8.073  25.519   6.764
 4041POPC   C3B52221   8.095  25.478   7.064
 4041POPC   C4B52222   8.136  25.457   7.364
 4042POPC   NC352223  13.641  43.096   5.564
 4042POPC   PO452224  13.640  43.120   5.864
 4042POPC   GL152225  13.593  43.152   6.164
 4042POPC   GL252226  13.574  42.952   6.164
 4042POPC   C1A52227  13.654  43.077   6.464
 4042POPC   D2A52228  13.600  43.120   6.764
 4042POPC   C3A52229  13.643  43.108   7.064
 4042POPC   C4A52230  13.633  43.106   7.364
 4042POPC   C1B52231  13.651  42.898   6.464
 4042POPC   C2B52232  13.608  42.852   6.764
 4042POPC   C3B52233  13.625  42.820   7.064
 4042POPC   C4B52234  13.613  42.850   7.364
 4043POPC   NC352235  15.947  14.397   5.564
 4043POPC   PO452236  15.993  14.429   5.864
 4043POPC   GL152237  15.929  14.412   6.164
 4043POPC   GL252238  15.886  14.497   6.164
 4043POPC   C1A52239  15.908  14.389   6.464
 4043POPC   D2A52240  15.951  14.417   6.764
 4043POPC   C3A52241  15.938  14.414   7.064
 4043POPC   C4A52242  15.963  14.377   7.364
 4043POPC   C1B52243  15.690  14.504   6.464
 4043POPC   C2B52244  15.717  14.502   6.764
 4043POPC   C3B52245  15.747  14.461   7.064
 4043POPC   C4B52246  15.696  14.554   7.364
 4044POPC   NC352247  15.130  36.135   5.564
 4044POPC   PO452248  15.186  36.088   5.864
 4044POPC   GL152249  15.220  36.088   6.164
 4044POPC   GL252250  15.057  36.092   6.164
 4044POPC   C1A52251  15.139  36.136   6.464
 4044POPC   D2A52252  15.198  36.125   6.764
 4044POPC   C3A52253  15.195  36.105   7.064
 4044POPC   C4A52254  15.162  36.111   7.364
 4044POPC   C1B52255  14.891  36.129   6.464
 4044POPC   C2B52256  14.960  36.150   6.764
 4044POPC   C3B52257  14.906  36.074   7.064
 4044POPC   C4B52258  14.902  36.061   7.364
 4045POPC   NC352259  43.881  36.169   5.564
 4045POPC   PO452260  43.851  36.080   5.864
 4045POPC   GL152261  43.925  36.149   6.164
 4045POPC   GL252262  43.967  36.131   6.164
 4045POPC   C1A52263  43.901  36.101   6.464
 4045POPC   D2A52264  43.925  36.174   6.764
 4045POPC   C3A52265  43.911  36.129   7.064
 4045POPC   C4A52266  43.921  36.110   7.364
 4045POPC   C1B52267  44.149  36.110   6.464
 4045POPC   C2B52268  44.088  36.080   6.764
 4045POPC   C3B52269  44.092  36.054   7.064
 4045POPC   C4B52270  44.148  36.100   7.364
 4046POPC   NC352271  44.710  15.219   5.564
 4046POPC   PO452272  44.661  15.229   5.864
 4046POPC   GL152273  44.707  15.208   6.164
 4046POPC   GL252274  44.809  15.140   6.164
 4046POPC   C1A52275  44.681  15.218   6.464
 4046POPC   D2A52276  44.617  15.195   6.764
 4046POPC   C3A52277  44.700  15.202   7.064
 4046POPC   C4A52278  44.666  15.196   7.364
 4046POPC   C1B52279  44.882  15.215   6.464
 4046POPC   C2B52280  44.873  15.181   6.764
 4046POPC   C3B52281  44.929  15.180   7.064
 4046POPC   C4B52282  44.961  15.174   7.364
 4047POPC   NC352283  24.518  22.195   5.564
 4047POPC   PO452284  24.496  22.175   5.864
 4047POPC   GL152285  24.480  22.165   6.164
 4047POPC   GL252286  24.438  22.002   6.164
 4047POPC   C1A52287  24.460  22.146   6.464
 4047POPC   D2A52288  24.502  22.134   6.764
 4047POPC   C3A52289  24.539  22.189   7.064
 4047POPC   C4A52290  24.487  22.171   7.364
 4047POPC   C1B52291  24.465  21.907   6.464
 4047POPC   C2B52292  24.434  21.914   6.764
 4047POPC   C3B52293  24.405  21.955   7.064
 4047POPC   C4B52294  24.475  21.947   7.364
 4048POPC   NC352295  20.587   2.027   5.564
 4048POPC   PO452296  20.622   1.995   5.864
 4048POPC   GL152297  20.645   2.002   6.164
 4048POPC   GL252298  20.511   1.906   6.164
 4048POPC   C1A52299  20.610   2.030   6.464
 4048POPC   D2A52300  20.582   1.984   6.764
 4048POPC   C3A52301  20.660   2.026   7.064
 4048POPC   C4A52302  20.596   1.963   7.364
 4048POPC   C1B52303  20.484   1.759   6.464
 4048POPC   C2B52304  20.458   1.826   6.764
 4048POPC   C3B52305  20.477   1.784   7.064
 4048POPC   C4B52306  20.418   1.751   7.364
 4049POPC   NC352307  37.653   5.143   5.564
 4049POPC   PO452308  37.658   5.133   5.864
 4049POPC   GL152309  37.712   5.092   6.164
 4049POPC   GL252310  37.520   5.134   6.164
 4049POPC   C1A52311  37.664   5.121   6.464
 4049POPC   D2A52312  37.696   5.095   6.764
 4049POPC   C3A52313  37.716   5.079   7.064
 4049POPC   C4A52314  37.676   5.066   7.364
 4049POPC   C1B52315  37.455   5.103   6.464
 4049POPC   C2B52316  37.411   5.101   6.764
 4049POPC   C3B52317  37.465   5.057   7.064
 4049POPC   C4B52318  37.393   5.075   7.364
 4050POPC   NC352319  36.862  16.712   5.564
 4050POPC   PO452320  36.854  16.685   5.864
 4050POPC   GL152321  36.902  16.709   6.164
 4050POPC   GL252322  37.017  16.680   6.164
 4050POPC   C1A52323  36.900  16.764   6.464
 4050POPC   D2A52324  36.946  16.692   6.764
 4050POPC   C3A52325  36.942  16.701   7.064
 4050POPC   C4A52326  36.899  16.749   7.364
 4050POPC   C1B52327  37.142  16.557   6.464
 4050POPC   C2B52328  37.118  16.577   6.764
 4050POPC   C3B52329  37.139  16.598   7.064
 4050POPC   C4B52330  37.068  16.618   7.364
 4051POPC   NC352331  37.691  44.647   5.564
 4051POPC   PO452332  37.631  44.674   5.864
 4051POPC   GL152333  37.673  44.666   6.164
 4051POPC   GL252334  37.656  44.803   6.164
 4051POPC   C1A52335  37.689  44.663   6.464
 4051POPC   D2A52336  37.725  44.687   6.764
 4051POPC   C3A52337  37.696  44.698   7.064
 4051POPC   C4A52338  37.709  44.615   7.364
 4051POPC   C1B52339  37.523  44.859   6.464
 4051POPC   C2B52340  37.510  44.888   6.764
 4051POPC   C3B52341  37.551  44.899   7.064
 4051POPC   C4B52342  37.589  44.892   7.364
 4052POPC   NC352343  32.211  21.379   5.564
 4052POPC   PO452344  32.207  21.432   5.864
 4052POPC   GL152345  32.219  21.354   6.164
 4052POPC   GL252346  32.377  21.292   6.164
 4052POPC   C1A52347  32.283  21.406   6.464
 4052POPC   D2A52348  32.199  21.419   6.764
 4052POPC   C3A52349  32.207  21.422   7.064
 4052POPC   C4A52350  32.239  21.371   7.364
 4052POPC   C1B52351  32.424  21.270   6.464
 4052POPC   C2B52352  32.474  21.261   6.764
 4052POPC   C3B52353  32.425  21.257   7.064
 4052POPC   C4B52354  32.431  21.289   7.364
 4053POPC   NC352355  23.743  43.916   5.564
 4053POPC   PO452356  23.683  43.875   5.864
 4053POPC   GL152357  23.692  43.891   6.164
 4053POPC   GL252358  23.580  43.962   6.164
 4053POPC   C1A52359  23.702  43.844   6.464
 4053POPC   D2A52360  23.700  43.851   6.764
 4053POPC   C3A52361  23.721  43.882   7.064
 4053POPC   C4A52362  23.742  43.894   7.364
 4053POPC   C1B52363  23.514  43.968   6.464
 4053POPC   C2B52364  23.478  43.933   6.764
 4053POPC   C3B52365  23.490  43.952   7.064
 4053POPC   C4B52366  23.440  43.911   7.364
 4054POPC   NC352367  30.654  42.335   5.564
 4054POPC   PO452368  30.680  42.344   5.864
 4054POPC   GL152369  30.652  42.289   6.164
 4054POPC   GL252370  30.600  42.387   6.164
 4054POPC   C1A52371  30.713  42.301   6.464
 4054POPC   D2A52372  30.665  42.305   6.764
 4054POPC   C3A52373  30.703  42.301   7.064
 4054POPC   C4A52374  30.689  42.351   7.364
 4054POPC   C1B52375  30.484  42.468   6.464
 4054POPC   C2B52376  30.422  42.487   6.764
 4054POPC   C3B52377  30.465  42.410   7.064
 4054POPC   C4B52378  30.421  42.447   7.364
 4055POPC   NC352379  43.897  26.851   5.564
 4055POPC   PO452380  43.866  26.852   5.864
 4055POPC   GL152381  43.928  26.866   6.164
 4055POPC   GL252382  43.971  26.756   6.164
 4055POPC   C1A52383  43.931  26.823   6.464
 4055POPC   D2A52384  43.922  26.845   6.764
 4055POPC   C3A52385  43.900  26.860   7.064
 4055POPC   C4A52386  43.878  26.842   7.364
 4055POPC   C1B52387  44.081  26.611   6.464
 4055POPC   C2B52388  44.086  26.588   6.764
 4055POPC   C3B52389  44.020  26.633   7.064
 4055POPC   C4B52390  44.003  26.572   7.364
 4056POPC   NC352391  22.176  10.529   5.564
 4056POPC   PO452392  22.120  10.561   5.864
 4056POPC   GL152393  22.137  10.536   6.164
 4056POPC   GL252394  22.071  10.604   6.164
 4056POPC   C1A52395  22.144  10.525   6.464
 4056POPC   D2A52396  22.195  10.551   6.764
 4056POPC   C3A52397  22.144  10.505   7.064
 4056POPC   C4A52398  22.147  10.543   7.364
 4056POPC   C1B52399  22.000  10.641   6.464
 4056POPC   C2B52400  21.923  10.690   6.764
 4056POPC   C3B52401  21.969  10.641   7.064
 4056POPC   C4B52402  21.928  10.712   7.364
 4057POPC   NC352403  14.430  32.286   5.564
 4057POPC   PO452404  14.377  32.252   5.864
 4057POPC   GL152405  14.450  32.230   6.164
 4057POPC   GL252406  14.427  32.352   6.164
 4057POPC   C1A52407  14.375  32.206   6.464
 4057POPC   D2A52408  14.398  32.289   6.764
 4057POPC   C3A52409  14.441  32.211   7.064
 4057POPC   C4A52410  14.416  32.204   7.364
 4057POPC   C1B52411  14.393  32.486   6.464
 4057POPC   C2B52412  14.347  32.537   6.764
 4057POPC   C3B52413  14.345  32.528   7.064
 4057POPC   C4B52414  14.306  32.477   7.364
 4058POPC   NC352415  42.285   2.717   5.564
 4058POPC   PO452416  42.379   2.740   5.864
 4058POPC   GL152417  42.324   2.803   6.164
 4058POPC   GL252418  42.276   2.642   6.164
 4058POPC   C1A52419  42.347   2.724   6.464
 4058POPC   D2A52420  42.354   2.745   6.764
 4058POPC   C3A52421  42.317   2.791   7.064
 4058POPC   C4A52422  42.292   2.807   7.364
 4058POPC   C1B52423  42.139   2.564   6.464
 4058POPC   C2B52424  42.163   2.550   6.764
 4058POPC   C3B52425  42.107   2.633   7.064
 4058POPC   C4B52426  42.183   2.618   7.364
 4059POPC   NC352427  33.769  27.574   5.564
 4059POPC   PO452428  33.831  27.619   5.864
 4059POPC   GL152429  33.768  27.584   6.164
 4059POPC   GL252430  33.698  27.546   6.164
 4059POPC   C1A52431  33.847  27.586   6.464
 4059POPC   D2A52432  33.831  27.582   6.764
 4059POPC   C3A52433  33.765  27.639   7.064
 4059POPC   C4A52434  33.826  27.605   7.364
 4059POPC   C1B52435  33.620  27.370   6.464
 4059POPC   C2B52436  33.666  27.377   6.764
 4059POPC   C3B52437  33.601  27.428   7.064
 4059POPC   C4B52438  33.618  27.451   7.364
 4060POPC   NC352439  37.651  14.400   5.564
 4060POPC   PO452440  37.673  14.425   5.864
 4060POPC   GL152441  37.630  14.415   6.164
 4060POPC   GL252442  37.815  14.372   6.164
 4060POPC   C1A52443  37.697  14.399   6.464
 4060POPC   D2A52444  37.686  14.355   6.764
 4060POPC   C3A52445  37.726  14.369   7.064
 4060POPC   C4A52446  37.677  14.402   7.364
 4060POPC   C1B52447  37.886  14.263   6.464
 4060POPC   C2B52448  37.835  14.220   6.764
 4060POPC   C3B52449  37.869  14.243   7.064
 4060POPC   C4B52450  37.863  14.258   7.364
 4061POPC   NC352451  13.578  39.279   5.564
 4061POPC   PO452452  13.676  39.207   5.864
 4061POPC   GL152453  13.620  39.278   6.164
 4061POPC   GL252454  13.646  39.063   6.164
 4061POPC   C1A52455  13.624  39.213   6.464
 4061POPC   D2A52456  13.620  39.231   6.764
 4061POPC   C3A52457  13.596  39.220   7.064
 4061POPC   C4A52458  13.607  39.276   7.364
 4061POPC   C1B52459  13.595  38.946   6.464
 4061POPC   C2B52460  13.600  39.003   6.764
 4061POPC   C3B52461  13.538  38.974   7.064
 4061POPC   C4B52462  13.609  39.034   7.364
 4062POPC   NC352463  22.138   8.195   5.564
 4062POPC   PO452464  22.127   8.189   5.864
 4062POPC   GL152465  22.151   8.245   6.164
 4062POPC   GL252466  22.096   8.281   6.164
 4062POPC   C1A52467  22.185   8.153   6.464
 4062POPC   D2A52468  22.145   8.223   6.764
 4062POPC   C3A52469  22.170   8.176   7.064
 4062POPC   C4A52470  22.125   8.168   7.364
 4062POPC   C1B52471  21.974   8.313   6.464
 4062POPC   C2B52472  21.920   8.347   6.764
 4062POPC   C3B52473  21.964   8.342   7.064
 4062POPC   C4B52474  21.934   8.328   7.364
 4063POPC   NC352475  23.740   8.182   5.564
 4063POPC   PO452476  23.747   8.213   5.864
 4063POPC   GL152477  23.666   8.226   6.164
 4063POPC   GL252478  23.686   8.118   6.164
 4063POPC   C1A52479  23.741   8.215   6.464
 4063POPC   D2A52480  23.715   8.241   6.764
 4063POPC   C3A52481  23.731   8.192   7.064
 4063POPC   C4A52482  23.695   8.196   7.364
 4063POPC   C1B52483  23.596   7.979   6.464
 4063POPC   C2B52484  23.570   8.010   6.764
 4063POPC   C3B52485  23.580   8.032   7.064
 4063POPC   C4B52486  23.561   8.037   7.364
 4064POPC   NC352487  39.263  15.984   5.564
 4064POPC   PO452488  39.268  15.914   5.864
 4064POPC   GL152489  39.185  15.982   6.164
 4064POPC   GL252490  39.091  16.022   6.164
 4064POPC   C1A52491  39.278  15.973   6.464
 4064POPC   D2A52492  39.274  15.971   6.764
 4064POPC   C3A52493  39.190  15.925   7.064
 4064POPC   C4A52494  39.264  15.977   7.364
 4064POPC   C1B52495  39.032  16.011   6.464
 4064POPC   C2B52496  38.996  16.024   6.764
 4064POPC   C3B52497  39.019  15.987   7.064
 4064POPC   C4B52498  38.942  16.016   7.364
 4065POPC   NC352499  27.589  24.474   5.564
 4065POPC   PO452500  27.593  24.506   5.864
 4065POPC   GL152501  27.549  24.469   6.164
 4065POPC   GL252502  27.546  24.595   6.164
 4065POPC   C1A52503  27.550  24.529   6.464
 4065POPC   D2A52504  27.580  24.469   6.764
 4065POPC   C3A52505  27.623  24.446   7.064
 4065POPC   C4A52506  27.578  24.443   7.364
 4065POPC   C1B52507  27.535  24.764   6.464
 4065POPC   C2B52508  27.556  24.766   6.764
 4065POPC   C3B52509  27.625  24.740   7.064
 4065POPC   C4B52510  27.569  24.736   7.364
 4066POPC   NC352511  41.545  37.716   5.564
 4066POPC   PO452512  41.520  37.691   5.864
 4066POPC   GL152513  41.603  37.706   6.164
 4066POPC   GL252514  41.649  37.773   6.164
 4066POPC   C1A52515  41.543  37.720   6.464
 4066POPC   D2A52516  41.530  37.724   6.764
 4066POPC   C3A52517  41.535  37.697   7.064
 4066POPC   C4A52518  41.575  37.667   7.364
 4066POPC   C1B52519  41.765  37.878   6.464
 4066POPC   C2B52520  41.737  37.886   6.764
 4066POPC   C3B52521  41.736  37.905   7.064
 4066POPC   C4B52522  41.720  37.868   7.364
 4067POPC   NC352523  22.200   1.260   5.564
 4067POPC   PO452524  22.207   1.201   5.864
 4067POPC   GL152525  22.134   1.247   6.164
 4067POPC   GL252526  22.039   1.149   6.164
 4067POPC   C1A52527  22.135   1.226   6.464
 4067POPC   D2A52528  22.161   1.224   6.764
 4067POPC   C3A52529  22.210   1.167   7.064
 4067POPC   C4A52530  22.179   1.223   7.364
 4067POPC   C1B52531  21.914   1.034   6.464
 4067POPC   C2B52532  21.973   1.043   6.764
 4067POPC   C3B52533  21.982   1.093   7.064
 4067POPC   C4B52534  21.929   1.034   7.364
 4068POPC   NC352535  29.901   2.765   5.564
 4068POPC   PO452536  29.950   2.733   5.864
 4068POPC   GL152537  29.892   2.814   6.164
 4068POPC   GL252538  29.881   2.907   6.164
 4068POPC   C1A52539  29.907   2.750   6.464
 4068POPC   D2A52540  29.955   2.768   6.764
 4068POPC   C3A52541  29.872   2.782   7.064
 4068POPC   C4A52542  29.927   2.717   7.364
 4068POPC   C1B52543  29.775   2.982   6.464
 4068POPC   C2B52544  29.740   2.992   6.764
 4068POPC   C3B52545  29.738   2.983   7.064
 4068POPC   C4B52546  29.726   2.935   7.364
 4069POPC   NC352547  43.133  14.391   5.564
 4069POPC   PO452548  43.097  14.404   5.864
 4069POPC   GL152549  43.094  14.403   6.164
 4069POPC   GL252550  43.185  14.499   6.164
 4069POPC   C1A52551  43.116  14.396   6.464
 4069POPC   D2A52552  43.140  14.358   6.764
 4069POPC   C3A52553  43.111  14.386   7.064
 4069POPC   C4A52554  43.142  14.437   7.364
 4069POPC   C1B52555  43.245  14.624   6.464
 4069POPC   C2B52556  43.266  14.587   6.764
 4069POPC   C3B52557  43.259  14.627   7.064
 4069POPC   C4B52558  43.335  14.552   7.364
 4070POPC   NC352559   4.364  14.427   5.564
 4070POPC   PO452560   4.294  14.370   5.864
 4070POPC   GL152561   4.276  14.373   6.164
 4070POPC   GL252562   4.376  14.386   6.164
 4070POPC   C1A52563   4.296  14.378   6.464
 4070POPC   D2A52564   4.344  14.399   6.764
 4070POPC   C3A52565   4.321  14.412   7.064
 4070POPC   C4A52566   4.364  14.400   7.364
 4070POPC   C1B52567   4.536  14.318   6.464
 4070POPC   C2B52568   4.498  14.241   6.764
 4070POPC   C3B52569   4.513  14.273   7.064
 4070POPC   C4B52570   4.506  14.311   7.364
 4071POPC   NC352571  21.355  40.020   5.564
 4071POPC   PO452572  21.383  39.984   5.864
 4071POPC   GL152573  21.424  40.020   6.164
 4071POPC   GL252574  21.291  40.021   6.164
 4071POPC   C1A52575  21.406  40.001   6.464
 4071POPC   D2A52576  21.391  39.985   6.764
 4071POPC   C3A52577  21.406  40.036   7.064
 4071POPC   C4A52578  21.366  39.967   7.364
 4071POPC   C1B52579  21.111  40.019   6.464
 4071POPC   C2B52580  21.139  39.960   6.764
 4071POPC   C3B52581  21.181  39.970   7.064
 4071POPC   C4B52582  21.119  39.946   7.364
 4072POPC   NC352583   4.314  39.248   5.564
 4072POPC   PO452584   4.343  39.277   5.864
 4072POPC   GL152585   4.269  39.249   6.164
 4072POPC   GL252586   4.463  39.287   6.164
 4072POPC   C1A52587   4.352  39.225   6.464
 4072POPC   D2A52588   4.278  39.217   6.764
 4072POPC   C3A52589   4.284  39.188   7.064
 4072POPC   C4A52590   4.313  39.217   7.364
 4072POPC   C1B52591   4.551  39.426   6.464
 4072POPC   C2B52592   4.467  39.401   6.764
 4072POPC   C3B52593   4.508  39.359   7.064
 4072POPC   C4B52594   4.487  39.404   7.364
 4073POPC   NC352595  33.010  11.317   5.564
 4073POPC   PO452596  33.028  11.341   5.864
 4073POPC   GL152597  32.983  11.316   6.164
 4073POPC   GL252598  32.907  11.219   6.164
 4073POPC   C1A52599  33.022  11.339   6.464
 4073POPC   D2A52600  33.063  11.266   6.764
 4073POPC   C3A52601  33.029  11.340   7.064
 4073POPC   C4A52602  33.011  11.342   7.364
 4073POPC   C1B52603  32.801  11.224   6.464
 4073POPC   C2B52604  32.837  11.231   6.764
 4073POPC   C3B52605  32.775  11.226   7.064
 4073POPC   C4B52606  32.811  11.225   7.364
 4074POPC   NC352607  26.060   2.733   5.564
 4074POPC   PO452608  26.030   2.812   5.864
 4074POPC   GL152609  26.055   2.793   6.164
 4074POPC   GL252610  26.169   2.707   6.164
 4074POPC   C1A52611  26.029   2.786   6.464
 4074POPC   D2A52612  26.069   2.811   6.764
 4074POPC   C3A52613  26.023   2.742   7.064
 4074POPC   C4A52614  26.026   2.799   7.364
 4074POPC   C1B52615  26.316   2.701   6.464
 4074POPC   C2B52616  26.316   2.721   6.764
 4074POPC   C3B52617  26.253   2.742   7.064
 4074POPC   C4B52618  26.272   2.694   7.364
 4075POPC   NC352619  15.963  25.258   5.564
 4075POPC   PO452620  15.913  25.252   5.864
 4075POPC   GL152621  15.985  25.284   6.164
 4075POPC   GL252622  16.029  25.207   6.164
 4075POPC   C1A52623  15.998  25.307   6.464
 4075POPC   D2A52624  15.954  25.246   6.764
 4075POPC   C3A52625  15.968  25.296   7.064
 4075POPC   C4A52626  15.922  25.227   7.364
 4075POPC   C1B52627  16.156  25.056   6.464
 4075POPC   C2B52628  16.096  25.118   6.764
 4075POPC   C3B52629  16.126  25.114   7.064
 4075POPC   C4B52630  16.076  25.090   7.364
 4076POPC   NC352631  13.587   5.058   5.564
 4076POPC   PO452632  13.636   5.111   5.864
 4076POPC   GL152633  13.675   5.128   6.164
 4076POPC   GL252634  13.657   5.185   6.164
 4076POPC   C1A52635  13.610   5.140   6.464
 4076POPC   D2A52636  13.638   5.112   6.764
 4076POPC   C3A52637  13.583   5.139   7.064
 4076POPC   C4A52638  13.665   5.055   7.364
 4076POPC   C1B52639  13.817   5.255   6.464
 4076POPC   C2B52640  13.830   5.263   6.764
 4076POPC   C3B52641  13.804   5.291   7.064
 4076POPC   C4B52642  13.823   5.241   7.364
 4077POPC   NC352643  24.491  40.797   5.564
 4077POPC   PO452644  24.527  40.813   5.864
 4077POPC   GL152645  24.442  40.830   6.164
 4077POPC   GL252646  24.469  40.644   6.164
 4077POPC   C1A52647  24.528  40.807   6.464
 4077POPC   D2A52648  24.495  40.748   6.764
 4077POPC   C3A52649  24.455  40.818   7.064
 4077POPC   C4A52650  24.488  40.806   7.364
 4077POPC   C1B52651  24.567  40.579   6.464
 4077POPC   C2B52652  24.542  40.515   6.764
 4077POPC   C3B52653  24.539  40.495   7.064
 4077POPC   C4B52654  24.550  40.490   7.364
 4078POPC   NC352655   5.048   5.838   5.564
 4078POPC   PO452656   5.143   5.887   5.864
 4078POPC   GL152657   5.136   5.914   6.164
 4078POPC   GL252658   5.238   5.896   6.164
 4078POPC   C1A52659   5.106   5.908   6.464
 4078POPC   D2A52660   5.143   5.865   6.764
 4078POPC   C3A52661   5.047   5.867   7.064
 4078POPC   C4A52662   5.103   5.866   7.364
 4078POPC   C1B52663   5.312   5.875   6.464
 4078POPC   C2B52664   5.316   5.937   6.764
 4078POPC   C3B52665   5.320   5.884   7.064
 4078POPC   C4B52666   5.337   5.925   7.364
 4079POPC   NC352667  12.077  41.529   5.564
 4079POPC   PO452668  12.060  41.518   5.864
 4079POPC   GL152669  12.049  41.532   6.164
 4079POPC   GL252670  12.084  41.640   6.164
 4079POPC   C1A52671  12.064  41.598   6.464
 4079POPC   D2A52672  12.093  41.537   6.764
 4079POPC   C3A52673  12.075  41.572   7.064
 4079POPC   C4A52674  12.089  41.577   7.364
 4079POPC   C1B52675  12.048  41.763   6.464
 4079POPC   C2B52676  12.085  41.856   6.764
 4079POPC   C3B52677  12.090  41.809   7.064
 4079POPC   C4B52678  12.128  41.767   7.364
 4080POPC   NC352679  13.657   9.022   5.564
 4080POPC   PO452680  13.652   8.950   5.864
 4080POPC   GL152681  13.671   8.940   6.164
 4080POPC   GL252682  13.651   9.111   6.164
 4080POPC   C1A52683  13.599   8.959   6.464
 4080POPC   D2A52684  13.637   8.945   6.764
 4080POPC   C3A52685  13.660   9.022   7.064
 4080POPC   C4A52686  13.652   8.939   7.364
 4080POPC   C1B52687  13.656   9.245   6.464
 4080POPC   C2B52688  13.612   9.199   6.764
 4080POPC   C3B52689  13.560   9.204   7.064
 4080POPC   C4B52690  13.654   9.230   7.364
 4081POPC   NC352691  43.139   5.047   5.564
 4081POPC   PO452692  43.156   5.066   5.864
 4081POPC   GL152693  43.152   5.127   6.164
 4081POPC   GL252694  43.040   4.993   6.164
 4081POPC   C1A52695  43.130   5.052   6.464
 4081POPC   D2A52696  43.145   5.093   6.764
 4081POPC   C3A52697  43.155   5.110   7.064
 4081POPC   C4A52698  43.128   5.048   7.364
 4081POPC   C1B52699  43.073   4.807   6.464
 4081POPC   C2B52700  43.022   4.853   6.764
 4081POPC   C3B52701  43.086   4.837   7.064
 4081POPC   C4B52702  43.010   4.813   7.364
 4082POPC   NC352703  40.787   2.795   5.564
 4082POPC   PO452704  40.807   2.716   5.864
 4082POPC   GL152705  40.797   2.740   6.164
 4082POPC   GL252706  40.843   2.609   6.164
 4082POPC   C1A52707  40.792   2.800   6.464
 4082POPC   D2A52708  40.788   2.764   6.764
 4082POPC   C3A52709  40.824   2.754   7.064
 4082POPC   C4A52710  40.774   2.783   7.364
 4082POPC   C1B52711  40.859   2.521   6.464
 4082POPC   C2B52712  40.847   2.567   6.764
 4082POPC   C3B52713  40.891   2.581   7.064
 4082POPC   C4B52714  40.884   2.568   7.364
 4083POPC   NC352715  37.700  15.180   5.564
 4083POPC   PO452716  37.686  15.140   5.864
 4083POPC   GL152717  37.695  15.158   6.164
 4083POPC   GL252718  37.700  15.081   6.164
 4083POPC   C1A52719  37.649  15.190   6.464
 4083POPC   D2A52720  37.723  15.213   6.764
 4083POPC   C3A52721  37.678  15.160   7.064
 4083POPC   C4A52722  37.632  15.222   7.364
 4083POPC   C1B52723  37.639  14.955   6.464
 4083POPC   C2B52724  37.664  14.978   6.764
 4083POPC   C3B52725  37.669  14.929   7.064
 4083POPC   C4B52726  37.666  14.885   7.364
 4084POPC   NC352727  43.888  13.590   5.564
 4084POPC   PO452728  43.869  13.602   5.864
 4084POPC   GL152729  43.928  13.605   6.164
 4084POPC   GL252730  44.036  13.661   6.164
 4084POPC   C1A52731  43.904  13.656   6.464
 4084POPC   D2A52732  43.930  13.598   6.764
 4084POPC   C3A52733  43.887  13.670   7.064
 4084POPC   C4A52734  43.904  13.589   7.364
 4084POPC   C1B52735  44.164  13.654   6.464
 4084POPC   C2B52736  44.118  13.644   6.764
 4084POPC   C3B52737  44.161  13.703   7.064
 4084POPC   C4B52738  44.139  13.665   7.364
 4085POPC   NC352739  37.709  39.205   5.564
 4085POPC   PO452740  37.657  39.228   5.864
 4085POPC   GL152741  37.677  39.187   6.164
 4085POPC   GL252742  37.552  39.284   6.164
 4085POPC   C1A52743  37.648  39.216   6.464
 4085POPC   D2A52744  37.708  39.263   6.764
 4085POPC   C3A52745  37.680  39.215   7.064
 4085POPC   C4A52746  37.644  39.265   7.364
 4085POPC   C1B52747  37.507  39.345   6.464
 4085POPC   C2B52748  37.454  39.357   6.764
 4085POPC   C3B52749  37.453  39.436   7.064
 4085POPC   C4B52750  37.478  39.362   7.364
 4086POPC   NC352751  33.751  29.957   5.564
 4086POPC   PO452752  33.751  29.929   5.864
 4086POPC   GL152753  33.819  29.882   6.164
 4086POPC   GL252754  33.834  29.772   6.164
 4086POPC   C1A52755  33.800  29.891   6.464
 4086POPC   D2A52756  33.773  29.968   6.764
 4086POPC   C3A52757  33.820  29.923   7.064
 4086POPC   C4A52758  33.842  29.885   7.364
 4086POPC   C1B52759  33.813  29.658   6.464
 4086POPC   C2B52760  33.856  29.655   6.764
 4086POPC   C3B52761  33.851  29.661   7.064
 4086POPC   C4B52762  33.813  29.726   7.364
 4087POPC   NC352763   1.983  44.670   5.564
 4087POPC   PO452764   1.944  44.616   5.864
 4087POPC   GL152765   1.975  44.695   6.164
 4087POPC   GL252766   2.068  44.524   6.164
 4087POPC   C1A52767   1.986  44.620   6.464
 4087POPC   D2A52768   2.013  44.635   6.764
 4087POPC   C3A52769   2.021  44.676   7.064
 4087POPC   C4A52770   1.984  44.651   7.364
 4087POPC   C1B52771   2.058  44.430   6.464
 4087POPC   C2B52772   2.024  44.443   6.764
 4087POPC   C3B52773   2.080  44.405   7.064
 4087POPC   C4B52774   2.060  44.398   7.364
 4088POPC   NC352775  14.395  18.266   5.564
 4088POPC   PO452776  14.359  18.328   5.864
 4088POPC   GL152777  14.438  18.325   6.164
 4088POPC   GL252778  14.415  18.404   6.164
 4088POPC   C1A52779  14.450  18.251   6.464
 4088POPC   D2A52780  14.420  18.297   6.764
 4088POPC   C3A52781  14.435  18.320   7.064
 4088POPC   C4A52782  14.379  18.308   7.364
 4088POPC   C1B52783  14.462  18.525   6.464
 4088POPC   C2B52784  14.368  18.580   6.764
 4088POPC   C3B52785  14.417  18.502   7.064
 4088POPC   C4B52786  14.367  18.575   7.364
 4089POPC   NC352787  20.637  29.177   5.564
 4089POPC   PO452788  20.561  29.168   5.864
 4089POPC   GL152789  20.569  29.154   6.164
 4089POPC   GL252790  20.487  29.111   6.164
 4089POPC   C1A52791  20.648  29.101   6.464
 4089POPC   D2A52792  20.584  29.173   6.764
 4089POPC   C3A52793  20.612  29.175   7.064
 4089POPC   C4A52794  20.596  29.180   7.364
 4089POPC   C1B52795  20.397  29.016   6.464
 4089POPC   C2B52796  20.342  29.070   6.764
 4089POPC   C3B52797  20.344  29.039   7.064
 4089POPC   C4B52798  20.395  29.048   7.364
 4090POPC   NC352799  10.511   8.156   5.564
 4090POPC   PO452800  10.569   8.213   5.864
 4090POPC   GL152801  10.513   8.215   6.164
 4090POPC   GL252802  10.589   8.272   6.164
 4090POPC   C1A52803  10.516   8.207   6.464
 4090POPC   D2A52804  10.551   8.214   6.764
 4090POPC   C3A52805  10.493   8.213   7.064
 4090POPC   C4A52806  10.541   8.160   7.364
 4090POPC   C1B52807  10.708   8.307   6.464
 4090POPC   C2B52808  10.724   8.256   6.764
 4090POPC   C3B52809  10.760   8.259   7.064
 4090POPC   C4B52810  10.737   8.320   7.364
 4091POPC   NC352811   0.423  41.558   5.564
 4091POPC   PO452812   0.468  41.563   5.864
 4091POPC   GL152813   0.396  41.534   6.164
 4091POPC   GL252814   0.375  41.655   6.164
 4091POPC   C1A52815   0.433  41.593   6.464
 4091POPC   D2A52816   0.426  41.556   6.764
 4091POPC   C3A52817   0.468  41.509   7.064
 4091POPC   C4A52818   0.448  41.510   7.364
 4091POPC   C1B52819   0.349  41.791   6.464
 4091POPC   C2B52820   0.330  41.847   6.764
 4091POPC   C3B52821   0.327  41.791   7.064
 4091POPC   C4B52822   0.318  41.814   7.364
 4092POPC   NC352823  36.130  15.144   5.564
 4092POPC   PO452824  36.115  15.215   5.864
 4092POPC   GL152825  36.146  15.211   6.164
 4092POPC   GL252826  36.001  15.253   6.164
 4092POPC   C1A52827  36.158  15.164   6.464
 4092POPC   D2A52828  36.132  15.139   6.764
 4092POPC   C3A52829  36.113  15.148   7.064
 4092POPC   C4A52830  36.129  15.190   7.364
 4092POPC   C1B52831  35.960  15.381   6.464
 4092POPC   C2B52832  36.010  15.365   6.764
 4092POPC   C3B52833  35.979  15.375   7.064
 4092POPC   C4B52834  35.964  15.338   7.364
 4093POPC   NC352835  34.531  14.402   5.564
 4093POPC   PO452836  34.529  14.412   5.864
 4093POPC   GL152837  34.623  14.358   6.164
 4093POPC   GL252838  34.511  14.243   6.164
 4093POPC   C1A52839  34.563  14.443   6.464
 4093POPC   D2A52840  34.608  14.375   6.764
 4093POPC   C3A52841  34.596  14.387   7.064
 4093POPC   C4A52842  34.623  14.390   7.364
 4093POPC   C1B52843  34.589  14.144   6.464
 4093POPC   C2B52844  34.523  14.142   6.764
 4093POPC   C3B52845  34.552  14.191   7.064
 4093POPC   C4B52846  34.550  14.113   7.364
 4094POPC   NC352847  10.531  10.516   5.564
 4094POPC   PO452848  10.486  10.519   5.864
 4094POPC   GL152849  10.555  10.538   6.164
 4094POPC   GL252850  10.457  10.482   6.164
 4094POPC   C1A52851  10.520  10.539   6.464
 4094POPC   D2A52852  10.526  10.557   6.764
 4094POPC   C3A52853  10.494  10.515   7.064
 4094POPC   C4A52854  10.529  10.572   7.364
 4094POPC   C1B52855  10.323  10.331   6.464
 4094POPC   C2B52856  10.326  10.379   6.764
 4094POPC   C3B52857  10.333  10.349   7.064
 4094POPC   C4B52858  10.350  10.330   7.364
 4095POPC   NC352859   8.926  12.883   5.564
 4095POPC   PO452860   8.969  12.860   5.864
 4095POPC   GL152861   8.963  12.872   6.164
 4095POPC   GL252862   8.911  12.756   6.164
 4095POPC   C1A52863   8.945  12.895   6.464
 4095POPC   D2A52864   8.932  12.825   6.764
 4095POPC   C3A52865   9.012  12.833   7.064
 4095POPC   C4A52866   8.934  12.875   7.364
 4095POPC   C1B52867   8.861  12.639   6.464
 4095POPC   C2B52868   8.934  12.575   6.764
 4095POPC   C3B52869   8.928  12.614   7.064
 4095POPC   C4B52870   8.936  12.571   7.364
 4096POPC   NC352871  36.176  27.566   5.564
 4096POPC   PO452872  36.156  27.628   5.864
 4096POPC   GL152873  36.150  27.613   6.164
 4096POPC   GL252874  36.238  27.570   6.164
 4096POPC   C1A52875  36.154  27.592   6.464
 4096POPC   D2A52876  36.084  27.574   6.764
 4096POPC   C3A52877  36.097  27.569   7.064
 4096POPC   C4A52878  36.091  27.573   7.364
 4096POPC   C1B52879  36.413  27.540   6.464
 4096POPC   C2B52880  36.383  27.541   6.764
 4096POPC   C3B52881  36.316  27.540   7.064
 4096POPC   C4B52882  36.330  27.503   7.364
 4097POPC   NC352883  25.221   1.249   5.564
 4097POPC   PO452884  25.292   1.252   5.864
 4097POPC   GL152885  25.254   1.218   6.164
 4097POPC   GL252886  25.125   1.148   6.164
 4097POPC   C1A52887  25.233   1.232   6.464
 4097POPC   D2A52888  25.228   1.230   6.764
 4097POPC   C3A52889  25.303   1.214   7.064
 4097POPC   C4A52890  25.222   1.222   7.364
 4097POPC   C1B52891  25.048   1.117   6.464
 4097POPC   C2B52892  25.017   1.105   6.764
 4097POPC   C3B52893  25.042   1.106   7.064
 4097POPC   C4B52894  25.064   1.038   7.364
 4098POPC   NC352895   8.999  18.286   5.564
 4098POPC   PO452896   9.012  18.304   5.864
 4098POPC   GL152897   8.933  18.239   6.164
 4098POPC   GL252898   9.034  18.352   6.164
 4098POPC   C1A52899   9.007  18.311   6.464
 4098POPC   D2A52900   8.955  18.239   6.764
 4098POPC   C3A52901   8.988  18.317   7.064
 4098POPC   C4A52902   9.002  18.276   7.364
 4098POPC   C1B52903   9.163  18.437   6.464
 4098POPC   C2B52904   9.198  18.463   6.764
 4098POPC   C3B52905   9.204  18.437   7.064
 4098POPC   C4B52906   9.158  18.380   7.364
 4099POPC   NC352907  10.500  40.745   5.564
 4099POPC   PO452908  10.482  40.736   5.864
 4099POPC   GL152909  10.521  40.765   6.164
 4099POPC   GL252910  10.426  40.818   6.164
 4099POPC   C1A52911  10.539  40.820   6.464
 4099POPC   D2A52912  10.512  40.782   6.764
 4099POPC   C3A52913  10.523  40.773   7.064
 4099POPC   C4A52914  10.500  40.734   7.364
 4099POPC   C1B52915  10.320  40.838   6.464
 4099POPC   C2B52916  10.253  40.842   6.764
 4099POPC   C3B52917  10.264  40.837   7.064
 4099POPC   C4B52918  10.287  40.797   7.364
 4100POPC   NC352919  11.296  13.640   5.564
 4100POPC   PO452920  11.331  13.621   5.864
 4100POPC   GL152921  11.298  13.582   6.164
 4100POPC   GL252922  11.240  13.466   6.164
 4100POPC   C1A52923  11.297  13.647   6.464
 4100POPC   D2A52924  11.337  13.614   6.764
 4100POPC   C3A52925  11.291  13.594   7.064
 4100POPC   C4A52926  11.258  13.639   7.364
 4100POPC   C1B52927  11.202  13.384   6.464
 4100POPC   C2B52928  11.215  13.370   6.764
 4100POPC   C3B52929  11.200  13.384   7.064
 4100POPC   C4B52930  11.271  13.400   7.364
 4101POPC   NC352931   7.443  24.459   5.564
 4101POPC   PO452932   7.393  24.451   5.864
 4101POPC   GL152933   7.435  24.490   6.164
 4101POPC   GL252934   7.462  24.318   6.164
 4101POPC   C1A52935   7.411  24.471   6.464
 4101POPC   D2A52936   7.415  24.446   6.764
 4101POPC   C3A52937   7.420  24.460   7.064
 4101POPC   C4A52938   7.449  24.469   7.364
 4101POPC   C1B52939   7.469  24.229   6.464
 4101POPC   C2B52940   7.467  24.228   6.764
 4101POPC   C3B52941   7.433  24.218   7.064
 4101POPC   C4B52942   7.374  24.277   7.364
 4102POPC   NC352943   8.179  26.847   5.564
 4102POPC   PO452944   8.223  26.839   5.864
 4102POPC   GL152945   8.168  26.864   6.164
 4102POPC   GL252946   8.052  26.895   6.164
 4102POPC   C1A52947   8.176  26.825   6.464
 4102POPC   D2A52948   8.198  26.863   6.764
 4102POPC   C3A52949   8.238  26.792   7.064
 4102POPC   C4A52950   8.216  26.812   7.364
 4102POPC   C1B52951   8.004  26.929   6.464
 4102POPC   C2B52952   7.932  26.920   6.764
 4102POPC   C3B52953   7.917  26.890   7.064
 4102POPC   C4B52954   7.972  26.905   7.364
 4103POPC   NC352955  23.708  21.354   5.564
 4103POPC   PO452956  23.694  21.432   5.864
 4103POPC   GL152957  23.679  21.340   6.164
 4103POPC   GL252958  23.764  21.258   6.164
 4103POPC   C1A52959  23.714  21.378   6.464
 4103POPC   D2A52960  23.720  21.425   6.764
 4103POPC   C3A52961  23.750  21.349   7.064
 4103POPC   C4A52962  23.697  21.354   7.364
 4103POPC   C1B52963  23.870  21.144   6.464
 4103POPC   C2B52964  23.820  21.176   6.764
 4103POPC   C3B52965  23.843  21.144   7.064
 4103POPC   C4B52966  23.828  21.194   7.364
 4104POPC   NC352967  15.978  15.947   5.564
 4104POPC   PO452968  15.911  15.960   5.864
 4104POPC   GL152969  16.000  15.907   6.164
 4104POPC   GL252970  15.896  15.879   6.164
 4104POPC   C1A52971  15.918  15.950   6.464
 4104POPC   D2A52972  15.958  15.930   6.764
 4104POPC   C3A52973  15.990  15.977   7.064
 4104POPC   C4A52974  15.976  15.979   7.364
 4104POPC   C1B52975  15.849  15.724   6.464
 4104POPC   C2B52976  15.888  15.740   6.764
 4104POPC   C3B52977  15.916  15.674   7.064
 4104POPC   C4B52978  15.910  15.764   7.364
 4105POPC   NC352979  17.521  42.305   5.564
 4105POPC   PO452980  17.468  42.384   5.864
 4105POPC   GL152981  17.516  42.318   6.164
 4105POPC   GL252982  17.485  42.464   6.164
 4105POPC   C1A52983  17.529  42.336   6.464
 4105POPC   D2A52984  17.499  42.331   6.764
 4105POPC   C3A52985  17.527  42.333   7.064
 4105POPC   C4A52986  17.542  42.327   7.364
 4105POPC   C1B52987  17.483  42.567   6.464
 4105POPC   C2B52988  17.470  42.572   6.764
 4105POPC   C3B52989  17.465  42.578   7.064
 4105POPC   C4B52990  17.430  42.624   7.364
 4106POPC   NC352991   4.351  36.117   5.564
 4106POPC   PO452992   4.353  36.137   5.864
 4106POPC   GL152993   4.336  36.154   6.164
 4106POPC   GL252994   4.319  36.239   6.164
 4106POPC   C1A52995   4.318  36.158   6.464
 4106POPC   D2A52996   4.318  36.146   6.764
 4106POPC   C3A52997   4.341  36.154   7.064
 4106POPC   C4A52998   4.298  36.178   7.364
 4106POPC   C1B52999   4.365  36.328   6.464
 4106POPC   C2B53000   4.387  36.408   6.764
 4106POPC   C3B53001   4.405  36.382   7.064
 4106POPC   C4B53002   4.380  36.398   7.364
 4107POPC   NC353003  35.331  14.453   5.564
 4107POPC   PO453004  35.351  14.398   5.864
 4107POPC   GL153005  35.305  14.393   6.164
 4107POPC   GL253006  35.236  14.472   6.164
 4107POPC   C1A53007  35.372  14.449   6.464
 4107POPC   D2A53008  35.398  14.434   6.764
 4107POPC   C3A53009  35.374  14.442   7.064
 4107POPC   C4A53010  35.361  14.405   7.364
 4107POPC   C1B53011  35.087  14.430   6.464
 4107POPC   C2B53012  35.074  14.472   6.764
 4107POPC   C3B53013  35.107  14.450   7.064
 4107POPC   C4B53014  35.100  14.438   7.364
 4108POPC   NC353015  29.128  33.762   5.564
 4108POPC   PO453016  29.162  33.821   5.864
 4108POPC   GL153017  29.138  33.751   6.164
 4108POPC   GL253018  29.246  33.874   6.164
 4108POPC   C1A53019  29.163  33.805   6.464
 4108POPC   D2A53020  29.098  33.818   6.764
 4108POPC   C3A53021  29.183  33.769   7.064
 4108POPC   C4A53022  29.113  33.819   7.364
 4108POPC   C1B53023  29.328  33.925   6.464
 4108POPC   C2B53024  29.366  33.959   6.764
 4108POPC   C3B53025  29.336  33.957   7.064
 4108POPC   C4B53026  29.395  33.934   7.364
 4109POPC   NC353027  22.900   4.315   5.564
 4109POPC   PO453028  22.983   4.348   5.864
 4109POPC   GL153029  22.908   4.343   6.164
 4109POPC   GL253030  23.075   4.226   6.164
 4109POPC   C1A53031  22.895   4.353   6.464
 4109POPC   D2A53032  22.911   4.328   6.764
 4109POPC   C3A53033  22.951   4.287   7.064
 4109POPC   C4A53034  22.981   4.296   7.364
 4109POPC   C1B53035  23.151   4.124   6.464
 4109POPC   C2B53036  23.117   4.181   6.764
 4109POPC   C3B53037  23.087   4.134   7.064
 4109POPC   C4B53038  23.135   4.184   7.364
 4110POPC   NC353039  40.034  26.795   5.564
 4110POPC   PO453040  40.029  26.841   5.864
 4110POPC   GL153041  39.999  26.830   6.164
 4110POPC   GL253042  39.955  26.860   6.164
 4110POPC   C1A53043  39.959  26.855   6.464
 4110POPC   D2A53044  40.044  26.794   6.764
 4110POPC   C3A53045  40.012  26.809   7.064
 4110POPC   C4A53046  39.983  26.804   7.364
 4110POPC   C1B53047  39.794  26.972   6.464
 4110POPC   C2B53048  39.792  26.952   6.764
 4110POPC   C3B53049  39.774  26.997   7.064
 4110POPC   C4B53050  39.768  26.999   7.364
 4111POPC   NC353051  22.923  19.083   5.564
 4111POPC   PO453052  22.967  19.103   5.864
 4111POPC   GL153053  22.984  19.012   6.164
 4111POPC   GL253054  22.846  19.083   6.164
 4111POPC   C1A53055  22.983  19.103   6.464
 4111POPC   D2A53056  22.976  19.041   6.764
 4111POPC   C3A53057  22.943  19.108   7.064
 4111POPC   C4A53058  22.938  19.013   7.364
 4111POPC   C1B53059  22.749  19.205   6.464
 4111POPC   C2B53060  22.736  19.126   6.764
 4111POPC   C3B53061  22.670  19.172   7.064
 4111POPC   C4B53062  22.759  19.131   7.364
 4112POPC   NC353063  44.631  11.340   5.564
 4112POPC   PO453064  44.660  11.300   5.864
 4112POPC   GL153065  44.693  11.278   6.164
 4112POPC   GL253066  44.713  11.215   6.164
 4112POPC   C1A53067  44.618  11.322   6.464
 4112POPC   D2A53068  44.669  11.288   6.764
 4112POPC   C3A53069  44.618  11.330   7.064
 4112POPC   C4A53070  44.615  11.285   7.364
 4112POPC   C1B53071  44.820  11.111   6.464
 4112POPC   C2B53072  44.770  11.090   6.764
 4112POPC   C3B53073  44.823  11.119   7.064
 4112POPC   C4B53074  44.820  11.079   7.364
 4113POPC   NC353075  38.471  28.387   5.564
 4113POPC   PO453076  38.445  28.370   5.864
 4113POPC   GL153077  38.485  28.379   6.164
 4113POPC   GL253078  38.435  28.452   6.164
 4113POPC   C1A53079  38.468  28.326   6.464
 4113POPC   D2A53080  38.462  28.326   6.764
 4113POPC   C3A53081  38.409  28.371   7.064
 4113POPC   C4A53082  38.501  28.357   7.364
 4113POPC   C1B53083  38.378  28.622   6.464
 4113POPC   C2B53084  38.305  28.554   6.764
 4113POPC   C3B53085  38.304  28.599   7.064
 4113POPC   C4B53086  38.308  28.553   7.364
 4114POPC   NC353087  22.933  22.903   5.564
 4114POPC   PO453088  22.964  22.924   5.864
 4114POPC   GL153089  22.937  22.982   6.164
 4114POPC   GL253090  22.836  22.889   6.164
 4114POPC   C1A53091  22.949  22.942   6.464
 4114POPC   D2A53092  22.904  22.945   6.764
 4114POPC   C3A53093  22.916  22.914   7.064
 4114POPC   C4A53094  22.908  22.906   7.364
 4114POPC   C1B53095  22.718  22.868   6.464
 4114POPC   C2B53096  22.661  22.837   6.764
 4114POPC   C3B53097  22.718  22.858   7.064
 4114POPC   C4B53098  22.662  22.821   7.364
 4115POPC   NC353099  22.945  11.303   5.564
 4115POPC   PO453100  22.903  11.266   5.864
 4115POPC   GL153101  22.987  11.294   6.164
 4115POPC   GL253102  22.922  11.370   6.164
 4115POPC   C1A53103  22.945  11.300   6.464
 4115POPC   D2A53104  22.967  11.279   6.764
 4115POPC   C3A53105  22.955  11.278   7.064
 4115POPC   C4A53106  22.897  11.273   7.364
 4115POPC   C1B53107  22.829  11.478   6.464
 4115POPC   C2B53108  22.816  11.510   6.764
 4115POPC   C3B53109  22.851  11.539   7.064
 4115POPC   C4B53110  22.794  11.542   7.364
 4116POPC   NC353111   5.838  20.592   5.564
 4116POPC   PO453112   5.867  20.610   5.864
 4116POPC   GL153113   5.855  20.561   6.164
 4116POPC   GL253114   5.901  20.734   6.164
 4116POPC   C1A53115   5.901  20.592   6.464
 4116POPC   D2A53116   5.837  20.571   6.764
 4116POPC   C3A53117   5.881  20.584   7.064
 4116POPC   C4A53118   5.821  20.658   7.364
 4116POPC   C1B53119   5.873  20.830   6.464
 4116POPC   C2B53120   5.892  20.862   6.764
 4116POPC   C3B53121   5.848  20.890   7.064
 4116POPC   C4B53122   5.871  20.874   7.364
 4117POPC   NC353123  37.724  28.343   5.564
 4117POPC   PO453124  37.718  28.340   5.864
 4117POPC   GL153125  37.698  28.388   6.164
 4117POPC   GL253126  37.588  28.326   6.164
 4117POPC   C1A53127  37.672  28.369   6.464
 4117POPC   D2A53128  37.714  28.356   6.764
 4117POPC   C3A53129  37.640  28.350   7.064
 4117POPC   C4A53130  37.695  28.394   7.364
 4117POPC   C1B53131  37.494  28.293   6.464
 4117POPC   C2B53132  37.473  28.232   6.764
 4117POPC   C3B53133  37.422  28.245   7.064
 4117POPC   C4B53134  37.414  28.259   7.364
 4118POPC   NC353135  41.567  29.927   5.564
 4118POPC   PO453136  41.589  29.920   5.864
 4118POPC   GL153137  41.573  29.892   6.164
 4118POPC   GL253138  41.526  30.085   6.164
 4118POPC   C1A53139  41.510  29.909   6.464
 4118POPC   D2A53140  41.568  29.917   6.764
 4118POPC   C3A53141  41.530  29.874   7.064
 4118POPC   C4A53142  41.577  29.954   7.364
 4118POPC   C1B53143  41.473  30.187   6.464
 4118POPC   C2B53144  41.457  30.106   6.764
 4118POPC   C3B53145  41.422  30.175   7.064
 4118POPC   C4B53146  41.458  30.126   7.364
 4119POPC   NC353147  21.362  28.374   5.564
 4119POPC   PO453148  21.396  28.392   5.864
 4119POPC   GL153149  21.425  28.384   6.164
 4119POPC   GL253150  21.388  28.520   6.164
 4119POPC   C1A53151  21.379  28.379   6.464
 4119POPC   D2A53152  21.401  28.335   6.764
 4119POPC   C3A53153  21.361  28.397   7.064
 4119POPC   C4A53154  21.368  28.330   7.364
 4119POPC   C1B53155  21.445  28.601   6.464
 4119POPC   C2B53156  21.444  28.626   6.764
 4119POPC   C3B53157  21.424  28.568   7.064
 4119POPC   C4B53158  21.404  28.586   7.364
 4120POPC   NC353159  42.365  28.416   5.564
 4120POPC   PO453160  42.327  28.338   5.864
 4120POPC   GL153161  42.289  28.405   6.164
 4120POPC   GL253162  42.358  28.291   6.164
 4120POPC   C1A53163  42.331  28.381   6.464
 4120POPC   D2A53164  42.337  28.409   6.764
 4120POPC   C3A53165  42.287  28.414   7.064
 4120POPC   C4A53166  42.348  28.409   7.364
 4120POPC   C1B53167  42.415  28.124   6.464
 4120POPC   C2B53168  42.433  28.160   6.764
 4120POPC   C3B53169  42.446  28.157   7.064
 4120POPC   C4B53170  42.433  28.100   7.364
 4121POPC   NC353171  39.251  36.111   5.564
 4121POPC   PO453172  39.228  36.164   5.864
 4121POPC   GL153173  39.216  36.110   6.164
 4121POPC   GL253174  39.142  36.172   6.164
 4121POPC   C1A53175  39.258  36.111   6.464
 4121POPC   D2A53176  39.196  36.131   6.764
 4121POPC   C3A53177  39.208  36.124   7.064
 4121POPC   C4A53178  39.259  36.144   7.364
 4121POPC   C1B53179  38.955  36.265   6.464
 4121POPC   C2B53180  38.967  36.279   6.764
 4121POPC   C3B53181  39.011  36.260   7.064
 4121POPC   C4B53182  39.014  36.213   7.364
 4122POPC   NC353183   6.614  37.719   5.564
 4122POPC   PO453184   6.621  37.635   5.864
 4122POPC   GL153185   6.664  37.680   6.164
 4122POPC   GL253186   6.580  37.785   6.164
 4122POPC   C1A53187   6.607  37.669   6.464
 4122POPC   D2A53188   6.687  37.668   6.764
 4122POPC   C3A53189   6.601  37.646   7.064
 4122POPC   C4A53190   6.631  37.652   7.364
 4122POPC   C1B53191   6.452  37.753   6.464
 4122POPC   C2B53192   6.395  37.818   6.764
 4122POPC   C3B53193   6.406  37.833   7.064
 4122POPC   C4B53194   6.422  37.788   7.364
 4123POPC   NC353195  22.185  43.902   5.564
 4123POPC   PO453196  22.115  43.842   5.864
 4123POPC   GL153197  22.132  43.894   6.164
 4123POPC   GL253198  22.301  43.919   6.164
 4123POPC   C1A53199  22.191  43.908   6.464
 4123POPC   D2A53200  22.209  43.844   6.764
 4123POPC   C3A53201  22.184  43.917   7.064
 4123POPC   C4A53202  22.167  43.927   7.364
 4123POPC   C1B53203  22.328  44.011   6.464
 4123POPC   C2B53204  22.388  44.070   6.764
 4123POPC   C3B53205  22.390  44.035   7.064
 4123POPC   C4B53206  22.388  44.070   7.364
 4124POPC   NC353207  21.355   5.062   5.564
 4124POPC   PO453208  21.375   5.100   5.864
 4124POPC   GL153209  21.372   5.054   6.164
 4124POPC   GL253210  21.425   5.194   6.164
 4124POPC   C1A53211  21.418   5.087   6.464
 4124POPC   D2A53212  21.355   5.114   6.764
 4124POPC   C3A53213  21.367   5.073   7.064
 4124POPC   C4A53214  21.433   5.060   7.364
 4124POPC   C1B53215  21.462   5.302   6.464
 4124POPC   C2B53216  21.426   5.307   6.764
 4124POPC   C3B53217  21.475   5.299   7.064
 4124POPC   C4B53218  21.463   5.338   7.364
 4125POPC   NC353219   7.414  15.188   5.564
 4125POPC   PO453220   7.377  15.173   5.864
 4125POPC   GL153221   7.395  15.134   6.164
 4125POPC   GL253222   7.547  15.325   6.164
 4125POPC   C1A53223   7.423  15.170   6.464
 4125POPC   D2A53224   7.450  15.175   6.764
 4125POPC   C3A53225   7.406  15.217   7.064
 4125POPC   C4A53226   7.460  15.157   7.364
 4125POPC   C1B53227   7.581  15.355   6.464
 4125POPC   C2B53228   7.553  15.341   6.764
 4125POPC   C3B53229   7.564  15.342   7.064
 4125POPC   C4B53230   7.541  15.329   7.364
 4126POPC   NC353231  37.656  24.466   5.564
 4126POPC   PO453232  37.667  24.480   5.864
 4126POPC   GL153233  37.642  24.462   6.164
 4126POPC   GL253234  37.757  24.423   6.164
 4126POPC   C1A53235  37.705  24.494   6.464
 4126POPC   D2A53236  37.709  24.502   6.764
 4126POPC   C3A53237  37.641  24.470   7.064
 4126POPC   C4A53238  37.630  24.477   7.364
 4126POPC   C1B53239  37.929  24.371   6.464
 4126POPC   C2B53240  37.908  24.367   6.764
 4126POPC   C3B53241  37.845  24.318   7.064
 4126POPC   C4B53242  37.938  24.381   7.364
 4127POPC   NC353243  22.182  19.049   5.564
 4127POPC   PO453244  22.158  19.091   5.864
 4127POPC   GL153245  22.201  19.079   6.164
 4127POPC   GL253246  22.068  18.979   6.164
 4127POPC   C1A53247  22.116  19.082   6.464
 4127POPC   D2A53248  22.139  19.012   6.764
 4127POPC   C3A53249  22.175  19.068   7.064
 4127POPC   C4A53250  22.173  19.082   7.364
 4127POPC   C1B53251  21.898  18.978   6.464
 4127POPC   C2B53252  21.940  18.970   6.764
 4127POPC   C3B53253  21.955  19.035   7.064
 4127POPC   C4B53254  21.914  19.008   7.364
 4128POPC   NC353255   9.769  29.180   5.564
 4128POPC   PO453256   9.769  29.121   5.864
 4128POPC   GL153257   9.699  29.128   6.164
 4128POPC   GL253258   9.852  29.206   6.164
 4128POPC   C1A53259   9.699  29.155   6.464
 4128POPC   D2A53260   9.720  29.170   6.764
 4128POPC   C3A53261   9.754  29.149   7.064
 4128POPC   C4A53262   9.775  29.187   7.364
 4128POPC   C1B53263  10.023  29.200   6.464
 4128POPC   C2B53264   9.991  29.258   6.764
 4128POPC   C3B53265  10.016  29.242   7.064
 4128POPC   C4B53266  10.020  29.259   7.364
 4129POPC   NC353267  38.433   4.294   5.564
 4129POPC   PO453268  38.493   4.297   5.864
 4129POPC   GL153269  38.454   4.298   6.164
 4129POPC   GL253270  38.468   4.413   6.164
 4129POPC   C1A53271  38.421   4.345   6.464
 4129POPC   D2A53272  38.460   4.319   6.764
 4129POPC   C3A53273  38.477   4.278   7.064
 4129POPC   C4A53274  38.439   4.360   7.364
 4129POPC   C1B53275  38.450   4.548   6.464
 4129POPC   C2B53276  38.442   4.585   6.764
 4129POPC   C3B53277  38.490   4.581   7.064
 4129POPC   C4B53278  38.476   4.607   7.364
 4130POPC   NC353279  34.585  31.502   5.564
 4130POPC   PO453280  34.569  31.478   5.864
 4130POPC   GL153281  34.575  31.432   6.164
 4130POPC   GL253282  34.657  31.560   6.164
 4130POPC   C1A53283  34.604  31.507   6.464
 4130POPC   D2A53284  34.533  31.443   6.764
 4130POPC   C3A53285  34.624  31.480   7.064
 4130POPC   C4A53286  34.620  31.491   7.364
 4130POPC   C1B53287  34.834  31.593   6.464
 4130POPC   C2B53288  34.821  31.563   6.764
 4130POPC   C3B53289  34.761  31.603   7.064
 4130POPC   C4B53290  34.807  31.612   7.364
 4131POPC   NC353291  13.661  10.570   5.564
 4131POPC   PO453292  13.598  10.525   5.864
 4131POPC   GL153293  13.594  10.483   6.164
 4131POPC   GL253294  13.559  10.418   6.164
 4131POPC   C1A53295  13.664  10.515   6.464
 4131POPC   D2A53296  13.629  10.513   6.764
 4131POPC   C3A53297  13.655  10.519   7.064
 4131POPC   C4A53298  13.649  10.497   7.364
 4131POPC   C1B53299  13.547  10.248   6.464
 4131POPC   C2B53300  13.504  10.322   6.764
 4131POPC   C3B53301  13.573  10.309   7.064
 4131POPC   C4B53302  13.516  10.310   7.364
 4132POPC   NC353303  35.326   5.866   5.564
 4132POPC   PO453304  35.372   5.872   5.864
 4132POPC   GL153305  35.376   5.850   6.164
 4132POPC   GL253306  35.230   5.832   6.164
 4132POPC   C1A53307  35.364   5.899   6.464
 4132POPC   D2A53308  35.307   5.893   6.764
 4132POPC   C3A53309  35.367   5.830   7.064
 4132POPC   C4A53310  35.308   5.843   7.364
 4132POPC   C1B53311  35.199   5.707   6.464
 4132POPC   C2B53312  35.181   5.724   6.764
 4132POPC   C3B53313  35.186   5.707   7.064
 4132POPC   C4B53314  35.142   5.690   7.364
 4133POPC   NC353315  23.693  19.862   5.564
 4133POPC   PO453316  23.739  19.861   5.864
 4133POPC   GL153317  23.745  19.785   6.164
 4133POPC   GL253318  23.822  19.883   6.164
 4133POPC   C1A53319  23.690  19.854   6.464
 4133POPC   D2A53320  23.695  19.863   6.764
 4133POPC   C3A53321  23.740  19.810   7.064
 4133POPC   C4A53322  23.730  19.790   7.364
 4133POPC   C1B53323  23.850  19.990   6.464
 4133POPC   C2B53324  23.848  19.964   6.764
 4133POPC   C3B53325  23.925  20.055   7.064
 4133POPC   C4B53326  23.852  20.001   7.364
 4134POPC   NC353327  41.560  11.283   5.564
 4134POPC   PO453328  41.519  11.325   5.864
 4134POPC   GL153329  41.552  11.289   6.164
 4134POPC   GL253330  41.700  11.285   6.164
 4134POPC   C1A53331  41.557  11.307   6.464
 4134POPC   D2A53332  41.578  11.260   6.764
 4134POPC   C3A53333  41.570  11.294   7.064
 4134POPC   C4A53334  41.537  11.312   7.364
 4134POPC   C1B53335  41.846  11.197   6.464
 4134POPC   C2B53336  41.790  11.211   6.764
 4134POPC   C3B53337  41.802  11.186   7.064
 4134POPC   C4B53338  41.747  11.175   7.364
 4135POPC   NC353339  12.115  28.366   5.564
 4135POPC   PO453340  12.123  28.406   5.864
 4135POPC   GL153341  12.045  28.319   6.164
 4135POPC   GL253342  12.013  28.426   6.164
 4135POPC   C1A53343  12.034  28.360   6.464
 4135POPC   D2A53344  12.117  28.324   6.764
 4135POPC   C3A53345  12.058  28.403   7.064
 4135POPC   C4A53346  12.064  28.352   7.364
 4135POPC   C1B53347  11.831  28.478   6.464
 4135POPC   C2B53348  11.871  28.515   6.764
 4135POPC   C3B53349  11.875  28.507   7.064
 4135POPC   C4B53350  11.886  28.501   7.364
 4136POPC   NC353351  28.323  10.516   5.564
 4136POPC   PO453352  28.411  10.571   5.864
 4136POPC   GL153353  28.342  10.547   6.164
 4136POPC   GL253354  28.341  10.631   6.164
 4136POPC   C1A53355  28.376  10.571   6.464
 4136POPC   D2A53356  28.330  10.558   6.764
 4136POPC   C3A53357  28.360  10.541   7.064
 4136POPC   C4A53358  28.339  10.527   7.364
 4136POPC   C1B53359  28.322  10.755   6.464
 4136POPC   C2B53360  28.253  10.814   6.764
 4136POPC   C3B53361  28.291  10.814   7.064
 4136POPC   C4B53362  28.272  10.778   7.364
 4137POPC   NC353363  40.018  15.217   5.564
 4137POPC   PO453364  40.015  15.148   5.864
 4137POPC   GL153365  40.030  15.164   6.164
 4137POPC   GL253366  39.909  15.219   6.164
 4137POPC   C1A53367  40.051  15.173   6.464
 4137POPC   D2A53368  40.049  15.183   6.764
 4137POPC   C3A53369  40.041  15.159   7.064
 4137POPC   C4A53370  40.015  15.224   7.364
 4137POPC   C1B53371  39.829  15.305   6.464
 4137POPC   C2B53372  39.768  15.251   6.764
 4137POPC   C3B53373  39.791  15.330   7.064
 4137POPC   C4B53374  39.803  15.286   7.364
 4138POPC   NC353375  26.070   5.820   5.564
 4138POPC   PO453376  26.006   5.850   5.864
 4138POPC   GL153377  26.086   5.824   6.164
 4138POPC   GL253378  25.980   5.799   6.164
 4138POPC   C1A53379  25.997   5.903   6.464
 4138POPC   D2A53380  25.999   5.850   6.764
 4138POPC   C3A53381  26.051   5.873   7.064
 4138POPC   C4A53382  25.994   5.837   7.364
 4138POPC   C1B53383  25.861   5.671   6.464
 4138POPC   C2B53384  25.871   5.739   6.764
 4138POPC   C3B53385  25.829   5.722   7.064
 4138POPC   C4B53386  25.873   5.755   7.364
 4139POPC   NC353387  12.810  39.221   5.564
 4139POPC   PO453388  12.872  39.225   5.864
 4139POPC   GL153389  12.890  39.187   6.164
 4139POPC   GL253390  12.918  39.297   6.164
 4139POPC   C1A53391  12.889  39.195   6.464
 4139POPC   D2A53392  12.817  39.265   6.764
 4139POPC   C3A53393  12.857  39.189   7.064
 4139POPC   C4A53394  12.866  39.271   7.364
 4139POPC   C1B53395  12.987  39.471   6.464
 4139POPC   C2B53396  13.027  39.445   6.764
 4139POPC   C3B53397  12.968  39.424   7.064
 4139POPC   C4B53398  12.971  39.438   7.364
 4140POPC   NC353399  26.087  29.188   5.564
 4140POPC   PO453400  26.016  29.119   5.864
 4140POPC   GL153401  26.045  29.175   6.164
 4140POPC   GL253402  26.167  29.204   6.164
 4140POPC   C1A53403  26.042  29.108   6.464
 4140POPC   D2A53404  26.081  29.146   6.764
 4140POPC   C3A53405  26.045  29.160   7.064
 4140POPC   C4A53406  25.995  29.193   7.364
 4140POPC   C1B53407  26.172  29.311   6.464
 4140POPC   C2B53408  26.220  29.373   6.764
 4140POPC   C3B53409  26.234  29.347   7.064
 4140POPC   C4B53410  26.209  29.350   7.364
 4141POPC   NC353411  43.144  19.043   5.564
 4141POPC   PO453412  43.158  19.024   5.864
 4141POPC   GL153413  43.099  19.108   6.164
 4141POPC   GL253414  43.152  19.161   6.164
 4141POPC   C1A53415  43.146  19.091   6.464
 4141POPC   D2A53416  43.092  19.011   6.764
 4141POPC   C3A53417  43.070  19.041   7.064
 4141POPC   C4A53418  43.085  19.079   7.364
 4141POPC   C1B53419  43.243  19.330   6.464
 4141POPC   C2B53420  43.188  19.329   6.764
 4141POPC   C3B53421  43.202  19.328   7.064
 4141POPC   C4B53422  43.184  19.241   7.364
 4142POPC   NC353423  14.446  29.927   5.564
 4142POPC   PO453424  14.402  29.937   5.864
 4142POPC   GL153425  14.384  29.950   6.164
 4142POPC   GL253426  14.306  29.765   6.164
 4142POPC   C1A53427  14.397  29.907   6.464
 4142POPC   D2A53428  14.418  29.959   6.764
 4142POPC   C3A53429  14.414  29.965   7.064
 4142POPC   C4A53430  14.370  29.965   7.364
 4142POPC   C1B53431  14.339  29.677   6.464
 4142POPC   C2B53432  14.283  29.653   6.764
 4142POPC   C3B53433  14.287  29.664   7.064
 4142POPC   C4B53434  14.301  29.745   7.364
 4143POPC   NC353435   5.068   8.940   5.564
 4143POPC   PO453436   5.095   8.970   5.864
 4143POPC   GL153437   5.051   8.993   6.164
 4143POPC   GL253438   5.060   8.898   6.164
 4143POPC   C1A53439   5.122   9.013   6.464
 4143POPC   D2A53440   5.106   8.947   6.764
 4143POPC   C3A53441   5.065   8.983   7.064
 4143POPC   C4A53442   5.053   8.925   7.364
 4143POPC   C1B53443   5.046   8.775   6.464
 4143POPC   C2B53444   5.055   8.721   6.764
 4143POPC   C3B53445   5.041   8.720   7.064
 4143POPC   C4B53446   5.060   8.743   7.364
 4144POPC   NC353447   4.294   6.686   5.564
 4144POPC   PO453448   4.326   6.682   5.864
 4144POPC   GL153449   4.320   6.687   6.164
 4144POPC   GL253450   4.186   6.566   6.164
 4144POPC   C1A53451   4.296   6.604   6.464
 4144POPC   D2A53452   4.280   6.649   6.764
 4144POPC   C3A53453   4.358   6.634   7.064
 4144POPC   C4A53454   4.320   6.624   7.364
 4144POPC   C1B53455   4.062   6.584   6.464
 4144POPC   C2B53456   4.100   6.514   6.764
 4144POPC   C3B53457   4.079   6.585   7.064
 4144POPC   C4B53458   4.114   6.540   7.364
 4145POPC   NC353459  30.655  12.086   5.564
 4145POPC   PO453460  30.701  12.030   5.864
 4145POPC   GL153461  30.740  12.037   6.164
 4145POPC   GL253462  30.771  12.054   6.164
 4145POPC   C1A53463  30.738  12.111   6.464
 4145POPC   D2A53464  30.673  12.067   6.764
 4145POPC   C3A53465  30.706  12.120   7.064
 4145POPC   C4A53466  30.711  12.092   7.364
 4145POPC   C1B53467  30.948  12.140   6.464
 4145POPC   C2B53468  30.937  12.172   6.764
 4145POPC   C3B53469  30.913  12.161   7.064
 4145POPC   C4B53470  30.921  12.116   7.364
 4146POPC   NC353471  42.351  35.322   5.564
 4146POPC   PO453472  42.304  35.328   5.864
 4146POPC   GL153473  42.288  35.379   6.164
 4146POPC   GL253474  42.480  35.350   6.164
 4146POPC   C1A53475  42.355  35.316   6.464
 4146POPC   D2A53476  42.318  35.324   6.764
 4146POPC   C3A53477  42.359  35.401   7.064
 4146POPC   C4A53478  42.331  35.384   7.364
 4146POPC   C1B53479  42.597  35.344   6.464
 4146POPC   C2B53480  42.547  35.272   6.764
 4146POPC   C3B53481  42.632  35.321   7.064
 4146POPC   C4B53482  42.613  35.314   7.364
 4147POPC   NC353483  16.710  30.726   5.564
 4147POPC   PO453484  16.767  30.669   5.864
 4147POPC   GL153485  16.713  30.715   6.164
 4147POPC   GL253486  16.637  30.781   6.164
 4147POPC   C1A53487  16.726  30.654   6.464
 4147POPC   D2A53488  16.779  30.690   6.764
 4147POPC   C3A53489  16.747  30.650   7.064
 4147POPC   C4A53490  16.685  30.731   7.364
 4147POPC   C1B53491  16.568  30.901   6.464
 4147POPC   C2B53492  16.581  30.913   6.764
 4147POPC   C3B53493  16.586  30.906   7.064
 4147POPC   C4B53494  16.534  30.848   7.364
 4148POPC   NC353495  38.486  38.484   5.564
 4148POPC   PO453496  38.499  38.437   5.864
 4148POPC   GL153497  38.492  38.503   6.164
 4148POPC   GL253498  38.332  38.519   6.164
 4148POPC   C1A53499  38.451  38.438   6.464
 4148POPC   D2A53500  38.486  38.457   6.764
 4148POPC   C3A53501  38.472  38.416   7.064
 4148POPC   C4A53502  38.423  38.434   7.364
 4148POPC   C1B53503  38.279  38.637   6.464
 4148POPC   C2B53504  38.254  38.647   6.764
 4148POPC   C3B53505  38.260  38.663   7.064
 4148POPC   C4B53506  38.315  38.606   7.364
 4149POPC   NC353507   1.204  36.860   5.564
 4149POPC   PO453508   1.219  36.893   5.864
 4149POPC   GL153509   1.195  36.923   6.164
 4149POPC   GL253510   1.268  36.849   6.164
 4149POPC   C1A53511   1.246  36.888   6.464
 4149POPC   D2A53512   1.240  36.899   6.764
 4149POPC   C3A53513   1.235  36.890   7.064
 4149POPC   C4A53514   1.175  36.856   7.364
 4149POPC   C1B53515   1.374  36.752   6.464
 4149POPC   C2B53516   1.433  36.767   6.764
 4149POPC   C3B53517   1.388  36.765   7.064
 4149POPC   C4B53518   1.416  36.782   7.364
 4150POPC   NC353519  43.084  40.056   5.564
 4150POPC   PO453520  43.067  40.045   5.864
 4150POPC   GL153521  43.116  39.963   6.164
 4150POPC   GL253522  43.067  40.100   6.164
 4150POPC   C1A53523  43.118  40.046   6.464
 4150POPC   D2A53524  43.086  39.986   6.764
 4150POPC   C3A53525  43.121  40.035   7.064
 4150POPC   C4A53526  43.124  40.000   7.364
 4150POPC   C1B53527  42.936  40.167   6.464
 4150POPC   C2B53528  42.943  40.228   6.764
 4150POPC   C3B53529  42.930  40.203   7.064
 4150POPC   C4B53530  42.986  40.239   7.364
 4151POPC   NC353531  40.753  38.473   5.564
 4151POPC   PO453532  40.789  38.435   5.864
 4151POPC   GL153533  40.787  38.486   6.164
 4151POPC   GL253534  40.701  38.439   6.164
 4151POPC   C1A53535  40.775  38.406   6.464
 4151POPC   D2A53536  40.773  38.440   6.764
 4151POPC   C3A53537  40.756  38.466   7.064
 4151POPC   C4A53538  40.764  38.471   7.364
 4151POPC   C1B53539  40.581  38.411   6.464
 4151POPC   C2B53540  40.568  38.409   6.764
 4151POPC   C3B53541  40.563  38.447   7.064
 4151POPC   C4B53542  40.570  38.460   7.364
 4152POPC   NC353543  18.286  13.658   5.564
 4152POPC   PO453544  18.323  13.646   5.864
 4152POPC   GL153545  18.247  13.619   6.164
 4152POPC   GL253546  18.365  13.599   6.164
 4152POPC   C1A53547  18.298  13.600   6.464
 4152POPC   D2A53548  18.311  13.648   6.764
 4152POPC   C3A53549  18.243  13.584   7.064
 4152POPC   C4A53550  18.273  13.640   7.364
 4152POPC   C1B53551  18.516  13.470   6.464
 4152POPC   C2B53552  18.465  13.479   6.764
 4152POPC   C3B53553  18.487  13.449   7.064
 4152POPC   C4B53554  18.453  13.494   7.364
 4153POPC   NC353555  16.726   8.992   5.564
 4153POPC   PO453556  16.759   9.003   5.864
 4153POPC   GL153557  16.779   8.934   6.164
 4153POPC   GL253558  16.753   8.805   6.164
 4153POPC   C1A53559  16.700   8.929   6.464
 4153POPC   D2A53560  16.759   9.003   6.764
 4153POPC   C3A53561  16.746   9.007   7.064
 4153POPC   C4A53562  16.708   8.952   7.364
 4153POPC   C1B53563  16.746   8.737   6.464
 4153POPC   C2B53564  16.675   8.728   6.764
 4153POPC   C3B53565  16.677   8.728   7.064
 4153POPC   C4B53566  16.673   8.675   7.364
 4154POPC   NC353567  36.887  14.363   5.564
 4154POPC   PO453568  36.883  14.379   5.864
 4154POPC   GL153569  36.882  14.361   6.164
 4154POPC   GL253570  36.873  14.328   6.164
 4154POPC   C1A53571  36.880  14.399   6.464
 4154POPC   D2A53572  36.912  14.426   6.764
 4154POPC   C3A53573  36.910  14.450   7.064
 4154POPC   C4A53574  36.945  14.415   7.364
 4154POPC   C1B53575  36.801  14.194   6.464
 4154POPC   C2B53576  36.743  14.211   6.764
 4154POPC   C3B53577  36.744  14.193   7.064
 4154POPC   C4B53578  36.721  14.183   7.364
 4155POPC   NC353579  13.649  29.104   5.564
 4155POPC   PO453580  13.583  29.127   5.864
 4155POPC   GL153581  13.633  29.140   6.164
 4155POPC   GL253582  13.510  29.082   6.164
 4155POPC   C1A53583  13.589  29.106   6.464
 4155POPC   D2A53584  13.658  29.179   6.764
 4155POPC   C3A53585  13.584  29.193   7.064
 4155POPC   C4A53586  13.673  29.179   7.364
 4155POPC   C1B53587  13.476  28.961   6.464
 4155POPC   C2B53588  13.485  28.915   6.764
 4155POPC   C3B53589  13.448  28.932   7.064
 4155POPC   C4B53590  13.508  28.901   7.364
 4156POPC   NC353591  18.307   2.732   5.564
 4156POPC   PO453592  18.233   2.815   5.864
 4156POPC   GL153593  18.315   2.798   6.164
 4156POPC   GL253594  18.216   2.717   6.164
 4156POPC   C1A53595  18.306   2.810   6.464
 4156POPC   D2A53596  18.326   2.768   6.764
 4156POPC   C3A53597  18.292   2.782   7.064
 4156POPC   C4A53598  18.239   2.787   7.364
 4156POPC   C1B53599  18.137   2.601   6.464
 4156POPC   C2B53600  18.158   2.559   6.764
 4156POPC   C3B53601  18.117   2.628   7.064
 4156POPC   C4B53602  18.065   2.592   7.364
 4157POPC   NC353603  29.938  39.201   5.564
 4157POPC   PO453604  29.908  39.279   5.864
 4157POPC   GL153605  29.924  39.198   6.164
 4157POPC   GL253606  29.943  39.104   6.164
 4157POPC   C1A53607  29.906  39.276   6.464
 4157POPC   D2A53608  29.938  39.247   6.764
 4157POPC   C3A53609  29.947  39.212   7.064
 4157POPC   C4A53610  29.950  39.216   7.364
 4157POPC   C1B53611  29.941  38.941   6.464
 4157POPC   C2B53612  29.988  38.958   6.764
 4157POPC   C3B53613  29.969  38.991   7.064
 4157POPC   C4B53614  29.923  38.946   7.364
 4158POPC   NC353615  12.121   1.207   5.564
 4158POPC   PO453616  12.068   1.227   5.864
 4158POPC   GL153617  12.087   1.213   6.164
 4158POPC   GL253618  12.099   1.343   6.164
 4158POPC   C1A53619  12.120   1.190   6.464
 4158POPC   D2A53620  12.105   1.173   6.764
 4158POPC   C3A53621  12.070   1.206   7.064
 4158POPC   C4A53622  12.049   1.203   7.364
 4158POPC   C1B53623  12.050   1.495   6.464
 4158POPC   C2B53624  12.057   1.434   6.764
 4158POPC   C3B53625  12.118   1.472   7.064
 4158POPC   C4B53626  12.067   1.498   7.364
 4159POPC   NC353627  44.643  42.346   5.564
 4159POPC   PO453628  44.665  42.299   5.864
 4159POPC   GL153629  44.643  42.344   6.164
 4159POPC   GL253630  44.781  42.353   6.164
 4159POPC   C1A53631  44.645  42.309   6.464
 4159POPC   D2A53632  44.680  42.323   6.764
 4159POPC   C3A53633  44.701  42.374   7.064
 4159POPC   C4A53634  44.618  42.352   7.364
 4159POPC   C1B53635  44.915  42.446   6.464
 4159POPC   C2B53636  44.941  42.391   6.764
 4159POPC   C3B53637  44.906  42.374   7.064
 4159POPC   C4B53638  44.858  42.420   7.364
 4160POPC   NC353639  15.947  23.686   5.564
 4160POPC   PO453640  15.999  23.754   5.864
 4160POPC   GL153641  15.976  23.742   6.164
 4160POPC   GL253642  15.819  23.744   6.164
 4160POPC   C1A53643  15.931  23.727   6.464
 4160POPC   D2A53644  15.957  23.707   6.764
 4160POPC   C3A53645  15.977  23.705   7.064
 4160POPC   C4A53646  15.912  23.742   7.364
 4160POPC   C1B53647  15.754  23.763   6.464
 4160POPC   C2B53648  15.736  23.821   6.764
 4160POPC   C3B53649  15.678  23.816   7.064
 4160POPC   C4B53650  15.710  23.758   7.364
 4161POPC   NC353651  39.272   7.396   5.564
 4161POPC   PO453652  39.182   7.381   5.864
 4161POPC   GL153653  39.266   7.444   6.164
 4161POPC   GL253654  39.140   7.377   6.164
 4161POPC   C1A53655  39.277   7.392   6.464
 4161POPC   D2A53656  39.192   7.422   6.764
 4161POPC   C3A53657  39.219   7.402   7.064
 4161POPC   C4A53658  39.233   7.454   7.364
 4161POPC   C1B53659  39.008   7.366   6.464
 4161POPC   C2B53660  38.940   7.375   6.764
 4161POPC   C3B53661  38.982   7.340   7.064
 4161POPC   C4B53662  39.002   7.368   7.364
 4162POPC   NC353663   9.004  10.539   5.564
 4162POPC   PO453664   8.957  10.540   5.864
 4162POPC   GL153665   8.933  10.501   6.164
 4162POPC   GL253666   8.901  10.419   6.164
 4162POPC   C1A53667   8.998  10.486   6.464
 4162POPC   D2A53668   9.012  10.507   6.764
 4162POPC   C3A53669   8.932  10.506   7.064
 4162POPC   C4A53670   8.995  10.526   7.364
 4162POPC   C1B53671   8.944  10.308   6.464
 4162POPC   C2B53672   8.923  10.266   6.764
 4162POPC   C3B53673   8.860  10.245   7.064
 4162POPC   C4B53674   8.865  10.316   7.364
 4163POPC   NC353675  26.832  10.515   5.564
 4163POPC   PO453676  26.809  10.558   5.864
 4163POPC   GL153677  26.804  10.519   6.164
 4163POPC   GL253678  26.911  10.377   6.164
 4163POPC   C1A53679  26.847  10.483   6.464
 4163POPC   D2A53680  26.865  10.510   6.764
 4163POPC   C3A53681  26.861  10.518   7.064
 4163POPC   C4A53682  26.828  10.540   7.364
 4163POPC   C1B53683  26.956  10.246   6.464
 4163POPC   C2B53684  26.882  10.251   6.764
 4163POPC   C3B53685  26.895  10.317   7.064
 4163POPC   C4B53686  26.905  10.343   7.364
 4164POPC   NC353687  43.926  37.701   5.564
 4164POPC   PO453688  43.850  37.705   5.864
 4164POPC   GL153689  43.849  37.637   6.164
 4164POPC   GL253690  43.818  37.762   6.164
 4164POPC   C1A53691  43.858  37.676   6.464
 4164POPC   D2A53692  43.912  37.728   6.764
 4164POPC   C3A53693  43.887  37.643   7.064
 4164POPC   C4A53694  43.874  37.701   7.364
 4164POPC   C1B53695  43.682  37.899   6.464
 4164POPC   C2B53696  43.671  37.889   6.764
 4164POPC   C3B53697  43.726  37.894   7.064
 4164POPC   C4B53698  43.751  37.846   7.364
 4165POPC   NC353699   1.184  19.863   5.564
 4165POPC   PO453700   1.259  19.854   5.864
 4165POPC   GL153701   1.176  19.830   6.164
 4165POPC   GL253702   1.329  19.804   6.164
 4165POPC   C1A53703   1.195  19.880   6.464
 4165POPC   D2A53704   1.196  19.864   6.764
 4165POPC   C3A53705   1.233  19.811   7.064
 4165POPC   C4A53706   1.183  19.820   7.364
 4165POPC   C1B53707   1.410  19.708   6.464
 4165POPC   C2B53708   1.436  19.663   6.764
 4165POPC   C3B53709   1.452  19.722   7.064
 4165POPC   C4B53710   1.422  19.695   7.364
 4166POPC   NC353711  18.254  15.964   5.564
 4166POPC   PO453712  18.290  15.940   5.864
 4166POPC   GL153713  18.284  15.913   6.164
 4166POPC   GL253714  18.174  16.008   6.164
 4166POPC   C1A53715  18.320  15.913   6.464
 4166POPC   D2A53716  18.331  15.964   6.764
 4166POPC   C3A53717  18.255  15.937   7.064
 4166POPC   C4A53718  18.241  15.943   7.364
 4166POPC   C1B53719  18.120  16.141   6.464
 4166POPC   C2B53720  18.099  16.133   6.764
 4166POPC   C3B53721  18.157  16.165   7.064
 4166POPC   C4B53722  18.123  16.146   7.364
 4167POPC   NC353723  31.435  39.988   5.564
 4167POPC   PO453724  31.439  40.016   5.864
 4167POPC   GL153725  31.458  39.972   6.164
 4167POPC   GL253726  31.457  40.166   6.164
 4167POPC   C1A53727  31.456  40.007   6.464
 4167POPC   D2A53728  31.448  40.022   6.764
 4167POPC   C3A53729  31.472  39.987   7.064
 4167POPC   C4A53730  31.505  40.021   7.364
 4167POPC   C1B53731  31.501  40.223   6.464
 4167POPC   C2B53732  31.474  40.301   6.764
 4167POPC   C3B53733  31.544  40.265   7.064
 4167POPC   C4B53734  31.556  40.241   7.364
 4168POPC   NC353735  22.973   8.160   5.564
 4168POPC   PO453736  22.958   8.203   5.864
 4168POPC   GL153737  22.944   8.198   6.164
 4168POPC   GL253738  22.857   8.081   6.164
 4168POPC   C1A53739  22.952   8.153   6.464
 4168POPC   D2A53740  22.924   8.168   6.764
 4168POPC   C3A53741  22.948   8.243   7.064
 4168POPC   C4A53742  22.976   8.229   7.364
 4168POPC   C1B53743  22.851   7.931   6.464
 4168POPC   C2B53744  22.850   8.011   6.764
 4168POPC   C3B53745  22.807   7.930   7.064
 4168POPC   C4B53746  22.801   8.000   7.364
 4169POPC   NC353747  43.903  24.517   5.564
 4169POPC   PO453748  43.894  24.457   5.864
 4169POPC   GL153749  43.931  24.524   6.164
 4169POPC   GL253750  44.019  24.431   6.164
 4169POPC   C1A53751  43.930  24.514   6.464
 4169POPC   D2A53752  43.842  24.485   6.764
 4169POPC   C3A53753  43.853  24.520   7.064
 4169POPC   C4A53754  43.922  24.487   7.364
 4169POPC   C1B53755  44.055  24.295   6.464
 4169POPC   C2B53756  44.075  24.323   6.764
 4169POPC   C3B53757  44.035  24.299   7.064
 4169POPC   C4B53758  44.023  24.303   7.364
 4170POPC   NC353759  15.213  20.582   5.564
 4170POPC   PO453760  15.137  20.564   5.864
 4170POPC   GL153761  15.180  20.638   6.164
 4170POPC   GL253762  15.230  20.740   6.164
 4170POPC   C1A53763  15.177  20.565   6.464
 4170POPC   D2A53764  15.132  20.580   6.764
 4170POPC   C3A53765  15.131  20.589   7.064
 4170POPC   C4A53766  15.133  20.604   7.364
 4170POPC   C1B53767  15.259  20.803   6.464
 4170POPC   C2B53768  15.316  20.808   6.764
 4170POPC   C3B53769  15.294  20.841   7.064
 4170POPC   C4B53770  15.281  20.889   7.364
 4171POPC   NC353771  23.756   1.940   5.564
 4171POPC   PO453772  23.753   1.948   5.864
 4171POPC   GL153773  23.690   1.987   6.164
 4171POPC   GL253774  23.793   2.118   6.164
 4171POPC   C1A53775  23.704   1.983   6.464
 4171POPC   D2A53776  23.706   2.000   6.764
 4171POPC   C3A53777  23.753   1.989   7.064
 4171POPC   C4A53778  23.725   1.989   7.364
 4171POPC   C1B53779  23.784   2.251   6.464
 4171POPC   C2B53780  23.783   2.185   6.764
 4171POPC   C3B53781  23.861   2.184   7.064
 4171POPC   C4B53782  23.837   2.189   7.364
 4172POPC   NC353783  43.150   9.015   5.564
 4172POPC   PO453784  43.150   8.988   5.864
 4172POPC   GL153785  43.160   9.021   6.164
 4172POPC   GL253786  43.178   8.882   6.164
 4172POPC   C1A53787  43.150   8.942   6.464
 4172POPC   D2A53788  43.091   8.957   6.764
 4172POPC   C3A53789  43.083   8.924   7.064
 4172POPC   C4A53790  43.138   9.012   7.364
 4172POPC   C1B53791  43.217   8.751   6.464
 4172POPC   C2B53792  43.281   8.744   6.764
 4172POPC   C3B53793  43.264   8.806   7.064
 4172POPC   C4B53794  43.262   8.728   7.364
 4173POPC   NC353795  19.044   3.575   5.564
 4173POPC   PO453796  19.105   3.537   5.864
 4173POPC   GL153797  19.090   3.530   6.164
 4173POPC   GL253798  19.210   3.626   6.164
 4173POPC   C1A53799  19.066   3.579   6.464
 4173POPC   D2A53800  19.058   3.567   6.764
 4173POPC   C3A53801  19.101   3.577   7.064
 4173POPC   C4A53802  19.083   3.523   7.364
 4173POPC   C1B53803  19.326   3.665   6.464
 4173POPC   C2B53804  19.300   3.641   6.764
 4173POPC   C3B53805  19.300   3.576   7.064
 4173POPC   C4B53806  19.287   3.615   7.364
 4174POPC   NC353807  29.894   1.962   5.564
 4174POPC   PO453808  29.891   1.955   5.864
 4174POPC   GL153809  29.942   2.024   6.164
 4174POPC   GL253810  29.824   1.872   6.164
 4174POPC   C1A53811  29.927   2.031   6.464
 4174POPC   D2A53812  29.875   1.975   6.764
 4174POPC   C3A53813  29.923   2.010   7.064
 4174POPC   C4A53814  29.927   1.977   7.364
 4174POPC   C1B53815  29.755   1.801   6.464
 4174POPC   C2B53816  29.740   1.803   6.764
 4174POPC   C3B53817  29.790   1.776   7.064
 4174POPC   C4B53818  29.784   1.760   7.364
 4175POPC   NC353819  28.334   8.955   5.564
 4175POPC   PO453820  28.329   9.017   5.864
 4175POPC   GL153821  28.350   9.013   6.164
 4175POPC   GL253822  28.534   9.014   6.164
 4175POPC   C1A53823  28.376   8.972   6.464
 4175POPC   D2A53824  28.344   9.006   6.764
 4175POPC   C3A53825  28.324   9.018   7.064
 4175POPC   C4A53826  28.375   8.935   7.364
 4175POPC   C1B53827  28.578   9.032   6.464
 4175POPC   C2B53828  28.567   9.065   6.764
 4175POPC   C3B53829  28.595   9.045   7.064
 4175POPC   C4B53830  28.571   9.105   7.364
 4176POPC   NC353831  17.458   6.646   5.564
 4176POPC   PO453832  17.461   6.604   5.864
 4176POPC   GL153833  17.543   6.622   6.164
 4176POPC   GL253834  17.578   6.706   6.164
 4176POPC   C1A53835  17.503   6.607   6.464
 4176POPC   D2A53836  17.492   6.628   6.764
 4176POPC   C3A53837  17.473   6.646   7.064
 4176POPC   C4A53838  17.488   6.663   7.364
 4176POPC   C1B53839  17.653   6.809   6.464
 4176POPC   C2B53840  17.701   6.828   6.764
 4176POPC   C3B53841  17.649   6.858   7.064
 4176POPC   C4B53842  17.646   6.879   7.364
 4177POPC   NC353843  42.372  15.184   5.564
 4177POPC   PO453844  42.285  15.221   5.864
 4177POPC   GL153845  42.365  15.221   6.164
 4177POPC   GL253846  42.434  15.177   6.164
 4177POPC   C1A53847  42.365  15.226   6.464
 4177POPC   D2A53848  42.340  15.227   6.764
 4177POPC   C3A53849  42.292  15.195   7.064
 4177POPC   C4A53850  42.359  15.151   7.364
 4177POPC   C1B53851  42.525  15.050   6.464
 4177POPC   C2B53852  42.526  15.119   6.764
 4177POPC   C3B53853  42.539  15.131   7.064
 4177POPC   C4B53854  42.595  15.088   7.364
 4178POPC   NC353855  29.938   9.703   5.564
 4178POPC   PO453856  29.969   9.760   5.864
 4178POPC   GL153857  29.922   9.786   6.164
 4178POPC   GL253858  29.850   9.733   6.164
 4178POPC   C1A53859  29.956   9.737   6.464
 4178POPC   D2A53860  29.964   9.783   6.764
 4178POPC   C3A53861  29.951   9.752   7.064
 4178POPC   C4A53862  29.965   9.699   7.364
 4178POPC   C1B53863  29.684   9.643   6.464
 4178POPC   C2B53864  29.644   9.662   6.764
 4178POPC   C3B53865  29.710   9.697   7.064
 4178POPC   C4B53866  29.715   9.697   7.364
 4179POPC   NC353867   1.970   7.380   5.564
 4179POPC   PO453868   1.988   7.406   5.864
 4179POPC   GL153869   2.037   7.394   6.164
 4179POPC   GL253870   2.071   7.518   6.164
 4179POPC   C1A53871   1.994   7.377   6.464
 4179POPC   D2A53872   1.976   7.464   6.764
 4179POPC   C3A53873   1.960   7.429   7.064
 4179POPC   C4A53874   2.000   7.404   7.364
 4179POPC   C1B53875   2.040   7.631   6.464
 4179POPC   C2B53876   2.085   7.681   6.764
 4179POPC   C3B53877   2.064   7.601   7.064
 4179POPC   C4B53878   2.130   7.639   7.364
 4180POPC   NC353879   1.203  33.070   5.564
 4180POPC   PO453880   1.251  33.072   5.864
 4180POPC   GL153881   1.166  33.029   6.164
 4180POPC   GL253882   1.085  32.905   6.164
 4180POPC   C1A53883   1.197  33.008   6.464
 4180POPC   D2A53884   1.174  32.984   6.764
 4180POPC   C3A53885   1.259  32.978   7.064
 4180POPC   C4A53886   1.256  33.017   7.364
 4180POPC   C1B53887   0.995  32.831   6.464
 4180POPC   C2B53888   1.070  32.868   6.764
 4180POPC   C3B53889   1.083  32.855   7.064
 4180POPC   C4B53890   1.045  32.825   7.364
 4181POPC   NC353891  23.724   5.139   5.564
 4181POPC   PO453892  23.674   5.106   5.864
 4181POPC   GL153893  23.713   5.114   6.164
 4181POPC   GL253894  23.731   4.928   6.164
 4181POPC   C1A53895  23.709   5.050   6.464
 4181POPC   D2A53896  23.709   5.048   6.764
 4181POPC   C3A53897  23.719   5.124   7.064
 4181POPC   C4A53898  23.748   5.138   7.364
 4181POPC   C1B53899  23.751   4.835   6.464
 4181POPC   C2B53900  23.754   4.821   6.764
 4181POPC   C3B53901  23.738   4.800   7.064
 4181POPC   C4B53902  23.747   4.866   7.364
 4182POPC   NC353903  36.887   1.173   5.564
 4182POPC   PO453904  36.872   1.208   5.864
 4182POPC   GL153905  36.892   1.190   6.164
 4182POPC   GL253906  37.005   1.211   6.164
 4182POPC   C1A53907  36.882   1.252   6.464
 4182POPC   D2A53908  36.869   1.180   6.764
 4182POPC   C3A53909  36.916   1.233   7.064
 4182POPC   C4A53910  36.924   1.182   7.364
 4182POPC   C1B53911  37.176   1.150   6.464
 4182POPC   C2B53912  37.164   1.167   6.764
 4182POPC   C3B53913  37.141   1.171   7.064
 4182POPC   C4B53914  37.132   1.193   7.364
 4183POPC   NC353915  21.417  30.693   5.564
 4183POPC   PO453916  21.402  30.699   5.864
 4183POPC   GL153917  21.345  30.723   6.164
 4183POPC   GL253918  21.530  30.676   6.164
 4183POPC   C1A53919  21.398  30.703   6.464
 4183POPC   D2A53920  21.410  30.701   6.764
 4183POPC   C3A53921  21.398  30.672   7.064
 4183POPC   C4A53922  21.354  30.725   7.364
 4183POPC   C1B53923  21.656  30.710   6.464
 4183POPC   C2B53924  21.593  30.700   6.764
 4183POPC   C3B53925  21.641  30.682   7.064
 4183POPC   C4B53926  21.614  30.700   7.364
 4184POPC   NC353927  24.471  35.332   5.564
 4184POPC   PO453928  24.523  35.362   5.864
 4184POPC   GL153929  24.510  35.396   6.164
 4184POPC   GL253930  24.628  35.449   6.164
 4184POPC   C1A53931  24.511  35.326   6.464
 4184POPC   D2A53932  24.462  35.384   6.764
 4184POPC   C3A53933  24.464  35.315   7.064
 4184POPC   C4A53934  24.490  35.379   7.364
 4184POPC   C1B53935  24.692  35.527   6.464
 4184POPC   C2B53936  24.696  35.533   6.764
 4184POPC   C3B53937  24.727  35.519   7.064
 4184POPC   C4B53938  24.638  35.555   7.364
 4185POPC   NC353939  36.936  28.391   5.564
 4185POPC   PO453940  36.933  28.371   5.864
 4185POPC   GL153941  36.922  28.324   6.164
 4185POPC   GL253942  36.999  28.354   6.164
 4185POPC   C1A53943  36.952  28.366   6.464
 4185POPC   D2A53944  36.911  28.365   6.764
 4185POPC   C3A53945  36.874  28.385   7.064
 4185POPC   C4A53946  36.899  28.358   7.364
 4185POPC   C1B53947  37.123  28.385   6.464
 4185POPC   C2B53948  37.133  28.332   6.764
 4185POPC   C3B53949  37.197  28.317   7.064
 4185POPC   C4B53950  37.161  28.368   7.364
 4186POPC   NC353951   1.233   6.672   5.564
 4186POPC   PO453952   1.230   6.650   5.864
 4186POPC   GL153953   1.213   6.674   6.164
 4186POPC   GL253954   1.208   6.784   6.164
 4186POPC   C1A53955   1.196   6.663   6.464
 4186POPC   D2A53956   1.227   6.669   6.764
 4186POPC   C3A53957   1.199   6.671   7.064
 4186POPC   C4A53958   1.180   6.689   7.364
 4186POPC   C1B53959   1.279   6.854   6.464
 4186POPC   C2B53960   1.270   6.844   6.764
 4186POPC   C3B53961   1.310   6.894   7.064
 4186POPC   C4B53962   1.263   6.877   7.364
 4187POPC   NC353963  33.827  18.331   5.564
 4187POPC   PO453964  33.811  18.268   5.864
 4187POPC   GL153965  33.757  18.250   6.164
 4187POPC   GL253966  33.667  18.249   6.164
 4187POPC   C1A53967  33.809  18.297   6.464
 4187POPC   D2A53968  33.755  18.262   6.764
 4187POPC   C3A53969  33.760  18.327   7.064
 4187POPC   C4A53970  33.811  18.254   7.364
 4187POPC   C1B53971  33.660  18.097   6.464
 4187POPC   C2B53972  33.645  18.155   6.764
 4187POPC   C3B53973  33.638  18.118   7.064
 4187POPC   C4B53974  33.565  18.150   7.364
 4188POPC   NC353975  16.779  22.180   5.564
 4188POPC   PO453976  16.729  22.174   5.864
 4188POPC   GL153977  16.736  22.152   6.164
 4188POPC   GL253978  16.741  22.310   6.164
 4188POPC   C1A53979  16.731  22.131   6.464
 4188POPC   D2A53980  16.727  22.153   6.764
 4188POPC   C3A53981  16.755  22.131   7.064
 4188POPC   C4A53982  16.719  22.201   7.364
 4188POPC   C1B53983  16.712  22.440   6.464
 4188POPC   C2B53984  16.722  22.411   6.764
 4188POPC   C3B53985  16.718  22.410   7.064
 4188POPC   C4B53986  16.675  22.360   7.364
 4189POPC   NC353987  42.351  13.611   5.564
 4189POPC   PO453988  42.364  13.667   5.864
 4189POPC   GL153989  42.296  13.600   6.164
 4189POPC   GL253990  42.198  13.755   6.164
 4189POPC   C1A53991  42.350  13.661   6.464
 4189POPC   D2A53992  42.380  13.626   6.764
 4189POPC   C3A53993  42.380  13.600   7.064
 4189POPC   C4A53994  42.296  13.633   7.364
 4189POPC   C1B53995  42.122  13.775   6.464
 4189POPC   C2B53996  42.134  13.796   6.764
 4189POPC   C3B53997  42.155  13.777   7.064
 4189POPC   C4B53998  42.127  13.804   7.364
 4190POPC   NC353999  10.572  12.070   5.564
 4190POPC   PO454000  10.518  12.103   5.864
 4190POPC   GL154001  10.530  12.041   6.164
 4190POPC   GL254002  10.570  12.162   6.164
 4190POPC   C1A54003  10.484  12.072   6.464
 4190POPC   D2A54004  10.475  12.058   6.764
 4190POPC   C3A54005  10.573  12.053   7.064
 4190POPC   C4A54006  10.493  12.108   7.364
 4190POPC   C1B54007  10.602  12.333   6.464
 4190POPC   C2B54008  10.637  12.267   6.764
 4190POPC   C3B54009  10.648  12.293   7.064
 4190POPC   C4B54010  10.602  12.334   7.364
 4191POPC   NC354011  24.528  26.007   5.564
 4191POPC   PO454012  24.521  26.001   5.864
 4191POPC   GL154013  24.535  26.045   6.164
 4191POPC   GL254014  24.415  26.163   6.164
 4191POPC   C1A54015  24.502  26.026   6.464
 4191POPC   D2A54016  24.497  26.085   6.764
 4191POPC   C3A54017  24.485  26.025   7.064
 4191POPC   C4A54018  24.497  26.031   7.364
 4191POPC   C1B54019  24.322  26.222   6.464
 4191POPC   C2B54020  24.313  26.231   6.764
 4191POPC   C3B54021  24.337  26.162   7.064
 4191POPC   C4B54022  24.303  26.208   7.364
 4192POPC   NC354023  43.156   5.831   5.564
 4192POPC   PO454024  43.108   5.907   5.864
 4192POPC   GL154025  43.091   5.860   6.164
 4192POPC   GL254026  43.250   5.880   6.164
 4192POPC   C1A54027  43.132   5.899   6.464
 4192POPC   D2A54028  43.096   5.854   6.764
 4192POPC   C3A54029  43.076   5.880   7.064
 4192POPC   C4A54030  43.085   5.820   7.364
 4192POPC   C1B54031  43.401   5.926   6.464
 4192POPC   C2B54032  43.382   5.920   6.764
 4192POPC   C3B54033  43.359   5.902   7.064
 4192POPC   C4B54034  43.394   5.959   7.364
 4193POPC   NC354035  17.546  24.461   5.564
 4193POPC   PO454036  17.489  24.536   5.864
 4193POPC   GL154037  17.500  24.534   6.164
 4193POPC   GL254038  17.602  24.364   6.164
 4193POPC   C1A54039  17.540  24.515   6.464
 4193POPC   D2A54040  17.475  24.514   6.764
 4193POPC   C3A54041  17.550  24.464   7.064
 4193POPC   C4A54042  17.472  24.452   7.364
 4193POPC   C1B54043  17.658  24.254   6.464
 4193POPC   C2B54044  17.641  24.316   6.764
 4193POPC   C3B54045  17.638  24.263   7.064
 4193POPC   C4B54046  17.670  24.277   7.364
 4194POPC   NC354047  29.193  37.727   5.564
 4194POPC   PO454048  29.117  37.673   5.864
 4194POPC   GL154049  29.151  37.719   6.164
 4194POPC   GL254050  29.107  37.801   6.164
 4194POPC   C1A54051  29.121  37.724   6.464
 4194POPC   D2A54052  29.178  37.635   6.764
 4194POPC   C3A54053  29.152  37.708   7.064
 4194POPC   C4A54054  29.174  37.715   7.364
 4194POPC   C1B54055  29.072  37.894   6.464
 4194POPC   C2B54056  29.079  37.953   6.764
 4194POPC   C3B54057  29.137  37.922   7.064
 4194POPC   C4B54058  29.130  37.881   7.364
 4195POPC   NC354059  40.005   7.406   5.564
 4195POPC   PO454060  39.958   7.452   5.864
 4195POPC   GL154061  39.991   7.424   6.164
 4195POPC   GL254062  39.956   7.300   6.164
 4195POPC   C1A54063  39.979   7.448   6.464
 4195POPC   D2A54064  39.976   7.381   6.764
 4195POPC   C3A54065  39.957   7.382   7.064
 4195POPC   C4A54066  39.980   7.454   7.364
 4195POPC   C1B54067  39.881   7.169   6.464
 4195POPC   C2B54068  39.885   7.174   6.764
 4195POPC   C3B54069  39.887   7.225   7.064
 4195POPC   C4B54070  39.959   7.142   7.364
 4196POPC   NC354071  29.155  44.654   5.564
 4196POPC   PO454072  29.140  44.634   5.864
 4196POPC   GL154073  29.131  44.707   6.164
 4196POPC   GL254074  29.254  44.730   6.164
 4196POPC   C1A54075  29.194  44.700   6.464
 4196POPC   D2A54076  29.143  44.619   6.764
 4196POPC   C3A54077  29.193  44.641   7.064
 4196POPC   C4A54078  29.167  44.651   7.364
 4196POPC   C1B54079  29.290  44.896   6.464
 4196POPC   C2B54080  29.281  44.894   6.764
 4196POPC   C3B54081  29.221  44.928   7.064
 4196POPC   C4B54082  29.250  44.839   7.364
 4197POPC   NC354083   8.233  16.716   5.564
 4197POPC   PO454084   8.224  16.699   5.864
 4197POPC   GL154085   8.159  16.717   6.164
 4197POPC   GL254086   8.257  16.865   6.164
 4197POPC   C1A54087   8.216  16.693   6.464
 4197POPC   D2A54088   8.222  16.714   6.764
 4197POPC   C3A54089   8.216  16.768   7.064
 4197POPC   C4A54090   8.193  16.760   7.364
 4197POPC   C1B54091   8.411  16.930   6.464
 4197POPC   C2B54092   8.401  16.887   6.764
 4197POPC   C3B54093   8.393  16.916   7.064
 4197POPC   C4B54094   8.346  16.931   7.364
 4198POPC   NC354095  11.331  15.190   5.564
 4198POPC   PO454096  11.300  15.210   5.864
 4198POPC   GL154097  11.262  15.137   6.164
 4198POPC   GL254098  11.238  15.263   6.164
 4198POPC   C1A54099  11.277  15.168   6.464
 4198POPC   D2A54100  11.296  15.218   6.764
 4198POPC   C3A54101  11.333  15.146   7.064
 4198POPC   C4A54102  11.259  15.188   7.364
 4198POPC   C1B54103  11.268  15.370   6.464
 4198POPC   C2B54104  11.259  15.465   6.764
 4198POPC   C3B54105  11.221  15.403   7.064
 4198POPC   C4B54106  11.198  15.447   7.364
 4199POPC   NC354107  29.165  12.072   5.564
 4199POPC   PO454108  29.158  12.041   5.864
 4199POPC   GL154109  29.172  12.067   6.164
 4199POPC   GL254110  29.053  12.100   6.164
 4199POPC   C1A54111  29.101  12.040   6.464
 4199POPC   D2A54112  29.095  12.075   6.764
 4199POPC   C3A54113  29.155  12.061   7.064
 4199POPC   C4A54114  29.174  12.098   7.364
 4199POPC   C1B54115  28.862  12.136   6.464
 4199POPC   C2B54116  28.915  12.077   6.764
 4199POPC   C3B54117  28.886  12.136   7.064
 4199POPC   C4B54118  28.908  12.065   7.364
 4200POPC   NC354119  30.682  44.643   5.564
 4200POPC   PO454120  30.743  44.623   5.864
 4200POPC   GL154121  30.718  44.664   6.164
 4200POPC   GL254122  30.630  44.821   6.164
 4200POPC   C1A54123  30.735  44.678   6.464
 4200POPC   D2A54124  30.685  44.613   6.764
 4200POPC   C3A54125  30.701  44.672   7.064
 4200POPC   C4A54126  30.691  44.665   7.364
 4200POPC   C1B54127  30.666  44.876   6.464
 4200POPC   C2B54128  30.601  44.943   6.764
 4200POPC   C3B54129  30.625  44.875   7.064
 4200POPC   C4B54130  30.631  44.879   7.364
 4201POPC   NC354131  15.964  39.226   5.564
 4201POPC   PO454132  15.964  39.256   5.864
 4201POPC   GL154133  15.971  39.258   6.164
 4201POPC   GL254134  16.110  39.226   6.164
 4201POPC   C1A54135  15.914  39.206   6.464
 4201POPC   D2A54136  15.936  39.221   6.764
 4201POPC   C3A54137  15.927  39.273   7.064
 4201POPC   C4A54138  15.984  39.227   7.364
 4201POPC   C1B54139  16.181  39.193   6.464
 4201POPC   C2B54140  16.224  39.212   6.764
 4201POPC   C3B54141  16.237  39.188   7.064
 4201POPC   C4B54142  16.201  39.216   7.364
 4202POPC   NC354143  31.446   0.392   5.564
 4202POPC   PO454144  31.486   0.400   5.864
 4202POPC   GL154145  31.424   0.483   6.164
 4202POPC   GL254146  31.390   0.421   6.164
 4202POPC   C1A54147  31.518   0.476   6.464
 4202POPC   D2A54148  31.513   0.396   6.764
 4202POPC   C3A54149  31.519   0.423   7.064
 4202POPC   C4A54150  31.500   0.446   7.364
 4202POPC   C1B54151  31.205   0.533   6.464
 4202POPC   C2B54152  31.215   0.507   6.764
 4202POPC   C3B54153  31.251   0.467   7.064
 4202POPC   C4B54154  31.238   0.500   7.364
 4203POPC   NC354155  25.992  40.736   5.564
 4203POPC   PO454156  26.021  40.809   5.864
 4203POPC   GL154157  26.035  40.788   6.164
 4203POPC   GL254158  26.198  40.832   6.164
 4203POPC   C1A54159  26.018  40.794   6.464
 4203POPC   D2A54160  26.024  40.798   6.764
 4203POPC   C3A54161  26.031  40.803   7.064
 4203POPC   C4A54162  26.034  40.757   7.364
 4203POPC   C1B54163  26.317  40.820   6.464
 4203POPC   C2B54164  26.306  40.872   6.764
 4203POPC   C3B54165  26.321  40.876   7.064
 4203POPC   C4B54166  26.324  40.873   7.364
 4204POPC   NC354167  23.731  30.653   5.564
 4204POPC   PO454168  23.717  30.662   5.864
 4204POPC   GL154169  23.715  30.712   6.164
 4204POPC   GL254170  23.720  30.597   6.164
 4204POPC   C1A54171  23.756  30.720   6.464
 4204POPC   D2A54172  23.755  30.678   6.764
 4204POPC   C3A54173  23.737  30.733   7.064
 4204POPC   C4A54174  23.761  30.719   7.364
 4204POPC   C1B54175  23.701  30.415   6.464
 4204POPC   C2B54176  23.742  30.467   6.764
 4204POPC   C3B54177  23.765  30.432   7.064
 4204POPC   C4B54178  23.733  30.436   7.364
 4205POPC   NC354179  28.330  11.262   5.564
 4205POPC   PO454180  28.347  11.296   5.864
 4205POPC   GL154181  28.320  11.296   6.164
 4205POPC   GL254182  28.299  11.459   6.164
 4205POPC   C1A54183  28.404  11.344   6.464
 4205POPC   D2A54184  28.375  11.327   6.764
 4205POPC   C3A54185  28.404  11.288   7.064
 4205POPC   C4A54186  28.362  11.280   7.364
 4205POPC   C1B54187  28.276  11.531   6.464
 4205POPC   C2B54188  28.319  11.550   6.764
 4205POPC   C3B54189  28.273  11.545   7.064
 4205POPC   C4B54190  28.320  11.552   7.364
 4206POPC   NC354191  42.353  19.012   5.564
 4206POPC   PO454192  42.306  19.074   5.864
 4206POPC   GL154193  42.330  19.061   6.164
 4206POPC   GL254194  42.472  18.951   6.164
 4206POPC   C1A54195  42.324  19.015   6.464
 4206POPC   D2A54196  42.291  19.070   6.764
 4206POPC   C3A54197  42.306  19.069   7.064
 4206POPC   C4A54198  42.309  19.023   7.364
 4206POPC   C1B54199  42.574  18.901   6.464
 4206POPC   C2B54200  42.543  18.984   6.764
 4206POPC   C3B54201  42.570  18.927   7.064
 4206POPC   C4B54202  42.593  18.913   7.364
 4207POPC   NC354203  31.462  40.776   5.564
 4207POPC   PO454204  31.520  40.746   5.864
 4207POPC   GL154205  31.434  40.810   6.164
 4207POPC   GL254206  31.511  40.663   6.164
 4207POPC   C1A54207  31.462  40.787   6.464
 4207POPC   D2A54208  31.489  40.741   6.764
 4207POPC   C3A54209  31.434  40.773   7.064
 4207POPC   C4A54210  31.509  40.760   7.364
 4207POPC   C1B54211  31.511  40.594   6.464
 4207POPC   C2B54212  31.561  40.530   6.764
 4207POPC   C3B54213  31.588  40.562   7.064
 4207POPC   C4B54214  31.550  40.532   7.364
 4208POPC   NC354215   5.057  14.440   5.564
 4208POPC   PO454216   5.141  14.421   5.864
 4208POPC   GL154217   5.085  14.401   6.164
 4208POPC   GL254218   5.206  14.486   6.164
 4208POPC   C1A54219   5.076  14.362   6.464
 4208POPC   D2A54220   5.109  14.379   6.764
 4208POPC   C3A54221   5.117  14.360   7.064
 4208POPC   C4A54222   5.117  14.439   7.364
 4208POPC   C1B54223   5.263  14.587   6.464
 4208POPC   C2B54224   5.217  14.650   6.764
 4208POPC   C3B54225   5.248  14.577   7.064
 4208POPC   C4B54226   5.224  14.570   7.364
 4209POPC   NC354227  12.088   1.947   5.564
 4209POPC   PO454228  12.057   1.941   5.864
 4209POPC   GL154229  12.060   1.943   6.164
 4209POPC   GL254230  12.131   2.143   6.164
 4209POPC   C1A54231  12.037   2.016   6.464
 4209POPC   D2A54232  12.030   1.958   6.764
 4209POPC   C3A54233  12.120   1.982   7.064
 4209POPC   C4A54234  12.035   1.970   7.364
 4209POPC   C1B54235  12.127   2.205   6.464
 4209POPC   C2B54236  12.072   2.240   6.764
 4209POPC   C3B54237  12.148   2.201   7.064
 4209POPC   C4B54238  12.088   2.242   7.364
 4210POPC   NC354239  27.558  19.041   5.564
 4210POPC   PO454240  27.635  19.104   5.864
 4210POPC   GL154241  27.603  19.075   6.164
 4210POPC   GL254242  27.757  19.015   6.164
 4210POPC   C1A54243  27.569  19.107   6.464
 4210POPC   D2A54244  27.571  19.058   6.764
 4210POPC   C3A54245  27.609  19.093   7.064
 4210POPC   C4A54246  27.548  19.030   7.364
 4210POPC   C1B54247  27.830  18.980   6.464
 4210POPC   C2B54248  27.865  18.983   6.764
 4210POPC   C3B54249  27.792  18.970   7.064
 4210POPC   C4B54250  27.827  19.009   7.364
 4211POPC   NC354251   7.418  36.139   5.564
 4211POPC   PO454252   7.449  36.125   5.864
 4211POPC   GL154253   7.421  36.128   6.164
 4211POPC   GL254254   7.454  36.244   6.164
 4211POPC   C1A54255   7.405  36.152   6.464
 4211POPC   D2A54256   7.444  36.169   6.764
 4211POPC   C3A54257   7.397  36.174   7.064
 4211POPC   C4A54258   7.387  36.100   7.364
 4211POPC   C1B54259   7.515  36.343   6.464
 4211POPC   C2B54260   7.494  36.396   6.764
 4211POPC   C3B54261   7.510  36.317   7.064
 4211POPC   C4B54262   7.498  36.325   7.364
 4212POPC   NC354263  33.017  23.722   5.564
 4212POPC   PO454264  33.010  23.673   5.864
 4212POPC   GL154265  33.066  23.759   6.164
 4212POPC   GL254266  33.151  23.633   6.164
 4212POPC   C1A54267  33.053  23.762   6.464
 4212POPC   D2A54268  32.982  23.689   6.764
 4212POPC   C3A54269  33.037  23.737   7.064
 4212POPC   C4A54270  33.002  23.739   7.364
 4212POPC   C1B54271  33.189  23.491   6.464
 4212POPC   C2B54272  33.234  23.518   6.764
 4212POPC   C3B54273  33.169  23.530   7.064
 4212POPC   C4B54274  33.191  23.573   7.364
 4213POPC   NC354275  33.839  24.520   5.564
 4213POPC   PO454276  33.812  24.536   5.864
 4213POPC   GL154277  33.771  24.517   6.164
 4213POPC   GL254278  33.852  24.412   6.164
 4213POPC   C1A54279  33.828  24.481   6.464
 4213POPC   D2A54280  33.773  24.449   6.764
 4213POPC   C3A54281  33.844  24.485   7.064
 4213POPC   C4A54282  33.774  24.537   7.364
 4213POPC   C1B54283  33.951  24.240   6.464
 4213POPC   C2B54284  33.920  24.282   6.764
 4213POPC   C3B54285  33.876  24.258   7.064
 4213POPC   C4B54286  33.928  24.234   7.364
 4214POPC   NC354287  13.599  13.594   5.564
 4214POPC   PO454288  13.615  13.600   5.864
 4214POPC   GL154289  13.652  13.625   6.164
 4214POPC   GL254290  13.755  13.632   6.164
 4214POPC   C1A54291  13.673  13.652   6.464
 4214POPC   D2A54292  13.651  13.641   6.764
 4214POPC   C3A54293  13.638  13.674   7.064
 4214POPC   C4A54294  13.594  13.619   7.364
 4214POPC   C1B54295  13.826  13.505   6.464
 4214POPC   C2B54296  13.888  13.541   6.764
 4214POPC   C3B54297  13.838  13.599   7.064
 4214POPC   C4B54298  13.882  13.595   7.364
 4215POPC   NC354299  26.777  38.436   5.564
 4215POPC   PO454300  26.849  38.473   5.864
 4215POPC   GL154301  26.770  38.488   6.164
 4215POPC   GL254302  26.732  38.335   6.164
 4215POPC   C1A54303  26.789  38.458   6.464
 4215POPC   D2A54304  26.798  38.459   6.764
 4215POPC   C3A54305  26.799  38.465   7.064
 4215POPC   C4A54306  26.817  38.420   7.364
 4215POPC   C1B54307  26.768  38.206   6.464
 4215POPC   C2B54308  26.707  38.214   6.764
 4215POPC   C3B54309  26.750  38.215   7.064
 4215POPC   C4B54310  26.690  38.172   7.364
 4216POPC   NC354311  26.036  21.431   5.564
 4216POPC   PO454312  26.058  21.416   5.864
 4216POPC   GL154313  26.039  21.427   6.164
 4216POPC   GL254314  26.079  21.308   6.164
 4216POPC   C1A54315  26.085  21.406   6.464
 4216POPC   D2A54316  26.042  21.415   6.764
 4216POPC   C3A54317  25.994  21.434   7.064
 4216POPC   C4A54318  26.053  21.344   7.364
 4216POPC   C1B54319  26.172  21.179   6.464
 4216POPC   C2B54320  26.089  21.197   6.764
 4216POPC   C3B54321  26.077  21.134   7.064
 4216POPC   C4B54322  26.087  21.127   7.364
 4217POPC   NC354323  24.469  33.019   5.564
 4217POPC   PO454324  24.495  33.052   5.864
 4217POPC   GL154325  24.490  33.048   6.164
 4217POPC   GL254326  24.454  32.920   6.164
 4217POPC   C1A54327  24.443  33.063   6.464
 4217POPC   D2A54328  24.535  33.060   6.764
 4217POPC   C3A54329  24.466  33.025   7.064
 4217POPC   C4A54330  24.480  33.020   7.364
 4217POPC   C1B54331  24.362  32.798   6.464
 4217POPC   C2B54332  24.394  32.861   6.764
 4217POPC   C3B54333  24.372  32.849   7.064
 4217POPC   C4B54334  24.308  32.807   7.364
 4218POPC   NC354335   5.085  12.831   5.564
 4218POPC   PO454336   5.124  12.822   5.864
 4218POPC   GL154337   5.120  12.822   6.164
 4218POPC   GL254338   5.110  12.696   6.164
 4218POPC   C1A54339   5.115  12.834   6.464
 4218POPC   D2A54340   5.129  12.812   6.764
 4218POPC   C3A54341   5.089  12.805   7.064
 4218POPC   C4A54342   5.103  12.859   7.364
 4218POPC   C1B54343   5.091  12.647   6.464
 4218POPC   C2B54344   5.088  12.616   6.764
 4218POPC   C3B54345   5.035  12.650   7.064
 4218POPC   C4B54346   5.035  12.645   7.364
 4219POPC   NC354347  10.555  15.197   5.564
 4219POPC   PO454348  10.490  15.135   5.864
 4219POPC   GL154349  10.534  15.207   6.164
 4219POPC   GL254350  10.648  15.192   6.164
 4219POPC   C1A54351  10.562  15.202   6.464
 4219POPC   D2A54352  10.554  15.164   6.764
 4219POPC   C3A54353  10.490  15.162   7.064
 4219POPC   C4A54354  10.487  15.216   7.364
 4219POPC   C1B54355  10.728  15.329   6.464
 4219POPC   C2B54356  10.757  15.234   6.764
 4219POPC   C3B54357  10.752  15.319   7.064
 4219POPC   C4B54358  10.793  15.243   7.364
 4220POPC   NC354359   8.242  18.322   5.564
 4220POPC   PO454360   8.198  18.298   5.864
 4220POPC   GL154361   8.202  18.234   6.164
 4220POPC   GL254362   8.186  18.126   6.164
 4220POPC   C1A54363   8.233  18.300   6.464
 4220POPC   D2A54364   8.186  18.272   6.764
 4220POPC   C3A54365   8.206  18.244   7.064
 4220POPC   C4A54366   8.182  18.244   7.364
 4220POPC   C1B54367   8.226  18.077   6.464
 4220POPC   C2B54368   8.177  18.045   6.764
 4220POPC   C3B54369   8.205  18.035   7.064
 4220POPC   C4B54370   8.183  18.042   7.364
 4221POPC   NC354371  10.501  39.989   5.564
 4221POPC   PO454372  10.521  40.025   5.864
 4221POPC   GL154373  10.532  40.030   6.164
 4221POPC   GL254374  10.552  40.126   6.164
 4221POPC   C1A54375  10.477  40.044   6.464
 4221POPC   D2A54376  10.543  39.987   6.764
 4221POPC   C3A54377  10.479  39.965   7.064
 4221POPC   C4A54378  10.492  40.033   7.364
 4221POPC   C1B54379  10.544  40.294   6.464
 4221POPC   C2B54380  10.603  40.208   6.764
 4221POPC   C3B54381  10.576  40.290   7.064
 4221POPC   C4B54382  10.599  40.272   7.364
 4222POPC   NC354383   5.060  40.789   5.564
 4222POPC   PO454384   5.082  40.826   5.864
 4222POPC   GL154385   5.066  40.771   6.164
 4222POPC   GL254386   5.208  40.908   6.164
 4222POPC   C1A54387   5.067  40.738   6.464
 4222POPC   D2A54388   5.109  40.756   6.764
 4222POPC   C3A54389   5.080  40.735   7.064
 4222POPC   C4A54390   5.052  40.785   7.364
 4222POPC   C1B54391   5.200  40.962   6.464
 4222POPC   C2B54392   5.282  41.006   6.764
 4222POPC   C3B54393   5.282  41.009   7.064
 4222POPC   C4B54394   5.231  40.961   7.364
 4223POPC   NC354395  31.480  29.115   5.564
 4223POPC   PO454396  31.504  29.126   5.864
 4223POPC   GL154397  31.448  29.111   6.164
 4223POPC   GL254398  31.446  29.047   6.164
 4223POPC   C1A54399  31.459  29.129   6.464
 4223POPC   D2A54400  31.445  29.097   6.764
 4223POPC   C3A54401  31.491  29.177   7.064
 4223POPC   C4A54402  31.449  29.179   7.364
 4223POPC   C1B54403  31.361  28.935   6.464
 4223POPC   C2B54404  31.329  28.948   6.764
 4223POPC   C3B54405  31.351  28.947   7.064
 4223POPC   C4B54406  31.358  28.960   7.364
 4224POPC   NC354407  26.813   7.414   5.564
 4224POPC   PO454408  26.852   7.459   5.864
 4224POPC   GL154409  26.850   7.375   6.164
 4224POPC   GL254410  26.853   7.566   6.164
 4224POPC   C1A54411  26.819   7.379   6.464
 4224POPC   D2A54412  26.792   7.421   6.764
 4224POPC   C3A54413  26.854   7.383   7.064
 4224POPC   C4A54414  26.776   7.385   7.364
 4224POPC   C1B54415  26.846   7.640   6.464
 4224POPC   C2B54416  26.865   7.623   6.764
 4224POPC   C3B54417  26.822   7.668   7.064
 4224POPC   C4B54418  26.862   7.701   7.364
 4225POPC   NC354419  36.107  26.790   5.564
 4225POPC   PO454420  36.165  26.770   5.864
 4225POPC   GL154421  36.162  26.839   6.164
 4225POPC   GL254422  36.256  26.722   6.164
 4225POPC   C1A54423  36.168  26.800   6.464
 4225POPC   D2A54424  36.095  26.841   6.764
 4225POPC   C3A54425  36.127  26.779   7.064
 4225POPC   C4A54426  36.089  26.842   7.364
 4225POPC   C1B54427  36.363  26.658   6.464
 4225POPC   C2B54428  36.368  26.701   6.764
 4225POPC   C3B54429  36.302  26.694   7.064
 4225POPC   C4B54430  36.307  26.698   7.364
 4226POPC   NC354431  36.143  13.667   5.564
 4226POPC   PO454432  36.120  13.598   5.864
 4226POPC   GL154433  36.116  13.641   6.164
 4226POPC   GL254434  36.197  13.481   6.164
 4226POPC   C1A54435  36.177  13.668   6.464
 4226POPC   D2A54436  36.087  13.638   6.764
 4226POPC   C3A54437  36.105  13.636   7.064
 4226POPC   C4A54438  36.080  13.580   7.364
 4226POPC   C1B54439  36.229  13.443   6.464
 4226POPC   C2B54440  36.297  13.431   6.764
 4226POPC   C3B54441  36.305  13.392   7.064
 4226POPC   C4B54442  36.288  13.445   7.364
 4227POPC   NC354443  29.117  29.104   5.564
 4227POPC   PO454444  29.145  29.146   5.864
 4227POPC   GL154445  29.154  29.182   6.164
 4227POPC   GL254446  29.271  29.138   6.164
 4227POPC   C1A54447  29.172  29.158   6.464
 4227POPC   D2A54448  29.099  29.155   6.764
 4227POPC   C3A54449  29.162  29.127   7.064
 4227POPC   C4A54450  29.110  29.146   7.364
 4227POPC   C1B54451  29.344  29.186   6.464
 4227POPC   C2B54452  29.381  29.211   6.764
 4227POPC   C3B54453  29.403  29.221   7.064
 4227POPC   C4B54454  29.378  29.208   7.364
 4228POPC   NC354455   4.349  30.717   5.564
 4228POPC   PO454456   4.345  30.687   5.864
 4228POPC   GL154457   4.271  30.703   6.164
 4228POPC   GL254458   4.337  30.856   6.164
 4228POPC   C1A54459   4.344  30.725   6.464
 4228POPC   D2A54460   4.353  30.648   6.764
 4228POPC   C3A54461   4.275  30.679   7.064
 4228POPC   C4A54462   4.311  30.742   7.364
 4228POPC   C1B54463   4.448  30.902   6.464
 4228POPC   C2B54464   4.436  30.944   6.764
 4228POPC   C3B54465   4.397  30.910   7.064
 4228POPC   C4B54466   4.370  30.950   7.364
 4229POPC   NC354467  29.170  43.845   5.564
 4229POPC   PO454468  29.166  43.902   5.864
 4229POPC   GL154469  29.183  43.906   6.164
 4229POPC   GL254470  29.058  43.757   6.164
 4229POPC   C1A54471  29.133  43.841   6.464
 4229POPC   D2A54472  29.126  43.920   6.764
 4229POPC   C3A54473  29.103  43.877   7.064
 4229POPC   C4A54474  29.166  43.849   7.364
 4229POPC   C1B54475  28.947  43.680   6.464
 4229POPC   C2B54476  28.972  43.677   6.764
 4229POPC   C3B54477  28.977  43.759   7.064
 4229POPC   C4B54478  28.938  43.720   7.364
 4230POPC   NC354479  10.559  22.148   5.564
 4230POPC   PO454480  10.527  22.179   5.864
 4230POPC   GL154481  10.572  22.144   6.164
 4230POPC   GL254482  10.390  22.219   6.164
 4230POPC   C1A54483  10.492  22.173   6.464
 4230POPC   D2A54484  10.538  22.134   6.764
 4230POPC   C3A54485  10.492  22.205   7.064
 4230POPC   C4A54486  10.571  22.196   7.364
 4230POPC   C1B54487  10.296  22.287   6.464
 4230POPC   C2B54488  10.265  22.335   6.764
 4230POPC   C3B54489  10.317  22.294   7.064
 4230POPC   C4B54490  10.310  22.331   7.364
 4231POPC   NC354491  34.530   7.391   5.564
 4231POPC   PO454492  34.585   7.396   5.864
 4231POPC   GL154493  34.579   7.396   6.164
 4231POPC   GL254494  34.646   7.351   6.164
 4231POPC   C1A54495  34.616   7.447   6.464
 4231POPC   D2A54496  34.553   7.403   6.764
 4231POPC   C3A54497  34.572   7.417   7.064
 4231POPC   C4A54498  34.554   7.406   7.364
 4231POPC   C1B54499  34.732   7.264   6.464
 4231POPC   C2B54500  34.706   7.267   6.764
 4231POPC   C3B54501  34.715   7.236   7.064
 4231POPC   C4B54502  34.790   7.196   7.364
 4232POPC   NC354503  35.357   3.573   5.564
 4232POPC   PO454504  35.326   3.558   5.864
 4232POPC   GL154505  35.307   3.567   6.164
 4232POPC   GL254506  35.353   3.447   6.164
 4232POPC   C1A54507  35.320   3.591   6.464
 4232POPC   D2A54508  35.398   3.505   6.764
 4232POPC   C3A54509  35.330   3.563   7.064
 4232POPC   C4A54510  35.382   3.516   7.364
 4232POPC   C1B54511  35.359   3.304   6.464
 4232POPC   C2B54512  35.338   3.260   6.764
 4232POPC   C3B54513  35.340   3.327   7.064
 4232POPC   C4B54514  35.324   3.255   7.364
 4233POPC   NC354515   5.055  23.682   5.564
 4233POPC   PO454516   5.050  23.703   5.864
 4233POPC   GL154517   5.114  23.687   6.164
 4233POPC   GL254518   5.067  23.570   6.164
 4233POPC   C1A54519   5.116  23.685   6.464
 4233POPC   D2A54520   5.132  23.723   6.764
 4233POPC   C3A54521   5.118  23.687   7.064
 4233POPC   C4A54522   5.054  23.733   7.364
 4233POPC   C1B54523   5.039  23.430   6.464
 4233POPC   C2B54524   5.107  23.453   6.764
 4233POPC   C3B54525   5.089  23.501   7.064
 4233POPC   C4B54526   5.095  23.478   7.364
 4234POPC   NC354527  15.971  31.463   5.564
 4234POPC   PO454528  15.932  31.492   5.864
 4234POPC   GL154529  15.945  31.461   6.164
 4234POPC   GL254530  15.835  31.423   6.164
 4234POPC   C1A54531  15.916  31.464   6.464
 4234POPC   D2A54532  15.984  31.505   6.764
 4234POPC   C3A54533  15.972  31.504   7.064
 4234POPC   C4A54534  15.937  31.424   7.364
 4234POPC   C1B54535  15.713  31.417   6.464
 4234POPC   C2B54536  15.757  31.366   6.764
 4234POPC   C3B54537  15.714  31.415   7.064
 4234POPC   C4B54538  15.681  31.363   7.364
 4235POPC   NC354539   9.728  13.596   5.564
 4235POPC   PO454540   9.774  13.660   5.864
 4235POPC   GL154541   9.751  13.628   6.164
 4235POPC   GL254542   9.718  13.728   6.164
 4235POPC   C1A54543   9.751  13.633   6.464
 4235POPC   D2A54544   9.730  13.608   6.764
 4235POPC   C3A54545   9.717  13.667   7.064
 4235POPC   C4A54546   9.772  13.615   7.364
 4235POPC   C1B54547   9.615  13.771   6.464
 4235POPC   C2B54548   9.592  13.854   6.764
 4235POPC   C3B54549   9.610  13.792   7.064
 4235POPC   C4B54550   9.561  13.834   7.364
 4236POPC   NC354551   8.154   2.772   5.564
 4236POPC   PO454552   8.203   2.738   5.864
 4236POPC   GL154553   8.171   2.753   6.164
 4236POPC   GL254554   8.217   2.895   6.164
 4236POPC   C1A54555   8.178   2.742   6.464
 4236POPC   D2A54556   8.189   2.738   6.764
 4236POPC   C3A54557   8.230   2.735   7.064
 4236POPC   C4A54558   8.211   2.716   7.364
 4236POPC   C1B54559   8.273   2.999   6.464
 4236POPC   C2B54560   8.244   3.051   6.764
 4236POPC   C3B54561   8.178   3.009   7.064
 4236POPC   C4B54562   8.270   2.972   7.364
 4237POPC   NC354563  19.089   5.070   5.564
 4237POPC   PO454564  19.010   5.110   5.864
 4237POPC   GL154565  19.020   5.128   6.164
 4237POPC   GL254566  19.211   5.074   6.164
 4237POPC   C1A54567  19.045   5.125   6.464
 4237POPC   D2A54568  19.040   5.056   6.764
 4237POPC   C3A54569  19.040   5.060   7.064
 4237POPC   C4A54570  19.096   5.081   7.364
 4237POPC   C1B54571  19.280   5.082   6.464
 4237POPC   C2B54572  19.309   5.102   6.764
 4237POPC   C3B54573  19.318   5.135   7.064
 4237POPC   C4B54574  19.354   5.117   7.364
 4238POPC   NC354575  36.167   7.400   5.564
 4238POPC   PO454576  36.104   7.459   5.864
 4238POPC   GL154577  36.123   7.376   6.164
 4238POPC   GL254578  36.212   7.447   6.164
 4238POPC   C1A54579  36.091   7.461   6.464
 4238POPC   D2A54580  36.129   7.442   6.764
 4238POPC   C3A54581  36.119   7.404   7.064
 4238POPC   C4A54582  36.158   7.434   7.364
 4238POPC   C1B54583  36.344   7.492   6.464
 4238POPC   C2B54584  36.363   7.466   6.764
 4238POPC   C3B54585  36.368   7.463   7.064
 4238POPC   C4B54586  36.384   7.461   7.364
 4239POPC   NC354587   1.209  27.573   5.564
 4239POPC   PO454588   1.197  27.585   5.864
 4239POPC   GL154589   1.190  27.586   6.164
 4239POPC   GL254590   1.357  27.640   6.164
 4239POPC   C1A54591   1.207  27.626   6.464
 4239POPC   D2A54592   1.198  27.610   6.764
 4239POPC   C3A54593   1.197  27.554   7.064
 4239POPC   C4A54594   1.250  27.591   7.364
 4239POPC   C1B54595   1.425  27.641   6.464
 4239POPC   C2B54596   1.461  27.576   6.764
 4239POPC   C3B54597   1.482  27.589   7.064
 4239POPC   C4B54598   1.422  27.633   7.364
 4240POPC   NC354599  26.845  16.763   5.564
 4240POPC   PO454600  26.836  16.695   5.864
 4240POPC   GL154601  26.773  16.726   6.164
 4240POPC   GL254602  26.703  16.714   6.164
 4240POPC   C1A54603  26.852  16.728   6.464
 4240POPC   D2A54604  26.788  16.698   6.764
 4240POPC   C3A54605  26.796  16.706   7.064
 4240POPC   C4A54606  26.807  16.778   7.364
 4240POPC   C1B54607  26.618  16.678   6.464
 4240POPC   C2B54608  26.582  16.733   6.764
 4240POPC   C3B54609  26.545  16.732   7.064
 4240POPC   C4B54610  26.525  16.657   7.364
 4241POPC   NC354611  28.329  36.930   5.564
 4241POPC   PO454612  28.361  36.888   5.864
 4241POPC   GL154613  28.334  36.903   6.164
 4241POPC   GL254614  28.212  36.950   6.164
 4241POPC   C1A54615  28.385  36.908   6.464
 4241POPC   D2A54616  28.404  36.881   6.764
 4241POPC   C3A54617  28.371  36.875   7.064
 4241POPC   C4A54618  28.383  36.902   7.364
 4241POPC   C1B54619  28.104  36.992   6.464
 4241POPC   C2B54620  28.146  36.954   6.764
 4241POPC   C3B54621  28.165  36.993   7.064
 4241POPC   C4B54622  28.121  36.959   7.364
 4242POPC   NC354623   7.386   3.546   5.564
 4242POPC   PO454624   7.438   3.539   5.864
 4242POPC   GL154625   7.377   3.562   6.164
 4242POPC   GL254626   7.540   3.560   6.164
 4242POPC   C1A54627   7.388   3.587   6.464
 4242POPC   D2A54628   7.382   3.527   6.764
 4242POPC   C3A54629   7.448   3.492   7.064
 4242POPC   C4A54630   7.389   3.521   7.364
 4242POPC   C1B54631   7.618   3.659   6.464
 4242POPC   C2B54632   7.627   3.626   6.764
 4242POPC   C3B54633   7.683   3.644   7.064
 4242POPC   C4B54634   7.676   3.710   7.364
 4243POPC   NC354635  43.112  24.449   5.564
 4243POPC   PO454636  43.080  24.492   5.864
 4243POPC   GL154637  43.152  24.531   6.164
 4243POPC   GL254638  42.976  24.397   6.164
 4243POPC   C1A54639  43.146  24.495   6.464
 4243POPC   D2A54640  43.116  24.447   6.764
 4243POPC   C3A54641  43.117  24.441   7.064
 4243POPC   C4A54642  43.076  24.486   7.364
 4243POPC   C1B54643  42.902  24.310   6.464
 4243POPC   C2B54644  42.884  24.330   6.764
 4243POPC   C3B54645  42.960  24.368   7.064
 4243POPC   C4B54646  42.878  24.338   7.364
 4244POPC   NC354647  43.075  33.765   5.564
 4244POPC   PO454648  43.088  33.768   5.864
 4244POPC   GL154649  43.156  33.813   6.164
 4244POPC   GL254650  43.034  33.798   6.164
 4244POPC   C1A54651  43.160  33.806   6.464
 4244POPC   D2A54652  43.085  33.772   6.764
 4244POPC   C3A54653  43.086  33.825   7.064
 4244POPC   C4A54654  43.068  33.774   7.364
 4244POPC   C1B54655  42.887  33.793   6.464
 4244POPC   C2B54656  42.865  33.758   6.764
 4244POPC   C3B54657  42.832  33.791   7.064
 4244POPC   C4B54658  42.854  33.750   7.364
 4245POPC   NC354659  15.168   8.212   5.564
 4245POPC   PO454660  15.182   8.209   5.864
 4245POPC   GL154661  15.174   8.190   6.164
 4245POPC   GL254662  15.306   8.173   6.164
 4245POPC   C1A54663  15.133   8.148   6.464
 4245POPC   D2A54664  15.216   8.164   6.764
 4245POPC   C3A54665  15.170   8.203   7.064
 4245POPC   C4A54666  15.193   8.156   7.364
 4245POPC   C1B54667  15.406   8.191   6.464
 4245POPC   C2B54668  15.390   8.216   6.764
 4245POPC   C3B54669  15.435   8.188   7.064
 4245POPC   C4B54670  15.390   8.170   7.364
 4246POPC   NC354671  36.079  21.351   5.564
 4246POPC   PO454672  36.091  21.368   5.864
 4246POPC   GL154673  36.148  21.430   6.164
 4246POPC   GL254674  36.232  21.468   6.164
 4246POPC   C1A54675  36.090  21.396   6.464
 4246POPC   D2A54676  36.166  21.422   6.764
 4246POPC   C3A54677  36.129  21.431   7.064
 4246POPC   C4A54678  36.120  21.408   7.364
 4246POPC   C1B54679  36.337  21.492   6.464
 4246POPC   C2B54680  36.303  21.545   6.764
 4246POPC   C3B54681  36.369  21.553   7.064
 4246POPC   C4B54682  36.360  21.556   7.364
 4247POPC   NC354683  26.011  39.993   5.564
 4247POPC   PO454684  26.051  39.994   5.864
 4247POPC   GL154685  26.043  40.015   6.164
 4247POPC   GL254686  25.964  39.949   6.164
 4247POPC   C1A54687  26.040  39.987   6.464
 4247POPC   D2A54688  26.005  39.978   6.764
 4247POPC   C3A54689  26.029  39.966   7.064
 4247POPC   C4A54690  26.038  40.041   7.364
 4247POPC   C1B54691  25.753  39.976   6.464
 4247POPC   C2B54692  25.764  39.915   6.764
 4247POPC   C3B54693  25.820  39.961   7.064
 4247POPC   C4B54694  25.752  39.980   7.364
 4248POPC   NC354695  36.106   0.417   5.564
 4248POPC   PO454696  36.101   0.406   5.864
 4248POPC   GL154697  36.115   0.416   6.164
 4248POPC   GL254698  36.077   0.591   6.164
 4248POPC   C1A54699  36.095   0.455   6.464
 4248POPC   D2A54700  36.147   0.449   6.764
 4248POPC   C3A54701  36.126   0.483   7.064
 4248POPC   C4A54702  36.124   0.407   7.364
 4248POPC   C1B54703  36.143   0.728   6.464
 4248POPC   C2B54704  36.090   0.725   6.764
 4248POPC   C3B54705  36.095   0.719   7.064
 4248POPC   C4B54706  36.113   0.727   7.364
 4249POPC   NC354707  23.671  29.909   5.564
 4249POPC   PO454708  23.678  29.935   5.864
 4249POPC   GL154709  23.703  29.917   6.164
 4249POPC   GL254710  23.575  29.895   6.164
 4249POPC   C1A54711  23.742  29.920   6.464
 4249POPC   D2A54712  23.702  29.895   6.764
 4249POPC   C3A54713  23.739  29.873   7.064
 4249POPC   C4A54714  23.688  29.918   7.364
 4249POPC   C1B54715  23.482  29.916   6.464
 4249POPC   C2B54716  23.450  29.959   6.764
 4249POPC   C3B54717  23.417  29.905   7.064
 4249POPC   C4B54718  23.453  29.918   7.364
 4250POPC   NC354719  44.638   2.027   5.564
 4250POPC   PO454720  44.669   2.035   5.864
 4250POPC   GL154721  44.624   1.968   6.164
 4250POPC   GL254722  44.568   2.049   6.164
 4250POPC   C1A54723  44.624   1.991   6.464
 4250POPC   D2A54724  44.710   1.989   6.764
 4250POPC   C3A54725  44.664   2.017   7.064
 4250POPC   C4A54726  44.697   2.014   7.364
 4250POPC   C1B54727  44.492   2.195   6.464
 4250POPC   C2B54728  44.466   2.191   6.764
 4250POPC   C3B54729  44.471   2.142   7.064
 4250POPC   C4B54730  44.429   2.098   7.364
 4251POPC   NC354731  32.274  32.250   5.564
 4251POPC   PO454732  32.292  32.284   5.864
 4251POPC   GL154733  32.206  32.255   6.164
 4251POPC   GL254734  32.100  32.200   6.164
 4251POPC   C1A54735  32.236  32.229   6.464
 4251POPC   D2A54736  32.222  32.271   6.764
 4251POPC   C3A54737  32.296  32.245   7.064
 4251POPC   C4A54738  32.224  32.211   7.364
 4251POPC   C1B54739  31.979  32.198   6.464
 4251POPC   C2B54740  32.027  32.264   6.764
 4251POPC   C3B54741  32.039  32.247   7.064
 4251POPC   C4B54742  31.975  32.259   7.364
 4252POPC   NC354743  43.143  22.152   5.564
 4252POPC   PO454744  43.100  22.140   5.864
 4252POPC   GL154745  43.118  22.171   6.164
 4252POPC   GL254746  43.071  22.075   6.164
 4252POPC   C1A54747  43.085  22.116   6.464
 4252POPC   D2A54748  43.107  22.128   6.764
 4252POPC   C3A54749  43.093  22.188   7.064
 4252POPC   C4A54750  43.120  22.122   7.364
 4252POPC   C1B54751  42.960  21.899   6.464
 4252POPC   C2B54752  43.046  21.983   6.764
 4252POPC   C3B54753  43.003  21.915   7.064
 4252POPC   C4B54754  42.974  21.950   7.364
 4253POPC   NC354755  36.177  14.440   5.564
 4253POPC   PO454756  36.130  14.378   5.864
 4253POPC   GL154757  36.126  14.358   6.164
 4253POPC   GL254758  36.005  14.364   6.164
 4253POPC   C1A54759  36.111  14.373   6.464
 4253POPC   D2A54760  36.113  14.421   6.764
 4253POPC   C3A54761  36.079  14.371   7.064
 4253POPC   C4A54762  36.161  14.398   7.364
 4253POPC   C1B54763  35.886  14.418   6.464
 4253POPC   C2B54764  35.854  14.333   6.764
 4253POPC   C3B54765  35.925  14.370   7.064
 4253POPC   C4B54766  35.906  14.343   7.364
 4254POPC   NC354767  15.189  37.645   5.564
 4254POPC   PO454768  15.208  37.714   5.864
 4254POPC   GL154769  15.184  37.710   6.164
 4254POPC   GL254770  15.072  37.779   6.164
 4254POPC   C1A54771  15.213  37.642   6.464
 4254POPC   D2A54772  15.182  37.655   6.764
 4254POPC   C3A54773  15.129  37.651   7.064
 4254POPC   C4A54774  15.145  37.679   7.364
 4254POPC   C1B54775  14.960  37.783   6.464
 4254POPC   C2B54776  14.990  37.768   6.764
 4254POPC   C3B54777  15.006  37.830   7.064
 4254POPC   C4B54778  14.978  37.762   7.364
 4255POPC   NC354779  27.595  15.142   5.564
 4255POPC   PO454780  27.602  15.187   5.864
 4255POPC   GL154781  27.599  15.159   6.164
 4255POPC   GL254782  27.680  15.161   6.164
 4255POPC   C1A54783  27.572  15.133   6.464
 4255POPC   D2A54784  27.601  15.199   6.764
 4255POPC   C3A54785  27.632  15.218   7.064
 4255POPC   C4A54786  27.588  15.155   7.364
 4255POPC   C1B54787  27.755  15.050   6.464
 4255POPC   C2B54788  27.766  15.055   6.764
 4255POPC   C3B54789  27.787  15.018   7.064
 4255POPC   C4B54790  27.809  15.091   7.364
 4256POPC   NC354791   5.857  19.827   5.564
 4256POPC   PO454792   5.832  19.829   5.864
 4256POPC   GL154793   5.826  19.797   6.164
 4256POPC   GL254794   5.736  19.854   6.164
 4256POPC   C1A54795   5.861  19.844   6.464
 4256POPC   D2A54796   5.879  19.822   6.764
 4256POPC   C3A54797   5.848  19.854   7.064
 4256POPC   C4A54798   5.845  19.851   7.364
 4256POPC   C1B54799   5.631  19.919   6.464
 4256POPC   C2B54800   5.608  19.967   6.764
 4256POPC   C3B54801   5.627  19.929   7.064
 4256POPC   C4B54802   5.613  19.950   7.364
 4257POPC   NC354803  35.378   7.429   5.564
 4257POPC   PO454804  35.322   7.405   5.864
 4257POPC   GL154805  35.329   7.438   6.164
 4257POPC   GL254806  35.338   7.559   6.164
 4257POPC   C1A54807  35.339   7.383   6.464
 4257POPC   D2A54808  35.347   7.371   6.764
 4257POPC   C3A54809  35.330   7.423   7.064
 4257POPC   C4A54810  35.375   7.442   7.364
 4257POPC   C1B54811  35.359   7.652   6.464
 4257POPC   C2B54812  35.341   7.720   6.764
 4257POPC   C3B54813  35.380   7.690   7.064
 4257POPC   C4B54814  35.384   7.633   7.364
 4258POPC   NC354815  40.007  43.068   5.564
 4258POPC   PO454816  40.006  43.071   5.864
 4258POPC   GL154817  39.972  43.092   6.164
 4258POPC   GL254818  40.089  43.089   6.164
 4258POPC   C1A54819  40.039  43.127   6.464
 4258POPC   D2A54820  39.983  43.061   6.764
 4258POPC   C3A54821  39.998  43.091   7.064
 4258POPC   C4A54822  39.961  43.068   7.364
 4258POPC   C1B54823  40.221  43.026   6.464
 4258POPC   C2B54824  40.263  42.979   6.764
 4258POPC   C3B54825  40.214  42.981   7.064
 4258POPC   C4B54826  40.206  43.011   7.364
 4259POPC   NC354827  33.030  29.149   5.564
 4259POPC   PO454828  33.004  29.118   5.864
 4259POPC   GL154829  33.021  29.171   6.164
 4259POPC   GL254830  33.068  29.178   6.164
 4259POPC   C1A54831  32.996  29.162   6.464
 4259POPC   D2A54832  33.069  29.193   6.764
 4259POPC   C3A54833  33.001  29.190   7.064
 4259POPC   C4A54834  33.034  29.141   7.364
 4259POPC   C1B54835  33.213  29.351   6.464
 4259POPC   C2B54836  33.203  29.342   6.764
 4259POPC   C3B54837  33.185  29.270   7.064
 4259POPC   C4B54838  33.236  29.317   7.364
 4260POPC   NC354839  19.797   8.194   5.564
 4260POPC   PO454840  19.823   8.247   5.864
 4260POPC   GL154841  19.828   8.203   6.164
 4260POPC   GL254842  19.961   8.072   6.164
 4260POPC   C1A54843  19.791   8.187   6.464
 4260POPC   D2A54844  19.873   8.151   6.764
 4260POPC   C3A54845  19.884   8.149   7.064
 4260POPC   C4A54846  19.800   8.171   7.364
 4260POPC   C1B54847  20.008   8.064   6.464
 4260POPC   C2B54848  20.003   8.037   6.764
 4260POPC   C3B54849  20.042   7.993   7.064
 4260POPC   C4B54850  19.994   7.982   7.364
 4261POPC   NC354851   5.068  40.021   5.564
 4261POPC   PO454852   5.050  39.993   5.864
 4261POPC   GL154853   5.107  39.970   6.164
 4261POPC   GL254854   5.183  40.047   6.164
 4261POPC   C1A54855   5.064  40.033   6.464
 4261POPC   D2A54856   5.107  40.031   6.764
 4261POPC   C3A54857   5.132  40.029   7.064
 4261POPC   C4A54858   5.128  40.037   7.364
 4261POPC   C1B54859   5.322  40.179   6.464
 4261POPC   C2B54860   5.274  40.131   6.764
 4261POPC   C3B54861   5.339  40.153   7.064
 4261POPC   C4B54862   5.337  40.162   7.364
 4262POPC   NC354863  44.643   5.121   5.564
 4262POPC   PO454864  44.629   5.118   5.864
 4262POPC   GL154865  44.627   5.075   6.164
 4262POPC   GL254866  44.640   5.236   6.164
 4262POPC   C1A54867  44.673   5.122   6.464
 4262POPC   D2A54868  44.699   5.091   6.764
 4262POPC   C3A54869  44.627   5.115   7.064
 4262POPC   C4A54870  44.653   5.082   7.364
 4262POPC   C1B54871  44.541   5.356   6.464
 4262POPC   C2B54872  44.549   5.321   6.764
 4262POPC   C3B54873  44.501   5.278   7.064
 4262POPC   C4B54874  44.580   5.350   7.364
 4263POPC   NC354875  37.720  18.254   5.564
 4263POPC   PO454876  37.722  18.260   5.864
 4263POPC   GL154877  37.654  18.287   6.164
 4263POPC   GL254878  37.779  18.358   6.164
 4263POPC   C1A54879  37.705  18.317   6.464
 4263POPC   D2A54880  37.658  18.283   6.764
 4263POPC   C3A54881  37.658  18.327   7.064
 4263POPC   C4A54882  37.643  18.293   7.364
 4263POPC   C1B54883  37.808  18.454   6.464
 4263POPC   C2B54884  37.835  18.479   6.764
 4263POPC   C3B54885  37.864  18.449   7.064
 4263POPC   C4B54886  37.837  18.435   7.364
 4264POPC   NC354887  22.908  32.236   5.564
 4264POPC   PO454888  22.894  32.223   5.864
 4264POPC   GL154889  22.953  32.216   6.164
 4264POPC   GL254890  22.839  32.380   6.164
 4264POPC   C1A54891  22.960  32.298   6.464
 4264POPC   D2A54892  22.971  32.202   6.764
 4264POPC   C3A54893  22.920  32.212   7.064
 4264POPC   C4A54894  22.959  32.206   7.364
 4264POPC   C1B54895  22.727  32.398   6.464
 4264POPC   C2B54896  22.750  32.466   6.764
 4264POPC   C3B54897  22.812  32.426   7.064
 4264POPC   C4B54898  22.741  32.389   7.364
 4265POPC   NC354899  42.289   5.898   5.564
 4265POPC   PO454900  42.328   5.853   5.864
 4265POPC   GL154901  42.291   5.825   6.164
 4265POPC   GL254902  42.264   5.830   6.164
 4265POPC   C1A54903  42.334   5.846   6.464
 4265POPC   D2A54904  42.290   5.833   6.764
 4265POPC   C3A54905  42.364   5.910   7.064
 4265POPC   C4A54906  42.324   5.918   7.364
 4265POPC   C1B54907  42.142   5.822   6.464
 4265POPC   C2B54908  42.146   5.806   6.764
 4265POPC   C3B54909  42.130   5.781   7.064
 4265POPC   C4B54910  42.151   5.817   7.364
 4266POPC   NC354911  33.785  41.588   5.564
 4266POPC   PO454912  33.778  41.544   5.864
 4266POPC   GL154913  33.781  41.533   6.164
 4266POPC   GL254914  33.903  41.523   6.164
 4266POPC   C1A54915  33.849  41.571   6.464
 4266POPC   D2A54916  33.778  41.535   6.764
 4266POPC   C3A54917  33.845  41.585   7.064
 4266POPC   C4A54918  33.799  41.534   7.364
 4266POPC   C1B54919  34.088  41.630   6.464
 4266POPC   C2B54920  34.013  41.568   6.764
 4266POPC   C3B54921  34.007  41.561   7.064
 4266POPC   C4B54922  34.011  41.567   7.364
 4267POPC   NC354923  40.804  13.660   5.564
 4267POPC   PO454924  40.810  13.665   5.864
 4267POPC   GL154925  40.820  13.650   6.164
 4267POPC   GL254926  40.744  13.681   6.164
 4267POPC   C1A54927  40.779  13.651   6.464
 4267POPC   D2A54928  40.790  13.674   6.764
 4267POPC   C3A54929  40.736  13.592   7.064
 4267POPC   C4A54930  40.817  13.647   7.364
 4267POPC   C1B54931  40.673  13.799   6.464
 4267POPC   C2B54932  40.670  13.820   6.764
 4267POPC   C3B54933  40.665  13.791   7.064
 4267POPC   C4B54934  40.595  13.858   7.364
 4268POPC   NC354935  12.854  41.525   5.564
 4268POPC   PO454936  12.883  41.571   5.864
 4268POPC   GL154937  12.823  41.518   6.164
 4268POPC   GL254938  12.895  41.424   6.164
 4268POPC   C1A54939  12.805  41.545   6.464
 4268POPC   D2A54940  12.824  41.567   6.764
 4268POPC   C3A54941  12.869  41.565   7.064
 4268POPC   C4A54942  12.838  41.556   7.364
 4268POPC   C1B54943  12.844  41.335   6.464
 4268POPC   C2B54944  12.839  41.332   6.764
 4268POPC   C3B54945  12.837  41.268   7.064
 4268POPC   C4B54946  12.860  41.266   7.364
 4269POPC   NC354947  10.521  15.968   5.564
 4269POPC   PO454948  10.535  16.005   5.864
 4269POPC   GL154949  10.545  15.954   6.164
 4269POPC   GL254950  10.415  16.049   6.164
 4269POPC   C1A54951  10.560  16.000   6.464
 4269POPC   D2A54952  10.557  15.981   6.764
 4269POPC   C3A54953  10.480  15.908   7.064
 4269POPC   C4A54954  10.545  15.963   7.364
 4269POPC   C1B54955  10.367  16.099   6.464
 4269POPC   C2B54956  10.390  16.166   6.764
 4269POPC   C3B54957  10.325  16.092   7.064
 4269POPC   C4B54958  10.361  16.101   7.364
 4270POPC   NC354959   2.779  31.497   5.564
 4270POPC   PO454960   2.801  31.506   5.864
 4270POPC   GL154961   2.762  31.468   6.164
 4270POPC   GL254962   2.699  31.373   6.164
 4270POPC   C1A54963   2.762  31.515   6.464
 4270POPC   D2A54964   2.756  31.426   6.764
 4270POPC   C3A54965   2.803  31.476   7.064
 4270POPC   C4A54966   2.768  31.497   7.364
 4270POPC   C1B54967   2.613  31.296   6.464
 4270POPC   C2B54968   2.625  31.298   6.764
 4270POPC   C3B54969   2.610  31.297   7.064
 4270POPC   C4B54970   2.640  31.285   7.364
 4271POPC   NC354971   6.684  24.529   5.564
 4271POPC   PO454972   6.620  24.448   5.864
 4271POPC   GL154973   6.654  24.488   6.164
 4271POPC   GL254974   6.778  24.485   6.164
 4271POPC   C1A54975   6.607  24.538   6.464
 4271POPC   D2A54976   6.651  24.476   6.764
 4271POPC   C3A54977   6.645  24.448   7.064
 4271POPC   C4A54978   6.628  24.523   7.364
 4271POPC   C1B54979   6.875  24.422   6.464
 4271POPC   C2B54980   6.916  24.438   6.764
 4271POPC   C3B54981   6.911  24.416   7.064
 4271POPC   C4B54982   6.871  24.402   7.364
 4272POPC   NC354983  15.223  41.524   5.564
 4272POPC   PO454984  15.163  41.598   5.864
 4272POPC   GL154985  15.140  41.526   6.164
 4272POPC   GL254986  15.269  41.470   6.164
 4272POPC   C1A54987  15.179  41.516   6.464
 4272POPC   D2A54988  15.195  41.557   6.764
 4272POPC   C3A54989  15.172  41.582   7.064
 4272POPC   C4A54990  15.137  41.607   7.364
 4272POPC   C1B54991  15.413  41.372   6.464
 4272POPC   C2B54992  15.412  41.465   6.764
 4272POPC   C3B54993  15.351  41.424   7.064
 4272POPC   C4B54994  15.367  41.401   7.364
 4273POPC   NC354995   8.246  39.260   5.564
 4273POPC   PO454996   8.216  39.229   5.864
 4273POPC   GL154997   8.226  39.183   6.164
 4273POPC   GL254998   8.088  39.216   6.164
 4273POPC   C1A54999   8.220  39.236   6.464
 4273POPC   D2A55000   8.179  39.218   6.764
 4273POPC   C3A55001   8.181  39.232   7.064
 4273POPC   C4A55002   8.198  39.181   7.364
 4273POPC   C1B55003   7.958  39.272   6.464
 4273POPC   C2B55004   7.946  39.243   6.764
 4273POPC   C3B55005   7.911  39.325   7.064
 4273POPC   C4B55006   7.908  39.276   7.364
 4274POPC   NC355007  33.028  43.160   5.564
 4274POPC   PO455008  33.027  43.125   5.864
 4274POPC   GL155009  32.992  43.085   6.164
 4274POPC   GL255010  33.164  43.027   6.164
 4274POPC   C1A55011  33.030  43.062   6.464
 4274POPC   D2A55012  33.023  43.112   6.764
 4274POPC   C3A55013  32.986  43.104   7.064
 4274POPC   C4A55014  33.041  43.148   7.364
 4274POPC   C1B55015  33.287  43.049   6.464
 4274POPC   C2B55016  33.233  43.025   6.764
 4274POPC   C3B55017  33.289  43.002   7.064
 4274POPC   C4B55018  33.273  43.023   7.364
 4275POPC   NC355019  17.462  32.974   5.564
 4275POPC   PO455020  17.519  33.061   5.864
 4275POPC   GL155021  17.463  33.034   6.164
 4275POPC   GL255022  17.604  32.920   6.164
 4275POPC   C1A55023  17.485  33.019   6.464
 4275POPC   D2A55024  17.482  32.994   6.764
 4275POPC   C3A55025  17.526  33.055   7.064
 4275POPC   C4A55026  17.493  33.065   7.364
 4275POPC   C1B55027  17.690  32.866   6.464
 4275POPC   C2B55028  17.642  32.793   6.764
 4275POPC   C3B55029  17.688  32.856   7.064
 4275POPC   C4B55030  17.690  32.851   7.364
 4276POPC   NC355031   9.709  27.639   5.564
 4276POPC   PO455032   9.763  27.543   5.864
 4276POPC   GL155033   9.699  27.567   6.164
 4276POPC   GL255034   9.654  27.653   6.164
 4276POPC   C1A55035   9.759  27.578   6.464
 4276POPC   D2A55036   9.740  27.614   6.764
 4276POPC   C3A55037   9.761  27.597   7.064
 4276POPC   C4A55038   9.754  27.602   7.364
 4276POPC   C1B55039   9.652  27.816   6.464
 4276POPC   C2B55040   9.633  27.852   6.764
 4276POPC   C3B55041   9.606  27.769   7.064
 4276POPC   C4B55042   9.632  27.802   7.364
 4277POPC   NC355043  42.342  42.380   5.564
 4277POPC   PO455044  42.316  42.305   5.864
 4277POPC   GL155045  42.319  42.322   6.164
 4277POPC   GL255046  42.429  42.419   6.164
 4277POPC   C1A55047  42.331  42.377   6.464
 4277POPC   D2A55048  42.330  42.356   6.764
 4277POPC   C3A55049  42.306  42.329   7.064
 4277POPC   C4A55050  42.327  42.369   7.364
 4277POPC   C1B55051  42.551  42.546   6.464
 4277POPC   C2B55052  42.536  42.486   6.764
 4277POPC   C3B55053  42.539  42.481   7.064
 4277POPC   C4B55054  42.472  42.500   7.364
 4278POPC   NC355055   6.645  26.000   5.564
 4278POPC   PO455056   6.639  26.064   5.864
 4278POPC   GL155057   6.661  26.008   6.164
 4278POPC   GL255058   6.539  26.098   6.164
 4278POPC   C1A55059   6.613  26.061   6.464
 4278POPC   D2A55060   6.628  26.067   6.764
 4278POPC   C3A55061   6.688  26.008   7.064
 4278POPC   C4A55062   6.631  26.053   7.364
 4278POPC   C1B55063   6.505  26.247   6.464
 4278POPC   C2B55064   6.513  26.214   6.764
 4278POPC   C3B55065   6.452  26.177   7.064
 4278POPC   C4B55066   6.440  26.254   7.364
 4279POPC   NC355067  27.599   1.200   5.564
 4279POPC   PO455068  27.608   1.255   5.864
 4279POPC   GL155069  27.548   1.217   6.164
 4279POPC   GL255070  27.698   1.194   6.164
 4279POPC   C1A55071  27.639   1.219   6.464
 4279POPC   D2A55072  27.566   1.235   6.764
 4279POPC   C3A55073  27.612   1.197   7.064
 4279POPC   C4A55074  27.603   1.171   7.364
 4279POPC   C1B55075  27.804   1.157   6.464
 4279POPC   C2B55076  27.838   1.194   6.764
 4279POPC   C3B55077  27.864   1.169   7.064
 4279POPC   C4B55078  27.794   1.160   7.364
 4280POPC   NC355079   6.679  21.372   5.564
 4280POPC   PO455080   6.626  21.343   5.864
 4280POPC   GL155081   6.658  21.338   6.164
 4280POPC   GL255082   6.656  21.481   6.164
 4280POPC   C1A55083   6.652  21.342   6.464
 4280POPC   D2A55084   6.694  21.394   6.764
 4280POPC   C3A55085   6.667  21.361   7.064
 4280POPC   C4A55086   6.685  21.433   7.364
 4280POPC   C1B55087   6.728  21.646   6.464
 4280POPC   C2B55088   6.712  21.605   6.764
 4280POPC   C3B55089   6.745  21.639   7.064
 4280POPC   C4B55090   6.791  21.617   7.364
 4281POPC   NC355091  17.477  38.411   5.564
 4281POPC   PO455092  17.466  38.442   5.864
 4281POPC   GL155093  17.511  38.448   6.164
 4281POPC   GL255094  17.574  38.442   6.164
 4281POPC   C1A55095  17.511  38.433   6.464
 4281POPC   D2A55096  17.531  38.407   6.764
 4281POPC   C3A55097  17.553  38.443   7.064
 4281POPC   C4A55098  17.557  38.494   7.364
 4281POPC   C1B55099  17.708  38.305   6.464
 4281POPC   C2B55100  17.771  38.296   6.764
 4281POPC   C3B55101  17.735  38.304   7.064
 4281POPC   C4B55102  17.700  38.375   7.364
 4282POPC   NC355103  14.413  37.663   5.564
 4282POPC   PO455104  14.374  37.699   5.864
 4282POPC   GL155105  14.427  37.659   6.164
 4282POPC   GL255106  14.460  37.808   6.164
 4282POPC   C1A55107  14.356  37.728   6.464
 4282POPC   D2A55108  14.436  37.677   6.764
 4282POPC   C3A55109  14.452  37.716   7.064
 4282POPC   C4A55110  14.395  37.702   7.364
 4282POPC   C1B55111  14.445  37.899   6.464
 4282POPC   C2B55112  14.455  37.895   6.764
 4282POPC   C3B55113  14.412  37.932   7.064
 4282POPC   C4B55114  14.428  37.930   7.364
 4283POPC   NC355115  14.418  22.182   5.564
 4283POPC   PO455116  14.403  22.169   5.864
 4283POPC   GL155117  14.407  22.201   6.164
 4283POPC   GL255118  14.270  22.103   6.164
 4283POPC   C1A55119  14.398  22.140   6.464
 4283POPC   D2A55120  14.437  22.211   6.764
 4283POPC   C3A55121  14.420  22.194   7.064
 4283POPC   C4A55122  14.391  22.197   7.364
 4283POPC   C1B55123  14.223  22.023   6.464
 4283POPC   C2B55124  14.229  22.047   6.764
 4283POPC   C3B55125  14.221  22.013   7.064
 4283POPC   C4B55126  14.222  22.024   7.364
 4284POPC   NC355127  37.696  26.062   5.564
 4284POPC   PO455128  37.720  26.015   5.864
 4284POPC   GL155129  37.630  26.074   6.164
 4284POPC   GL255130  37.768  26.097   6.164
 4284POPC   C1A55131  37.637  26.006   6.464
 4284POPC   D2A55132  37.685  26.005   6.764
 4284POPC   C3A55133  37.683  26.077   7.064
 4284POPC   C4A55134  37.668  26.025   7.364
 4284POPC   C1B55135  37.809  26.221   6.464
 4284POPC   C2B55136  37.844  26.250   6.764
 4284POPC   C3B55137  37.800  26.281   7.064
 4284POPC   C4B55138  37.882  26.216   7.364
 4285POPC   NC355139  26.815  25.217   5.564
 4285POPC   PO455140  26.770  25.216   5.864
 4285POPC   GL155141  26.846  25.301   6.164
 4285POPC   GL255142  26.678  25.228   6.164
 4285POPC   C1A55143  26.863  25.239   6.464
 4285POPC   D2A55144  26.855  25.267   6.764
 4285POPC   C3A55145  26.814  25.248   7.064
 4285POPC   C4A55146  26.831  25.218   7.364
 4285POPC   C1B55147  26.552  25.224   6.464
 4285POPC   C2B55148  26.579  25.228   6.764
 4285POPC   C3B55149  26.582  25.227   7.064
 4285POPC   C4B55150  26.524  25.224   7.364
 4286POPC   NC355151  40.818  32.283   5.564
 4286POPC   PO455152  40.789  32.259   5.864
 4286POPC   GL155153  40.750  32.222   6.164
 4286POPC   GL255154  40.922  32.266   6.164
 4286POPC   C1A55155  40.808  32.284   6.464
 4286POPC   D2A55156  40.769  32.293   6.764
 4286POPC   C3A55157  40.748  32.210   7.064
 4286POPC   C4A55158  40.761  32.237   7.364
 4286POPC   C1B55159  41.061  32.199   6.464
 4286POPC   C2B55160  40.985  32.285   6.764
 4286POPC   C3B55161  41.046  32.210   7.064
 4286POPC   C4B55162  41.046  32.229   7.364
 4287POPC   NC355163   0.397  26.009   5.564
 4287POPC   PO455164   0.473  26.021   5.864
 4287POPC   GL155165   0.483  26.078   6.164
 4287POPC   GL255166   0.379  26.179   6.164
 4287POPC   C1A55167   0.467  26.080   6.464
 4287POPC   D2A55168   0.414  26.077   6.764
 4287POPC   C3A55169   0.432  26.078   7.064
 4287POPC   C4A55170   0.418  26.080   7.364
 4287POPC   C1B55171   0.317  26.271   6.464
 4287POPC   C2B55172   0.287  26.251   6.764
 4287POPC   C3B55173   0.288  26.257   7.064
 4287POPC   C4B55174   0.337  26.273   7.364
 4288POPC   NC355175  20.613  31.437   5.564
 4288POPC   PO455176  20.580  31.483   5.864
 4288POPC   GL155177  20.643  31.427   6.164
 4288POPC   GL255178  20.699  31.415   6.164
 4288POPC   C1A55179  20.649  31.503   6.464
 4288POPC   D2A55180  20.602  31.506   6.764
 4288POPC   C3A55181  20.585  31.456   7.064
 4288POPC   C4A55182  20.656  31.500   7.364
 4288POPC   C1B55183  20.778  31.315   6.464
 4288POPC   C2B55184  20.778  31.359   6.764
 4288POPC   C3B55185  20.816  31.323   7.064
 4288POPC   C4B55186  20.783  31.307   7.364
 4289POPC   NC355187  19.106  12.031   5.564
 4289POPC   PO455188  19.045  12.102   5.864
 4289POPC   GL155189  19.093  12.073   6.164
 4289POPC   GL255190  19.147  12.015   6.164
 4289POPC   C1A55191  19.046  12.032   6.464
 4289POPC   D2A55192  19.029  12.044   6.764
 4289POPC   C3A55193  19.043  12.072   7.064
 4289POPC   C4A55194  19.035  12.027   7.364
 4289POPC   C1B55195  19.292  12.014   6.464
 4289POPC   C2B55196  19.333  12.004   6.764
 4289POPC   C3B55197  19.331  11.991   7.064
 4289POPC   C4B55198  19.248  12.019   7.364
 4290POPC   NC355199  33.014  12.802   5.564
 4290POPC   PO455200  33.059  12.887   5.864
 4290POPC   GL155201  33.072  12.807   6.164
 4290POPC   GL255202  33.132  12.751   6.164
 4290POPC   C1A55203  33.003  12.832   6.464
 4290POPC   D2A55204  33.030  12.888   6.764
 4290POPC   C3A55205  33.010  12.861   7.064
 4290POPC   C4A55206  33.058  12.845   7.364
 4290POPC   C1B55207  33.220  12.687   6.464
 4290POPC   C2B55208  33.249  12.669   6.764
 4290POPC   C3B55209  33.171  12.651   7.064
 4290POPC   C4B55210  33.187  12.704   7.364
 4291POPC   NC355211  15.967  32.265   5.564
 4291POPC   PO455212  15.959  32.204   5.864
 4291POPC   GL155213  15.946  32.262   6.164
 4291POPC   GL255214  16.001  32.321   6.164
 4291POPC   C1A55215  15.995  32.283   6.464
 4291POPC   D2A55216  15.931  32.288   6.764
 4291POPC   C3A55217  15.932  32.255   7.064
 4291POPC   C4A55218  15.995  32.283   7.364
 4291POPC   C1B55219  16.107  32.424   6.464
 4291POPC   C2B55220  16.152  32.380   6.764
 4291POPC   C3B55221  16.166  32.416   7.064
 4291POPC   C4B55222  16.143  32.409   7.364
 4292POPC   NC355223  42.352  32.275   5.564
 4292POPC   PO455224  42.339  32.225   5.864
 4292POPC   GL155225  42.338  32.210   6.164
 4292POPC   GL255226  42.270  32.346   6.164
 4292POPC   C1A55227  42.374  32.273   6.464
 4292POPC   D2A55228  42.315  32.235   6.764
 4292POPC   C3A55229  42.341  32.265   7.064
 4292POPC   C4A55230  42.292  32.226   7.364
 4292POPC   C1B55231  42.284  32.467   6.464
 4292POPC   C2B55232  42.293  32.516   6.764
 4292POPC   C3B55233  42.278  32.482   7.064
 4292POPC   C4B55234  42.280  32.469   7.364
 4293POPC   NC355235   5.874   2.806   5.564
 4293POPC   PO455236   5.895   2.787   5.864
 4293POPC   GL155237   5.907   2.808   6.164
 4293POPC   GL255238   5.801   2.865   6.164
 4293POPC   C1A55239   5.852   2.788   6.464
 4293POPC   D2A55240   5.912   2.769   6.764
 4293POPC   C3A55241   5.867   2.724   7.064
 4293POPC   C4A55242   5.866   2.747   7.364
 4293POPC   C1B55243   5.785   3.017   6.464
 4293POPC   C2B55244   5.788   2.994   6.764
 4293POPC   C3B55245   5.803   3.015   7.064
 4293POPC   C4B55246   5.751   3.037   7.364
 4294POPC   NC355247  29.108  39.203   5.564
 4294POPC   PO455248  29.127  39.239   5.864
 4294POPC   GL155249  29.108  39.189   6.164
 4294POPC   GL255250  29.065  39.161   6.164
 4294POPC   C1A55251  29.187  39.255   6.464
 4294POPC   D2A55252  29.134  39.203   6.764
 4294POPC   C3A55253  29.124  39.265   7.064
 4294POPC   C4A55254  29.105  39.216   7.364
 4294POPC   C1B55255  28.926  39.087   6.464
 4294POPC   C2B55256  28.913  39.113   6.764
 4294POPC   C3B55257  28.999  39.067   7.064
 4294POPC   C4B55258  28.986  39.016   7.364
 4295POPC   NC355259  15.214  19.807   5.564
 4295POPC   PO455260  15.184  19.866   5.864
 4295POPC   GL155261  15.134  19.811   6.164
 4295POPC   GL255262  15.201  19.933   6.164
 4295POPC   C1A55263  15.216  19.845   6.464
 4295POPC   D2A55264  15.140  19.869   6.764
 4295POPC   C3A55265  15.178  19.788   7.064
 4295POPC   C4A55266  15.137  19.850   7.364
 4295POPC   C1B55267  15.238  20.065   6.464
 4295POPC   C2B55268  15.197  20.078   6.764
 4295POPC   C3B55269  15.272  20.112   7.064
 4295POPC   C4B55270  15.252  20.050   7.364
 4296POPC   NC355271   8.182  15.136   5.564
 4296POPC   PO455272   8.231  15.175   5.864
 4296POPC   GL155273   8.233  15.228   6.164
 4296POPC   GL255274   8.101  15.316   6.164
 4296POPC   C1A55275   8.189  15.144   6.464
 4296POPC   D2A55276   8.180  15.132   6.764
 4296POPC   C3A55277   8.217  15.175   7.064
 4296POPC   C4A55278   8.178  15.142   7.364
 4296POPC   C1B55279   8.021  15.349   6.464
 4296POPC   C2B55280   8.049  15.341   6.764
 4296POPC   C3B55281   8.063  15.346   7.064
 4296POPC   C4B55282   8.068  15.433   7.364
 4297POPC   NC355283  11.308  12.876   5.564
 4297POPC   PO455284  11.258  12.838   5.864
 4297POPC   GL155285  11.318  12.836   6.164
 4297POPC   GL255286  11.189  12.986   6.164
 4297POPC   C1A55287  11.319  12.871   6.464
 4297POPC   D2A55288  11.326  12.841   6.764
 4297POPC   C3A55289  11.316  12.821   7.064
 4297POPC   C4A55290  11.307  12.840   7.364
 4297POPC   C1B55291  11.188  13.094   6.464
 4297POPC   C2B55292  11.128  13.096   6.764
 4297POPC   C3B55293  11.173  13.099   7.064
 4297POPC   C4B55294  11.174  13.012   7.364
 4298POPC   NC355295  30.735  27.618   5.564
 4298POPC   PO455296  30.667  27.575   5.864
 4298POPC   GL155297  30.649  27.580   6.164
 4298POPC   GL255298  30.661  27.429   6.164
 4298POPC   C1A55299  30.709  27.605   6.464
 4298POPC   D2A55300  30.728  27.638   6.764
 4298POPC   C3A55301  30.710  27.626   7.064
 4298POPC   C4A55302  30.656  27.639   7.364
 4298POPC   C1B55303  30.735  27.342   6.464
 4298POPC   C2B55304  30.650  27.317   6.764
 4298POPC   C3B55305  30.734  27.304   7.064
 4298POPC   C4B55306  30.734  27.336   7.364
 4299POPC   NC355307  37.707  26.832   5.564
 4299POPC   PO455308  37.682  26.846   5.864
 4299POPC   GL155309  37.652  26.812   6.164
 4299POPC   GL255310  37.718  26.727   6.164
 4299POPC   C1A55311  37.697  26.854   6.464
 4299POPC   D2A55312  37.713  26.782   6.764
 4299POPC   C3A55313  37.668  26.831   7.064
 4299POPC   C4A55314  37.632  26.769   7.364
 4299POPC   C1B55315  37.795  26.582   6.464
 4299POPC   C2B55316  37.804  26.585   6.764
 4299POPC   C3B55317  37.781  26.605   7.064
 4299POPC   C4B55318  37.851  26.598   7.364
 4300POPC   NC355319  32.226   2.745   5.564
 4300POPC   PO455320  32.213   2.721   5.864
 4300POPC   GL155321  32.204   2.813   6.164
 4300POPC   GL255322  32.290   2.664   6.164
 4300POPC   C1A55323  32.205   2.803   6.464
 4300POPC   D2A55324  32.239   2.739   6.764
 4300POPC   C3A55325  32.261   2.809   7.064
 4300POPC   C4A55326  32.263   2.766   7.364
 4300POPC   C1B55327  32.311   2.516   6.464
 4300POPC   C2B55328  32.344   2.493   6.764
 4300POPC   C3B55329  32.328   2.484   7.064
 4300POPC   C4B55330  32.337   2.512   7.364
 4301POPC   NC355331  19.083  35.375   5.564
 4301POPC   PO455332  19.054  35.375   5.864
 4301POPC   GL155333  19.060  35.316   6.164
 4301POPC   GL255334  19.086  35.187   6.164
 4301POPC   C1A55335  19.109  35.392   6.464
 4301POPC   D2A55336  19.044  35.381   6.764
 4301POPC   C3A55337  19.024  35.401   7.064
 4301POPC   C4A55338  19.016  35.305   7.364
 4301POPC   C1B55339  19.017  35.097   6.464
 4301POPC   C2B55340  19.044  35.135   6.764
 4301POPC   C3B55341  19.063  35.147   7.064
 4301POPC   C4B55342  19.087  35.069   7.364
 4302POPC   NC355343  24.508  36.878   5.564
 4302POPC   PO455344  24.492  36.921   5.864
 4302POPC   GL155345  24.459  36.950   6.164
 4302POPC   GL255346  24.406  37.010   6.164
 4302POPC   C1A55347  24.538  36.867   6.464
 4302POPC   D2A55348  24.460  36.941   6.764
 4302POPC   C3A55349  24.521  36.893   7.064
 4302POPC   C4A55350  24.455  36.858   7.364
 4302POPC   C1B55351  24.346  37.077   6.464
 4302POPC   C2B55352  24.399  37.151   6.764
 4302POPC   C3B55353  24.397  37.164   7.064
 4302POPC   C4B55354  24.331  37.153   7.364
 4303POPC   NC355355   6.619  42.336   5.564
 4303POPC   PO455356   6.633  42.300   5.864
 4303POPC   GL155357   6.644  42.362   6.164
 4303POPC   GL255358   6.679  42.497   6.164
 4303POPC   C1A55359   6.692  42.323   6.464
 4303POPC   D2A55360   6.637  42.381   6.764
 4303POPC   C3A55361   6.649  42.337   7.064
 4303POPC   C4A55362   6.687  42.383   7.364
 4303POPC   C1B55363   6.770  42.591   6.464
 4303POPC   C2B55364   6.794  42.586   6.764
 4303POPC   C3B55365   6.703  42.563   7.064
 4303POPC   C4B55366   6.714  42.546   7.364
 4304POPC   NC355367  10.526  19.050   5.564
 4304POPC   PO455368  10.492  19.107   5.864
 4304POPC   GL155369  10.484  19.056   6.164
 4304POPC   GL255370  10.450  18.975   6.164
 4304POPC   C1A55371  10.535  19.052   6.464
 4304POPC   D2A55372  10.534  19.037   6.764
 4304POPC   C3A55373  10.554  19.059   7.064
 4304POPC   C4A55374  10.571  19.092   7.364
 4304POPC   C1B55375  10.390  18.815   6.464
 4304POPC   C2B55376  10.461  18.836   6.764
 4304POPC   C3B55377  10.472  18.843   7.064
 4304POPC   C4B55378  10.386  18.841   7.364
 4305POPC   NC355379  12.811  32.278   5.564
 4305POPC   PO455380  12.803  32.217   5.864
 4305POPC   GL155381  12.836  32.199   6.164
 4305POPC   GL255382  12.694  32.281   6.164
 4305POPC   C1A55383  12.829  32.277   6.464
 4305POPC   D2A55384  12.811  32.227   6.764
 4305POPC   C3A55385  12.877  32.293   7.064
 4305POPC   C4A55386  12.896  32.279   7.364
 4305POPC   C1B55387  12.633  32.306   6.464
 4305POPC   C2B55388  12.584  32.278   6.764
 4305POPC   C3B55389  12.609  32.290   7.064
 4305POPC   C4B55390  12.576  32.342   7.364
 4306POPC   NC355391   7.462   0.449   5.564
 4306POPC   PO455392   7.445   0.471   5.864
 4306POPC   GL155393   7.379   0.471   6.164
 4306POPC   GL255394   7.506   0.396   6.164
 4306POPC   C1A55395   7.456   0.410   6.464
 4306POPC   D2A55396   7.453   0.401   6.764
 4306POPC   C3A55397   7.431   0.483   7.064
 4306POPC   C4A55398   7.467   0.445   7.364
 4306POPC   C1B55399   7.700   0.417   6.464
 4306POPC   C2B55400   7.709   0.403   6.764
 4306POPC   C3B55401   7.624   0.461   7.064
 4306POPC   C4B55402   7.625   0.431   7.364
 4307POPC   NC355403  30.720  25.299   5.564
 4307POPC   PO455404  30.664  25.243   5.864
 4307POPC   GL155405  30.730  25.224   6.164
 4307POPC   GL255406  30.588  25.151   6.164
 4307POPC   C1A55407  30.731  25.254   6.464
 4307POPC   D2A55408  30.689  25.263   6.764
 4307POPC   C3A55409  30.652  25.265   7.064
 4307POPC   C4A55410  30.720  25.288   7.364
 4307POPC   C1B55411  30.510  25.036   6.464
 4307POPC   C2B55412  30.539  25.107   6.764
 4307POPC   C3B55413  30.515  25.123   7.064
 4307POPC   C4B55414  30.542  25.087   7.364
 4308POPC   NC355415  16.770  26.062   5.564
 4308POPC   PO455416  16.769  26.081   5.864
 4308POPC   GL155417  16.742  26.050   6.164
 4308POPC   GL255418  16.773  26.193   6.164
 4308POPC   C1A55419  16.735  26.005   6.464
 4308POPC   D2A55420  16.752  26.064   6.764
 4308POPC   C3A55421  16.736  26.043   7.064
 4308POPC   C4A55422  16.718  26.022   7.364
 4308POPC   C1B55423  16.680  26.297   6.464
 4308POPC   C2B55424  16.671  26.272   6.764
 4308POPC   C3B55425  16.753  26.329   7.064
 4308POPC   C4B55426  16.712  26.259   7.364
 4309POPC   NC355427  18.289  12.867   5.564
 4309POPC   PO455428  18.234  12.889   5.864
 4309POPC   GL155429  18.277  12.858   6.164
 4309POPC   GL255430  18.234  12.938   6.164
 4309POPC   C1A55431  18.260  12.818   6.464
 4309POPC   D2A55432  18.326  12.887   6.764
 4309POPC   C3A55433  18.331  12.825   7.064
 4309POPC   C4A55434  18.313  12.817   7.364
 4309POPC   C1B55435  18.199  13.071   6.464
 4309POPC   C2B55436  18.224  13.122   6.764
 4309POPC   C3B55437  18.233  13.089   7.064
 4309POPC   C4B55438  18.227  13.042   7.364
 4310POPC   NC355439  15.167  39.994   5.564
 4310POPC   PO455440  15.176  40.034   5.864
 4310POPC   GL155441  15.148  40.006   6.164
 4310POPC   GL255442  15.068  40.025   6.164
 4310POPC   C1A55443  15.161  39.974   6.464
 4310POPC   D2A55444  15.165  40.008   6.764
 4310POPC   C3A55445  15.212  40.022   7.064
 4310POPC   C4A55446  15.132  40.046   7.364
 4310POPC   C1B55447  15.006  40.089   6.464
 4310POPC   C2B55448  14.955  40.110   6.764
 4310POPC   C3B55449  14.994  40.087   7.064
 4310POPC   C4B55450  14.990  40.140   7.364
 4311POPC   NC355451  41.578  44.622   5.564
 4311POPC   PO455452  41.559  44.641   5.864
 4311POPC   GL155453  41.555  44.700   6.164
 4311POPC   GL255454  41.398  44.714   6.164
 4311POPC   C1A55455  41.557  44.691   6.464
 4311POPC   D2A55456  41.578  44.703   6.764
 4311POPC   C3A55457  41.528  44.634   7.064
 4311POPC   C4A55458  41.583  44.646   7.364
 4311POPC   C1B55459  41.274  44.689   6.464
 4311POPC   C2B55460  41.311  44.725   6.764
 4311POPC   C3B55461  41.325  44.683   7.064
 4311POPC   C4B55462  41.295  44.704   7.364
 4312POPC   NC355463  43.895   6.621   5.564
 4312POPC   PO455464  43.898   6.664   5.864
 4312POPC   GL155465  43.917   6.617   6.164
 4312POPC   GL255466  43.790   6.615   6.164
 4312POPC   C1A55467  43.843   6.609   6.464
 4312POPC   D2A55468  43.921   6.631   6.764
 4312POPC   C3A55469  43.910   6.654   7.064
 4312POPC   C4A55470  43.917   6.602   7.364
 4312POPC   C1B55471  43.674   6.579   6.464
 4312POPC   C2B55472  43.657   6.517   6.764
 4312POPC   C3B55473  43.625   6.555   7.064
 4312POPC   C4B55474  43.682   6.545   7.364
 4313POPC   NC355475  23.694  20.566   5.564
 4313POPC   PO455476  23.699  20.575   5.864
 4313POPC   GL155477  23.759  20.585   6.164
 4313POPC   GL255478  23.580  20.659   6.164
 4313POPC   C1A55479  23.664  20.654   6.464
 4313POPC   D2A55480  23.669  20.606   6.764
 4313POPC   C3A55481  23.686  20.658   7.064
 4313POPC   C4A55482  23.738  20.655   7.364
 4313POPC   C1B55483  23.422  20.708   6.464
 4313POPC   C2B55484  23.508  20.684   6.764
 4313POPC   C3B55485  23.491  20.662   7.064
 4313POPC   C4B55486  23.473  20.697   7.364
 4314POPC   NC355487  33.013   5.131   5.564
 4314POPC   PO455488  32.998   5.071   5.864
 4314POPC   GL155489  33.031   5.080   6.164
 4314POPC   GL255490  32.995   5.007   6.164
 4314POPC   C1A55491  33.072   5.090   6.464
 4314POPC   D2A55492  33.047   5.068   6.764
 4314POPC   C3A55493  33.038   5.123   7.064
 4314POPC   C4A55494  33.059   5.074   7.364
 4314POPC   C1B55495  32.943   4.831   6.464
 4314POPC   C2B55496  32.963   4.821   6.764
 4314POPC   C3B55497  32.947   4.868   7.064
 4314POPC   C4B55498  32.948   4.848   7.364
 4315POPC   NC355499  30.683  36.894   5.564
 4315POPC   PO455500  30.656  36.902   5.864
 4315POPC   GL155501  30.687  36.921   6.164
 4315POPC   GL255502  30.582  36.817   6.164
 4315POPC   C1A55503  30.684  36.863   6.464
 4315POPC   D2A55504  30.658  36.887   6.764
 4315POPC   C3A55505  30.717  36.942   7.064
 4315POPC   C4A55506  30.706  36.904   7.364
 4315POPC   C1B55507  30.423  36.838   6.464
 4315POPC   C2B55508  30.428  36.851   6.764
 4315POPC   C3B55509  30.490  36.800   7.064
 4315POPC   C4B55510  30.478  36.872   7.364
 4316POPC   NC355511  12.108   5.842   5.564
 4316POPC   PO455512  12.039   5.852   5.864
 4316POPC   GL155513  12.093   5.910   6.164
 4316POPC   GL255514  11.932   5.866   6.164
 4316POPC   C1A55515  12.114   5.822   6.464
 4316POPC   D2A55516  12.067   5.899   6.764
 4316POPC   C3A55517  12.121   5.853   7.064
 4316POPC   C4A55518  12.068   5.831   7.364
 4316POPC   C1B55519  11.880   5.729   6.464
 4316POPC   C2B55520  11.873   5.822   6.764
 4316POPC   C3B55521  11.812   5.794   7.064
 4316POPC   C4B55522  11.816   5.806   7.364
 4317POPC   NC355523   1.192  34.571   5.564
 4317POPC   PO455524   1.178  34.542   5.864
 4317POPC   GL155525   1.222  34.601   6.164
 4317POPC   GL255526   1.084  34.532   6.164
 4317POPC   C1A55527   1.216  34.564   6.464
 4317POPC   D2A55528   1.204  34.568   6.764
 4317POPC   C3A55529   1.252  34.603   7.064
 4317POPC   C4A55530   1.235  34.527   7.364
 4317POPC   C1B55531   1.057  34.346   6.464
 4317POPC   C2B55532   1.025  34.367   6.764
 4317POPC   C3B55533   1.068  34.378   7.064
 4317POPC   C4B55534   1.010  34.409   7.364
 4318POPC   NC355535   1.993  16.746   5.564
 4318POPC   PO455536   2.006  16.769   5.864
 4318POPC   GL155537   1.947  16.745   6.164
 4318POPC   GL255538   2.073  16.782   6.164
 4318POPC   C1A55539   1.997  16.689   6.464
 4318POPC   D2A55540   1.971  16.699   6.764
 4318POPC   C3A55541   1.963  16.687   7.064
 4318POPC   C4A55542   1.958  16.699   7.364
 4318POPC   C1B55543   2.235  16.879   6.464
 4318POPC   C2B55544   2.230  16.828   6.764
 4318POPC   C3B55545   2.184  16.847   7.064
 4318POPC   C4B55546   2.205  16.865   7.364
 4319POPC   NC355547  14.449  22.964   5.564
 4319POPC   PO455548  14.433  22.963   5.864
 4319POPC   GL155549  14.375  22.913   6.164
 4319POPC   GL255550  14.305  22.830   6.164
 4319POPC   C1A55551  14.413  22.978   6.464
 4319POPC   D2A55552  14.356  22.979   6.764
 4319POPC   C3A55553  14.381  22.932   7.064
 4319POPC   C4A55554  14.367  22.941   7.364
 4319POPC   C1B55555  14.297  22.734   6.464
 4319POPC   C2B55556  14.289  22.729   6.764
 4319POPC   C3B55557  14.239  22.689   7.064
 4319POPC   C4B55558  14.280  22.700   7.364
 4320POPC   NC355559  27.630   2.744   5.564
 4320POPC   PO455560  27.595   2.753   5.864
 4320POPC   GL155561  27.547   2.761   6.164
 4320POPC   GL255562  27.703   2.827   6.164
 4320POPC   C1A55563  27.626   2.777   6.464
 4320POPC   D2A55564  27.632   2.727   6.764
 4320POPC   C3A55565  27.552   2.734   7.064
 4320POPC   C4A55566  27.581   2.742   7.364
 4320POPC   C1B55567  27.813   2.851   6.464
 4320POPC   C2B55568  27.879   2.789   6.764
 4320POPC   C3B55569  27.841   2.842   7.064
 4320POPC   C4B55570  27.804   2.814   7.364
 4321POPC   NC355571  19.080  15.953   5.564
 4321POPC   PO455572  19.060  15.945   5.864
 4321POPC   GL155573  19.101  15.963   6.164
 4321POPC   GL255574  19.163  15.896   6.164
 4321POPC   C1A55575  19.047  15.946   6.464
 4321POPC   D2A55576  19.087  15.941   6.764
 4321POPC   C3A55577  19.015  15.960   7.064
 4321POPC   C4A55578  19.029  15.978   7.364
 4321POPC   C1B55579  19.237  15.778   6.464
 4321POPC   C2B55580  19.213  15.756   6.764
 4321POPC   C3B55581  19.194  15.803   7.064
 4321POPC   C4B55582  19.228  15.811   7.364
 4322POPC   NC355583   2.759  37.673   5.564
 4322POPC   PO455584   2.802  37.642   5.864
 4322POPC   GL155585   2.753  37.728   6.164
 4322POPC   GL255586   2.909  37.704   6.164
 4322POPC   C1A55587   2.806  37.680   6.464
 4322POPC   D2A55588   2.718  37.659   6.764
 4322POPC   C3A55589   2.755  37.687   7.064
 4322POPC   C4A55590   2.764  37.692   7.364
 4322POPC   C1B55591   2.942  37.797   6.464
 4322POPC   C2B55592   2.966  37.826   6.764
 4322POPC   C3B55593   2.982  37.822   7.064
 4322POPC   C4B55594   2.954  37.762   7.364
 4323POPC   NC355595   5.075  27.555   5.564
 4323POPC   PO455596   5.136  27.546   5.864
 4323POPC   GL155597   5.109  27.609   6.164
 4323POPC   GL255598   5.166  27.488   6.164
 4323POPC   C1A55599   5.133  27.584   6.464
 4323POPC   D2A55600   5.138  27.615   6.764
 4323POPC   C3A55601   5.048  27.613   7.064
 4323POPC   C4A55602   5.079  27.607   7.364
 4323POPC   C1B55603   5.256  27.414   6.464
 4323POPC   C2B55604   5.292  27.469   6.764
 4323POPC   C3B55605   5.295  27.441   7.064
 4323POPC   C4B55606   5.276  27.465   7.364
 4324POPC   NC355607  41.566  29.119   5.564
 4324POPC   PO455608  41.578  29.118   5.864
 4324POPC   GL155609  41.555  29.184   6.164
 4324POPC   GL255610  41.691  29.190   6.164
 4324POPC   C1A55611  41.537  29.119   6.464
 4324POPC   D2A55612  41.574  29.177   6.764
 4324POPC   C3A55613  41.535  29.139   7.064
 4324POPC   C4A55614  41.534  29.181   7.364
 4324POPC   C1B55615  41.771  29.174   6.464
 4324POPC   C2B55616  41.774  29.192   6.764
 4324POPC   C3B55617  41.758  29.161   7.064
 4324POPC   C4B55618  41.831  29.135   7.364
 4325POPC   NC355619  15.943  13.619   5.564
 4325POPC   PO455620  15.924  13.590   5.864
 4325POPC   GL155621  15.922  13.628   6.164
 4325POPC   GL255622  15.975  13.521   6.164
 4325POPC   C1A55623  15.923  13.673   6.464
 4325POPC   D2A55624  15.983  13.624   6.764
 4325POPC   C3A55625  15.963  13.621   7.064
 4325POPC   C4A55626  15.930  13.676   7.364
 4325POPC   C1B55627  16.098  13.441   6.464
 4325POPC   C2B55628  16.052  13.429   6.764
 4325POPC   C3B55629  16.032  13.372   7.064
 4325POPC   C4B55630  16.087  13.354   7.364
 4326POPC   NC355631  18.285   2.004   5.564
 4326POPC   PO455632  18.235   2.013   5.864
 4326POPC   GL155633  18.286   1.963   6.164
 4326POPC   GL255634  18.393   1.922   6.164
 4326POPC   C1A55635  18.263   1.958   6.464
 4326POPC   D2A55636  18.236   1.946   6.764
 4326POPC   C3A55637  18.282   2.009   7.064
 4326POPC   C4A55638  18.305   2.022   7.364
 4326POPC   C1B55639  18.533   1.858   6.464
 4326POPC   C2B55640  18.467   1.798   6.764
 4326POPC   C3B55641  18.484   1.855   7.064
 4326POPC   C4B55642  18.489   1.876   7.364
 4327POPC   NC355643  33.841   8.154   5.564
 4327POPC   PO455644  33.787   8.235   5.864
 4327POPC   GL155645  33.826   8.224   6.164
 4327POPC   GL255646  33.932   8.276   6.164
 4327POPC   C1A55647  33.843   8.208   6.464
 4327POPC   D2A55648  33.787   8.157   6.764
 4327POPC   C3A55649  33.815   8.244   7.064
 4327POPC   C4A55650  33.772   8.228   7.364
 4327POPC   C1B55651  34.002   8.270   6.464
 4327POPC   C2B55652  34.033   8.250   6.764
 4327POPC   C3B55653  34.013   8.241   7.064
 4327POPC   C4B55654  34.016   8.296   7.364
 4328POPC   NC355655  11.303  36.120   5.564
 4328POPC   PO455656  11.338  36.168   5.864
 4328POPC   GL155657  11.313  36.137   6.164
 4328POPC   GL255658  11.205  36.191   6.164
 4328POPC   C1A55659  11.297  36.096   6.464
 4328POPC   D2A55660  11.256  36.173   6.764
 4328POPC   C3A55661  11.348  36.124   7.064
 4328POPC   C4A55662  11.346  36.125   7.364
 4328POPC   C1B55663  11.046  36.164   6.464
 4328POPC   C2B55664  11.061  36.226   6.764
 4328POPC   C3B55665  11.032  36.166   7.064
 4328POPC   C4B55666  11.039  36.200   7.364
 4329POPC   NC355667  39.274  33.044   5.564
 4329POPC   PO455668  39.262  33.044   5.864
 4329POPC   GL155669  39.220  33.048   6.164
 4329POPC   GL255670  39.149  33.042   6.164
 4329POPC   C1A55671  39.197  32.995   6.464
 4329POPC   D2A55672  39.190  32.974   6.764
 4329POPC   C3A55673  39.266  32.990   7.064
 4329POPC   C4A55674  39.265  32.992   7.364
 4329POPC   C1B55675  38.964  33.095   6.464
 4329POPC   C2B55676  39.021  33.092   6.764
 4329POPC   C3B55677  38.942  33.063   7.064
 4329POPC   C4B55678  39.037  33.052   7.364
 4330POPC   NC355679  44.684  31.462   5.564
 4330POPC   PO455680  44.657  31.485   5.864
 4330POPC   GL155681  44.682  31.502   6.164
 4330POPC   GL255682  44.509  31.463   6.164
 4330POPC   C1A55683  44.686  31.448   6.464
 4330POPC   D2A55684  44.657  31.504   6.764
 4330POPC   C3A55685  44.674  31.502   7.064
 4330POPC   C4A55686  44.677  31.514   7.364
 4330POPC   C1B55687  44.450  31.501   6.464
 4330POPC   C2B55688  44.411  31.477   6.764
 4330POPC   C3B55689  44.451  31.473   7.064
 4330POPC   C4B55690  44.393  31.516   7.364
 4331POPC   NC355691   9.768  16.745   5.564
 4331POPC   PO455692   9.755  16.767   5.864
 4331POPC   GL155693   9.721  16.760   6.164
 4331POPC   GL255694   9.830  16.851   6.164
 4331POPC   C1A55695   9.766  16.704   6.464
 4331POPC   D2A55696   9.771  16.705   6.764
 4331POPC   C3A55697   9.766  16.768   7.064
 4331POPC   C4A55698   9.712  16.699   7.364
 4331POPC   C1B55699   9.802  17.015   6.464
 4331POPC   C2B55700   9.825  16.953   6.764
 4331POPC   C3B55701   9.802  16.952   7.064
 4331POPC   C4B55702   9.809  17.010   7.364
 4332POPC   NC355703  29.153  40.754   5.564
 4332POPC   PO455704  29.181  40.788   5.864
 4332POPC   GL155705  29.149  40.830   6.164
 4332POPC   GL255706  29.009  40.785   6.164
 4332POPC   C1A55707  29.138  40.829   6.464
 4332POPC   D2A55708  29.132  40.767   6.764
 4332POPC   C3A55709  29.164  40.790   7.064
 4332POPC   C4A55710  29.168  40.816   7.364
 4332POPC   C1B55711  28.935  40.783   6.464
 4332POPC   C2B55712  28.915  40.800   6.764
 4332POPC   C3B55713  28.918  40.784   7.064
 4332POPC   C4B55714  28.893  40.823   7.364
 4333POPC   NC355715  12.099  38.444   5.564
 4333POPC   PO455716  12.031  38.436   5.864
 4333POPC   GL155717  12.103  38.462   6.164
 4333POPC   GL255718  12.063  38.620   6.164
 4333POPC   C1A55719  12.076  38.406   6.464
 4333POPC   D2A55720  12.071  38.419   6.764
 4333POPC   C3A55721  12.036  38.477   7.064
 4333POPC   C4A55722  12.060  38.431   7.364
 4333POPC   C1B55723  12.052  38.694   6.464
 4333POPC   C2B55724  12.066  38.739   6.764
 4333POPC   C3B55725  12.098  38.712   7.064
 4333POPC   C4B55726  12.065  38.745   7.364
 4334POPC   NC355727   1.207   5.049   5.564
 4334POPC   PO455728   1.258   5.101   5.864
 4334POPC   GL155729   1.187   5.107   6.164
 4334POPC   GL255730   1.094   5.155   6.164
 4334POPC   C1A55731   1.168   5.127   6.464
 4334POPC   D2A55732   1.261   5.095   6.764
 4334POPC   C3A55733   1.263   5.123   7.064
 4334POPC   C4A55734   1.232   5.057   7.364
 4334POPC   C1B55735   1.108   5.269   6.464
 4334POPC   C2B55736   1.107   5.333   6.764
 4334POPC   C3B55737   1.034   5.291   7.064
 4334POPC   C4B55738   1.054   5.269   7.364
 4335POPC   NC355739  17.532   3.560   5.564
 4335POPC   PO455740  17.524   3.584   5.864
 4335POPC   GL155741  17.519   3.515   6.164
 4335POPC   GL255742  17.585   3.645   6.164
 4335POPC   C1A55743  17.519   3.580   6.464
 4335POPC   D2A55744  17.524   3.589   6.764
 4335POPC   C3A55745  17.505   3.506   7.064
 4335POPC   C4A55746  17.512   3.524   7.364
 4335POPC   C1B55747  17.635   3.799   6.464
 4335POPC   C2B55748  17.687   3.755   6.764
 4335POPC   C3B55749  17.644   3.705   7.064
 4335POPC   C4B55750  17.680   3.744   7.364
 4336POPC   NC355751  40.819  29.147   5.564
 4336POPC   PO455752  40.763  29.150   5.864
 4336POPC   GL155753  40.787  29.116   6.164
 4336POPC   GL255754  40.806  28.990   6.164
 4336POPC   C1A55755  40.769  29.192   6.464
 4336POPC   D2A55756  40.817  29.111   6.764
 4336POPC   C3A55757  40.734  29.138   7.064
 4336POPC   C4A55758  40.742  29.158   7.364
 4336POPC   C1B55759  40.879  28.928   6.464
 4336POPC   C2B55760  40.853  28.917   6.764
 4336POPC   C3B55761  40.916  28.937   7.064
 4336POPC   C4B55762  40.894  28.917   7.364
 4337POPC   NC355763  30.727  35.385   5.564
 4337POPC   PO455764  30.734  35.330   5.864
 4337POPC   GL155765  30.678  35.352   6.164
 4337POPC   GL255766  30.644  35.242   6.164
 4337POPC   C1A55767  30.739  35.316   6.464
 4337POPC   D2A55768  30.726  35.333   6.764
 4337POPC   C3A55769  30.711  35.381   7.064
 4337POPC   C4A55770  30.743  35.372   7.364
 4337POPC   C1B55771  30.586  35.187   6.464
 4337POPC   C2B55772  30.587  35.160   6.764
 4337POPC   C3B55773  30.513  35.165   7.064
 4337POPC   C4B55774  30.507  35.158   7.364
 4338POPC   NC355775  36.170  22.968   5.564
 4338POPC   PO455776  36.120  22.892   5.864
 4338POPC   GL155777  36.123  22.952   6.164
 4338POPC   GL255778  36.226  22.998   6.164
 4338POPC   C1A55779  36.128  22.988   6.464
 4338POPC   D2A55780  36.147  22.901   6.764
 4338POPC   C3A55781  36.080  22.891   7.064
 4338POPC   C4A55782  36.101  22.971   7.364
 4338POPC   C1B55783  36.338  23.086   6.464
 4338POPC   C2B55784  36.303  23.073   6.764
 4338POPC   C3B55785  36.276  23.123   7.064
 4338POPC   C4B55786  36.297  23.148   7.364
 4339POPC   NC355787   0.416  19.077   5.564
 4339POPC   PO455788   0.437  19.030   5.864
 4339POPC   GL155789   0.450  19.018   6.164
 4339POPC   GL255790   0.339  19.074   6.164
 4339POPC   C1A55791   0.477  19.012   6.464
 4339POPC   D2A55792   0.464  19.014   6.764
 4339POPC   C3A55793   0.464  19.039   7.064
 4339POPC   C4A55794   0.480  19.108   7.364
 4339POPC   C1B55795   0.194  19.184   6.464
 4339POPC   C2B55796   0.239  19.209   6.764
 4339POPC   C3B55797   0.243  19.163   7.064
 4339POPC   C4B55798   0.235  19.176   7.364
 4340POPC   NC355799  31.453  36.945   5.564
 4340POPC   PO455800  31.497  36.952   5.864
 4340POPC   GL155801  31.482  36.879   6.164
 4340POPC   GL255802  31.625  36.852   6.164
 4340POPC   C1A55803  31.436  36.923   6.464
 4340POPC   D2A55804  31.452  36.873   6.764
 4340POPC   C3A55805  31.506  36.874   7.064
 4340POPC   C4A55806  31.522  36.871   7.364
 4340POPC   C1B55807  31.733  36.743   6.464
 4340POPC   C2B55808  31.688  36.743   6.764
 4340POPC   C3B55809  31.695  36.737   7.064
 4340POPC   C4B55810  31.726  36.762   7.364
 4341POPC   NC355811  17.538  15.974   5.564
 4341POPC   PO455812  17.527  15.987   5.864
 4341POPC   GL155813  17.493  15.939   6.164
 4341POPC   GL255814  17.553  15.918   6.164
 4341POPC   C1A55815  17.536  15.942   6.464
 4341POPC   D2A55816  17.525  15.918   6.764
 4341POPC   C3A55817  17.538  15.917   7.064
 4341POPC   C4A55818  17.474  15.911   7.364
 4341POPC   C1B55819  17.659  15.811   6.464
 4341POPC   C2B55820  17.690  15.766   6.764
 4341POPC   C3B55821  17.715  15.791   7.064
 4341POPC   C4B55822  17.654  15.840   7.364
 4342POPC   NC355823  17.462  40.763   5.564
 4342POPC   PO455824  17.479  40.764   5.864
 4342POPC   GL155825  17.547  40.772   6.164
 4342POPC   GL255826  17.401  40.829   6.164
 4342POPC   C1A55827  17.533  40.747   6.464
 4342POPC   D2A55828  17.538  40.756   6.764
 4342POPC   C3A55829  17.500  40.733   7.064
 4342POPC   C4A55830  17.522  40.743   7.364
 4342POPC   C1B55831  17.309  40.997   6.464
 4342POPC   C2B55832  17.334  40.987   6.764
 4342POPC   C3B55833  17.299  40.941   7.064
 4342POPC   C4B55834  17.299  40.934   7.364
 4343POPC   NC355835  17.494   5.063   5.564
 4343POPC   PO455836  17.539   5.061   5.864
 4343POPC   GL155837  17.529   5.123   6.164
 4343POPC   GL255838  17.548   4.998   6.164
 4343POPC   C1A55839  17.489   5.071   6.464
 4343POPC   D2A55840  17.528   5.050   6.764
 4343POPC   C3A55841  17.523   5.082   7.064
 4343POPC   C4A55842  17.492   5.092   7.364
 4343POPC   C1B55843  17.707   4.967   6.464
 4343POPC   C2B55844  17.714   4.952   6.764
 4343POPC   C3B55845  17.731   4.924   7.064
 4343POPC   C4B55846  17.727   4.890   7.364
 4344POPC   NC355847  43.114  40.832   5.564
 4344POPC   PO455848  43.080  40.787   5.864
 4344POPC   GL155849  43.092  40.788   6.164
 4344POPC   GL255850  43.054  40.857   6.164
 4344POPC   C1A55851  43.070  40.758   6.464
 4344POPC   D2A55852  43.136  40.743   6.764
 4344POPC   C3A55853  43.125  40.738   7.064
 4344POPC   C4A55854  43.137  40.748   7.364
 4344POPC   C1B55855  43.131  41.033   6.464
 4344POPC   C2B55856  43.098  41.013   6.764
 4344POPC   C3B55857  43.102  41.060   7.064
 4344POPC   C4B55858  43.035  41.020   7.364
 4345POPC   NC355859  12.029  39.238   5.564
 4345POPC   PO455860  12.039  39.185   5.864
 4345POPC   GL155861  12.054  39.266   6.164
 4345POPC   GL255862  12.130  39.153   6.164
 4345POPC   C1A55863  12.031  39.199   6.464
 4345POPC   D2A55864  12.071  39.213   6.764
 4345POPC   C3A55865  12.048  39.182   7.064
 4345POPC   C4A55866  12.088  39.231   7.364
 4345POPC   C1B55867  12.079  38.995   6.464
 4345POPC   C2B55868  12.120  38.975   6.764
 4345POPC   C3B55869  12.099  38.992   7.064
 4345POPC   C4B55870  12.094  38.994   7.364
 4346POPC   NC355871  35.357  17.532   5.564
 4346POPC   PO455872  35.305  17.553   5.864
 4346POPC   GL155873  35.338  17.485   6.164
 4346POPC   GL255874  35.234  17.563   6.164
 4346POPC   C1A55875  35.360  17.512   6.464
 4346POPC   D2A55876  35.390  17.540   6.764
 4346POPC   C3A55877  35.367  17.461   7.064
 4346POPC   C4A55878  35.377  17.500   7.364
 4346POPC   C1B55879  35.211  17.681   6.464
 4346POPC   C2B55880  35.176  17.695   6.764
 4346POPC   C3B55881  35.193  17.654   7.064
 4346POPC   C4B55882  35.201  17.663   7.364
 4347POPC   NC355883  43.149  37.675   5.564
 4347POPC   PO455884  43.118  37.655   5.864
 4347POPC   GL155885  43.140  37.676   6.164
 4347POPC   GL255886  43.125  37.846   6.164
 4347POPC   C1A55887  43.117  37.703   6.464
 4347POPC   D2A55888  43.146  37.655   6.764
 4347POPC   C3A55889  43.129  37.723   7.064
 4347POPC   C4A55890  43.109  37.681   7.364
 4347POPC   C1B55891  43.146  37.942   6.464
 4347POPC   C2B55892  43.124  37.915   6.764
 4347POPC   C3B55893  43.173  37.935   7.064
 4347POPC   C4B55894  43.155  37.965   7.364
 4348POPC   NC355895  36.082  31.466   5.564
 4348POPC   PO455896  36.122  31.507   5.864
 4348POPC   GL155897  36.081  31.445   6.164
 4348POPC   GL255898  36.182  31.369   6.164
 4348POPC   C1A55899  36.142  31.493   6.464
 4348POPC   D2A55900  36.135  31.484   6.764
 4348POPC   C3A55901  36.118  31.458   7.064
 4348POPC   C4A55902  36.130  31.471   7.364
 4348POPC   C1B55903  36.364  31.277   6.464
 4348POPC   C2B55904  36.335  31.309   6.764
 4348POPC   C3B55905  36.277  31.322   7.064
 4348POPC   C4B55906  36.271  31.316   7.364
 4349POPC   NC355907  32.984  31.438   5.564
 4349POPC   PO455908  33.048  31.435   5.864
 4349POPC   GL155909  32.976  31.504   6.164
 4349POPC   GL255910  32.894  31.519   6.164
 4349POPC   C1A55911  33.062  31.439   6.464
 4349POPC   D2A55912  33.020  31.515   6.764
 4349POPC   C3A55913  33.035  31.511   7.064
 4349POPC   C4A55914  33.069  31.444   7.364
 4349POPC   C1B55915  32.826  31.527   6.464
 4349POPC   C2B55916  32.804  31.591   6.764
 4349POPC   C3B55917  32.774  31.574   7.064
 4349POPC   C4B55918  32.768  31.608   7.364
 4350POPC   NC355919  37.639   4.277   5.564
 4350POPC   PO455920  37.682   4.271   5.864
 4350POPC   GL155921  37.666   4.358   6.164
 4350POPC   GL255922  37.784   4.265   6.164
 4350POPC   C1A55923  37.678   4.286   6.464
 4350POPC   D2A55924  37.729   4.365   6.764
 4350POPC   C3A55925  37.725   4.321   7.064
 4350POPC   C4A55926  37.667   4.341   7.364
 4350POPC   C1B55927  37.925   4.315   6.464
 4350POPC   C2B55928  37.911   4.251   6.764
 4350POPC   C3B55929  37.917   4.331   7.064
 4350POPC   C4B55930  37.889   4.332   7.364
 4351POPC   NC355931  26.786  21.423   5.564
 4351POPC   PO455932  26.806  21.370   5.864
 4351POPC   GL155933  26.785  21.354   6.164
 4351POPC   GL255934  26.756  21.335   6.164
 4351POPC   C1A55935  26.794  21.379   6.464
 4351POPC   D2A55936  26.774  21.401   6.764
 4351POPC   C3A55937  26.867  21.382   7.064
 4351POPC   C4A55938  26.834  21.366   7.364
 4351POPC   C1B55939  26.604  21.235   6.464
 4351POPC   C2B55940  26.641  21.230   6.764
 4351POPC   C3B55941  26.595  21.285   7.064
 4351POPC   C4B55942  26.657  21.207   7.364
 4352POPC   NC355943  32.221  31.469   5.564
 4352POPC   PO455944  32.218  31.513   5.864
 4352POPC   GL155945  32.213  31.432   6.164
 4352POPC   GL255946  32.299  31.547   6.164
 4352POPC   C1A55947  32.245  31.518   6.464
 4352POPC   D2A55948  32.245  31.471   6.764
 4352POPC   C3A55949  32.246  31.501   7.064
 4352POPC   C4A55950  32.291  31.472   7.364
 4352POPC   C1B55951  32.332  31.669   6.464
 4352POPC   C2B55952  32.326  31.762   6.764
 4352POPC   C3B55953  32.368  31.737   7.064
 4352POPC   C4B55954  32.327  31.739   7.364
 4353POPC   NC355955  32.209  35.334   5.564
 4353POPC   PO455956  32.272  35.361   5.864
 4353POPC   GL155957  32.244  35.382   6.164
 4353POPC   GL255958  32.311  35.438   6.164
 4353POPC   C1A55959  32.296  35.362   6.464
 4353POPC   D2A55960  32.237  35.371   6.764
 4353POPC   C3A55961  32.251  35.394   7.064
 4353POPC   C4A55962  32.283  35.340   7.364
 4353POPC   C1B55963  32.246  35.644   6.464
 4353POPC   C2B55964  32.279  35.566   6.764
 4353POPC   C3B55965  32.271  35.559   7.064
 4353POPC   C4B55966  32.288  35.578   7.364
 4354POPC   NC355967  22.118  41.578   5.564
 4354POPC   PO455968  22.119  41.526   5.864
 4354POPC   GL155969  22.146  41.568   6.164
 4354POPC   GL255970  22.260  41.577   6.164
 4354POPC   C1A55971  22.212  41.514   6.464
 4354POPC   D2A55972  22.205  41.608   6.764
 4354POPC   C3A55973  22.186  41.542   7.064
 4354POPC   C4A55974  22.136  41.548   7.364
 4354POPC   C1B55975  22.411  41.550   6.464
 4354POPC   C2B55976  22.442  41.549   6.764
 4354POPC   C3B55977  22.426  41.534   7.064
 4354POPC   C4B55978  22.377  41.548   7.364
 4355POPC   NC355979  44.660  27.559   5.564
 4355POPC   PO455980  44.614  27.545   5.864
 4355POPC   GL155981  44.688  27.561   6.164
 4355POPC   GL255982  44.744  27.441   6.164
 4355POPC   C1A55983  44.696  27.571   6.464
 4355POPC   D2A55984  44.630  27.624   6.764
 4355POPC   C3A55985  44.674  27.606   7.064
 4355POPC   C4A55986  44.697  27.616   7.364
 4355POPC   C1B55987  44.817  27.430   6.464
 4355POPC   C2B55988  44.775  27.341   6.764
 4355POPC   C3B55989  44.850  27.391   7.064
 4355POPC   C4B55990  44.846  27.435   7.364
 4356POPC   NC355991   2.029  40.819   5.564
 4356POPC   PO455992   1.977  40.822   5.864
 4356POPC   GL155993   1.977  40.792   6.164
 4356POPC   GL255994   2.011  40.636   6.164
 4356POPC   C1A55995   2.037  40.791   6.464
 4356POPC   D2A55996   2.013  40.782   6.764
 4356POPC   C3A55997   1.978  40.827   7.064
 4356POPC   C4A55998   1.943  40.785   7.364
 4356POPC   C1B55999   1.963  40.562   6.464
 4356POPC   C2B56000   2.039  40.531   6.764
 4356POPC   C3B56001   2.023  40.526   7.064
 4356POPC   C4B56002   2.011  40.510   7.364
 4357POPC   NC356003  27.591  29.958   5.564
 4357POPC   PO456004  27.635  29.952   5.864
 4357POPC   GL156005  27.571  29.952   6.164
 4357POPC   GL256006  27.643  29.762   6.164
 4357POPC   C1A56007  27.563  29.911   6.464
 4357POPC   D2A56008  27.546  29.886   6.764
 4357POPC   C3A56009  27.553  29.886   7.064
 4357POPC   C4A56010  27.573  29.926   7.364
 4357POPC   C1B56011  27.671  29.675   6.464
 4357POPC   C2B56012  27.708  29.687   6.764
 4357POPC   C3B56013  27.711  29.631   7.064
 4357POPC   C4B56014  27.682  29.674   7.364
 4358POPC   NC356015  21.389  13.581   5.564
 4358POPC   PO456016  21.417  13.598   5.864
 4358POPC   GL156017  21.352  13.605   6.164
 4358POPC   GL256018  21.370  13.752   6.164
 4358POPC   C1A56019  21.425  13.601   6.464
 4358POPC   D2A56020  21.392  13.649   6.764
 4358POPC   C3A56021  21.362  13.659   7.064
 4358POPC   C4A56022  21.344  13.639   7.364
 4358POPC   C1B56023  21.336  13.852   6.464
 4358POPC   C2B56024  21.350  13.851   6.764
 4358POPC   C3B56025  21.306  13.828   7.064
 4358POPC   C4B56026  21.364  13.899   7.364
 4359POPC   NC356027  11.310   0.409   5.564
 4359POPC   PO456028  11.290   0.483   5.864
 4359POPC   GL156029  11.334   0.479   6.164
 4359POPC   GL256030  11.315   0.579   6.164
 4359POPC   C1A56031  11.258   0.483   6.464
 4359POPC   D2A56032  11.292   0.400   6.764
 4359POPC   C3A56033  11.317   0.392   7.064
 4359POPC   C4A56034  11.344   0.472   7.364
 4359POPC   C1B56035  11.210   0.642   6.464
 4359POPC   C2B56036  11.216   0.671   6.764
 4359POPC   C3B56037  11.263   0.698   7.064
 4359POPC   C4B56038  11.273   0.632   7.364
 4360POPC   NC356039  32.280   3.587   5.564
 4360POPC   PO456040  32.213   3.500   5.864
 4360POPC   GL156041  32.217   3.499   6.164
 4360POPC   GL256042  32.251   3.398   6.164
 4360POPC   C1A56043  32.215   3.500   6.464
 4360POPC   D2A56044  32.221   3.518   6.764
 4360POPC   C3A56045  32.220   3.506   7.064
 4360POPC   C4A56046  32.260   3.497   7.364
 4360POPC   C1B56047  32.177   3.327   6.464
 4360POPC   C2B56048  32.139   3.271   6.764
 4360POPC   C3B56049  32.192   3.337   7.064
 4360POPC   C4B56050  32.138   3.303   7.364
 4361POPC   NC356051  33.810  22.130   5.564
 4361POPC   PO456052  33.825  22.204   5.864
 4361POPC   GL156053  33.807  22.175   6.164
 4361POPC   GL256054  33.885  22.217   6.164
 4361POPC   C1A56055  33.787  22.135   6.464
 4361POPC   D2A56056  33.784  22.174   6.764
 4361POPC   C3A56057  33.751  22.124   7.064
 4361POPC   C4A56058  33.788  22.174   7.364
 4361POPC   C1B56059  33.919  22.322   6.464
 4361POPC   C2B56060  33.943  22.354   6.764
 4361POPC   C3B56061  33.928  22.379   7.064
 4361POPC   C4B56062  33.990  22.341   7.364
 4362POPC   NC356063   8.238  43.932   5.564
 4362POPC   PO456064   8.241  43.870   5.864
 4362POPC   GL156065   8.154  43.903   6.164
 4362POPC   GL256066   8.128  43.776   6.164
 4362POPC   C1A56067   8.206  43.837   6.464
 4362POPC   D2A56068   8.151  43.845   6.764
 4362POPC   C3A56069   8.226  43.868   7.064
 4362POPC   C4A56070   8.216  43.877   7.364
 4362POPC   C1B56071   8.113  43.653   6.464
 4362POPC   C2B56072   8.067  43.661   6.764
 4362POPC   C3B56073   8.164  43.636   7.064
 4362POPC   C4B56074   8.070  43.601   7.364
 4363POPC   NC356075   5.845   1.958   5.564
 4363POPC   PO456076   5.867   1.969   5.864
 4363POPC   GL156077   5.887   1.981   6.164
 4363POPC   GL256078   5.898   2.143   6.164
 4363POPC   C1A56079   5.820   2.000   6.464
 4363POPC   D2A56080   5.847   2.028   6.764
 4363POPC   C3A56081   5.855   2.026   7.064
 4363POPC   C4A56082   5.858   2.019   7.364
 4363POPC   C1B56083   5.839   2.244   6.464
 4363POPC   C2B56084   5.910   2.217   6.764
 4363POPC   C3B56085   5.828   2.196   7.064
 4363POPC   C4B56086   5.874   2.197   7.364
 4364POPC   NC356087  13.584  37.691   5.564
 4364POPC   PO456088  13.676  37.729   5.864
 4364POPC   GL156089  13.598  37.637   6.164
 4364POPC   GL256090  13.730  37.670   6.164
 4364POPC   C1A56091  13.605  37.662   6.464
 4364POPC   D2A56092  13.605  37.684   6.764
 4364POPC   C3A56093  13.667  37.706   7.064
 4364POPC   C4A56094  13.665  37.694   7.364
 4364POPC   C1B56095  13.838  37.789   6.464
 4364POPC   C2B56096  13.886  37.768   6.764
 4364POPC   C3B56097  13.876  37.743   7.064
 4364POPC   C4B56098  13.869  37.780   7.364
 4365POPC   NC356099   1.229  38.432   5.564
 4365POPC   PO456100   1.231  38.436   5.864
 4365POPC   GL156101   1.245  38.419   6.164
 4365POPC   GL256102   1.252  38.552   6.164
 4365POPC   C1A56103   1.229  38.417   6.464
 4365POPC   D2A56104   1.249  38.429   6.764
 4365POPC   C3A56105   1.244  38.465   7.064
 4365POPC   C4A56106   1.263  38.448   7.364
 4365POPC   C1B56107   1.273  38.670   6.464
 4365POPC   C2B56108   1.332  38.637   6.764
 4365POPC   C3B56109   1.278  38.641   7.064
 4365POPC   C4B56110   1.274  38.654   7.364
 4366POPC   NC356111  43.936  12.087   5.564
 4366POPC   PO456112  43.931  12.082   5.864
 4366POPC   GL156113  43.838  12.120   6.164
 4366POPC   GL256114  43.850  11.911   6.164
 4366POPC   C1A56115  43.911  12.045   6.464
 4366POPC   D2A56116  43.897  12.039   6.764
 4366POPC   C3A56117  43.924  12.033   7.064
 4366POPC   C4A56118  43.857  12.102   7.364
 4366POPC   C1B56119  43.897  11.867   6.464
 4366POPC   C2B56120  43.819  11.854   6.764
 4366POPC   C3B56121  43.900  11.816   7.064
 4366POPC   C4B56122  43.821  11.858   7.364
 4367POPC   NC356123  40.814  19.029   5.564
 4367POPC   PO456124  40.829  19.051   5.864
 4367POPC   GL156125  40.822  19.099   6.164
 4367POPC   GL256126  40.935  19.041   6.164
 4367POPC   C1A56127  40.750  19.013   6.464
 4367POPC   D2A56128  40.811  19.046   6.764
 4367POPC   C3A56129  40.767  19.067   7.064
 4367POPC   C4A56130  40.772  19.032   7.364
 4367POPC   C1B56131  41.038  18.950   6.464
 4367POPC   C2B56132  40.995  18.973   6.764
 4367POPC   C3B56133  40.993  18.973   7.064
 4367POPC   C4B56134  41.029  18.968   7.364
 4368POPC   NC356135  30.705  41.583   5.564
 4368POPC   PO456136  30.694  41.524   5.864
 4368POPC   GL156137  30.730  41.580   6.164
 4368POPC   GL256138  30.547  41.621   6.164
 4368POPC   C1A56139  30.689  41.590   6.464
 4368POPC   D2A56140  30.739  41.599   6.764
 4368POPC   C3A56141  30.678  41.519   7.064
 4368POPC   C4A56142  30.728  41.607   7.364
 4368POPC   C1B56143  30.447  41.662   6.464
 4368POPC   C2B56144  30.475  41.690   6.764
 4368POPC   C3B56145  30.420  41.643   7.064
 4368POPC   C4B56146  30.425  41.614   7.364
 4369POPC   NC356147  36.922  22.144   5.564
 4369POPC   PO456148  36.945  22.150   5.864
 4369POPC   GL156149  36.932  22.183   6.164
 4369POPC   GL256150  36.995  22.301   6.164
 4369POPC   C1A56151  36.943  22.120   6.464
 4369POPC   D2A56152  36.916  22.125   6.764
 4369POPC   C3A56153  36.888  22.158   7.064
 4369POPC   C4A56154  36.880  22.196   7.364
 4369POPC   C1B56155  37.069  22.396   6.464
 4369POPC   C2B56156  37.035  22.404   6.764
 4369POPC   C3B56157  37.018  22.347   7.064
 4369POPC   C4B56158  37.064  22.396   7.364
 4370POPC   NC356159  13.621  23.694   5.564
 4370POPC   PO456160  13.634  23.759   5.864
 4370POPC   GL156161  13.589  23.723   6.164
 4370POPC   GL256162  13.653  23.594   6.164
 4370POPC   C1A56163  13.588  23.676   6.464
 4370POPC   D2A56164  13.621  23.746   6.764
 4370POPC   C3A56165  13.621  23.710   7.064
 4370POPC   C4A56166  13.660  23.668   7.364
 4370POPC   C1B56167  13.654  23.513   6.464
 4370POPC   C2B56168  13.716  23.452   6.764
 4370POPC   C3B56169  13.688  23.459   7.064
 4370POPC   C4B56170  13.722  23.461   7.364
 4371POPC   NC356171  33.845   1.998   5.564
 4371POPC   PO456172  33.760   2.000   5.864
 4371POPC   GL156173  33.780   1.966   6.164
 4371POPC   GL256174  33.867   2.029   6.164
 4371POPC   C1A56175  33.785   1.985   6.464
 4371POPC   D2A56176  33.835   1.967   6.764
 4371POPC   C3A56177  33.756   2.019   7.064
 4371POPC   C4A56178  33.799   1.973   7.364
 4371POPC   C1B56179  34.019   2.107   6.464
 4371POPC   C2B56180  33.966   2.162   6.764
 4371POPC   C3B56181  34.023   2.179   7.064
 4371POPC   C4B56182  34.035   2.174   7.364
 4372POPC   NC356183  19.817  38.488   5.564
 4372POPC   PO456184  19.822  38.467   5.864
 4372POPC   GL156185  19.869  38.504   6.164
 4372POPC   GL256186  19.898  38.594   6.164
 4372POPC   C1A56187  19.851  38.426   6.464
 4372POPC   D2A56188  19.851  38.449   6.764
 4372POPC   C3A56189  19.786  38.461   7.064
 4372POPC   C4A56190  19.849  38.425   7.364
 4372POPC   C1B56191  19.903  38.650   6.464
 4372POPC   C2B56192  19.838  38.691   6.764
 4372POPC   C3B56193  19.904  38.687   7.064
 4372POPC   C4B56194  19.925  38.731   7.364
 4373POPC   NC356195  16.761  31.484   5.564
 4373POPC   PO456196  16.743  31.505   5.864
 4373POPC   GL156197  16.759  31.448   6.164
 4373POPC   GL256198  16.561  31.460   6.164
 4373POPC   C1A56199  16.753  31.443   6.464
 4373POPC   D2A56200  16.748  31.458   6.764
 4373POPC   C3A56201  16.746  31.460   7.064
 4373POPC   C4A56202  16.709  31.435   7.364
 4373POPC   C1B56203  16.534  31.509   6.464
 4373POPC   C2B56204  16.535  31.483   6.764
 4373POPC   C3B56205  16.489  31.475   7.064
 4373POPC   C4B56206  16.443  31.550   7.364
 4374POPC   NC356207  14.402   8.208   5.564
 4374POPC   PO456208  14.372   8.152   5.864
 4374POPC   GL156209  14.384   8.207   6.164
 4374POPC   GL256210  14.372   8.332   6.164
 4374POPC   C1A56211  14.373   8.158   6.464
 4374POPC   D2A56212  14.390   8.240   6.764
 4374POPC   C3A56213  14.448   8.163   7.064
 4374POPC   C4A56214  14.434   8.179   7.364
 4374POPC   C1B56215  14.352   8.393   6.464
 4374POPC   C2B56216  14.306   8.455   6.764
 4374POPC   C3B56217  14.339   8.446   7.064
 4374POPC   C4B56218  14.307   8.473   7.364
 4375POPC   NC356219  15.215   7.446   5.564
 4375POPC   PO456220  15.139   7.381   5.864
 4375POPC   GL156221  15.195   7.376   6.164
 4375POPC   GL256222  15.158   7.343   6.164
 4375POPC   C1A56223  15.181   7.463   6.464
 4375POPC   D2A56224  15.214   7.372   6.764
 4375POPC   C3A56225  15.226   7.417   7.064
 4375POPC   C4A56226  15.186   7.423   7.364
 4375POPC   C1B56227  15.245   7.132   6.464
 4375POPC   C2B56228  15.201   7.201   6.764
 4375POPC   C3B56229  15.201   7.192   7.064
 4375POPC   C4B56230  15.167   7.202   7.364
 4376POPC   NC356231  32.204  40.006   5.564
 4376POPC   PO456232  32.227  39.997   5.864
 4376POPC   GL156233  32.244  40.036   6.164
 4376POPC   GL256234  32.309  40.116   6.164
 4376POPC   C1A56235  32.234  39.988   6.464
 4376POPC   D2A56236  32.251  40.014   6.764
 4376POPC   C3A56237  32.232  39.974   7.064
 4376POPC   C4A56238  32.274  39.972   7.364
 4376POPC   C1B56239  32.385  40.197   6.464
 4376POPC   C2B56240  32.374  40.227   6.764
 4376POPC   C3B56241  32.412  40.207   7.064
 4376POPC   C4B56242  32.369  40.255   7.364
 4377POPC   NC356243  16.729  10.549   5.564
 4377POPC   PO456244  16.728  10.555   5.864
 4377POPC   GL156245  16.700  10.487   6.164
 4377POPC   GL256246  16.693  10.607   6.164
 4377POPC   C1A56247  16.718  10.548   6.464
 4377POPC   D2A56248  16.731  10.574   6.764
 4377POPC   C3A56249  16.734  10.530   7.064
 4377POPC   C4A56250  16.748  10.496   7.364
 4377POPC   C1B56251  16.701  10.733   6.464
 4377POPC   C2B56252  16.708  10.755   6.764
 4377POPC   C3B56253  16.767  10.762   7.064
 4377POPC   C4B56254  16.749  10.771   7.364
 4378POPC   NC356255   0.474  38.423   5.564
 4378POPC   PO456256   0.440  38.468   5.864
 4378POPC   GL156257   0.486  38.486   6.164
 4378POPC   GL256258   0.415  38.385   6.164
 4378POPC   C1A56259   0.460  38.449   6.464
 4378POPC   D2A56260   0.440  38.448   6.764
 4378POPC   C3A56261   0.457  38.443   7.064
 4378POPC   C4A56262   0.475  38.437   7.364
 4378POPC   C1B56263   0.376  38.245   6.464
 4378POPC   C2B56264   0.324  38.238   6.764
 4378POPC   C3B56265   0.326  38.179   7.064
 4378POPC   C4B56266   0.339  38.243   7.364
 4379POPC   NC356267  22.931   9.715   5.564
 4379POPC   PO456268  22.912   9.768   5.864
 4379POPC   GL156269  22.939   9.763   6.164
 4379POPC   GL256270  23.014   9.734   6.164
 4379POPC   C1A56271  22.904   9.783   6.464
 4379POPC   D2A56272  22.922   9.797   6.764
 4379POPC   C3A56273  22.927   9.748   7.064
 4379POPC   C4A56274  22.961   9.778   7.364
 4379POPC   C1B56275  23.130   9.639   6.464
 4379POPC   C2B56276  23.153   9.635   6.764
 4379POPC   C3B56277  23.211   9.670   7.064
 4379POPC   C4B56278  23.183   9.683   7.364
 4380POPC   NC356279   5.871  24.521   5.564
 4380POPC   PO456280   5.868  24.499   5.864
 4380POPC   GL156281   5.891  24.481   6.164
 4380POPC   GL256282   5.980  24.598   6.164
 4380POPC   C1A56283   5.892  24.522   6.464
 4380POPC   D2A56284   5.846  24.470   6.764
 4380POPC   C3A56285   5.863  24.526   7.064
 4380POPC   C4A56286   5.889  24.448   7.364
 4380POPC   C1B56287   5.954  24.722   6.464
 4380POPC   C2B56288   5.959  24.686   6.764
 4380POPC   C3B56289   5.968  24.747   7.064
 4380POPC   C4B56290   5.979  24.722   7.364
 4381POPC   NC356291  10.557   8.994   5.564
 4381POPC   PO456292  10.569   8.929   5.864
 4381POPC   GL156293  10.484   8.992   6.164
 4381POPC   GL256294  10.516   9.063   6.164
 4381POPC   C1A56295  10.507   8.952   6.464
 4381POPC   D2A56296  10.537   8.993   6.764
 4381POPC   C3A56297  10.500   9.012   7.064
 4381POPC   C4A56298  10.562   8.958   7.364
 4381POPC   C1B56299  10.563   9.236   6.464
 4381POPC   C2B56300  10.498   9.214   6.764
 4381POPC   C3B56301  10.522   9.213   7.064
 4381POPC   C4B56302  10.513   9.224   7.364
 4382POPC   NC356303   4.319  28.338   5.564
 4382POPC   PO456304   4.363  28.332   5.864
 4382POPC   GL156305   4.330  28.411   6.164
 4382POPC   GL256306   4.423  28.422   6.164
 4382POPC   C1A56307   4.269  28.355   6.464
 4382POPC   D2A56308   4.304  28.363   6.764
 4382POPC   C3A56309   4.363  28.331   7.064
 4382POPC   C4A56310   4.338  28.373   7.364
 4382POPC   C1B56311   4.534  28.451   6.464
 4382POPC   C2B56312   4.546  28.458   6.764
 4382POPC   C3B56313   4.536  28.523   7.064
 4382POPC   C4B56314   4.565  28.515   7.364
 4383POPC   NC356315  22.164  12.067   5.564
 4383POPC   PO456316  22.132  12.064   5.864
 4383POPC   GL156317  22.160  12.054   6.164
 4383POPC   GL256318  22.113  12.201   6.164
 4383POPC   C1A56319  22.128  12.046   6.464
 4383POPC   D2A56320  22.130  12.047   6.764
 4383POPC   C3A56321  22.122  12.066   7.064
 4383POPC   C4A56322  22.159  12.065   7.364
 4383POPC   C1B56323  21.979  12.304   6.464
 4383POPC   C2B56324  21.989  12.270   6.764
 4383POPC   C3B56325  22.045  12.321   7.064
 4383POPC   C4B56326  22.051  12.321   7.364
 4384POPC   NC356327  41.548  30.703   5.564
 4384POPC   PO456328  41.526  30.652   5.864
 4384POPC   GL156329  41.537  30.662   6.164
 4384POPC   GL256330  41.699  30.753   6.164
 4384POPC   C1A56331  41.602  30.732   6.464
 4384POPC   D2A56332  41.597  30.699   6.764
 4384POPC   C3A56333  41.575  30.729   7.064
 4384POPC   C4A56334  41.530  30.743   7.364
 4384POPC   C1B56335  41.757  30.853   6.464
 4384POPC   C2B56336  41.780  30.846   6.764
 4384POPC   C3B56337  41.760  30.860   7.064
 4384POPC   C4B56338  41.750  30.868   7.364
 4385POPC   NC356339   5.057  10.521   5.564
 4385POPC   PO456340   5.126  10.542   5.864
 4385POPC   GL156341   5.080  10.538   6.164
 4385POPC   GL256342   5.030  10.379   6.164
 4385POPC   C1A56343   5.142  10.494   6.464
 4385POPC   D2A56344   5.078  10.502   6.764
 4385POPC   C3A56345   5.068  10.568   7.064
 4385POPC   C4A56346   5.095  10.542   7.364
 4385POPC   C1B56347   5.042  10.287   6.464
 4385POPC   C2B56348   5.092  10.325   6.764
 4385POPC   C3B56349   5.047  10.324   7.064
 4385POPC   C4B56350   5.029  10.242   7.364
 4386POPC   NC356351  26.007  33.816   5.564
 4386POPC   PO456352  26.091  33.794   5.864
 4386POPC   GL156353  26.082  33.805   6.164
 4386POPC   GL256354  26.065  33.666   6.164
 4386POPC   C1A56355  26.068  33.784   6.464
 4386POPC   D2A56356  26.012  33.834   6.764
 4386POPC   C3A56357  26.064  33.807   7.064
 4386POPC   C4A56358  26.069  33.829   7.364
 4386POPC   C1B56359  26.119  33.601   6.464
 4386POPC   C2B56360  26.169  33.569   6.764
 4386POPC   C3B56361  26.131  33.538   7.064
 4386POPC   C4B56362  26.086  33.555   7.364
 4387POPC   NC356363  43.089   3.576   5.564
 4387POPC   PO456364  43.065   3.558   5.864
 4387POPC   GL156365  43.108   3.496   6.164
 4387POPC   GL256366  43.232   3.607   6.164
 4387POPC   C1A56367  43.113   3.498   6.464
 4387POPC   D2A56368  43.079   3.543   6.764
 4387POPC   C3A56369  43.108   3.494   7.064
 4387POPC   C4A56370  43.116   3.569   7.364
 4387POPC   C1B56371  43.317   3.654   6.464
 4387POPC   C2B56372  43.335   3.702   6.764
 4387POPC   C3B56373  43.363   3.723   7.064
 4387POPC   C4B56374  43.297   3.657   7.364
 4388POPC   NC356375   7.445  22.210   5.564
 4388POPC   PO456376   7.390  22.162   5.864
 4388POPC   GL156377   7.400  22.160   6.164
 4388POPC   GL256378   7.331  22.159   6.164
 4388POPC   C1A56379   7.395  22.133   6.464
 4388POPC   D2A56380   7.419  22.186   6.764
 4388POPC   C3A56381   7.434  22.132   7.064
 4388POPC   C4A56382   7.382  22.143   7.364
 4388POPC   C1B56383   7.177  22.017   6.464
 4388POPC   C2B56384   7.154  22.015   6.764
 4388POPC   C3B56385   7.174  22.093   7.064
 4388POPC   C4B56386   7.213  22.064   7.364
 4389POPC   NC356387  21.363  16.745   5.564
 4389POPC   PO456388  21.386  16.771   5.864
 4389POPC   GL156389  21.381  16.743   6.164
 4389POPC   GL256390  21.477  16.792   6.164
 4389POPC   C1A56391  21.407  16.755   6.464
 4389POPC   D2A56392  21.384  16.743   6.764
 4389POPC   C3A56393  21.409  16.776   7.064
 4389POPC   C4A56394  21.371  16.770   7.364
 4389POPC   C1B56395  21.512  16.897   6.464
 4389POPC   C2B56396  21.567  16.907   6.764
 4389POPC   C3B56397  21.592  16.945   7.064
 4389POPC   C4B56398  21.550  16.909   7.364
 4390POPC   NC356399   8.954  38.449   5.564
 4390POPC   PO456400   8.993  38.457   5.864
 4390POPC   GL156401   8.967  38.452   6.164
 4390POPC   GL256402   8.969  38.323   6.164
 4390POPC   C1A56403   8.969  38.451   6.464
 4390POPC   D2A56404   8.981  38.504   6.764
 4390POPC   C3A56405   9.007  38.430   7.064
 4390POPC   C4A56406   9.011  38.416   7.364
 4390POPC   C1B56407   9.026  38.224   6.464
 4390POPC   C2B56408   9.021  38.227   6.764
 4390POPC   C3B56409   9.005  38.188   7.064
 4390POPC   C4B56410   9.021  38.192   7.364
 4391POPC   NC356411   2.008  41.579   5.564
 4391POPC   PO456412   1.972  41.568   5.864
 4391POPC   GL156413   2.016  41.528   6.164
 4391POPC   GL256414   2.063  41.516   6.164
 4391POPC   C1A56415   2.015  41.530   6.464
 4391POPC   D2A56416   1.970  41.584   6.764
 4391POPC   C3A56417   1.977  41.580   7.064
 4391POPC   C4A56418   1.975  41.537   7.364
 4391POPC   C1B56419   2.192  41.447   6.464
 4391POPC   C2B56420   2.238  41.431   6.764
 4391POPC   C3B56421   2.146  41.435   7.064
 4391POPC   C4B56422   2.173  41.374   7.364
 4392POPC   NC356423  26.004  14.418   5.564
 4392POPC   PO456424  26.070  14.354   5.864
 4392POPC   GL156425  26.040  14.449   6.164
 4392POPC   GL256426  26.072  14.546   6.164
 4392POPC   C1A56427  25.995  14.416   6.464
 4392POPC   D2A56428  26.079  14.410   6.764
 4392POPC   C3A56429  26.052  14.444   7.064
 4392POPC   C4A56430  26.066  14.366   7.364
 4392POPC   C1B56431  26.051  14.649   6.464
 4392POPC   C2B56432  26.117  14.642   6.764
 4392POPC   C3B56433  26.074  14.610   7.064
 4392POPC   C4B56434  26.083  14.642   7.364
 4393POPC   NC356435  12.838   1.178   5.564
 4393POPC   PO456436  12.804   1.185   5.864
 4393POPC   GL156437  12.812   1.192   6.164
 4393POPC   GL256438  12.785   1.264   6.164
 4393POPC   C1A56439  12.887   1.199   6.464
 4393POPC   D2A56440  12.805   1.191   6.764
 4393POPC   C3A56441  12.849   1.201   7.064
 4393POPC   C4A56442  12.826   1.250   7.364
 4393POPC   C1B56443  12.671   1.355   6.464
 4393POPC   C2B56444  12.640   1.373   6.764
 4393POPC   C3B56445  12.655   1.416   7.064
 4393POPC   C4B56446  12.660   1.356   7.364
 4394POPC   NC356447   8.153   6.647   5.564
 4394POPC   PO456448   8.221   6.642   5.864
 4394POPC   GL156449   8.191   6.621   6.164
 4394POPC   GL256450   8.128   6.544   6.164
 4394POPC   C1A56451   8.186   6.603   6.464
 4394POPC   D2A56452   8.210   6.632   6.764
 4394POPC   C3A56453   8.170   6.625   7.064
 4394POPC   C4A56454   8.215   6.622   7.364
 4394POPC   C1B56455   7.989   6.529   6.464
 4394POPC   C2B56456   7.962   6.460   6.764
 4394POPC   C3B56457   7.991   6.531   7.064
 4394POPC   C4B56458   8.032   6.535   7.364
 4395POPC   NC356459  39.250  22.202   5.564
 4395POPC   PO456460  39.187  22.134   5.864
 4395POPC   GL156461  39.187  22.185   6.164
 4395POPC   GL256462  39.367  22.186   6.164
 4395POPC   C1A56463  39.278  22.162   6.464
 4395POPC   D2A56464  39.216  22.168   6.764
 4395POPC   C3A56465  39.230  22.138   7.064
 4395POPC   C4A56466  39.233  22.209   7.364
 4395POPC   C1B56467  39.510  22.186   6.464
 4395POPC   C2B56468  39.507  22.262   6.764
 4395POPC   C3B56469  39.482  22.238   7.064
 4395POPC   C4B56470  39.445  22.208   7.364
 4396POPC   NC356471  11.261  40.005   5.564
 4396POPC   PO456472  11.287  40.048   5.864
 4396POPC   GL156473  11.264  40.039   6.164
 4396POPC   GL256474  11.234  40.084   6.164
 4396POPC   C1A56475  11.341  40.034   6.464
 4396POPC   D2A56476  11.346  39.990   6.764
 4396POPC   C3A56477  11.333  40.040   7.064
 4396POPC   C4A56478  11.344  40.015   7.364
 4396POPC   C1B56479  11.056  40.059   6.464
 4396POPC   C2B56480  11.117  40.074   6.764
 4396POPC   C3B56481  11.100  40.101   7.064
 4396POPC   C4B56482  11.087  40.068   7.364
 4397POPC   NC356483  27.584  19.838   5.564
 4397POPC   PO456484  27.564  19.831   5.864
 4397POPC   GL156485  27.620  19.878   6.164
 4397POPC   GL256486  27.438  19.781   6.164
 4397POPC   C1A56487  27.548  19.785   6.464
 4397POPC   D2A56488  27.634  19.845   6.764
 4397POPC   C3A56489  27.590  19.854   7.064
 4397POPC   C4A56490  27.621  19.818   7.364
 4397POPC   C1B56491  27.351  19.778   6.464
 4397POPC   C2B56492  27.375  19.790   6.764
 4397POPC   C3B56493  27.341  19.860   7.064
 4397POPC   C4B56494  27.332  19.815   7.364
 4398POPC   NC356495   8.172  12.855   5.564
 4398POPC   PO456496   8.205  12.814   5.864
 4398POPC   GL156497   8.173  12.819   6.164
 4398POPC   GL256498   8.223  12.930   6.164
 4398POPC   C1A56499   8.181  12.880   6.464
 4398POPC   D2A56500   8.153  12.829   6.764
 4398POPC   C3A56501   8.237  12.858   7.064
 4398POPC   C4A56502   8.218  12.868   7.364
 4398POPC   C1B56503   8.270  13.105   6.464
 4398POPC   C2B56504   8.248  13.118   6.764
 4398POPC   C3B56505   8.256  13.119   7.064
 4398POPC   C4B56506   8.235  13.125   7.364
 4399POPC   NC356507  16.697  19.104   5.564
 4399POPC   PO456508  16.721  19.094   5.864
 4399POPC   GL156509  16.720  19.058   6.164
 4399POPC   GL256510  16.770  18.946   6.164
 4399POPC   C1A56511  16.718  19.023   6.464
 4399POPC   D2A56512  16.719  19.039   6.764
 4399POPC   C3A56513  16.718  19.016   7.064
 4399POPC   C4A56514  16.764  19.059   7.364
 4399POPC   C1B56515  16.701  18.831   6.464
 4399POPC   C2B56516  16.763  18.764   6.764
 4399POPC   C3B56517  16.750  18.816   7.064
 4399POPC   C4B56518  16.763  18.805   7.364
 4400POPC   NC356519  38.499  41.516   5.564
 4400POPC   PO456520  38.426  41.524   5.864
 4400POPC   GL156521  38.454  41.556   6.164
 4400POPC   GL256522  38.623  41.580   6.164
 4400POPC   C1A56523  38.440  41.583   6.464
 4400POPC   D2A56524  38.412  41.583   6.764
 4400POPC   C3A56525  38.476  41.554   7.064
 4400POPC   C4A56526  38.458  41.528   7.364
 4400POPC   C1B56527  38.677  41.484   6.464
 4400POPC   C2B56528  38.751  41.560   6.764
 4400POPC   C3B56529  38.664  41.518   7.064
 4400POPC   C4B56530  38.669  41.527   7.364
 4401POPC   NC356531  29.191   5.062   5.564
 4401POPC   PO456532  29.193   5.137   5.864
 4401POPC   GL156533  29.110   5.116   6.164
 4401POPC   GL256534  29.225   5.106   6.164
 4401POPC   C1A56535  29.119   5.085   6.464
 4401POPC   D2A56536  29.187   5.098   6.764
 4401POPC   C3A56537  29.135   5.092   7.064
 4401POPC   C4A56538  29.124   5.057   7.364
 4401POPC   C1B56539  29.398   5.069   6.464
 4401POPC   C2B56540  29.357   5.055   6.764
 4401POPC   C3B56541  29.343   5.060   7.064
 4401POPC   C4B56542  29.345   5.044   7.364
 4402POPC   NC356543   7.432  37.682   5.564
 4402POPC   PO456544   7.435  37.648   5.864
 4402POPC   GL156545   7.438  37.712   6.164
 4402POPC   GL256546   7.329  37.808   6.164
 4402POPC   C1A56547   7.464  37.645   6.464
 4402POPC   D2A56548   7.409  37.642   6.764
 4402POPC   C3A56549   7.436  37.640   7.064
 4402POPC   C4A56550   7.463  37.631   7.364
 4402POPC   C1B56551   7.265  37.823   6.464
 4402POPC   C2B56552   7.305  37.835   6.764
 4402POPC   C3B56553   7.221  37.906   7.064
 4402POPC   C4B56554   7.256  37.893   7.364
 4403POPC   NC356555  15.907  12.078   5.564
 4403POPC   PO456556  15.936  12.114   5.864
 4403POPC   GL156557  15.929  12.052   6.164
 4403POPC   GL256558  16.072  12.187   6.164
 4403POPC   C1A56559  16.002  12.092   6.464
 4403POPC   D2A56560  15.936  12.031   6.764
 4403POPC   C3A56561  15.967  12.118   7.064
 4403POPC   C4A56562  15.967  12.059   7.364
 4403POPC   C1B56563  16.158  12.234   6.464
 4403POPC   C2B56564  16.157  12.275   6.764
 4403POPC   C3B56565  16.186  12.196   7.064
 4403POPC   C4B56566  16.130  12.192   7.364
 4404POPC   NC356567  25.283  41.577   5.564
 4404POPC   PO456568  25.273  41.548   5.864
 4404POPC   GL156569  25.231  41.606   6.164
 4404POPC   GL256570  25.155  41.479   6.164
 4404POPC   C1A56571  25.285  41.602   6.464
 4404POPC   D2A56572  25.238  41.521   6.764
 4404POPC   C3A56573  25.286  41.562   7.064
 4404POPC   C4A56574  25.257  41.519   7.364
 4404POPC   C1B56575  25.040  41.400   6.464
 4404POPC   C2B56576  25.106  41.408   6.764
 4404POPC   C3B56577  25.093  41.403   7.064
 4404POPC   C4B56578  25.039  41.383   7.364
 4405POPC   NC356579   9.732  29.892   5.564
 4405POPC   PO456580   9.743  29.908   5.864
 4405POPC   GL156581   9.765  29.956   6.164
 4405POPC   GL256582   9.909  29.833   6.164
 4405POPC   C1A56583   9.767  29.952   6.464
 4405POPC   D2A56584   9.718  29.911   6.764
 4405POPC   C3A56585   9.740  29.880   7.064
 4405POPC   C4A56586   9.731  29.893   7.364
 4405POPC   C1B56587   9.988  29.831   6.464
 4405POPC   C2B56588  10.007  29.791   6.764
 4405POPC   C3B56589   9.975  29.802   7.064
 4405POPC   C4B56590  10.017  29.813   7.364
 4406POPC   NC356591  36.937   8.939   5.564
 4406POPC   PO456592  36.892   8.998   5.864
 4406POPC   GL156593  36.895   8.988   6.164
 4406POPC   GL256594  37.031   8.871   6.164
 4406POPC   C1A56595  36.915   9.015   6.464
 4406POPC   D2A56596  36.879   8.953   6.764
 4406POPC   C3A56597  36.899   8.962   7.064
 4406POPC   C4A56598  36.925   8.971   7.364
 4406POPC   C1B56599  37.147   8.798   6.464
 4406POPC   C2B56600  37.156   8.833   6.764
 4406POPC   C3B56601  37.079   8.821   7.064
 4406POPC   C4B56602  37.122   8.800   7.364
 4407POPC   NC356603  15.912  18.238   5.564
 4407POPC   PO456604  15.992  18.313   5.864
 4407POPC   GL156605  15.989  18.244   6.164
 4407POPC   GL256606  15.889  18.164   6.164
 4407POPC   C1A56607  15.962  18.243   6.464
 4407POPC   D2A56608  15.985  18.296   6.764
 4407POPC   C3A56609  15.938  18.319   7.064
 4407POPC   C4A56610  15.937  18.256   7.364
 4407POPC   C1B56611  15.810  18.128   6.464
 4407POPC   C2B56612  15.715  18.098   6.764
 4407POPC   C3B56613  15.725  18.078   7.064
 4407POPC   C4B56614  15.764  18.133   7.364
 4408POPC   NC356615  22.193  22.986   5.564
 4408POPC   PO456616  22.171  22.945   5.864
 4408POPC   GL156617  22.193  22.937   6.164
 4408POPC   GL256618  22.128  22.818   6.164
 4408POPC   C1A56619  22.137  22.931   6.464
 4408POPC   D2A56620  22.192  22.918   6.764
 4408POPC   C3A56621  22.165  22.909   7.064
 4408POPC   C4A56622  22.203  22.913   7.364
 4408POPC   C1B56623  22.028  22.713   6.464
 4408POPC   C2B56624  22.052  22.684   6.764
 4408POPC   C3B56625  22.086  22.727   7.064
 4408POPC   C4B56626  22.077  22.751   7.364
 4409POPC   NC356627  26.066   3.571   5.564
 4409POPC   PO456628  26.004   3.585   5.864
 4409POPC   GL156629  26.031   3.556   6.164
 4409POPC   GL256630  25.925   3.496   6.164
 4409POPC   C1A56631  26.006   3.544   6.464
 4409POPC   D2A56632  26.038   3.576   6.764
 4409POPC   C3A56633  26.089   3.575   7.064
 4409POPC   C4A56634  26.002   3.520   7.364
 4409POPC   C1B56635  25.826   3.433   6.464
 4409POPC   C2B56636  25.820   3.461   6.764
 4409POPC   C3B56637  25.770   3.473   7.064
 4409POPC   C4B56638  25.847   3.396   7.364
 4410POPC   NC356639  39.271  42.315   5.564
 4410POPC   PO456640  39.197  42.384   5.864
 4410POPC   GL156641  39.269  42.288   6.164
 4410POPC   GL256642  39.308  42.304   6.164
 4410POPC   C1A56643  39.243  42.381   6.464
 4410POPC   D2A56644  39.196  42.382   6.764
 4410POPC   C3A56645  39.263  42.379   7.064
 4410POPC   C4A56646  39.276  42.359   7.364
 4410POPC   C1B56647  39.450  42.263   6.464
 4410POPC   C2B56648  39.476  42.251   6.764
 4410POPC   C3B56649  39.491  42.326   7.064
 4410POPC   C4B56650  39.474  42.295   7.364
 4411POPC   NC356651  14.411  40.767   5.564
 4411POPC   PO456652  14.429  40.748   5.864
 4411POPC   GL156653  14.427  40.775   6.164
 4411POPC   GL256654  14.442  40.622   6.164
 4411POPC   C1A56655  14.380  40.762   6.464
 4411POPC   D2A56656  14.425  40.810   6.764
 4411POPC   C3A56657  14.360  40.786   7.064
 4411POPC   C4A56658  14.393  40.796   7.364
 4411POPC   C1B56659  14.524  40.574   6.464
 4411POPC   C2B56660  14.447  40.591   6.764
 4411POPC   C3B56661  14.495  40.556   7.064
 4411POPC   C4B56662  14.449  40.524   7.364
 4412POPC   NC356663  12.840  31.491   5.564
 4412POPC   PO456664  12.823  31.510   5.864
 4412POPC   GL156665  12.816  31.462   6.164
 4412POPC   GL256666  12.850  31.589   6.164
 4412POPC   C1A56667  12.887  31.437   6.464
 4412POPC   D2A56668  12.892  31.465   6.764
 4412POPC   C3A56669  12.891  31.488   7.064
 4412POPC   C4A56670  12.832  31.469   7.364
 4412POPC   C1B56671  12.985  31.699   6.464
 4412POPC   C2B56672  12.962  31.702   6.764
 4412POPC   C3B56673  12.957  31.697   7.064
 4412POPC   C4B56674  12.936  31.662   7.364
 4413POPC   NC356675  35.308   8.977   5.564
 4413POPC   PO456676  35.390   9.020   5.864
 4413POPC   GL156677  35.362   8.971   6.164
 4413POPC   GL256678  35.262   9.010   6.164
 4413POPC   C1A56679  35.368   8.987   6.464
 4413POPC   D2A56680  35.316   8.931   6.764
 4413POPC   C3A56681  35.354   8.923   7.064
 4413POPC   C4A56682  35.375   8.979   7.364
 4413POPC   C1B56683  35.060   8.967   6.464
 4413POPC   C2B56684  35.104   8.934   6.764
 4413POPC   C3B56685  35.140   8.975   7.064
 4413POPC   C4B56686  35.130   8.936   7.364
 4414POPC   NC356687   2.730   0.457   5.564
 4414POPC   PO456688   2.760   0.452   5.864
 4414POPC   GL156689   2.748   0.439   6.164
 4414POPC   GL256690   2.861   0.354   6.164
 4414POPC   C1A56691   2.791   0.402   6.464
 4414POPC   D2A56692   2.763   0.481   6.764
 4414POPC   C3A56693   2.755   0.422   7.064
 4414POPC   C4A56694   2.769   0.443   7.364
 4414POPC   C1B56695   2.973   0.352   6.464
 4414POPC   C2B56696   2.982   0.332   6.764
 4414POPC   C3B56697   3.043   0.360   7.064
 4414POPC   C4B56698   3.048   0.328   7.364
 4415POPC   NC356699  16.696   6.615   5.564
 4415POPC   PO456700  16.722   6.616   5.864
 4415POPC   GL156701  16.767   6.679   6.164
 4415POPC   GL256702  16.837   6.614   6.164
 4415POPC   C1A56703  16.771   6.655   6.464
 4415POPC   D2A56704  16.748   6.632   6.764
 4415POPC   C3A56705  16.702   6.617   7.064
 4415POPC   C4A56706  16.767   6.633   7.364
 4415POPC   C1B56707  16.927   6.548   6.464
 4415POPC   C2B56708  16.936   6.560   6.764
 4415POPC   C3B56709  16.964   6.554   7.064
 4415POPC   C4B56710  16.993   6.616   7.364
 4416POPC   NC356711  14.436   9.770   5.564
 4416POPC   PO456712  14.362   9.713   5.864
 4416POPC   GL156713  14.447   9.768   6.164
 4416POPC   GL256714  14.526   9.792   6.164
 4416POPC   C1A56715  14.381   9.747   6.464
 4416POPC   D2A56716  14.428   9.702   6.764
 4416POPC   C3A56717  14.389   9.728   7.064
 4416POPC   C4A56718  14.377   9.779   7.364
 4416POPC   C1B56719  14.629   9.845   6.464
 4416POPC   C2B56720  14.656   9.889   6.764
 4416POPC   C3B56721  14.672   9.846   7.064
 4416POPC   C4B56722  14.649   9.850   7.364
 4417POPC   NC356723  22.938  34.588   5.564
 4417POPC   PO456724  22.983  34.624   5.864
 4417POPC   GL156725  22.985  34.622   6.164
 4417POPC   GL256726  23.030  34.689   6.164
 4417POPC   C1A56727  22.986  34.592   6.464
 4417POPC   D2A56728  22.940  34.570   6.764
 4417POPC   C3A56729  22.893  34.540   7.064
 4417POPC   C4A56730  22.909  34.611   7.364
 4417POPC   C1B56731  23.140  34.751   6.464
 4417POPC   C2B56732  23.170  34.756   6.764
 4417POPC   C3B56733  23.146  34.760   7.064
 4417POPC   C4B56734  23.121  34.760   7.364
 4418POPC   NC356735   6.634   5.911   5.564
 4418POPC   PO456736   6.604   5.880   5.864
 4418POPC   GL156737   6.608   5.844   6.164
 4418POPC   GL256738   6.763   5.894   6.164
 4418POPC   C1A56739   6.651   5.853   6.464
 4418POPC   D2A56740   6.628   5.829   6.764
 4418POPC   C3A56741   6.649   5.857   7.064
 4418POPC   C4A56742   6.645   5.910   7.364
 4418POPC   C1B56743   6.925   5.838   6.464
 4418POPC   C2B56744   6.858   5.874   6.764
 4418POPC   C3B56745   6.921   5.851   7.064
 4418POPC   C4B56746   6.932   5.907   7.364
 4419POPC   NC356747  40.030   8.244   5.564
 4419POPC   PO456748  39.962   8.203   5.864
 4419POPC   GL156749  39.985   8.228   6.164
 4419POPC   GL256750  39.946   8.307   6.164
 4419POPC   C1A56751  40.051   8.189   6.464
 4419POPC   D2A56752  39.981   8.213   6.764
 4419POPC   C3A56753  40.056   8.162   7.064
 4419POPC   C4A56754  40.030   8.157   7.364
 4419POPC   C1B56755  39.896   8.417   6.464
 4419POPC   C2B56756  39.906   8.463   6.764
 4419POPC   C3B56757  39.933   8.446   7.064
 4419POPC   C4B56758  39.940   8.393   7.364
 4420POPC   NC356759  22.953   6.612   5.564
 4420POPC   PO456760  22.950   6.641   5.864
 4420POPC   GL156761  22.924   6.659   6.164
 4420POPC   GL256762  22.887   6.512   6.164
 4420POPC   C1A56763  22.949   6.615   6.464
 4420POPC   D2A56764  22.925   6.626   6.764
 4420POPC   C3A56765  22.926   6.607   7.064
 4420POPC   C4A56766  22.930   6.609   7.364
 4420POPC   C1B56767  22.920   6.366   6.464
 4420POPC   C2B56768  22.935   6.415   6.764
 4420POPC   C3B56769  22.939   6.363   7.064
 4420POPC   C4B56770  22.916   6.426   7.364
 4421POPC   NC356771   7.393  25.270   5.564
 4421POPC   PO456772   7.377  25.230   5.864
 4421POPC   GL156773   7.463  25.251   6.164
 4421POPC   GL256774   7.342  25.175   6.164
 4421POPC   C1A56775   7.431  25.287   6.464
 4421POPC   D2A56776   7.410  25.282   6.764
 4421POPC   C3A56777   7.437  25.270   7.064
 4421POPC   C4A56778   7.374  25.279   7.364
 4421POPC   C1B56779   7.161  25.148   6.464
 4421POPC   C2B56780   7.210  25.114   6.764
 4421POPC   C3B56781   7.240  25.171   7.064
 4421POPC   C4B56782   7.195  25.137   7.364
 4422POPC   NC356783   5.884  38.477   5.564
 4422POPC   PO456784   5.883  38.432   5.864
 4422POPC   GL156785   5.875  38.423   6.164
 4422POPC   GL256786   5.910  38.359   6.164
 4422POPC   C1A56787   5.890  38.495   6.464
 4422POPC   D2A56788   5.858  38.503   6.764
 4422POPC   C3A56789   5.849  38.474   7.064
 4422POPC   C4A56790   5.907  38.406   7.364
 4422POPC   C1B56791   6.082  38.286   6.464
 4422POPC   C2B56792   6.032  38.254   6.764
 4422POPC   C3B56793   6.017  38.325   7.064
 4422POPC   C4B56794   6.013  38.283   7.364
 4423POPC   NC356795   4.348  41.595   5.564
 4423POPC   PO456796   4.334  41.527   5.864
 4423POPC   GL156797   4.329  41.603   6.164
 4423POPC   GL256798   4.355  41.475   6.164
 4423POPC   C1A56799   4.294  41.525   6.464
 4423POPC   D2A56800   4.359  41.575   6.764
 4423POPC   C3A56801   4.284  41.604   7.064
 4423POPC   C4A56802   4.358  41.570   7.364
 4423POPC   C1B56803   4.295  41.274   6.464
 4423POPC   C2B56804   4.309  41.277   6.764
 4423POPC   C3B56805   4.311  41.328   7.064
 4423POPC   C4B56806   4.365  41.318   7.364
 4424POPC   NC356807  15.905   5.827   5.564
 4424POPC   PO456808  15.995   5.830   5.864
 4424POPC   GL156809  15.944   5.841   6.164
 4424POPC   GL256810  16.000   5.744   6.164
 4424POPC   C1A56811  15.981   5.885   6.464
 4424POPC   D2A56812  15.957   5.820   6.764
 4424POPC   C3A56813  15.923   5.900   7.064
 4424POPC   C4A56814  15.987   5.908   7.364
 4424POPC   C1B56815  16.002   5.610   6.464
 4424POPC   C2B56816  15.958   5.585   6.764
 4424POPC   C3B56817  16.045   5.607   7.064
 4424POPC   C4B56818  15.972   5.641   7.364
 4425POPC   NC356819   8.925  40.739   5.564
 4425POPC   PO456820   8.965  40.772   5.864
 4425POPC   GL156821   9.012  40.741   6.164
 4425POPC   GL256822   8.806  40.727   6.164
 4425POPC   C1A56823   8.961  40.784   6.464
 4425POPC   D2A56824   8.965  40.744   6.764
 4425POPC   C3A56825   8.991  40.765   7.064
 4425POPC   C4A56826   8.997  40.803   7.364
 4425POPC   C1B56827   8.707  40.764   6.464
 4425POPC   C2B56828   8.694  40.806   6.764
 4425POPC   C3B56829   8.747  40.733   7.064
 4425POPC   C4B56830   8.712  40.729   7.364
 4426POPC   NC356831   0.422  33.808   5.564
 4426POPC   PO456832   0.466  33.807   5.864
 4426POPC   GL156833   0.474  33.783   6.164
 4426POPC   GL256834   0.360  33.952   6.164
 4426POPC   C1A56835   0.414  33.848   6.464
 4426POPC   D2A56836   0.459  33.796   6.764
 4426POPC   C3A56837   0.468  33.792   7.064
 4426POPC   C4A56838   0.476  33.773   7.364
 4426POPC   C1B56839   0.348  34.061   6.464
 4426POPC   C2B56840   0.361  34.053   6.764
 4426POPC   C3B56841   0.395  34.080   7.064
 4426POPC   C4B56842   0.331  34.046   7.364
 4427POPC   NC356843  23.706   2.716   5.564
 4427POPC   PO456844  23.737   2.794   5.864
 4427POPC   GL156845  23.727   2.756   6.164
 4427POPC   GL256846  23.612   2.851   6.164
 4427POPC   C1A56847  23.668   2.777   6.464
 4427POPC   D2A56848  23.746   2.784   6.764
 4427POPC   C3A56849  23.763   2.768   7.064
 4427POPC   C4A56850  23.719   2.745   7.364
 4427POPC   C1B56851  23.624   2.943   6.464
 4427POPC   C2B56852  23.580   2.951   6.764
 4427POPC   C3B56853  23.634   2.976   7.064
 4427POPC   C4B56854  23.588   2.970   7.364
 4428POPC   NC356855  15.202  44.651   5.564
 4428POPC   PO456856  15.132  44.618   5.864
 4428POPC   GL156857  15.213  44.671   6.164
 4428POPC   GL256858  15.240  44.761   6.164
 4428POPC   C1A56859  15.193  44.617   6.464
 4428POPC   D2A56860  15.133  44.673   6.764
 4428POPC   C3A56861  15.148  44.677   7.064
 4428POPC   C4A56862  15.139  44.635   7.364
 4428POPC   C1B56863  15.312  44.798   6.464
 4428POPC   C2B56864  15.347  44.794   6.764
 4428POPC   C3B56865  15.333  44.873   7.064
 4428POPC   C4B56866  15.383  44.864   7.364
 4429POPC   NC356867  44.629   4.362   5.564
 4429POPC   PO456868  44.659   4.275   5.864
 4429POPC   GL156869  44.691   4.340   6.164
 4429POPC   GL256870  44.765   4.417   6.164
 4429POPC   C1A56871  44.685   4.287   6.464
 4429POPC   D2A56872  44.642   4.347   6.764
 4429POPC   C3A56873  44.615   4.321   7.064
 4429POPC   C4A56874  44.694   4.357   7.364
 4429POPC   C1B56875  44.794   4.480   6.464
 4429POPC   C2B56876  44.861   4.471   6.764
 4429POPC   C3B56877  44.867   4.467   7.064
 4429POPC   C4B56878  44.813   4.546   7.364
 4430POPC   NC356879   4.324  24.482   5.564
 4430POPC   PO456880   4.353  24.469   5.864
 4430POPC   GL156881   4.307  24.470   6.164
 4430POPC   GL256882   4.373  24.628   6.164
 4430POPC   C1A56883   4.348  24.461   6.464
 4430POPC   D2A56884   4.268  24.499   6.764
 4430POPC   C3A56885   4.327  24.453   7.064
 4430POPC   C4A56886   4.271  24.473   7.364
 4430POPC   C1B56887   4.446  24.652   6.464
 4430POPC   C2B56888   4.459  24.700   6.764
 4430POPC   C3B56889   4.445  24.657   7.064
 4430POPC   C4B56890   4.441  24.666   7.364
 4431POPC   NC356891  31.487  29.904   5.564
 4431POPC   PO456892  31.425  29.952   5.864
 4431POPC   GL156893  31.520  29.929   6.164
 4431POPC   GL256894  31.571  30.034   6.164
 4431POPC   C1A56895  31.504  29.958   6.464
 4431POPC   D2A56896  31.425  29.935   6.764
 4431POPC   C3A56897  31.488  29.938   7.064
 4431POPC   C4A56898  31.477  29.942   7.364
 4431POPC   C1B56899  31.626  30.165   6.464
 4431POPC   C2B56900  31.626  30.148   6.764
 4431POPC   C3B56901  31.650  30.114   7.064
 4431POPC   C4B56902  31.578  30.085   7.364
 4432POPC   NC356903  34.594  39.263   5.564
 4432POPC   PO456904  34.573  39.228   5.864
 4432POPC   GL156905  34.597  39.254   6.164
 4432POPC   GL256906  34.628  39.166   6.164
 4432POPC   C1A56907  34.586  39.211   6.464
 4432POPC   D2A56908  34.619  39.267   6.764
 4432POPC   C3A56909  34.608  39.244   7.064
 4432POPC   C4A56910  34.530  39.271   7.364
 4432POPC   C1B56911  34.745  39.007   6.464
 4432POPC   C2B56912  34.708  39.037   6.764
 4432POPC   C3B56913  34.772  39.029   7.064
 4432POPC   C4B56914  34.777  39.028   7.364
 4433POPC   NC356915  33.770  11.328   5.564
 4433POPC   PO456916  33.831  11.338   5.864
 4433POPC   GL156917  33.849  11.325   6.164
 4433POPC   GL256918  33.770  11.460   6.164
 4433POPC   C1A56919  33.770  11.267   6.464
 4433POPC   D2A56920  33.812  11.322   6.764
 4433POPC   C3A56921  33.836  11.302   7.064
 4433POPC   C4A56922  33.763  11.277   7.364
 4433POPC   C1B56923  33.754  11.557   6.464
 4433POPC   C2B56924  33.767  11.501   6.764
 4433POPC   C3B56925  33.725  11.540   7.064
 4433POPC   C4B56926  33.774  11.533   7.364
 4434POPC   NC356927  23.675  40.821   5.564
 4434POPC   PO456928  23.747  40.740   5.864
 4434POPC   GL156929  23.762  40.818   6.164
 4434POPC   GL256930  23.680  40.873   6.164
 4434POPC   C1A56931  23.716  40.803   6.464
 4434POPC   D2A56932  23.738  40.811   6.764
 4434POPC   C3A56933  23.704  40.806   7.064
 4434POPC   C4A56934  23.725  40.817   7.364
 4434POPC   C1B56935  23.730  41.029   6.464
 4434POPC   C2B56936  23.678  41.008   6.764
 4434POPC   C3B56937  23.745  41.078   7.064
 4434POPC   C4B56938  23.719  41.018   7.364
 4435POPC   NC356939  13.653  19.849   5.564
 4435POPC   PO456940  13.591  19.852   5.864
 4435POPC   GL156941  13.586  19.795   6.164
 4435POPC   GL256942  13.705  19.918   6.164
 4435POPC   C1A56943  13.632  19.857   6.464
 4435POPC   D2A56944  13.677  19.829   6.764
 4435POPC   C3A56945  13.627  19.856   7.064
 4435POPC   C4A56946  13.602  19.809   7.364
 4435POPC   C1B56947  13.768  20.037   6.464
 4435POPC   C2B56948  13.760  20.014   6.764
 4435POPC   C3B56949  13.771  20.037   7.064
 4435POPC   C4B56950  13.697  20.096   7.364
 4436POPC   NC356951   1.961  35.356   5.564
 4436POPC   PO456952   2.026  35.338   5.864
 4436POPC   GL156953   2.038  35.370   6.164
 4436POPC   GL256954   2.039  35.475   6.164
 4436POPC   C1A56955   2.023  35.337   6.464
 4436POPC   D2A56956   1.983  35.330   6.764
 4436POPC   C3A56957   2.024  35.305   7.064
 4436POPC   C4A56958   1.977  35.305   7.364
 4436POPC   C1B56959   2.036  35.622   6.464
 4436POPC   C2B56960   2.053  35.565   6.764
 4436POPC   C3B56961   2.021  35.565   7.064
 4436POPC   C4B56962   2.058  35.598   7.364
 4437POPC   NC356963  29.194  24.536   5.564
 4437POPC   PO456964  29.191  24.487   5.864
 4437POPC   GL156965  29.158  24.467   6.164
 4437POPC   GL256966  28.988  24.518   6.164
 4437POPC   C1A56967  29.154  24.521   6.464
 4437POPC   D2A56968  29.111  24.466   6.764
 4437POPC   C3A56969  29.114  24.484   7.064
 4437POPC   C4A56970  29.145  24.442   7.364
 4437POPC   C1B56971  28.868  24.514   6.464
 4437POPC   C2B56972  28.887  24.554   6.764
 4437POPC   C3B56973  28.853  24.560   7.064
 4437POPC   C4B56974  28.851  24.506   7.364
 4438POPC   NC356975  23.712  12.898   5.564
 4438POPC   PO456976  23.682  12.858   5.864
 4438POPC   GL156977  23.699  12.855   6.164
 4438POPC   GL256978  23.666  12.724   6.164
 4438POPC   C1A56979  23.741  12.838   6.464
 4438POPC   D2A56980  23.759  12.895   6.764
 4438POPC   C3A56981  23.699  12.832   7.064
 4438POPC   C4A56982  23.684  12.866   7.364
 4438POPC   C1B56983  23.676  12.640   6.464
 4438POPC   C2B56984  23.705  12.635   6.764
 4438POPC   C3B56985  23.655  12.609   7.064
 4438POPC   C4B56986  23.705  12.614   7.364
 4439POPC   NC356987  37.657  36.888   5.564
 4439POPC   PO456988  37.668  36.881   5.864
 4439POPC   GL156989  37.639  36.922   6.164
 4439POPC   GL256990  37.579  36.896   6.164
 4439POPC   C1A56991  37.667  36.900   6.464
 4439POPC   D2A56992  37.632  36.948   6.764
 4439POPC   C3A56993  37.653  36.947   7.064
 4439POPC   C4A56994  37.696  36.861   7.364
 4439POPC   C1B56995  37.404  36.950   6.464
 4439POPC   C2B56996  37.402  36.959   6.764
 4439POPC   C3B56997  37.456  37.013   7.064
 4439POPC   C4B56998  37.418  36.995   7.364
 4440POPC   NC356999   3.585  19.819   5.564
 4440POPC   PO457000   3.577  19.806   5.864
 4440POPC   GL157001   3.494  19.828   6.164
 4440POPC   GL257002   3.699  19.867   6.164
 4440POPC   C1A57003   3.590  19.862   6.464
 4440POPC   D2A57004   3.495  19.860   6.764
 4440POPC   C3A57005   3.550  19.882   7.064
 4440POPC   C4A57006   3.582  19.851   7.364
 4440POPC   C1B57007   3.790  19.948   6.464
 4440POPC   C2B57008   3.763  19.912   6.764
 4440POPC   C3B57009   3.734  19.912   7.064
 4440POPC   C4B57010   3.827  19.912   7.364
 4441POPC   NC357011  43.901  15.931   5.564
 4441POPC   PO457012  43.846  15.934   5.864
 4441POPC   GL157013  43.869  15.997   6.164
 4441POPC   GL257014  43.781  16.096   6.164
 4441POPC   C1A57015  43.917  16.005   6.464
 4441POPC   D2A57016  43.892  15.907   6.764
 4441POPC   C3A57017  43.916  15.945   7.064
 4441POPC   C4A57018  43.841  15.977   7.364
 4441POPC   C1B57019  43.738  16.194   6.464
 4441POPC   C2B57020  43.781  16.170   6.764
 4441POPC   C3B57021  43.734  16.125   7.064
 4441POPC   C4B57022  43.779  16.169   7.364
 4442POPC   NC357023   6.615   6.656   5.564
 4442POPC   PO457024   6.633   6.661   5.864
 4442POPC   GL157025   6.673   6.626   6.164
 4442POPC   GL257026   6.739   6.488   6.164
 4442POPC   C1A57027   6.609   6.602   6.464
 4442POPC   D2A57028   6.596   6.640   6.764
 4442POPC   C3A57029   6.638   6.684   7.064
 4442POPC   C4A57030   6.651   6.645   7.364
 4442POPC   C1B57031   6.712   6.421   6.464
 4442POPC   C2B57032   6.762   6.402   6.764
 4442POPC   C3B57033   6.784   6.457   7.064
 4442POPC   C4B57034   6.736   6.400   7.364
 4443POPC   NC357035   6.611  27.627   5.564
 4443POPC   PO457036   6.599  27.635   5.864
 4443POPC   GL157037   6.682  27.628   6.164
 4443POPC   GL257038   6.512  27.551   6.164
 4443POPC   C1A57039   6.653  27.612   6.464
 4443POPC   D2A57040   6.679  27.591   6.764
 4443POPC   C3A57041   6.617  27.594   7.064
 4443POPC   C4A57042   6.675  27.614   7.364
 4443POPC   C1B57043   6.456  27.409   6.464
 4443POPC   C2B57044   6.504  27.403   6.764
 4443POPC   C3B57045   6.472  27.444   7.064
 4443POPC   C4B57046   6.429  27.389   7.364
 4444POPC   NC357047  31.449  35.362   5.564
 4444POPC   PO457048  31.481  35.399   5.864
 4444POPC   GL157049  31.472  35.347   6.164
 4444POPC   GL257050  31.554  35.507   6.164
 4444POPC   C1A57051  31.432  35.355   6.464
 4444POPC   D2A57052  31.515  35.386   6.764
 4444POPC   C3A57053  31.457  35.324   7.064
 4444POPC   C4A57054  31.457  35.343   7.364
 4444POPC   C1B57055  31.511  35.569   6.464
 4444POPC   C2B57056  31.599  35.583   6.764
 4444POPC   C3B57057  31.595  35.544   7.064
 4444POPC   C4B57058  31.594  35.608   7.364
 4445POPC   NC357059  23.740  25.277   5.564
 4445POPC   PO457060  23.761  25.247   5.864
 4445POPC   GL157061  23.763  25.256   6.164
 4445POPC   GL257062  23.751  25.422   6.164
 4445POPC   C1A57063  23.734  25.290   6.464
 4445POPC   D2A57064  23.757  25.245   6.764
 4445POPC   C3A57065  23.690  25.216   7.064
 4445POPC   C4A57066  23.716  25.314   7.364
 4445POPC   C1B57067  23.794  25.494   6.464
 4445POPC   C2B57068  23.759  25.556   6.764
 4445POPC   C3B57069  23.737  25.533   7.064
 4445POPC   C4B57070  23.740  25.533   7.364
 4446POPC   NC357071  43.907  30.701   5.564
 4446POPC   PO457072  43.858  30.665   5.864
 4446POPC   GL157073  43.925  30.714   6.164
 4446POPC   GL257074  44.044  30.711   6.164
 4446POPC   C1A57075  43.933  30.722   6.464
 4446POPC   D2A57076  43.886  30.657   6.764
 4446POPC   C3A57077  43.847  30.656   7.064
 4446POPC   C4A57078  43.859  30.725   7.364
 4446POPC   C1B57079  44.098  30.777   6.464
 4446POPC   C2B57080  44.068  30.810   6.764
 4446POPC   C3B57081  44.090  30.826   7.064
 4446POPC   C4B57082  44.130  30.869   7.364
 4447POPC   NC357083  35.323  32.267   5.564
 4447POPC   PO457084  35.376  32.283   5.864
 4447POPC   GL157085  35.317  32.252   6.164
 4447POPC   GL257086  35.344  32.331   6.164
 4447POPC   C1A57087  35.321  32.263   6.464
 4447POPC   D2A57088  35.303  32.266   6.764
 4447POPC   C3A57089  35.347  32.252   7.064
 4447POPC   C4A57090  35.327  32.230   7.364
 4447POPC   C1B57091  35.315  32.487   6.464
 4447POPC   C2B57092  35.348  32.490   6.764
 4447POPC   C3B57093  35.321  32.472   7.064
 4447POPC   C4B57094  35.306  32.498   7.364
 4448POPC   NC357095  40.018  33.816   5.564
 4448POPC   PO457096  40.013  33.792   5.864
 4448POPC   GL157097  40.014  33.754   6.164
 4448POPC   GL257098  40.059  33.909   6.164
 4448POPC   C1A57099  39.963  33.806   6.464
 4448POPC   D2A57100  40.026  33.819   6.764
 4448POPC   C3A57101  39.973  33.806   7.064
 4448POPC   C4A57102  40.036  33.828   7.364
 4448POPC   C1B57103  40.103  34.007   6.464
 4448POPC   C2B57104  40.159  34.029   6.764
 4448POPC   C3B57105  40.110  34.034   7.064
 4448POPC   C4B57106  40.089  34.044   7.364
 4449POPC   NC357107  35.351  27.588   5.564
 4449POPC   PO457108  35.359  27.592   5.864
 4449POPC   GL157109  35.375  27.598   6.164
 4449POPC   GL257110  35.454  27.599   6.164
 4449POPC   C1A57111  35.374  27.556   6.464
 4449POPC   D2A57112  35.400  27.549   6.764
 4449POPC   C3A57113  35.344  27.570   7.064
 4449POPC   C4A57114  35.382  27.618   7.364
 4449POPC   C1B57115  35.560  27.529   6.464
 4449POPC   C2B57116  35.620  27.498   6.764
 4449POPC   C3B57117  35.584  27.536   7.064
 4449POPC   C4B57118  35.610  27.553   7.364
 4450POPC   NC357119   4.351  40.810   5.564
 4450POPC   PO457120   4.349  40.830   5.864
 4450POPC   GL157121   4.305  40.747   6.164
 4450POPC   GL257122   4.281  40.934   6.164
 4450POPC   C1A57123   4.306  40.821   6.464
 4450POPC   D2A57124   4.355  40.773   6.764
 4450POPC   C3A57125   4.288  40.826   7.064
 4450POPC   C4A57126   4.330  40.738   7.364
 4450POPC   C1B57127   4.239  41.027   6.464
 4450POPC   C2B57128   4.222  41.038   6.764
 4450POPC   C3B57129   4.234  41.044   7.064
 4450POPC   C4B57130   4.181  40.983   7.364
 4451POPC   NC357131  39.272  39.255   5.564
 4451POPC   PO457132  39.271  39.257   5.864
 4451POPC   GL157133  39.279  39.278   6.164
 4451POPC   GL257134  39.227  39.326   6.164
 4451POPC   C1A57135  39.226  39.271   6.464
 4451POPC   D2A57136  39.277  39.277   6.764
 4451POPC   C3A57137  39.205  39.195   7.064
 4451POPC   C4A57138  39.229  39.221   7.364
 4451POPC   C1B57139  39.297  39.503   6.464
 4451POPC   C2B57140  39.275  39.477   6.764
 4451POPC   C3B57141  39.350  39.474   7.064
 4451POPC   C4B57142  39.303  39.429   7.364
 4452POPC   NC357143   5.836  25.261   5.564
 4452POPC   PO457144   5.907  25.250   5.864
 4452POPC   GL157145   5.907  25.303   6.164
 4452POPC   GL257146   6.021  25.245   6.164
 4452POPC   C1A57147   5.849  25.232   6.464
 4452POPC   D2A57148   5.879  25.286   6.764
 4452POPC   C3A57149   5.911  25.228   7.064
 4452POPC   C4A57150   5.877  25.258   7.364
 4452POPC   C1B57151   6.140  25.243   6.464
 4452POPC   C2B57152   6.108  25.220   6.764
 4452POPC   C3B57153   6.098  25.243   7.064
 4452POPC   C4B57154   6.142  25.226   7.364
 4453POPC   NC357155  32.204  15.958   5.564
 4453POPC   PO457156  32.287  16.000   5.864
 4453POPC   GL157157  32.208  15.965   6.164
 4453POPC   GL257158  32.397  15.964   6.164
 4453POPC   C1A57159  32.225  15.972   6.464
 4453POPC   D2A57160  32.224  15.910   6.764
 4453POPC   C3A57161  32.283  15.972   7.064
 4453POPC   C4A57162  32.228  15.983   7.364
 4453POPC   C1B57163  32.524  16.015   6.464
 4453POPC   C2B57164  32.499  16.045   6.764
 4453POPC   C3B57165  32.522  16.030   7.064
 4453POPC   C4B57166  32.486  15.988   7.364
 4454POPC   NC357167   9.000  12.113   5.564
 4454POPC   PO457168   9.017  12.124   5.864
 4454POPC   GL157169   8.938  12.123   6.164
 4454POPC   GL257170   8.991  11.977   6.164
 4454POPC   C1A57171   9.022  12.080   6.464
 4454POPC   D2A57172   9.004  12.038   6.764
 4454POPC   C3A57173   8.925  12.097   7.064
 4454POPC   C4A57174   8.943  12.125   7.364
 4454POPC   C1B57175   9.073  11.829   6.464
 4454POPC   C2B57176   9.079  11.807   6.764
 4454POPC   C3B57177   9.122  11.832   7.064
 4454POPC   C4B57178   9.079  11.835   7.364
 4455POPC   NC357179  34.553  19.021   5.564
 4455POPC   PO457180  34.532  19.100   5.864
 4455POPC   GL157181  34.611  19.097   6.164
 4455POPC   GL257182  34.459  19.042   6.164
 4455POPC   C1A57183  34.603  19.068   6.464
 4455POPC   D2A57184  34.603  19.094   6.764
 4455POPC   C3A57185  34.588  19.055   7.064
 4455POPC   C4A57186  34.616  19.102   7.364
 4455POPC   C1B57187  34.352  19.041   6.464
 4455POPC   C2B57188  34.382  18.955   6.764
 4455POPC   C3B57189  34.301  18.993   7.064
 4455POPC   C4B57190  34.366  18.988   7.364
 4456POPC   NC357191  40.741  44.613   5.564
 4456POPC   PO457192  40.784  44.673   5.864
 4456POPC   GL157193  40.783  44.685   6.164
 4456POPC   GL257194  40.786  44.510   6.164
 4456POPC   C1A57195  40.776  44.629   6.464
 4456POPC   D2A57196  40.801  44.702   6.764
 4456POPC   C3A57197  40.746  44.636   7.064
 4456POPC   C4A57198  40.814  44.680   7.364
 4456POPC   C1B57199  40.689  44.399   6.464
 4456POPC   C2B57200  40.690  44.438   6.764
 4456POPC   C3B57201  40.673  44.449   7.064
 4456POPC   C4B57202  40.691  44.437   7.364
 4457POPC   NC357203  13.622  44.659   5.564
 4457POPC   PO457204  13.630  44.622   5.864
 4457POPC   GL157205  13.639  44.682   6.164
 4457POPC   GL257206  13.773  44.744   6.164
 4457POPC   C1A57207  13.640  44.675   6.464
 4457POPC   D2A57208  13.583  44.625   6.764
 4457POPC   C3A57209  13.623  44.683   7.064
 4457POPC   C4A57210  13.627  44.612   7.364
 4457POPC   C1B57211  13.848  44.779   6.464
 4457POPC   C2B57212  13.873  44.807   6.764
 4457POPC   C3B57213  13.791  44.780   7.064
 4457POPC   C4B57214  13.779  44.830   7.364
 4458POPC   NC357215  22.189  26.816   5.564
 4458POPC   PO457216  22.131  26.771   5.864
 4458POPC   GL157217  22.125  26.770   6.164
 4458POPC   GL257218  22.246  26.747   6.164
 4458POPC   C1A57219  22.122  26.846   6.464
 4458POPC   D2A57220  22.201  26.795   6.764
 4458POPC   C3A57221  22.115  26.849   7.064
 4458POPC   C4A57222  22.207  26.823   7.364
 4458POPC   C1B57223  22.371  26.626   6.464
 4458POPC   C2B57224  22.279  26.583   6.764
 4458POPC   C3B57225  22.341  26.640   7.064
 4458POPC   C4B57226  22.357  26.665   7.364
 4459POPC   NC357227  43.842  10.511   5.564
 4459POPC   PO457228  43.876  10.524   5.864
 4459POPC   GL157229  43.916  10.494   6.164
 4459POPC   GL257230  44.030  10.547   6.164
 4459POPC   C1A57231  43.931  10.548   6.464
 4459POPC   D2A57232  43.837  10.481   6.764
 4459POPC   C3A57233  43.894  10.531   7.064
 4459POPC   C4A57234  43.877  10.552   7.364
 4459POPC   C1B57235  44.085  10.608   6.464
 4459POPC   C2B57236  44.138  10.643   6.764
 4459POPC   C3B57237  44.133  10.652   7.064
 4459POPC   C4B57238  44.157  10.583   7.364
 4460POPC   NC357239  19.073  23.725   5.564
 4460POPC   PO457240  19.066  23.706   5.864
 4460POPC   GL157241  19.103  23.704   6.164
 4460POPC   GL257242  18.963  23.828   6.164
 4460POPC   C1A57243  19.069  23.760   6.464
 4460POPC   D2A57244  19.047  23.724   6.764
 4460POPC   C3A57245  19.079  23.716   7.064
 4460POPC   C4A57246  19.071  23.727   7.364
 4460POPC   C1B57247  18.976  23.966   6.464
 4460POPC   C2B57248  18.981  23.904   6.764
 4460POPC   C3B57249  18.982  23.968   7.064
 4460POPC   C4B57250  18.958  23.961   7.364
 4461POPC   NC357251  11.257  39.253   5.564
 4461POPC   PO457252  11.280  39.237   5.864
 4461POPC   GL157253  11.278  39.266   6.164
 4461POPC   GL257254  11.191  39.145   6.164
 4461POPC   C1A57255  11.314  39.250   6.464
 4461POPC   D2A57256  11.259  39.228   6.764
 4461POPC   C3A57257  11.269  39.251   7.064
 4461POPC   C4A57258  11.275  39.263   7.364
 4461POPC   C1B57259  11.061  39.130   6.464
 4461POPC   C2B57260  11.114  39.089   6.764
 4461POPC   C3B57261  11.124  39.117   7.064
 4461POPC   C4B57262  11.078  39.085   7.364
 4462POPC   NC357263  15.906  11.252   5.564
 4462POPC   PO457264  15.917  11.297   5.864
 4462POPC   GL157265  15.925  11.257   6.164
 4462POPC   GL257266  16.111  11.301   6.164
 4462POPC   C1A57267  15.907  11.350   6.464
 4462POPC   D2A57268  15.909  11.306   6.764
 4462POPC   C3A57269  15.971  11.302   7.064
 4462POPC   C4A57270  15.999  11.341   7.364
 4462POPC   C1B57271  16.172  11.398   6.464
 4462POPC   C2B57272  16.225  11.395   6.764
 4462POPC   C3B57273  16.190  11.329   7.064
 4462POPC   C4B57274  16.180  11.376   7.364
 4463POPC   NC357275  23.699  19.037   5.564
 4463POPC   PO457276  23.737  19.043   5.864
 4463POPC   GL157277  23.691  19.048   6.164
 4463POPC   GL257278  23.576  19.137   6.164
 4463POPC   C1A57279  23.752  19.078   6.464
 4463POPC   D2A57280  23.706  19.062   6.764
 4463POPC   C3A57281  23.703  19.041   7.064
 4463POPC   C4A57282  23.740  19.053   7.364
 4463POPC   C1B57283  23.512  19.224   6.464
 4463POPC   C2B57284  23.556  19.183   6.764
 4463POPC   C3B57285  23.523  19.232   7.064
 4463POPC   C4B57286  23.493  19.263   7.364
 4464POPC   NC357287  11.299  29.970   5.564
 4464POPC   PO457288  11.265  29.912   5.864
 4464POPC   GL157289  11.317  29.875   6.164
 4464POPC   GL257290  11.188  29.995   6.164
 4464POPC   C1A57291  11.257  29.896   6.464
 4464POPC   D2A57292  11.288  29.901   6.764
 4464POPC   C3A57293  11.277  29.931   7.064
 4464POPC   C4A57294  11.265  29.871   7.364
 4464POPC   C1B57295  11.046  30.014   6.464
 4464POPC   C2B57296  11.042  30.055   6.764
 4464POPC   C3B57297  11.050  29.961   7.064
 4464POPC   C4B57298  11.070  30.003   7.364
 4465POPC   NC357299  12.849  37.635   5.564
 4465POPC   PO457300  12.860  37.722   5.864
 4465POPC   GL157301  12.900  37.693   6.164
 4465POPC   GL257302  12.833  37.575   6.164
 4465POPC   C1A57303  12.818  37.644   6.464
 4465POPC   D2A57304  12.811  37.657   6.764
 4465POPC   C3A57305  12.806  37.667   7.064
 4465POPC   C4A57306  12.853  37.724   7.364
 4465POPC   C1B57307  12.863  37.406   6.464
 4465POPC   C2B57308  12.866  37.461   6.764
 4465POPC   C3B57309  12.940  37.457   7.064
 4465POPC   C4B57310  12.901  37.398   7.364
 4466POPC   NC357311  10.496   2.810   5.564
 4466POPC   PO457312  10.484   2.717   5.864
 4466POPC   GL157313  10.499   2.736   6.164
 4466POPC   GL257314  10.519   2.628   6.164
 4466POPC   C1A57315  10.552   2.731   6.464
 4466POPC   D2A57316  10.550   2.767   6.764
 4466POPC   C3A57317  10.537   2.757   7.064
 4466POPC   C4A57318  10.497   2.815   7.364
 4466POPC   C1B57319  10.550   2.531   6.464
 4466POPC   C2B57320  10.521   2.540   6.764
 4466POPC   C3B57321  10.516   2.495   7.064
 4466POPC   C4B57322  10.549   2.534   7.364
 4467POPC   NC357323   0.390  28.323   5.564
 4467POPC   PO457324   0.445  28.339   5.864
 4467POPC   GL157325   0.444  28.336   6.164
 4467POPC   GL257326   0.425  28.523   6.164
 4467POPC   C1A57327   0.467  28.353   6.464
 4467POPC   D2A57328   0.460  28.402   6.764
 4467POPC   C3A57329   0.392  28.413   7.064
 4467POPC   C4A57330   0.465  28.349   7.364
 4467POPC   C1B57331   0.551  28.654   6.464
 4467POPC   C2B57332   0.487  28.620   6.764
 4467POPC   C3B57333   0.480  28.621   7.064
 4467POPC   C4B57334   0.490  28.642   7.364
 4468POPC   NC357335  39.228  38.462   5.564
 4468POPC   PO457336  39.240  38.439   5.864
 4468POPC   GL157337  39.213  38.459   6.164
 4468POPC   GL257338  39.368  38.445   6.164
 4468POPC   C1A57339  39.222  38.446   6.464
 4468POPC   D2A57340  39.234  38.457   6.764
 4468POPC   C3A57341  39.271  38.462   7.064
 4468POPC   C4A57342  39.234  38.454   7.364
 4468POPC   C1B57343  39.463  38.480   6.464
 4468POPC   C2B57344  39.474  38.425   6.764
 4468POPC   C3B57345  39.462  38.445   7.064
 4468POPC   C4B57346  39.472  38.474   7.364
 4469POPC   NC357347  12.899  22.131   5.564
 4469POPC   PO457348  12.876  22.200   5.864
 4469POPC   GL157349  12.812  22.168   6.164
 4469POPC   GL257350  12.771  22.290   6.164
 4469POPC   C1A57351  12.806  22.145   6.464
 4469POPC   D2A57352  12.893  22.157   6.764
 4469POPC   C3A57353  12.884  22.202   7.064
 4469POPC   C4A57354  12.875  22.160   7.364
 4469POPC   C1B57355  12.669  22.363   6.464
 4469POPC   C2B57356  12.635  22.347   6.764
 4469POPC   C3B57357  12.717  22.361   7.064
 4469POPC   C4B57358  12.665  22.367   7.364
 4470POPC   NC357359  13.655  27.595   5.564
 4470POPC   PO457360  13.661  27.625   5.864
 4470POPC   GL157361  13.602  27.570   6.164
 4470POPC   GL257362  13.743  27.579   6.164
 4470POPC   C1A57363  13.675  27.609   6.464
 4470POPC   D2A57364  13.587  27.591   6.764
 4470POPC   C3A57365  13.624  27.590   7.064
 4470POPC   C4A57366  13.641  27.585   7.364
 4470POPC   C1B57367  13.840  27.464   6.464
 4470POPC   C2B57368  13.887  27.478   6.764
 4470POPC   C3B57369  13.842  27.551   7.064
 4470POPC   C4B57370  13.815  27.513   7.364
 4471POPC   NC357371   8.987   3.562   5.564
 4471POPC   PO457372   8.947   3.508   5.864
 4471POPC   GL157373   8.947   3.503   6.164
 4471POPC   GL257374   8.893   3.657   6.164
 4471POPC   C1A57375   8.951   3.505   6.464
 4471POPC   D2A57376   8.954   3.548   6.764
 4471POPC   C3A57377   9.009   3.545   7.064
 4471POPC   C4A57378   9.003   3.589   7.364
 4471POPC   C1B57379   8.763   3.697   6.464
 4471POPC   C2B57380   8.823   3.732   6.764
 4471POPC   C3B57381   8.736   3.689   7.064
 4471POPC   C4B57382   8.782   3.724   7.364
 4472POPC   NC357383  11.283  15.982   5.564
 4472POPC   PO457384  11.303  15.985   5.864
 4472POPC   GL157385  11.307  15.922   6.164
 4472POPC   GL257386  11.397  15.921   6.164
 4472POPC   C1A57387  11.278  15.948   6.464
 4472POPC   D2A57388  11.260  15.957   6.764
 4472POPC   C3A57389  11.332  15.930   7.064
 4472POPC   C4A57390  11.282  15.913   7.364
 4472POPC   C1B57391  11.542  15.872   6.464
 4472POPC   C2B57392  11.567  15.928   6.764
 4472POPC   C3B57393  11.587  15.892   7.064
 4472POPC   C4B57394  11.565  15.878   7.364
 4473POPC   NC357395   1.207  14.451   5.564
 4473POPC   PO457396   1.172  14.413   5.864
 4473POPC   GL157397   1.233  14.439   6.164
 4473POPC   GL257398   1.358  14.295   6.164
 4473POPC   C1A57399   1.252  14.421   6.464
 4473POPC   D2A57400   1.223  14.451   6.764
 4473POPC   C3A57401   1.231  14.451   7.064
 4473POPC   C4A57402   1.167  14.405   7.364
 4473POPC   C1B57403   1.411  14.216   6.464
 4473POPC   C2B57404   1.390  14.279   6.764
 4473POPC   C3B57405   1.443  14.232   7.064
 4473POPC   C4B57406   1.407  14.272   7.364
 4474POPC   NC357407  30.683  26.786   5.564
 4474POPC   PO457408  30.716  26.807   5.864
 4474POPC   GL157409  30.677  26.854   6.164
 4474POPC   GL257410  30.842  26.919   6.164
 4474POPC   C1A57411  30.743  26.780   6.464
 4474POPC   D2A57412  30.686  26.831   6.764
 4474POPC   C3A57413  30.650  26.841   7.064
 4474POPC   C4A57414  30.727  26.855   7.364
 4474POPC   C1B57415  30.945  27.005   6.464
 4474POPC   C2B57416  30.869  27.012   6.764
 4474POPC   C3B57417  30.910  26.969   7.064
 4474POPC   C4B57418  30.874  26.938   7.364
 4475POPC   NC357419   6.607  40.756   5.564
 4475POPC   PO457420   6.683  40.747   5.864
 4475POPC   GL157421   6.602  40.779   6.164
 4475POPC   GL257422   6.569  40.786   6.164
 4475POPC   C1A57423   6.603  40.830   6.464
 4475POPC   D2A57424   6.641  40.799   6.764
 4475POPC   C3A57425   6.659  40.815   7.064
 4475POPC   C4A57426   6.627  40.826   7.364
 4475POPC   C1B57427   6.427  40.816   6.464
 4475POPC   C2B57428   6.425  40.801   6.764
 4475POPC   C3B57429   6.358  40.839   7.064
 4475POPC   C4B57430   6.440  40.874   7.364
 4476POPC   NC357431  42.376  27.571   5.564
 4476POPC   PO457432  42.369  27.605   5.864
 4476POPC   GL157433  42.347  27.550   6.164
 4476POPC   GL257434  42.417  27.475   6.164
 4476POPC   C1A57435  42.322  27.551   6.464
 4476POPC   D2A57436  42.378  27.626   6.764
 4476POPC   C3A57437  42.291  27.568   7.064
 4476POPC   C4A57438  42.338  27.554   7.364
 4476POPC   C1B57439  42.477  27.343   6.464
 4476POPC   C2B57440  42.482  27.420   6.764
 4476POPC   C3B57441  42.462  27.399   7.064
 4476POPC   C4B57442  42.470  27.409   7.364
 4477POPC   NC357443  25.285  35.351   5.564
 4477POPC   PO457444  25.264  35.313   5.864
 4477POPC   GL157445  25.257  35.388   6.164
 4477POPC   GL257446  25.315  35.229   6.164
 4477POPC   C1A57447  25.286  35.385   6.464
 4477POPC   D2A57448  25.271  35.362   6.764
 4477POPC   C3A57449  25.310  35.333   7.064
 4477POPC   C4A57450  25.303  35.398   7.364
 4477POPC   C1B57451  25.400  35.124   6.464
 4477POPC   C2B57452  25.428  35.162   6.764
 4477POPC   C3B57453  25.427  35.181   7.064
 4477POPC   C4B57454  25.417  35.169   7.364
 4478POPC   NC357455  35.338  42.383   5.564
 4478POPC   PO457456  35.383  42.372   5.864
 4478POPC   GL157457  35.390  42.339   6.164
 4478POPC   GL257458  35.407  42.471   6.164
 4478POPC   C1A57459  35.318  42.365   6.464
 4478POPC   D2A57460  35.341  42.376   6.764
 4478POPC   C3A57461  35.313  42.373   7.064
 4478POPC   C4A57462  35.391  42.324   7.364
 4478POPC   C1B57463  35.503  42.563   6.464
 4478POPC   C2B57464  35.520  42.490   6.764
 4478POPC   C3B57465  35.509  42.585   7.064
 4478POPC   C4B57466  35.495  42.539   7.364
 4479POPC   NC357467  43.864   5.046   5.564
 4479POPC   PO457468  43.855   5.077   5.864
 4479POPC   GL157469  43.921   5.045   6.164
 4479POPC   GL257470  43.840   5.017   6.164
 4479POPC   C1A57471  43.843   5.093   6.464
 4479POPC   D2A57472  43.931   5.079   6.764
 4479POPC   C3A57473  43.914   5.125   7.064
 4479POPC   C4A57474  43.904   5.076   7.364
 4479POPC   C1B57475  43.772   4.850   6.464
 4479POPC   C2B57476  43.813   4.850   6.764
 4479POPC   C3B57477  43.813   4.827   7.064
 4479POPC   C4B57478  43.776   4.903   7.364
 4480POPC   NC357479  11.336   5.126   5.564
 4480POPC   PO457480  11.314   5.071   5.864
 4480POPC   GL157481  11.314   5.129   6.164
 4480POPC   GL257482  11.398   5.101   6.164
 4480POPC   C1A57483  11.308   5.130   6.464
 4480POPC   D2A57484  11.307   5.135   6.764
 4480POPC   C3A57485  11.306   5.128   7.064
 4480POPC   C4A57486  11.293   5.127   7.364
 4480POPC   C1B57487  11.585   5.181   6.464
 4480POPC   C2B57488  11.520   5.191   6.764
 4480POPC   C3B57489  11.540   5.172   7.064
 4480POPC   C4B57490  11.510   5.185   7.364
 4481POPC   NC357491  44.618   8.238   5.564
 4481POPC   PO457492  44.655   8.217   5.864
 4481POPC   GL157493  44.640   8.176   6.164
 4481POPC   GL257494  44.763   8.190   6.164
 4481POPC   C1A57495  44.694   8.208   6.464
 4481POPC   D2A57496  44.689   8.211   6.764
 4481POPC   C3A57497  44.708   8.191   7.064
 4481POPC   C4A57498  44.690   8.165   7.364
 4481POPC   C1B57499  44.855   8.286   6.464
 4481POPC   C2B57500  44.909   8.280   6.764
 4481POPC   C3B57501  44.945   8.283   7.064
 4481POPC   C4B57502  44.864   8.279   7.364
 4482POPC   NC357503  35.309  20.657   5.564
 4482POPC   PO457504  35.365  20.628   5.864
 4482POPC   GL157505  35.341  20.562   6.164
 4482POPC   GL257506  35.325  20.775   6.164
 4482POPC   C1A57507  35.393  20.639   6.464
 4482POPC   D2A57508  35.383  20.654   6.764
 4482POPC   C3A57509  35.359  20.564   7.064
 4482POPC   C4A57510  35.347  20.601   7.364
 4482POPC   C1B57511  35.346  20.895   6.464
 4482POPC   C2B57512  35.421  20.905   6.764
 4482POPC   C3B57513  35.330  20.898   7.064
 4482POPC   C4B57514  35.377  20.838   7.364
 4483POPC   NC357515   5.051  13.611   5.564
 4483POPC   PO457516   5.105  13.634   5.864
 4483POPC   GL157517   5.118  13.627   6.164
 4483POPC   GL257518   5.051  13.510   6.164
 4483POPC   C1A57519   5.108  13.653   6.464
 4483POPC   D2A57520   5.116  13.614   6.764
 4483POPC   C3A57521   5.052  13.652   7.064
 4483POPC   C4A57522   5.083  13.658   7.364
 4483POPC   C1B57523   4.943  13.445   6.464
 4483POPC   C2B57524   4.946  13.483   6.764
 4483POPC   C3B57525   4.888  13.465   7.064
 4483POPC   C4B57526   4.902  13.477   7.364
 4484POPC   NC357527  43.115  23.664   5.564
 4484POPC   PO457528  43.075  23.727   5.864
 4484POPC   GL157529  43.067  23.677   6.164
 4484POPC   GL257530  43.122  23.623   6.164
 4484POPC   C1A57531  43.121  23.760   6.464
 4484POPC   D2A57532  43.148  23.739   6.764
 4484POPC   C3A57533  43.093  23.721   7.064
 4484POPC   C4A57534  43.145  23.703   7.364
 4484POPC   C1B57535  43.109  23.475   6.464
 4484POPC   C2B57536  43.070  23.458   6.764
 4484POPC   C3B57537  43.064  23.479   7.064
 4484POPC   C4B57538  43.089  23.467   7.364
 4485POPC   NC357539  40.799   6.655   5.564
 4485POPC   PO457540  40.829   6.606   5.864
 4485POPC   GL157541  40.793   6.676   6.164
 4485POPC   GL257542  40.870   6.642   6.164
 4485POPC   C1A57543  40.795   6.657   6.464
 4485POPC   D2A57544  40.757   6.642   6.764
 4485POPC   C3A57545  40.816   6.655   7.064
 4485POPC   C4A57546  40.746   6.676   7.364
 4485POPC   C1B57547  41.046   6.675   6.464
 4485POPC   C2B57548  41.056   6.660   6.764
 4485POPC   C3B57549  40.992   6.673   7.064
 4485POPC   C4B57550  41.004   6.654   7.364
 4486POPC   NC357551   4.276  26.082   5.564
 4486POPC   PO457552   4.352  26.067   5.864
 4486POPC   GL157553   4.367  26.067   6.164
 4486POPC   GL257554   4.284  25.912   6.164
 4486POPC   C1A57555   4.298  26.009   6.464
 4486POPC   D2A57556   4.303  26.077   6.764
 4486POPC   C3A57557   4.286  26.044   7.064
 4486POPC   C4A57558   4.270  26.030   7.364
 4486POPC   C1B57559   4.198  25.790   6.464
 4486POPC   C2B57560   4.190  25.820   6.764
 4486POPC   C3B57561   4.199  25.803   7.064
 4486POPC   C4B57562   4.188  25.828   7.364
 4487POPC   NC357563  39.965  29.144   5.564
 4487POPC   PO457564  40.005  29.134   5.864
 4487POPC   GL157565  40.002  29.110   6.164
 4487POPC   GL257566  40.017  29.273   6.164
 4487POPC   C1A57567  39.957  29.145   6.464
 4487POPC   D2A57568  40.019  29.154   6.764
 4487POPC   C3A57569  40.003  29.177   7.064
 4487POPC   C4A57570  39.961  29.166   7.364
 4487POPC   C1B57571  40.052  29.392   6.464
 4487POPC   C2B57572  40.049  29.423   6.764
 4487POPC   C3B57573  40.059  29.392   7.064
 4487POPC   C4B57574  40.024  29.368   7.364
 4488POPC   NC357575  23.673  29.167   5.564
 4488POPC   PO457576  23.738  29.122   5.864
 4488POPC   GL157577  23.726  29.133   6.164
 4488POPC   GL257578  23.712  29.022   6.164
 4488POPC   C1A57579  23.736  29.117   6.464
 4488POPC   D2A57580  23.748  29.154   6.764
 4488POPC   C3A57581  23.760  29.128   7.064
 4488POPC   C4A57582  23.736  29.168   7.364
 4488POPC   C1B57583  23.605  28.914   6.464
 4488POPC   C2B57584  23.588  28.875   6.764
 4488POPC   C3B57585  23.583  28.892   7.064
 4488POPC   C4B57586  23.653  28.863   7.364
 4489POPC   NC357587  22.922  29.174   5.564
 4489POPC   PO457588  22.912  29.157   5.864
 4489POPC   GL157589  22.891  29.102   6.164
 4489POPC   GL257590  22.979  29.269   6.164
 4489POPC   C1A57591  22.948  29.112   6.464
 4489POPC   D2A57592  22.988  29.155   6.764
 4489POPC   C3A57593  22.933  29.180   7.064
 4489POPC   C4A57594  22.936  29.095   7.364
 4489POPC   C1B57595  23.058  29.352   6.464
 4489POPC   C2B57596  23.073  29.353   6.764
 4489POPC   C3B57597  23.074  29.391   7.064
 4489POPC   C4B57598  23.070  29.358   7.364
 4490POPC   NC357599   3.492  12.884   5.564
 4490POPC   PO457600   3.510  12.871   5.864
 4490POPC   GL157601   3.557  12.836   6.164
 4490POPC   GL257602   3.693  12.895   6.164
 4490POPC   C1A57603   3.557  12.869   6.464
 4490POPC   D2A57604   3.563  12.897   6.764
 4490POPC   C3A57605   3.587  12.861   7.064
 4490POPC   C4A57606   3.585  12.881   7.364
 4490POPC   C1B57607   3.751  12.917   6.464
 4490POPC   C2B57608   3.784  12.858   6.764
 4490POPC   C3B57609   3.809  12.931   7.064
 4490POPC   C4B57610   3.808  12.845   7.364
 4491POPC   NC357611  36.095   4.348   5.564
 4491POPC   PO457612  36.131   4.279   5.864
 4491POPC   GL157613  36.132   4.280   6.164
 4491POPC   GL257614  36.030   4.389   6.164
 4491POPC   C1A57615  36.175   4.344   6.464
 4491POPC   D2A57616  36.128   4.326   6.764
 4491POPC   C3A57617  36.120   4.322   7.064
 4491POPC   C4A57618  36.148   4.343   7.364
 4491POPC   C1B57619  35.930   4.558   6.464
 4491POPC   C2B57620  35.976   4.547   6.764
 4491POPC   C3B57621  35.970   4.498   7.064
 4491POPC   C4B57622  35.957   4.462   7.364
 4492POPC   NC357623   4.352  33.021   5.564
 4492POPC   PO457624   4.353  32.980   5.864
 4492POPC   GL157625   4.318  33.060   6.164
 4492POPC   GL257626   4.342  32.856   6.164
 4492POPC   C1A57627   4.333  33.066   6.464
 4492POPC   D2A57628   4.362  32.985   6.764
 4492POPC   C3A57629   4.278  32.976   7.064
 4492POPC   C4A57630   4.294  33.059   7.364
 4492POPC   C1B57631   4.323  32.749   6.464
 4492POPC   C2B57632   4.381  32.743   6.764
 4492POPC   C3B57633   4.333  32.748   7.064
 4492POPC   C4B57634   4.370  32.740   7.364
 4493POPC   NC357635  23.739   0.462   5.564
 4493POPC   PO457636  23.667   0.419   5.864
 4493POPC   GL157637  23.675   0.403   6.164
 4493POPC   GL257638  23.769   0.358   6.164
 4493POPC   C1A57639  23.763   0.438   6.464
 4493POPC   D2A57640  23.727   0.392   6.764
 4493POPC   C3A57641  23.682   0.416   7.064
 4493POPC   C4A57642  23.730   0.453   7.364
 4493POPC   C1B57643  23.760   0.165   6.464
 4493POPC   C2B57644  23.779   0.212   6.764
 4493POPC   C3B57645  23.705   0.236   7.064
 4493POPC   C4B57646  23.790   0.163   7.364
 4494POPC   NC357647  26.021  35.321   5.564
 4494POPC   PO457648  26.007  35.366   5.864
 4494POPC   GL157649  26.085  35.351   6.164
 4494POPC   GL257650  26.080  35.252   6.164
 4494POPC   C1A57651  26.040  35.376   6.464
 4494POPC   D2A57652  26.056  35.358   6.764
 4494POPC   C3A57653  26.051  35.361   7.064
 4494POPC   C4A57654  26.062  35.379   7.364
 4494POPC   C1B57655  26.140  35.167   6.464
 4494POPC   C2B57656  26.185  35.173   6.764
 4494POPC   C3B57657  26.206  35.131   7.064
 4494POPC   C4B57658  26.198  35.133   7.364
 4495POPC   NC357659  22.205  31.441   5.564
 4495POPC   PO457660  22.137  31.465   5.864
 4495POPC   GL157661  22.211  31.438   6.164
 4495POPC   GL257662  22.315  31.431   6.164
 4495POPC   C1A57663  22.132  31.431   6.464
 4495POPC   D2A57664  22.186  31.497   6.764
 4495POPC   C3A57665  22.169  31.462   7.064
 4495POPC   C4A57666  22.137  31.477   7.364
 4495POPC   C1B57667  22.448  31.420   6.464
 4495POPC   C2B57668  22.440  31.462   6.764
 4495POPC   C3B57669  22.371  31.445   7.064
 4495POPC   C4B57670  22.394  31.439   7.364
 4496POPC   NC357671  32.240  11.301   5.564
 4496POPC   PO457672  32.296  11.349   5.864
 4496POPC   GL157673  32.298  11.306   6.164
 4496POPC   GL257674  32.371  11.258   6.164
 4496POPC   C1A57675  32.219  11.269   6.464
 4496POPC   D2A57676  32.226  11.263   6.764
 4496POPC   C3A57677  32.225  11.252   7.064
 4496POPC   C4A57678  32.200  11.306   7.364
 4496POPC   C1B57679  32.457  11.343   6.464
 4496POPC   C2B57680  32.470  11.334   6.764
 4496POPC   C3B57681  32.493  11.312   7.064
 4496POPC   C4B57682  32.478  11.262   7.364
 4497POPC   NC357683  17.557  36.159   5.564
 4497POPC   PO457684  17.519  36.157   5.864
 4497POPC   GL157685  17.519  36.124   6.164
 4497POPC   GL257686  17.410  36.244   6.164
 4497POPC   C1A57687  17.554  36.130   6.464
 4497POPC   D2A57688  17.534  36.148   6.764
 4497POPC   C3A57689  17.524  36.137   7.064
 4497POPC   C4A57690  17.524  36.150   7.364
 4497POPC   C1B57691  17.377  36.347   6.464
 4497POPC   C2B57692  17.386  36.318   6.764
 4497POPC   C3B57693  17.414  36.345   7.064
 4497POPC   C4B57694  17.382  36.348   7.364
 4498POPC   NC357695  10.536  16.704   5.564
 4498POPC   PO457696  10.507  16.701   5.864
 4498POPC   GL157697  10.552  16.754   6.164
 4498POPC   GL257698  10.536  16.882   6.164
 4498POPC   C1A57699  10.475  16.735   6.464
 4498POPC   D2A57700  10.570  16.684   6.764
 4498POPC   C3A57701  10.507  16.689   7.064
 4498POPC   C4A57702  10.532  16.687   7.364
 4498POPC   C1B57703  10.474  16.926   6.464
 4498POPC   C2B57704  10.467  17.017   6.764
 4498POPC   C3B57705  10.435  17.023   7.064
 4498POPC   C4B57706  10.453  17.005   7.364
 4499POPC   NC357707  32.270  13.617   5.564
 4499POPC   PO457708  32.286  13.667   5.864
 4499POPC   GL157709  32.279  13.665   6.164
 4499POPC   GL257710  32.215  13.717   6.164
 4499POPC   C1A57711  32.246  13.612   6.464
 4499POPC   D2A57712  32.221  13.650   6.764
 4499POPC   C3A57713  32.265  13.593   7.064
 4499POPC   C4A57714  32.238  13.648   7.364
 4499POPC   C1B57715  32.196  13.907   6.464
 4499POPC   C2B57716  32.145  13.817   6.764
 4499POPC   C3B57717  32.142  13.837   7.064
 4499POPC   C4B57718  32.154  13.873   7.364
 4500POPC   NC357719  15.190   6.663   5.564
 4500POPC   PO457720  15.164   6.599   5.864
 4500POPC   GL157721  15.188   6.691   6.164
 4500POPC   GL257722  15.273   6.574   6.164
 4500POPC   C1A57723  15.160   6.694   6.464
 4500POPC   D2A57724  15.213   6.682   6.764
 4500POPC   C3A57725  15.188   6.657   7.064
 4500POPC   C4A57726  15.227   6.690   7.364
 4500POPC   C1B57727  15.381   6.498   6.464
 4500POPC   C2B57728  15.366   6.468   6.764
 4500POPC   C3B57729  15.314   6.504   7.064
 4500POPC   C4B57730  15.395   6.470   7.364
 4501POPC   NC357731  13.645  29.919   5.564
 4501POPC   PO457732  13.590  29.890   5.864
 4501POPC   GL157733  13.665  29.948   6.164
 4501POPC   GL257734  13.585  30.058   6.164
 4501POPC   C1A57735  13.677  29.927   6.464
 4501POPC   D2A57736  13.662  29.956   6.764
 4501POPC   C3A57737  13.642  29.883   7.064
 4501POPC   C4A57738  13.622  29.871   7.364
 4501POPC   C1B57739  13.579  30.113   6.464
 4501POPC   C2B57740  13.514  30.177   6.764
 4501POPC   C3B57741  13.578  30.161   7.064
 4501POPC   C4B57742  13.498  30.180   7.364
 4502POPC   NC357743  24.537  43.879   5.564
 4502POPC   PO457744  24.470  43.909   5.864
 4502POPC   GL157745  24.457  43.863   6.164
 4502POPC   GL257746  24.404  43.912   6.164
 4502POPC   C1A57747  24.479  43.901   6.464
 4502POPC   D2A57748  24.455  43.936   6.764
 4502POPC   C3A57749  24.486  43.921   7.064
 4502POPC   C4A57750  24.486  43.885   7.364
 4502POPC   C1B57751  24.229  43.974   6.464
 4502POPC   C2B57752  24.298  44.010   6.764
 4502POPC   C3B57753  24.282  44.008   7.064
 4502POPC   C4B57754  24.242  44.023   7.364
 4503POPC   NC357755  14.416  23.704   5.564
 4503POPC   PO457756  14.429  23.718   5.864
 4503POPC   GL157757  14.440  23.706   6.164
 4503POPC   GL257758  14.361  23.790   6.164
 4503POPC   C1A57759  14.396  23.731   6.464
 4503POPC   D2A57760  14.384  23.761   6.764
 4503POPC   C3A57761  14.362  23.723   7.064
 4503POPC   C4A57762  14.449  23.685   7.364
 4503POPC   C1B57763  14.281  23.891   6.464
 4503POPC   C2B57764  14.291  23.896   6.764
 4503POPC   C3B57765  14.259  23.948   7.064
 4503POPC   C4B57766  14.240  23.963   7.364
 4504POPC   NC357767  41.579  32.245   5.564
 4504POPC   PO457768  41.541  32.219   5.864
 4504POPC   GL157769  41.574  32.288   6.164
 4504POPC   GL257770  41.476  32.327   6.164
 4504POPC   C1A57771  41.578  32.259   6.464
 4504POPC   D2A57772  41.526  32.290   6.764
 4504POPC   C3A57773  41.572  32.282   7.064
 4504POPC   C4A57774  41.586  32.234   7.364
 4504POPC   C1B57775  41.316  32.291   6.464
 4504POPC   C2B57776  41.281  32.345   6.764
 4504POPC   C3B57777  41.277  32.350   7.064
 4504POPC   C4B57778  41.286  32.300   7.364
 4505POPC   NC357779  26.808  12.868   5.564
 4505POPC   PO457780  26.807  12.825   5.864
 4505POPC   GL157781  26.866  12.868   6.164
 4505POPC   GL257782  26.809  12.780   6.164
 4505POPC   C1A57783  26.801  12.857   6.464
 4505POPC   D2A57784  26.858  12.854   6.764
 4505POPC   C3A57785  26.790  12.852   7.064
 4505POPC   C4A57786  26.833  12.873   7.364
 4505POPC   C1B57787  26.710  12.626   6.464
 4505POPC   C2B57788  26.763  12.633   6.764
 4505POPC   C3B57789  26.715  12.662   7.064
 4505POPC   C4B57790  26.679  12.674   7.364
 4506POPC   NC357791  26.072  34.614   5.564
 4506POPC   PO457792  25.993  34.620   5.864
 4506POPC   GL157793  26.075  34.531   6.164
 4506POPC   GL257794  26.130  34.496   6.164
 4506POPC   C1A57795  26.089  34.615   6.464
 4506POPC   D2A57796  26.052  34.528   6.764
 4506POPC   C3A57797  26.027  34.590   7.064
 4506POPC   C4A57798  26.090  34.586   7.364
 4506POPC   C1B57799  26.094  34.350   6.464
 4506POPC   C2B57800  26.130  34.353   6.764
 4506POPC   C3B57801  26.172  34.323   7.064
 4506POPC   C4B57802  26.127  34.322   7.364
 4507POPC   NC357803  38.444  22.165   5.564
 4507POPC   PO457804  38.412  22.119   5.864
 4507POPC   GL157805  38.430  22.127   6.164
 4507POPC   GL257806  38.392  22.285   6.164
 4507POPC   C1A57807  38.492  22.150   6.464
 4507POPC   D2A57808  38.480  22.152   6.764
 4507POPC   C3A57809  38.408  22.126   7.064
 4507POPC   C4A57810  38.495  22.136   7.364
 4507POPC   C1B57811  38.206  22.290   6.464
 4507POPC   C2B57812  38.245  22.350   6.764
 4507POPC   C3B57813  38.211  22.305   7.064
 4507POPC   C4B57814  38.284  22.291   7.364
 4508POPC   NC357815  13.618   8.201   5.564
 4508POPC   PO457816  13.623   8.154   5.864
 4508POPC   GL157817  13.641   8.161   6.164
 4508POPC   GL257818  13.509   8.103   6.164
 4508POPC   C1A57819  13.592   8.153   6.464
 4508POPC   D2A57820  13.625   8.184   6.764
 4508POPC   C3A57821  13.659   8.191   7.064
 4508POPC   C4A57822  13.626   8.178   7.364
 4508POPC   C1B57823  13.455   8.085   6.464
 4508POPC   C2B57824  13.408   8.035   6.764
 4508POPC   C3B57825  13.429   8.071   7.064
 4508POPC   C4B57826  13.391   8.023   7.364
 4509POPC   NC357827  33.050  40.815   5.564
 4509POPC   PO457828  33.061  40.792   5.864
 4509POPC   GL157829  33.062  40.817   6.164
 4509POPC   GL257830  33.088  40.687   6.164
 4509POPC   C1A57831  32.978  40.795   6.464
 4509POPC   D2A57832  32.986  40.735   6.764
 4509POPC   C3A57833  33.057  40.737   7.064
 4509POPC   C4A57834  33.063  40.768   7.364
 4509POPC   C1B57835  33.230  40.627   6.464
 4509POPC   C2B57836  33.176  40.652   6.764
 4509POPC   C3B57837  33.180  40.659   7.064
 4509POPC   C4B57838  33.224  40.636   7.364
 4510POPC   NC357839  16.754  40.056   5.564
 4510POPC   PO457840  16.719  40.010   5.864
 4510POPC   GL157841  16.740  40.036   6.164
 4510POPC   GL257842  16.755  39.879   6.164
 4510POPC   C1A57843  16.771  40.014   6.464
 4510POPC   D2A57844  16.684  39.986   6.764
 4510POPC   C3A57845  16.780  39.980   7.064
 4510POPC   C4A57846  16.738  40.042   7.364
 4510POPC   C1B57847  16.677  39.722   6.464
 4510POPC   C2B57848  16.758  39.716   6.764
 4510POPC   C3B57849  16.719  39.761   7.064
 4510POPC   C4B57850  16.675  39.760   7.364
 4511POPC   NC357851  29.872  23.676   5.564
 4511POPC   PO457852  29.903  23.713   5.864
 4511POPC   GL157853  29.927  23.703   6.164
 4511POPC   GL257854  29.873  23.820   6.164
 4511POPC   C1A57855  29.937  23.675   6.464
 4511POPC   D2A57856  29.937  23.724   6.764
 4511POPC   C3A57857  29.959  23.729   7.064
 4511POPC   C4A57858  29.946  23.756   7.364
 4511POPC   C1B57859  29.773  23.931   6.464
 4511POPC   C2B57860  29.736  23.964   6.764
 4511POPC   C3B57861  29.791  23.958   7.064
 4511POPC   C4B57862  29.812  23.942   7.364
 4512POPC   NC357863  21.355   6.676   5.564
 4512POPC   PO457864  21.367   6.660   5.864
 4512POPC   GL157865  21.385   6.635   6.164
 4512POPC   GL257866  21.351   6.564   6.164
 4512POPC   C1A57867  21.411   6.607   6.464
 4512POPC   D2A57868  21.405   6.658   6.764
 4512POPC   C3A57869  21.429   6.652   7.064
 4512POPC   C4A57870  21.394   6.637   7.364
 4512POPC   C1B57871  21.241   6.459   6.464
 4512POPC   C2B57872  21.257   6.414   6.764
 4512POPC   C3B57873  21.181   6.485   7.064
 4512POPC   C4B57874  21.255   6.422   7.364
 4513POPC   NC357875  37.668  43.075   5.564
 4513POPC   PO457876  37.668  43.095   5.864
 4513POPC   GL157877  37.650  43.067   6.164
 4513POPC   GL257878  37.560  43.136   6.164
 4513POPC   C1A57879  37.642  43.080   6.464
 4513POPC   D2A57880  37.666  43.091   6.764
 4513POPC   C3A57881  37.690  43.117   7.064
 4513POPC   C4A57882  37.716  43.148   7.364
 4513POPC   C1B57883  37.443  43.188   6.464
 4513POPC   C2B57884  37.449  43.181   6.764
 4513POPC   C3B57885  37.485  43.233   7.064
 4513POPC   C4B57886  37.469  43.189   7.364
 4514POPC   NC357887  26.849   9.764   5.564
 4514POPC   PO457888  26.865   9.767   5.864
 4514POPC   GL157889  26.834   9.736   6.164
 4514POPC   GL257890  26.757   9.836   6.164
 4514POPC   C1A57891  26.800   9.776   6.464
 4514POPC   D2A57892  26.800   9.726   6.764
 4514POPC   C3A57893  26.800   9.757   7.064
 4514POPC   C4A57894  26.770   9.790   7.364
 4514POPC   C1B57895  26.689   9.996   6.464
 4514POPC   C2B57896  26.710   9.970   6.764
 4514POPC   C3B57897  26.707   9.949   7.064
 4514POPC   C4B57898  26.673   9.981   7.364
 4515POPC   NC357899   8.962  24.500   5.564
 4515POPC   PO457900   9.007  24.491   5.864
 4515POPC   GL157901   8.934  24.518   6.164
 4515POPC   GL257902   9.051  24.367   6.164
 4515POPC   C1A57903   8.966  24.457   6.464
 4515POPC   D2A57904   8.947  24.520   6.764
 4515POPC   C3A57905   8.972  24.535   7.064
 4515POPC   C4A57906   8.998  24.534   7.364
 4515POPC   C1B57907   9.125  24.310   6.464
 4515POPC   C2B57908   9.203  24.346   6.764
 4515POPC   C3B57909   9.154  24.287   7.064
 4515POPC   C4B57910   9.120  24.373   7.364
 4516POPC   NC357911  15.919  34.552   5.564
 4516POPC   PO457912  15.929  34.530   5.864
 4516POPC   GL157913  15.908  34.528   6.164
 4516POPC   GL257914  16.076  34.620   6.164
 4516POPC   C1A57915  15.926  34.579   6.464
 4516POPC   D2A57916  15.918  34.622   6.764
 4516POPC   C3A57917  15.960  34.552   7.064
 4516POPC   C4A57918  15.991  34.609   7.364
 4516POPC   C1B57919  16.192  34.617   6.464
 4516POPC   C2B57920  16.210  34.654   6.764
 4516POPC   C3B57921  16.157  34.698   7.064
 4516POPC   C4B57922  16.216  34.628   7.364
 4517POPC   NC357923  16.001   3.568   5.564
 4517POPC   PO457924  15.987   3.525   5.864
 4517POPC   GL157925  15.982   3.543   6.164
 4517POPC   GL257926  15.963   3.697   6.164
 4517POPC   C1A57927  15.969   3.496   6.464
 4517POPC   D2A57928  15.913   3.504   6.764
 4517POPC   C3A57929  15.921   3.505   7.064
 4517POPC   C4A57930  15.983   3.508   7.364
 4517POPC   C1B57931  16.025   3.755   6.464
 4517POPC   C2B57932  16.084   3.755   6.764
 4517POPC   C3B57933  16.081   3.797   7.064
 4517POPC   C4B57934  16.027   3.792   7.364
 4518POPC   NC357935  22.937   9.019   5.564
 4518POPC   PO457936  22.918   8.940   5.864
 4518POPC   GL157937  22.919   8.955   6.164
 4518POPC   GL257938  22.831   8.915   6.164
 4518POPC   C1A57939  22.985   8.997   6.464
 4518POPC   D2A57940  22.893   8.930   6.764
 4518POPC   C3A57941  22.950   8.935   7.064
 4518POPC   C4A57942  22.931   9.017   7.364
 4518POPC   C1B57943  22.645   8.980   6.464
 4518POPC   C2B57944  22.670   8.935   6.764
 4518POPC   C3B57945  22.650   8.929   7.064
 4518POPC   C4B57946  22.655   8.984   7.364
 4519POPC   NC357947   2.754  13.637   5.564
 4519POPC   PO457948   2.800  13.622   5.864
 4519POPC   GL157949   2.776  13.671   6.164
 4519POPC   GL257950   2.640  13.584   6.164
 4519POPC   C1A57951   2.784  13.675   6.464
 4519POPC   D2A57952   2.760  13.662   6.764
 4519POPC   C3A57953   2.803  13.625   7.064
 4519POPC   C4A57954   2.771  13.614   7.364
 4519POPC   C1B57955   2.517  13.578   6.464
 4519POPC   C2B57956   2.551  13.590   6.764
 4519POPC   C3B57957   2.498  13.572   7.064
 4519POPC   C4B57958   2.570  13.532   7.364
 4520POPC   NC357959  13.598   5.833   5.564
 4520POPC   PO457960  13.620   5.875   5.864
 4520POPC   GL157961  13.604   5.864   6.164
 4520POPC   GL257962  13.794   5.864   6.164
 4520POPC   C1A57963  13.675   5.913   6.464
 4520POPC   D2A57964  13.669   5.827   6.764
 4520POPC   C3A57965  13.649   5.842   7.064
 4520POPC   C4A57966  13.627   5.898   7.364
 4520POPC   C1B57967  13.857   5.839   6.464
 4520POPC   C2B57968  13.891   5.844   6.764
 4520POPC   C3B57969  13.892   5.904   7.064
 4520POPC   C4B57970  13.923   5.912   7.364
 4521POPC   NC357971  38.446  43.858   5.564
 4521POPC   PO457972  38.465  43.893   5.864
 4521POPC   GL157973  38.479  43.909   6.164
 4521POPC   GL257974  38.482  44.058   6.164
 4521POPC   C1A57975  38.491  43.877   6.464
 4521POPC   D2A57976  38.469  43.936   6.764
 4521POPC   C3A57977  38.483  43.879   7.064
 4521POPC   C4A57978  38.484  43.838   7.364
 4521POPC   C1B57979  38.444  44.184   6.464
 4521POPC   C2B57980  38.484  44.171   6.764
 4521POPC   C3B57981  38.439  44.144   7.064
 4521POPC   C4B57982  38.456  44.100   7.364
 4522POPC   NC357983  24.520  23.674   5.564
 4522POPC   PO457984  24.441  23.725   5.864
 4522POPC   GL157985  24.463  23.700   6.164
 4522POPC   GL257986  24.520  23.541   6.164
 4522POPC   C1A57987  24.446  23.691   6.464
 4522POPC   D2A57988  24.443  23.700   6.764
 4522POPC   C3A57989  24.487  23.681   7.064
 4522POPC   C4A57990  24.497  23.753   7.364
 4522POPC   C1B57991  24.536  23.461   6.464
 4522POPC   C2B57992  24.569  23.491   6.764
 4522POPC   C3B57993  24.569  23.508   7.064
 4522POPC   C4B57994  24.552  23.457   7.364
 4523POPC   NC357995   8.201  22.897   5.564
 4523POPC   PO457996   8.222  22.896   5.864
 4523POPC   GL157997   8.199  22.944   6.164
 4523POPC   GL257998   8.239  22.774   6.164
 4523POPC   C1A57999   8.211  22.921   6.464
 4523POPC   D2A58000   8.218  22.984   6.764
 4523POPC   C3A58001   8.242  22.965   7.064
 4523POPC   C4A58002   8.229  22.950   7.364
 4523POPC   C1B58003   8.179  22.708   6.464
 4523POPC   C2B58004   8.180  22.722   6.764
 4523POPC   C3B58005   8.160  22.676   7.064
 4523POPC   C4B58006   8.184  22.713   7.364
 4524POPC   NC358007  14.421  28.415   5.564
 4524POPC   PO458008  14.449  28.390   5.864
 4524POPC   GL158009  14.435  28.402   6.164
 4524POPC   GL258010  14.458  28.277   6.164
 4524POPC   C1A58011  14.417  28.385   6.464
 4524POPC   D2A58012  14.443  28.323   6.764
 4524POPC   C3A58013  14.402  28.324   7.064
 4524POPC   C4A58014  14.426  28.368   7.364
 4524POPC   C1B58015  14.538  28.131   6.464
 4524POPC   C2B58016  14.465  28.123   6.764
 4524POPC   C3B58017  14.550  28.115   7.064
 4524POPC   C4B58018  14.462  28.112   7.364
 4525POPC   NC358019  39.217  40.753   5.564
 4525POPC   PO458020  39.219  40.753   5.864
 4525POPC   GL158021  39.229  40.777   6.164
 4525POPC   GL258022  39.325  40.893   6.164
 4525POPC   C1A58023  39.210  40.803   6.464
 4525POPC   D2A58024  39.192  40.757   6.764
 4525POPC   C3A58025  39.222  40.820   7.064
 4525POPC   C4A58026  39.252  40.771   7.364
 4525POPC   C1B58027  39.358  40.935   6.464
 4525POPC   C2B58028  39.361  40.938   6.764
 4525POPC   C3B58029  39.446  40.958   7.064
 4525POPC   C4B58030  39.444  40.969   7.364
 4526POPC   NC358031  38.446   1.952   5.564
 4526POPC   PO458032  38.475   2.003   5.864
 4526POPC   GL158033  38.434   1.948   6.164
 4526POPC   GL258034  38.341   2.020   6.164
 4526POPC   C1A58035  38.452   2.004   6.464
 4526POPC   D2A58036  38.470   1.960   6.764
 4526POPC   C3A58037  38.478   1.962   7.064
 4526POPC   C4A58038  38.478   2.031   7.364
 4526POPC   C1B58039  38.219   2.055   6.464
 4526POPC   C2B58040  38.204   2.044   6.764
 4526POPC   C3B58041  38.165   1.971   7.064
 4526POPC   C4B58042  38.229   2.041   7.364
 4527POPC   NC358043   9.747  37.685   5.564
 4527POPC   PO458044   9.782  37.719   5.864
 4527POPC   GL158045   9.710  37.673   6.164
 4527POPC   GL258046   9.720  37.526   6.164
 4527POPC   C1A58047   9.758  37.668   6.464
 4527POPC   D2A58048   9.724  37.651   6.764
 4527POPC   C3A58049   9.735  37.682   7.064
 4527POPC   C4A58050   9.784  37.641   7.364
 4527POPC   C1B58051   9.658  37.444   6.464
 4527POPC   C2B58052   9.656  37.464   6.764
 4527POPC   C3B58053   9.606  37.458   7.064
 4527POPC   C4B58054   9.588  37.437   7.364
 4528POPC   NC358055  29.871  25.229   5.564
 4528POPC   PO458056  29.901  25.227   5.864
 4528POPC   GL158057  29.948  25.226   6.164
 4528POPC   GL258058  29.852  25.170   6.164
 4528POPC   C1A58059  29.951  25.302   6.464
 4528POPC   D2A58060  29.953  25.268   6.764
 4528POPC   C3A58061  29.905  25.269   7.064
 4528POPC   C4A58062  29.922  25.290   7.364
 4528POPC   C1B58063  29.885  25.054   6.464
 4528POPC   C2B58064  29.865  24.998   6.764
 4528POPC   C3B58065  29.797  25.014   7.064
 4528POPC   C4B58066  29.876  25.041   7.364
 4529POPC   NC358067  35.335  43.872   5.564
 4529POPC   PO458068  35.392  43.889   5.864
 4529POPC   GL158069  35.396  43.931   6.164
 4529POPC   GL258070  35.507  43.909   6.164
 4529POPC   C1A58071  35.330  43.899   6.464
 4529POPC   D2A58072  35.318  43.901   6.764
 4529POPC   C3A58073  35.333  43.934   7.064
 4529POPC   C4A58074  35.343  43.923   7.364
 4529POPC   C1B58075  35.567  43.787   6.464
 4529POPC   C2B58076  35.575  43.797   6.764
 4529POPC   C3B58077  35.627  43.811   7.064
 4529POPC   C4B58078  35.593  43.860   7.364
 4530POPC   NC358079  32.236  22.983   5.564
 4530POPC   PO458080  32.222  22.907   5.864
 4530POPC   GL158081  32.298  22.945   6.164
 4530POPC   GL258082  32.340  22.962   6.164
 4530POPC   C1A58083  32.212  22.965   6.464
 4530POPC   D2A58084  32.199  22.898   6.764
 4530POPC   C3A58085  32.287  22.935   7.064
 4530POPC   C4A58086  32.265  22.940   7.364
 4530POPC   C1B58087  32.512  22.953   6.464
 4530POPC   C2B58088  32.478  22.921   6.764
 4530POPC   C3B58089  32.500  22.891   7.064
 4530POPC   C4B58090  32.535  22.936   7.364
 4531POPC   NC358091   4.301   8.176   5.564
 4531POPC   PO458092   4.315   8.205   5.864
 4531POPC   GL158093   4.336   8.220   6.164
 4531POPC   GL258094   4.451   8.218   6.164
 4531POPC   C1A58095   4.299   8.182   6.464
 4531POPC   D2A58096   4.358   8.171   6.764
 4531POPC   C3A58097   4.322   8.185   7.064
 4531POPC   C4A58098   4.305   8.154   7.364
 4531POPC   C1B58099   4.596   8.200   6.464
 4531POPC   C2B58100   4.572   8.218   6.764
 4531POPC   C3B58101   4.613   8.173   7.064
 4531POPC   C4B58102   4.584   8.238   7.364
 4532POPC   NC358103   9.722   9.005   5.564
 4532POPC   PO458104   9.784   9.000   5.864
 4532POPC   GL158105   9.731   8.943   6.164
 4532POPC   GL258106   9.705   8.864   6.164
 4532POPC   C1A58107   9.714   8.929   6.464
 4532POPC   D2A58108   9.779   8.945   6.764
 4532POPC   C3A58109   9.754   8.976   7.064
 4532POPC   C4A58110   9.769   8.942   7.364
 4532POPC   C1B58111   9.751   8.740   6.464
 4532POPC   C2B58112   9.794   8.762   6.764
 4532POPC   C3B58113   9.753   8.754   7.064
 4532POPC   C4B58114   9.736   8.727   7.364
 4533POPC   NC358115  36.911  40.040   5.564
 4533POPC   PO458116  36.934  40.041   5.864
 4533POPC   GL158117  36.918  40.020   6.164
 4533POPC   GL258118  36.990  39.986   6.164
 4533POPC   C1A58119  36.893  40.051   6.464
 4533POPC   D2A58120  36.894  39.981   6.764
 4533POPC   C3A58121  36.896  39.984   7.064
 4533POPC   C4A58122  36.903  40.052   7.364
 4533POPC   C1B58123  37.093  39.866   6.464
 4533POPC   C2B58124  37.165  39.928   6.764
 4533POPC   C3B58125  37.143  39.872   7.064
 4533POPC   C4B58126  37.153  39.854   7.364
 4534POPC   NC358127  19.791  15.200   5.564
 4534POPC   PO458128  19.852  15.218   5.864
 4534POPC   GL158129  19.863  15.153   6.164
 4534POPC   GL258130  19.810  15.073   6.164
 4534POPC   C1A58131  19.872  15.226   6.464
 4534POPC   D2A58132  19.817  15.181   6.764
 4534POPC   C3A58133  19.804  15.171   7.064
 4534POPC   C4A58134  19.846  15.160   7.364
 4534POPC   C1B58135  19.826  14.923   6.464
 4534POPC   C2B58136  19.843  14.891   6.764
 4534POPC   C3B58137  19.919  14.922   7.064
 4534POPC   C4B58138  19.831  14.943   7.364
 4535POPC   NC358139  22.954   1.987   5.564
 4535POPC   PO458140  22.892   1.946   5.864
 4535POPC   GL158141  22.977   1.971   6.164
 4535POPC   GL258142  22.896   2.104   6.164
 4535POPC   C1A58143  22.959   1.959   6.464
 4535POPC   D2A58144  22.948   1.973   6.764
 4535POPC   C3A58145  22.923   2.017   7.064
 4535POPC   C4A58146  22.938   2.014   7.364
 4535POPC   C1B58147  22.805   2.148   6.464
 4535POPC   C2B58148  22.725   2.183   6.764
 4535POPC   C3B58149  22.759   2.195   7.064
 4535POPC   C4B58150  22.741   2.200   7.364
 4536POPC   NC358151  36.915  39.182   5.564
 4536POPC   PO458152  36.953  39.216   5.864
 4536POPC   GL158153  36.894  39.209   6.164
 4536POPC   GL258154  36.895  39.307   6.164
 4536POPC   C1A58155  36.898  39.185   6.464
 4536POPC   D2A58156  36.929  39.268   6.764
 4536POPC   C3A58157  36.929  39.266   7.064
 4536POPC   C4A58158  36.909  39.239   7.364
 4536POPC   C1B58159  36.893  39.465   6.464
 4536POPC   C2B58160  36.829  39.516   6.764
 4536POPC   C3B58161  36.813  39.502   7.064
 4536POPC   C4B58162  36.808  39.502   7.364
 4537POPC   NC358163  26.043  43.884   5.564
 4537POPC   PO458164  26.023  43.871   5.864
 4537POPC   GL158165  26.005  43.916   6.164
 4537POPC   GL258166  26.193  43.837   6.164
 4537POPC   C1A58167  26.042  43.893   6.464
 4537POPC   D2A58168  26.079  43.920   6.764
 4537POPC   C3A58169  26.053  43.899   7.064
 4537POPC   C4A58170  26.051  43.872   7.364
 4537POPC   C1B58171  26.325  43.912   6.464
 4537POPC   C2B58172  26.332  43.863   6.764
 4537POPC   C3B58173  26.323  43.899   7.064
 4537POPC   C4B58174  26.248  43.885   7.364
 4538POPC   NC358175  12.896   4.353   5.564
 4538POPC   PO458176  12.877   4.362   5.864
 4538POPC   GL158177  12.871   4.313   6.164
 4538POPC   GL258178  12.867   4.474   6.164
 4538POPC   C1A58179  12.804   4.333   6.464
 4538POPC   D2A58180  12.817   4.325   6.764
 4538POPC   C3A58181  12.846   4.293   7.064
 4538POPC   C4A58182  12.887   4.285   7.364
 4538POPC   C1B58183  12.928   4.528   6.464
 4538POPC   C2B58184  12.903   4.601   6.764
 4538POPC   C3B58185  12.922   4.560   7.064
 4538POPC   C4B58186  12.910   4.536   7.364
 4539POPC   NC358187   5.071  34.624   5.564
 4539POPC   PO458188   5.143  34.583   5.864
 4539POPC   GL158189   5.045  34.528   6.164
 4539POPC   GL258190   5.225  34.615   6.164
 4539POPC   C1A58191   5.053  34.596   6.464
 4539POPC   D2A58192   5.072  34.592   6.764
 4539POPC   C3A58193   5.087  34.573   7.064
 4539POPC   C4A58194   5.111  34.549   7.364
 4539POPC   C1B58195   5.319  34.598   6.464
 4539POPC   C2B58196   5.368  34.613   6.764
 4539POPC   C3B58197   5.354  34.627   7.064
 4539POPC   C4B58198   5.379  34.597   7.364
 4540POPC   NC358199   8.223  14.409   5.564
 4540POPC   PO458200   8.170  14.405   5.864
 4540POPC   GL158201   8.203  14.408   6.164
 4540POPC   GL258202   8.259  14.516   6.164
 4540POPC   C1A58203   8.182  14.362   6.464
 4540POPC   D2A58204   8.214  14.378   6.764
 4540POPC   C3A58205   8.243  14.416   7.064
 4540POPC   C4A58206   8.168  14.439   7.364
 4540POPC   C1B58207   8.303  14.660   6.464
 4540POPC   C2B58208   8.358  14.584   6.764
 4540POPC   C3B58209   8.296  14.575   7.064
 4540POPC   C4B58210   8.288  14.606   7.364
 4541POPC   NC358211  43.877  43.065   5.564
 4541POPC   PO458212  43.875  43.157   5.864
 4541POPC   GL158213  43.887  43.142   6.164
 4541POPC   GL258214  43.805  43.172   6.164
 4541POPC   C1A58215  43.853  43.118   6.464
 4541POPC   D2A58216  43.854  43.127   6.764
 4541POPC   C3A58217  43.905  43.087   7.064
 4541POPC   C4A58218  43.895  43.152   7.364
 4541POPC   C1B58219  43.673  43.249   6.464
 4541POPC   C2B58220  43.632  43.248   6.764
 4541POPC   C3B58221  43.645  43.237   7.064
 4541POPC   C4B58222  43.610  43.228   7.364
 4542POPC   NC358223  44.627  40.736   5.564
 4542POPC   PO458224  44.637  40.823   5.864
 4542POPC   GL158225  44.680  40.739   6.164
 4542POPC   GL258226  44.788  40.717   6.164
 4542POPC   C1A58227  44.669  40.823   6.464
 4542POPC   D2A58228  44.704  40.816   6.764
 4542POPC   C3A58229  44.614  40.733   7.064
 4542POPC   C4A58230  44.619  40.739   7.364
 4542POPC   C1B58231  44.950  40.761   6.464
 4542POPC   C2B58232  44.898  40.792   6.764
 4542POPC   C3B58233  44.887  40.757   7.064
 4542POPC   C4B58234  44.893  40.777   7.364
 4543POPC   NC358235   5.855  14.391   5.564
 4543POPC   PO458236   5.820  14.417   5.864
 4543POPC   GL158237   5.905  14.426   6.164
 4543POPC   GL258238   5.901  14.527   6.164
 4543POPC   C1A58239   5.890  14.386   6.464
 4543POPC   D2A58240   5.859  14.413   6.764
 4543POPC   C3A58241   5.832  14.411   7.064
 4543POPC   C4A58242   5.838  14.380   7.364
 4543POPC   C1B58243   5.852  14.619   6.464
 4543POPC   C2B58244   5.839  14.669   6.764
 4543POPC   C3B58245   5.809  14.612   7.064
 4543POPC   C4B58246   5.831  14.675   7.364
 4544POPC   NC358247  43.116   0.443   5.564
 4544POPC   PO458248  43.146   0.448   5.864
 4544POPC   GL158249  43.102   0.402   6.164
 4544POPC   GL258250  42.970   0.418   6.164
 4544POPC   C1A58251  43.079   0.471   6.464
 4544POPC   D2A58252  43.091   0.394   6.764
 4544POPC   C3A58253  43.077   0.400   7.064
 4544POPC   C4A58254  43.128   0.474   7.364
 4544POPC   C1B58255  42.818   0.477   6.464
 4544POPC   C2B58256  42.891   0.396   6.764
 4544POPC   C3B58257  42.822   0.411   7.064
 4544POPC   C4B58258  42.836   0.476   7.364
 4545POPC   NC358259  30.677  14.402   5.564
 4545POPC   PO458260  30.726  14.446   5.864
 4545POPC   GL158261  30.708  14.407   6.164
 4545POPC   GL258262  30.862  14.410   6.164
 4545POPC   C1A58263  30.651  14.396   6.464
 4545POPC   D2A58264  30.715  14.359   6.764
 4545POPC   C3A58265  30.715  14.364   7.064
 4545POPC   C4A58266  30.726  14.380   7.364
 4545POPC   C1B58267  30.948  14.434   6.464
 4545POPC   C2B58268  30.900  14.393   6.764
 4545POPC   C3B58269  30.995  14.406   7.064
 4545POPC   C4B58270  30.941  14.408   7.364
 4546POPC   NC358271   2.029  29.898   5.564
 4546POPC   PO458272   1.952  29.929   5.864
 4546POPC   GL158273   1.943  29.906   6.164
 4546POPC   GL258274   1.999  29.778   6.164
 4546POPC   C1A58275   1.974  29.881   6.464
 4546POPC   D2A58276   1.981  29.916   6.764
 4546POPC   C3A58277   2.039  29.896   7.064
 4546POPC   C4A58278   2.026  29.951   7.364
 4546POPC   C1B58279   2.034  29.656   6.464
 4546POPC   C2B58280   2.004  29.696   6.764
 4546POPC   C3B58281   2.021  29.674   7.064
 4546POPC   C4B58282   2.018  29.712   7.364
 4547POPC   NC358283  20.596  23.761   5.564
 4547POPC   PO458284  20.582  23.697   5.864
 4547POPC   GL158285  20.630  23.708   6.164
 4547POPC   GL258286  20.472  23.766   6.164
 4547POPC   C1A58287  20.567  23.746   6.464
 4547POPC   D2A58288  20.604  23.763   6.764
 4547POPC   C3A58289  20.621  23.672   7.064
 4547POPC   C4A58290  20.644  23.708   7.364
 4547POPC   C1B58291  20.427  23.886   6.464
 4547POPC   C2B58292  20.366  23.804   6.764
 4547POPC   C3B58293  20.389  23.846   7.064
 4547POPC   C4B58294  20.354  23.884   7.364
 4548POPC   NC358295  36.173   6.596   5.564
 4548POPC   PO458296  36.081   6.689   5.864
 4548POPC   GL158297  36.173   6.595   6.164
 4548POPC   GL258298  36.244   6.761   6.164
 4548POPC   C1A58299  36.138   6.680   6.464
 4548POPC   D2A58300  36.113   6.619   6.764
 4548POPC   C3A58301  36.175   6.595   7.064
 4548POPC   C4A58302  36.152   6.638   7.364
 4548POPC   C1B58303  36.317   6.847   6.464
 4548POPC   C2B58304  36.284   6.875   6.764
 4548POPC   C3B58305  36.321   6.862   7.064
 4548POPC   C4B58306  36.292   6.799   7.364
 4549POPC   NC358307  29.141  40.046   5.564
 4549POPC   PO458308  29.120  39.990   5.864
 4549POPC   GL158309  29.161  39.961   6.164
 4549POPC   GL258310  29.036  40.063   6.164
 4549POPC   C1A58311  29.168  39.959   6.464
 4549POPC   D2A58312  29.194  40.030   6.764
 4549POPC   C3A58313  29.097  40.025   7.064
 4549POPC   C4A58314  29.172  39.971   7.364
 4549POPC   C1B58315  28.928  40.159   6.464
 4549POPC   C2B58316  28.916  40.164   6.764
 4549POPC   C3B58317  28.990  40.158   7.064
 4549POPC   C4B58318  28.910  40.207   7.364
 4550POPC   NC358319  20.623  24.530   5.564
 4550POPC   PO458320  20.646  24.513   5.864
 4550POPC   GL158321  20.658  24.515   6.164
 4550POPC   GL258322  20.759  24.454   6.164
 4550POPC   C1A58323  20.629  24.487   6.464
 4550POPC   D2A58324  20.592  24.493   6.764
 4550POPC   C3A58325  20.577  24.486   7.064
 4550POPC   C4A58326  20.583  24.509   7.364
 4550POPC   C1B58327  20.797  24.397   6.464
 4550POPC   C2B58328  20.843  24.409   6.764
 4550POPC   C3B58329  20.820  24.348   7.064
 4550POPC   C4B58330  20.870  24.394   7.364
 4551POPC   NC358331  33.834  19.860   5.564
 4551POPC   PO458332  33.754  19.830   5.864
 4551POPC   GL158333  33.807  19.843   6.164
 4551POPC   GL258334  33.825  19.740   6.164
 4551POPC   C1A58335  33.754  19.826   6.464
 4551POPC   D2A58336  33.849  19.823   6.764
 4551POPC   C3A58337  33.830  19.869   7.064
 4551POPC   C4A58338  33.807  19.823   7.364
 4551POPC   C1B58339  33.898  19.624   6.464
 4551POPC   C2B58340  33.928  19.573   6.764
 4551POPC   C3B58341  33.896  19.577   7.064
 4551POPC   C4B58342  33.862  19.609   7.364
 4552POPC   NC358343  16.761  17.541   5.564
 4552POPC   PO458344  16.735  17.539   5.864
 4552POPC   GL158345  16.734  17.465   6.164
 4552POPC   GL258346  16.694  17.374   6.164
 4552POPC   C1A58347  16.728  17.466   6.464
 4552POPC   D2A58348  16.726  17.539   6.764
 4552POPC   C3A58349  16.780  17.515   7.064
 4552POPC   C4A58350  16.741  17.492   7.364
 4552POPC   C1B58351  16.759  17.277   6.464
 4552POPC   C2B58352  16.797  17.218   6.764
 4552POPC   C3B58353  16.702  17.262   7.064
 4552POPC   C4B58354  16.781  17.274   7.364
 4553POPC   NC358355  25.287  44.621   5.564
 4553POPC   PO458356  25.217  44.624   5.864
 4553POPC   GL158357  25.257  44.642   6.164
 4553POPC   GL258358  25.155  44.746   6.164
 4553POPC   C1A58359  25.304  44.645   6.464
 4553POPC   D2A58360  25.216  44.668   6.764
 4553POPC   C3A58361  25.278  44.712   7.064
 4553POPC   C4A58362  25.270  44.691   7.364
 4553POPC   C1B58363  25.128  44.910   6.464
 4553POPC   C2B58364  25.144  44.819   6.764
 4553POPC   C3B58365  25.108  44.915   7.064
 4553POPC   C4B58366  25.174  44.839   7.364
 4554POPC   NC358367  19.023  10.558   5.564
 4554POPC   PO458368  19.074  10.512   5.864
 4554POPC   GL158369  19.045  10.533   6.164
 4554POPC   GL258370  18.993  10.661   6.164
 4554POPC   C1A58371  19.086  10.548   6.464
 4554POPC   D2A58372  19.040  10.530   6.764
 4554POPC   C3A58373  19.104  10.524   7.064
 4554POPC   C4A58374  19.056  10.511   7.364
 4554POPC   C1B58375  18.903  10.735   6.464
 4554POPC   C2B58376  18.873  10.693   6.764
 4554POPC   C3B58377  18.865  10.699   7.064
 4554POPC   C4B58378  18.879  10.739   7.364
 4555POPC   NC358379   8.170  19.806   5.564
 4555POPC   PO458380   8.237  19.803   5.864
 4555POPC   GL158381   8.241  19.866   6.164
 4555POPC   GL258382   8.094  19.782   6.164
 4555POPC   C1A58383   8.211  19.851   6.464
 4555POPC   D2A58384   8.173  19.881   6.764
 4555POPC   C3A58385   8.213  19.865   7.064
 4555POPC   C4A58386   8.182  19.853   7.364
 4555POPC   C1B58387   8.071  19.606   6.464
 4555POPC   C2B58388   8.076  19.655   6.764
 4555POPC   C3B58389   8.059  19.645   7.064
 4555POPC   C4B58390   8.046  19.643   7.364
 4556POPC   NC358391   8.954  39.239   5.564
 4556POPC   PO458392   8.951  39.221   5.864
 4556POPC   GL158393   8.948  39.228   6.164
 4556POPC   GL258394   8.924  39.318   6.164
 4556POPC   C1A58395   8.946  39.233   6.464
 4556POPC   D2A58396   8.957  39.189   6.764
 4556POPC   C3A58397   8.993  39.252   7.064
 4556POPC   C4A58398   9.015  39.250   7.364
 4556POPC   C1B58399   8.889  39.481   6.464
 4556POPC   C2B58400   8.827  39.498   6.764
 4556POPC   C3B58401   8.839  39.447   7.064
 4556POPC   C4B58402   8.871  39.447   7.364
 4557POPC   NC358403  44.626  25.252   5.564
 4557POPC   PO458404  44.694  25.305   5.864
 4557POPC   GL158405  44.693  25.233   6.164
 4557POPC   GL258406  44.740  25.203   6.164
 4557POPC   C1A58407  44.683  25.308   6.464
 4557POPC   D2A58408  44.622  25.227   6.764
 4557POPC   C3A58409  44.668  25.232   7.064
 4557POPC   C4A58410  44.647  25.303   7.364
 4557POPC   C1B58411  44.909  25.203   6.464
 4557POPC   C2B58412  44.861  25.139   6.764
 4557POPC   C3B58413  44.850  25.187   7.064
 4557POPC   C4B58414  44.857  25.176   7.364
 4558POPC   NC358415  12.836  13.649   5.564
 4558POPC   PO458416  12.870  13.622   5.864
 4558POPC   GL158417  12.886  13.590   6.164
 4558POPC   GL258418  12.918  13.702   6.164
 4558POPC   C1A58419  12.813  13.630   6.464
 4558POPC   D2A58420  12.841  13.659   6.764
 4558POPC   C3A58421  12.885  13.653   7.064
 4558POPC   C4A58422  12.883  13.650   7.364
 4558POPC   C1B58423  13.082  13.777   6.464
 4558POPC   C2B58424  13.040  13.759   6.764
 4558POPC   C3B58425  13.032  13.807   7.064
 4558POPC   C4B58426  13.022  13.774   7.364
 4559POPC   NC358427  33.794  20.631   5.564
 4559POPC   PO458428  33.815  20.607   5.864
 4559POPC   GL158429  33.780  20.604   6.164
 4559POPC   GL258430  33.772  20.506   6.164
 4559POPC   C1A58431  33.782  20.614   6.464
 4559POPC   D2A58432  33.801  20.589   6.764
 4559POPC   C3A58433  33.776  20.611   7.064
 4559POPC   C4A58434  33.795  20.624   7.364
 4559POPC   C1B58435  33.665  20.339   6.464
 4559POPC   C2B58436  33.719  20.335   6.764
 4559POPC   C3B58437  33.724  20.357   7.064
 4559POPC   C4B58438  33.649  20.422   7.364
 4560POPC   NC358439  11.316   8.929   5.564
 4560POPC   PO458440  11.320   8.934   5.864
 4560POPC   GL158441  11.318   9.002   6.164
 4560POPC   GL258442  11.349   9.078   6.164
 4560POPC   C1A58443  11.275   9.017   6.464
 4560POPC   D2A58444  11.250   9.018   6.764
 4560POPC   C3A58445  11.262   8.981   7.064
 4560POPC   C4A58446  11.279   8.969   7.364
 4560POPC   C1B58447  11.386   9.249   6.464
 4560POPC   C2B58448  11.367   9.227   6.764
 4560POPC   C3B58449  11.370   9.204   7.064
 4560POPC   C4B58450  11.355   9.200   7.364
 4561POPC   NC358451   8.952   8.994   5.564
 4561POPC   PO458452   9.016   8.927   5.864
 4561POPC   GL158453   8.996   8.945   6.164
 4561POPC   GL258454   8.875   8.996   6.164
 4561POPC   C1A58455   8.927   8.956   6.464
 4561POPC   D2A58456   9.009   8.945   6.764
 4561POPC   C3A58457   8.944   8.926   7.064
 4561POPC   C4A58458   9.019   9.011   7.364
 4561POPC   C1B58459   8.689   8.992   6.464
 4561POPC   C2B58460   8.738   8.957   6.764
 4561POPC   C3B58461   8.766   8.958   7.064
 4561POPC   C4B58462   8.743   9.015   7.364
 4562POPC   NC358463  29.952  33.778   5.564
 4562POPC   PO458464  29.888  33.776   5.864
 4562POPC   GL158465  29.927  33.752   6.164
 4562POPC   GL258466  30.056  33.823   6.164
 4562POPC   C1A58467  29.964  33.846   6.464
 4562POPC   D2A58468  29.873  33.831   6.764
 4562POPC   C3A58469  29.955  33.778   7.064
 4562POPC   C4A58470  29.918  33.830   7.364
 4562POPC   C1B58471  30.162  33.723   6.464
 4562POPC   C2B58472  30.201  33.808   6.764
 4562POPC   C3B58473  30.142  33.764   7.064
 4562POPC   C4B58474  30.178  33.787   7.364
 4563POPC   NC358475   5.858   6.675   5.564
 4563POPC   PO458476   5.858   6.620   5.864
 4563POPC   GL158477   5.856   6.655   6.164
 4563POPC   GL258478   5.789   6.722   6.164
 4563POPC   C1A58479   5.880   6.668   6.464
 4563POPC   D2A58480   5.916   6.678   6.764
 4563POPC   C3A58481   5.871   6.617   7.064
 4563POPC   C4A58482   5.916   6.607   7.364
 4563POPC   C1B58483   5.635   6.754   6.464
 4563POPC   C2B58484   5.640   6.737   6.764
 4563POPC   C3B58485   5.692   6.753   7.064
 4563POPC   C4B58486   5.640   6.733   7.364
 4564POPC   NC358487  43.845  18.323   5.564
 4564POPC   PO458488  43.869  18.264   5.864
 4564POPC   GL158489  43.929  18.240   6.164
 4564POPC   GL258490  43.874  18.187   6.164
 4564POPC   C1A58491  43.893  18.297   6.464
 4564POPC   D2A58492  43.884  18.290   6.764
 4564POPC   C3A58493  43.893  18.246   7.064
 4564POPC   C4A58494  43.903  18.261   7.364
 4564POPC   C1B58495  43.860  18.042   6.464
 4564POPC   C2B58496  43.909  18.040   6.764
 4564POPC   C3B58497  43.873  18.058   7.064
 4564POPC   C4B58498  43.920  18.014   7.364
 4565POPC   NC358499  41.534  19.070   5.564
 4565POPC   PO458500  41.547  19.034   5.864
 4565POPC   GL158501  41.570  19.089   6.164
 4565POPC   GL258502  41.484  19.122   6.164
 4565POPC   C1A58503  41.533  19.019   6.464
 4565POPC   D2A58504  41.520  19.012   6.764
 4565POPC   C3A58505  41.527  19.018   7.064
 4565POPC   C4A58506  41.520  19.065   7.364
 4565POPC   C1B58507  41.380  19.227   6.464
 4565POPC   C2B58508  41.328  19.225   6.764
 4565POPC   C3B58509  41.331  19.215   7.064
 4565POPC   C4B58510  41.395  19.224   7.364
 4566POPC   NC358511   5.892  26.024   5.564
 4566POPC   PO458512   5.901  26.053   5.864
 4566POPC   GL158513   5.869  26.061   6.164
 4566POPC   GL258514   6.000  26.037   6.164
 4566POPC   C1A58515   5.897  26.005   6.464
 4566POPC   D2A58516   5.893  26.085   6.764
 4566POPC   C3A58517   5.892  26.069   7.064
 4566POPC   C4A58518   5.862  26.005   7.364
 4566POPC   C1B58519   6.076  26.047   6.464
 4566POPC   C2B58520   6.138  26.037   6.764
 4566POPC   C3B58521   6.140  26.101   7.064
 4566POPC   C4B58522   6.075  26.121   7.364
 4567POPC   NC358523   0.464  37.663   5.564
 4567POPC   PO458524   0.459  37.670   5.864
 4567POPC   GL158525   0.397  37.637   6.164
 4567POPC   GL258526   0.498  37.800   6.164
 4567POPC   C1A58527   0.395  37.723   6.464
 4567POPC   D2A58528   0.399  37.693   6.764
 4567POPC   C3A58529   0.434  37.638   7.064
 4567POPC   C4A58530   0.430  37.720   7.364
 4567POPC   C1B58531   0.600  37.902   6.464
 4567POPC   C2B58532   0.643  37.830   6.764
 4567POPC   C3B58533   0.587  37.880   7.064
 4567POPC   C4B58534   0.662  37.893   7.364
 4568POPC   NC358535   2.013  33.816   5.564
 4568POPC   PO458536   1.965  33.784   5.864
 4568POPC   GL158537   1.956  33.802   6.164
 4568POPC   GL258538   2.075  33.849   6.164
 4568POPC   C1A58539   2.009  33.848   6.464
 4568POPC   D2A58540   2.000  33.839   6.764
 4568POPC   C3A58541   2.034  33.823   7.064
 4568POPC   C4A58542   1.948  33.767   7.364
 4568POPC   C1B58543   2.199  33.876   6.464
 4568POPC   C2B58544   2.233  33.896   6.764
 4568POPC   C3B58545   2.219  33.958   7.064
 4568POPC   C4B58546   2.256  33.938   7.364
 4569POPC   NC358547  22.162  13.667   5.564
 4569POPC   PO458548  22.196  13.665   5.864
 4569POPC   GL158549  22.163  13.592   6.164
 4569POPC   GL258550  22.322  13.691   6.164
 4569POPC   C1A58551  22.191  13.638   6.464
 4569POPC   D2A58552  22.195  13.652   6.764
 4569POPC   C3A58553  22.152  13.636   7.064
 4569POPC   C4A58554  22.188  13.641   7.364
 4569POPC   C1B58555  22.416  13.644   6.464
 4569POPC   C2B58556  22.376  13.654   6.764
 4569POPC   C3B58557  22.395  13.706   7.064
 4569POPC   C4B58558  22.396  13.632   7.364
 4570POPC   NC358559  19.066  26.069   5.564
 4570POPC   PO458560  19.046  26.047   5.864
 4570POPC   GL158561  19.094  26.058   6.164
 4570POPC   GL258562  19.078  26.144   6.164
 4570POPC   C1A58563  19.092  26.060   6.464
 4570POPC   D2A58564  19.053  26.017   6.764
 4570POPC   C3A58565  19.085  26.004   7.064
 4570POPC   C4A58566  19.097  26.018   7.364
 4570POPC   C1B58567  19.011  26.243   6.464
 4570POPC   C2B58568  19.081  26.274   6.764
 4570POPC   C3B58569  19.048  26.266   7.064
 4570POPC   C4B58570  19.046  26.270   7.364
 4571POPC   NC358571  17.547  26.034   5.564
 4571POPC   PO458572  17.524  25.996   5.864
 4571POPC   GL158573  17.488  26.080   6.164
 4571POPC   GL258574  17.644  25.987   6.164
 4571POPC   C1A58575  17.556  26.085   6.464
 4571POPC   D2A58576  17.545  26.048   6.764
 4571POPC   C3A58577  17.510  26.056   7.064
 4571POPC   C4A58578  17.494  26.086   7.364
 4571POPC   C1B58579  17.785  25.996   6.464
 4571POPC   C2B58580  17.733  25.993   6.764
 4571POPC   C3B58581  17.801  26.070   7.064
 4571POPC   C4B58582  17.748  25.994   7.364
 4572POPC   NC358583  40.744   0.442   5.564
 4572POPC   PO458584  40.752   0.399   5.864
 4572POPC   GL158585  40.820   0.398   6.164
 4572POPC   GL258586  40.810   0.588   6.164
 4572POPC   C1A58587  40.821   0.435   6.464
 4572POPC   D2A58588  40.779   0.423   6.764
 4572POPC   C3A58589  40.785   0.476   7.064
 4572POPC   C4A58590  40.777   0.445   7.364
 4572POPC   C1B58591  40.858   0.663   6.464
 4572POPC   C2B58592  40.906   0.683   6.764
 4572POPC   C3B58593  40.906   0.700   7.064
 4572POPC   C4B58594  40.853   0.622   7.364
 4573POPC   NC358595  26.853  19.091   5.564
 4573POPC   PO458596  26.802  19.044   5.864
 4573POPC   GL158597  26.795  19.093   6.164
 4573POPC   GL258598  26.877  19.195   6.164
 4573POPC   C1A58599  26.783  19.066   6.464
 4573POPC   D2A58600  26.845  19.107   6.764
 4573POPC   C3A58601  26.830  19.093   7.064
 4573POPC   C4A58602  26.815  19.026   7.364
 4573POPC   C1B58603  26.911  19.302   6.464
 4573POPC   C2B58604  26.887  19.246   6.764
 4573POPC   C3B58605  26.894  19.321   7.064
 4573POPC   C4B58606  26.890  19.331   7.364
 4574POPC   NC358607  36.135   8.953   5.564
 4574POPC   PO458608  36.126   8.960   5.864
 4574POPC   GL158609  36.158   8.980   6.164
 4574POPC   GL258610  36.203   8.988   6.164
 4574POPC   C1A58611  36.161   9.016   6.464
 4574POPC   D2A58612  36.130   8.951   6.764
 4574POPC   C3A58613  36.145   9.011   7.064
 4574POPC   C4A58614  36.146   9.009   7.364
 4574POPC   C1B58615  36.374   9.044   6.464
 4574POPC   C2B58616  36.323   9.117   6.764
 4574POPC   C3B58617  36.367   9.045   7.064
 4574POPC   C4B58618  36.353   9.134   7.364
 4575POPC   NC358619  29.939  16.729   5.564
 4575POPC   PO458620  29.948  16.748   5.864
 4575POPC   GL158621  29.880  16.689   6.164
 4575POPC   GL258622  30.044  16.653   6.164
 4575POPC   C1A58623  29.872  16.740   6.464
 4575POPC   D2A58624  29.879  16.776   6.764
 4575POPC   C3A58625  29.901  16.700   7.064
 4575POPC   C4A58626  29.901  16.734   7.364
 4575POPC   C1B58627  30.058  16.517   6.464
 4575POPC   C2B58628  30.100  16.497   6.764
 4575POPC   C3B58629  30.120  16.495   7.064
 4575POPC   C4B58630  30.042  16.497   7.364
 4576POPC   NC358631  29.147   0.467   5.564
 4576POPC   PO458632  29.172   0.476   5.864
 4576POPC   GL158633  29.113   0.453   6.164
 4576POPC   GL258634  29.219   0.433   6.164
 4576POPC   C1A58635  29.187   0.468   6.464
 4576POPC   D2A58636  29.122   0.404   6.764
 4576POPC   C3A58637  29.129   0.396   7.064
 4576POPC   C4A58638  29.183   0.412   7.364
 4576POPC   C1B58639  29.343   0.500   6.464
 4576POPC   C2B58640  29.439   0.467   6.764
 4576POPC   C3B58641  29.407   0.477   7.064
 4576POPC   C4B58642  29.400   0.473   7.364
 4577POPC   NC358643  27.573  33.018   5.564
 4577POPC   PO458644  27.640  33.032   5.864
 4577POPC   GL158645  27.620  33.049   6.164
 4577POPC   GL258646  27.644  32.942   6.164
 4577POPC   C1A58647  27.643  33.061   6.464
 4577POPC   D2A58648  27.626  33.036   6.764
 4577POPC   C3A58649  27.630  32.990   7.064
 4577POPC   C4A58650  27.619  33.067   7.364
 4577POPC   C1B58651  27.710  32.799   6.464
 4577POPC   C2B58652  27.668  32.802   6.764
 4577POPC   C3B58653  27.639  32.743   7.064
 4577POPC   C4B58654  27.630  32.739   7.364
 4578POPC   NC358655  12.062   2.731   5.564
 4578POPC   PO458656  12.097   2.775   5.864
 4578POPC   GL158657  12.031   2.789   6.164
 4578POPC   GL258658  12.051   2.887   6.164
 4578POPC   C1A58659  12.052   2.765   6.464
 4578POPC   D2A58660  12.035   2.766   6.764
 4578POPC   C3A58661  12.070   2.767   7.064
 4578POPC   C4A58662  12.077   2.755   7.364
 4578POPC   C1B58663  12.021   3.003   6.464
 4578POPC   C2B58664  12.074   3.058   6.764
 4578POPC   C3B58665  12.055   3.042   7.064
 4578POPC   C4B58666  12.034   3.059   7.364
 4579POPC   NC358667  19.808  17.539   5.564
 4579POPC   PO458668  19.865  17.495   5.864
 4579POPC   GL158669  19.848  17.528   6.164
 4579POPC   GL258670  19.957  17.532   6.164
 4579POPC   C1A58671  19.855  17.517   6.464
 4579POPC   D2A58672  19.816  17.465   6.764
 4579POPC   C3A58673  19.809  17.481   7.064
 4579POPC   C4A58674  19.837  17.489   7.364
 4579POPC   C1B58675  20.069  17.572   6.464
 4579POPC   C2B58676  20.044  17.651   6.764
 4579POPC   C3B58677  20.089  17.611   7.064
 4579POPC   C4B58678  20.059  17.603   7.364
 4580POPC   NC358679  25.269  21.404   5.564
 4580POPC   PO458680  25.238  21.393   5.864
 4580POPC   GL158681  25.270  21.420   6.164
 4580POPC   GL258682  25.266  21.457   6.164
 4580POPC   C1A58683  25.241  21.415   6.464
 4580POPC   D2A58684  25.294  21.365   6.764
 4580POPC   C3A58685  25.289  21.421   7.064
 4580POPC   C4A58686  25.282  21.418   7.364
 4580POPC   C1B58687  25.393  21.633   6.464
 4580POPC   C2B58688  25.377  21.627   6.764
 4580POPC   C3B58689  25.345  21.613   7.064
 4580POPC   C4B58690  25.330  21.597   7.364
 4581POPC   NC358691  36.943  15.929   5.564
 4581POPC   PO458692  36.937  15.965   5.864
 4581POPC   GL158693  36.888  15.993   6.164
 4581POPC   GL258694  36.836  16.039   6.164
 4581POPC   C1A58695  36.869  15.913   6.464
 4581POPC   D2A58696  36.917  15.923   6.764
 4581POPC   C3A58697  36.869  15.953   7.064
 4581POPC   C4A58698  36.860  16.000   7.364
 4581POPC   C1B58699  36.684  16.082   6.464
 4581POPC   C2B58700  36.663  16.134   6.764
 4581POPC   C3B58701  36.686  16.087   7.064
 4581POPC   C4B58702  36.738  16.120   7.364
 4582POPC   NC358703  29.886  15.980   5.564
 4582POPC   PO458704  29.936  15.968   5.864
 4582POPC   GL158705  29.879  15.910   6.164
 4582POPC   GL258706  29.843  16.096   6.164
 4582POPC   C1A58707  29.928  15.935   6.464
 4582POPC   D2A58708  29.960  15.922   6.764
 4582POPC   C3A58709  29.884  15.933   7.064
 4582POPC   C4A58710  29.904  15.966   7.364
 4582POPC   C1B58711  29.813  16.119   6.464
 4582POPC   C2B58712  29.817  16.174   6.764
 4582POPC   C3B58713  29.817  16.146   7.064
 4582POPC   C4B58714  29.772  16.165   7.364
 4583POPC   NC358715   3.567  16.741   5.564
 4583POPC   PO458716   3.512  16.778   5.864
 4583POPC   GL158717   3.589  16.742   6.164
 4583POPC   GL258718   3.539  16.823   6.164
 4583POPC   C1A58719   3.579  16.740   6.464
 4583POPC   D2A58720   3.571  16.755   6.764
 4583POPC   C3A58721   3.494  16.779   7.064
 4583POPC   C4A58722   3.591  16.706   7.364
 4583POPC   C1B58723   3.580  17.014   6.464
 4583POPC   C2B58724   3.634  16.950   6.764
 4583POPC   C3B58725   3.590  16.972   7.064
 4583POPC   C4B58726   3.632  16.955   7.364
 4584POPC   NC358727  11.305  38.483   5.564
 4584POPC   PO458728  11.324  38.411   5.864
 4584POPC   GL158729  11.286  38.436   6.164
 4584POPC   GL258730  11.176  38.559   6.164
 4584POPC   C1A58731  11.330  38.464   6.464
 4584POPC   D2A58732  11.284  38.453   6.764
 4584POPC   C3A58733  11.287  38.424   7.064
 4584POPC   C4A58734  11.264  38.465   7.364
 4584POPC   C1B58735  11.095  38.609   6.464
 4584POPC   C2B58736  11.041  38.577   6.764
 4584POPC   C3B58737  11.099  38.617   7.064
 4584POPC   C4B58738  11.037  38.592   7.364
 4585POPC   NC358739  44.614  24.511   5.564
 4585POPC   PO458740  44.637  24.446   5.864
 4585POPC   GL158741  44.665  24.504   6.164
 4585POPC   GL258742  44.580  24.413   6.164
 4585POPC   C1A58743  44.635  24.467   6.464
 4585POPC   D2A58744  44.700  24.487   6.764
 4585POPC   C3A58745  44.667  24.534   7.064
 4585POPC   C4A58746  44.636  24.453   7.364
 4585POPC   C1B58747  44.513  24.294   6.464
 4585POPC   C2B58748  44.464  24.329   6.764
 4585POPC   C3B58749  44.505  24.266   7.064
 4585POPC   C4B58750  44.531  24.291   7.364
 4586POPC   NC358751  33.045  19.017   5.564
 4586POPC   PO458752  32.991  19.014   5.864
 4586POPC   GL158753  32.989  19.017   6.164
 4586POPC   GL258754  32.944  19.030   6.164
 4586POPC   C1A58755  32.984  19.076   6.464
 4586POPC   D2A58756  33.020  19.066   6.764
 4586POPC   C3A58757  33.008  19.094   7.064
 4586POPC   C4A58758  33.005  19.081   7.364
 4586POPC   C1B58759  32.802  19.080   6.464
 4586POPC   C2B58760  32.820  19.081   6.764
 4586POPC   C3B58761  32.780  19.082   7.064
 4586POPC   C4B58762  32.794  19.089   7.364
 4587POPC   NC358763  32.980  17.551   5.564
 4587POPC   PO458764  32.985  17.464   5.864
 4587POPC   GL158765  33.010  17.497   6.164
 4587POPC   GL258766  33.136  17.375   6.164
 4587POPC   C1A58767  33.021  17.467   6.464
 4587POPC   D2A58768  33.017  17.509   6.764
 4587POPC   C3A58769  33.068  17.542   7.064
 4587POPC   C4A58770  32.979  17.535   7.364
 4587POPC   C1B58771  33.216  17.303   6.464
 4587POPC   C2B58772  33.126  17.319   6.764
 4587POPC   C3B58773  33.221  17.273   7.064
 4587POPC   C4B58774  33.140  17.330   7.364
 4588POPC   NC358775  30.651  16.729   5.564
 4588POPC   PO458776  30.689  16.712   5.864
 4588POPC   GL158777  30.691  16.769   6.164
 4588POPC   GL258778  30.740  16.849   6.164
 4588POPC   C1A58779  30.686  16.748   6.464
 4588POPC   D2A58780  30.671  16.716   6.764
 4588POPC   C3A58781  30.713  16.685   7.064
 4588POPC   C4A58782  30.663  16.761   7.364
 4588POPC   C1B58783  30.726  16.936   6.464
 4588POPC   C2B58784  30.674  17.001   6.764
 4588POPC   C3B58785  30.675  17.025   7.064
 4588POPC   C4B58786  30.727  16.970   7.364
 4589POPC   NC358787  29.962  36.105   5.564
 4589POPC   PO458788  29.946  36.144   5.864
 4589POPC   GL158789  29.928  36.172   6.164
 4589POPC   GL258790  29.750  36.100   6.164
 4589POPC   C1A58791  29.933  36.114   6.464
 4589POPC   D2A58792  29.908  36.101   6.764
 4589POPC   C3A58793  29.969  36.139   7.064
 4589POPC   C4A58794  29.902  36.082   7.364
 4589POPC   C1B58795  29.687  36.116   6.464
 4589POPC   C2B58796  29.634  36.122   6.764
 4589POPC   C3B58797  29.696  36.133   7.064
 4589POPC   C4B58798  29.668  36.074   7.364
 4590POPC   NC358799   1.259  29.936   5.564
 4590POPC   PO458800   1.208  29.937   5.864
 4590POPC   GL158801   1.224  29.911   6.164
 4590POPC   GL258802   1.303  30.063   6.164
 4590POPC   C1A58803   1.212  29.896   6.464
 4590POPC   D2A58804   1.188  29.873   6.764
 4590POPC   C3A58805   1.190  29.888   7.064
 4590POPC   C4A58806   1.168  29.933   7.364
 4590POPC   C1B58807   1.315  30.183   6.464
 4590POPC   C2B58808   1.361  30.170   6.764
 4590POPC   C3B58809   1.285  30.157   7.064
 4590POPC   C4B58810   1.363  30.118   7.364
 4591POPC   NC358811  22.967   5.066   5.564
 4591POPC   PO458812  22.951   5.052   5.864
 4591POPC   GL158813  22.954   5.141   6.164
 4591POPC   GL258814  23.087   5.132   6.164
 4591POPC   C1A58815  22.978   5.074   6.464
 4591POPC   D2A58816  22.985   5.138   6.764
 4591POPC   C3A58817  22.958   5.128   7.064
 4591POPC   C4A58818  22.947   5.119   7.364
 4591POPC   C1B58819  23.205   5.160   6.464
 4591POPC   C2B58820  23.144   5.252   6.764
 4591POPC   C3B58821  23.176   5.223   7.064
 4591POPC   C4B58822  23.123   5.170   7.364
 4592POPC   NC358823  17.505  34.622   5.564
 4592POPC   PO458824  17.464  34.544   5.864
 4592POPC   GL158825  17.529  34.548   6.164
 4592POPC   GL258826  17.647  34.534   6.164
 4592POPC   C1A58827  17.496  34.578   6.464
 4592POPC   D2A58828  17.549  34.601   6.764
 4592POPC   C3A58829  17.538  34.588   7.064
 4592POPC   C4A58830  17.469  34.618   7.364
 4592POPC   C1B58831  17.718  34.487   6.464
 4592POPC   C2B58832  17.700  34.554   6.764
 4592POPC   C3B58833  17.739  34.490   7.064
 4592POPC   C4B58834  17.730  34.531   7.364
 4593POPC   NC358835   4.338  32.205   5.564
 4593POPC   PO458836   4.280  32.238   5.864
 4593POPC   GL158837   4.279  32.294   6.164
 4593POPC   GL258838   4.218  32.148   6.164
 4593POPC   C1A58839   4.352  32.293   6.464
 4593POPC   D2A58840   4.300  32.275   6.764
 4593POPC   C3A58841   4.285  32.266   7.064
 4593POPC   C4A58842   4.366  32.244   7.364
 4593POPC   C1B58843   4.115  32.107   6.464
 4593POPC   C2B58844   4.134  32.112   6.764
 4593POPC   C3B58845   4.063  32.081   7.064
 4593POPC   C4B58846   4.097  32.160   7.364
 4594POPC   NC358847  14.417  42.310   5.564
 4594POPC   PO458848  14.405  42.354   5.864
 4594POPC   GL158849  14.375  42.322   6.164
 4594POPC   GL258850  14.484  42.269   6.164
 4594POPC   C1A58851  14.448  42.359   6.464
 4594POPC   D2A58852  14.450  42.319   6.764
 4594POPC   C3A58853  14.412  42.359   7.064
 4594POPC   C4A58854  14.364  42.351   7.364
 4594POPC   C1B58855  14.624  42.180   6.464
 4594POPC   C2B58856  14.629  42.213   6.764
 4594POPC   C3B58857  14.556  42.167   7.064
 4594POPC   C4B58858  14.592  42.222   7.364
 4595POPC   NC358859   5.840  18.289   5.564
 4595POPC   PO458860   5.831  18.306   5.864
 4595POPC   GL158861   5.883  18.295   6.164
 4595POPC   GL258862   5.772  18.264   6.164
 4595POPC   C1A58863   5.842  18.330   6.464
 4595POPC   D2A58864   5.826  18.236   6.764
 4595POPC   C3A58865   5.844  18.315   7.064
 4595POPC   C4A58866   5.909  18.254   7.364
 4595POPC   C1B58867   5.669  18.254   6.464
 4595POPC   C2B58868   5.569  18.248   6.764
 4595POPC   C3B58869   5.641  18.263   7.064
 4595POPC   C4B58870   5.639  18.343   7.364
 4596POPC   NC358871  20.594   0.436   5.564
 4596POPC   PO458872  20.600   0.392   5.864
 4596POPC   GL158873  20.605   0.391   6.164
 4596POPC   GL258874  20.523   0.421   6.164
 4596POPC   C1A58875  20.582   0.403   6.464
 4596POPC   D2A58876  20.597   0.440   6.764
 4596POPC   C3A58877  20.647   0.476   7.064
 4596POPC   C4A58878  20.649   0.426   7.364
 4596POPC   C1B58879  20.364   0.528   6.464
 4596POPC   C2B58880  20.390   0.464   6.764
 4596POPC   C3B58881  20.336   0.475   7.064
 4596POPC   C4B58882  20.389   0.472   7.364
 4597POPC   NC358883  35.321  13.609   5.564
 4597POPC   PO458884  35.398  13.632   5.864
 4597POPC   GL158885  35.304  13.671   6.164
 4597POPC   GL258886  35.267  13.524   6.164
 4597POPC   C1A58887  35.354  13.649   6.464
 4597POPC   D2A58888  35.400  13.674   6.764
 4597POPC   C3A58889  35.387  13.617   7.064
 4597POPC   C4A58890  35.355  13.581   7.364
 4597POPC   C1B58891  35.120  13.513   6.464
 4597POPC   C2B58892  35.155  13.513   6.764
 4597POPC   C3B58893  35.120  13.510   7.064
 4597POPC   C4B58894  35.154  13.490   7.364
 4598POPC   NC358895  42.322  10.563   5.564
 4598POPC   PO458896  42.299  10.542   5.864
 4598POPC   GL158897  42.310  10.482   6.164
 4598POPC   GL258898  42.408  10.424   6.164
 4598POPC   C1A58899  42.342  10.555   6.464
 4598POPC   D2A58900  42.292  10.481   6.764
 4598POPC   C3A58901  42.296  10.508   7.064
 4598POPC   C4A58902  42.364  10.515   7.364
 4598POPC   C1B58903  42.534  10.429   6.464
 4598POPC   C2B58904  42.600  10.449   6.764
 4598POPC   C3B58905  42.507  10.407   7.064
 4598POPC   C4B58906  42.582  10.451   7.364
 4599POPC   NC358907   1.190   8.197   5.564
 4599POPC   PO458908   1.197   8.218   5.864
 4599POPC   GL158909   1.193   8.197   6.164
 4599POPC   GL258910   1.208   8.268   6.164
 4599POPC   C1A58911   1.210   8.230   6.464
 4599POPC   D2A58912   1.219   8.207   6.764
 4599POPC   C3A58913   1.254   8.226   7.064
 4599POPC   C4A58914   1.228   8.230   7.364
 4599POPC   C1B58915   1.093   8.448   6.464
 4599POPC   C2B58916   1.136   8.423   6.764
 4599POPC   C3B58917   1.139   8.450   7.064
 4599POPC   C4B58918   1.103   8.392   7.364
 4600POPC   NC358919  21.389  35.330   5.564
 4600POPC   PO458920  21.397  35.349   5.864
 4600POPC   GL158921  21.343  35.340   6.164
 4600POPC   GL258922  21.551  35.410   6.164
 4600POPC   C1A58923  21.342  35.393   6.464
 4600POPC   D2A58924  21.422  35.367   6.764
 4600POPC   C3A58925  21.352  35.331   7.064
 4600POPC   C4A58926  21.341  35.390   7.364
 4600POPC   C1B58927  21.619  35.387   6.464
 4600POPC   C2B58928  21.679  35.402   6.764
 4600POPC   C3B58929  21.658  35.396   7.064
 4600POPC   C4B58930  21.604  35.433   7.364
 4601POPC   NC358931  15.976  24.473   5.564
 4601POPC   PO458932  15.923  24.536   5.864
 4601POPC   GL158933  15.970  24.524   6.164
 4601POPC   GL258934  15.866  24.588   6.164
 4601POPC   C1A58935  16.000  24.533   6.464
 4601POPC   D2A58936  15.996  24.462   6.764
 4601POPC   C3A58937  15.923  24.466   7.064
 4601POPC   C4A58938  15.956  24.503   7.364
 4601POPC   C1B58939  15.702  24.594   6.464
 4601POPC   C2B58940  15.708  24.611   6.764
 4601POPC   C3B58941  15.781  24.600   7.064
 4601POPC   C4B58942  15.771  24.611   7.364
 4602POPC   NC358943  41.582  12.124   5.564
 4602POPC   PO458944  41.577  12.043   5.864
 4602POPC   GL158945  41.594  12.032   6.164
 4602POPC   GL258946  41.658  11.999   6.164
 4602POPC   C1A58947  41.558  12.099   6.464
 4602POPC   D2A58948  41.560  12.079   6.764
 4602POPC   C3A58949  41.593  12.097   7.064
 4602POPC   C4A58950  41.591  12.109   7.364
 4602POPC   C1B58951  41.683  11.855   6.464
 4602POPC   C2B58952  41.695  11.854   6.764
 4602POPC   C3B58953  41.694  11.886   7.064
 4602POPC   C4B58954  41.705  11.886   7.364
 4603POPC   NC358955  16.694  43.075   5.564
 4603POPC   PO458956  16.707  43.159   5.864
 4603POPC   GL158957  16.781  43.142   6.164
 4603POPC   GL258958  16.679  43.222   6.164
 4603POPC   C1A58959  16.702  43.137   6.464
 4603POPC   D2A58960  16.777  43.114   6.764
 4603POPC   C3A58961  16.746  43.104   7.064
 4603POPC   C4A58962  16.704  43.113   7.364
 4603POPC   C1B58963  16.566  43.276   6.464
 4603POPC   C2B58964  16.577  43.270   6.764
 4603POPC   C3B58965  16.578  43.237   7.064
 4603POPC   C4B58966  16.532  43.302   7.364
 4604POPC   NC358967  22.121  17.502   5.564
 4604POPC   PO458968  22.149  17.502   5.864
 4604POPC   GL158969  22.176  17.495   6.164
 4604POPC   GL258970  22.193  17.648   6.164
 4604POPC   C1A58971  22.209  17.493   6.464
 4604POPC   D2A58972  22.187  17.480   6.764
 4604POPC   C3A58973  22.181  17.461   7.064
 4604POPC   C4A58974  22.165  17.548   7.364
 4604POPC   C1B58975  22.209  17.719   6.464
 4604POPC   C2B58976  22.220  17.797   6.764
 4604POPC   C3B58977  22.194  17.733   7.064
 4604POPC   C4B58978  22.215  17.801   7.364
 4605POPC   NC358979  40.805  27.588   5.564
 4605POPC   PO458980  40.787  27.613   5.864
 4605POPC   GL158981  40.785  27.620   6.164
 4605POPC   GL258982  40.877  27.684   6.164
 4605POPC   C1A58983  40.785  27.573   6.464
 4605POPC   D2A58984  40.746  27.573   6.764
 4605POPC   C3A58985  40.758  27.556   7.064
 4605POPC   C4A58986  40.816  27.592   7.364
 4605POPC   C1B58987  40.984  27.791   6.464
 4605POPC   C2B58988  41.001  27.749   6.764
 4605POPC   C3B58989  40.917  27.814   7.064
 4605POPC   C4B58990  40.916  27.733   7.364
 4606POPC   NC358991  30.721   7.459   5.564
 4606POPC   PO458992  30.740   7.429   5.864
 4606POPC   GL158993  30.697   7.384   6.164
 4606POPC   GL258994  30.656   7.462   6.164
 4606POPC   C1A58995  30.711   7.442   6.464
 4606POPC   D2A58996  30.658   7.408   6.764
 4606POPC   C3A58997  30.664   7.410   7.064
 4606POPC   C4A58998  30.715   7.409   7.364
 4606POPC   C1B58999  30.532   7.631   6.464
 4606POPC   C2B59000  30.505   7.638   6.764
 4606POPC   C3B59001  30.501   7.602   7.064
 4606POPC   C4B59002  30.537   7.637   7.364
 4607POPC   NC359003  26.077  11.344   5.564
 4607POPC   PO459004  26.025  11.283   5.864
 4607POPC   GL159005  26.037  11.284   6.164
 4607POPC   GL259006  26.118  11.368   6.164
 4607POPC   C1A59007  25.994  11.295   6.464
 4607POPC   D2A59008  25.994  11.306   6.764
 4607POPC   C3A59009  26.059  11.254   7.064
 4607POPC   C4A59010  25.996  11.261   7.364
 4607POPC   C1B59011  26.219  11.547   6.464
 4607POPC   C2B59012  26.146  11.540   6.764
 4607POPC   C3B59013  26.181  11.474   7.064
 4607POPC   C4B59014  26.197  11.489   7.364
 4608POPC   NC359015  18.290  24.440   5.564
 4608POPC   PO459016  18.290  24.500   5.864
 4608POPC   GL159017  18.271  24.534   6.164
 4608POPC   GL259018  18.364  24.475   6.164
 4608POPC   C1A59019  18.245  24.459   6.464
 4608POPC   D2A59020  18.247  24.461   6.764
 4608POPC   C3A59021  18.235  24.481   7.064
 4608POPC   C4A59022  18.332  24.534   7.364
 4608POPC   C1B59023  18.537  24.450   6.464
 4608POPC   C2B59024  18.484  24.416   6.764
 4608POPC   C3B59025  18.504  24.401   7.064
 4608POPC   C4B59026  18.535  24.387   7.364
 4609POPC   NC359027  15.210  11.316   5.564
 4609POPC   PO459028  15.193  11.328   5.864
 4609POPC   GL159029  15.229  11.320   6.164
 4609POPC   GL259030  15.211  11.156   6.164
 4609POPC   C1A59031  15.206  11.324   6.464
 4609POPC   D2A59032  15.185  11.263   6.764
 4609POPC   C3A59033  15.146  11.338   7.064
 4609POPC   C4A59034  15.206  11.338   7.364
 4609POPC   C1B59035  15.203  11.087   6.464
 4609POPC   C2B59036  15.152  11.093   6.764
 4609POPC   C3B59037  15.185  11.081   7.064
 4609POPC   C4B59038  15.195  11.077   7.364
 4610POPC   NC359039  37.652  22.136   5.564
 4610POPC   PO459040  37.714  22.206   5.864
 4610POPC   GL159041  37.716  22.148   6.164
 4610POPC   GL259042  37.690  22.333   6.164
 4610POPC   C1A59043  37.719  22.159   6.464
 4610POPC   D2A59044  37.722  22.112   6.764
 4610POPC   C3A59045  37.636  22.174   7.064
 4610POPC   C4A59046  37.710  22.119   7.364
 4610POPC   C1B59047  37.714  22.391   6.464
 4610POPC   C2B59048  37.669  22.383   6.764
 4610POPC   C3B59049  37.696  22.382   7.064
 4610POPC   C4B59050  37.714  22.389   7.364
 4611POPC   NC359051  26.792   5.063   5.564
 4611POPC   PO459052  26.808   5.122   5.864
 4611POPC   GL159053  26.821   5.115   6.164
 4611POPC   GL259054  26.650   5.144   6.164
 4611POPC   C1A59055  26.794   5.069   6.464
 4611POPC   D2A59056  26.820   5.048   6.764
 4611POPC   C3A59057  26.802   5.069   7.064
 4611POPC   C4A59058  26.800   5.051   7.364
 4611POPC   C1B59059  26.564   5.086   6.464
 4611POPC   C2B59060  26.537   5.096   6.764
 4611POPC   C3B59061  26.583   5.161   7.064
 4611POPC   C4B59062  26.612   5.081   7.364
 4612POPC   NC359063  33.810   0.457   5.564
 4612POPC   PO459064  33.842   0.418   5.864
 4612POPC   GL159065  33.760   0.437   6.164
 4612POPC   GL259066  33.860   0.360   6.164
 4612POPC   C1A59067  33.763   0.454   6.464
 4612POPC   D2A59068  33.786   0.419   6.764
 4612POPC   C3A59069  33.837   0.436   7.064
 4612POPC   C4A59070  33.781   0.400   7.364
 4612POPC   C1B59071  33.969   0.292   6.464
 4612POPC   C2B59072  34.006   0.257   6.764
 4612POPC   C3B59073  33.946   0.261   7.064
 4612POPC   C4B59074  34.015   0.299   7.364
 4613POPC   NC359075  13.648   1.257   5.564
 4613POPC   PO459076  13.581   1.170   5.864
 4613POPC   GL159077  13.660   1.171   6.164
 4613POPC   GL259078  13.609   1.376   6.164
 4613POPC   C1A59079  13.618   1.249   6.464
 4613POPC   D2A59080  13.601   1.193   6.764
 4613POPC   C3A59081  13.606   1.202   7.064
 4613POPC   C4A59082  13.633   1.167   7.364
 4613POPC   C1B59083  13.600   1.449   6.464
 4613POPC   C2B59084  13.614   1.483   6.764
 4613POPC   C3B59085  13.672   1.491   7.064
 4613POPC   C4B59086  13.601   1.455   7.364
 4614POPC   NC359087   0.431  13.585   5.564
 4614POPC   PO459088   0.416  13.646   5.864
 4614POPC   GL159089   0.481  13.598   6.164
 4614POPC   GL259090   0.587  13.657   6.164
 4614POPC   C1A59091   0.450  13.673   6.464
 4614POPC   D2A59092   0.447  13.636   6.764
 4614POPC   C3A59093   0.438  13.675   7.064
 4614POPC   C4A59094   0.448  13.645   7.364
 4614POPC   C1B59095   0.688  13.742   6.464
 4614POPC   C2B59096   0.684  13.773   6.764
 4614POPC   C3B59097   0.636  13.805   7.064
 4614POPC   C4B59098   0.668  13.802   7.364
 4615POPC   NC359099   1.970   8.165   5.564
 4615POPC   PO459100   2.003   8.166   5.864
 4615POPC   GL159101   1.985   8.233   6.164
 4615POPC   GL259102   2.044   8.123   6.164
 4615POPC   C1A59103   2.012   8.166   6.464
 4615POPC   D2A59104   1.974   8.225   6.764
 4615POPC   C3A59105   1.967   8.196   7.064
 4615POPC   C4A59106   2.037   8.246   7.364
 4615POPC   C1B59107   2.160   8.063   6.464
 4615POPC   C2B59108   2.151   7.993   6.764
 4615POPC   C3B59109   2.166   7.992   7.064
 4615POPC   C4B59110   2.143   8.049   7.364
 4616POPC   NC359111  37.658   8.182   5.564
 4616POPC   PO459112  37.692   8.176   5.864
 4616POPC   GL159113  37.655   8.210   6.164
 4616POPC   GL259114  37.690   8.272   6.164
 4616POPC   C1A59115  37.655   8.153   6.464
 4616POPC   D2A59116  37.632   8.231   6.764
 4616POPC   C3A59117  37.673   8.164   7.064
 4616POPC   C4A59118  37.721   8.240   7.364
 4616POPC   C1B59119  37.573   8.406   6.464
 4616POPC   C2B59120  37.664   8.407   6.764
 4616POPC   C3B59121  37.633   8.392   7.064
 4616POPC   C4B59122  37.588   8.440   7.364
 4617POPC   NC359123  19.048  26.830   5.564
 4617POPC   PO459124  19.048  26.821   5.864
 4617POPC   GL159125  19.031  26.825   6.164
 4617POPC   GL259126  18.917  26.761   6.164
 4617POPC   C1A59127  19.105  26.802   6.464
 4617POPC   D2A59128  19.039  26.788   6.764
 4617POPC   C3A59129  19.074  26.837   7.064
 4617POPC   C4A59130  19.012  26.785   7.364
 4617POPC   C1B59131  18.835  26.773   6.464
 4617POPC   C2B59132  18.853  26.804   6.764
 4617POPC   C3B59133  18.848  26.748   7.064
 4617POPC   C4B59134  18.831  26.773   7.364
 4618POPC   NC359135   0.466   4.274   5.564
 4618POPC   PO459136   0.438   4.269   5.864
 4618POPC   GL159137   0.433   4.271   6.164
 4618POPC   GL259138   0.543   4.435   6.164
 4618POPC   C1A59139   0.463   4.327   6.464
 4618POPC   D2A59140   0.470   4.302   6.764
 4618POPC   C3A59141   0.471   4.328   7.064
 4618POPC   C4A59142   0.473   4.295   7.364
 4618POPC   C1B59143   0.519   4.512   6.464
 4618POPC   C2B59144   0.527   4.514   6.764
 4618POPC   C3B59145   0.532   4.533   7.064
 4618POPC   C4B59146   0.561   4.492   7.364
 4619POPC   NC359147  24.510  24.520   5.564
 4619POPC   PO459148  24.452  24.474   5.864
 4619POPC   GL159149  24.454  24.498   6.164
 4619POPC   GL259150  24.632  24.406   6.164
 4619POPC   C1A59151  24.479  24.517   6.464
 4619POPC   D2A59152  24.456  24.522   6.764
 4619POPC   C3A59153  24.457  24.466   7.064
 4619POPC   C4A59154  24.485  24.530   7.364
 4619POPC   C1B59155  24.655  24.303   6.464
 4619POPC   C2B59156  24.703  24.290   6.764
 4619POPC   C3B59157  24.644  24.363   7.064
 4619POPC   C4B59158  24.637  24.335   7.364
 4620POPC   NC359159   2.773  42.323   5.564
 4620POPC   PO459160   2.779  42.353   5.864
 4620POPC   GL159161   2.773  42.302   6.164
 4620POPC   GL259162   2.853  42.427   6.164
 4620POPC   C1A59163   2.749  42.323   6.464
 4620POPC   D2A59164   2.763  42.322   6.764
 4620POPC   C3A59165   2.808  42.325   7.064
 4620POPC   C4A59166   2.739  42.352   7.364
 4620POPC   C1B59167   2.863  42.539   6.464
 4620POPC   C2B59168   2.868  42.590   6.764
 4620POPC   C3B59169   2.873  42.531   7.064
 4620POPC   C4B59170   2.893  42.531   7.364
 4621POPC   NC359171  44.665  38.410   5.564
 4621POPC   PO459172  44.613  38.496   5.864
 4621POPC   GL159173  44.621  38.453   6.164
 4621POPC   GL259174  44.773  38.356   6.164
 4621POPC   C1A59175  44.653  38.491   6.464
 4621POPC   D2A59176  44.622  38.450   6.764
 4621POPC   C3A59177  44.614  38.454   7.064
 4621POPC   C4A59178  44.653  38.471   7.364
 4621POPC   C1B59179  44.809  38.213   6.464
 4621POPC   C2B59180  44.782  38.298   6.764
 4621POPC   C3B59181  44.863  38.226   7.064
 4621POPC   C4B59182  44.868  38.301   7.364
 4622POPC   NC359183  27.614  38.482   5.564
 4622POPC   PO459184  27.571  38.443   5.864
 4622POPC   GL159185  27.569  38.474   6.164
 4622POPC   GL259186  27.694  38.416   6.164
 4622POPC   C1A59187  27.564  38.453   6.464
 4622POPC   D2A59188  27.581  38.418   6.764
 4622POPC   C3A59189  27.547  38.482   7.064
 4622POPC   C4A59190  27.619  38.449   7.364
 4622POPC   C1B59191  27.846  38.371   6.464
 4622POPC   C2B59192  27.837  38.407   6.764
 4622POPC   C3B59193  27.847  38.362   7.064
 4622POPC   C4B59194  27.831  38.453   7.364
 4623POPC   NC359195  30.678  29.133   5.564
 4623POPC   PO459196  30.725  29.148   5.864
 4623POPC   GL159197  30.705  29.172   6.164
 4623POPC   GL259198  30.646  29.198   6.164
 4623POPC   C1A59199  30.647  29.135   6.464
 4623POPC   D2A59200  30.735  29.143   6.764
 4623POPC   C3A59201  30.650  29.095   7.064
 4623POPC   C4A59202  30.714  29.142   7.364
 4623POPC   C1B59203  30.535  29.255   6.464
 4623POPC   C2B59204  30.454  29.260   6.764
 4623POPC   C3B59205  30.526  29.326   7.064
 4623POPC   C4B59206  30.534  29.336   7.364
 4624POPC   NC359207  31.521  26.038   5.564
 4624POPC   PO459208  31.471  26.080   5.864
 4624POPC   GL159209  31.501  26.020   6.164
 4624POPC   GL259210  31.354  25.961   6.164
 4624POPC   C1A59211  31.436  26.008   6.464
 4624POPC   D2A59212  31.488  26.020   6.764
 4624POPC   C3A59213  31.520  26.028   7.064
 4624POPC   C4A59214  31.438  26.090   7.364
 4624POPC   C1B59215  31.300  25.934   6.464
 4624POPC   C2B59216  31.269  25.888   6.764
 4624POPC   C3B59217  31.261  25.871   7.064
 4624POPC   C4B59218  31.296  25.928   7.364
 4625POPC   NC359219  44.670  12.114   5.564
 4625POPC   PO459220  44.691  12.068   5.864
 4625POPC   GL159221  44.674  12.037   6.164
 4625POPC   GL259222  44.675  12.203   6.164
 4625POPC   C1A59223  44.684  12.076   6.464
 4625POPC   D2A59224  44.706  12.074   6.764
 4625POPC   C3A59225  44.647  12.054   7.064
 4625POPC   C4A59226  44.658  12.040   7.364
 4625POPC   C1B59227  44.792  12.317   6.464
 4625POPC   C2B59228  44.754  12.315   6.764
 4625POPC   C3B59229  44.745  12.274   7.064
 4625POPC   C4B59230  44.798  12.320   7.364
 4626POPC   NC359231   5.827  23.732   5.564
 4626POPC   PO459232   5.863  23.715   5.864
 4626POPC   GL159233   5.883  23.666   6.164
 4626POPC   GL259234   5.736  23.798   6.164
 4626POPC   C1A59235   5.897  23.746   6.464
 4626POPC   D2A59236   5.832  23.726   6.764
 4626POPC   C3A59237   5.888  23.742   7.064
 4626POPC   C4A59238   5.828  23.752   7.364
 4626POPC   C1B59239   5.720  23.850   6.464
 4626POPC   C2B59240   5.661  23.855   6.764
 4626POPC   C3B59241   5.702  23.923   7.064
 4626POPC   C4B59242   5.669  23.870   7.364
 4627POPC   NC359243  38.440  26.810   5.564
 4627POPC   PO459244  38.429  26.810   5.864
 4627POPC   GL159245  38.490  26.784   6.164
 4627POPC   GL259246  38.596  26.885   6.164
 4627POPC   C1A59247  38.501  26.818   6.464
 4627POPC   D2A59248  38.450  26.801   6.764
 4627POPC   C3A59249  38.412  26.809   7.064
 4627POPC   C4A59250  38.413  26.817   7.364
 4627POPC   C1B59251  38.688  26.887   6.464
 4627POPC   C2B59252  38.657  26.892   6.764
 4627POPC   C3B59253  38.717  26.933   7.064
 4627POPC   C4B59254  38.669  26.952   7.364
 4628POPC   NC359255  22.181   3.506   5.564
 4628POPC   PO459256  22.210   3.569   5.864
 4628POPC   GL159257  22.147   3.526   6.164
 4628POPC   GL259258  22.131   3.456   6.164
 4628POPC   C1A59259  22.201   3.581   6.464
 4628POPC   D2A59260  22.167   3.498   6.764
 4628POPC   C3A59261  22.200   3.588   7.064
 4628POPC   C4A59262  22.135   3.549   7.364
 4628POPC   C1B59263  21.990   3.304   6.464
 4628POPC   C2B59264  22.027   3.387   6.764
 4628POPC   C3B59265  22.000   3.319   7.064
 4628POPC   C4B59266  22.025   3.344   7.364
 4629POPC   NC359267  32.224  29.896   5.564
 4629POPC   PO459268  32.230  29.964   5.864
 4629POPC   GL159269  32.245  29.879   6.164
 4629POPC   GL259270  32.245  30.021   6.164
 4629POPC   C1A59271  32.202  29.889   6.464
 4629POPC   D2A59272  32.226  29.927   6.764
 4629POPC   C3A59273  32.262  29.948   7.064
 4629POPC   C4A59274  32.244  29.966   7.364
 4629POPC   C1B59275  32.168  30.142   6.464
 4629POPC   C2B59276  32.161  30.115   6.764
 4629POPC   C3B59277  32.115  30.175   7.064
 4629POPC   C4B59278  32.154  30.157   7.364
 4630POPC   NC359279  16.727  36.948   5.564
 4630POPC   PO459280  16.775  36.921   5.864
 4630POPC   GL159281  16.762  36.942   6.164
 4630POPC   GL259282  16.827  36.903   6.164
 4630POPC   C1A59283  16.778  36.929   6.464
 4630POPC   D2A59284  16.693  36.863   6.764
 4630POPC   C3A59285  16.729  36.881   7.064
 4630POPC   C4A59286  16.745  36.863   7.364
 4630POPC   C1B59287  16.969  37.008   6.464
 4630POPC   C2B59288  16.949  36.955   6.764
 4630POPC   C3B59289  16.941  37.020   7.064
 4630POPC   C4B59290  16.961  36.947   7.364
 4631POPC   NC359291  25.268   3.563   5.564
 4631POPC   PO459292  25.292   3.495   5.864
 4631POPC   GL159293  25.268   3.520   6.164
 4631POPC   GL259294  25.276   3.421   6.164
 4631POPC   C1A59295  25.271   3.506   6.464
 4631POPC   D2A59296  25.240   3.515   6.764
 4631POPC   C3A59297  25.249   3.548   7.064
 4631POPC   C4A59298  25.250   3.550   7.364
 4631POPC   C1B59299  25.142   3.345   6.464
 4631POPC   C2B59300  25.218   3.287   6.764
 4631POPC   C3B59301  25.207   3.283   7.064
 4631POPC   C4B59302  25.204   3.337   7.364
 4632POPC   NC359303  33.812   5.065   5.564
 4632POPC   PO459304  33.835   5.059   5.864
 4632POPC   GL159305  33.758   5.119   6.164
 4632POPC   GL259306  33.767   4.956   6.164
 4632POPC   C1A59307  33.812   5.097   6.464
 4632POPC   D2A59308  33.758   5.114   6.764
 4632POPC   C3A59309  33.763   5.110   7.064
 4632POPC   C4A59310  33.818   5.056   7.364
 4632POPC   C1B59311  33.704   4.818   6.464
 4632POPC   C2B59312  33.742   4.881   6.764
 4632POPC   C3B59313  33.709   4.811   7.064
 4632POPC   C4B59314  33.761   4.886   7.364
 4633POPC   NC359315  22.894  25.243   5.564
 4633POPC   PO459316  22.903  25.312   5.864
 4633POPC   GL159317  22.952  25.228   6.164
 4633POPC   GL259318  23.096  25.227   6.164
 4633POPC   C1A59319  22.963  25.226   6.464
 4633POPC   D2A59320  22.908  25.290   6.764
 4633POPC   C3A59321  22.925  25.224   7.064
 4633POPC   C4A59322  22.942  25.311   7.364
 4633POPC   C1B59323  23.218  25.191   6.464
 4633POPC   C2B59324  23.147  25.206   6.764
 4633POPC   C3B59325  23.124  25.166   7.064
 4633POPC   C4B59326  23.153  25.187   7.364
 4634POPC   NC359327   6.665  26.815   5.564
 4634POPC   PO459328   6.687  26.839   5.864
 4634POPC   GL159329   6.640  26.839   6.164
 4634POPC   GL259330   6.693  26.691   6.164
 4634POPC   C1A59331   6.691  26.779   6.464
 4634POPC   D2A59332   6.672  26.853   6.764
 4634POPC   C3A59333   6.624  26.816   7.064
 4634POPC   C4A59334   6.670  26.784   7.364
 4634POPC   C1B59335   6.688  26.571   6.464
 4634POPC   C2B59336   6.724  26.577   6.764
 4634POPC   C3B59337   6.671  26.611   7.064
 4634POPC   C4B59338   6.679  26.582   7.364
 4635POPC   NC359339  33.054  22.981   5.564
 4635POPC   PO459340  33.051  22.913   5.864
 4635POPC   GL159341  33.003  22.964   6.164
 4635POPC   GL259342  33.057  23.023   6.164
 4635POPC   C1A59343  33.060  22.957   6.464
 4635POPC   D2A59344  32.988  22.961   6.764
 4635POPC   C3A59345  33.045  22.892   7.064
 4635POPC   C4A59346  32.980  22.941   7.364
 4635POPC   C1B59347  33.091  23.138   6.464
 4635POPC   C2B59348  33.078  23.139   6.764
 4635POPC   C3B59349  33.073  23.161   7.064
 4635POPC   C4B59350  33.094  23.171   7.364
 4636POPC   NC359351   8.185  42.364   5.564
 4636POPC   PO459352   8.203  42.351   5.864
 4636POPC   GL159353   8.218  42.351   6.164
 4636POPC   GL259354   8.307  42.211   6.164
 4636POPC   C1A59355   8.162  42.360   6.464
 4636POPC   D2A59356   8.221  42.370   6.764
 4636POPC   C3A59357   8.230  42.298   7.064
 4636POPC   C4A59358   8.219  42.301   7.364
 4636POPC   C1B59359   8.352  42.193   6.464
 4636POPC   C2B59360   8.325  42.208   6.764
 4636POPC   C3B59361   8.385  42.136   7.064
 4636POPC   C4B59362   8.411  42.138   7.364
 4637POPC   NC359363   5.902  40.746   5.564
 4637POPC   PO459364   5.901  40.747   5.864
 4637POPC   GL159365   5.912  40.778   6.164
 4637POPC   GL259366   5.769  40.898   6.164
 4637POPC   C1A59367   5.897  40.778   6.464
 4637POPC   D2A59368   5.825  40.830   6.764
 4637POPC   C3A59369   5.893  40.803   7.064
 4637POPC   C4A59370   5.834  40.804   7.364
 4637POPC   C1B59371   5.757  41.025   6.464
 4637POPC   C2B59372   5.710  40.992   6.764
 4637POPC   C3B59373   5.710  40.967   7.064
 4637POPC   C4B59374   5.708  41.016   7.364
 4638POPC   NC359375  32.292  17.490   5.564
 4638POPC   PO459376  32.246  17.534   5.864
 4638POPC   GL159377  32.246  17.493   6.164
 4638POPC   GL259378  32.195  17.664   6.164
 4638POPC   C1A59379  32.216  17.511   6.464
 4638POPC   D2A59380  32.277  17.532   6.764
 4638POPC   C3A59381  32.274  17.519   7.064
 4638POPC   C4A59382  32.207  17.476   7.364
 4638POPC   C1B59383  32.247  17.792   6.464
 4638POPC   C2B59384  32.236  17.720   6.764
 4638POPC   C3B59385  32.205  17.742   7.064
 4638POPC   C4B59386  32.221  17.777   7.364
 4639POPC   NC359387  27.570  16.743   5.564
 4639POPC   PO459388  27.562  16.748   5.864
 4639POPC   GL159389  27.590  16.723   6.164
 4639POPC   GL259390  27.727  16.803   6.164
 4639POPC   C1A59391  27.615  16.778   6.464
 4639POPC   D2A59392  27.558  16.742   6.764
 4639POPC   C3A59393  27.591  16.704   7.064
 4639POPC   C4A59394  27.604  16.769   7.364
 4639POPC   C1B59395  27.877  16.730   6.464
 4639POPC   C2B59396  27.807  16.797   6.764
 4639POPC   C3B59397  27.863  16.774   7.064
 4639POPC   C4B59398  27.798  16.798   7.364
 4640POPC   NC359399  18.303  19.858   5.564
 4640POPC   PO459400  18.276  19.828   5.864
 4640POPC   GL159401  18.256  19.872   6.164
 4640POPC   GL259402  18.199  19.768   6.164
 4640POPC   C1A59403  18.256  19.814   6.464
 4640POPC   D2A59404  18.287  19.803   6.764
 4640POPC   C3A59405  18.315  19.868   7.064
 4640POPC   C4A59406  18.322  19.815   7.364
 4640POPC   C1B59407  18.018  19.717   6.464
 4640POPC   C2B59408  18.078  19.768   6.764
 4640POPC   C3B59409  18.025  19.724   7.064
 4640POPC   C4B59410  18.056  19.774   7.364
 4641POPC   NC359411  19.855  40.829   5.564
 4641POPC   PO459412  19.860  40.759   5.864
 4641POPC   GL159413  19.806  40.742   6.164
 4641POPC   GL259414  19.920  40.721   6.164
 4641POPC   C1A59415  19.812  40.755   6.464
 4641POPC   D2A59416  19.793  40.820   6.764
 4641POPC   C3A59417  19.810  40.742   7.064
 4641POPC   C4A59418  19.788  40.816   7.364
 4641POPC   C1B59419  20.034  40.734   6.464
 4641POPC   C2B59420  20.095  40.693   6.764
 4641POPC   C3B59421  20.081  40.686   7.064
 4641POPC   C4B59422  20.128  40.690   7.364
 4642POPC   NC359423  28.401  15.188   5.564
 4642POPC   PO459424  28.321  15.208   5.864
 4642POPC   GL159425  28.361  15.204   6.164
 4642POPC   GL259426  28.429  15.303   6.164
 4642POPC   C1A59427  28.352  15.158   6.464
 4642POPC   D2A59428  28.327  15.219   6.764
 4642POPC   C3A59429  28.396  15.186   7.064
 4642POPC   C4A59430  28.324  15.176   7.364
 4642POPC   C1B59431  28.377  15.413   6.464
 4642POPC   C2B59432  28.356  15.441   6.764
 4642POPC   C3B59433  28.398  15.478   7.064
 4642POPC   C4B59434  28.405  15.383   7.364
 4643POPC   NC359435   3.561  29.115   5.564
 4643POPC   PO459436   3.532  29.159   5.864
 4643POPC   GL159437   3.504  29.119   6.164
 4643POPC   GL259438   3.638  29.230   6.164
 4643POPC   C1A59439   3.561  29.182   6.464
 4643POPC   D2A59440   3.495  29.157   6.764
 4643POPC   C3A59441   3.522  29.171   7.064
 4643POPC   C4A59442   3.493  29.151   7.364
 4643POPC   C1B59443   3.652  29.375   6.464
 4643POPC   C2B59444   3.673  29.409   6.764
 4643POPC   C3B59445   3.623  29.406   7.064
 4643POPC   C4B59446   3.617  29.348   7.364
 4644POPC   NC359447   1.987  38.438   5.564
 4644POPC   PO459448   2.019  38.503   5.864
 4644POPC   GL159449   1.990  38.412   6.164
 4644POPC   GL259450   2.107  38.347   6.164
 4644POPC   C1A59451   1.949  38.469   6.464
 4644POPC   D2A59452   1.988  38.487   6.764
 4644POPC   C3A59453   1.957  38.463   7.064
 4644POPC   C4A59454   1.952  38.422   7.364
 4644POPC   C1B59455   2.222  38.284   6.464
 4644POPC   C2B59456   2.152  38.260   6.764
 4644POPC   C3B59457   2.166  38.265   7.064
 4644POPC   C4B59458   2.216  38.277   7.364
 4645POPC   NC359459  32.221   6.667   5.564
 4645POPC   PO459460  32.297   6.620   5.864
 4645POPC   GL159461  32.243   6.674   6.164
 4645POPC   GL259462  32.404   6.639   6.164
 4645POPC   C1A59463  32.285   6.666   6.464
 4645POPC   D2A59464  32.294   6.642   6.764
 4645POPC   C3A59465  32.202   6.675   7.064
 4645POPC   C4A59466  32.269   6.693   7.364
 4645POPC   C1B59467  32.513   6.685   6.464
 4645POPC   C2B59468  32.476   6.690   6.764
 4645POPC   C3B59469  32.468   6.627   7.064
 4645POPC   C4B59470  32.528   6.697   7.364
 4646POPC   NC359471   8.983  19.871   5.564
 4646POPC   PO459472   8.981  19.871   5.864
 4646POPC   GL159473   9.009  19.806   6.164
 4646POPC   GL259474   9.082  19.933   6.164
 4646POPC   C1A59475   9.007  19.836   6.464
 4646POPC   D2A59476   8.925  19.822   6.764
 4646POPC   C3A59477   9.003  19.833   7.064
 4646POPC   C4A59478   8.944  19.847   7.364
 4646POPC   C1B59479   9.189  19.961   6.464
 4646POPC   C2B59480   9.201  19.990   6.764
 4646POPC   C3B59481   9.216  19.980   7.064
 4646POPC   C4B59482   9.171  20.007   7.364
 4647POPC   NC359483  19.847  20.625   5.564
 4647POPC   PO459484  19.882  20.575   5.864
 4647POPC   GL159485  19.872  20.655   6.164
 4647POPC   GL259486  19.877  20.460   6.164
 4647POPC   C1A59487  19.844  20.566   6.464
 4647POPC   D2A59488  19.869  20.584   6.764
 4647POPC   C3A59489  19.809  20.622   7.064
 4647POPC   C4A59490  19.853  20.600   7.364
 4647POPC   C1B59491  19.932  20.364   6.464
 4647POPC   C2B59492  19.887  20.329   6.764
 4647POPC   C3B59493  19.948  20.351   7.064
 4647POPC   C4B59494  19.870  20.340   7.364
 4648POPC   NC359495  20.625  22.971   5.564
 4648POPC   PO459496  20.599  22.973   5.864
 4648POPC   GL159497  20.620  22.897   6.164
 4648POPC   GL259498  20.597  23.039   6.164
 4648POPC   C1A59499  20.646  22.938   6.464
 4648POPC   D2A59500  20.640  22.902   6.764
 4648POPC   C3A59501  20.590  22.901   7.064
 4648POPC   C4A59502  20.620  22.942   7.364
 4648POPC   C1B59503  20.537  23.199   6.464
 4648POPC   C2B59504  20.456  23.193   6.764
 4648POPC   C3B59505  20.538  23.114   7.064
 4648POPC   C4B59506  20.511  23.196   7.364
 4649POPC   NC359507  44.616  17.493   5.564
 4649POPC   PO459508  44.649  17.535   5.864
 4649POPC   GL159509  44.660  17.457   6.164
 4649POPC   GL259510  44.831  17.553   6.164
 4649POPC   C1A59511  44.664  17.554   6.464
 4649POPC   D2A59512  44.624  17.489   6.764
 4649POPC   C3A59513  44.622  17.515   7.064
 4649POPC   C4A59514  44.711  17.476   7.364
 4649POPC   C1B59515  44.879  17.488   6.464
 4649POPC   C2B59516  44.947  17.530   6.764
 4649POPC   C3B59517  44.863  17.481   7.064
 4649POPC   C4B59518  44.939  17.518   7.364
 4650POPC   NC359519  33.021   1.217   5.564
 4650POPC   PO459520  33.007   1.227   5.864
 4650POPC   GL159521  33.050   1.188   6.164
 4650POPC   GL259522  33.096   1.136   6.164
 4650POPC   C1A59523  33.044   1.178   6.464
 4650POPC   D2A59524  32.995   1.202   6.764
 4650POPC   C3A59525  32.979   1.243   7.064
 4650POPC   C4A59526  33.044   1.247   7.364
 4650POPC   C1B59527  33.044   0.935   6.464
 4650POPC   C2B59528  33.037   0.932   6.764
 4650POPC   C3B59529  33.109   0.921   7.064
 4650POPC   C4B59530  33.089   0.969   7.364
 4651POPC   NC359531  23.724   9.755   5.564
 4651POPC   PO459532  23.761   9.791   5.864
 4651POPC   GL159533  23.718   9.704   6.164
 4651POPC   GL259534  23.575   9.727   6.164
 4651POPC   C1A59535  23.756   9.793   6.464
 4651POPC   D2A59536  23.734   9.719   6.764
 4651POPC   C3A59537  23.680   9.731   7.064
 4651POPC   C4A59538  23.698   9.753   7.364
 4651POPC   C1B59539  23.494   9.703   6.464
 4651POPC   C2B59540  23.506   9.741   6.764
 4651POPC   C3B59541  23.434   9.753   7.064
 4651POPC   C4B59542  23.428   9.706   7.364
 4652POPC   NC359543  14.374  39.260   5.564
 4652POPC   PO459544  14.389  39.259   5.864
 4652POPC   GL159545  14.393  39.270   6.164
 4652POPC   GL259546  14.276  39.165   6.164
 4652POPC   C1A59547  14.418  39.192   6.464
 4652POPC   D2A59548  14.374  39.270   6.764
 4652POPC   C3A59549  14.354  39.259   7.064
 4652POPC   C4A59550  14.424  39.226   7.364
 4652POPC   C1B59551  14.132  39.185   6.464
 4652POPC   C2B59552  14.171  39.210   6.764
 4652POPC   C3B59553  14.170  39.133   7.064
 4652POPC   C4B59554  14.160  39.158   7.364
 4653POPC   NC359555   5.049  25.226   5.564
 4653POPC   PO459556   5.141  25.302   5.864
 4653POPC   GL159557   5.073  25.264   6.164
 4653POPC   GL259558   4.979  25.256   6.164
 4653POPC   C1A59559   5.125  25.312   6.464
 4653POPC   D2A59560   5.119  25.238   6.764
 4653POPC   C3A59561   5.130  25.251   7.064
 4653POPC   C4A59562   5.116  25.222   7.364
 4653POPC   C1B59563   4.806  25.390   6.464
 4653POPC   C2B59564   4.834  25.318   6.764
 4653POPC   C3B59565   4.854  25.384   7.064
 4653POPC   C4B59566   4.845  25.312   7.364
 4654POPC   NC359567   2.017  31.499   5.564
 4654POPC   PO459568   1.948  31.450   5.864
 4654POPC   GL159569   2.029  31.452   6.164
 4654POPC   GL259570   1.914  31.323   6.164
 4654POPC   C1A59571   1.951  31.457   6.464
 4654POPC   D2A59572   1.950  31.512   6.764
 4654POPC   C3A59573   1.999  31.470   7.064
 4654POPC   C4A59574   2.012  31.423   7.364
 4654POPC   C1B59575   1.885  31.260   6.464
 4654POPC   C2B59576   1.830  31.208   6.764
 4654POPC   C3B59577   1.901  31.215   7.064
 4654POPC   C4B59578   1.831  31.235   7.364
 4655POPC   NC359579  39.970  25.265   5.564
 4655POPC   PO459580  39.961  25.281   5.864
 4655POPC   GL159581  40.024  25.266   6.164
 4655POPC   GL259582  40.049  25.375   6.164
 4655POPC   C1A59583  40.044  25.225   6.464
 4655POPC   D2A59584  40.004  25.296   6.764
 4655POPC   C3A59585  39.993  25.291   7.064
 4655POPC   C4A59586  40.052  25.228   7.364
 4655POPC   C1B59587  40.162  25.472   6.464
 4655POPC   C2B59588  40.121  25.442   6.764
 4655POPC   C3B59589  40.149  25.442   7.064
 4655POPC   C4B59590  40.165  25.452   7.364
 4656POPC   NC359591   6.636  10.532   5.564
 4656POPC   PO459592   6.615  10.513   5.864
 4656POPC   GL159593   6.634  10.518   6.164
 4656POPC   GL259594   6.767  10.618   6.164
 4656POPC   C1A59595   6.659  10.555   6.464
 4656POPC   D2A59596   6.626  10.497   6.764
 4656POPC   C3A59597   6.668  10.486   7.064
 4656POPC   C4A59598   6.645  10.571   7.364
 4656POPC   C1B59599   6.880  10.617   6.464
 4656POPC   C2B59600   6.819  10.685   6.764
 4656POPC   C3B59601   6.835  10.650   7.064
 4656POPC   C4B59602   6.875  10.651   7.364
 4657POPC   NC359603  33.803  26.824   5.564
 4657POPC   PO459604  33.798  26.776   5.864
 4657POPC   GL159605  33.828  26.813   6.164
 4657POPC   GL259606  33.741  26.690   6.164
 4657POPC   C1A59607  33.795  26.783   6.464
 4657POPC   D2A59608  33.761  26.845   6.764
 4657POPC   C3A59609  33.786  26.848   7.064
 4657POPC   C4A59610  33.845  26.787   7.364
 4657POPC   C1B59611  33.791  26.541   6.464
 4657POPC   C2B59612  33.737  26.610   6.764
 4657POPC   C3B59613  33.772  26.566   7.064
 4657POPC   C4B59614  33.748  26.561   7.364
 4658POPC   NC359615   3.556  39.996   5.564
 4658POPC   PO459616   3.573  40.006   5.864
 4658POPC   GL159617   3.558  40.048   6.164
 4658POPC   GL259618   3.411  40.134   6.164
 4658POPC   C1A59619   3.499  39.986   6.464
 4658POPC   D2A59620   3.495  40.046   6.764
 4658POPC   C3A59621   3.578  39.991   7.064
 4658POPC   C4A59622   3.499  40.053   7.364
 4658POPC   C1B59623   3.361  40.125   6.464
 4658POPC   C2B59624   3.375  40.204   6.764
 4658POPC   C3B59625   3.361  40.131   7.064
 4658POPC   C4B59626   3.359  40.178   7.364
 4659POPC   NC359627  26.786   2.811   5.564
 4659POPC   PO459628  26.854   2.779   5.864
 4659POPC   GL159629  26.828   2.784   6.164
 4659POPC   GL259630  26.694   2.817   6.164
 4659POPC   C1A59631  26.844   2.807   6.464
 4659POPC   D2A59632  26.801   2.747   6.764
 4659POPC   C3A59633  26.796   2.802   7.064
 4659POPC   C4A59634  26.862   2.768   7.364
 4659POPC   C1B59635  26.606   2.824   6.464
 4659POPC   C2B59636  26.580   2.893   6.764
 4659POPC   C3B59637  26.556   2.862   7.064
 4659POPC   C4B59638  26.571   2.845   7.364
 4660POPC   NC359639  42.285  38.430   5.564
 4660POPC   PO459640  42.339  38.503   5.864
 4660POPC   GL159641  42.359  38.428   6.164
 4660POPC   GL259642  42.362  38.589   6.164
 4660POPC   C1A59643  42.338  38.420   6.464
 4660POPC   D2A59644  42.304  38.469   6.764
 4660POPC   C3A59645  42.329  38.496   7.064
 4660POPC   C4A59646  42.326  38.450   7.364
 4660POPC   C1B59647  42.331  38.738   6.464
 4660POPC   C2B59648  42.382  38.719   6.764
 4660POPC   C3B59649  42.370  38.727   7.064
 4660POPC   C4B59650  42.311  38.746   7.364
 4661POPC   NC359651   0.449   8.185   5.564
 4661POPC   PO459652   0.440   8.232   5.864
 4661POPC   GL159653   0.391   8.200   6.164
 4661POPC   GL259654   0.386   8.025   6.164
 4661POPC   C1A59655   0.469   8.169   6.464
 4661POPC   D2A59656   0.465   8.227   6.764
 4661POPC   C3A59657   0.429   8.242   7.064
 4661POPC   C4A59658   0.393   8.161   7.364
 4661POPC   C1B59659   0.418   7.956   6.464
 4661POPC   C2B59660   0.401   7.996   6.764
 4661POPC   C3B59661   0.364   7.967   7.064
 4661POPC   C4B59662   0.365   7.922   7.364
 4662POPC   NC359663  15.169  21.347   5.564
 4662POPC   PO459664  15.182  21.352   5.864
 4662POPC   GL159665  15.163  21.376   6.164
 4662POPC   GL259666  15.140  21.517   6.164
 4662POPC   C1A59667  15.167  21.390   6.464
 4662POPC   D2A59668  15.229  21.356   6.764
 4662POPC   C3A59669  15.207  21.425   7.064
 4662POPC   C4A59670  15.177  21.352   7.364
 4662POPC   C1B59671  15.160  21.612   6.464
 4662POPC   C2B59672  15.209  21.605   6.764
 4662POPC   C3B59673  15.200  21.660   7.064
 4662POPC   C4B59674  15.170  21.685   7.364
 4663POPC   NC359675  40.803  23.737   5.564
 4663POPC   PO459676  40.805  23.721   5.864
 4663POPC   GL159677  40.814  23.674   6.164
 4663POPC   GL259678  40.724  23.789   6.164
 4663POPC   C1A59679  40.796  23.758   6.464
 4663POPC   D2A59680  40.763  23.749   6.764
 4663POPC   C3A59681  40.735  23.696   7.064
 4663POPC   C4A59682  40.818  23.690   7.364
 4663POPC   C1B59683  40.684  23.938   6.464
 4663POPC   C2B59684  40.636  23.915   6.764
 4663POPC   C3B59685  40.607  23.889   7.064
 4663POPC   C4B59686  40.610  23.889   7.364
 4664POPC   NC359687  32.217   9.749   5.564
 4664POPC   PO459688  32.293   9.707   5.864
 4664POPC   GL159689  32.237   9.769   6.164
 4664POPC   GL259690  32.329   9.858   6.164
 4664POPC   C1A59691  32.203   9.702   6.464
 4664POPC   D2A59692  32.215   9.718   6.764
 4664POPC   C3A59693  32.278   9.703   7.064
 4664POPC   C4A59694  32.297   9.762   7.364
 4664POPC   C1B59695  32.351   9.999   6.464
 4664POPC   C2B59696  32.359   9.956   6.764
 4664POPC   C3B59697  32.381   9.964   7.064
 4664POPC   C4B59698  32.351   9.937   7.364
 4665POPC   NC359699   4.337  16.771   5.564
 4665POPC   PO459700   4.281  16.749   5.864
 4665POPC   GL159701   4.295  16.764   6.164
 4665POPC   GL259702   4.256  16.702   6.164
 4665POPC   C1A59703   4.340  16.746   6.464
 4665POPC   D2A59704   4.309  16.749   6.764
 4665POPC   C3A59705   4.338  16.725   7.064
 4665POPC   C4A59706   4.295  16.749   7.364
 4665POPC   C1B59707   4.075  16.571   6.464
 4665POPC   C2B59708   4.085  16.591   6.764
 4665POPC   C3B59709   4.161  16.536   7.064
 4665POPC   C4B59710   4.093  16.596   7.364
 4666POPC   NC359711  39.241  19.072   5.564
 4666POPC   PO459712  39.189  19.062   5.864
 4666POPC   GL159713  39.229  19.067   6.164
 4666POPC   GL259714  39.132  19.071   6.164
 4666POPC   C1A59715  39.236  19.015   6.464
 4666POPC   D2A59716  39.266  19.064   6.764
 4666POPC   C3A59717  39.194  19.042   7.064
 4666POPC   C4A59718  39.236  19.092   7.364
 4666POPC   C1B59719  38.999  19.073   6.464
 4666POPC   C2B59720  39.026  19.056   6.764
 4666POPC   C3B59721  38.983  19.007   7.064
 4666POPC   C4B59722  39.023  18.998   7.364
 4667POPC   NC359723  36.123  30.698   5.564
 4667POPC   PO459724  36.080  30.656   5.864
 4667POPC   GL159725  36.168  30.704   6.164
 4667POPC   GL259726  36.096  30.793   6.164
 4667POPC   C1A59727  36.125  30.701   6.464
 4667POPC   D2A59728  36.085  30.669   6.764
 4667POPC   C3A59729  36.078  30.676   7.064
 4667POPC   C4A59730  36.104  30.658   7.364
 4667POPC   C1B59731  35.970  30.921   6.464
 4667POPC   C2B59732  36.027  30.917   6.764
 4667POPC   C3B59733  36.049  30.873   7.064
 4667POPC   C4B59734  35.966  30.896   7.364
 4668POPC   NC359735   9.784   5.123   5.564
 4668POPC   PO459736   9.716   5.124   5.864
 4668POPC   GL159737   9.720   5.127   6.164
 4668POPC   GL259738   9.732   5.190   6.164
 4668POPC   C1A59739   9.792   5.108   6.464
 4668POPC   D2A59740   9.770   5.089   6.764
 4668POPC   C3A59741   9.763   5.116   7.064
 4668POPC   C4A59742   9.708   5.073   7.364
 4668POPC   C1B59743   9.775   5.353   6.464
 4668POPC   C2B59744   9.806   5.357   6.764
 4668POPC   C3B59745   9.760   5.307   7.064
 4668POPC   C4B59746   9.748   5.352   7.364
 4669POPC   NC359747  24.498   2.769   5.564
 4669POPC   PO459748  24.537   2.810   5.864
 4669POPC   GL159749  24.499   2.756   6.164
 4669POPC   GL259750  24.438   2.847   6.164
 4669POPC   C1A59751  24.514   2.774   6.464
 4669POPC   D2A59752  24.472   2.794   6.764
 4669POPC   C3A59753  24.477   2.802   7.064
 4669POPC   C4A59754  24.477   2.795   7.364
 4669POPC   C1B59755  24.440   3.032   6.464
 4669POPC   C2B59756  24.414   3.051   6.764
 4669POPC   C3B59757  24.486   3.063   7.064
 4669POPC   C4B59758  24.508   3.018   7.364
 4670POPC   NC359759  12.896   8.147   5.564
 4670POPC   PO459760  12.851   8.196   5.864
 4670POPC   GL159761  12.810   8.237   6.164
 4670POPC   GL259762  12.703   8.111   6.164
 4670POPC   C1A59763  12.882   8.241   6.464
 4670POPC   D2A59764  12.890   8.179   6.764
 4670POPC   C3A59765  12.867   8.216   7.064
 4670POPC   C4A59766  12.868   8.175   7.364
 4670POPC   C1B59767  12.643   8.084   6.464
 4670POPC   C2B59768  12.582   8.060   6.764
 4670POPC   C3B59769  12.603   8.071   7.064
 4670POPC   C4B59770  12.678   8.070   7.364
 4671POPC   NC359771  34.603   5.127   5.564
 4671POPC   PO459772  34.548   5.125   5.864
 4671POPC   GL159773  34.562   5.135   6.164
 4671POPC   GL259774  34.531   5.187   6.164
 4671POPC   C1A59775  34.528   5.086   6.464
 4671POPC   D2A59776  34.558   5.086   6.764
 4671POPC   C3A59777  34.580   5.135   7.064
 4671POPC   C4A59778  34.603   5.128   7.364
 4671POPC   C1B59779  34.382   5.273   6.464
 4671POPC   C2B59780  34.383   5.283   6.764
 4671POPC   C3B59781  34.437   5.256   7.064
 4671POPC   C4B59782  34.420   5.275   7.364
 4672POPC   NC359783  18.250  37.653   5.564
 4672POPC   PO459784  18.286  37.693   5.864
 4672POPC   GL159785  18.330  37.715   6.164
 4672POPC   GL259786  18.143  37.572   6.164
 4672POPC   C1A59787  18.261  37.638   6.464
 4672POPC   D2A59788  18.244  37.706   6.764
 4672POPC   C3A59789  18.291  37.672   7.064
 4672POPC   C4A59790  18.257  37.707   7.364
 4672POPC   C1B59791  18.069  37.523   6.464
 4672POPC   C2B59792  18.074  37.513   6.764
 4672POPC   C3B59793  18.094  37.490   7.064
 4672POPC   C4B59794  18.068  37.519   7.364
 4673POPC   NC359795  36.927  23.732   5.564
 4673POPC   PO459796  36.897  23.742   5.864
 4673POPC   GL159797  36.868  23.671   6.164
 4673POPC   GL259798  36.973  23.833   6.164
 4673POPC   C1A59799  36.932  23.709   6.464
 4673POPC   D2A59800  36.878  23.732   6.764
 4673POPC   C3A59801  36.930  23.689   7.064
 4673POPC   C4A59802  36.928  23.717   7.364
 4673POPC   C1B59803  37.104  23.943   6.464
 4673POPC   C2B59804  37.071  23.910   6.764
 4673POPC   C3B59805  37.037  23.878   7.064
 4673POPC   C4B59806  37.059  23.903   7.364
 4674POPC   NC359807  25.253   6.658   5.564
 4674POPC   PO459808  25.282   6.611   5.864
 4674POPC   GL159809  25.232   6.653   6.164
 4674POPC   GL259810  25.424   6.649   6.164
 4674POPC   C1A59811  25.247   6.649   6.464
 4674POPC   D2A59812  25.269   6.602   6.764
 4674POPC   C3A59813  25.289   6.686   7.064
 4674POPC   C4A59814  25.255   6.646   7.364
 4674POPC   C1B59815  25.528   6.713   6.464
 4674POPC   C2B59816  25.480   6.650   6.764
 4674POPC   C3B59817  25.495   6.635   7.064
 4674POPC   C4B59818  25.511   6.703   7.364
 4675POPC   NC359819  12.073  43.073   5.564
 4675POPC   PO459820  12.044  43.096   5.864
 4675POPC   GL159821  12.117  43.140   6.164
 4675POPC   GL259822  12.027  43.032   6.164
 4675POPC   C1A59823  12.097  43.095   6.464
 4675POPC   D2A59824  12.053  43.102   6.764
 4675POPC   C3A59825  12.083  43.093   7.064
 4675POPC   C4A59826  12.093  43.063   7.364
 4675POPC   C1B59827  12.063  42.859   6.464
 4675POPC   C2B59828  12.085  42.903   6.764
 4675POPC   C3B59829  12.041  42.870   7.064
 4675POPC   C4B59830  12.110  42.883   7.364
 4676POPC   NC359831   5.852   5.843   5.564
 4676POPC   PO459832   5.870   5.909   5.864
 4676POPC   GL159833   5.861   5.848   6.164
 4676POPC   GL259834   5.999   5.936   6.164
 4676POPC   C1A59835   5.881   5.876   6.464
 4676POPC   D2A59836   5.841   5.908   6.764
 4676POPC   C3A59837   5.894   5.884   7.064
 4676POPC   C4A59838   5.908   5.830   7.364
 4676POPC   C1B59839   6.054   5.959   6.464
 4676POPC   C2B59840   6.101   6.000   6.764
 4676POPC   C3B59841   6.093   5.998   7.064
 4676POPC   C4B59842   6.113   5.962   7.364
 4677POPC   NC359843  40.766  17.506   5.564
 4677POPC   PO459844  40.813  17.469   5.864
 4677POPC   GL159845  40.827  17.496   6.164
 4677POPC   GL259846  40.634  17.570   6.164
 4677POPC   C1A59847  40.790  17.530   6.464
 4677POPC   D2A59848  40.739  17.491   6.764
 4677POPC   C3A59849  40.762  17.479   7.064
 4677POPC   C4A59850  40.743  17.484   7.364
 4677POPC   C1B59851  40.579  17.623   6.464
 4677POPC   C2B59852  40.536  17.616   6.764
 4677POPC   C3B59853  40.501  17.628   7.064
 4677POPC   C4B59854  40.562  17.615   7.364
 4678POPC   NC359855  35.320  38.437   5.564
 4678POPC   PO459856  35.364  38.440   5.864
 4678POPC   GL159857  35.331  38.443   6.164
 4678POPC   GL259858  35.258  38.520   6.164
 4678POPC   C1A59859  35.399  38.443   6.464
 4678POPC   D2A59860  35.331  38.429   6.764
 4678POPC   C3A59861  35.310  38.485   7.064
 4678POPC   C4A59862  35.375  38.450   7.364
 4678POPC   C1B59863  35.141  38.567   6.464
 4678POPC   C2B59864  35.127  38.491   6.764
 4678POPC   C3B59865  35.146  38.528   7.064
 4678POPC   C4B59866  35.111  38.569   7.364
 4679POPC   NC359867   9.745  43.912   5.564
 4679POPC   PO459868   9.747  43.837   5.864
 4679POPC   GL159869   9.768  43.908   6.164
 4679POPC   GL259870   9.698  43.735   6.164
 4679POPC   C1A59871   9.709  43.864   6.464
 4679POPC   D2A59872   9.710  43.889   6.764
 4679POPC   C3A59873   9.787  43.934   7.064
 4679POPC   C4A59874   9.730  43.912   7.364
 4679POPC   C1B59875   9.716  43.657   6.464
 4679POPC   C2B59876   9.685  43.642   6.764
 4679POPC   C3B59877   9.752  43.656   7.064
 4679POPC   C4B59878   9.741  43.653   7.364
 4680POPC   NC359879  10.528   0.430   5.564
 4680POPC   PO459880  10.486   0.445   5.864
 4680POPC   GL159881  10.540   0.477   6.164
 4680POPC   GL259882  10.488   0.386   6.164
 4680POPC   C1A59883  10.517   0.473   6.464
 4680POPC   D2A59884  10.534   0.417   6.764
 4680POPC   C3A59885  10.557   0.429   7.064
 4680POPC   C4A59886  10.533   0.428   7.364
 4680POPC   C1B59887  10.316   0.250   6.464
 4680POPC   C2B59888  10.361   0.217   6.764
 4680POPC   C3B59889  10.354   0.243   7.064
 4680POPC   C4B59890  10.362   0.207   7.364
 4681POPC   NC359891  38.466  26.038   5.564
 4681POPC   PO459892  38.478  26.038   5.864
 4681POPC   GL159893  38.458  26.043   6.164
 4681POPC   GL259894  38.437  26.193   6.164
 4681POPC   C1A59895  38.490  26.059   6.464
 4681POPC   D2A59896  38.450  26.026   6.764
 4681POPC   C3A59897  38.464  26.089   7.064
 4681POPC   C4A59898  38.450  26.052   7.364
 4681POPC   C1B59899  38.390  26.341   6.464
 4681POPC   C2B59900  38.469  26.293   6.764
 4681POPC   C3B59901  38.416  26.253   7.064
 4681POPC   C4B59902  38.415  26.249   7.364
 4682POPC   NC359903  38.455  20.588   5.564
 4682POPC   PO459904  38.431  20.563   5.864
 4682POPC   GL159905  38.424  20.635   6.164
 4682POPC   GL259906  38.381  20.733   6.164
 4682POPC   C1A59907  38.470  20.628   6.464
 4682POPC   D2A59908  38.498  20.627   6.764
 4682POPC   C3A59909  38.479  20.638   7.064
 4682POPC   C4A59910  38.445  20.584   7.364
 4682POPC   C1B59911  38.375  20.807   6.464
 4682POPC   C2B59912  38.325  20.815   6.764
 4682POPC   C3B59913  38.309  20.876   7.064
 4682POPC   C4B59914  38.387  20.811   7.364
 4683POPC   NC359915  15.905  15.229   5.564
 4683POPC   PO459916  15.911  15.166   5.864
 4683POPC   GL159917  15.919  15.147   6.164
 4683POPC   GL259918  16.052  15.292   6.164
 4683POPC   C1A59919  15.921  15.186   6.464
 4683POPC   D2A59920  15.975  15.130   6.764
 4683POPC   C3A59921  15.986  15.211   7.064
 4683POPC   C4A59922  15.932  15.205   7.364
 4683POPC   C1B59923  16.141  15.297   6.464
 4683POPC   C2B59924  16.115  15.340   6.764
 4683POPC   C3B59925  16.104  15.333   7.064
 4683POPC   C4B59926  16.129  15.302   7.364
 4684POPC   NC359927  43.852   8.211   5.564
 4684POPC   PO459928  43.865   8.244   5.864
 4684POPC   GL159929  43.932   8.163   6.164
 4684POPC   GL259930  43.816   8.253   6.164
 4684POPC   C1A59931  43.918   8.222   6.464
 4684POPC   D2A59932  43.906   8.226   6.764
 4684POPC   C3A59933  43.887   8.222   7.064
 4684POPC   C4A59934  43.932   8.201   7.364
 4684POPC   C1B59935  43.638   8.291   6.464
 4684POPC   C2B59936  43.641   8.326   6.764
 4684POPC   C3B59937  43.696   8.285   7.064
 4684POPC   C4B59938  43.661   8.343   7.364
 4685POPC   NC359939  21.377  12.082   5.564
 4685POPC   PO459940  21.392  12.042   5.864
 4685POPC   GL159941  21.435  12.093   6.164
 4685POPC   GL259942  21.306  12.110   6.164
 4685POPC   C1A59943  21.429  12.090   6.464
 4685POPC   D2A59944  21.396  12.079   6.764
 4685POPC   C3A59945  21.368  12.098   7.064
 4685POPC   C4A59946  21.415  12.112   7.364
 4685POPC   C1B59947  21.177  12.204   6.464
 4685POPC   C2B59948  21.138  12.217   6.764
 4685POPC   C3B59949  21.161  12.189   7.064
 4685POPC   C4B59950  21.204  12.187   7.364
 4686POPC   NC359951  19.042  20.624   5.564
 4686POPC   PO459952  19.051  20.589   5.864
 4686POPC   GL159953  19.047  20.591   6.164
 4686POPC   GL259954  18.988  20.750   6.164
 4686POPC   C1A59955  19.099  20.571   6.464
 4686POPC   D2A59956  19.081  20.588   6.764
 4686POPC   C3A59957  19.096  20.622   7.064
 4686POPC   C4A59958  19.034  20.609   7.364
 4686POPC   C1B59959  18.927  20.818   6.464
 4686POPC   C2B59960  18.860  20.788   6.764
 4686POPC   C3B59961  18.906  20.822   7.064
 4686POPC   C4B59962  18.875  20.817   7.364
 4687POPC   NC359963  26.788  34.560   5.564
 4687POPC   PO459964  26.801  34.573   5.864
 4687POPC   GL159965  26.841  34.557   6.164
 4687POPC   GL259966  26.847  34.722   6.164
 4687POPC   C1A59967  26.792  34.557   6.464
 4687POPC   D2A59968  26.860  34.545   6.764
 4687POPC   C3A59969  26.778  34.595   7.064
 4687POPC   C4A59970  26.776  34.566   7.364
 4687POPC   C1B59971  26.858  34.809   6.464
 4687POPC   C2B59972  26.813  34.842   6.764
 4687POPC   C3B59973  26.819  34.811   7.064
 4687POPC   C4B59974  26.848  34.779   7.364
 4688POPC   NC359975   5.104  43.913   5.564
 4688POPC   PO459976   5.084  43.862   5.864
 4688POPC   GL159977   5.135  43.857   6.164
 4688POPC   GL259978   5.133  44.037   6.164
 4688POPC   C1A59979   5.097  43.906   6.464
 4688POPC   D2A59980   5.082  43.884   6.764
 4688POPC   C3A59981   5.049  43.916   7.064
 4688POPC   C4A59982   5.047  43.916   7.364
 4688POPC   C1B59983   5.178  44.138   6.464
 4688POPC   C2B59984   5.228  44.113   6.764
 4688POPC   C3B59985   5.215  44.129   7.064
 4688POPC   C4B59986   5.154  44.088   7.364
 4689POPC   NC359987   1.169  16.689   5.564
 4689POPC   PO459988   1.176  16.779   5.864
 4689POPC   GL159989   1.215  16.683   6.164
 4689POPC   GL259990   1.111  16.656   6.164
 4689POPC   C1A59991   1.259  16.704   6.464
 4689POPC   D2A59992   1.209  16.748   6.764
 4689POPC   C3A59993   1.247  16.716   7.064
 4689POPC   C4A59994   1.164  16.703   7.364
 4689POPC   C1B59995   0.988  16.597   6.464
 4689POPC   C2B59996   0.985  16.610   6.764
 4689POPC   C3B59997   1.020  16.583   7.064
 4689POPC   C4B59998   0.969  16.612   7.364
 4690POPC   NC359999  22.113   0.432   5.564
 4690POPC   PO460000  22.128   0.487   5.864
 4690POPC   GL160001  22.167   0.474   6.164
 4690POPC   GL260002  22.263   0.392   6.164
 4690POPC   C1A60003  22.210   0.451   6.464
 4690POPC   D2A60004  22.206   0.416   6.764
 4690POPC   C3A60005  22.115   0.427   7.064
 4690POPC   C4A60006  22.129   0.450   7.364
 4690POPC   C1B60007  22.420   0.335   6.464
 4690POPC   C2B60008  22.434   0.341   6.764
 4690POPC   C3B60009  22.409   0.313   7.064
 4690POPC   C4B60010  22.367   0.346   7.364
 4691POPC   NC360011  12.868  40.733   5.564
 4691POPC   PO460012  12.893  40.770   5.864
 4691POPC   GL160013  12.841  40.789   6.164
 4691POPC   GL260014  12.797  40.899   6.164
 4691POPC   C1A60015  12.878  40.800   6.464
 4691POPC   D2A60016  12.883  40.797   6.764
 4691POPC   C3A60017  12.842  40.755   7.064
 4691POPC   C4A60018  12.855  40.761   7.364
 4691POPC   C1B60019  12.635  40.956   6.464
 4691POPC   C2B60020  12.666  40.984   6.764
 4691POPC   C3B60021  12.668  40.913   7.064
 4691POPC   C4B60022  12.623  40.909   7.364
 4692POPC   NC360023  18.256  22.201   5.564
 4692POPC   PO460024  18.268  22.203   5.864
 4692POPC   GL160025  18.329  22.118   6.164
 4692POPC   GL260026  18.144  22.126   6.164
 4692POPC   C1A60027  18.239  22.151   6.464
 4692POPC   D2A60028  18.307  22.125   6.764
 4692POPC   C3A60029  18.245  22.148   7.064
 4692POPC   C4A60030  18.300  22.205   7.364
 4692POPC   C1B60031  18.082  22.112   6.464
 4692POPC   C2B60032  17.991  22.170   6.764
 4692POPC   C3B60033  18.030  22.106   7.064
 4692POPC   C4B60034  17.991  22.157   7.364
 4693POPC   NC360035   6.604   3.506   5.564
 4693POPC   PO460036   6.669   3.562   5.864
 4693POPC   GL160037   6.678   3.505   6.164
 4693POPC   GL260038   6.775   3.431   6.164
 4693POPC   C1A60039   6.623   3.506   6.464
 4693POPC   D2A60040   6.644   3.579   6.764
 4693POPC   C3A60041   6.629   3.507   7.064
 4693POPC   C4A60042   6.616   3.523   7.364
 4693POPC   C1B60043   6.826   3.431   6.464
 4693POPC   C2B60044   6.879   3.398   6.764
 4693POPC   C3B60045   6.824   3.380   7.064
 4693POPC   C4B60046   6.846   3.421   7.364
 4694POPC   NC360047   8.923  17.477   5.564
 4694POPC   PO460048   9.008  17.527   5.864
 4694POPC   GL160049   9.016  17.504   6.164
 4694POPC   GL260050   8.954  17.361   6.164
 4694POPC   C1A60051   8.981  17.459   6.464
 4694POPC   D2A60052   8.953  17.462   6.764
 4694POPC   C3A60053   8.963  17.494   7.064
 4694POPC   C4A60054   8.937  17.518   7.364
 4694POPC   C1B60055   8.824  17.285   6.464
 4694POPC   C2B60056   8.827  17.327   6.764
 4694POPC   C3B60057   8.824  17.338   7.064
 4694POPC   C4B60058   8.860  17.314   7.364
 4695POPC   NC360059   9.725  12.046   5.564
 4695POPC   PO460060   9.774  12.026   5.864
 4695POPC   GL160061   9.782  12.090   6.164
 4695POPC   GL260062   9.797  12.017   6.164
 4695POPC   C1A60063   9.701  12.036   6.464
 4695POPC   D2A60064   9.718  12.035   6.764
 4695POPC   C3A60065   9.756  12.052   7.064
 4695POPC   C4A60066   9.747  12.117   7.364
 4695POPC   C1B60067   9.895  11.947   6.464
 4695POPC   C2B60068   9.878  11.913   6.764
 4695POPC   C3B60069   9.956  11.853   7.064
 4695POPC   C4B60070   9.893  11.933   7.364
 4696POPC   NC360071  40.056  37.702   5.564
 4696POPC   PO460072  40.025  37.688   5.864
 4696POPC   GL160073  40.011  37.713   6.164
 4696POPC   GL260074  39.883  37.764   6.164
 4696POPC   C1A60075  40.005  37.674   6.464
 4696POPC   D2A60076  40.054  37.727   6.764
 4696POPC   C3A60077  39.962  37.700   7.064
 4696POPC   C4A60078  40.037  37.675   7.364
 4696POPC   C1B60079  39.732  37.781   6.464
 4696POPC   C2B60080  39.814  37.788   6.764
 4696POPC   C3B60081  39.745  37.808   7.064
 4696POPC   C4B60082  39.773  37.756   7.364
 4697POPC   NC360083  29.925  12.093   5.564
 4697POPC   PO460084  29.905  12.109   5.864
 4697POPC   GL160085  29.872  12.090   6.164
 4697POPC   GL260086  29.769  12.140   6.164
 4697POPC   C1A60087  29.944  12.066   6.464
 4697POPC   D2A60088  29.964  12.090   6.764
 4697POPC   C3A60089  29.918  12.046   7.064
 4697POPC   C4A60090  29.941  12.109   7.364
 4697POPC   C1B60091  29.751  12.184   6.464
 4697POPC   C2B60092  29.739  12.183   6.764
 4697POPC   C3B60093  29.724  12.193   7.064
 4697POPC   C4B60094  29.736  12.192   7.364
 4698POPC   NC360095  20.613  36.158   5.564
 4698POPC   PO460096  20.577  36.143   5.864
 4698POPC   GL160097  20.565  36.090   6.164
 4698POPC   GL260098  20.744  36.124   6.164
 4698POPC   C1A60099  20.579  36.136   6.464
 4698POPC   D2A60100  20.580  36.160   6.764
 4698POPC   C3A60101  20.613  36.164   7.064
 4698POPC   C4A60102  20.594  36.097   7.364
 4698POPC   C1B60103  20.891  36.143   6.464
 4698POPC   C2B60104  20.897  36.170   6.764
 4698POPC   C3B60105  20.810  36.175   7.064
 4698POPC   C4B60106  20.877  36.133   7.364
 4699POPC   NC360107  29.124  42.286   5.564
 4699POPC   PO460108  29.162  42.320   5.864
 4699POPC   GL160109  29.175  42.291   6.164
 4699POPC   GL260110  29.193  42.169   6.164
 4699POPC   C1A60111  29.100  42.356   6.464
 4699POPC   D2A60112  29.143  42.296   6.764
 4699POPC   C3A60113  29.164  42.301   7.064
 4699POPC   C4A60114  29.109  42.308   7.364
 4699POPC   C1B60115  29.195  42.121   6.464
 4699POPC   C2B60116  29.251  42.127   6.764
 4699POPC   C3B60117  29.264  42.062   7.064
 4699POPC   C4B60118  29.205  42.067   7.364
 4700POPC   NC360119   0.415  29.134   5.564
 4700POPC   PO460120   0.393  29.178   5.864
 4700POPC   GL160121   0.417  29.097   6.164
 4700POPC   GL260122   0.490  29.019   6.164
 4700POPC   C1A60123   0.397  29.158   6.464
 4700POPC   D2A60124   0.433  29.158   6.764
 4700POPC   C3A60125   0.446  29.108   7.064
 4700POPC   C4A60126   0.399  29.192   7.364
 4700POPC   C1B60127   0.432  28.944   6.464
 4700POPC   C2B60128   0.431  28.886   6.764
 4700POPC   C3B60129   0.518  28.866   7.064
 4700POPC   C4B60130   0.462  28.876   7.364
 4701POPC   NC360131   7.430  10.574   5.564
 4701POPC   PO460132   7.391  10.497   5.864
 4701POPC   GL160133   7.429  10.488   6.164
 4701POPC   GL260134   7.334  10.423   6.164
 4701POPC   C1A60135   7.461  10.523   6.464
 4701POPC   D2A60136   7.438  10.505   6.764
 4701POPC   C3A60137   7.439  10.507   7.064
 4701POPC   C4A60138   7.457  10.549   7.364
 4701POPC   C1B60139   7.359  10.275   6.464
 4701POPC   C2B60140   7.317  10.258   6.764
 4701POPC   C3B60141   7.355  10.320   7.064
 4701POPC   C4B60142   7.289  10.326   7.364
 4702POPC   NC360143  21.343  22.919   5.564
 4702POPC   PO460144  21.427  22.912   5.864
 4702POPC   GL160145  21.415  22.901   6.164
 4702POPC   GL260146  21.240  22.951   6.164
 4702POPC   C1A60147  21.378  22.967   6.464
 4702POPC   D2A60148  21.353  22.889   6.764
 4702POPC   C3A60149  21.342  22.896   7.064
 4702POPC   C4A60150  21.354  22.964   7.364
 4702POPC   C1B60151  21.124  22.941   6.464
 4702POPC   C2B60152  21.128  22.907   6.764
 4702POPC   C3B60153  21.151  22.895   7.064
 4702POPC   C4B60154  21.186  22.880   7.364
 4703POPC   NC360155  31.477  15.995   5.564
 4703POPC   PO460156  31.443  15.934   5.864
 4703POPC   GL160157  31.434  15.907   6.164
 4703POPC   GL260158  31.543  15.896   6.164
 4703POPC   C1A60159  31.457  15.917   6.464
 4703POPC   D2A60160  31.505  15.945   6.764
 4703POPC   C3A60161  31.436  15.905   7.064
 4703POPC   C4A60162  31.435  15.943   7.364
 4703POPC   C1B60163  31.614  15.736   6.464
 4703POPC   C2B60164  31.582  15.783   6.764
 4703POPC   C3B60165  31.563  15.731   7.064
 4703POPC   C4B60166  31.611  15.724   7.364
 4704POPC   NC360167  21.390   8.245   5.564
 4704POPC   PO460168  21.348   8.168   5.864
 4704POPC   GL160169  21.380   8.193   6.164
 4704POPC   GL260170  21.495   8.308   6.164
 4704POPC   C1A60171  21.381   8.181   6.464
 4704POPC   D2A60172  21.350   8.178   6.764
 4704POPC   C3A60173  21.413   8.175   7.064
 4704POPC   C4A60174  21.436   8.191   7.364
 4704POPC   C1B60175  21.528   8.389   6.464
 4704POPC   C2B60176  21.560   8.400   6.764
 4704POPC   C3B60177  21.571   8.337   7.064
 4704POPC   C4B60178  21.510   8.411   7.364
 4705POPC   NC360179   8.939   2.805   5.564
 4705POPC   PO460180   8.977   2.746   5.864
 4705POPC   GL160181   9.010   2.784   6.164
 4705POPC   GL260182   8.901   2.854   6.164
 4705POPC   C1A60183   8.923   2.732   6.464
 4705POPC   D2A60184   9.007   2.748   6.764
 4705POPC   C3A60185   8.986   2.799   7.064
 4705POPC   C4A60186   8.939   2.791   7.364
 4705POPC   C1B60187   8.783   2.820   6.464
 4705POPC   C2B60188   8.761   2.895   6.764
 4705POPC   C3B60189   8.694   2.904   7.064
 4705POPC   C4B60190   8.739   2.896   7.364
 4706POPC   NC360191  41.567   6.679   5.564
 4706POPC   PO460192  41.542   6.617   5.864
 4706POPC   GL160193  41.535   6.615   6.164
 4706POPC   GL260194  41.445   6.643   6.164
 4706POPC   C1A60195  41.519   6.683   6.464
 4706POPC   D2A60196  41.603   6.652   6.764
 4706POPC   C3A60197  41.560   6.661   7.064
 4706POPC   C4A60198  41.576   6.674   7.364
 4706POPC   C1B60199  41.371   6.696   6.464
 4706POPC   C2B60200  41.325   6.715   6.764
 4706POPC   C3B60201  41.361   6.762   7.064
 4706POPC   C4B60202  41.357   6.696   7.364
 4707POPC   NC360203  13.677  22.896   5.564
 4707POPC   PO460204  13.669  22.968   5.864
 4707POPC   GL160205  13.635  22.948   6.164
 4707POPC   GL260206  13.773  22.884   6.164
 4707POPC   C1A60207  13.657  22.972   6.464
 4707POPC   D2A60208  13.594  22.970   6.764
 4707POPC   C3A60209  13.654  22.930   7.064
 4707POPC   C4A60210  13.584  22.948   7.364
 4707POPC   C1B60211  13.817  22.895   6.464
 4707POPC   C2B60212  13.825  22.829   6.764
 4707POPC   C3B60213  13.841  22.875   7.064
 4707POPC   C4B60214  13.824  22.810   7.364
 4708POPC   NC360215  39.974  43.914   5.564
 4708POPC   PO460216  40.002  43.880   5.864
 4708POPC   GL160217  39.965  43.909   6.164
 4708POPC   GL260218  39.915  43.879   6.164
 4708POPC   C1A60219  39.986  43.933   6.464
 4708POPC   D2A60220  40.011  43.921   6.764
 4708POPC   C3A60221  39.994  43.896   7.064
 4708POPC   C4A60222  39.958  43.906   7.364
 4708POPC   C1B60223  39.805  43.830   6.464
 4708POPC   C2B60224  39.738  43.868   6.764
 4708POPC   C3B60225  39.755  43.850   7.064
 4708POPC   C4B60226  39.754  43.862   7.364
 4709POPC   NC360227  17.539  35.354   5.564
 4709POPC   PO460228  17.534  35.370   5.864
 4709POPC   GL160229  17.554  35.394   6.164
 4709POPC   GL260230  17.623  35.459   6.164
 4709POPC   C1A60231  17.463  35.344   6.464
 4709POPC   D2A60232  17.515  35.312   6.764
 4709POPC   C3A60233  17.457  35.395   7.064
 4709POPC   C4A60234  17.522  35.349   7.364
 4709POPC   C1B60235  17.674  35.582   6.464
 4709POPC   C2B60236  17.626  35.549   6.764
 4709POPC   C3B60237  17.695  35.539   7.064
 4709POPC   C4B60238  17.693  35.582   7.364
 4710POPC   NC360239  20.616  12.049   5.564
 4710POPC   PO460240  20.655  12.062   5.864
 4710POPC   GL160241  20.640  12.091   6.164
 4710POPC   GL260242  20.706  12.170   6.164
 4710POPC   C1A60243  20.564  12.073   6.464
 4710POPC   D2A60244  20.629  12.047   6.764
 4710POPC   C3A60245  20.591  12.030   7.064
 4710POPC   C4A60246  20.572  12.030   7.364
 4710POPC   C1B60247  20.780  12.203   6.464
 4710POPC   C2B60248  20.773  12.206   6.764
 4710POPC   C3B60249  20.769  12.224   7.064
 4710POPC   C4B60250  20.818  12.180   7.364
 4711POPC   NC360251   7.428  28.371   5.564
 4711POPC   PO460252   7.449  28.411   5.864
 4711POPC   GL160253   7.408  28.399   6.164
 4711POPC   GL260254   7.433  28.477   6.164
 4711POPC   C1A60255   7.376  28.374   6.464
 4711POPC   D2A60256   7.387  28.352   6.764
 4711POPC   C3A60257   7.468  28.357   7.064
 4711POPC   C4A60258   7.407  28.389   7.364
 4711POPC   C1B60259   7.451  28.650   6.464
 4711POPC   C2B60260   7.502  28.569   6.764
 4711POPC   C3B60261   7.417  28.617   7.064
 4711POPC   C4B60262   7.487  28.654   7.364
 4712POPC   NC360263  30.657  33.821   5.564
 4712POPC   PO460264  30.721  33.780   5.864
 4712POPC   GL160265  30.692  33.778   6.164
 4712POPC   GL260266  30.583  33.753   6.164
 4712POPC   C1A60267  30.741  33.771   6.464
 4712POPC   D2A60268  30.717  33.792   6.764
 4712POPC   C3A60269  30.732  33.782   7.064
 4712POPC   C4A60270  30.664  33.766   7.364
 4712POPC   C1B60271  30.495  33.710   6.464
 4712POPC   C2B60272  30.441  33.700   6.764
 4712POPC   C3B60273  30.507  33.708   7.064
 4712POPC   C4B60274  30.444  33.680   7.364
 4713POPC   NC360275  15.215  43.149   5.564
 4713POPC   PO460276  15.188  43.095   5.864
 4713POPC   GL160277  15.207  43.107   6.164
 4713POPC   GL260278  15.316  43.205   6.164
 4713POPC   C1A60279  15.214  43.107   6.464
 4713POPC   D2A60280  15.160  43.146   6.764
 4713POPC   C3A60281  15.226  43.157   7.064
 4713POPC   C4A60282  15.166  43.121   7.364
 4713POPC   C1B60283  15.381  43.237   6.464
 4713POPC   C2B60284  15.399  43.308   6.764
 4713POPC   C3B60285  15.352  43.310   7.064
 4713POPC   C4B60286  15.331  43.288   7.364
 4714POPC   NC360287  43.143  32.253   5.564
 4714POPC   PO460288  43.073  32.266   5.864
 4714POPC   GL160289  43.082  32.282   6.164
 4714POPC   GL260290  43.225  32.269   6.164
 4714POPC   C1A60291  43.107  32.264   6.464
 4714POPC   D2A60292  43.156  32.296   6.764
 4714POPC   C3A60293  43.141  32.264   7.064
 4714POPC   C4A60294  43.130  32.202   7.364
 4714POPC   C1B60295  43.372  32.376   6.464
 4714POPC   C2B60296  43.385  32.364   6.764
 4714POPC   C3B60297  43.311  32.382   7.064
 4714POPC   C4B60298  43.305  32.348   7.364
 4715POPC   NC360299   1.201  37.691   5.564
 4715POPC   PO460300   1.261  37.693   5.864
 4715POPC   GL160301   1.259  37.644   6.164
 4715POPC   GL260302   1.133  37.717   6.164
 4715POPC   C1A60303   1.252  37.713   6.464
 4715POPC   D2A60304   1.185  37.693   6.764
 4715POPC   C3A60305   1.243  37.704   7.064
 4715POPC   C4A60306   1.245  37.712   7.364
 4715POPC   C1B60307   1.001  37.715   6.464
 4715POPC   C2B60308   0.977  37.710   6.764
 4715POPC   C3B60309   0.979  37.700   7.064
 4715POPC   C4B60310   0.921  37.674   7.364
 4716POPC   NC360311  14.447   6.598   5.564
 4716POPC   PO460312  14.365   6.666   5.864
 4716POPC   GL160313  14.444   6.602   6.164
 4716POPC   GL260314  14.482   6.646   6.164
 4716POPC   C1A60315  14.417   6.622   6.464
 4716POPC   D2A60316  14.449   6.607   6.764
 4716POPC   C3A60317  14.361   6.655   7.064
 4716POPC   C4A60318  14.369   6.614   7.364
 4716POPC   C1B60319  14.637   6.610   6.464
 4716POPC   C2B60320  14.592   6.561   6.764
 4716POPC   C3B60321  14.686   6.523   7.064
 4716POPC   C4B60322  14.666   6.535   7.364
 4717POPC   NC360323  40.761  36.104   5.564
 4717POPC   PO460324  40.758  36.101   5.864
 4717POPC   GL160325  40.768  36.130   6.164
 4717POPC   GL260326  40.730  36.233   6.164
 4717POPC   C1A60327  40.823  36.097   6.464
 4717POPC   D2A60328  40.763  36.127   6.764
 4717POPC   C3A60329  40.816  36.159   7.064
 4717POPC   C4A60330  40.793  36.123   7.364
 4717POPC   C1B60331  40.659  36.319   6.464
 4717POPC   C2B60332  40.693  36.322   6.764
 4717POPC   C3B60333  40.653  36.386   7.064
 4717POPC   C4B60334  40.707  36.353   7.364
 4718POPC   NC360335  14.444  44.680   5.564
 4718POPC   PO460336  14.414  44.624   5.864
 4718POPC   GL160337  14.377  44.641   6.164
 4718POPC   GL260338  14.420  44.580   6.164
 4718POPC   C1A60339  14.428  44.633   6.464
 4718POPC   D2A60340  14.392  44.656   6.764
 4718POPC   C3A60341  14.398  44.642   7.064
 4718POPC   C4A60342  14.448  44.626   7.364
 4718POPC   C1B60343  14.424  44.423   6.464
 4718POPC   C2B60344  14.429  44.407   6.764
 4718POPC   C3B60345  14.404  44.437   7.064
 4718POPC   C4B60346  14.440  44.420   7.364
 4719POPC   NC360347  10.506  13.666   5.564
 4719POPC   PO460348  10.485  13.635   5.864
 4719POPC   GL160349  10.535  13.668   6.164
 4719POPC   GL260350  10.651  13.624   6.164
 4719POPC   C1A60351  10.555  13.585   6.464
 4719POPC   D2A60352  10.534  13.638   6.764
 4719POPC   C3A60353  10.497  13.650   7.064
 4719POPC   C4A60354  10.540  13.593   7.364
 4719POPC   C1B60355  10.791  13.591   6.464
 4719POPC   C2B60356  10.813  13.679   6.764
 4719POPC   C3B60357  10.815  13.593   7.064
 4719POPC   C4B60358  10.812  13.594   7.364
 4720POPC   NC360359   1.261  25.249   5.564
 4720POPC   PO460360   1.205  25.248   5.864
 4720POPC   GL160361   1.237  25.310   6.164
 4720POPC   GL260362   1.138  25.185   6.164
 4720POPC   C1A60363   1.208  25.273   6.464
 4720POPC   D2A60364   1.181  25.230   6.764
 4720POPC   C3A60365   1.180  25.292   7.064
 4720POPC   C4A60366   1.172  25.303   7.364
 4720POPC   C1B60367   1.015  25.137   6.464
 4720POPC   C2B60368   0.988  25.096   6.764
 4720POPC   C3B60369   0.981  25.146   7.064
 4720POPC   C4B60370   1.019  25.145   7.364
 4721POPC   NC360371   0.466   1.165   5.564
 4721POPC   PO460372   0.401   1.217   5.864
 4721POPC   GL160373   0.429   1.238   6.164
 4721POPC   GL260374   0.384   1.343   6.164
 4721POPC   C1A60375   0.453   1.168   6.464
 4721POPC   D2A60376   0.421   1.166   6.764
 4721POPC   C3A60377   0.390   1.180   7.064
 4721POPC   C4A60378   0.417   1.241   7.364
 4721POPC   C1B60379   0.210   1.343   6.464
 4721POPC   C2B60380   0.215   1.371   6.764
 4721POPC   C3B60381   0.257   1.419   7.064
 4721POPC   C4B60382   0.240   1.345   7.364
 4722POPC   NC360383  20.580   1.236   5.564
 4722POPC   PO460384  20.623   1.214   5.864
 4722POPC   GL160385  20.644   1.262   6.164
 4722POPC   GL260386  20.694   1.210   6.164
 4722POPC   C1A60387  20.572   1.199   6.464
 4722POPC   D2A60388  20.609   1.181   6.764
 4722POPC   C3A60389  20.653   1.166   7.064
 4722POPC   C4A60390  20.622   1.232   7.364
 4722POPC   C1B60391  20.885   1.235   6.464
 4722POPC   C2B60392  20.849   1.233   6.764
 4722POPC   C3B60393  20.865   1.215   7.064
 4722POPC   C4B60394  20.861   1.283   7.364
 4723POPC   NC360395  12.048  20.631   5.564
 4723POPC   PO460396  12.094  20.592   5.864
 4723POPC   GL160397  12.045  20.600   6.164
 4723POPC   GL260398  12.120  20.482   6.164
 4723POPC   C1A60399  12.095  20.576   6.464
 4723POPC   D2A60400  12.063  20.588   6.764
 4723POPC   C3A60401  12.121  20.571   7.064
 4723POPC   C4A60402  12.104  20.612   7.364
 4723POPC   C1B60403  12.128  20.317   6.464
 4723POPC   C2B60404  12.059  20.313   6.764
 4723POPC   C3B60405  12.055  20.339   7.064
 4723POPC   C4B60406  12.106  20.323   7.364
 4724POPC   NC360407   1.256  15.989   5.564
 4724POPC   PO460408   1.258  15.969   5.864
 4724POPC   GL160409   1.210  15.948   6.164
 4724POPC   GL260410   1.295  15.928   6.164
 4724POPC   C1A60411   1.209  15.906   6.464
 4724POPC   D2A60412   1.184  15.959   6.764
 4724POPC   C3A60413   1.240  15.906   7.064
 4724POPC   C4A60414   1.211  15.925   7.364
 4724POPC   C1B60415   1.449  16.012   6.464
 4724POPC   C2B60416   1.486  15.999   6.764
 4724POPC   C3B60417   1.420  15.974   7.064
 4724POPC   C4B60418   1.464  15.982   7.364
 4725POPC   NC360419  37.718  29.143   5.564
 4725POPC   PO460420  37.639  29.144   5.864
 4725POPC   GL160421  37.651  29.164   6.164
 4725POPC   GL260422  37.701  29.270   6.164
 4725POPC   C1A60423  37.697  29.178   6.464
 4725POPC   D2A60424  37.640  29.101   6.764
 4725POPC   C3A60425  37.726  29.192   7.064
 4725POPC   C4A60426  37.701  29.168   7.364
 4725POPC   C1B60427  37.776  29.403   6.464
 4725POPC   C2B60428  37.768  29.343   6.764
 4725POPC   C3B60429  37.741  29.398   7.064
 4725POPC   C4B60430  37.717  29.407   7.364
 4726POPC   NC360431  26.811   8.228   5.564
 4726POPC   PO460432  26.817   8.242   5.864
 4726POPC   GL160433  26.815   8.245   6.164
 4726POPC   GL260434  26.863   8.109   6.164
 4726POPC   C1A60435  26.854   8.168   6.464
 4726POPC   D2A60436  26.856   8.168   6.764
 4726POPC   C3A60437  26.818   8.186   7.064
 4726POPC   C4A60438  26.823   8.163   7.364
 4726POPC   C1B60439  26.829   7.906   6.464
 4726POPC   C2B60440  26.859   7.948   6.764
 4726POPC   C3B60441  26.828   7.914   7.064
 4726POPC   C4B60442  26.910   7.927   7.364
 4727POPC   NC360443  25.310   5.060   5.564
 4727POPC   PO460444  25.298   5.113   5.864
 4727POPC   GL160445  25.242   5.074   6.164
 4727POPC   GL260446  25.377   5.043   6.164
 4727POPC   C1A60447  25.248   5.046   6.464
 4727POPC   D2A60448  25.281   5.117   6.764
 4727POPC   C3A60449  25.219   5.101   7.064
 4727POPC   C4A60450  25.292   5.125   7.364
 4727POPC   C1B60451  25.519   5.028   6.464
 4727POPC   C2B60452  25.451   5.012   6.764
 4727POPC   C3B60453  25.533   5.012   7.064
 4727POPC   C4B60454  25.549   4.994   7.364
 4728POPC   NC360455   5.865   8.972   5.564
 4728POPC   PO460456   5.901   8.924   5.864
 4728POPC   GL160457   5.898   8.985   6.164
 4728POPC   GL260458   5.918   9.042   6.164
 4728POPC   C1A60459   5.825   8.970   6.464
 4728POPC   D2A60460   5.915   8.938   6.764
 4728POPC   C3A60461   5.840   8.929   7.064
 4728POPC   C4A60462   5.852   8.932   7.364
 4728POPC   C1B60463   6.097   9.103   6.464
 4728POPC   C2B60464   6.095   9.141   6.764
 4728POPC   C3B60465   6.021   9.097   7.064
 4728POPC   C4B60466   6.067   9.135   7.364
 4729POPC   NC360467  32.978  42.373   5.564
 4729POPC   PO460468  33.052  42.331   5.864
 4729POPC   GL160469  32.983  42.324   6.164
 4729POPC   GL260470  33.155  42.293   6.164
 4729POPC   C1A60471  33.031  42.321   6.464
 4729POPC   D2A60472  33.037  42.312   6.764
 4729POPC   C3A60473  33.065  42.326   7.064
 4729POPC   C4A60474  33.073  42.376   7.364
 4729POPC   C1B60475  33.212  42.242   6.464
 4729POPC   C2B60476  33.247  42.202   6.764
 4729POPC   C3B60477  33.268  42.261   7.064
 4729POPC   C4B60478  33.284  42.185   7.364
 4730POPC   NC360479  29.951  19.858   5.564
 4730POPC   PO460480  29.926  19.869   5.864
 4730POPC   GL160481  29.927  19.884   6.164
 4730POPC   GL260482  29.973  19.724   6.164
 4730POPC   C1A60483  29.888  19.846   6.464
 4730POPC   D2A60484  29.956  19.789   6.764
 4730POPC   C3A60485  29.945  19.796   7.064
 4730POPC   C4A60486  29.878  19.877   7.364
 4730POPC   C1B60487  30.051  19.694   6.464
 4730POPC   C2B60488  30.061  19.681   6.764
 4730POPC   C3B60489  30.145  19.674   7.064
 4730POPC   C4B60490  30.070  19.688   7.364
 4731POPC   NC360491  20.627  33.024   5.564
 4731POPC   PO460492  20.612  33.022   5.864
 4731POPC   GL160493  20.634  33.040   6.164
 4731POPC   GL260494  20.506  33.073   6.164
 4731POPC   C1A60495  20.569  33.027   6.464
 4731POPC   D2A60496  20.600  33.057   6.764
 4731POPC   C3A60497  20.570  33.044   7.064
 4731POPC   C4A60498  20.624  33.048   7.364
 4731POPC   C1B60499  20.371  33.167   6.464
 4731POPC   C2B60500  20.390  33.186   6.764
 4731POPC   C3B60501  20.397  33.138   7.064
 4731POPC   C4B60502  20.389  33.137   7.364
 4732POPC   NC360503  40.045   1.987   5.564
 4732POPC   PO460504  40.044   1.982   5.864
 4732POPC   GL160505  40.011   1.954   6.164
 4732POPC   GL260506  40.073   1.918   6.164
 4732POPC   C1A60507  40.048   1.963   6.464
 4732POPC   D2A60508  40.027   1.947   6.764
 4732POPC   C3A60509  40.021   1.949   7.064
 4732POPC   C4A60510  40.056   1.944   7.364
 4732POPC   C1B60511  40.249   1.888   6.464
 4732POPC   C2B60512  40.244   1.922   6.764
 4732POPC   C3B60513  40.221   1.860   7.064
 4732POPC   C4B60514  40.238   1.880   7.364
 4733POPC   NC360515   5.867   1.180   5.564
 4733POPC   PO460516   5.867   1.172   5.864
 4733POPC   GL160517   5.911   1.194   6.164
 4733POPC   GL260518   5.950   1.381   6.164
 4733POPC   C1A60519   5.844   1.258   6.464
 4733POPC   D2A60520   5.861   1.199   6.764
 4733POPC   C3A60521   5.906   1.237   7.064
 4733POPC   C4A60522   5.866   1.222   7.364
 4733POPC   C1B60523   5.927   1.410   6.464
 4733POPC   C2B60524   5.902   1.410   6.764
 4733POPC   C3B60525   5.968   1.482   7.064
 4733POPC   C4B60526   5.985   1.469   7.364
 4734POPC   NC360527  13.584   0.442   5.564
 4734POPC   PO460528  13.665   0.443   5.864
 4734POPC   GL160529  13.579   0.420   6.164
 4734POPC   GL260530  13.505   0.431   6.164
 4734POPC   C1A60531  13.624   0.469   6.464
 4734POPC   D2A60532  13.674   0.412   6.764
 4734POPC   C3A60533  13.655   0.469   7.064
 4734POPC   C4A60534  13.664   0.408   7.364
 4734POPC   C1B60535  13.392   0.505   6.464
 4734POPC   C2B60536  13.379   0.457   6.764
 4734POPC   C3B60537  13.411   0.464   7.064
 4734POPC   C4B60538  13.346   0.481   7.364
 4735POPC   NC360539  35.315   2.738   5.564
 4735POPC   PO460540  35.399   2.800   5.864
 4735POPC   GL160541  35.398   2.755   6.164
 4735POPC   GL260542  35.225   2.717   6.164
 4735POPC   C1A60543  35.331   2.718   6.464
 4735POPC   D2A60544  35.312   2.748   6.764
 4735POPC   C3A60545  35.349   2.721   7.064
 4735POPC   C4A60546  35.387   2.745   7.364
 4735POPC   C1B60547  35.187   2.623   6.464
 4735POPC   C2B60548  35.172   2.642   6.764
 4735POPC   C3B60549  35.159   2.591   7.064
 4735POPC   C4B60550  35.117   2.610   7.364
 4736POPC   NC360551  36.952  19.806   5.564
 4736POPC   PO460552  36.938  19.820   5.864
 4736POPC   GL160553  36.881  19.790   6.164
 4736POPC   GL260554  36.967  19.695   6.164
 4736POPC   C1A60555  36.890  19.828   6.464
 4736POPC   D2A60556  36.882  19.799   6.764
 4736POPC   C3A60557  36.951  19.840   7.064
 4736POPC   C4A60558  36.882  19.787   7.364
 4736POPC   C1B60559  37.025  19.643   6.464
 4736POPC   C2B60560  36.988  19.585   6.764
 4736POPC   C3B60561  36.970  19.643   7.064
 4736POPC   C4B60562  37.017  19.577   7.364
 4737POPC   NC360563   5.053   1.991   5.564
 4737POPC   PO460564   5.083   1.995   5.864
 4737POPC   GL160565   5.101   1.985   6.164
 4737POPC   GL260566   4.984   2.023   6.164
 4737POPC   C1A60567   5.051   2.033   6.464
 4737POPC   D2A60568   5.082   2.030   6.764
 4737POPC   C3A60569   5.045   1.963   7.064
 4737POPC   C4A60570   5.133   1.998   7.364
 4737POPC   C1B60571   4.842   1.912   6.464
 4737POPC   C2B60572   4.846   1.979   6.764
 4737POPC   C3B60573   4.893   2.000   7.064
 4737POPC   C4B60574   4.826   1.983   7.364
 4738POPC   NC360575  36.094  20.632   5.564
 4738POPC   PO460576  36.109  20.611   5.864
 4738POPC   GL160577  36.078  20.624   6.164
 4738POPC   GL260578  36.050  20.610   6.164
 4738POPC   C1A60579  36.166  20.597   6.464
 4738POPC   D2A60580  36.151  20.569   6.764
 4738POPC   C3A60581  36.141  20.606   7.064
 4738POPC   C4A60582  36.157  20.644   7.364
 4738POPC   C1B60583  35.931  20.649   6.464
 4738POPC   C2B60584  35.925  20.691   6.764
 4738POPC   C3B60585  35.890  20.616   7.064
 4738POPC   C4B60586  35.899  20.678   7.364
 4739POPC   NC360587   8.216  35.313   5.564
 4739POPC   PO460588   8.182  35.379   5.864
 4739POPC   GL160589   8.159  35.345   6.164
 4739POPC   GL260590   8.092  35.258   6.164
 4739POPC   C1A60591   8.236  35.325   6.464
 4739POPC   D2A60592   8.165  35.401   6.764
 4739POPC   C3A60593   8.210  35.389   7.064
 4739POPC   C4A60594   8.213  35.363   7.364
 4739POPC   C1B60595   8.015  35.235   6.464
 4739POPC   C2B60596   7.978  35.178   6.764
 4739POPC   C3B60597   7.995  35.240   7.064
 4739POPC   C4B60598   7.997  35.248   7.364
 4740POPC   NC360599  29.113  11.346   5.564
 4740POPC   PO460600  29.175  11.319   5.864
 4740POPC   GL160601  29.100  11.347   6.164
 4740POPC   GL260602  29.194  11.375   6.164
 4740POPC   C1A60603  29.122  11.253   6.464
 4740POPC   D2A60604  29.145  11.315   6.764
 4740POPC   C3A60605  29.129  11.344   7.064
 4740POPC   C4A60606  29.119  11.341   7.364
 4740POPC   C1B60607  29.252  11.574   6.464
 4740POPC   C2B60608  29.273  11.553   6.764
 4740POPC   C3B60609  29.233  11.481   7.064
 4740POPC   C4B60610  29.292  11.537   7.364
 4741POPC   NC360611  19.102  44.677   5.564
 4741POPC   PO460612  19.098  44.621   5.864
 4741POPC   GL160613  19.066  44.674   6.164
 4741POPC   GL260614  18.926  44.752   6.164
 4741POPC   C1A60615  19.090  44.683   6.464
 4741POPC   D2A60616  19.053  44.684   6.764
 4741POPC   C3A60617  19.056  44.712   7.064
 4741POPC   C4A60618  19.091  44.696   7.364
 4741POPC   C1B60619  18.894  44.761   6.464
 4741POPC   C2B60620  18.812  44.779   6.764
 4741POPC   C3B60621  18.833  44.828   7.064
 4741POPC   C4B60622  18.873  44.779   7.364
 4742POPC   NC360623  39.279  35.372   5.564
 4742POPC   PO460624  39.211  35.309   5.864
 4742POPC   GL160625  39.247  35.373   6.164
 4742POPC   GL260626  39.355  35.371   6.164
 4742POPC   C1A60627  39.246  35.394   6.464
 4742POPC   D2A60628  39.272  35.390   6.764
 4742POPC   C3A60629  39.184  35.309   7.064
 4742POPC   C4A60630  39.186  35.312   7.364
 4742POPC   C1B60631  39.417  35.475   6.464
 4742POPC   C2B60632  39.408  35.492   6.764
 4742POPC   C3B60633  39.432  35.472   7.064
 4742POPC   C4B60634  39.408  35.477   7.364
 4743POPC   NC360635  22.948   0.400   5.564
 4743POPC   PO460636  22.981   0.417   5.864
 4743POPC   GL160637  22.952   0.416   6.164
 4743POPC   GL260638  22.986   0.577   6.164
 4743POPC   C1A60639  22.986   0.461   6.464
 4743POPC   D2A60640  22.898   0.484   6.764
 4743POPC   C3A60641  22.974   0.412   7.064
 4743POPC   C4A60642  22.894   0.421   7.364
 4743POPC   C1B60643  23.147   0.594   6.464
 4743POPC   C2B60644  23.056   0.582   6.764
 4743POPC   C3B60645  23.054   0.635   7.064
 4743POPC   C4B60646  23.146   0.667   7.364
 4744POPC   NC360647  31.472  32.999   5.564
 4744POPC   PO460648  31.453  33.028   5.864
 4744POPC   GL160649  31.465  33.034   6.164
 4744POPC   GL260650  31.392  32.957   6.164
 4744POPC   C1A60651  31.481  33.050   6.464
 4744POPC   D2A60652  31.436  32.987   6.764
 4744POPC   C3A60653  31.518  33.024   7.064
 4744POPC   C4A60654  31.495  33.069   7.364
 4744POPC   C1B60655  31.231  33.023   6.464
 4744POPC   C2B60656  31.186  33.019   6.764
 4744POPC   C3B60657  31.252  32.965   7.064
 4744POPC   C4B60658  31.275  33.004   7.364
 4745POPC   NC360659  44.710  32.298   5.564
 4745POPC   PO460660  44.656  32.270   5.864
 4745POPC   GL160661  44.652  32.265   6.164
 4745POPC   GL260662  44.698  32.384   6.164
 4745POPC   C1A60663  44.657  32.208   6.464
 4745POPC   D2A60664  44.613  32.216   6.764
 4745POPC   C3A60665  44.665  32.288   7.064
 4745POPC   C4A60666  44.711  32.212   7.364
 4745POPC   C1B60667  44.676  32.520   6.464
 4745POPC   C2B60668  44.603  32.451   6.764
 4745POPC   C3B60669  44.635  32.462   7.064
 4745POPC   C4B60670  44.616  32.546   7.364
 4746POPC   NC360671  11.266  31.448   5.564
 4746POPC   PO460672  11.284  31.484   5.864
 4746POPC   GL160673  11.279  31.453   6.164
 4746POPC   GL260674  11.239  31.353   6.164
 4746POPC   C1A60675  11.298  31.462   6.464
 4746POPC   D2A60676  11.340  31.447   6.764
 4746POPC   C3A60677  11.322  31.443   7.064
 4746POPC   C4A60678  11.267  31.427   7.364
 4746POPC   C1B60679  11.141  31.311   6.464
 4746POPC   C2B60680  11.073  31.337   6.764
 4746POPC   C3B60681  11.117  31.369   7.064
 4746POPC   C4B60682  11.072  31.345   7.364
 4747POPC   NC360683   9.764  21.399   5.564
 4747POPC   PO460684   9.732  21.405   5.864
 4747POPC   GL160685   9.736  21.363   6.164
 4747POPC   GL260686   9.586  21.350   6.164
 4747POPC   C1A60687   9.749  21.362   6.464
 4747POPC   D2A60688   9.727  21.406   6.764
 4747POPC   C3A60689   9.716  21.375   7.064
 4747POPC   C4A60690   9.765  21.421   7.364
 4747POPC   C1B60691   9.533  21.389   6.464
 4747POPC   C2B60692   9.492  21.378   6.764
 4747POPC   C3B60693   9.528  21.428   7.064
 4747POPC   C4B60694   9.463  21.409   7.364
 4748POPC   NC360695  44.627  22.197   5.564
 4748POPC   PO460696  44.656  22.153   5.864
 4748POPC   GL160697  44.665  22.155   6.164
 4748POPC   GL260698  44.517  22.162   6.164
 4748POPC   C1A60699  44.700  22.156   6.464
 4748POPC   D2A60700  44.634  22.122   6.764
 4748POPC   C3A60701  44.694  22.209   7.064
 4748POPC   C4A60702  44.655  22.169   7.364
 4748POPC   C1B60703  44.391  22.181   6.464
 4748POPC   C2B60704  44.433  22.147   6.764
 4748POPC   C3B60705  44.368  22.211   7.064
 4748POPC   C4B60706  44.381  22.215   7.364
 4749POPC   NC360707  44.708  20.589   5.564
 4749POPC   PO460708  44.675  20.615   5.864
 4749POPC   GL160709  44.668  20.566   6.164
 4749POPC   GL260710  44.584  20.686   6.164
 4749POPC   C1A60711  44.674  20.621   6.464
 4749POPC   D2A60712  44.698  20.607   6.764
 4749POPC   C3A60713  44.679  20.632   7.064
 4749POPC   C4A60714  44.646  20.631   7.364
 4749POPC   C1B60715  44.458  20.678   6.464
 4749POPC   C2B60716  44.395  20.737   6.764
 4749POPC   C3B60717  44.480  20.694   7.064
 4749POPC   C4B60718  44.421  20.732   7.364
 4750POPC   NC360719   9.741  24.442   5.564
 4750POPC   PO460720   9.752  24.469   5.864
 4750POPC   GL160721   9.767  24.474   6.164
 4750POPC   GL260722   9.816  24.373   6.164
 4750POPC   C1A60723   9.747  24.534   6.464
 4750POPC   D2A60724   9.723  24.474   6.764
 4750POPC   C3A60725   9.763  24.446   7.064
 4750POPC   C4A60726   9.754  24.504   7.364
 4750POPC   C1B60727   9.925  24.263   6.464
 4750POPC   C2B60728   9.884  24.315   6.764
 4750POPC   C3B60729   9.882  24.297   7.064
 4750POPC   C4B60730   9.867  24.272   7.364
 4751POPC   NC360731  29.940  15.167   5.564
 4751POPC   PO460732  29.874  15.166   5.864
 4751POPC   GL160733  29.937  15.211   6.164
 4751POPC   GL260734  29.827  15.136   6.164
 4751POPC   C1A60735  29.880  15.194   6.464
 4751POPC   D2A60736  29.967  15.160   6.764
 4751POPC   C3A60737  29.964  15.149   7.064
 4751POPC   C4A60738  29.917  15.158   7.364
 4751POPC   C1B60739  29.690  15.190   6.464
 4751POPC   C2B60740  29.649  15.141   6.764
 4751POPC   C3B60741  29.643  15.121   7.064
 4751POPC   C4B60742  29.674  15.208   7.364
 4752POPC   NC360743  33.806   8.977   5.564
 4752POPC   PO460744  33.814   8.975   5.864
 4752POPC   GL160745  33.773   8.936   6.164
 4752POPC   GL260746  33.837   9.095   6.164
 4752POPC   C1A60747  33.784   8.967   6.464
 4752POPC   D2A60748  33.820   8.939   6.764
 4752POPC   C3A60749  33.833   8.927   7.064
 4752POPC   C4A60750  33.823   8.997   7.364
 4752POPC   C1B60751  33.873   9.195   6.464
 4752POPC   C2B60752  33.954   9.166   6.764
 4752POPC   C3B60753  33.944   9.157   7.064
 4752POPC   C4B60754  33.886   9.150   7.364
 4753POPC   NC360755  42.379   1.220   5.564
 4753POPC   PO460756  42.358   1.180   5.864
 4753POPC   GL160757  42.377   1.260   6.164
 4753POPC   GL260758  42.393   1.119   6.164
 4753POPC   C1A60759  42.371   1.241   6.464
 4753POPC   D2A60760  42.310   1.212   6.764
 4753POPC   C3A60761  42.362   1.243   7.064
 4753POPC   C4A60762  42.291   1.173   7.364
 4753POPC   C1B60763  42.506   1.027   6.464
 4753POPC   C2B60764  42.480   1.030   6.764
 4753POPC   C3B60765  42.448   0.949   7.064
 4753POPC   C4B60766  42.418   0.958   7.364
 4754POPC   NC360767   0.453  27.593   5.564
 4754POPC   PO460768   0.414  27.626   5.864
 4754POPC   GL160769   0.406  27.580   6.164
 4754POPC   GL260770   0.339  27.654   6.164
 4754POPC   C1A60771   0.476  27.603   6.464
 4754POPC   D2A60772   0.464  27.546   6.764
 4754POPC   C3A60773   0.484  27.622   7.064
 4754POPC   C4A60774   0.446  27.594   7.364
 4754POPC   C1B60775   0.279  27.809   6.464
 4754POPC   C2B60776   0.276  27.736   6.764
 4754POPC   C3B60777   0.278  27.818   7.064
 4754POPC   C4B60778   0.233  27.765   7.364
 4755POPC   NC360779   3.545  43.932   5.564
 4755POPC   PO460780   3.574  43.872   5.864
 4755POPC   GL160781   3.575  43.842   6.164
 4755POPC   GL260782   3.382  43.945   6.164
 4755POPC   C1A60783   3.590  43.903   6.464
 4755POPC   D2A60784   3.555  43.904   6.764
 4755POPC   C3A60785   3.534  43.895   7.064
 4755POPC   C4A60786   3.507  43.863   7.364
 4755POPC   C1B60787   3.273  43.904   6.464
 4755POPC   C2B60788   3.303  43.886   6.764
 4755POPC   C3B60789   3.314  43.899   7.064
 4755POPC   C4B60790   3.288  43.942   7.364
 4756POPC   NC360791   0.459  36.148   5.564
 4756POPC   PO460792   0.399  36.098   5.864
 4756POPC   GL160793   0.477  36.127   6.164
 4756POPC   GL260794   0.285  36.177   6.164
 4756POPC   C1A60795   0.423  36.147   6.464
 4756POPC   D2A60796   0.419  36.133   6.764
 4756POPC   C3A60797   0.401  36.101   7.064
 4756POPC   C4A60798   0.438  36.160   7.364
 4756POPC   C1B60799   0.258  36.236   6.464
 4756POPC   C2B60800   0.212  36.270   6.764
 4756POPC   C3B60801   0.168  36.211   7.064
 4756POPC   C4B60802   0.265  36.229   7.364
 4757POPC   NC360803  36.863   5.855   5.564
 4757POPC   PO460804  36.892   5.900   5.864
 4757POPC   GL160805  36.925   5.869   6.164
 4757POPC   GL260806  37.015   5.797   6.164
 4757POPC   C1A60807  36.924   5.896   6.464
 4757POPC   D2A60808  36.892   5.844   6.764
 4757POPC   C3A60809  36.939   5.837   7.064
 4757POPC   C4A60810  36.942   5.878   7.364
 4757POPC   C1B60811  37.130   5.695   6.464
 4757POPC   C2B60812  37.149   5.679   6.764
 4757POPC   C3B60813  37.079   5.701   7.064
 4757POPC   C4B60814  37.062   5.753   7.364
 4758POPC   NC360815   1.254  19.079   5.564
 4758POPC   PO460816   1.227  19.076   5.864
 4758POPC   GL160817   1.260  19.077   6.164
 4758POPC   GL260818   1.086  19.110   6.164
 4758POPC   C1A60819   1.210  19.063   6.464
 4758POPC   D2A60820   1.232  19.097   6.764
 4758POPC   C3A60821   1.263  19.070   7.064
 4758POPC   C4A60822   1.181  19.047   7.364
 4758POPC   C1B60823   1.032  19.156   6.464
 4758POPC   C2B60824   0.942  19.133   6.764
 4758POPC   C3B60825   0.945  19.179   7.064
 4758POPC   C4B60826   0.965  19.157   7.364
 4759POPC   NC360827  42.285   8.170   5.564
 4759POPC   PO460828  42.363   8.197   5.864
 4759POPC   GL160829  42.322   8.163   6.164
 4759POPC   GL260830  42.393   8.316   6.164
 4759POPC   C1A60831  42.373   8.212   6.464
 4759POPC   D2A60832  42.307   8.213   6.764
 4759POPC   C3A60833  42.341   8.205   7.064
 4759POPC   C4A60834  42.368   8.170   7.364
 4759POPC   C1B60835  42.529   8.345   6.464
 4759POPC   C2B60836  42.584   8.338   6.764
 4759POPC   C3B60837  42.551   8.313   7.064
 4759POPC   C4B60838  42.502   8.372   7.364
 4760POPC   NC360839  33.755  23.754   5.564
 4760POPC   PO460840  33.761  23.752   5.864
 4760POPC   GL160841  33.779  23.756   6.164
 4760POPC   GL260842  33.938  23.731   6.164
 4760POPC   C1A60843  33.848  23.700   6.464
 4760POPC   D2A60844  33.771  23.763   6.764
 4760POPC   C3A60845  33.782  23.704   7.064
 4760POPC   C4A60846  33.835  23.696   7.364
 4760POPC   C1B60847  34.074  23.691   6.464
 4760POPC   C2B60848  34.060  23.674   6.764
 4760POPC   C3B60849  34.016  23.682   7.064
 4760POPC   C4B60850  34.016  23.736   7.364
 4761POPC   NC360851  31.456  16.745   5.564
 4761POPC   PO460852  31.428  16.720   5.864
 4761POPC   GL160853  31.512  16.775   6.164
 4761POPC   GL260854  31.536  16.861   6.164
 4761POPC   C1A60855  31.473  16.741   6.464
 4761POPC   D2A60856  31.464  16.778   6.764
 4761POPC   C3A60857  31.443  16.767   7.064
 4761POPC   C4A60858  31.488  16.710   7.364
 4761POPC   C1B60859  31.584  16.943   6.464
 4761POPC   C2B60860  31.571  16.969   6.764
 4761POPC   C3B60861  31.570  16.971   7.064
 4761POPC   C4B60862  31.655  16.939   7.364
 4762POPC   NC360863  17.459   4.357   5.564
 4762POPC   PO460864  17.523   4.308   5.864
 4762POPC   GL160865  17.522   4.362   6.164
 4762POPC   GL260866  17.476   4.451   6.164
 4762POPC   C1A60867  17.509   4.287   6.464
 4762POPC   D2A60868  17.498   4.328   6.764
 4762POPC   C3A60869  17.549   4.302   7.064
 4762POPC   C4A60870  17.481   4.309   7.364
 4762POPC   C1B60871  17.409   4.570   6.464
 4762POPC   C2B60872  17.375   4.547   6.764
 4762POPC   C3B60873  17.346   4.523   7.064
 4762POPC   C4B60874  17.360   4.588   7.364
 4763POPC   NC360875   7.421  17.517   5.564
 4763POPC   PO460876   7.439  17.460   5.864
 4763POPC   GL160877   7.387  17.492   6.164
 4763POPC   GL260878   7.417  17.670   6.164
 4763POPC   C1A60879   7.469  17.483   6.464
 4763POPC   D2A60880   7.388  17.481   6.764
 4763POPC   C3A60881   7.460  17.552   7.064
 4763POPC   C4A60882   7.399  17.495   7.364
 4763POPC   C1B60883   7.401  17.779   6.464
 4763POPC   C2B60884   7.448  17.730   6.764
 4763POPC   C3B60885   7.420  17.744   7.064
 4763POPC   C4B60886   7.422  17.715   7.364
 4764POPC   NC360887  24.510  20.595   5.564
 4764POPC   PO460888  24.451  20.585   5.864
 4764POPC   GL160889  24.485  20.594   6.164
 4764POPC   GL260890  24.543  20.465   6.164
 4764POPC   C1A60891  24.462  20.579   6.464
 4764POPC   D2A60892  24.486  20.656   6.764
 4764POPC   C3A60893  24.533  20.589   7.064
 4764POPC   C4A60894  24.492  20.653   7.364
 4764POPC   C1B60895  24.540  20.389   6.464
 4764POPC   C2B60896  24.609  20.362   6.764
 4764POPC   C3B60897  24.518  20.376   7.064
 4764POPC   C4B60898  24.557  20.336   7.364
 4765POPC   NC360899  17.499   0.404   5.564
 4765POPC   PO460900  17.543   0.471   5.864
 4765POPC   GL160901  17.467   0.465   6.164
 4765POPC   GL260902  17.363   0.411   6.164
 4765POPC   C1A60903  17.549   0.448   6.464
 4765POPC   D2A60904  17.465   0.474   6.764
 4765POPC   C3A60905  17.538   0.433   7.064
 4765POPC   C4A60906  17.490   0.412   7.364
 4765POPC   C1B60907  17.284   0.487   6.464
 4765POPC   C2B60908  17.303   0.479   6.764
 4765POPC   C3B60909  17.237   0.444   7.064
 4765POPC   C4B60910  17.222   0.408   7.364
 4766POPC   NC360911  35.383   1.210   5.564
 4766POPC   PO460912  35.386   1.170   5.864
 4766POPC   GL160913  35.371   1.178   6.164
 4766POPC   GL260914  35.411   1.104   6.164
 4766POPC   C1A60915  35.389   1.234   6.464
 4766POPC   D2A60916  35.349   1.209   6.764
 4766POPC   C3A60917  35.306   1.230   7.064
 4766POPC   C4A60918  35.341   1.248   7.364
 4766POPC   C1B60919  35.390   0.930   6.464
 4766POPC   C2B60920  35.332   0.981   6.764
 4766POPC   C3B60921  35.411   1.012   7.064
 4766POPC   C4B60922  35.369   1.003   7.364
 4767POPC   NC360923  19.080  22.175   5.564
 4767POPC   PO460924  19.064  22.181   5.864
 4767POPC   GL160925  19.108  22.139   6.164
 4767POPC   GL260926  19.044  22.064   6.164
 4767POPC   C1A60927  19.099  22.113   6.464
 4767POPC   D2A60928  19.010  22.127   6.764
 4767POPC   C3A60929  19.009  22.170   7.064
 4767POPC   C4A60930  19.028  22.131   7.364
 4767POPC   C1B60931  19.040  21.921   6.464
 4767POPC   C2B60932  19.092  21.927   6.764
 4767POPC   C3B60933  19.045  21.863   7.064
 4767POPC   C4B60934  19.028  21.871   7.364
 4768POPC   NC360935   8.239  38.454   5.564
 4768POPC   PO460936   8.157  38.453   5.864
 4768POPC   GL160937   8.164  38.492   6.164
 4768POPC   GL260938   8.350  38.524   6.164
 4768POPC   C1A60939   8.197  38.430   6.464
 4768POPC   D2A60940   8.176  38.416   6.764
 4768POPC   C3A60941   8.149  38.427   7.064
 4768POPC   C4A60942   8.222  38.427   7.364
 4768POPC   C1B60943   8.462  38.599   6.464
 4768POPC   C2B60944   8.449  38.612   6.764
 4768POPC   C3B60945   8.377  38.609   7.064
 4768POPC   C4B60946   8.417  38.522   7.364
 4769POPC   NC360947  36.869  41.523   5.564
 4769POPC   PO460948  36.906  41.539   5.864
 4769POPC   GL160949  36.898  41.583   6.164
 4769POPC   GL260950  36.786  41.642   6.164
 4769POPC   C1A60951  36.904  41.578   6.464
 4769POPC   D2A60952  36.905  41.541   6.764
 4769POPC   C3A60953  36.897  41.575   7.064
 4769POPC   C4A60954  36.935  41.555   7.364
 4769POPC   C1B60955  36.743  41.787   6.464
 4769POPC   C2B60956  36.729  41.788   6.764
 4769POPC   C3B60957  36.771  41.724   7.064
 4769POPC   C4B60958  36.797  41.725   7.364
 4770POPC   NC360959  18.329  18.258   5.564
 4770POPC   PO460960  18.316  18.326   5.864
 4770POPC   GL160961  18.285  18.237   6.164
 4770POPC   GL260962  18.334  18.180   6.164
 4770POPC   C1A60963  18.249  18.252   6.464
 4770POPC   D2A60964  18.277  18.240   6.764
 4770POPC   C3A60965  18.237  18.276   7.064
 4770POPC   C4A60966  18.241  18.245   7.364
 4770POPC   C1B60967  18.496  18.108   6.464
 4770POPC   C2B60968  18.479  18.158   6.764
 4770POPC   C3B60969  18.505  18.152   7.064
 4770POPC   C4B60970  18.501  18.086   7.364
 4771POPC   NC360971  16.742  42.376   5.564
 4771POPC   PO460972  16.715  42.384   5.864
 4771POPC   GL160973  16.716  42.344   6.164
 4771POPC   GL260974  16.845  42.297   6.164
 4771POPC   C1A60975  16.722  42.340   6.464
 4771POPC   D2A60976  16.719  42.349   6.764
 4771POPC   C3A60977  16.742  42.342   7.064
 4771POPC   C4A60978  16.771  42.289   7.364
 4771POPC   C1B60979  16.952  42.281   6.464
 4771POPC   C2B60980  16.941  42.229   6.764
 4771POPC   C3B60981  16.995  42.215   7.064
 4771POPC   C4B60982  16.921  42.220   7.364
 4772POPC   NC360983  39.205  18.262   5.564
 4772POPC   PO460984  39.231  18.322   5.864
 4772POPC   GL160985  39.235  18.238   6.164
 4772POPC   GL260986  39.152  18.361   6.164
 4772POPC   C1A60987  39.230  18.252   6.464
 4772POPC   D2A60988  39.278  18.247   6.764
 4772POPC   C3A60989  39.260  18.254   7.064
 4772POPC   C4A60990  39.188  18.316   7.364
 4772POPC   C1B60991  38.994  18.373   6.464
 4772POPC   C2B60992  38.999  18.430   6.764
 4772POPC   C3B60993  39.043  18.375   7.064
 4772POPC   C4B60994  39.029  18.375   7.364
 4773POPC   NC360995  21.419  26.049   5.564
 4773POPC   PO460996  21.339  26.056   5.864
 4773POPC   GL160997  21.431  26.011   6.164
 4773POPC   GL260998  21.490  26.045   6.164
 4773POPC   C1A60999  21.385  26.003   6.464
 4773POPC   D2A61000  21.360  26.036   6.764
 4773POPC   C3A61001  21.427  26.060   7.064
 4773POPC   C4A61002  21.435  26.068   7.364
 4773POPC   C1B61003  21.611  26.139   6.464
 4773POPC   C2B61004  21.681  26.081   6.764
 4773POPC   C3B61005  21.663  26.107   7.064
 4773POPC   C4B61006  21.648  26.057   7.364
 4774POPC   NC361007  36.176  32.229   5.564
 4774POPC   PO461008  36.090  32.199   5.864
 4774POPC   GL161009  36.176  32.199   6.164
 4774POPC   GL261010  36.204  32.170   6.164
 4774POPC   C1A61011  36.101  32.265   6.464
 4774POPC   D2A61012  36.096  32.245   6.764
 4774POPC   C3A61013  36.161  32.215   7.064
 4774POPC   C4A61014  36.134  32.247   7.364
 4774POPC   C1B61015  36.230  31.978   6.464
 4774POPC   C2B61016  36.262  32.054   6.764
 4774POPC   C3B61017  36.243  31.990   7.064
 4774POPC   C4B61018  36.254  31.985   7.364
 4775POPC   NC361019  33.764  29.135   5.564
 4775POPC   PO461020  33.794  29.152   5.864
 4775POPC   GL161021  33.818  29.165   6.164
 4775POPC   GL261022  33.662  29.140   6.164
 4775POPC   C1A61023  33.831  29.112   6.464
 4775POPC   D2A61024  33.786  29.138   6.764
 4775POPC   C3A61025  33.830  29.152   7.064
 4775POPC   C4A61026  33.784  29.164   7.364
 4775POPC   C1B61027  33.589  29.113   6.464
 4775POPC   C2B61028  33.585  29.126   6.764
 4775POPC   C3B61029  33.561  29.094   7.064
 4775POPC   C4B61030  33.566  29.122   7.364
 4776POPC   NC361031  26.030  23.683   5.564
 4776POPC   PO461032  26.080  23.711   5.864
 4776POPC   GL161033  26.015  23.684   6.164
 4776POPC   GL261034  25.885  23.760   6.164
 4776POPC   C1A61035  26.043  23.752   6.464
 4776POPC   D2A61036  26.078  23.714   6.764
 4776POPC   C3A61037  26.024  23.670   7.064
 4776POPC   C4A61038  26.040  23.689   7.364
 4776POPC   C1B61039  25.784  23.735   6.464
 4776POPC   C2B61040  25.787  23.778   6.764
 4776POPC   C3B61041  25.824  23.735   7.064
 4776POPC   C4B61042  25.834  23.737   7.364
 4777POPC   NC361043  32.987  22.123   5.564
 4777POPC   PO461044  32.991  22.129   5.864
 4777POPC   GL161045  33.039  22.153   6.164
 4777POPC   GL261046  32.919  22.277   6.164
 4777POPC   C1A61047  33.033  22.116   6.464
 4777POPC   D2A61048  32.992  22.165   6.764
 4777POPC   C3A61049  33.010  22.122   7.064
 4777POPC   C4A61050  33.066  22.155   7.364
 4777POPC   C1B61051  32.815  22.312   6.464
 4777POPC   C2B61052  32.856  22.305   6.764
 4777POPC   C3B61053  32.828  22.295   7.064
 4777POPC   C4B61054  32.821  22.258   7.364
 4778POPC   NC361055  31.426  33.803   5.564
 4778POPC   PO461056  31.433  33.785   5.864
 4778POPC   GL161057  31.426  33.810   6.164
 4778POPC   GL261058  31.565  33.918   6.164
 4778POPC   C1A61059  31.470  33.850   6.464
 4778POPC   D2A61060  31.436  33.807   6.764
 4778POPC   C3A61061  31.444  33.753   7.064
 4778POPC   C4A61062  31.510  33.783   7.364
 4778POPC   C1B61063  31.617  34.020   6.464
 4778POPC   C2B61064  31.569  33.960   6.764
 4778POPC   C3B61065  31.647  33.984   7.064
 4778POPC   C4B61066  31.615  34.054   7.364
 4779POPC   NC361067  13.638  17.474   5.564
 4779POPC   PO461068  13.591  17.547   5.864
 4779POPC   GL161069  13.666  17.540   6.164
 4779POPC   GL261070  13.673  17.408   6.164
 4779POPC   C1A61071  13.617  17.540   6.464
 4779POPC   D2A61072  13.613  17.495   6.764
 4779POPC   C3A61073  13.655  17.550   7.064
 4779POPC   C4A61074  13.625  17.473   7.364
 4779POPC   C1B61075  13.807  17.285   6.464
 4779POPC   C2B61076  13.784  17.322   6.764
 4779POPC   C3B61077  13.833  17.321   7.064
 4779POPC   C4B61078  13.842  17.370   7.364
 4780POPC   NC361079  12.829   2.789   5.564
 4780POPC   PO461080  12.860   2.806   5.864
 4780POPC   GL161081  12.823   2.778   6.164
 4780POPC   GL261082  12.841   2.864   6.164
 4780POPC   C1A61083  12.860   2.752   6.464
 4780POPC   D2A61084  12.872   2.724   6.764
 4780POPC   C3A61085  12.810   2.803   7.064
 4780POPC   C4A61086  12.833   2.812   7.364
 4780POPC   C1B61087  12.909   3.050   6.464
 4780POPC   C2B61088  12.853   2.982   6.764
 4780POPC   C3B61089  12.872   2.971   7.064
 4780POPC   C4B61090  12.884   2.984   7.364
 4781POPC   NC361091  29.165  22.177   5.564
 4781POPC   PO461092  29.110  22.184   5.864
 4781POPC   GL161093  29.104  22.127   6.164
 4781POPC   GL261094  29.093  22.306   6.164
 4781POPC   C1A61095  29.122  22.118   6.464
 4781POPC   D2A61096  29.155  22.194   6.764
 4781POPC   C3A61097  29.191  22.187   7.064
 4781POPC   C4A61098  29.146  22.196   7.364
 4781POPC   C1B61099  29.086  22.397   6.464
 4781POPC   C2B61100  29.073  22.416   6.764
 4781POPC   C3B61101  29.077  22.400   7.064
 4781POPC   C4B61102  29.059  22.439   7.364
 4782POPC   NC361103  16.773   2.773   5.564
 4782POPC   PO461104  16.708   2.736   5.864
 4782POPC   GL161105  16.682   2.770   6.164
 4782POPC   GL261106  16.820   2.639   6.164
 4782POPC   C1A61107  16.735   2.779   6.464
 4782POPC   D2A61108  16.707   2.721   6.764
 4782POPC   C3A61109  16.758   2.717   7.064
 4782POPC   C4A61110  16.770   2.769   7.364
 4782POPC   C1B61111  16.885   2.512   6.464
 4782POPC   C2B61112  16.829   2.510   6.764
 4782POPC   C3B61113  16.887   2.550   7.064
 4782POPC   C4B61114  16.887   2.566   7.364
 4783POPC   NC361115  37.728  32.993   5.564
 4783POPC   PO461116  37.632  32.995   5.864
 4783POPC   GL161117  37.717  32.995   6.164
 4783POPC   GL261118  37.801  33.158   6.164
 4783POPC   C1A61119  37.704  33.004   6.464
 4783POPC   D2A61120  37.684  33.002   6.764
 4783POPC   C3A61121  37.650  32.997   7.064
 4783POPC   C4A61122  37.673  33.006   7.364
 4783POPC   C1B61123  37.798  33.198   6.464
 4783POPC   C2B61124  37.802  33.208   6.764
 4783POPC   C3B61125  37.877  33.218   7.064
 4783POPC   C4B61126  37.856  33.235   7.364
 4784POPC   NC361127   2.815  15.949   5.564
 4784POPC   PO461128   2.744  15.910   5.864
 4784POPC   GL161129   2.767  15.965   6.164
 4784POPC   GL261130   2.618  15.902   6.164
 4784POPC   C1A61131   2.768  15.942   6.464
 4784POPC   D2A61132   2.803  15.921   6.764
 4784POPC   C3A61133   2.742  15.965   7.064
 4784POPC   C4A61134   2.763  15.991   7.364
 4784POPC   C1B61135   2.527  15.795   6.464
 4784POPC   C2B61136   2.604  15.849   6.764
 4784POPC   C3B61137   2.565  15.801   7.064
 4784POPC   C4B61138   2.577  15.764   7.364
 4785POPC   NC361139   8.927  15.177   5.564
 4785POPC   PO461140   8.982  15.160   5.864
 4785POPC   GL161141   9.001  15.162   6.164
 4785POPC   GL261142   9.113  15.159   6.164
 4785POPC   C1A61143   8.977  15.144   6.464
 4785POPC   D2A61144   8.939  15.184   6.764
 4785POPC   C3A61145   8.935  15.130   7.064
 4785POPC   C4A61146   8.945  15.207   7.364
 4785POPC   C1B61147   9.260  15.144   6.464
 4785POPC   C2B61148   9.183  15.124   6.764
 4785POPC   C3B61149   9.250  15.155   7.064
 4785POPC   C4B61150   9.204  15.185   7.364
 4786POPC   NC361151  37.698  38.461   5.564
 4786POPC   PO461152  37.709  38.485   5.864
 4786POPC   GL161153  37.719  38.409   6.164
 4786POPC   GL261154  37.749  38.542   6.164
 4786POPC   C1A61155  37.691  38.454   6.464
 4786POPC   D2A61156  37.729  38.449   6.764
 4786POPC   C3A61157  37.728  38.491   7.064
 4786POPC   C4A61158  37.666  38.415   7.364
 4786POPC   C1B61159  37.805  38.737   6.464
 4786POPC   C2B61160  37.809  38.715   6.764
 4786POPC   C3B61161  37.763  38.661   7.064
 4786POPC   C4B61162  37.768  38.725   7.364
 4787POPC   NC361163  23.694  42.380   5.564
 4787POPC   PO461164  23.674  42.327   5.864
 4787POPC   GL161165  23.730  42.290   6.164
 4787POPC   GL261166  23.864  42.436   6.164
 4787POPC   C1A61167  23.689  42.320   6.464
 4787POPC   D2A61168  23.734  42.306   6.764
 4787POPC   C3A61169  23.717  42.313   7.064
 4787POPC   C4A61170  23.761  42.372   7.364
 4787POPC   C1B61171  23.934  42.480   6.464
 4787POPC   C2B61172  23.909  42.494   6.764
 4787POPC   C3B61173  23.965  42.494   7.064
 4787POPC   C4B61174  23.962  42.494   7.364
 4788POPC   NC361175   8.210  37.639   5.564
 4788POPC   PO461176   8.222  37.668   5.864
 4788POPC   GL161177   8.203  37.728   6.164
 4788POPC   GL261178   8.081  37.571   6.164
 4788POPC   C1A61179   8.241  37.709   6.464
 4788POPC   D2A61180   8.173  37.634   6.764
 4788POPC   C3A61181   8.164  37.719   7.064
 4788POPC   C4A61182   8.227  37.727   7.364
 4788POPC   C1B61183   8.031  37.501   6.464
 4788POPC   C2B61184   8.069  37.510   6.764
 4788POPC   C3B61185   8.050  37.451   7.064
 4788POPC   C4B61186   8.036  37.522   7.364
 4789POPC   NC361187  28.419  19.875   5.564
 4789POPC   PO461188  28.393  19.813   5.864
 4789POPC   GL161189  28.336  19.864   6.164
 4789POPC   GL261190  28.382  19.914   6.164
 4789POPC   C1A61191  28.355  19.863   6.464
 4789POPC   D2A61192  28.359  19.789   6.764
 4789POPC   C3A61193  28.391  19.850   7.064
 4789POPC   C4A61194  28.395  19.868   7.364
 4789POPC   C1B61195  28.499  20.027   6.464
 4789POPC   C2B61196  28.509  20.087   6.764
 4789POPC   C3B61197  28.451  20.058   7.064
 4789POPC   C4B61198  28.441  20.028   7.364
 4790POPC   NC361199   0.482  15.141   5.564
 4790POPC   PO461200   0.456  15.150   5.864
 4790POPC   GL161201   0.432  15.197   6.164
 4790POPC   GL261202   0.378  15.280   6.164
 4790POPC   C1A61203   0.430  15.202   6.464
 4790POPC   D2A61204   0.389  15.135   6.764
 4790POPC   C3A61205   0.436  15.215   7.064
 4790POPC   C4A61206   0.406  15.182   7.364
 4790POPC   C1B61207   0.328  15.367   6.464
 4790POPC   C2B61208   0.294  15.403   6.764
 4790POPC   C3B61209   0.380  15.389   7.064
 4790POPC   C4B61210   0.296  15.430   7.364
 4791POPC   NC361211  30.647  43.849   5.564
 4791POPC   PO461212  30.725  43.925   5.864
 4791POPC   GL161213  30.672  43.935   6.164
 4791POPC   GL261214  30.808  43.845   6.164
 4791POPC   C1A61215  30.703  43.909   6.464
 4791POPC   D2A61216  30.706  43.892   6.764
 4791POPC   C3A61217  30.665  43.844   7.064
 4791POPC   C4A61218  30.676  43.845   7.364
 4791POPC   C1B61219  30.991  43.842   6.464
 4791POPC   C2B61220  30.935  43.843   6.764
 4791POPC   C3B61221  30.916  43.881   7.064
 4791POPC   C4B61222  30.922  43.844   7.364
 4792POPC   NC361223  30.727   9.779   5.564
 4792POPC   PO461224  30.657   9.716   5.864
 4792POPC   GL161225  30.664   9.739   6.164
 4792POPC   GL261226  30.526   9.780   6.164
 4792POPC   C1A61227  30.736   9.731   6.464
 4792POPC   D2A61228  30.678   9.738   6.764
 4792POPC   C3A61229  30.730   9.759   7.064
 4792POPC   C4A61230  30.687   9.726   7.364
 4792POPC   C1B61231  30.472   9.717   6.464
 4792POPC   C2B61232  30.436   9.795   6.764
 4792POPC   C3B61233  30.438   9.811   7.064
 4792POPC   C4B61234  30.462   9.797   7.364
 4793POPC   NC361235  38.425  40.016   5.564
 4793POPC   PO461236  38.428  39.987   5.864
 4793POPC   GL161237  38.426  39.966   6.164
 4793POPC   GL261238  38.342  39.924   6.164
 4793POPC   C1A61239  38.413  39.993   6.464
 4793POPC   D2A61240  38.411  40.040   6.764
 4793POPC   C3A61241  38.501  40.020   7.064
 4793POPC   C4A61242  38.423  39.962   7.364
 4793POPC   C1B61243  38.221  39.913   6.464
 4793POPC   C2B61244  38.185  39.878   6.764
 4793POPC   C3B61245  38.211  39.893   7.064
 4793POPC   C4B61246  38.270  39.951   7.364
 4794POPC   NC361247   9.008  32.242   5.564
 4794POPC   PO461248   9.008  32.293   5.864
 4794POPC   GL161249   8.979  32.268   6.164
 4794POPC   GL261250   8.914  32.187   6.164
 4794POPC   C1A61251   8.983  32.241   6.464
 4794POPC   D2A61252   8.973  32.250   6.764
 4794POPC   C3A61253   8.954  32.206   7.064
 4794POPC   C4A61254   9.013  32.288   7.364
 4794POPC   C1B61255   8.741  32.053   6.464
 4794POPC   C2B61256   8.784  32.043   6.764
 4794POPC   C3B61257   8.749  32.090   7.064
 4794POPC   C4B61258   8.818  32.075   7.364
 4795POPC   NC361259  26.068  19.057   5.564
 4795POPC   PO461260  26.051  19.095   5.864
 4795POPC   GL161261  25.995  19.013   6.164
 4795POPC   GL261262  26.097  19.153   6.164
 4795POPC   C1A61263  26.023  19.106   6.464
 4795POPC   D2A61264  26.017  19.031   6.764
 4795POPC   C3A61265  26.045  19.023   7.064
 4795POPC   C4A61266  26.073  19.056   7.364
 4795POPC   C1B61267  26.020  19.264   6.464
 4795POPC   C2B61268  26.010  19.353   6.764
 4795POPC   C3B61269  26.095  19.325   7.064
 4795POPC   C4B61270  26.045  19.340   7.364
 4796POPC   NC361271  43.097  31.469   5.564
 4796POPC   PO461272  43.142  31.475   5.864
 4796POPC   GL161273  43.121  31.426   6.164
 4796POPC   GL261274  43.269  31.519   6.164
 4796POPC   C1A61275  43.155  31.474   6.464
 4796POPC   D2A61276  43.066  31.438   6.764
 4796POPC   C3A61277  43.133  31.473   7.064
 4796POPC   C4A61278  43.081  31.488   7.364
 4796POPC   C1B61279  43.395  31.490   6.464
 4796POPC   C2B61280  43.356  31.505   6.764
 4796POPC   C3B61281  43.379  31.501   7.064
 4796POPC   C4B61282  43.370  31.549   7.364
 4797POPC   NC361283  20.582  42.331   5.564
 4797POPC   PO461284  20.616  42.333   5.864
 4797POPC   GL161285  20.618  42.359   6.164
 4797POPC   GL261286  20.604  42.214   6.164
 4797POPC   C1A61287  20.617  42.359   6.464
 4797POPC   D2A61288  20.645  42.302   6.764
 4797POPC   C3A61289  20.627  42.291   7.064
 4797POPC   C4A61290  20.623  42.357   7.364
 4797POPC   C1B61291  20.529  42.118   6.464
 4797POPC   C2B61292  20.495  42.070   6.764
 4797POPC   C3B61293  20.469  42.100   7.064
 4797POPC   C4B61294  20.463  42.112   7.364
 4798POPC   NC361295  11.327  19.034   5.564
 4798POPC   PO461296  11.287  19.016   5.864
 4798POPC   GL161297  11.323  19.045   6.164
 4798POPC   GL261298  11.375  19.193   6.164
 4798POPC   C1A61299  11.334  19.065   6.464
 4798POPC   D2A61300  11.302  19.022   6.764
 4798POPC   C3A61301  11.324  19.080   7.064
 4798POPC   C4A61302  11.296  19.049   7.364
 4798POPC   C1B61303  11.465  19.209   6.464
 4798POPC   C2B61304  11.423  19.269   6.764
 4798POPC   C3B61305  11.493  19.305   7.064
 4798POPC   C4B61306  11.451  19.259   7.364
 4799POPC   NC361307  35.315  37.652   5.564
 4799POPC   PO461308  35.308  37.656   5.864
 4799POPC   GL161309  35.316  37.674   6.164
 4799POPC   GL261310  35.272  37.550   6.164
 4799POPC   C1A61311  35.357  37.703   6.464
 4799POPC   D2A61312  35.348  37.722   6.764
 4799POPC   C3A61313  35.398  37.713   7.064
 4799POPC   C4A61314  35.343  37.678   7.364
 4799POPC   C1B61315  35.200  37.556   6.464
 4799POPC   C2B61316  35.199  37.501   6.764
 4799POPC   C3B61317  35.132  37.520   7.064
 4799POPC   C4B61318  35.113  37.562   7.364
 4800POPC   NC361319  36.137  43.139   5.564
 4800POPC   PO461320  36.094  43.146   5.864
 4800POPC   GL161321  36.144  43.088   6.164
 4800POPC   GL261322  36.232  43.252   6.164
 4800POPC   C1A61323  36.127  43.115   6.464
 4800POPC   D2A61324  36.141  43.111   6.764
 4800POPC   C3A61325  36.134  43.142   7.064
 4800POPC   C4A61326  36.130  43.073   7.364
 4800POPC   C1B61327  36.299  43.285   6.464
 4800POPC   C2B61328  36.291  43.272   6.764
 4800POPC   C3B61329  36.312  43.259   7.064
 4800POPC   C4B61330  36.341  43.308   7.364
 4801POPC   NC361331   2.766  19.809   5.564
 4801POPC   PO461332   2.750  19.824   5.864
 4801POPC   GL161333   2.772  19.877   6.164
 4801POPC   GL261334   2.668  19.798   6.164
 4801POPC   C1A61335   2.795  19.789   6.464
 4801POPC   D2A61336   2.807  19.846   6.764
 4801POPC   C3A61337   2.733  19.813   7.064
 4801POPC   C4A61338   2.737  19.843   7.364
 4801POPC   C1B61339   2.543  19.727   6.464
 4801POPC   C2B61340   2.577  19.737   6.764
 4801POPC   C3B61341   2.570  19.679   7.064
 4801POPC   C4B61342   2.577  19.730   7.364
 4802POPC   NC361343  33.070   3.531   5.564
 4802POPC   PO461344  33.027   3.556   5.864
 4802POPC   GL161345  33.021   3.565   6.164
 4802POPC   GL261346  32.951   3.383   6.164
 4802POPC   C1A61347  33.016   3.496   6.464
 4802POPC   D2A61348  33.009   3.584   6.764
 4802POPC   C3A61349  33.064   3.502   7.064
 4802POPC   C4A61350  32.995   3.553   7.364
 4802POPC   C1B61351  32.978   3.257   6.464
 4802POPC   C2B61352  32.927   3.351   6.764
 4802POPC   C3B61353  32.992   3.300   7.064
 4802POPC   C4B61354  32.978   3.299   7.364
 4803POPC   NC361355  40.750   4.357   5.564
 4803POPC   PO461356  40.817   4.364   5.864
 4803POPC   GL161357  40.813   4.325   6.164
 4803POPC   GL261358  40.679   4.209   6.164
 4803POPC   C1A61359  40.785   4.349   6.464
 4803POPC   D2A61360  40.797   4.353   6.764
 4803POPC   C3A61361  40.817   4.355   7.064
 4803POPC   C4A61362  40.792   4.324   7.364
 4803POPC   C1B61363  40.616   4.145   6.464
 4803POPC   C2B61364  40.592   4.106   6.764
 4803POPC   C3B61365  40.561   4.142   7.064
 4803POPC   C4B61366  40.601   4.170   7.364
 4804POPC   NC361367  40.778  42.379   5.564
 4804POPC   PO461368  40.830  42.379   5.864
 4804POPC   GL161369  40.746  42.286   6.164
 4804POPC   GL261370  40.929  42.268   6.164
 4804POPC   C1A61371  40.759  42.329   6.464
 4804POPC   D2A61372  40.806  42.298   6.764
 4804POPC   C3A61373  40.782  42.363   7.064
 4804POPC   C4A61374  40.829  42.382   7.364
 4804POPC   C1B61375  40.986  42.212   6.464
 4804POPC   C2B61376  40.967  42.181   6.764
 4804POPC   C3B61377  41.058  42.245   7.064
 4804POPC   C4B61378  41.004  42.184   7.364
 4805POPC   NC361379  24.456  11.281   5.564
 4805POPC   PO461380  24.450  11.250   5.864
 4805POPC   GL161381  24.493  11.258   6.164
 4805POPC   GL261382  24.424  11.437   6.164
 4805POPC   C1A61383  24.523  11.302   6.464
 4805POPC   D2A61384  24.463  11.324   6.764
 4805POPC   C3A61385  24.466  11.343   7.064
 4805POPC   C4A61386  24.521  11.316   7.364
 4805POPC   C1B61387  24.304  11.497   6.464
 4805POPC   C2B61388  24.391  11.483   6.764
 4805POPC   C3B61389  24.370  11.540   7.064
 4805POPC   C4B61390  24.367  11.493   7.364
 4806POPC   NC361391  12.072  22.174   5.564
 4806POPC   PO461392  12.109  22.157   5.864
 4806POPC   GL161393  12.117  22.201   6.164
 4806POPC   GL261394  11.980  22.040   6.164
 4806POPC   C1A61395  12.080  22.160   6.464
 4806POPC   D2A61396  12.045  22.177   6.764
 4806POPC   C3A61397  12.072  22.162   7.064
 4806POPC   C4A61398  12.086  22.192   7.364
 4806POPC   C1B61399  11.858  22.035   6.464
 4806POPC   C2B61400  11.848  21.992   6.764
 4806POPC   C3B61401  11.872  22.018   7.064
 4806POPC   C4B61402  11.924  22.019   7.364
 4807POPC   NC361403  36.861  44.626   5.564
 4807POPC   PO461404  36.930  44.617   5.864
 4807POPC   GL161405  36.945  44.694   6.164
 4807POPC   GL261406  36.995  44.758   6.164
 4807POPC   C1A61407  36.897  44.638   6.464
 4807POPC   D2A61408  36.922  44.664   6.764
 4807POPC   C3A61409  36.882  44.664   7.064
 4807POPC   C4A61410  36.881  44.681   7.364
 4807POPC   C1B61411  37.091  44.854   6.464
 4807POPC   C2B61412  37.056  44.866   6.764
 4807POPC   C3B61413  37.027  44.823   7.064
 4807POPC   C4B61414  37.083  44.893   7.364
 4808POPC   NC361415  16.778   1.989   5.564
 4808POPC   PO461416  16.682   2.013   5.864
 4808POPC   GL161417  16.768   2.031   6.164
 4808POPC   GL261418  16.677   2.127   6.164
 4808POPC   C1A61419  16.689   1.982   6.464
 4808POPC   D2A61420  16.695   2.010   6.764
 4808POPC   C3A61421  16.773   2.037   7.064
 4808POPC   C4A61422  16.766   1.977   7.364
 4808POPC   C1B61423  16.673   2.258   6.464
 4808POPC   C2B61424  16.585   2.184   6.764
 4808POPC   C3B61425  16.649   2.186   7.064
 4808POPC   C4B61426  16.663   2.251   7.364
 4809POPC   NC361427  40.805  12.869   5.564
 4809POPC   PO461428  40.831  12.879   5.864
 4809POPC   GL161429  40.791  12.839   6.164
 4809POPC   GL261430  40.647  12.916   6.164
 4809POPC   C1A61431  40.744  12.815   6.464
 4809POPC   D2A61432  40.817  12.846   6.764
 4809POPC   C3A61433  40.828  12.848   7.064
 4809POPC   C4A61434  40.798  12.814   7.364
 4809POPC   C1B61435  40.599  12.930   6.464
 4809POPC   C2B61436  40.612  13.014   6.764
 4809POPC   C3B61437  40.576  13.013   7.064
 4809POPC   C4B61438  40.572  13.011   7.364
 4810POPC   NC361439  19.859   9.752   5.564
 4810POPC   PO461440  19.871   9.740   5.864
 4810POPC   GL161441  19.814   9.759   6.164
 4810POPC   GL261442  19.690   9.846   6.164
 4810POPC   C1A61443  19.832   9.740   6.464
 4810POPC   D2A61444  19.796   9.702   6.764
 4810POPC   C3A61445  19.819   9.797   7.064
 4810POPC   C4A61446  19.785   9.738   7.364
 4810POPC   C1B61447  19.644   9.839   6.464
 4810POPC   C2B61448  19.569   9.842   6.764
 4810POPC   C3B61449  19.576   9.874   7.064
 4810POPC   C4B61450  19.661   9.868   7.364
 4811POPC   NC361451  25.280  12.099   5.564
 4811POPC   PO461452  25.250  12.107   5.864
 4811POPC   GL161453  25.238  12.047   6.164
 4811POPC   GL261454  25.296  12.174   6.164
 4811POPC   C1A61455  25.288  12.027   6.464
 4811POPC   D2A61456  25.238  12.102   6.764
 4811POPC   C3A61457  25.238  12.068   7.064
 4811POPC   C4A61458  25.313  12.094   7.364
 4811POPC   C1B61459  25.208  12.355   6.464
 4811POPC   C2B61460  25.231  12.340   6.764
 4811POPC   C3B61461  25.285  12.366   7.064
 4811POPC   C4B61462  25.229  12.297   7.364
 4812POPC   NC361463  19.815  13.593   5.564
 4812POPC   PO461464  19.812  13.579   5.864
 4812POPC   GL161465  19.860  13.600   6.164
 4812POPC   GL261466  19.842  13.462   6.164
 4812POPC   C1A61467  19.856  13.643   6.464
 4812POPC   D2A61468  19.794  13.648   6.764
 4812POPC   C3A61469  19.796  13.659   7.064
 4812POPC   C4A61470  19.795  13.590   7.364
 4812POPC   C1B61471  19.838  13.369   6.464
 4812POPC   C2B61472  19.887  13.424   6.764
 4812POPC   C3B61473  19.817  13.352   7.064
 4812POPC   C4B61474  19.819  13.356   7.364
 4813POPC   NC361475  36.910  36.121   5.564
 4813POPC   PO461476  36.888  36.131   5.864
 4813POPC   GL161477  36.935  36.086   6.164
 4813POPC   GL261478  36.953  36.038   6.164
 4813POPC   C1A61479  36.944  36.097   6.464
 4813POPC   D2A61480  36.859  36.158   6.764
 4813POPC   C3A61481  36.912  36.124   7.064
 4813POPC   C4A61482  36.950  36.155   7.364
 4813POPC   C1B61483  37.034  35.925   6.464
 4813POPC   C2B61484  37.022  35.891   6.764
 4813POPC   C3B61485  37.097  35.935   7.064
 4813POPC   C4B61486  37.103  35.958   7.364
 4814POPC   NC361487  11.303  43.893   5.564
 4814POPC   PO461488  11.330  43.863   5.864
 4814POPC   GL161489  11.326  43.837   6.164
 4814POPC   GL261490  11.407  43.777   6.164
 4814POPC   C1A61491  11.343  43.837   6.464
 4814POPC   D2A61492  11.318  43.854   6.764
 4814POPC   C3A61493  11.317  43.930   7.064
 4814POPC   C4A61494  11.326  43.931   7.364
 4814POPC   C1B61495  11.526  43.757   6.464
 4814POPC   C2B61496  11.532  43.767   6.764
 4814POPC   C3B61497  11.453  43.779   7.064
 4814POPC   C4B61498  11.543  43.701   7.364
 4815POPC   NC361499  36.914  19.052   5.564
 4815POPC   PO461500  36.862  19.102   5.864
 4815POPC   GL161501  36.874  19.098   6.164
 4815POPC   GL261502  36.968  19.121   6.164
 4815POPC   C1A61503  36.901  19.019   6.464
 4815POPC   D2A61504  36.870  19.069   6.764
 4815POPC   C3A61505  36.904  19.044   7.064
 4815POPC   C4A61506  36.937  19.081   7.364
 4815POPC   C1B61507  37.126  19.225   6.464
 4815POPC   C2B61508  37.084  19.179   6.764
 4815POPC   C3B61509  37.113  19.221   7.064
 4815POPC   C4B61510  37.168  19.160   7.364
 4816POPC   NC361511  39.246   0.438   5.564
 4816POPC   PO461512  39.230   0.417   5.864
 4816POPC   GL161513  39.193   0.484   6.164
 4816POPC   GL261514  39.155   0.346   6.164
 4816POPC   C1A61515  39.199   0.427   6.464
 4816POPC   D2A61516  39.279   0.427   6.764
 4816POPC   C3A61517  39.220   0.432   7.064
 4816POPC   C4A61518  39.224   0.431   7.364
 4816POPC   C1B61519  39.101   0.221   6.464
 4816POPC   C2B61520  39.186   0.220   6.764
 4816POPC   C3B61521  39.153   0.206   7.064
 4816POPC   C4B61522  39.175   0.216   7.364
 4817POPC   NC361523  33.792  38.491   5.564
 4817POPC   PO461524  33.772  38.423   5.864
 4817POPC   GL161525  33.762  38.474   6.164
 4817POPC   GL261526  33.665  38.447   6.164
 4817POPC   C1A61527  33.834  38.430   6.464
 4817POPC   D2A61528  33.849  38.493   6.764
 4817POPC   C3A61529  33.798  38.435   7.064
 4817POPC   C4A61530  33.849  38.461   7.364
 4817POPC   C1B61531  33.547  38.419   6.464
 4817POPC   C2B61532  33.540  38.378   6.764
 4817POPC   C3B61533  33.509  38.456   7.064
 4817POPC   C4B61534  33.593  38.392   7.364
 4818POPC   NC361535   3.589  43.107   5.564
 4818POPC   PO461536   3.546  43.076   5.864
 4818POPC   GL161537   3.501  43.102   6.164
 4818POPC   GL261538   3.453  43.104   6.164
 4818POPC   C1A61539   3.564  43.152   6.464
 4818POPC   D2A61540   3.505  43.075   6.764
 4818POPC   C3A61541   3.568  43.153   7.064
 4818POPC   C4A61542   3.538  43.094   7.364
 4818POPC   C1B61543   3.320  43.031   6.464
 4818POPC   C2B61544   3.268  43.048   6.764
 4818POPC   C3B61545   3.354  43.042   7.064
 4818POPC   C4B61546   3.336  43.016   7.364
 4819POPC   NC361547  18.302  25.301   5.564
 4819POPC   PO461548  18.244  25.251   5.864
 4819POPC   GL161549  18.301  25.303   6.164
 4819POPC   GL261550  18.202  25.274   6.164
 4819POPC   C1A61551  18.259  25.238   6.464
 4819POPC   D2A61552  18.327  25.227   6.764
 4819POPC   C3A61553  18.252  25.280   7.064
 4819POPC   C4A61554  18.264  25.300   7.364
 4819POPC   C1B61555  18.036  25.268   6.464
 4819POPC   C2B61556  17.993  25.228   6.764
 4819POPC   C3B61557  18.076  25.279   7.064
 4819POPC   C4B61558  17.986  25.226   7.364
 4820POPC   NC361559  36.923  36.880   5.564
 4820POPC   PO461560  36.881  36.868   5.864
 4820POPC   GL161561  36.937  36.900   6.164
 4820POPC   GL261562  36.817  37.017   6.164
 4820POPC   C1A61563  36.865  36.929   6.464
 4820POPC   D2A61564  36.864  36.940   6.764
 4820POPC   C3A61565  36.920  36.927   7.064
 4820POPC   C4A61566  36.872  36.937   7.364
 4820POPC   C1B61567  36.793  37.176   6.464
 4820POPC   C2B61568  36.796  37.098   6.764
 4820POPC   C3B61569  36.863  37.094   7.064
 4820POPC   C4B61570  36.844  37.097   7.364
 4821POPC   NC361571   8.152  34.546   5.564
 4821POPC   PO461572   8.217  34.593   5.864
 4821POPC   GL161573   8.234  34.560   6.164
 4821POPC   GL261574   8.284  34.642   6.164
 4821POPC   C1A61575   8.232  34.579   6.464
 4821POPC   D2A61576   8.172  34.550   6.764
 4821POPC   C3A61577   8.185  34.572   7.064
 4821POPC   C4A61578   8.197  34.567   7.364
 4821POPC   C1B61579   8.337  34.741   6.464
 4821POPC   C2B61580   8.367  34.731   6.764
 4821POPC   C3B61581   8.351  34.748   7.064
 4821POPC   C4B61582   8.341  34.736   7.364
 4822POPC   NC361583  39.240   1.957   5.564
 4822POPC   PO461584  39.281   2.031   5.864
 4822POPC   GL161585  39.201   2.012   6.164
 4822POPC   GL261586  39.353   2.039   6.164
 4822POPC   C1A61587  39.257   2.014   6.464
 4822POPC   D2A61588  39.249   1.965   6.764
 4822POPC   C3A61589  39.259   1.971   7.064
 4822POPC   C4A61590  39.257   1.947   7.364
 4822POPC   C1B61591  39.457   2.135   6.464
 4822POPC   C2B61592  39.445   2.156   6.764
 4822POPC   C3B61593  39.420   2.143   7.064
 4822POPC   C4B61594  39.448   2.153   7.364
 4823POPC   NC361595  42.292   9.792   5.564
 4823POPC   PO461596  42.289   9.737   5.864
 4823POPC   GL161597  42.332   9.753   6.164
 4823POPC   GL261598  42.293   9.860   6.164
 4823POPC   C1A61599  42.348   9.735   6.464
 4823POPC   D2A61600  42.362   9.770   6.764
 4823POPC   C3A61601  42.315   9.731   7.064
 4823POPC   C4A61602  42.301   9.795   7.364
 4823POPC   C1B61603  42.222   9.964   6.464
 4823POPC   C2B61604  42.224   9.954   6.764
 4823POPC   C3B61605  42.227   9.959   7.064
 4823POPC   C4B61606  42.207   9.951   7.364
 4824POPC   NC361607  32.984  30.688   5.564
 4824POPC   PO461608  33.020  30.695   5.864
 4824POPC   GL161609  33.072  30.744   6.164
 4824POPC   GL261610  33.068  30.555   6.164
 4824POPC   C1A61611  33.029  30.727   6.464
 4824POPC   D2A61612  33.037  30.718   6.764
 4824POPC   C3A61613  32.986  30.736   7.064
 4824POPC   C4A61614  33.061  30.667   7.364
 4824POPC   C1B61615  33.228  30.552   6.464
 4824POPC   C2B61616  33.233  30.492   6.764
 4824POPC   C3B61617  33.215  30.513   7.064
 4824POPC   C4B61618  33.167  30.556   7.364
 4825POPC   NC361619   0.487  32.992   5.564
 4825POPC   PO461620   0.445  33.059   5.864
 4825POPC   GL161621   0.472  33.050   6.164
 4825POPC   GL261622   0.412  32.894   6.164
 4825POPC   C1A61623   0.435  32.994   6.464
 4825POPC   D2A61624   0.456  32.985   6.764
 4825POPC   C3A61625   0.478  33.071   7.064
 4825POPC   C4A61626   0.417  33.001   7.364
 4825POPC   C1B61627   0.323  32.829   6.464
 4825POPC   C2B61628   0.317  32.840   6.764
 4825POPC   C3B61629   0.243  32.839   7.064
 4825POPC   C4B61630   0.270  32.779   7.364
 4826POPC   NC361631  25.290  26.005   5.564
 4826POPC   PO461632  25.287  26.057   5.864
 4826POPC   GL161633  25.253  25.997   6.164
 4826POPC   GL261634  25.194  26.172   6.164
 4826POPC   C1A61635  25.315  26.044   6.464
 4826POPC   D2A61636  25.238  26.024   6.764
 4826POPC   C3A61637  25.310  26.070   7.064
 4826POPC   C4A61638  25.226  26.013   7.364
 4826POPC   C1B61639  25.185  26.300   6.464
 4826POPC   C2B61640  25.112  26.295   6.764
 4826POPC   C3B61641  25.128  26.248   7.064
 4826POPC   C4B61642  25.143  26.237   7.364
 4827POPC   NC361643   7.383  16.746   5.564
 4827POPC   PO461644   7.435  16.737   5.864
 4827POPC   GL161645   7.461  16.758   6.164
 4827POPC   GL261646   7.364  16.809   6.164
 4827POPC   C1A61647   7.390  16.685   6.464
 4827POPC   D2A61648   7.449  16.743   6.764
 4827POPC   C3A61649   7.445  16.691   7.064
 4827POPC   C4A61650   7.410  16.717   7.364
 4827POPC   C1B61651   7.284  16.930   6.464
 4827POPC   C2B61652   7.330  16.923   6.764
 4827POPC   C3B61653   7.269  16.982   7.064
 4827POPC   C4B61654   7.339  16.913   7.364
 4828POPC   NC361655  38.409  23.745   5.564
 4828POPC   PO461656  38.407  23.716   5.864
 4828POPC   GL161657  38.460  23.679   6.164
 4828POPC   GL261658  38.503  23.769   6.164
 4828POPC   C1A61659  38.439  23.738   6.464
 4828POPC   D2A61660  38.437  23.716   6.764
 4828POPC   C3A61661  38.442  23.705   7.064
 4828POPC   C4A61662  38.417  23.761   7.364
 4828POPC   C1B61663  38.630  23.836   6.464
 4828POPC   C2B61664  38.650  23.883   6.764
 4828POPC   C3B61665  38.613  23.852   7.064
 4828POPC   C4B61666  38.652  23.903   7.364
 4829POPC   NC361667   1.238   7.441   5.564
 4829POPC   PO461668   1.193   7.430   5.864
 4829POPC   GL161669   1.247   7.378   6.164
 4829POPC   GL261670   1.142   7.354   6.164
 4829POPC   C1A61671   1.251   7.451   6.464
 4829POPC   D2A61672   1.207   7.455   6.764
 4829POPC   C3A61673   1.262   7.425   7.064
 4829POPC   C4A61674   1.169   7.388   7.364
 4829POPC   C1B61675   0.979   7.225   6.464
 4829POPC   C2B61676   1.046   7.270   6.764
 4829POPC   C3B61677   1.015   7.246   7.064
 4829POPC   C4B61678   1.062   7.288   7.364
 4830POPC   NC361679  43.075  10.551   5.564
 4830POPC   PO461680  43.114  10.484   5.864
 4830POPC   GL161681  43.144  10.543   6.164
 4830POPC   GL261682  43.083  10.695   6.164
 4830POPC   C1A61683  43.071  10.506   6.464
 4830POPC   D2A61684  43.113  10.524   6.764
 4830POPC   C3A61685  43.124  10.549   7.064
 4830POPC   C4A61686  43.081  10.553   7.364
 4830POPC   C1B61687  43.093  10.786   6.464
 4830POPC   C2B61688  43.149  10.801   6.764
 4830POPC   C3B61689  43.098  10.730   7.064
 4830POPC   C4B61690  43.105  10.777   7.364
 4831POPC   NC361691  40.794   3.586   5.564
 4831POPC   PO461692  40.772   3.507   5.864
 4831POPC   GL161693  40.821   3.585   6.164
 4831POPC   GL261694  40.772   3.372   6.164
 4831POPC   C1A61695  40.760   3.525   6.464
 4831POPC   D2A61696  40.815   3.499   6.764
 4831POPC   C3A61697  40.792   3.572   7.064
 4831POPC   C4A61698  40.832   3.554   7.364
 4831POPC   C1B61699  40.764   3.282   6.464
 4831POPC   C2B61700  40.737   3.256   6.764
 4831POPC   C3B61701  40.785   3.291   7.064
 4831POPC   C4B61702  40.707   3.322   7.364
 4832POPC   NC361703  33.056  15.911   5.564
 4832POPC   PO461704  32.982  15.956   5.864
 4832POPC   GL161705  33.017  15.911   6.164
 4832POPC   GL261706  33.042  15.791   6.164
 4832POPC   C1A61707  33.021  15.945   6.464
 4832POPC   D2A61708  32.997  15.925   6.764
 4832POPC   C3A61709  33.010  15.926   7.064
 4832POPC   C4A61710  33.052  15.983   7.364
 4832POPC   C1B61711  32.998  15.675   6.464
 4832POPC   C2B61712  33.003  15.727   6.764
 4832POPC   C3B61713  32.993  15.743   7.064
 4832POPC   C4B61714  33.014  15.721   7.364
 4833POPC   NC361715  33.059   8.925   5.564
 4833POPC   PO461716  33.054   9.015   5.864
 4833POPC   GL161717  33.003   9.016   6.164
 4833POPC   GL261718  33.148   8.985   6.164
 4833POPC   C1A61719  33.019   8.986   6.464
 4833POPC   D2A61720  33.008   8.971   6.764
 4833POPC   C3A61721  33.050   9.022   7.064
 4833POPC   C4A61722  33.056   9.011   7.364
 4833POPC   C1B61723  33.251   8.961   6.464
 4833POPC   C2B61724  33.274   8.963   6.764
 4833POPC   C3B61725  33.237   8.921   7.064
 4833POPC   C4B61726  33.238   8.932   7.364
 4834POPC   NC361727   5.072   9.791   5.564
 4834POPC   PO461728   5.100   9.705   5.864
 4834POPC   GL161729   5.113   9.795   6.164
 4834POPC   GL261730   5.245   9.672   6.164
 4834POPC   C1A61731   5.115   9.778   6.464
 4834POPC   D2A61732   5.096   9.783   6.764
 4834POPC   C3A61733   5.115   9.760   7.064
 4834POPC   C4A61734   5.053   9.767   7.364
 4834POPC   C1B61735   5.287   9.691   6.464
 4834POPC   C2B61736   5.347   9.621   6.764
 4834POPC   C3B61737   5.319   9.686   7.064
 4834POPC   C4B61738   5.308   9.650   7.364
 4835POPC   NC361739  28.340   8.160   5.564
 4835POPC   PO461740  28.401   8.192   5.864
 4835POPC   GL161741  28.320   8.244   6.164
 4835POPC   GL261742  28.298   8.342   6.164
 4835POPC   C1A61743  28.358   8.205   6.464
 4835POPC   D2A61744  28.331   8.213   6.764
 4835POPC   C3A61745  28.320   8.223   7.064
 4835POPC   C4A61746  28.405   8.213   7.364
 4835POPC   C1B61747  28.246   8.400   6.464
 4835POPC   C2B61748  28.282   8.476   6.764
 4835POPC   C3B61749  28.236   8.410   7.064
 4835POPC   C4B61750  28.259   8.425   7.364
 4836POPC   NC361751  26.813  40.013   5.564
 4836POPC   PO461752  26.800  39.992   5.864
 4836POPC   GL161753  26.838  40.055   6.164
 4836POPC   GL261754  26.857  40.137   6.164
 4836POPC   C1A61755  26.778  39.993   6.464
 4836POPC   D2A61756  26.829  39.968   6.764
 4836POPC   C3A61757  26.841  39.997   7.064
 4836POPC   C4A61758  26.844  40.008   7.364
 4836POPC   C1B61759  27.013  40.240   6.464
 4836POPC   C2B61760  27.029  40.167   6.764
 4836POPC   C3B61761  27.010  40.212   7.064
 4836POPC   C4B61762  27.032  40.204   7.364
 4837POPC   NC361763  22.187  29.894   5.564
 4837POPC   PO461764  22.173  29.960   5.864
 4837POPC   GL161765  22.161  29.969   6.164
 4837POPC   GL261766  22.101  29.814   6.164
 4837POPC   C1A61767  22.177  29.909   6.464
 4837POPC   D2A61768  22.152  29.889   6.764
 4837POPC   C3A61769  22.128  29.951   7.064
 4837POPC   C4A61770  22.129  29.963   7.364
 4837POPC   C1B61771  22.026  29.734   6.464
 4837POPC   C2B61772  22.040  29.696   6.764
 4837POPC   C3B61773  22.019  29.653   7.064
 4837POPC   C4B61774  22.019  29.674   7.364
 4838POPC   NC361775  28.377  17.538   5.564
 4838POPC   PO461776  28.411  17.535   5.864
 4838POPC   GL161777  28.334  17.550   6.164
 4838POPC   GL261778  28.318  17.381   6.164
 4838POPC   C1A61779  28.381  17.464   6.464
 4838POPC   D2A61780  28.370  17.525   6.764
 4838POPC   C3A61781  28.334  17.511   7.064
 4838POPC   C4A61782  28.374  17.520   7.364
 4838POPC   C1B61783  28.348  17.238   6.464
 4838POPC   C2B61784  28.350  17.308   6.764
 4838POPC   C3B61785  28.298  17.278   7.064
 4838POPC   C4B61786  28.352  17.264   7.364
 4839POPC   NC361787  13.615   6.647   5.564
 4839POPC   PO461788  13.668   6.595   5.864
 4839POPC   GL161789  13.654   6.630   6.164
 4839POPC   GL261790  13.693   6.754   6.164
 4839POPC   C1A61791  13.608   6.612   6.464
 4839POPC   D2A61792  13.585   6.596   6.764
 4839POPC   C3A61793  13.647   6.646   7.064
 4839POPC   C4A61794  13.627   6.640   7.364
 4839POPC   C1B61795  13.698   6.841   6.464
 4839POPC   C2B61796  13.660   6.892   6.764
 4839POPC   C3B61797  13.729   6.912   7.064
 4839POPC   C4B61798  13.666   6.914   7.364
 4840POPC   NC361799  35.319   8.174   5.564
 4840POPC   PO461800  35.354   8.196   5.864
 4840POPC   GL161801  35.320   8.153   6.164
 4840POPC   GL261802  35.195   8.123   6.164
 4840POPC   C1A61803  35.363   8.162   6.464
 4840POPC   D2A61804  35.332   8.235   6.764
 4840POPC   C3A61805  35.375   8.209   7.064
 4840POPC   C4A61806  35.321   8.232   7.364
 4840POPC   C1B61807  35.142   8.082   6.464
 4840POPC   C2B61808  35.109   8.127   6.764
 4840POPC   C3B61809  35.071   8.174   7.064
 4840POPC   C4B61810  35.071   8.151   7.364
 4841POPC   NC361811  26.052  44.696   5.564
 4841POPC   PO461812  26.061  44.651   5.864
 4841POPC   GL161813  26.041  44.689   6.164
 4841POPC   GL261814  26.141  44.738   6.164
 4841POPC   C1A61815  26.091  44.679   6.464
 4841POPC   D2A61816  26.064  44.638   6.764
 4841POPC   C3A61817  26.071  44.690   7.064
 4841POPC   C4A61818  26.075  44.621   7.364
 4841POPC   C1B61819  26.183  44.822   6.464
 4841POPC   C2B61820  26.227  44.871   6.764
 4841POPC   C3B61821  26.216  44.810   7.064
 4841POPC   C4B61822  26.211  44.888   7.364
 4842POPC   NC361823  23.714  43.067   5.564
 4842POPC   PO461824  23.721  43.146   5.864
 4842POPC   GL161825  23.722  43.143   6.164
 4842POPC   GL261826  23.809  43.090   6.164
 4842POPC   C1A61827  23.723  43.142   6.464
 4842POPC   D2A61828  23.707  43.072   6.764
 4842POPC   C3A61829  23.723  43.133   7.064
 4842POPC   C4A61830  23.706  43.061   7.364
 4842POPC   C1B61831  23.972  43.152   6.464
 4842POPC   C2B61832  23.987  43.127   6.764
 4842POPC   C3B61833  23.991  43.133   7.064
 4842POPC   C4B61834  23.985  43.094   7.364
 4843POPC   NC361835  20.628  25.216   5.564
 4843POPC   PO461836  20.652  25.277   5.864
 4843POPC   GL161837  20.651  25.305   6.164
 4843POPC   GL261838  20.753  25.255   6.164
 4843POPC   C1A61839  20.577  25.286   6.464
 4843POPC   D2A61840  20.580  25.285   6.764
 4843POPC   C3A61841  20.660  25.220   7.064
 4843POPC   C4A61842  20.652  25.299   7.364
 4843POPC   C1B61843  20.845  25.319   6.464
 4843POPC   C2B61844  20.894  25.317   6.764
 4843POPC   C3B61845  20.864  25.340   7.064
 4843POPC   C4B61846  20.822  25.305   7.364
 4844POPC   NC361847  32.259  39.209   5.564
 4844POPC   PO461848  32.273  39.182   5.864
 4844POPC   GL161849  32.210  39.212   6.164
 4844POPC   GL261850  32.352  39.314   6.164
 4844POPC   C1A61851  32.242  39.218   6.464
 4844POPC   D2A61852  32.277  39.254   6.764
 4844POPC   C3A61853  32.289  39.203   7.064
 4844POPC   C4A61854  32.243  39.185   7.364
 4844POPC   C1B61855  32.467  39.384   6.464
 4844POPC   C2B61856  32.429  39.412   6.764
 4844POPC   C3B61857  32.423  39.419   7.064
 4844POPC   C4B61858  32.426  39.426   7.364
 4845POPC   NC361859  42.308  17.545   5.564
 4845POPC   PO461860  42.327  17.537   5.864
 4845POPC   GL161861  42.380  17.503   6.164
 4845POPC   GL261862  42.305  17.441   6.164
 4845POPC   C1A61863  42.344  17.522   6.464
 4845POPC   D2A61864  42.381  17.531   6.764
 4845POPC   C3A61865  42.352  17.519   7.064
 4845POPC   C4A61866  42.292  17.555   7.364
 4845POPC   C1B61867  42.237  17.300   6.464
 4845POPC   C2B61868  42.200  17.325   6.764
 4845POPC   C3B61869  42.249  17.331   7.064
 4845POPC   C4B61870  42.166  17.335   7.364
 4846POPC   NC361871   5.916  36.911   5.564
 4846POPC   PO461872   5.909  36.910   5.864
 4846POPC   GL161873   5.913  36.904   6.164
 4846POPC   GL261874   5.990  37.031   6.164
 4846POPC   C1A61875   5.906  36.892   6.464
 4846POPC   D2A61876   5.858  36.949   6.764
 4846POPC   C3A61877   5.863  36.915   7.064
 4846POPC   C4A61878   5.919  36.916   7.364
 4846POPC   C1B61879   6.042  37.076   6.464
 4846POPC   C2B61880   6.066  37.062   6.764
 4846POPC   C3B61881   6.084  37.133   7.064
 4846POPC   C4B61882   6.053  37.094   7.364
 4847POPC   NC361883   9.756  15.220   5.564
 4847POPC   PO461884   9.771  15.135   5.864
 4847POPC   GL161885   9.793  15.205   6.164
 4847POPC   GL261886   9.589  15.137   6.164
 4847POPC   C1A61887   9.733  15.200   6.464
 4847POPC   D2A61888   9.712  15.219   6.764
 4847POPC   C3A61889   9.762  15.130   7.064
 4847POPC   C4A61890   9.759  15.175   7.364
 4847POPC   C1B61891   9.464  15.182   6.464
 4847POPC   C2B61892   9.535  15.132   6.764
 4847POPC   C3B61893   9.465  15.214   7.064
 4847POPC   C4B61894   9.484  15.198   7.364
 4848POPC   NC361895  22.161  35.319   5.564
 4848POPC   PO461896  22.187  35.312   5.864
 4848POPC   GL161897  22.125  35.379   6.164
 4848POPC   GL261898  22.257  35.296   6.164
 4848POPC   C1A61899  22.114  35.400   6.464
 4848POPC   D2A61900  22.206  35.374   6.764
 4848POPC   C3A61901  22.147  35.319   7.064
 4848POPC   C4A61902  22.184  35.343   7.364
 4848POPC   C1B61903  22.313  35.201   6.464
 4848POPC   C2B61904  22.370  35.133   6.764
 4848POPC   C3B61905  22.321  35.191   7.064
 4848POPC   C4B61906  22.301  35.148   7.364
 4849POPC   NC361907  25.277  14.383   5.564
 4849POPC   PO461908  25.244  14.367   5.864
 4849POPC   GL161909  25.232  14.413   6.164
 4849POPC   GL261910  25.312  14.522   6.164
 4849POPC   C1A61911  25.308  14.396   6.464
 4849POPC   D2A61912  25.229  14.409   6.764
 4849POPC   C3A61913  25.278  14.451   7.064
 4849POPC   C4A61914  25.270  14.405   7.364
 4849POPC   C1B61915  25.445  14.561   6.464
 4849POPC   C2B61916  25.466  14.559   6.764
 4849POPC   C3B61917  25.399  14.561   7.064
 4849POPC   C4B61918  25.383  14.561   7.364
 4850POPC   NC361919  42.308  21.408   5.564
 4850POPC   PO461920  42.332  21.372   5.864
 4850POPC   GL161921  42.382  21.394   6.164
 4850POPC   GL261922  42.252  21.505   6.164
 4850POPC   C1A61923  42.297  21.430   6.464
 4850POPC   D2A61924  42.330  21.427   6.764
 4850POPC   C3A61925  42.361  21.390   7.064
 4850POPC   C4A61926  42.356  21.346   7.364
 4850POPC   C1B61927  42.117  21.530   6.464
 4850POPC   C2B61928  42.170  21.617   6.764
 4850POPC   C3B61929  42.215  21.589   7.064
 4850POPC   C4B61930  42.205  21.581   7.364
 4851POPC   NC361931   9.711  40.788   5.564
 4851POPC   PO461932   9.742  40.751   5.864
 4851POPC   GL161933   9.721  40.822   6.164
 4851POPC   GL261934   9.687  40.871   6.164
 4851POPC   C1A61935   9.761  40.787   6.464
 4851POPC   D2A61936   9.720  40.745   6.764
 4851POPC   C3A61937   9.702  40.827   7.064
 4851POPC   C4A61938   9.744  40.768   7.364
 4851POPC   C1B61939   9.640  41.024   6.464
 4851POPC   C2B61940   9.676  41.046   6.764
 4851POPC   C3B61941   9.676  41.024   7.064
 4851POPC   C4B61942   9.616  41.059   7.364
 4852POPC   NC361943  44.629   7.402   5.564
 4852POPC   PO461944  44.683   7.465   5.864
 4852POPC   GL161945  44.691   7.460   6.164
 4852POPC   GL261946  44.557   7.475   6.164
 4852POPC   C1A61947  44.633   7.379   6.464
 4852POPC   D2A61948  44.620   7.405   6.764
 4852POPC   C3A61949  44.618   7.392   7.064
 4852POPC   C4A61950  44.612   7.424   7.364
 4852POPC   C1B61951  44.419   7.531   6.464
 4852POPC   C2B61952  44.466   7.508   6.764
 4852POPC   C3B61953  44.431   7.470   7.064
 4852POPC   C4B61954  44.421   7.501   7.364
 4853POPC   NC361955  42.300   5.098   5.564
 4853POPC   PO461956  42.330   5.097   5.864
 4853POPC   GL161957  42.346   5.082   6.164
 4853POPC   GL261958  42.409   5.129   6.164
 4853POPC   C1A61959  42.373   5.117   6.464
 4853POPC   D2A61960  42.302   5.095   6.764
 4853POPC   C3A61961  42.337   5.048   7.064
 4853POPC   C4A61962  42.382   5.067   7.364
 4853POPC   C1B61963  42.507   5.221   6.464
 4853POPC   C2B61964  42.570   5.206   6.764
 4853POPC   C3B61965  42.519   5.186   7.064
 4853POPC   C4B61966  42.514   5.209   7.364
 4854POPC   NC361967  44.708  10.500   5.564
 4854POPC   PO461968  44.691  10.533   5.864
 4854POPC   GL161969  44.691  10.571   6.164
 4854POPC   GL261970  44.656  10.686   6.164
 4854POPC   C1A61971  44.641  10.507   6.464
 4854POPC   D2A61972  44.646  10.573   6.764
 4854POPC   C3A61973  44.644  10.523   7.064
 4854POPC   C4A61974  44.643  10.546   7.364
 4854POPC   C1B61975  44.601  10.756   6.464
 4854POPC   C2B61976  44.585  10.783   6.764
 4854POPC   C3B61977  44.596  10.762   7.064
 4854POPC   C4B61978  44.554  10.754   7.364
 4855POPC   NC361979   4.316  43.850   5.564
 4855POPC   PO461980   4.270  43.916   5.864
 4855POPC   GL161981   4.341  43.858   6.164
 4855POPC   GL261982   4.414  43.827   6.164
 4855POPC   C1A61983   4.339  43.840   6.464
 4855POPC   D2A61984   4.366  43.924   6.764
 4855POPC   C3A61985   4.307  43.910   7.064
 4855POPC   C4A61986   4.296  43.877   7.364
 4855POPC   C1B61987   4.536  43.776   6.464
 4855POPC   C2B61988   4.554  43.766   6.764
 4855POPC   C3B61989   4.549  43.838   7.064
 4855POPC   C4B61990   4.587  43.785   7.364
 4856POPC   NC361991  43.906  12.822   5.564
 4856POPC   PO461992  43.923  12.852   5.864
 4856POPC   GL161993  43.901  12.891   6.164
 4856POPC   GL261994  43.945  12.930   6.164
 4856POPC   C1A61995  43.902  12.837   6.464
 4856POPC   D2A61996  43.922  12.847   6.764
 4856POPC   C3A61997  43.864  12.835   7.064
 4856POPC   C4A61998  43.896  12.810   7.364
 4856POPC   C1B61999  43.964  13.036   6.464
 4856POPC   C2B62000  44.013  13.053   6.764
 4856POPC   C3B62001  44.048  13.110   7.064
 4856POPC   C4B62002  44.011  13.084   7.364
 4857POPC   NC362003  14.359  24.510   5.564
 4857POPC   PO462004  14.399  24.477   5.864
 4857POPC   GL162005  14.388  24.532   6.164
 4857POPC   GL262006  14.499  24.578   6.164
 4857POPC   C1A62007  14.357  24.503   6.464
 4857POPC   D2A62008  14.431  24.451   6.764
 4857POPC   C3A62009  14.425  24.452   7.064
 4857POPC   C4A62010  14.440  24.467   7.364
 4857POPC   C1B62011  14.505  24.753   6.464
 4857POPC   C2B62012  14.510  24.761   6.764
 4857POPC   C3B62013  14.486  24.743   7.064
 4857POPC   C4B62014  14.556  24.667   7.364
 4858POPC   NC362015  22.986  42.324   5.564
 4858POPC   PO462016  22.949  42.369   5.864
 4858POPC   GL162017  22.981  42.373   6.164
 4858POPC   GL262018  22.902  42.223   6.164
 4858POPC   C1A62019  22.981  42.326   6.464
 4858POPC   D2A62020  22.940  42.371   6.764
 4858POPC   C3A62021  22.982  42.360   7.064
 4858POPC   C4A62022  22.959  42.359   7.364
 4858POPC   C1B62023  22.892  42.128   6.464
 4858POPC   C2B62024  22.936  42.046   6.764
 4858POPC   C3B62025  22.903  42.052   7.064
 4858POPC   C4B62026  22.944  42.042   7.364
 4859POPC   NC362027  21.340  43.133   5.564
 4859POPC   PO462028  21.364  43.094   5.864
 4859POPC   GL162029  21.365  43.125   6.164
 4859POPC   GL262030  21.314  43.033   6.164
 4859POPC   C1A62031  21.375  43.160   6.464
 4859POPC   D2A62032  21.414  43.084   6.764
 4859POPC   C3A62033  21.368  43.139   7.064
 4859POPC   C4A62034  21.384  43.099   7.364
 4859POPC   C1B62035  21.182  43.037   6.464
 4859POPC   C2B62036  21.130  43.031   6.764
 4859POPC   C3B62037  21.154  42.943   7.064
 4859POPC   C4B62038  21.125  42.991   7.364
 4860POPC   NC362039  44.709  21.357   5.564
 4860POPC   PO462040  44.640  21.388   5.864
 4860POPC   GL162041  44.667  21.392   6.164
 4860POPC   GL262042  44.575  21.324   6.164
 4860POPC   C1A62043  44.683  21.365   6.464
 4860POPC   D2A62044  44.667  21.424   6.764
 4860POPC   C3A62045  44.671  21.357   7.064
 4860POPC   C4A62046  44.658  21.377   7.364
 4860POPC   C1B62047  44.430  21.276   6.464
 4860POPC   C2B62048  44.417  21.280   6.764
 4860POPC   C3B62049  44.465  21.311   7.064
 4860POPC   C4B62050  44.391  21.289   7.364
 4861POPC   NC362051   5.852  29.134   5.564
 4861POPC   PO462052   5.918  29.138   5.864
 4861POPC   GL162053   5.901  29.124   6.164
 4861POPC   GL262054   5.749  29.228   6.164
 4861POPC   C1A62055   5.845  29.186   6.464
 4861POPC   D2A62056   5.881  29.117   6.764
 4861POPC   C3A62057   5.888  29.138   7.064
 4861POPC   C4A62058   5.879  29.097   7.364
 4861POPC   C1B62059   5.672  29.295   6.464
 4861POPC   C2B62060   5.716  29.302   6.764
 4861POPC   C3B62061   5.733  29.285   7.064
 4861POPC   C4B62062   5.718  29.360   7.364
 4862POPC   NC362063  37.630  25.289   5.564
 4862POPC   PO462064  37.707  25.296   5.864
 4862POPC   GL162065  37.668  25.298   6.164
 4862POPC   GL262066  37.629  25.416   6.164
 4862POPC   C1A62067  37.720  25.311   6.464
 4862POPC   D2A62068  37.701  25.251   6.764
 4862POPC   C3A62069  37.714  25.233   7.064
 4862POPC   C4A62070  37.681  25.244   7.364
 4862POPC   C1B62071  37.509  25.448   6.464
 4862POPC   C2B62072  37.599  25.444   6.764
 4862POPC   C3B62073  37.552  25.464   7.064
 4862POPC   C4B62074  37.525  25.442   7.364
 4863POPC   NC362075  28.360  38.434   5.564
 4863POPC   PO462076  28.320  38.410   5.864
 4863POPC   GL162077  28.357  38.496   6.164
 4863POPC   GL262078  28.451  38.388   6.164
 4863POPC   C1A62079  28.396  38.434   6.464
 4863POPC   D2A62080  28.369  38.459   6.764
 4863POPC   C3A62081  28.374  38.482   7.064
 4863POPC   C4A62082  28.417  38.420   7.364
 4863POPC   C1B62083  28.587  38.355   6.464
 4863POPC   C2B62084  28.622  38.353   6.764
 4863POPC   C3B62085  28.619  38.427   7.064
 4863POPC   C4B62086  28.611  38.394   7.364
 4864POPC   NC362087   0.431  42.330   5.564
 4864POPC   PO462088   0.388  42.336   5.864
 4864POPC   GL162089   0.397  42.302   6.164
 4864POPC   GL262090   0.398  42.188   6.164
 4864POPC   C1A62091   0.424  42.335   6.464
 4864POPC   D2A62092   0.479  42.334   6.764
 4864POPC   C3A62093   0.444  42.372   7.064
 4864POPC   C4A62094   0.421  42.363   7.364
 4864POPC   C1B62095   0.276  42.141   6.464
 4864POPC   C2B62096   0.312  42.146   6.764
 4864POPC   C3B62097   0.290  42.182   7.064
 4864POPC   C4B62098   0.254  42.167   7.364
 4865POPC   NC362099  29.893   4.306   5.564
 4865POPC   PO462100  29.893   4.267   5.864
 4865POPC   GL162101  29.965   4.286   6.164
 4865POPC   GL262102  29.838   4.440   6.164
 4865POPC   C1A62103  29.874   4.294   6.464
 4865POPC   D2A62104  29.891   4.303   6.764
 4865POPC   C3A62105  29.882   4.288   7.064
 4865POPC   C4A62106  29.918   4.272   7.364
 4865POPC   C1B62107  29.754   4.459   6.464
 4865POPC   C2B62108  29.742   4.470   6.764
 4865POPC   C3B62109  29.758   4.450   7.064
 4865POPC   C4B62110  29.756   4.506   7.364
 4866POPC   NC362111   9.793  14.366   5.564
 4866POPC   PO462112   9.715  14.433   5.864
 4866POPC   GL162113   9.785  14.382   6.164
 4866POPC   GL262114   9.623  14.426   6.164
 4866POPC   C1A62115   9.699  14.428   6.464
 4866POPC   D2A62116   9.748  14.391   6.764
 4866POPC   C3A62117   9.715  14.437   7.064
 4866POPC   C4A62118   9.785  14.380   7.364
 4866POPC   C1B62119   9.505  14.537   6.464
 4866POPC   C2B62120   9.485  14.506   6.764
 4866POPC   C3B62121   9.578  14.576   7.064
 4866POPC   C4B62122   9.562  14.502   7.364
 4867POPC   NC362123   8.246  43.132   5.564
 4867POPC   PO462124   8.211  43.076   5.864
 4867POPC   GL162125   8.155  43.100   6.164
 4867POPC   GL262126   8.318  43.162   6.164
 4867POPC   C1A62127   8.196  43.139   6.464
 4867POPC   D2A62128   8.195  43.065   6.764
 4867POPC   C3A62129   8.238  43.077   7.064
 4867POPC   C4A62130   8.225  43.120   7.364
 4867POPC   C1B62131   8.310  43.325   6.464
 4867POPC   C2B62132   8.384  43.263   6.764
 4867POPC   C3B62133   8.299  43.360   7.064
 4867POPC   C4B62134   8.345  43.283   7.364
 4868POPC   NC362135  43.129  29.098   5.564
 4868POPC   PO462136  43.103  29.173   5.864
 4868POPC   GL162137  43.149  29.100   6.164
 4868POPC   GL262138  43.029  29.180   6.164
 4868POPC   C1A62139  43.068  29.120   6.464
 4868POPC   D2A62140  43.124  29.131   6.764
 4868POPC   C3A62141  43.133  29.159   7.064
 4868POPC   C4A62142  43.097  29.165   7.364
 4868POPC   C1B62143  42.849  29.318   6.464
 4868POPC   C2B62144  42.850  29.242   6.764
 4868POPC   C3B62145  42.898  29.283   7.064
 4868POPC   C4B62146  42.850  29.317   7.364
 4869POPC   NC362147  40.048  21.347   5.564
 4869POPC   PO462148  39.959  21.377   5.864
 4869POPC   GL162149  40.024  21.337   6.164
 4869POPC   GL262150  40.028  21.306   6.164
 4869POPC   C1A62151  40.001  21.349   6.464
 4869POPC   D2A62152  39.958  21.401   6.764
 4869POPC   C3A62153  40.056  21.374   7.064
 4869POPC   C4A62154  40.002  21.416   7.364
 4869POPC   C1B62155  39.930  21.170   6.464
 4869POPC   C2B62156  39.916  21.150   6.764
 4869POPC   C3B62157  39.931  21.184   7.064
 4869POPC   C4B62158  39.983  21.109   7.364
 4870POPC   NC362159  18.292  36.883   5.564
 4870POPC   PO462160  18.233  36.920   5.864
 4870POPC   GL162161  18.327  36.864   6.164
 4870POPC   GL262162  18.415  36.857   6.164
 4870POPC   C1A62163  18.280  36.953   6.464
 4870POPC   D2A62164  18.235  36.915   6.764
 4870POPC   C3A62165  18.330  36.879   7.064
 4870POPC   C4A62166  18.268  36.908   7.364
 4870POPC   C1B62167  18.476  36.831   6.464
 4870POPC   C2B62168  18.495  36.822   6.764
 4870POPC   C3B62169  18.512  36.752   7.064
 4870POPC   C4B62170  18.479  36.841   7.364
 4871POPC   NC362171  43.133  38.423   5.564
 4871POPC   PO462172  43.131  38.418   5.864
 4871POPC   GL162173  43.140  38.465   6.164
 4871POPC   GL262174  43.160  38.564   6.164
 4871POPC   C1A62175  43.096  38.426   6.464
 4871POPC   D2A62176  43.064  38.473   6.764
 4871POPC   C3A62177  43.112  38.416   7.064
 4871POPC   C4A62178  43.107  38.453   7.364
 4871POPC   C1B62179  43.145  38.666   6.464
 4871POPC   C2B62180  43.133  38.693   6.764
 4871POPC   C3B62181  43.094  38.745   7.064
 4871POPC   C4B62182  43.104  38.706   7.364
 4872POPC   NC362183  15.914   0.435   5.564
 4872POPC   PO462184  15.932   0.413   5.864
 4872POPC   GL162185  15.986   0.401   6.164
 4872POPC   GL262186  15.865   0.550   6.164
 4872POPC   C1A62187  15.912   0.487   6.464
 4872POPC   D2A62188  15.915   0.444   6.764
 4872POPC   C3A62189  15.944   0.473   7.064
 4872POPC   C4A62190  15.942   0.402   7.364
 4872POPC   C1B62191  15.792   0.654   6.464
 4872POPC   C2B62192  15.882   0.615   6.764
 4872POPC   C3B62193  15.884   0.618   7.064
 4872POPC   C4B62194  15.842   0.673   7.364
 4873POPC   NC362195  21.372  15.909   5.564
 4873POPC   PO462196  21.400  15.992   5.864
 4873POPC   GL162197  21.341  15.950   6.164
 4873POPC   GL262198  21.287  16.014   6.164
 4873POPC   C1A62199  21.342  15.914   6.464
 4873POPC   D2A62200  21.395  15.978   6.764
 4873POPC   C3A62201  21.341  15.942   7.064
 4873POPC   C4A62202  21.350  15.943   7.364
 4873POPC   C1B62203  21.198  16.102   6.464
 4873POPC   C2B62204  21.162  16.102   6.764
 4873POPC   C3B62205  21.218  16.065   7.064
 4873POPC   C4B62206  21.164  16.055   7.364
 4874POPC   NC362207  15.995  44.674   5.564
 4874POPC   PO462208  15.926  44.679   5.864
 4874POPC   GL162209  15.963  44.675   6.164
 4874POPC   GL262210  16.013  44.747   6.164
 4874POPC   C1A62211  15.979  44.638   6.464
 4874POPC   D2A62212  15.953  44.673   6.764
 4874POPC   C3A62213  15.932  44.635   7.064
 4874POPC   C4A62214  15.946  44.701   7.364
 4874POPC   C1B62215  16.152  44.802   6.464
 4874POPC   C2B62216  16.190  44.828   6.764
 4874POPC   C3B62217  16.156  44.780   7.064
 4874POPC   C4B62218  16.164  44.766   7.364
 4875POPC   NC362219  38.416  36.094   5.564
 4875POPC   PO462220  38.479  36.137   5.864
 4875POPC   GL162221  38.408  36.129   6.164
 4875POPC   GL262222  38.425  36.223   6.164
 4875POPC   C1A62223  38.497  36.103   6.464
 4875POPC   D2A62224  38.407  36.143   6.764
 4875POPC   C3A62225  38.495  36.160   7.064
 4875POPC   C4A62226  38.476  36.113   7.364
 4875POPC   C1B62227  38.388  36.315   6.464
 4875POPC   C2B62228  38.376  36.360   6.764
 4875POPC   C3B62229  38.398  36.359   7.064
 4875POPC   C4B62230  38.375  36.398   7.364
 4876POPC   NC362231  21.428  33.839   5.564
 4876POPC   PO462232  21.347  33.810   5.864
 4876POPC   GL162233  21.367  33.824   6.164
 4876POPC   GL262234  21.244  33.806   6.164
 4876POPC   C1A62235  21.341  33.800   6.464
 4876POPC   D2A62236  21.418  33.767   6.764
 4876POPC   C3A62237  21.358  33.776   7.064
 4876POPC   C4A62238  21.347  33.837   7.364
 4876POPC   C1B62239  21.091  33.761   6.464
 4876POPC   C2B62240  21.111  33.738   6.764
 4876POPC   C3B62241  21.163  33.812   7.064
 4876POPC   C4B62242  21.129  33.781   7.364
 4877POPC   NC362243  32.993  37.674   5.564
 4877POPC   PO462244  33.025  37.674   5.864
 4877POPC   GL162245  32.993  37.682   6.164
 4877POPC   GL262246  32.967  37.525   6.164
 4877POPC   C1A62247  33.041  37.697   6.464
 4877POPC   D2A62248  33.042  37.689   6.764
 4877POPC   C3A62249  33.029  37.667   7.064
 4877POPC   C4A62250  33.047  37.698   7.364
 4877POPC   C1B62251  32.951  37.451   6.464
 4877POPC   C2B62252  33.022  37.444   6.764
 4877POPC   C3B62253  32.943  37.480   7.064
 4877POPC   C4B62254  32.941  37.465   7.364
 4878POPC   NC362255  22.930  20.599   5.564
 4878POPC   PO462256  22.889  20.640   5.864
 4878POPC   GL162257  22.901  20.595   6.164
 4878POPC   GL262258  22.860  20.687   6.164
 4878POPC   C1A62259  22.951  20.586   6.464
 4878POPC   D2A62260  22.919  20.627   6.764
 4878POPC   C3A62261  22.908  20.569   7.064
 4878POPC   C4A62262  22.914  20.609   7.364
 4878POPC   C1B62263  22.722  20.718   6.464
 4878POPC   C2B62264  22.704  20.691   6.764
 4878POPC   C3B62265  22.746  20.716   7.064
 4878POPC   C4B62266  22.737  20.647   7.364
 4879POPC   NC362267  36.153   5.099   5.564
 4879POPC   PO462268  36.154   5.101   5.864
 4879POPC   GL162269  36.137   5.117   6.164
 4879POPC   GL262270  36.112   4.923   6.164
 4879POPC   C1A62271  36.116   5.050   6.464
 4879POPC   D2A62272  36.126   5.055   6.764
 4879POPC   C3A62273  36.112   5.046   7.064
 4879POPC   C4A62274  36.118   5.105   7.364
 4879POPC   C1B62275  36.154   4.878   6.464
 4879POPC   C2B62276  36.199   4.881   6.764
 4879POPC   C3B62277  36.208   4.824   7.064
 4879POPC   C4B62278  36.183   4.822   7.364
 4880POPC   NC362279   9.755  38.476   5.564
 4880POPC   PO462280   9.770  38.473   5.864
 4880POPC   GL162281   9.781  38.455   6.164
 4880POPC   GL262282   9.755  38.370   6.164
 4880POPC   C1A62283   9.729  38.465   6.464
 4880POPC   D2A62284   9.724  38.441   6.764
 4880POPC   C3A62285   9.784  38.461   7.064
 4880POPC   C4A62286   9.739  38.474   7.364
 4880POPC   C1B62287   9.682  38.232   6.464
 4880POPC   C2B62288   9.691  38.223   6.764
 4880POPC   C3B62289   9.704  38.182   7.064
 4880POPC   C4B62290   9.680  38.189   7.364
 4881POPC   NC362291  31.470  27.588   5.564
 4881POPC   PO462292  31.462  27.546   5.864
 4881POPC   GL162293  31.468  27.562   6.164
 4881POPC   GL262294  31.578  27.621   6.164
 4881POPC   C1A62295  31.518  27.594   6.464
 4881POPC   D2A62296  31.434  27.569   6.764
 4881POPC   C3A62297  31.512  27.625   7.064
 4881POPC   C4A62298  31.491  27.570   7.364
 4881POPC   C1B62299  31.749  27.675   6.464
 4881POPC   C2B62300  31.666  27.724   6.764
 4881POPC   C3B62301  31.692  27.716   7.064
 4881POPC   C4B62302  31.677  27.713   7.364
 4882POPC   NC362303   5.104  24.484   5.564
 4882POPC   PO462304   5.113  24.503   5.864
 4882POPC   GL162305   5.048  24.474   6.164
 4882POPC   GL262306   4.975  24.510   6.164
 4882POPC   C1A62307   5.104  24.472   6.464
 4882POPC   D2A62308   5.060  24.517   6.764
 4882POPC   C3A62309   5.075  24.500   7.064
 4882POPC   C4A62310   5.050  24.443   7.364
 4882POPC   C1B62311   4.862  24.482   6.464
 4882POPC   C2B62312   4.801  24.513   6.764
 4882POPC   C3B62313   4.799  24.524   7.064
 4882POPC   C4B62314   4.825  24.552   7.364
 4883POPC   NC362315  17.488  22.207   5.564
 4883POPC   PO462316  17.524  22.171   5.864
 4883POPC   GL162317  17.555  22.185   6.164
 4883POPC   GL262318  17.662  22.106   6.164
 4883POPC   C1A62319  17.512  22.140   6.464
 4883POPC   D2A62320  17.500  22.208   6.764
 4883POPC   C3A62321  17.528  22.125   7.064
 4883POPC   C4A62322  17.541  22.174   7.364
 4883POPC   C1B62323  17.764  22.190   6.464
 4883POPC   C2B62324  17.777  22.138   6.764
 4883POPC   C3B62325  17.746  22.140   7.064
 4883POPC   C4B62326  17.786  22.096   7.364
 4884POPC   NC362327   6.601  23.706   5.564
 4884POPC   PO462328   6.669  23.745   5.864
 4884POPC   GL162329   6.604  23.679   6.164
 4884POPC   GL262330   6.748  23.778   6.164
 4884POPC   C1A62331   6.691  23.664   6.464
 4884POPC   D2A62332   6.657  23.743   6.764
 4884POPC   C3A62333   6.618  23.698   7.064
 4884POPC   C4A62334   6.687  23.733   7.364
 4884POPC   C1B62335   6.886  23.787   6.464
 4884POPC   C2B62336   6.927  23.728   6.764
 4884POPC   C3B62337   6.878  23.697   7.064
 4884POPC   C4B62338   6.923  23.793   7.364
 4885POPC   NC362339   8.168   7.452   5.564
 4885POPC   PO462340   8.218   7.387   5.864
 4885POPC   GL162341   8.202   7.377   6.164
 4885POPC   GL262342   8.258   7.550   6.164
 4885POPC   C1A62343   8.227   7.451   6.464
 4885POPC   D2A62344   8.226   7.443   6.764
 4885POPC   C3A62345   8.200   7.454   7.064
 4885POPC   C4A62346   8.178   7.374   7.364
 4885POPC   C1B62347   8.308   7.665   6.464
 4885POPC   C2B62348   8.272   7.671   6.764
 4885POPC   C3B62349   8.266   7.649   7.064
 4885POPC   C4B62350   8.291   7.634   7.364
 4886POPC   NC362351   0.398  12.895   5.564
 4886POPC   PO462352   0.467  12.901   5.864
 4886POPC   GL162353   0.406  12.880   6.164
 4886POPC   GL262354   0.454  12.940   6.164
 4886POPC   C1A62355   0.392  12.804   6.464
 4886POPC   D2A62356   0.425  12.848   6.764
 4886POPC   C3A62357   0.432  12.898   7.064
 4886POPC   C4A62358   0.430  12.884   7.364
 4886POPC   C1B62359   0.538  13.077   6.464
 4886POPC   C2B62360   0.501  13.118   6.764
 4886POPC   C3B62361   0.493  13.043   7.064
 4886POPC   C4B62362   0.583  13.080   7.364
 4887POPC   NC362363   5.122  31.466   5.564
 4887POPC   PO462364   5.115  31.443   5.864
 4887POPC   GL162365   5.090  31.493   6.164
 4887POPC   GL262366   5.090  31.383   6.164
 4887POPC   C1A62367   5.104  31.483   6.464
 4887POPC   D2A62368   5.073  31.437   6.764
 4887POPC   C3A62369   5.141  31.516   7.064
 4887POPC   C4A62370   5.141  31.519   7.364
 4887POPC   C1B62371   4.994  31.268   6.464
 4887POPC   C2B62372   5.052  31.251   6.764
 4887POPC   C3B62373   5.085  31.204   7.064
 4887POPC   C4B62374   5.035  31.250   7.364
 4888POPC   NC362375  31.489   8.153   5.564
 4888POPC   PO462376  31.449   8.236   5.864
 4888POPC   GL162377  31.488   8.236   6.164
 4888POPC   GL262378  31.561   8.102   6.164
 4888POPC   C1A62379  31.500   8.186   6.464
 4888POPC   D2A62380  31.492   8.225   6.764
 4888POPC   C3A62381  31.514   8.220   7.064
 4888POPC   C4A62382  31.444   8.234   7.364
 4888POPC   C1B62383  31.592   7.958   6.464
 4888POPC   C2B62384  31.591   7.930   6.764
 4888POPC   C3B62385  31.546   7.985   7.064
 4888POPC   C4B62386  31.594   7.984   7.364
 4889POPC   NC362387  22.900  31.426   5.564
 4889POPC   PO462388  22.969  31.485   5.864
 4889POPC   GL162389  22.897  31.515   6.164
 4889POPC   GL262390  22.888  31.621   6.164
 4889POPC   C1A62391  22.919  31.468   6.464
 4889POPC   D2A62392  22.987  31.511   6.764
 4889POPC   C3A62393  22.961  31.476   7.064
 4889POPC   C4A62394  22.890  31.467   7.364
 4889POPC   C1B62395  22.910  31.719   6.464
 4889POPC   C2B62396  22.876  31.718   6.764
 4889POPC   C3B62397  22.846  31.735   7.064
 4889POPC   C4B62398  22.832  31.687   7.364
 4890POPC   NC362399   5.864  30.706   5.564
 4890POPC   PO462400   5.856  30.668   5.864
 4890POPC   GL162401   5.896  30.718   6.164
 4890POPC   GL262402   5.725  30.754   6.164
 4890POPC   C1A62403   5.870  30.672   6.464
 4890POPC   D2A62404   5.901  30.685   6.764
 4890POPC   C3A62405   5.847  30.684   7.064
 4890POPC   C4A62406   5.867  30.722   7.364
 4890POPC   C1B62407   5.629  30.834   6.464
 4890POPC   C2B62408   5.658  30.789   6.764
 4890POPC   C3B62409   5.602  30.774   7.064
 4890POPC   C4B62410   5.677  30.749   7.364
 4891POPC   NC362411  21.420  32.287   5.564
 4891POPC   PO462412  21.381  32.241   5.864
 4891POPC   GL162413  21.413  32.255   6.164
 4891POPC   GL262414  21.453  32.159   6.164
 4891POPC   C1A62415  21.398  32.265   6.464
 4891POPC   D2A62416  21.343  32.270   6.764
 4891POPC   C3A62417  21.346  32.254   7.064
 4891POPC   C4A62418  21.388  32.238   7.364
 4891POPC   C1B62419  21.498  32.013   6.464
 4891POPC   C2B62420  21.514  32.069   6.764
 4891POPC   C3B62421  21.496  31.995   7.064
 4891POPC   C4B62422  21.502  32.048   7.364
 4892POPC   NC362423  18.328  32.277   5.564
 4892POPC   PO462424  18.313  32.198   5.864
 4892POPC   GL162425  18.261  32.249   6.164
 4892POPC   GL262426  18.353  32.133   6.164
 4892POPC   C1A62427  18.236  32.275   6.464
 4892POPC   D2A62428  18.295  32.254   6.764
 4892POPC   C3A62429  18.278  32.263   7.064
 4892POPC   C4A62430  18.319  32.259   7.364
 4892POPC   C1B62431  18.419  32.078   6.464
 4892POPC   C2B62432  18.420  32.017   6.764
 4892POPC   C3B62433  18.404  32.114   7.064
 4892POPC   C4B62434  18.456  32.077   7.364
 4893POPC   NC362435  21.404  17.540   5.564
 4893POPC   PO462436  21.383  17.475   5.864
 4893POPC   GL162437  21.354  17.487   6.164
 4893POPC   GL262438  21.243  17.544   6.164
 4893POPC   C1A62439  21.418  17.463   6.464
 4893POPC   D2A62440  21.405  17.506   6.764
 4893POPC   C3A62441  21.419  17.529   7.064
 4893POPC   C4A62442  21.377  17.503   7.364
 4893POPC   C1B62443  21.137  17.583   6.464
 4893POPC   C2B62444  21.118  17.624   6.764
 4893POPC   C3B62445  21.157  17.613   7.064
 4893POPC   C4B62446  21.176  17.595   7.364
 4894POPC   NC362447   7.452  43.847   5.564
 4894POPC   PO462448   7.422  43.886   5.864
 4894POPC   GL162449   7.412  43.843   6.164
 4894POPC   GL262450   7.516  43.839   6.164
 4894POPC   C1A62451   7.397  43.859   6.464
 4894POPC   D2A62452   7.397  43.922   6.764
 4894POPC   C3A62453   7.394  43.905   7.064
 4894POPC   C4A62454   7.439  43.897   7.364
 4894POPC   C1B62455   7.715  43.819   6.464
 4894POPC   C2B62456   7.641  43.808   6.764
 4894POPC   C3B62457   7.621  43.869   7.064
 4894POPC   C4B62458   7.621  43.843   7.364
 4895POPC   NC362459   1.969   1.206   5.564
 4895POPC   PO462460   1.944   1.245   5.864
 4895POPC   GL162461   2.026   1.226   6.164
 4895POPC   GL262462   1.968   1.127   6.164
 4895POPC   C1A62463   1.981   1.178   6.464
 4895POPC   D2A62464   1.996   1.204   6.764
 4895POPC   C3A62465   1.955   1.236   7.064
 4895POPC   C4A62466   2.030   1.176   7.364
 4895POPC   C1B62467   1.919   0.976   6.464
 4895POPC   C2B62468   1.888   0.942   6.764
 4895POPC   C3B62469   1.958   1.025   7.064
 4895POPC   C4B62470   1.880   0.981   7.364
 4896POPC   NC362471  15.960   4.342   5.564
 4896POPC   PO462472  15.952   4.359   5.864
 4896POPC   GL162473  15.930   4.345   6.164
 4896POPC   GL262474  15.933   4.162   6.164
 4896POPC   C1A62475  16.004   4.325   6.464
 4896POPC   D2A62476  15.967   4.364   6.764
 4896POPC   C3A62477  15.955   4.359   7.064
 4896POPC   C4A62478  15.979   4.353   7.364
 4896POPC   C1B62479  15.857   4.123   6.464
 4896POPC   C2B62480  15.815   4.126   6.764
 4896POPC   C3B62481  15.808   4.077   7.064
 4896POPC   C4B62482  15.871   4.068   7.364
 4897POPC   NC362483  15.922  38.493   5.564
 4897POPC   PO462484  15.974  38.469   5.864
 4897POPC   GL162485  15.976  38.450   6.164
 4897POPC   GL262486  15.899  38.370   6.164
 4897POPC   C1A62487  15.939  38.426   6.464
 4897POPC   D2A62488  15.911  38.493   6.764
 4897POPC   C3A62489  15.915  38.499   7.064
 4897POPC   C4A62490  15.919  38.484   7.364
 4897POPC   C1B62491  15.952  38.216   6.464
 4897POPC   C2B62492  15.924  38.223   6.764
 4897POPC   C3B62493  15.905  38.205   7.064
 4897POPC   C4B62494  15.951  38.213   7.364
 4898POPC   NC362495   5.133   6.642   5.564
 4898POPC   PO462496   5.081   6.649   5.864
 4898POPC   GL162497   5.110   6.686   6.164
 4898POPC   GL262498   5.036   6.534   6.164
 4898POPC   C1A62499   5.136   6.684   6.464
 4898POPC   D2A62500   5.053   6.621   6.764
 4898POPC   C3A62501   5.072   6.645   7.064
 4898POPC   C4A62502   5.137   6.617   7.364
 4898POPC   C1B62503   4.941   6.448   6.464
 4898POPC   C2B62504   4.918   6.428   6.764
 4898POPC   C3B62505   4.905   6.506   7.064
 4898POPC   C4B62506   4.933   6.444   7.364
 4899POPC   NC362507   0.398  15.971   5.564
 4899POPC   PO462508   0.455  15.924   5.864
 4899POPC   GL162509   0.391  15.977   6.164
 4899POPC   GL262510   0.360  15.943   6.164
 4899POPC   C1A62511   0.484  15.941   6.464
 4899POPC   D2A62512   0.446  15.972   6.764
 4899POPC   C3A62513   0.411  15.973   7.064
 4899POPC   C4A62514   0.389  15.991   7.364
 4899POPC   C1B62515   0.179  15.882   6.464
 4899POPC   C2B62516   0.204  15.920   6.764
 4899POPC   C3B62517   0.185  15.918   7.064
 4899POPC   C4B62518   0.174  15.860   7.364
 4900POPC   NC362519  10.554  43.910   5.564
 4900POPC   PO462520  10.503  43.849   5.864
 4900POPC   GL162521  10.491  43.903   6.164
 4900POPC   GL262522  10.645  43.886   6.164
 4900POPC   C1A62523  10.478  43.886   6.464
 4900POPC   D2A62524  10.565  43.912   6.764
 4900POPC   C3A62525  10.558  43.849   7.064
 4900POPC   C4A62526  10.525  43.893   7.364
 4900POPC   C1B62527  10.721  43.807   6.464
 4900POPC   C2B62528  10.812  43.867   6.764
 4900POPC   C3B62529  10.763  43.788   7.064
 4900POPC   C4B62530  10.776  43.857   7.364
 4901POPC   NC362531  15.164  23.669   5.564
 4901POPC   PO462532  15.214  23.708   5.864
 4901POPC   GL162533  15.157  23.690   6.164
 4901POPC   GL262534  15.073  23.769   6.164
 4901POPC   C1A62535  15.162  23.709   6.464
 4901POPC   D2A62536  15.187  23.681   6.764
 4901POPC   C3A62537  15.216  23.751   7.064
 4901POPC   C4A62538  15.188  23.665   7.364
 4901POPC   C1B62539  14.959  23.862   6.464
 4901POPC   C2B62540  15.000  23.834   6.764
 4901POPC   C3B62541  14.977  23.902   7.064
 4901POPC   C4B62542  14.980  23.869   7.364
 4902POPC   NC362543  36.896   8.192   5.564
 4902POPC   PO462544  36.920   8.208   5.864
 4902POPC   GL162545  36.915   8.241   6.164
 4902POPC   GL262546  36.987   8.052   6.164
 4902POPC   C1A62547  36.939   8.191   6.464
 4902POPC   D2A62548  36.930   8.236   6.764
 4902POPC   C3A62549  36.887   8.243   7.064
 4902POPC   C4A62550  36.938   8.237   7.364
 4902POPC   C1B62551  37.030   7.962   6.464
 4902POPC   C2B62552  37.025   7.984   6.764
 4902POPC   C3B62553  37.001   8.012   7.064
 4902POPC   C4B62554  37.019   7.985   7.364
 4903POPC   NC362555  28.414  15.957   5.564
 4903POPC   PO462556  28.396  16.002   5.864
 4903POPC   GL162557  28.380  15.927   6.164
 4903POPC   GL262558  28.204  16.032   6.164
 4903POPC   C1A62559  28.413  15.985   6.464
 4903POPC   D2A62560  28.404  15.950   6.764
 4903POPC   C3A62561  28.418  15.988   7.064
 4903POPC   C4A62562  28.413  15.935   7.364
 4903POPC   C1B62563  28.144  16.027   6.464
 4903POPC   C2B62564  28.144  15.999   6.764
 4903POPC   C3B62565  28.132  15.996   7.064
 4903POPC   C4B62566  28.183  16.006   7.364
 4904POPC   NC362567  40.037   6.595   5.564
 4904POPC   PO462568  39.974   6.629   5.864
 4904POPC   GL162569  39.969   6.625   6.164
 4904POPC   GL262570  40.113   6.680   6.164
 4904POPC   C1A62571  40.037   6.599   6.464
 4904POPC   D2A62572  39.968   6.682   6.764
 4904POPC   C3A62573  40.025   6.662   7.064
 4904POPC   C4A62574  39.960   6.692   7.364
 4904POPC   C1B62575  40.256   6.834   6.464
 4904POPC   C2B62576  40.177   6.746   6.764
 4904POPC   C3B62577  40.167   6.787   7.064
 4904POPC   C4B62578  40.198   6.753   7.364
 4905POPC   NC362579  40.056  32.211   5.564
 4905POPC   PO462580  39.980  32.286   5.864
 4905POPC   GL162581  40.003  32.276   6.164
 4905POPC   GL262582  39.919  32.167   6.164
 4905POPC   C1A62583  39.967  32.211   6.464
 4905POPC   D2A62584  40.025  32.252   6.764
 4905POPC   C3A62585  40.035  32.283   7.064
 4905POPC   C4A62586  39.959  32.240   7.364
 4905POPC   C1B62587  39.836  32.076   6.464
 4905POPC   C2B62588  39.843  32.033   6.764
 4905POPC   C3B62589  39.854  32.084   7.064
 4905POPC   C4B62590  39.826  32.111   7.364
 4906POPC   NC362591  18.236  42.330   5.564
 4906POPC   PO462592  18.236  42.298   5.864
 4906POPC   GL162593  18.245  42.359   6.164
 4906POPC   GL262594  18.398  42.275   6.164
 4906POPC   C1A62595  18.253  42.365   6.464
 4906POPC   D2A62596  18.317  42.296   6.764
 4906POPC   C3A62597  18.291  42.307   7.064
 4906POPC   C4A62598  18.298  42.374   7.364
 4906POPC   C1B62599  18.517  42.298   6.464
 4906POPC   C2B62600  18.489  42.238   6.764
 4906POPC   C3B62601  18.510  42.307   7.064
 4906POPC   C4B62602  18.524  42.305   7.364
 4907POPC   NC362603  42.325  31.454   5.564
 4907POPC   PO462604  42.359  31.451   5.864
 4907POPC   GL162605  42.380  31.474   6.164
 4907POPC   GL262606  42.429  31.412   6.164
 4907POPC   C1A62607  42.333  31.504   6.464
 4907POPC   D2A62608  42.336  31.435   6.764
 4907POPC   C3A62609  42.318  31.455   7.064
 4907POPC   C4A62610  42.338  31.468   7.364
 4907POPC   C1B62611  42.531  31.369   6.464
 4907POPC   C2B62612  42.502  31.322   6.764
 4907POPC   C3B62613  42.493  31.338   7.064
 4907POPC   C4B62614  42.500  31.288   7.364
 4908POPC   NC362615  40.766  14.431   5.564
 4908POPC   PO462616  40.815  14.423   5.864
 4908POPC   GL162617  40.811  14.354   6.164
 4908POPC   GL262618  40.846  14.332   6.164
 4908POPC   C1A62619  40.748  14.399   6.464
 4908POPC   D2A62620  40.754  14.389   6.764
 4908POPC   C3A62621  40.782  14.395   7.064
 4908POPC   C4A62622  40.748  14.374   7.364
 4908POPC   C1B62623  41.011  14.299   6.464
 4908POPC   C2B62624  41.018  14.262   6.764
 4908POPC   C3B62625  41.048  14.290   7.064
 4908POPC   C4B62626  40.981  14.338   7.364
 4909POPC   NC362627  40.776  18.313   5.564
 4909POPC   PO462628  40.744  18.255   5.864
 4909POPC   GL162629  40.770  18.287   6.164
 4909POPC   GL262630  40.926  18.194   6.164
 4909POPC   C1A62631  40.820  18.315   6.464
 4909POPC   D2A62632  40.778  18.319   6.764
 4909POPC   C3A62633  40.759  18.295   7.064
 4909POPC   C4A62634  40.825  18.271   7.364
 4909POPC   C1B62635  41.047  18.130   6.464
 4909POPC   C2B62636  41.038  18.216   6.764
 4909POPC   C3B62637  41.036  18.163   7.064
 4909POPC   C4B62638  41.036  18.178   7.364
 4910POPC   NC362639  10.562  18.277   5.564
 4910POPC   PO462640  10.515  18.239   5.864
 4910POPC   GL162641  10.571  18.272   6.164
 4910POPC   GL262642  10.606  18.270   6.164
 4910POPC   C1A62643  10.497  18.277   6.464
 4910POPC   D2A62644  10.555  18.313   6.764
 4910POPC   C3A62645  10.554  18.313   7.064
 4910POPC   C4A62646  10.504  18.256   7.364
 4910POPC   C1B62647  10.754  18.324   6.464
 4910POPC   C2B62648  10.760  18.386   6.764
 4910POPC   C3B62649  10.737  18.323   7.064
 4910POPC   C4B62650  10.720  18.350   7.364
 4911POPC   NC362651  39.191  14.371   5.564
 4911POPC   PO462652  39.202  14.425   5.864
 4911POPC   GL162653  39.195  14.398   6.164
 4911POPC   GL262654  39.260  14.304   6.164
 4911POPC   C1A62655  39.239  14.379   6.464
 4911POPC   D2A62656  39.258  14.368   6.764
 4911POPC   C3A62657  39.212  14.442   7.064
 4911POPC   C4A62658  39.279  14.363   7.364
 4911POPC   C1B62659  39.270  14.129   6.464
 4911POPC   C2B62660  39.276  14.167   6.764
 4911POPC   C3B62661  39.242  14.116   7.064
 4911POPC   C4B62662  39.241  14.155   7.364
 4912POPC   NC362663  31.460   9.733   5.564
 4912POPC   PO462664  31.518   9.780   5.864
 4912POPC   GL162665  31.455   9.767   6.164
 4912POPC   GL262666  31.425   9.603   6.164
 4912POPC   C1A62667  31.446   9.769   6.464
 4912POPC   D2A62668  31.484   9.717   6.764
 4912POPC   C3A62669  31.475   9.719   7.064
 4912POPC   C4A62670  31.501   9.769   7.364
 4912POPC   C1B62671  31.430   9.519   6.464
 4912POPC   C2B62672  31.405   9.472   6.764
 4912POPC   C3B62673  31.447   9.548   7.064
 4912POPC   C4B62674  31.387   9.532   7.364
 4913POPC   NC362675   4.300  17.542   5.564
 4913POPC   PO462676   4.358  17.507   5.864
 4913POPC   GL162677   4.294  17.529   6.164
 4913POPC   GL262678   4.330  17.417   6.164
 4913POPC   C1A62679   4.326  17.482   6.464
 4913POPC   D2A62680   4.279  17.528   6.764
 4913POPC   C3A62681   4.367  17.510   7.064
 4913POPC   C4A62682   4.315  17.480   7.364
 4913POPC   C1B62683   4.247  17.216   6.464
 4913POPC   C2B62684   4.268  17.236   6.764
 4913POPC   C3B62685   4.263  17.222   7.064
 4913POPC   C4B62686   4.236  17.247   7.364
 4914POPC   NC362687  22.915  19.857   5.564
 4914POPC   PO462688  22.970  19.811   5.864
 4914POPC   GL162689  22.944  19.815   6.164
 4914POPC   GL262690  23.001  19.960   6.164
 4914POPC   C1A62691  22.983  19.835   6.464
 4914POPC   D2A62692  22.889  19.852   6.764
 4914POPC   C3A62693  22.939  19.817   7.064
 4914POPC   C4A62694  22.933  19.868   7.364
 4914POPC   C1B62695  23.109  20.006   6.464
 4914POPC   C2B62696  23.061  20.082   6.764
 4914POPC   C3B62697  23.103  20.091   7.064
 4914POPC   C4B62698  23.083  20.053   7.364
 4915POPC   NC362699  26.809  22.930   5.564
 4915POPC   PO462700  26.773  22.945   5.864
 4915POPC   GL162701  26.783  22.988   6.164
 4915POPC   GL262702  26.687  23.045   6.164
 4915POPC   C1A62703  26.859  22.976   6.464
 4915POPC   D2A62704  26.821  22.915   6.764
 4915POPC   C3A62705  26.844  22.899   7.064
 4915POPC   C4A62706  26.781  22.960   7.364
 4915POPC   C1B62707  26.656  23.092   6.464
 4915POPC   C2B62708  26.623  23.122   6.764
 4915POPC   C3B62709  26.586  23.085   7.064
 4915POPC   C4B62710  26.581  23.098   7.364
 4916POPC   NC362711   5.100  12.031   5.564
 4916POPC   PO462712   5.048  12.099   5.864
 4916POPC   GL162713   5.143  12.031   6.164
 4916POPC   GL262714   4.964  12.194   6.164
 4916POPC   C1A62715   5.083  12.113   6.464
 4916POPC   D2A62716   5.139  12.078   6.764
 4916POPC   C3A62717   5.093  12.124   7.064
 4916POPC   C4A62718   5.138  12.047   7.364
 4916POPC   C1B62719   4.885  12.216   6.464
 4916POPC   C2B62720   4.918  12.179   6.764
 4916POPC   C3B62721   4.903  12.230   7.064
 4916POPC   C4B62722   4.887  12.179   7.364
 4917POPC   NC362723  16.738  33.819   5.564
 4917POPC   PO462724  16.720  33.796   5.864
 4917POPC   GL162725  16.682  33.797   6.164
 4917POPC   GL262726  16.659  33.861   6.164
 4917POPC   C1A62727  16.746  33.800   6.464
 4917POPC   D2A62728  16.704  33.836   6.764
 4917POPC   C3A62729  16.777  33.801   7.064
 4917POPC   C4A62730  16.762  33.829   7.364
 4917POPC   C1B62731  16.616  34.027   6.464
 4917POPC   C2B62732  16.587  34.056   6.764
 4917POPC   C3B62733  16.660  34.045   7.064
 4917POPC   C4B62734  16.652  34.034   7.364
 4918POPC   NC362735   1.214  20.564   5.564
 4918POPC   PO462736   1.244  20.572   5.864
 4918POPC   GL162737   1.235  20.629   6.164
 4918POPC   GL262738   1.232  20.704   6.164
 4918POPC   C1A62739   1.196  20.583   6.464
 4918POPC   D2A62740   1.203  20.615   6.764
 4918POPC   C3A62741   1.237  20.582   7.064
 4918POPC   C4A62742   1.245  20.657   7.364
 4918POPC   C1B62743   1.236  20.884   6.464
 4918POPC   C2B62744   1.193  20.878   6.764
 4918POPC   C3B62745   1.199  20.828   7.064
 4918POPC   C4B62746   1.208  20.879   7.364
 4919POPC   NC362747  36.176  38.435   5.564
 4919POPC   PO462748  36.171  38.477   5.864
 4919POPC   GL162749  36.150  38.414   6.164
 4919POPC   GL262750  36.059  38.372   6.164
 4919POPC   C1A62751  36.127  38.466   6.464
 4919POPC   D2A62752  36.121  38.501   6.764
 4919POPC   C3A62753  36.141  38.499   7.064
 4919POPC   C4A62754  36.096  38.489   7.364
 4919POPC   C1B62755  35.958  38.320   6.464
 4919POPC   C2B62756  35.937  38.364   6.764
 4919POPC   C3B62757  35.949  38.286   7.064
 4919POPC   C4B62758  35.913  38.360   7.364
 4920POPC   NC362759  44.697  36.125   5.564
 4920POPC   PO462760  44.700  36.132   5.864
 4920POPC   GL162761  44.655  36.120   6.164
 4920POPC   GL262762  44.736  36.233   6.164
 4920POPC   C1A62763  44.628  36.125   6.464
 4920POPC   D2A62764  44.674  36.121   6.764
 4920POPC   C3A62765  44.700  36.107   7.064
 4920POPC   C4A62766  44.619  36.165   7.364
 4920POPC   C1B62767  44.821  36.249   6.464
 4920POPC   C2B62768  44.874  36.307   6.764
 4920POPC   C3B62769  44.856  36.270   7.064
 4920POPC   C4B62770  44.868  36.253   7.364
 4921POPC   NC362771   3.541  13.644   5.564
 4921POPC   PO462772   3.557  13.583   5.864
 4921POPC   GL162773   3.506  13.669   6.164
 4921POPC   GL262774   3.684  13.609   6.164
 4921POPC   C1A62775   3.506  13.675   6.464
 4921POPC   D2A62776   3.493  13.614   6.764
 4921POPC   C3A62777   3.568  13.598   7.064
 4921POPC   C4A62778   3.555  13.580   7.364
 4921POPC   C1B62779   3.780  13.560   6.464
 4921POPC   C2B62780   3.753  13.597   6.764
 4921POPC   C3B62781   3.834  13.630   7.064
 4921POPC   C4B62782   3.829  13.604   7.364
 4922POPC   NC362783  20.637  13.621   5.564
 4922POPC   PO462784  20.580  13.668   5.864
 4922POPC   GL162785  20.562  13.626   6.164
 4922POPC   GL262786  20.580  13.461   6.164
 4922POPC   C1A62787  20.574  13.626   6.464
 4922POPC   D2A62788  20.643  13.650   6.764
 4922POPC   C3A62789  20.658  13.591   7.064
 4922POPC   C4A62790  20.597  13.631   7.364
 4922POPC   C1B62791  20.637  13.426   6.464
 4922POPC   C2B62792  20.640  13.354   6.764
 4922POPC   C3B62793  20.655  13.406   7.064
 4922POPC   C4B62794  20.626  13.421   7.364
 4923POPC   NC362795  19.045   7.393   5.564
 4923POPC   PO462796  19.037   7.467   5.864
 4923POPC   GL162797  19.107   7.451   6.164
 4923POPC   GL262798  18.967   7.482   6.164
 4923POPC   C1A62799  19.076   7.445   6.464
 4923POPC   D2A62800  19.038   7.445   6.764
 4923POPC   C3A62801  19.069   7.406   7.064
 4923POPC   C4A62802  19.050   7.384   7.364
 4923POPC   C1B62803  18.926   7.573   6.464
 4923POPC   C2B62804  18.867   7.593   6.764
 4923POPC   C3B62805  18.835   7.587   7.064
 4923POPC   C4B62806  18.899   7.613   7.364
 4924POPC   NC362807   9.744  39.247   5.564
 4924POPC   PO462808   9.699  39.182   5.864
 4924POPC   GL162809   9.770  39.270   6.164
 4924POPC   GL262810   9.642  39.102   6.164
 4924POPC   C1A62811   9.785  39.276   6.464
 4924POPC   D2A62812   9.760  39.245   6.764
 4924POPC   C3A62813   9.797  39.238   7.064
 4924POPC   C4A62814   9.788  39.185   7.364
 4924POPC   C1B62815   9.642  38.973   6.464
 4924POPC   C2B62816   9.599  39.023   6.764
 4924POPC   C3B62817   9.655  39.002   7.064
 4924POPC   C4B62818   9.605  38.978   7.364
 4925POPC   NC362819   5.052  33.802   5.564
 4925POPC   PO462820   5.140  33.836   5.864
 4925POPC   GL162821   5.113  33.792   6.164
 4925POPC   GL262822   5.074  33.696   6.164
 4925POPC   C1A62823   5.107  33.811   6.464
 4925POPC   D2A62824   5.081  33.785   6.764
 4925POPC   C3A62825   5.063  33.756   7.064
 4925POPC   C4A62826   5.093  33.779   7.364
 4925POPC   C1B62827   4.963  33.588   6.464
 4925POPC   C2B62828   5.000  33.532   6.764
 4925POPC   C3B62829   4.992  33.561   7.064
 4925POPC   C4B62830   5.015  33.565   7.364
 4926POPC   NC362831  22.907  12.834   5.564
 4926POPC   PO462832  22.930  12.803   5.864
 4926POPC   GL162833  22.955  12.813   6.164
 4926POPC   GL262834  22.868  12.994   6.164
 4926POPC   C1A62835  22.972  12.842   6.464
 4926POPC   D2A62836  22.979  12.844   6.764
 4926POPC   C3A62837  22.895  12.839   7.064
 4926POPC   C4A62838  22.969  12.901   7.364
 4926POPC   C1B62839  22.851  13.111   6.464
 4926POPC   C2B62840  22.893  13.133   6.764
 4926POPC   C3B62841  22.826  13.047   7.064
 4926POPC   C4B62842  22.810  13.067   7.364
 4927POPC   NC362843  22.958  18.296   5.564
 4927POPC   PO462844  22.979  18.265   5.864
 4927POPC   GL162845  22.981  18.269   6.164
 4927POPC   GL262846  22.951  18.432   6.164
 4927POPC   C1A62847  22.897  18.290   6.464
 4927POPC   D2A62848  22.979  18.310   6.764
 4927POPC   C3A62849  22.977  18.302   7.064
 4927POPC   C4A62850  22.919  18.263   7.364
 4927POPC   C1B62851  22.987  18.534   6.464
 4927POPC   C2B62852  22.972  18.539   6.764
 4927POPC   C3B62853  22.958  18.524   7.064
 4927POPC   C4B62854  22.943  18.526   7.364
 4928POPC   NC362855  19.823  39.973   5.564
 4928POPC   PO462856  19.835  39.996   5.864
 4928POPC   GL162857  19.856  40.010   6.164
 4928POPC   GL262858  19.822  40.165   6.164
 4928POPC   C1A62859  19.843  40.037   6.464
 4928POPC   D2A62860  19.866  40.037   6.764
 4928POPC   C3A62861  19.839  39.999   7.064
 4928POPC   C4A62862  19.810  40.003   7.364
 4928POPC   C1B62863  19.725  40.219   6.464
 4928POPC   C2B62864  19.675  40.228   6.764
 4928POPC   C3B62865  19.726  40.228   7.064
 4928POPC   C4B62866  19.692  40.261   7.364
 4929POPC   NC362867  32.252  40.791   5.564
 4929POPC   PO462868  32.269  40.791   5.864
 4929POPC   GL162869  32.256  40.796   6.164
 4929POPC   GL262870  32.320  40.721   6.164
 4929POPC   C1A62871  32.203  40.809   6.464
 4929POPC   D2A62872  32.223  40.757   6.764
 4929POPC   C3A62873  32.282  40.814   7.064
 4929POPC   C4A62874  32.237  40.821   7.364
 4929POPC   C1B62875  32.372  40.546   6.464
 4929POPC   C2B62876  32.440  40.535   6.764
 4929POPC   C3B62877  32.421  40.561   7.064
 4929POPC   C4B62878  32.415  40.579   7.364
 4930POPC   NC362879  14.372  12.875   5.564
 4930POPC   PO462880  14.416  12.847   5.864
 4930POPC   GL162881  14.417  12.858   6.164
 4930POPC   GL262882  14.269  12.920   6.164
 4930POPC   C1A62883  14.436  12.840   6.464
 4930POPC   D2A62884  14.405  12.851   6.764
 4930POPC   C3A62885  14.358  12.898   7.064
 4930POPC   C4A62886  14.425  12.850   7.364
 4930POPC   C1B62887  14.201  12.959   6.464
 4930POPC   C2B62888  14.173  12.953   6.764
 4930POPC   C3B62889  14.197  12.953   7.064
 4930POPC   C4B62890  14.166  12.878   7.364
 4931POPC   NC362891  36.160  39.230   5.564
 4931POPC   PO462892  36.142  39.216   5.864
 4931POPC   GL162893  36.084  39.221   6.164
 4931POPC   GL262894  36.042  39.244   6.164
 4931POPC   C1A62895  36.170  39.241   6.464
 4931POPC   D2A62896  36.087  39.196   6.764
 4931POPC   C3A62897  36.109  39.188   7.064
 4931POPC   C4A62898  36.085  39.204   7.364
 4931POPC   C1B62899  35.925  39.257   6.464
 4931POPC   C2B62900  35.908  39.274   6.764
 4931POPC   C3B62901  35.913  39.207   7.064
 4931POPC   C4B62902  35.837  39.228   7.364
 4932POPC   NC362903  26.793  30.654   5.564
 4932POPC   PO462904  26.845  30.661   5.864
 4932POPC   GL162905  26.831  30.679   6.164
 4932POPC   GL262906  26.794  30.546   6.164
 4932POPC   C1A62907  26.770  30.657   6.464
 4932POPC   D2A62908  26.831  30.697   6.764
 4932POPC   C3A62909  26.774  30.728   7.064
 4932POPC   C4A62910  26.797  30.724   7.364
 4932POPC   C1B62911  26.816  30.483   6.464
 4932POPC   C2B62912  26.880  30.493   6.764
 4932POPC   C3B62913  26.862  30.457   7.064
 4932POPC   C4B62914  26.798  30.472   7.364
 4933POPC   NC362915  38.481  15.207   5.564
 4933POPC   PO462916  38.465  15.131   5.864
 4933POPC   GL162917  38.475  15.146   6.164
 4933POPC   GL262918  38.362  15.132   6.164
 4933POPC   C1A62919  38.459  15.212   6.464
 4933POPC   D2A62920  38.414  15.220   6.764
 4933POPC   C3A62921  38.486  15.228   7.064
 4933POPC   C4A62922  38.501  15.154   7.364
 4933POPC   C1B62923  38.249  15.114   6.464
 4933POPC   C2B62924  38.205  15.024   6.764
 4933POPC   C3B62925  38.224  15.040   7.064
 4933POPC   C4B62926  38.185  15.063   7.364
 4934POPC   NC362927   5.120  32.276   5.564
 4934POPC   PO462928   5.139  32.247   5.864
 4934POPC   GL162929   5.129  32.237   6.164
 4934POPC   GL262930   4.990  32.287   6.164
 4934POPC   C1A62931   5.100  32.237   6.464
 4934POPC   D2A62932   5.108  32.240   6.764
 4934POPC   C3A62933   5.121  32.212   7.064
 4934POPC   C4A62934   5.120  32.219   7.364
 4934POPC   C1B62935   4.896  32.423   6.464
 4934POPC   C2B62936   4.924  32.450   6.764
 4934POPC   C3B62937   4.893  32.383   7.064
 4934POPC   C4B62938   4.865  32.429   7.364
 4935POPC   NC362939  15.201  25.266   5.564
 4935POPC   PO462940  15.168  25.265   5.864
 4935POPC   GL162941  15.204  25.222   6.164
 4935POPC   GL262942  15.116  25.346   6.164
 4935POPC   C1A62943  15.146  25.229   6.464
 4935POPC   D2A62944  15.214  25.292   6.764
 4935POPC   C3A62945  15.196  25.237   7.064
 4935POPC   C4A62946  15.220  25.261   7.364
 4935POPC   C1B62947  15.075  25.506   6.464
 4935POPC   C2B62948  15.068  25.539   6.764
 4935POPC   C3B62949  15.065  25.468   7.064
 4935POPC   C4B62950  15.068  25.477   7.364
 4936POPC   NC362951   8.238  40.033   5.564
 4936POPC   PO462952   8.175  40.027   5.864
 4936POPC   GL162953   8.194  40.005   6.164
 4936POPC   GL262954   8.336  39.968   6.164
 4936POPC   C1A62955   8.235  40.027   6.464
 4936POPC   D2A62956   8.207  40.017   6.764
 4936POPC   C3A62957   8.163  40.019   7.064
 4936POPC   C4A62958   8.196  40.004   7.364
 4936POPC   C1B62959   8.411  39.922   6.464
 4936POPC   C2B62960   8.466  39.874   6.764
 4936POPC   C3B62961   8.388  39.910   7.064
 4936POPC   C4B62962   8.419  39.884   7.364
 4937POPC   NC362963  40.027   5.068   5.564
 4937POPC   PO462964  40.008   5.058   5.864
 4937POPC   GL162965  40.056   5.141   6.164
 4937POPC   GL262966  39.937   5.217   6.164
 4937POPC   C1A62967  40.036   5.114   6.464
 4937POPC   D2A62968  39.969   5.066   6.764
 4937POPC   C3A62969  40.051   5.046   7.064
 4937POPC   C4A62970  40.025   5.055   7.364
 4937POPC   C1B62971  39.834   5.331   6.464
 4937POPC   C2B62972  39.828   5.320   6.764
 4937POPC   C3B62973  39.848   5.344   7.064
 4937POPC   C4B62974  39.869   5.345   7.364
 4938POPC   NC362975  29.957  17.484   5.564
 4938POPC   PO462976  29.941  17.463   5.864
 4938POPC   GL162977  29.932  17.536   6.164
 4938POPC   GL262978  29.935  17.439   6.164
 4938POPC   C1A62979  29.947  17.526   6.464
 4938POPC   D2A62980  29.933  17.483   6.764
 4938POPC   C3A62981  29.924  17.551   7.064
 4938POPC   C4A62982  29.924  17.466   7.364
 4938POPC   C1B62983  30.045  17.314   6.464
 4938POPC   C2B62984  30.002  17.323   6.764
 4938POPC   C3B62985  29.999  17.311   7.064
 4938POPC   C4B62986  30.025  17.230   7.364
 4939POPC   NC362987  17.541  32.288   5.564
 4939POPC   PO462988  17.471  32.246   5.864
 4939POPC   GL162989  17.515  32.222   6.164
 4939POPC   GL262990  17.588  32.375   6.164
 4939POPC   C1A62991  17.462  32.211   6.464
 4939POPC   D2A62992  17.523  32.232   6.764
 4939POPC   C3A62993  17.502  32.221   7.064
 4939POPC   C4A62994  17.502  32.234   7.364
 4939POPC   C1B62995  17.731  32.436   6.464
 4939POPC   C2B62996  17.747  32.374   6.764
 4939POPC   C3B62997  17.722  32.449   7.064
 4939POPC   C4B62998  17.698  32.374   7.364
 4940POPC   NC362999  44.620   6.617   5.564
 4940POPC   PO463000  44.619   6.646   5.864
 4940POPC   GL163001  44.674   6.628   6.164
 4940POPC   GL263002  44.791   6.635   6.164
 4940POPC   C1A63003  44.708   6.610   6.464
 4940POPC   D2A63004  44.697   6.663   6.764
 4940POPC   C3A63005  44.684   6.602   7.064
 4940POPC   C4A63006  44.639   6.690   7.364
 4940POPC   C1B63007  44.940   6.643   6.464
 4940POPC   C2B63008  44.909   6.687   6.764
 4940POPC   C3B63009  44.908   6.661   7.064
 4940POPC   C4B63010  44.943   6.631   7.364
 4941POPC   NC363011  28.336  24.443   5.564
 4941POPC   PO463012  28.394  24.470   5.864
 4941POPC   GL163013  28.334  24.447   6.164
 4941POPC   GL263014  28.217  24.511   6.164
 4941POPC   C1A63015  28.322  24.440   6.464
 4941POPC   D2A63016  28.344  24.457   6.764
 4941POPC   C3A63017  28.358  24.479   7.064
 4941POPC   C4A63018  28.388  24.516   7.364
 4941POPC   C1B63019  28.079  24.511   6.464
 4941POPC   C2B63020  28.108  24.489   6.764
 4941POPC   C3B63021  28.080  24.502   7.064
 4941POPC   C4B63022  28.127  24.524   7.364
 4942POPC   NC363023  38.437  25.272   5.564
 4942POPC   PO463024  38.411  25.294   5.864
 4942POPC   GL163025  38.486  25.219   6.164
 4942POPC   GL263026  38.567  25.166   6.164
 4942POPC   C1A63027  38.464  25.303   6.464
 4942POPC   D2A63028  38.413  25.314   6.764
 4942POPC   C3A63029  38.457  25.229   7.064
 4942POPC   C4A63030  38.430  25.239   7.364
 4942POPC   C1B63031  38.633  25.079   6.464
 4942POPC   C2B63032  38.651  25.091   6.764
 4942POPC   C3B63033  38.697  25.100   7.064
 4942POPC   C4B63034  38.626  25.079   7.364
 4943POPC   NC363035  11.277  22.193   5.564
 4943POPC   PO463036  11.322  22.174   5.864
 4943POPC   GL163037  11.296  22.180   6.164
 4943POPC   GL263038  11.414  22.112   6.164
 4943POPC   C1A63039  11.337  22.211   6.464
 4943POPC   D2A63040  11.278  22.186   6.764
 4943POPC   C3A63041  11.310  22.147   7.064
 4943POPC   C4A63042  11.327  22.160   7.364
 4943POPC   C1B63043  11.442  21.951   6.464
 4943POPC   C2B63044  11.476  22.043   6.764
 4943POPC   C3B63045  11.529  21.998   7.064
 4943POPC   C4B63046  11.528  22.039   7.364
 4944POPC   NC363047  43.145  41.542   5.564
 4944POPC   PO463048  43.066  41.583   5.864
 4944POPC   GL163049  43.088  41.510   6.164
 4944POPC   GL263050  43.209  41.665   6.164
 4944POPC   C1A63051  43.135  41.562   6.464
 4944POPC   D2A63052  43.142  41.563   6.764
 4944POPC   C3A63053  43.101  41.589   7.064
 4944POPC   C4A63054  43.080  41.603   7.364
 4944POPC   C1B63055  43.227  41.705   6.464
 4944POPC   C2B63056  43.257  41.755   6.764
 4944POPC   C3B63057  43.232  41.783   7.064
 4944POPC   C4B63058  43.309  41.720   7.364
 4945POPC   NC363059  33.020  26.780   5.564
 4945POPC   PO463060  33.047  26.792   5.864
 4945POPC   GL163061  33.062  26.863   6.164
 4945POPC   GL263062  33.080  26.968   6.164
 4945POPC   C1A63063  32.991  26.836   6.464
 4945POPC   D2A63064  32.978  26.828   6.764
 4945POPC   C3A63065  33.016  26.822   7.064
 4945POPC   C4A63066  33.016  26.840   7.364
 4945POPC   C1B63067  33.103  27.008   6.464
 4945POPC   C2B63068  33.094  27.002   6.764
 4945POPC   C3B63069  33.175  27.072   7.064
 4945POPC   C4B63070  33.159  27.047   7.364
 4946POPC   NC363071   7.387  38.497   5.564
 4946POPC   PO463072   7.432  38.478   5.864
 4946POPC   GL163073   7.450  38.414   6.164
 4946POPC   GL263074   7.297  38.517   6.164
 4946POPC   C1A63075   7.421  38.410   6.464
 4946POPC   D2A63076   7.378  38.442   6.764
 4946POPC   C3A63077   7.439  38.460   7.064
 4946POPC   C4A63078   7.378  38.469   7.364
 4946POPC   C1B63079   7.195  38.648   6.464
 4946POPC   C2B63080   7.258  38.640   6.764
 4946POPC   C3B63081   7.261  38.592   7.064
 4946POPC   C4B63082   7.207  38.609   7.364
 4947POPC   NC363083  19.104  19.051   5.564
 4947POPC   PO463084  19.102  19.046   5.864
 4947POPC   GL163085  19.050  19.081   6.164
 4947POPC   GL263086  19.121  19.090   6.164
 4947POPC   C1A63087  19.056  19.032   6.464
 4947POPC   D2A63088  19.080  19.044   6.764
 4947POPC   C3A63089  19.081  19.011   7.064
 4947POPC   C4A63090  19.031  19.020   7.364
 4947POPC   C1B63091  19.278  19.148   6.464
 4947POPC   C2B63092  19.295  19.166   6.764
 4947POPC   C3B63093  19.252  19.165   7.064
 4947POPC   C4B63094  19.236  19.162   7.364
 4948POPC   NC363095  17.530   1.941   5.564
 4948POPC   PO463096  17.528   1.996   5.864
 4948POPC   GL163097  17.492   1.972   6.164
 4948POPC   GL263098  17.428   1.866   6.164
 4948POPC   C1A63099  17.527   2.006   6.464
 4948POPC   D2A63100  17.555   2.003   6.764
 4948POPC   C3A63101  17.552   1.992   7.064
 4948POPC   C4A63102  17.463   1.988   7.364
 4948POPC   C1B63103  17.377   1.820   6.464
 4948POPC   C2B63104  17.347   1.830   6.764
 4948POPC   C3B63105  17.308   1.798   7.064
 4948POPC   C4B63106  17.311   1.785   7.364
 4949POPC   NC363107  26.033  30.691   5.564
 4949POPC   PO463108  25.995  30.697   5.864
 4949POPC   GL163109  26.005  30.658   6.164
 4949POPC   GL263110  25.929  30.571   6.164
 4949POPC   C1A63111  26.053  30.738   6.464
 4949POPC   D2A63112  26.030  30.720   6.764
 4949POPC   C3A63113  26.050  30.744   7.064
 4949POPC   C4A63114  26.078  30.648   7.364
 4949POPC   C1B63115  25.913  30.476   6.464
 4949POPC   C2B63116  25.920  30.471   6.764
 4949POPC   C3B63117  25.893  30.475   7.064
 4949POPC   C4B63118  25.865  30.488   7.364
 4950POPC   NC363119  32.990  21.337   5.564
 4950POPC   PO463120  33.054  21.373   5.864
 4950POPC   GL163121  33.056  21.418   6.164
 4950POPC   GL263122  33.048  21.262   6.164
 4950POPC   C1A63123  33.027  21.392   6.464
 4950POPC   D2A63124  32.983  21.345   6.764
 4950POPC   C3A63125  33.033  21.371   7.064
 4950POPC   C4A63126  33.038  21.348   7.364
 4950POPC   C1B63127  32.971  21.098   6.464
 4950POPC   C2B63128  32.948  21.146   6.764
 4950POPC   C3B63129  32.995  21.149   7.064
 4950POPC   C4B63130  32.947  21.145   7.364
 4951POPC   NC363131  19.045   8.949   5.564
 4951POPC   PO463132  19.027   8.940   5.864
 4951POPC   GL163133  19.078   8.941   6.164
 4951POPC   GL263134  19.102   9.107   6.164
 4951POPC   C1A63135  19.009   8.994   6.464
 4951POPC   D2A63136  19.057   8.981   6.764
 4951POPC   C3A63137  19.053   9.015   7.064
 4951POPC   C4A63138  19.106   8.961   7.364
 4951POPC   C1B63139  19.140   9.147   6.464
 4951POPC   C2B63140  19.122   9.222   6.764
 4951POPC   C3B63141  19.152   9.231   7.064
 4951POPC   C4B63142  19.136   9.183   7.364
 4952POPC   NC363143  12.121  14.407   5.564
 4952POPC   PO463144  12.099  14.355   5.864
 4952POPC   GL163145  12.091  14.431   6.164
 4952POPC   GL263146  11.963  14.326   6.164
 4952POPC   C1A63147  12.079  14.379   6.464
 4952POPC   D2A63148  12.079  14.393   6.764
 4952POPC   C3A63149  12.029  14.404   7.064
 4952POPC   C4A63150  12.099  14.418   7.364
 4952POPC   C1B63151  11.911  14.176   6.464
 4952POPC   C2B63152  11.973  14.222   6.764
 4952POPC   C3B63153  11.914  14.178   7.064
 4952POPC   C4B63154  11.904  14.174   7.364
 4953POPC   NC363155  43.110  39.260   5.564
 4953POPC   PO463156  43.117  39.279   5.864
 4953POPC   GL163157  43.094  39.236   6.164
 4953POPC   GL263158  43.041  39.293   6.164
 4953POPC   C1A63159  43.112  39.278   6.464
 4953POPC   D2A63160  43.149  39.250   6.764
 4953POPC   C3A63161  43.079  39.214   7.064
 4953POPC   C4A63162  43.117  39.238   7.364
 4953POPC   C1B63163  42.863  39.383   6.464
 4953POPC   C2B63164  42.912  39.354   6.764
 4953POPC   C3B63165  42.937  39.380   7.064
 4953POPC   C4B63166  42.901  39.319   7.364
 4954POPC   NC363167  38.466  30.733   5.564
 4954POPC   PO463168  38.422  30.687   5.864
 4954POPC   GL163169  38.446  30.664   6.164
 4954POPC   GL263170  38.334  30.637   6.164
 4954POPC   C1A63171  38.413  30.721   6.464
 4954POPC   D2A63172  38.500  30.678   6.764
 4954POPC   C3A63173  38.492  30.708   7.064
 4954POPC   C4A63174  38.421  30.744   7.364
 4954POPC   C1B63175  38.234  30.665   6.464
 4954POPC   C2B63176  38.205  30.597   6.764
 4954POPC   C3B63177  38.165  30.663   7.064
 4954POPC   C4B63178  38.207  30.598   7.364
 4955POPC   NC363179   9.713  26.834   5.564
 4955POPC   PO463180   9.735  26.822   5.864
 4955POPC   GL163181   9.748  26.854   6.164
 4955POPC   GL263182   9.721  26.901   6.164
 4955POPC   C1A63183   9.794  26.854   6.464
 4955POPC   D2A63184   9.706  26.795   6.764
 4955POPC   C3A63185   9.749  26.828   7.064
 4955POPC   C4A63186   9.755  26.842   7.364
 4955POPC   C1B63187   9.735  27.027   6.464
 4955POPC   C2B63188   9.780  27.031   6.764
 4955POPC   C3B63189   9.741  27.040   7.064
 4955POPC   C4B63190   9.774  27.073   7.364
 4956POPC   NC363191  42.367  12.088   5.564
 4956POPC   PO463192  42.323  12.116   5.864
 4956POPC   GL163193  42.343  12.061   6.164
 4956POPC   GL263194  42.299  12.214   6.164
 4956POPC   C1A63195  42.348  12.107   6.464
 4956POPC   D2A63196  42.298  12.090   6.764
 4956POPC   C3A63197  42.319  12.063   7.064
 4956POPC   C4A63198  42.285  12.123   7.364
 4956POPC   C1B63199  42.287  12.332   6.464
 4956POPC   C2B63200  42.288  12.345   6.764
 4956POPC   C3B63201  42.322  12.375   7.064
 4956POPC   C4B63202  42.267  12.325   7.364
 4957POPC   NC363203  38.496   7.467   5.564
 4957POPC   PO463204  38.428   7.406   5.864
 4957POPC   GL163205  38.493   7.438   6.164
 4957POPC   GL263206  38.323   7.431   6.164
 4957POPC   C1A63207  38.421   7.377   6.464
 4957POPC   D2A63208  38.415   7.420   6.764
 4957POPC   C3A63209  38.462   7.382   7.064
 4957POPC   C4A63210  38.473   7.460   7.364
 4957POPC   C1B63211  38.237   7.367   6.464
 4957POPC   C2B63212  38.244   7.316   6.764
 4957POPC   C3B63213  38.226   7.396   7.064
 4957POPC   C4B63214  38.192   7.325   7.364
 4958POPC   NC363215   8.998  11.311   5.564
 4958POPC   PO463216   8.964  11.297   5.864
 4958POPC   GL163217   8.995  11.286   6.164
 4958POPC   GL263218   8.944  11.208   6.164
 4958POPC   C1A63219   8.964  11.317   6.464
 4958POPC   D2A63220   8.990  11.309   6.764
 4958POPC   C3A63221   8.964  11.341   7.064
 4958POPC   C4A63222   8.932  11.312   7.364
 4958POPC   C1B63223   8.993  11.015   6.464
 4958POPC   C2B63224   8.990  11.064   6.764
 4958POPC   C3B63225   8.957  11.046   7.064
 4958POPC   C4B63226   8.987  11.077   7.364
 4959POPC   NC363227  36.176  28.400   5.564
 4959POPC   PO463228  36.164  28.394   5.864
 4959POPC   GL163229  36.174  28.413   6.164
 4959POPC   GL263230  36.261  28.305   6.164
 4959POPC   C1A63231  36.113  28.324   6.464
 4959POPC   D2A63232  36.134  28.349   6.764
 4959POPC   C3A63233  36.152  28.390   7.064
 4959POPC   C4A63234  36.103  28.393   7.364
 4959POPC   C1B63235  36.374  28.334   6.464
 4959POPC   C2B63236  36.343  28.294   6.764
 4959POPC   C3B63237  36.327  28.326   7.064
 4959POPC   C4B63238  36.363  28.357   7.364
 4960POPC   NC363239  36.122   3.585   5.564
 4960POPC   PO463240  36.115   3.522   5.864
 4960POPC   GL163241  36.101   3.493   6.164
 4960POPC   GL263242  36.035   3.578   6.164
 4960POPC   C1A63243  36.156   3.568   6.464
 4960POPC   D2A63244  36.152   3.502   6.764
 4960POPC   C3A63245  36.176   3.491   7.064
 4960POPC   C4A63246  36.124   3.551   7.364
 4960POPC   C1B63247  35.856   3.648   6.464
 4960POPC   C2B63248  35.851   3.585   6.764
 4960POPC   C3B63249  35.886   3.612   7.064
 4960POPC   C4B63250  35.912   3.644   7.364
 4961POPC   NC363251  25.292  29.949   5.564
 4961POPC   PO463252  25.286  29.909   5.864
 4961POPC   GL163253  25.227  29.924   6.164
 4961POPC   GL263254  25.365  29.985   6.164
 4961POPC   C1A63255  25.247  29.926   6.464
 4961POPC   D2A63256  25.255  29.962   6.764
 4961POPC   C3A63257  25.227  29.875   7.064
 4961POPC   C4A63258  25.249  29.882   7.364
 4961POPC   C1B63259  25.505  30.054   6.464
 4961POPC   C2B63260  25.471  30.055   6.764
 4961POPC   C3B63261  25.457  29.986   7.064
 4961POPC   C4B63262  25.505  30.037   7.364
 4962POPC   NC363263   2.767  43.936   5.564
 4962POPC   PO463264   2.772  43.909   5.864
 4962POPC   GL163265   2.716  43.837   6.164
 4962POPC   GL263266   2.899  43.954   6.164
 4962POPC   C1A63267   2.795  43.923   6.464
 4962POPC   D2A63268   2.766  43.862   6.764
 4962POPC   C3A63269   2.774  43.913   7.064
 4962POPC   C4A63270   2.747  43.913   7.364
 4962POPC   C1B63271   2.975  43.960   6.464
 4962POPC   C2B63272   3.046  43.913   6.764
 4962POPC   C3B63273   3.024  43.886   7.064
 4962POPC   C4B63274   3.030  43.970   7.364
 4963POPC   NC363275  21.356   2.035   5.564
 4963POPC   PO463276  21.403   2.029   5.864
 4963POPC   GL163277  21.413   2.021   6.164
 4963POPC   GL263278  21.471   1.930   6.164
 4963POPC   C1A63279  21.410   1.940   6.464
 4963POPC   D2A63280  21.371   1.974   6.764
 4963POPC   C3A63281  21.388   2.039   7.064
 4963POPC   C4A63282  21.391   2.016   7.364
 4963POPC   C1B63283  21.603   1.846   6.464
 4963POPC   C2B63284  21.620   1.844   6.764
 4963POPC   C3B63285  21.596   1.913   7.064
 4963POPC   C4B63286  21.588   1.886   7.364
 4964POPC   NC363287   1.183  32.267   5.564
 4964POPC   PO463288   1.187  32.204   5.864
 4964POPC   GL163289   1.202  32.282   6.164
 4964POPC   GL263290   1.229  32.130   6.164
 4964POPC   C1A63291   1.177  32.220   6.464
 4964POPC   D2A63292   1.259  32.214   6.764
 4964POPC   C3A63293   1.210  32.209   7.064
 4964POPC   C4A63294   1.213  32.239   7.364
 4964POPC   C1B63295   1.265  31.974   6.464
 4964POPC   C2B63296   1.204  32.039   6.764
 4964POPC   C3B63297   1.212  32.038   7.064
 4964POPC   C4B63298   1.253  31.996   7.364
 4965POPC   NC363299  39.957  12.064   5.564
 4965POPC   PO463300  40.048  12.058   5.864
 4965POPC   GL163301  40.047  12.062   6.164
 4965POPC   GL263302  39.928  12.074   6.164
 4965POPC   C1A63303  39.970  12.121   6.464
 4965POPC   D2A63304  40.005  12.073   6.764
 4965POPC   C3A63305  39.979  12.087   7.064
 4965POPC   C4A63306  40.008  12.082   7.364
 4965POPC   C1B63307  39.751  12.152   6.464
 4965POPC   C2B63308  39.772  12.099   6.764
 4965POPC   C3B63309  39.723  12.118   7.064
 4965POPC   C4B63310  39.782  12.108   7.364
 4966POPC   NC363311  16.743  12.812   5.564
 4966POPC   PO463312  16.732  12.882   5.864
 4966POPC   GL163313  16.725  12.818   6.164
 4966POPC   GL263314  16.856  12.781   6.164
 4966POPC   C1A63315  16.715  12.807   6.464
 4966POPC   D2A63316  16.719  12.851   6.764
 4966POPC   C3A63317  16.752  12.846   7.064
 4966POPC   C4A63318  16.710  12.847   7.364
 4966POPC   C1B63319  16.904  12.719   6.464
 4966POPC   C2B63320  16.955  12.729   6.764
 4966POPC   C3B63321  16.954  12.717   7.064
 4966POPC   C4B63322  16.864  12.690   7.364
 4967POPC   NC363323  22.940  33.032   5.564
 4967POPC   PO463324  22.958  32.983   5.864
 4967POPC   GL163325  22.952  33.031   6.164
 4967POPC   GL263326  23.066  32.982   6.164
 4967POPC   C1A63327  22.980  33.041   6.464
 4967POPC   D2A63328  22.892  33.067   6.764
 4967POPC   C3A63329  22.948  33.029   7.064
 4967POPC   C4A63330  22.927  32.994   7.364
 4967POPC   C1B63331  23.185  32.906   6.464
 4967POPC   C2B63332  23.144  32.916   6.764
 4967POPC   C3B63333  23.152  32.938   7.064
 4967POPC   C4B63334  23.214  32.955   7.364
 4968POPC   NC363335  13.671   3.554   5.564
 4968POPC   PO463336  13.582   3.497   5.864
 4968POPC   GL163337  13.647   3.586   6.164
 4968POPC   GL263338  13.608   3.703   6.164
 4968POPC   C1A63339  13.597   3.570   6.464
 4968POPC   D2A63340  13.675   3.526   6.764
 4968POPC   C3A63341  13.646   3.505   7.064
 4968POPC   C4A63342  13.666   3.554   7.364
 4968POPC   C1B63343  13.507   3.821   6.464
 4968POPC   C2B63344  13.588   3.761   6.764
 4968POPC   C3B63345  13.543   3.773   7.064
 4968POPC   C4B63346  13.592   3.785   7.364
 4969POPC   NC363347  29.967  24.520   5.564
 4969POPC   PO463348  29.885  24.487   5.864
 4969POPC   GL163349  29.950  24.501   6.164
 4969POPC   GL263350  29.996  24.556   6.164
 4969POPC   C1A63351  29.939  24.467   6.464
 4969POPC   D2A63352  29.922  24.507   6.764
 4969POPC   C3A63353  29.915  24.450   7.064
 4969POPC   C4A63354  29.916  24.447   7.364
 4969POPC   C1B63355  30.196  24.588   6.464
 4969POPC   C2B63356  30.203  24.594   6.764
 4969POPC   C3B63357  30.204  24.580   7.064
 4969POPC   C4B63358  30.143  24.567   7.364
 4970POPC   NC363359  33.066  28.350   5.564
 4970POPC   PO463360  33.001  28.345   5.864
 4970POPC   GL163361  33.051  28.402   6.164
 4970POPC   GL263362  32.931  28.515   6.164
 4970POPC   C1A63363  32.997  28.355   6.464
 4970POPC   D2A63364  32.980  28.341   6.764
 4970POPC   C3A63365  33.041  28.390   7.064
 4970POPC   C4A63366  32.977  28.346   7.364
 4970POPC   C1B63367  32.858  28.617   6.464
 4970POPC   C2B63368  32.867  28.605   6.764
 4970POPC   C3B63369  32.848  28.572   7.064
 4970POPC   C4B63370  32.896  28.525   7.364
 4971POPC   NC363371  43.137   6.632   5.564
 4971POPC   PO463372  43.155   6.685   5.864
 4971POPC   GL163373  43.149   6.609   6.164
 4971POPC   GL263374  43.229   6.627   6.164
 4971POPC   C1A63375  43.106   6.603   6.464
 4971POPC   D2A63376  43.111   6.601   6.764
 4971POPC   C3A63377  43.114   6.609   7.064
 4971POPC   C4A63378  43.112   6.673   7.364
 4971POPC   C1B63379  43.362   6.527   6.464
 4971POPC   C2B63380  43.368   6.540   6.764
 4971POPC   C3B63381  43.327   6.538   7.064
 4971POPC   C4B63382  43.301   6.584   7.364
 4972POPC   NC363383  11.310  32.245   5.564
 4972POPC   PO463384  11.325  32.205   5.864
 4972POPC   GL163385  11.297  32.200   6.164
 4972POPC   GL263386  11.263  32.130   6.164
 4972POPC   C1A63387  11.335  32.272   6.464
 4972POPC   D2A63388  11.324  32.268   6.764
 4972POPC   C3A63389  11.301  32.244   7.064
 4972POPC   C4A63390  11.261  32.295   7.364
 4972POPC   C1B63391  11.171  32.048   6.464
 4972POPC   C2B63392  11.214  31.992   6.764
 4972POPC   C3B63393  11.197  32.040   7.064
 4972POPC   C4B63394  11.170  32.005   7.364
 4973POPC   NC363395  10.537   5.894   5.564
 4973POPC   PO463396  10.535   5.876   5.864
 4973POPC   GL163397  10.550   5.835   6.164
 4973POPC   GL263398  10.608   5.915   6.164
 4973POPC   C1A63399  10.563   5.845   6.464
 4973POPC   D2A63400  10.477   5.892   6.764
 4973POPC   C3A63401  10.531   5.895   7.064
 4973POPC   C4A63402  10.542   5.837   7.364
 4973POPC   C1B63403  10.763   5.943   6.464
 4973POPC   C2B63404  10.745   5.919   6.764
 4973POPC   C3B63405  10.770   5.947   7.064
 4973POPC   C4B63406  10.790   5.892   7.364
 4974POPC   NC363407   9.000  26.816   5.564
 4974POPC   PO463408   8.942  26.848   5.864
 4974POPC   GL163409   8.933  26.825   6.164
 4974POPC   GL263410   9.047  26.841   6.164
 4974POPC   C1A63411   8.944  26.852   6.464
 4974POPC   D2A63412   8.999  26.782   6.764
 4974POPC   C3A63413   8.973  26.856   7.064
 4974POPC   C4A63414   8.996  26.771   7.364
 4974POPC   C1B63415   9.222  26.872   6.464
 4974POPC   C2B63416   9.187  26.851   6.764
 4974POPC   C3B63417   9.268  26.849   7.064
 4974POPC   C4B63418   9.236  26.812   7.364
 4975POPC   NC363419  19.054  27.599   5.564
 4975POPC   PO463420  19.013  27.614   5.864
 4975POPC   GL163421  19.064  27.581   6.164
 4975POPC   GL263422  19.196  27.560   6.164
 4975POPC   C1A63423  19.030  27.576   6.464
 4975POPC   D2A63424  19.076  27.613   6.764
 4975POPC   C3A63425  19.077  27.557   7.064
 4975POPC   C4A63426  19.049  27.545   7.364
 4975POPC   C1B63427  19.331  27.489   6.464
 4975POPC   C2B63428  19.249  27.522   6.764
 4975POPC   C3B63429  19.281  27.490   7.064
 4975POPC   C4B63430  19.283  27.529   7.364
 4976POPC   NC363431  41.509  31.504   5.564
 4976POPC   PO463432  41.539  31.457   5.864
 4976POPC   GL163433  41.606  31.468   6.164
 4976POPC   GL263434  41.564  31.358   6.164
 4976POPC   C1A63435  41.517  31.503   6.464
 4976POPC   D2A63436  41.552  31.459   6.764
 4976POPC   C3A63437  41.576  31.441   7.064
 4976POPC   C4A63438  41.561  31.515   7.364
 4976POPC   C1B63439  41.688  31.195   6.464
 4976POPC   C2B63440  41.633  31.285   6.764
 4976POPC   C3B63441  41.670  31.221   7.064
 4976POPC   C4B63442  41.682  31.251   7.364
 4977POPC   NC363443  16.724  15.216   5.564
 4977POPC   PO463444  16.775  15.227   5.864
 4977POPC   GL163445  16.683  15.208   6.164
 4977POPC   GL263446  16.557  15.185   6.164
 4977POPC   C1A63447  16.688  15.137   6.464
 4977POPC   D2A63448  16.748  15.136   6.764
 4977POPC   C3A63449  16.683  15.170   7.064
 4977POPC   C4A63450  16.735  15.168   7.364
 4977POPC   C1B63451  16.474  15.166   6.464
 4977POPC   C2B63452  16.475  15.161   6.764
 4977POPC   C3B63453  16.526  15.183   7.064
 4977POPC   C4B63454  16.509  15.153   7.364
 4978POPC   NC363455  26.802  24.445   5.564
 4978POPC   PO463456  26.853  24.503   5.864
 4978POPC   GL163457  26.835  24.455   6.164
 4978POPC   GL263458  26.877  24.361   6.164
 4978POPC   C1A63459  26.833  24.497   6.464
 4978POPC   D2A63460  26.851  24.443   6.764
 4978POPC   C3A63461  26.865  24.441   7.064
 4978POPC   C4A63462  26.841  24.509   7.364
 4978POPC   C1B63463  26.941  24.244   6.464
 4978POPC   C2B63464  26.896  24.253   6.764
 4978POPC   C3B63465  26.879  24.240   7.064
 4978POPC   C4B63466  26.867  24.273   7.364
 4979POPC   NC363467  10.497  20.569   5.564
 4979POPC   PO463468  10.570  20.604   5.864
 4979POPC   GL163469  10.539  20.578   6.164
 4979POPC   GL263470  10.476  20.563   6.164
 4979POPC   C1A63471  10.561  20.597   6.464
 4979POPC   D2A63472  10.544  20.579   6.764
 4979POPC   C3A63473  10.488  20.629   7.064
 4979POPC   C4A63474  10.555  20.616   7.364
 4979POPC   C1B63475  10.343  20.393   6.464
 4979POPC   C2B63476  10.311  20.415   6.764
 4979POPC   C3B63477  10.292  20.446   7.064
 4979POPC   C4B63478  10.343  20.467   7.364
 4980POPC   NC363479  30.660  23.727   5.564
 4980POPC   PO463480  30.742  23.684   5.864
 4980POPC   GL163481  30.658  23.743   6.164
 4980POPC   GL263482  30.773  23.837   6.164
 4980POPC   C1A63483  30.669  23.667   6.464
 4980POPC   D2A63484  30.733  23.673   6.764
 4980POPC   C3A63485  30.696  23.752   7.064
 4980POPC   C4A63486  30.736  23.726   7.364
 4980POPC   C1B63487  30.731  23.919   6.464
 4980POPC   C2B63488  30.739  23.971   6.764
 4980POPC   C3B63489  30.720  23.965   7.064
 4980POPC   C4B63490  30.732  23.992   7.364
 4981POPC   NC363491  29.100  32.284   5.564
 4981POPC   PO463492  29.181  32.221   5.864
 4981POPC   GL163493  29.117  32.224   6.164
 4981POPC   GL263494  29.254  32.125   6.164
 4981POPC   C1A63495  29.156  32.202   6.464
 4981POPC   D2A63496  29.134  32.199   6.764
 4981POPC   C3A63497  29.132  32.258   7.064
 4981POPC   C4A63498  29.144  32.214   7.364
 4981POPC   C1B63499  29.350  32.109   6.464
 4981POPC   C2B63500  29.276  32.072   6.764
 4981POPC   C3B63501  29.354  32.079   7.064
 4981POPC   C4B63502  29.327  32.028   7.364
 4982POPC   NC363503  22.944  43.142   5.564
 4982POPC   PO463504  22.933  43.149   5.864
 4982POPC   GL163505  22.959  43.083   6.164
 4982POPC   GL263506  22.789  43.049   6.164
 4982POPC   C1A63507  22.956  43.126   6.464
 4982POPC   D2A63508  22.919  43.109   6.764
 4982POPC   C3A63509  22.935  43.117   7.064
 4982POPC   C4A63510  22.974  43.112   7.364
 4982POPC   C1B63511  22.751  42.994   6.464
 4982POPC   C2B63512  22.780  42.917   6.764
 4982POPC   C3B63513  22.727  42.952   7.064
 4982POPC   C4B63514  22.709  42.913   7.364
 4983POPC   NC363515  19.805  14.366   5.564
 4983POPC   PO463516  19.829  14.413   5.864
 4983POPC   GL163517  19.844  14.363   6.164
 4983POPC   GL263518  19.668  14.355   6.164
 4983POPC   C1A63519  19.837  14.358   6.464
 4983POPC   D2A63520  19.806  14.423   6.764
 4983POPC   C3A63521  19.858  14.369   7.064
 4983POPC   C4A63522  19.786  14.398   7.364
 4983POPC   C1B63523  19.583  14.397   6.464
 4983POPC   C2B63524  19.614  14.428   6.764
 4983POPC   C3B63525  19.623  14.412   7.064
 4983POPC   C4B63526  19.542  14.354   7.364
 4984POPC   NC363527  42.345  30.730   5.564
 4984POPC   PO463528  42.378  30.681   5.864
 4984POPC   GL163529  42.328  30.726   6.164
 4984POPC   GL263530  42.453  30.547   6.164
 4984POPC   C1A63531  42.355  30.742   6.464
 4984POPC   D2A63532  42.310  30.666   6.764
 4984POPC   C3A63533  42.311  30.719   7.064
 4984POPC   C4A63534  42.329  30.689   7.364
 4984POPC   C1B63535  42.459  30.530   6.464
 4984POPC   C2B63536  42.512  30.449   6.764
 4984POPC   C3B63537  42.525  30.488   7.064
 4984POPC   C4B63538  42.461  30.462   7.364
 4985POPC   NC363539   0.453   5.075   5.564
 4985POPC   PO463540   0.478   5.072   5.864
 4985POPC   GL163541   0.401   5.123   6.164
 4985POPC   GL263542   0.528   5.202   6.164
 4985POPC   C1A63543   0.464   5.101   6.464
 4985POPC   D2A63544   0.446   5.077   6.764
 4985POPC   C3A63545   0.400   5.074   7.064
 4985POPC   C4A63546   0.449   5.138   7.364
 4985POPC   C1B63547   0.562   5.282   6.464
 4985POPC   C2B63548   0.571   5.343   6.764
 4985POPC   C3B63549   0.520   5.351   7.064
 4985POPC   C4B63550   0.557   5.336   7.364
 4986POPC   NC363551  37.720  31.461   5.564
 4986POPC   PO463552  37.637  31.492   5.864
 4986POPC   GL163553  37.703  31.522   6.164
 4986POPC   GL263554  37.617  31.620   6.164
 4986POPC   C1A63555  37.710  31.425   6.464
 4986POPC   D2A63556  37.693  31.465   6.764
 4986POPC   C3A63557  37.707  31.505   7.064
 4986POPC   C4A63558  37.696  31.432   7.364
 4986POPC   C1B63559  37.596  31.682   6.464
 4986POPC   C2B63560  37.649  31.693   6.764
 4986POPC   C3B63561  37.581  31.744   7.064
 4986POPC   C4B63562  37.578  31.689   7.364
 4987POPC   NC363563   2.009   5.848   5.564
 4987POPC   PO463564   2.016   5.824   5.864
 4987POPC   GL163565   1.968   5.871   6.164
 4987POPC   GL263566   1.857   5.935   6.164
 4987POPC   C1A63567   1.974   5.849   6.464
 4987POPC   D2A63568   1.946   5.841   6.764
 4987POPC   C3A63569   1.964   5.863   7.064
 4987POPC   C4A63570   2.030   5.865   7.364
 4987POPC   C1B63571   1.763   5.946   6.464
 4987POPC   C2B63572   1.768   5.900   6.764
 4987POPC   C3B63573   1.698   5.950   7.064
 4987POPC   C4B63574   1.710   5.882   7.364
 4988POPC   NC363575   0.389  26.810   5.564
 4988POPC   PO463576   0.404  26.847   5.864
 4988POPC   GL163577   0.430  26.820   6.164
 4988POPC   GL263578   0.543  26.847   6.164
 4988POPC   C1A63579   0.455  26.849   6.464
 4988POPC   D2A63580   0.402  26.850   6.764
 4988POPC   C3A63581   0.441  26.858   7.064
 4988POPC   C4A63582   0.389  26.799   7.364
 4988POPC   C1B63583   0.712  26.833   6.464
 4988POPC   C2B63584   0.724  26.833   6.764
 4988POPC   C3B63585   0.686  26.834   7.064
 4988POPC   C4B63586   0.644  26.837   7.364
 4989POPC   NC363587  36.928  18.300   5.564
 4989POPC   PO463588  36.860  18.270   5.864
 4989POPC   GL163589  36.949  18.319   6.164
 4989POPC   GL263590  36.992  18.375   6.164
 4989POPC   C1A63591  36.861  18.311   6.464
 4989POPC   D2A63592  36.856  18.285   6.764
 4989POPC   C3A63593  36.896  18.237   7.064
 4989POPC   C4A63594  36.876  18.326   7.364
 4989POPC   C1B63595  37.015  18.555   6.464
 4989POPC   C2B63596  37.024  18.503   6.764
 4989POPC   C3B63597  37.021  18.489   7.064
 4989POPC   C4B63598  36.992  18.476   7.364
 4990POPC   NC363599   7.451   2.009   5.564
 4990POPC   PO463600   7.415   1.972   5.864
 4990POPC   GL163601   7.417   2.034   6.164
 4990POPC   GL263602   7.406   2.095   6.164
 4990POPC   C1A63603   7.406   1.986   6.464
 4990POPC   D2A63604   7.443   1.977   6.764
 4990POPC   C3A63605   7.437   1.956   7.064
 4990POPC   C4A63606   7.440   2.002   7.364
 4990POPC   C1B63607   7.326   2.216   6.464
 4990POPC   C2B63608   7.313   2.187   6.764
 4990POPC   C3B63609   7.356   2.246   7.064
 4990POPC   C4B63610   7.288   2.198   7.364
 4991POPC   NC363611   8.237  13.641   5.564
 4991POPC   PO463612   8.203  13.608   5.864
 4991POPC   GL163613   8.215  13.617   6.164
 4991POPC   GL263614   8.355  13.641   6.164
 4991POPC   C1A63615   8.156  13.600   6.464
 4991POPC   D2A63616   8.189  13.595   6.764
 4991POPC   C3A63617   8.237  13.593   7.064
 4991POPC   C4A63618   8.239  13.650   7.364
 4991POPC   C1B63619   8.448  13.673   6.464
 4991POPC   C2B63620   8.456  13.661   6.764
 4991POPC   C3B63621   8.417  13.691   7.064
 4991POPC   C4B63622   8.475  13.622   7.364
 4992POPC   NC363623  31.464   5.060   5.564
 4992POPC   PO463624  31.473   5.122   5.864
 4992POPC   GL163625  31.499   5.086   6.164
 4992POPC   GL263626  31.480   5.187   6.164
 4992POPC   C1A63627  31.438   5.132   6.464
 4992POPC   D2A63628  31.460   5.070   6.764
 4992POPC   C3A63629  31.517   5.098   7.064
 4992POPC   C4A63630  31.484   5.128   7.364
 4992POPC   C1B63631  31.573   5.291   6.464
 4992POPC   C2B63632  31.572   5.319   6.764
 4992POPC   C3B63633  31.594   5.365   7.064
 4992POPC   C4B63634  31.558   5.366   7.364
 4993POPC   NC363635  18.294  17.532   5.564
 4993POPC   PO463636  18.271  17.522   5.864
 4993POPC   GL163637  18.237  17.457   6.164
 4993POPC   GL263638  18.233  17.348   6.164
 4993POPC   C1A63639  18.267  17.523   6.464
 4993POPC   D2A63640  18.260  17.479   6.764
 4993POPC   C3A63641  18.248  17.552   7.064
 4993POPC   C4A63642  18.261  17.477   7.364
 4993POPC   C1B63643  18.148  17.261   6.464
 4993POPC   C2B63644  18.181  17.295   6.764
 4993POPC   C3B63645  18.188  17.255   7.064
 4993POPC   C4B63646  18.200  17.270   7.364
 4994POPC   NC363647  40.794  16.718   5.564
 4994POPC   PO463648  40.769  16.778   5.864
 4994POPC   GL163649  40.776  16.756   6.164
 4994POPC   GL263650  40.701  16.645   6.164
 4994POPC   C1A63651  40.745  16.744   6.464
 4994POPC   D2A63652  40.821  16.754   6.764
 4994POPC   C3A63653  40.797  16.757   7.064
 4994POPC   C4A63654  40.815  16.711   7.364
 4994POPC   C1B63655  40.631  16.616   6.464
 4994POPC   C2B63656  40.614  16.551   6.764
 4994POPC   C3B63657  40.629  16.627   7.064
 4994POPC   C4B63658  40.591  16.541   7.364
 4995POPC   NC363659  37.677  17.508   5.564
 4995POPC   PO463660  37.683  17.473   5.864
 4995POPC   GL163661  37.725  17.543   6.164
 4995POPC   GL263662  37.534  17.629   6.164
 4995POPC   C1A63663  37.650  17.539   6.464
 4995POPC   D2A63664  37.700  17.459   6.764
 4995POPC   C3A63665  37.710  17.510   7.064
 4995POPC   C4A63666  37.652  17.555   7.364
 4995POPC   C1B63667  37.478  17.661   6.464
 4995POPC   C2B63668  37.477  17.612   6.764
 4995POPC   C3B63669  37.473  17.688   7.064
 4995POPC   C4B63670  37.449  17.636   7.364
 4996POPC   NC363671  16.700  34.625   5.564
 4996POPC   PO463672  16.780  34.565   5.864
 4996POPC   GL163673  16.772  34.586   6.164
 4996POPC   GL263674  16.808  34.570   6.164
 4996POPC   C1A63675  16.765  34.566   6.464
 4996POPC   D2A63676  16.780  34.549   6.764
 4996POPC   C3A63677  16.699  34.575   7.064
 4996POPC   C4A63678  16.696  34.595   7.364
 4996POPC   C1B63679  16.953  34.641   6.464
 4996POPC   C2B63680  16.993  34.653   6.764
 4996POPC   C3B63681  16.962  34.598   7.064
 4996POPC   C4B63682  17.022  34.632   7.364
 4997POPC   NC363683  29.955   8.227   5.564
 4997POPC   PO463684  29.903   8.177   5.864
 4997POPC   GL163685  29.933   8.212   6.164
 4997POPC   GL263686  29.851   8.115   6.164
 4997POPC   C1A63687  29.886   8.199   6.464
 4997POPC   D2A63688  29.951   8.236   6.764
 4997POPC   C3A63689  29.927   8.150   7.064
 4997POPC   C4A63690  29.958   8.172   7.364
 4997POPC   C1B63691  29.750   8.026   6.464
 4997POPC   C2B63692  29.692   8.012   6.764
 4997POPC   C3B63693  29.684   8.093   7.064
 4997POPC   C4B63694  29.735   8.027   7.364
 4998POPC   NC363695  31.518  19.828   5.564
 4998POPC   PO463696  31.485  19.869   5.864
 4998POPC   GL163697  31.500  19.797   6.164
 4998POPC   GL263698  31.400  19.780   6.164
 4998POPC   C1A63699  31.496  19.799   6.464
 4998POPC   D2A63700  31.448  19.849   6.764
 4998POPC   C3A63701  31.501  19.830   7.064
 4998POPC   C4A63702  31.455  19.803   7.364
 4998POPC   C1B63703  31.277  19.699   6.464
 4998POPC   C2B63704  31.222  19.730   6.764
 4998POPC   C3B63705  31.202  19.761   7.064
 4998POPC   C4B63706  31.234  19.725   7.364
 4999POPC   NC363707  29.959   7.381   5.564
 4999POPC   PO463708  29.903   7.440   5.864
 4999POPC   GL163709  29.885   7.407   6.164
 4999POPC   GL263710  29.948   7.324   6.164
 4999POPC   C1A63711  29.935   7.403   6.464
 4999POPC   D2A63712  29.917   7.384   6.764
 4999POPC   C3A63713  29.962   7.403   7.064
 4999POPC   C4A63714  29.898   7.411   7.364
 4999POPC   C1B63715  29.976   7.172   6.464
 4999POPC   C2B63716  30.009   7.162   6.764
 4999POPC   C3B63717  30.000   7.160   7.064
 4999POPC   C4B63718  29.967   7.161   7.364
 5000POPC   NC363719  39.245  25.255   5.564
 5000POPC   PO463720  39.199  25.313   5.864
 5000POPC   GL163721  39.189  25.223   6.164
 5000POPC   GL263722  39.128  25.267   6.164
 5000POPC   C1A63723  39.246  25.217   6.464
 5000POPC   D2A63724  39.199  25.309   6.764
 5000POPC   C3A63725  39.219  25.256   7.064
 5000POPC   C4A63726  39.248  25.281   7.364
 5000POPC   C1B63727  39.034  25.268   6.464
 5000POPC   C2B63728  39.010  25.278   6.764
 5000POPC   C3B63729  38.965  25.325   7.064
 5000POPC   C4B63730  39.023  25.351   7.364
 5001POPC   NC363731  22.950  30.729   5.564
 5001POPC   PO463732  22.940  30.665   5.864
 5001POPC   GL163733  22.970  30.746   6.164
 5001POPC   GL263734  22.795  30.608   6.164
 5001POPC   C1A63735  22.958  30.745   6.464
 5001POPC   D2A63736  22.959  30.741   6.764
 5001POPC   C3A63737  22.967  30.708   7.064
 5001POPC   C4A63738  22.902  30.699   7.364
 5001POPC   C1B63739  22.691  30.581   6.464
 5001POPC   C2B63740  22.758  30.553   6.764
 5001POPC   C3B63741  22.678  30.640   7.064
 5001POPC   C4B63742  22.739  30.612   7.364
 5002POPC   NC363743  30.670   4.311   5.564
 5002POPC   PO463744  30.732   4.292   5.864
 5002POPC   GL163745  30.672   4.350   6.164
 5002POPC   GL263746  30.606   4.381   6.164
 5002POPC   C1A63747  30.663   4.306   6.464
 5002POPC   D2A63748  30.657   4.309   6.764
 5002POPC   C3A63749  30.712   4.324   7.064
 5002POPC   C4A63750  30.648   4.366   7.364
 5002POPC   C1B63751  30.474   4.449   6.464
 5002POPC   C2B63752  30.482   4.402   6.764
 5002POPC   C3B63753  30.497   4.468   7.064
 5002POPC   C4B63754  30.474   4.440   7.364
 5003POPC   NC363755  39.991   5.902   5.564
 5003POPC   PO463756  39.993   5.879   5.864
 5003POPC   GL163757  40.049   5.895   6.164
 5003POPC   GL263758  39.964   5.804   6.164
 5003POPC   C1A63759  40.041   5.885   6.464
 5003POPC   D2A63760  39.999   5.826   6.764
 5003POPC   C3A63761  39.958   5.820   7.064
 5003POPC   C4A63762  40.034   5.896   7.364
 5003POPC   C1B63763  39.882   5.653   6.464
 5003POPC   C2B63764  39.897   5.599   6.764
 5003POPC   C3B63765  39.841   5.626   7.064
 5003POPC   C4B63766  39.918   5.664   7.364
 5004POPC   NC363767   8.994  22.942   5.564
 5004POPC   PO463768   8.975  22.986   5.864
 5004POPC   GL163769   8.923  22.921   6.164
 5004POPC   GL263770   8.836  22.853   6.164
 5004POPC   C1A63771   8.986  22.901   6.464
 5004POPC   D2A63772   8.987  22.974   6.764
 5004POPC   C3A63773   9.002  22.946   7.064
 5004POPC   C4A63774   8.923  22.948   7.364
 5004POPC   C1B63775   8.828  22.790   6.464
 5004POPC   C2B63776   8.783  22.752   6.764
 5004POPC   C3B63777   8.775  22.759   7.064
 5004POPC   C4B63778   8.749  22.792   7.364
 5005POPC   NC363779   5.840  15.187   5.564
 5005POPC   PO463780   5.904  15.144   5.864
 5005POPC   GL163781   5.895  15.177   6.164
 5005POPC   GL263782   6.020  15.114   6.164
 5005POPC   C1A63783   5.890  15.201   6.464
 5005POPC   D2A63784   5.868  15.149   6.764
 5005POPC   C3A63785   5.862  15.148   7.064
 5005POPC   C4A63786   5.869  15.214   7.364
 5005POPC   C1B63787   6.112  15.077   6.464
 5005POPC   C2B63788   6.155  15.133   6.764
 5005POPC   C3B63789   6.057  15.105   7.064
 5005POPC   C4B63790   6.118  15.092   7.364
 5006POPC   NC363791  33.807   3.516   5.564
 5006POPC   PO463792  33.800   3.513   5.864
 5006POPC   GL163793  33.848   3.588   6.164
 5006POPC   GL263794  33.784   3.445   6.164
 5006POPC   C1A63795  33.765   3.560   6.464
 5006POPC   D2A63796  33.822   3.496   6.764
 5006POPC   C3A63797  33.785   3.581   7.064
 5006POPC   C4A63798  33.847   3.511   7.364
 5006POPC   C1B63799  33.746   3.292   6.464
 5006POPC   C2B63800  33.715   3.341   6.764
 5006POPC   C3B63801  33.737   3.282   7.064
 5006POPC   C4B63802  33.739   3.285   7.364
 5007POPC   NC363803  44.652   9.759   5.564
 5007POPC   PO463804  44.669   9.748   5.864
 5007POPC   GL163805  44.630   9.717   6.164
 5007POPC   GL263806  44.761   9.659   6.164
 5007POPC   C1A63807  44.616   9.747   6.464
 5007POPC   D2A63808  44.616   9.747   6.764
 5007POPC   C3A63809  44.664   9.786   7.064
 5007POPC   C4A63810  44.648   9.751   7.364
 5007POPC   C1B63811  44.854   9.622   6.464
 5007POPC   C2B63812  44.870   9.644   6.764
 5007POPC   C3B63813  44.933   9.633   7.064
 5007POPC   C4B63814  44.841   9.603   7.364
 5008POPC   NC363815  29.902  31.455   5.564
 5008POPC   PO463816  29.922  31.459   5.864
 5008POPC   GL163817  29.875  31.498   6.164
 5008POPC   GL263818  29.790  31.551   6.164
 5008POPC   C1A63819  29.900  31.463   6.464
 5008POPC   D2A63820  29.897  31.452   6.764
 5008POPC   C3A63821  29.960  31.486   7.064
 5008POPC   C4A63822  29.875  31.512   7.364
 5008POPC   C1B63823  29.664  31.563   6.464
 5008POPC   C2B63824  29.704  31.546   6.764
 5008POPC   C3B63825  29.656  31.528   7.064
 5008POPC   C4B63826  29.676  31.568   7.364
 5009POPC   NC363827  43.839  32.976   5.564
 5009POPC   PO463828  43.897  33.013   5.864
 5009POPC   GL163829  43.846  33.027   6.164
 5009POPC   GL263830  43.996  32.949   6.164
 5009POPC   C1A63831  43.888  32.989   6.464
 5009POPC   D2A63832  43.881  33.031   6.764
 5009POPC   C3A63833  43.878  33.007   7.064
 5009POPC   C4A63834  43.923  33.001   7.364
 5009POPC   C1B63835  44.074  32.817   6.464
 5009POPC   C2B63836  44.104  32.840   6.764
 5009POPC   C3B63837  44.035  32.887   7.064
 5009POPC   C4B63838  44.112  32.816   7.364
 5010POPC   NC363839   4.320  13.605   5.564
 5010POPC   PO463840   4.320  13.600   5.864
 5010POPC   GL163841   4.353  13.614   6.164
 5010POPC   GL263842   4.355  13.567   6.164
 5010POPC   C1A63843   4.332  13.621   6.464
 5010POPC   D2A63844   4.329  13.622   6.764
 5010POPC   C3A63845   4.310  13.632   7.064
 5010POPC   C4A63846   4.310  13.631   7.364
 5010POPC   C1B63847   4.456  13.422   6.464
 5010POPC   C2B63848   4.465  13.420   6.764
 5010POPC   C3B63849   4.492  13.449   7.064
 5010POPC   C4B63850   4.464  13.382   7.364
 5011POPC   NC363851   7.447  20.651   5.564
 5011POPC   PO463852   7.436  20.652   5.864
 5011POPC   GL163853   7.409  20.582   6.164
 5011POPC   GL263854   7.395  20.710   6.164
 5011POPC   C1A63855   7.443  20.622   6.464
 5011POPC   D2A63856   7.434  20.577   6.764
 5011POPC   C3A63857   7.389  20.569   7.064
 5011POPC   C4A63858   7.452  20.634   7.364
 5011POPC   C1B63859   7.343  20.856   6.464
 5011POPC   C2B63860   7.340  20.834   6.764
 5011POPC   C3B63861   7.324  20.833   7.064
 5011POPC   C4B63862   7.340  20.799   7.364
 5012POPC   NC363863  28.353  32.977   5.564
 5012POPC   PO463864  28.323  33.060   5.864
 5012POPC   GL163865  28.395  33.007   6.164
 5012POPC   GL263866  28.240  33.012   6.164
 5012POPC   C1A63867  28.348  33.049   6.464
 5012POPC   D2A63868  28.365  32.987   6.764
 5012POPC   C3A63869  28.382  33.062   7.064
 5012POPC   C4A63870  28.371  33.052   7.364
 5012POPC   C1B63871  28.154  33.008   6.464
 5012POPC   C2B63872  28.144  33.044   6.764
 5012POPC   C3B63873  28.131  33.022   7.064
 5012POPC   C4B63874  28.154  33.080   7.364
 5013POPC   NC363875  26.041  33.015   5.564
 5013POPC   PO463876  26.011  33.015   5.864
 5013POPC   GL163877  26.064  33.052   6.164
 5013POPC   GL263878  26.174  32.936   6.164
 5013POPC   C1A63879  26.002  33.021   6.464
 5013POPC   D2A63880  25.995  33.027   6.764
 5013POPC   C3A63881  25.999  32.975   7.064
 5013POPC   C4A63882  26.014  33.037   7.364
 5013POPC   C1B63883  26.172  32.821   6.464
 5013POPC   C2B63884  26.269  32.856   6.764
 5013POPC   C3B63885  26.185  32.831   7.064
 5013POPC   C4B63886  26.181  32.817   7.364
 5014POPC   NC363887   0.456  17.473   5.564
 5014POPC   PO463888   0.452  17.511   5.864
 5014POPC   GL163889   0.469  17.491   6.164
 5014POPC   GL263890   0.409  17.432   6.164
 5014POPC   C1A63891   0.399  17.502   6.464
 5014POPC   D2A63892   0.426  17.467   6.764
 5014POPC   C3A63893   0.431  17.497   7.064
 5014POPC   C4A63894   0.430  17.488   7.364
 5014POPC   C1B63895   0.299  17.306   6.464
 5014POPC   C2B63896   0.294  17.254   6.764
 5014POPC   C3B63897   0.370  17.244   7.064
 5014POPC   C4B63898   0.290  17.297   7.364
 5015POPC   NC363899   4.354  19.823   5.564
 5015POPC   PO463900   4.309  19.851   5.864
 5015POPC   GL163901   4.315  19.876   6.164
 5015POPC   GL263902   4.223  19.725   6.164
 5015POPC   C1A63903   4.334  19.861   6.464
 5015POPC   D2A63904   4.343  19.788   6.764
 5015POPC   C3A63905   4.290  19.802   7.064
 5015POPC   C4A63906   4.299  19.810   7.364
 5015POPC   C1B63907   4.176  19.654   6.464
 5015POPC   C2B63908   4.147  19.636   6.764
 5015POPC   C3B63909   4.151  19.684   7.064
 5015POPC   C4B63910   4.185  19.619   7.364
 5016POPC   NC363911  31.462  11.342   5.564
 5016POPC   PO463912  31.457  11.271   5.864
 5016POPC   GL163913  31.516  11.298   6.164
 5016POPC   GL263914  31.522  11.391   6.164
 5016POPC   C1A63915  31.442  11.261   6.464
 5016POPC   D2A63916  31.493  11.252   6.764
 5016POPC   C3A63917  31.456  11.316   7.064
 5016POPC   C4A63918  31.453  11.275   7.364
 5016POPC   C1B63919  31.566  11.513   6.464
 5016POPC   C2B63920  31.533  11.551   6.764
 5016POPC   C3B63921  31.542  11.570   7.064
 5016POPC   C4B63922  31.610  11.569   7.364
 5017POPC   NC363923  20.651  40.734   5.564
 5017POPC   PO463924  20.614  40.797   5.864
 5017POPC   GL163925  20.608  40.805   6.164
 5017POPC   GL263926  20.604  40.928   6.164
 5017POPC   C1A63927  20.639  40.773   6.464
 5017POPC   D2A63928  20.583  40.769   6.764
 5017POPC   C3A63929  20.610  40.801   7.064
 5017POPC   C4A63930  20.573  40.810   7.364
 5017POPC   C1B63931  20.622  41.073   6.464
 5017POPC   C2B63932  20.616  41.024   6.764
 5017POPC   C3B63933  20.667  41.018   7.064
 5017POPC   C4B63934  20.637  41.005   7.364
 5018POPC   NC363935  32.217  33.834   5.564
 5018POPC   PO463936  32.281  33.823   5.864
 5018POPC   GL163937  32.239  33.755   6.164
 5018POPC   GL263938  32.213  33.880   6.164
 5018POPC   C1A63939  32.277  33.847   6.464
 5018POPC   D2A63940  32.273  33.833   6.764
 5018POPC   C3A63941  32.245  33.778   7.064
 5018POPC   C4A63942  32.232  33.832   7.364
 5018POPC   C1B63943  32.114  34.015   6.464
 5018POPC   C2B63944  32.137  34.021   6.764
 5018POPC   C3B63945  32.090  34.045   7.064
 5018POPC   C4B63946  32.114  34.006   7.364
 5019POPC   NC363947  15.931  17.497   5.564
 5019POPC   PO463948  15.981  17.536   5.864
 5019POPC   GL163949  15.914  17.478   6.164
 5019POPC   GL263950  15.794  17.484   6.164
 5019POPC   C1A63951  15.912  17.510   6.464
 5019POPC   D2A63952  15.934  17.505   6.764
 5019POPC   C3A63953  15.942  17.460   7.064
 5019POPC   C4A63954  15.943  17.465   7.364
 5019POPC   C1B63955  15.676  17.410   6.464
 5019POPC   C2B63956  15.718  17.453   6.764
 5019POPC   C3B63957  15.705  17.466   7.064
 5019POPC   C4B63958  15.731  17.492   7.364
 5020POPC   NC363959  36.129   2.815   5.564
 5020POPC   PO463960  36.119   2.761   5.864
 5020POPC   GL163961  36.085   2.766   6.164
 5020POPC   GL263962  36.243   2.792   6.164
 5020POPC   C1A63963  36.167   2.785   6.464
 5020POPC   D2A63964  36.126   2.717   6.764
 5020POPC   C3A63965  36.151   2.728   7.064
 5020POPC   C4A63966  36.162   2.774   7.364
 5020POPC   C1B63967  36.371   2.763   6.464
 5020POPC   C2B63968  36.341   2.760   6.764
 5020POPC   C3B63969  36.419   2.779   7.064
 5020POPC   C4B63970  36.419   2.803   7.364
 5021POPC   NC363971  15.170  33.026   5.564
 5021POPC   PO463972  15.172  32.994   5.864
 5021POPC   GL163973  15.194  32.996   6.164
 5021POPC   GL263974  15.069  33.118   6.164
 5021POPC   C1A63975  15.161  33.065   6.464
 5021POPC   D2A63976  15.215  33.068   6.764
 5021POPC   C3A63977  15.224  33.000   7.064
 5021POPC   C4A63978  15.161  33.027   7.364
 5021POPC   C1B63979  14.961  33.173   6.464
 5021POPC   C2B63980  14.931  33.125   6.764
 5021POPC   C3B63981  14.926  33.158   7.064
 5021POPC   C4B63982  14.983  33.181   7.364
 5022POPC   NC363983  15.953  12.889   5.564
 5022POPC   PO463984  15.987  12.820   5.864
 5022POPC   GL163985  15.925  12.871   6.164
 5022POPC   GL263986  15.920  12.710   6.164
 5022POPC   C1A63987  15.930  12.882   6.464
 5022POPC   D2A63988  15.991  12.878   6.764
 5022POPC   C3A63989  15.976  12.886   7.064
 5022POPC   C4A63990  15.968  12.879   7.364
 5022POPC   C1B63991  15.932  12.641   6.464
 5022POPC   C2B63992  15.955  12.633   6.764
 5022POPC   C3B63993  15.996  12.615   7.064
 5022POPC   C4B63994  15.925  12.575   7.364
 5023POPC   NC363995  27.619  43.867   5.564
 5023POPC   PO463996  27.556  43.934   5.864
 5023POPC   GL163997  27.560  43.891   6.164
 5023POPC   GL263998  27.469  43.944   6.164
 5023POPC   C1A63999  27.634  43.886   6.464
 5023POPC   D2A64000  27.618  43.926   6.764
 5023POPC   C3A64001  27.557  43.848   7.064
 5023POPC   C4A64002  27.574  43.887   7.364
 5023POPC   C1B64003  27.398  44.044   6.464
 5023POPC   C2B64004  27.393  44.019   6.764
 5023POPC   C3B64005  27.426  44.060   7.064
 5023POPC   C4B64006  27.440  44.024   7.364
 5024POPC   NC364007  22.179  36.086   5.564
 5024POPC   PO464008  22.183  36.117   5.864
 5024POPC   GL164009  22.174  36.134   6.164
 5024POPC   GL264010  22.194  36.256   6.164
 5024POPC   C1A64011  22.183  36.152   6.464
 5024POPC   D2A64012  22.175  36.100   6.764
 5024POPC   C3A64013  22.210  36.117   7.064
 5024POPC   C4A64014  22.123  36.158   7.364
 5024POPC   C1B64015  22.145  36.410   6.464
 5024POPC   C2B64016  22.138  36.397   6.764
 5024POPC   C3B64017  22.131  36.347   7.064
 5024POPC   C4B64018  22.156  36.335   7.364
 5025POPC   NC364019  43.067   7.378   5.564
 5025POPC   PO464020  43.077   7.403   5.864
 5025POPC   GL164021  43.089   7.376   6.164
 5025POPC   GL264022  43.190   7.578   6.164
 5025POPC   C1A64023  43.068   7.445   6.464
 5025POPC   D2A64024  43.146   7.437   6.764
 5025POPC   C3A64025  43.063   7.389   7.064
 5025POPC   C4A64026  43.116   7.436   7.364
 5025POPC   C1B64027  43.203   7.615   6.464
 5025POPC   C2B64028  43.194   7.689   6.764
 5025POPC   C3B64029  43.234   7.638   7.064
 5025POPC   C4B64030  43.193   7.664   7.364
 5026POPC   NC364031  39.963  39.240   5.564
 5026POPC   PO464032  39.967  39.258   5.864
 5026POPC   GL164033  39.987  39.245   6.164
 5026POPC   GL264034  39.889  39.153   6.164
 5026POPC   C1A64035  39.975  39.235   6.464
 5026POPC   D2A64036  39.978  39.232   6.764
 5026POPC   C3A64037  40.003  39.281   7.064
 5026POPC   C4A64038  39.979  39.268   7.364
 5026POPC   C1B64039  39.778  39.065   6.464
 5026POPC   C2B64040  39.811  39.109   6.764
 5026POPC   C3B64041  39.833  39.034   7.064
 5026POPC   C4B64042  39.800  39.073   7.364
 5027POPC   NC364043   5.911  13.595   5.564
 5027POPC   PO464044   5.914  13.636   5.864
 5027POPC   GL164045   5.874  13.650   6.164
 5027POPC   GL264046   5.823  13.494   6.164
 5027POPC   C1A64047   5.902  13.655   6.464
 5027POPC   D2A64048   5.881  13.593   6.764
 5027POPC   C3A64049   5.827  13.583   7.064
 5027POPC   C4A64050   5.898  13.600   7.364
 5027POPC   C1B64051   5.737  13.439   6.464
 5027POPC   C2B64052   5.765  13.471   6.764
 5027POPC   C3B64053   5.742  13.416   7.064
 5027POPC   C4B64054   5.725  13.407   7.364
 5028POPC   NC364055  34.567  25.256   5.564
 5028POPC   PO464056  34.572  25.262   5.864
 5028POPC   GL164057  34.617  25.222   6.164
 5028POPC   GL264058  34.499  25.303   6.164
 5028POPC   C1A64059  34.576  25.304   6.464
 5028POPC   D2A64060  34.554  25.281   6.764
 5028POPC   C3A64061  34.602  25.269   7.064
 5028POPC   C4A64062  34.530  25.284   7.364
 5028POPC   C1B64063  34.324  25.350   6.464
 5028POPC   C2B64064  34.322  25.303   6.764
 5028POPC   C3B64065  34.313  25.289   7.064
 5028POPC   C4B64066  34.284  25.310   7.364
 5029POPC   NC364067   0.456  25.231   5.564
 5029POPC   PO464068   0.414  25.250   5.864
 5029POPC   GL164069   0.433  25.260   6.164
 5029POPC   GL264070   0.433  25.353   6.164
 5029POPC   C1A64071   0.392  25.240   6.464
 5029POPC   D2A64072   0.430  25.241   6.764
 5029POPC   C3A64073   0.456  25.243   7.064
 5029POPC   C4A64074   0.458  25.247   7.364
 5029POPC   C1B64075   0.318  25.524   6.464
 5029POPC   C2B64076   0.309  25.521   6.764
 5029POPC   C3B64077   0.322  25.489   7.064
 5029POPC   C4B64078   0.304  25.536   7.364
 5030POPC   NC364079  28.386  20.637   5.564
 5030POPC   PO464080  28.363  20.575   5.864
 5030POPC   GL164081  28.323  20.630   6.164
 5030POPC   GL264082  28.485  20.660   6.164
 5030POPC   C1A64083  28.380  20.643   6.464
 5030POPC   D2A64084  28.419  20.596   6.764
 5030POPC   C3A64085  28.361  20.588   7.064
 5030POPC   C4A64086  28.321  20.594   7.364
 5030POPC   C1B64087  28.574  20.646   6.464
 5030POPC   C2B64088  28.643  20.623   6.764
 5030POPC   C3B64089  28.626  20.592   7.064
 5030POPC   C4B64090  28.592  20.646   7.364
 5031POPC   NC364091  20.659  14.437   5.564
 5031POPC   PO464092  20.606  14.394   5.864
 5031POPC   GL164093  20.650  14.379   6.164
 5031POPC   GL264094  20.750  14.459   6.164
 5031POPC   C1A64095  20.628  14.390   6.464
 5031POPC   D2A64096  20.562  14.371   6.764
 5031POPC   C3A64097  20.626  14.419   7.064
 5031POPC   C4A64098  20.609  14.364   7.364
 5031POPC   C1B64099  20.862  14.542   6.464
 5031POPC   C2B64100  20.841  14.594   6.764
 5031POPC   C3B64101  20.768  14.540   7.064
 5031POPC   C4B64102  20.789  14.575   7.364
 5032POPC   NC364103  42.308  43.850   5.564
 5032POPC   PO464104  42.367  43.870   5.864
 5032POPC   GL164105  42.351  43.840   6.164
 5032POPC   GL264106  42.314  43.778   6.164
 5032POPC   C1A64107  42.331  43.928   6.464
 5032POPC   D2A64108  42.314  43.898   6.764
 5032POPC   C3A64109  42.317  43.838   7.064
 5032POPC   C4A64110  42.351  43.888   7.364
 5032POPC   C1B64111  42.230  43.710   6.464
 5032POPC   C2B64112  42.250  43.662   6.764
 5032POPC   C3B64113  42.241  43.673   7.064
 5032POPC   C4B64114  42.243  43.671   7.364
 5033POPC   NC364115  15.141  10.555   5.564
 5033POPC   PO464116  15.214  10.521   5.864
 5033POPC   GL164117  15.194  10.527   6.164
 5033POPC   GL264118  15.288  10.408   6.164
 5033POPC   C1A64119  15.135  10.529   6.464
 5033POPC   D2A64120  15.130  10.559   6.764
 5033POPC   C3A64121  15.138  10.533   7.064
 5033POPC   C4A64122  15.142  10.573   7.364
 5033POPC   C1B64123  15.395  10.412   6.464
 5033POPC   C2B64124  15.405  10.341   6.764
 5033POPC   C3B64125  15.345  10.337   7.064
 5033POPC   C4B64126  15.413  10.332   7.364
 5034POPC   NC364127  22.911  21.427   5.564
 5034POPC   PO464128  22.928  21.432   5.864
 5034POPC   GL164129  22.925  21.420   6.164
 5034POPC   GL264130  22.821  21.297   6.164
 5034POPC   C1A64131  22.957  21.395   6.464
 5034POPC   D2A64132  22.929  21.375   6.764
 5034POPC   C3A64133  22.893  21.389   7.064
 5034POPC   C4A64134  22.965  21.370   7.364
 5034POPC   C1B64135  22.694  21.235   6.464
 5034POPC   C2B64136  22.670  21.256   6.764
 5034POPC   C3B64137  22.717  21.311   7.064
 5034POPC   C4B64138  22.726  21.233   7.364
 5035POPC   NC364139  29.935   5.095   5.564
 5035POPC   PO464140  29.964   5.050   5.864
 5035POPC   GL164141  29.939   5.076   6.164
 5035POPC   GL264142  30.018   5.014   6.164
 5035POPC   C1A64143  29.873   5.045   6.464
 5035POPC   D2A64144  29.900   5.115   6.764
 5035POPC   C3A64145  29.876   5.097   7.064
 5035POPC   C4A64146  29.961   5.139   7.364
 5035POPC   C1B64147  30.050   4.902   6.464
 5035POPC   C2B64148  30.129   4.940   6.764
 5035POPC   C3B64149  30.125   4.921   7.064
 5035POPC   C4B64150  30.054   4.871   7.364
 5036POPC   NC364151   6.649  22.902   5.564
 5036POPC   PO464152   6.661  22.925   5.864
 5036POPC   GL164153   6.689  22.987   6.164
 5036POPC   GL264154   6.682  23.052   6.164
 5036POPC   C1A64155   6.694  22.932   6.464
 5036POPC   D2A64156   6.628  22.984   6.764
 5036POPC   C3A64157   6.637  22.896   7.064
 5036POPC   C4A64158   6.676  22.930   7.364
 5036POPC   C1B64159   6.721  23.147   6.464
 5036POPC   C2B64160   6.732  23.138   6.764
 5036POPC   C3B64161   6.734  23.203   7.064
 5036POPC   C4B64162   6.691  23.207   7.364
 5037POPC   NC364163  17.527  41.599   5.564
 5037POPC   PO464164  17.542  41.518   5.864
 5037POPC   GL164165  17.555  41.532   6.164
 5037POPC   GL264166  17.644  41.471   6.164
 5037POPC   C1A64167  17.508  41.569   6.464
 5037POPC   D2A64168  17.473  41.595   6.764
 5037POPC   C3A64169  17.541  41.582   7.064
 5037POPC   C4A64170  17.459  41.600   7.364
 5037POPC   C1B64171  17.717  41.339   6.464
 5037POPC   C2B64172  17.666  41.353   6.764
 5037POPC   C3B64173  17.712  41.380   7.064
 5037POPC   C4B64174  17.716  41.422   7.364
 5038POPC   NC364175  13.655  42.315   5.564
 5038POPC   PO464176  13.645  42.362   5.864
 5038POPC   GL164177  13.584  42.382   6.164
 5038POPC   GL264178  13.564  42.473   6.164
 5038POPC   C1A64179  13.650  42.337   6.464
 5038POPC   D2A64180  13.603  42.337   6.764
 5038POPC   C3A64181  13.623  42.361   7.064
 5038POPC   C4A64182  13.661  42.368   7.364
 5038POPC   C1B64183  13.548  42.521   6.464
 5038POPC   C2B64184  13.527  42.552   6.764
 5038POPC   C3B64185  13.563  42.608   7.064
 5038POPC   C4B64186  13.545  42.570   7.364
 5039POPC   NC364187  35.354  36.879   5.564
 5039POPC   PO464188  35.365  36.935   5.864
 5039POPC   GL164189  35.391  36.897   6.164
 5039POPC   GL264190  35.496  36.908   6.164
 5039POPC   C1A64191  35.302  36.941   6.464
 5039POPC   D2A64192  35.341  36.942   6.764
 5039POPC   C3A64193  35.316  36.925   7.064
 5039POPC   C4A64194  35.328  36.942   7.364
 5039POPC   C1B64195  35.613  36.880   6.464
 5039POPC   C2B64196  35.563  36.929   6.764
 5039POPC   C3B64197  35.638  36.920   7.064
 5039POPC   C4B64198  35.581  36.924   7.364
 5040POPC   NC364199  38.446   8.173   5.564
 5040POPC   PO464200  38.423   8.188   5.864
 5040POPC   GL164201  38.451   8.237   6.164
 5040POPC   GL264202  38.315   8.129   6.164
 5040POPC   C1A64203  38.485   8.185   6.464
 5040POPC   D2A64204  38.484   8.202   6.764
 5040POPC   C3A64205  38.480   8.200   7.064
 5040POPC   C4A64206  38.490   8.198   7.364
 5040POPC   C1B64207  38.232   8.122   6.464
 5040POPC   C2B64208  38.266   8.063   6.764
 5040POPC   C3B64209  38.212   8.132   7.064
 5040POPC   C4B64210  38.225   8.079   7.364
 5041POPC   NC364211  44.702  12.822   5.564
 5041POPC   PO464212  44.629  12.849   5.864
 5041POPC   GL164213  44.643  12.842   6.164
 5041POPC   GL264214  44.521  12.881   6.164
 5041POPC   C1A64215  44.634  12.891   6.464
 5041POPC   D2A64216  44.686  12.856   6.764
 5041POPC   C3A64217  44.619  12.819   7.064
 5041POPC   C4A64218  44.698  12.837   7.364
 5041POPC   C1B64219  44.470  12.935   6.464
 5041POPC   C2B64220  44.425  12.977   6.764
 5041POPC   C3B64221  44.400  12.972   7.064
 5041POPC   C4B64222  44.418  12.999   7.364
 5042POPC   NC364223  32.974  44.690   5.564
 5042POPC   PO464224  33.053  44.652   5.864
 5042POPC   GL164225  33.061  44.678   6.164
 5042POPC   GL264226  32.938  44.602   6.164
 5042POPC   C1A64227  33.053  44.709   6.464
 5042POPC   D2A64228  33.014  44.645   6.764
 5042POPC   C3A64229  33.061  44.639   7.064
 5042POPC   C4A64230  33.027  44.706   7.364
 5042POPC   C1B64231  32.808  44.593   6.464
 5042POPC   C2B64232  32.791  44.507   6.764
 5042POPC   C3B64233  32.788  44.563   7.064
 5042POPC   C4B64234  32.840  44.568   7.364
 5043POPC   NC364235  43.156  19.860   5.564
 5043POPC   PO464236  43.069  19.882   5.864
 5043POPC   GL164237  43.082  19.823   6.164
 5043POPC   GL264238  43.030  19.964   6.164
 5043POPC   C1A64239  43.160  19.819   6.464
 5043POPC   D2A64240  43.122  19.791   6.764
 5043POPC   C3A64241  43.121  19.856   7.064
 5043POPC   C4A64242  43.154  19.800   7.364
 5043POPC   C1B64243  42.931  20.078   6.464
 5043POPC   C2B64244  43.014  20.009   6.764
 5043POPC   C3B64245  42.957  20.080   7.064
 5043POPC   C4B64246  42.989  20.062   7.364
 5044POPC   NC364247   2.762   7.415   5.564
 5044POPC   PO464248   2.724   7.449   5.864
 5044POPC   GL164249   2.765   7.441   6.164
 5044POPC   GL264250   2.862   7.353   6.164
 5044POPC   C1A64251   2.810   7.392   6.464
 5044POPC   D2A64252   2.769   7.422   6.764
 5044POPC   C3A64253   2.804   7.417   7.064
 5044POPC   C4A64254   2.770   7.434   7.364
 5044POPC   C1B64255   2.904   7.227   6.464
 5044POPC   C2B64256   2.937   7.199   6.764
 5044POPC   C3B64257   2.983   7.273   7.064
 5044POPC   C4B64258   2.950   7.247   7.364
 5045POPC   NC364259  43.103  43.928   5.564
 5045POPC   PO464260  43.137  43.906   5.864
 5045POPC   GL164261  43.116  43.927   6.164
 5045POPC   GL264262  42.946  43.944   6.164
 5045POPC   C1A64263  43.083  43.915   6.464
 5045POPC   D2A64264  43.080  43.893   6.764
 5045POPC   C3A64265  43.092  43.876   7.064
 5045POPC   C4A64266  43.093  43.860   7.364
 5045POPC   C1B64267  42.821  43.932   6.464
 5045POPC   C2B64268  42.859  43.863   6.764
 5045POPC   C3B64269  42.911  43.874   7.064
 5045POPC   C4B64270  42.849  43.863   7.364
 5046POPC   NC364271  43.890  23.760   5.564
 5046POPC   PO464272  43.906  23.690   5.864
 5046POPC   GL164273  43.852  23.699   6.164
 5046POPC   GL264274  44.014  23.696   6.164
 5046POPC   C1A64275  43.919  23.674   6.464
 5046POPC   D2A64276  43.917  23.721   6.764
 5046POPC   C3A64277  43.866  23.761   7.064
 5046POPC   C4A64278  43.929  23.736   7.364
 5046POPC   C1B64279  44.058  23.551   6.464
 5046POPC   C2B64280  44.102  23.584   6.764
 5046POPC   C3B64281  44.074  23.613   7.064
 5046POPC   C4B64282  44.075  23.547   7.364
 5047POPC   NC364283  10.482  43.079   5.564
 5047POPC   PO464284  10.570  43.105   5.864
 5047POPC   GL164285  10.564  43.134   6.164
 5047POPC   GL264286  10.509  43.252   6.164
 5047POPC   C1A64287  10.503  43.154   6.464
 5047POPC   D2A64288  10.528  43.095   6.764
 5047POPC   C3A64289  10.560  43.119   7.064
 5047POPC   C4A64290  10.496  43.082   7.364
 5047POPC   C1B64291  10.476  43.392   6.464
 5047POPC   C2B64292  10.440  43.346   6.764
 5047POPC   C3B64293  10.463  43.350   7.064
 5047POPC   C4B64294  10.457  43.342   7.364
 5048POPC   NC364295  42.382   4.297   5.564
 5048POPC   PO464296  42.323   4.329   5.864
 5048POPC   GL164297  42.353   4.283   6.164
 5048POPC   GL264298  42.452   4.338   6.164
 5048POPC   C1A64299  42.328   4.350   6.464
 5048POPC   D2A64300  42.286   4.296   6.764
 5048POPC   C3A64301  42.364   4.294   7.064
 5048POPC   C4A64302  42.325   4.350   7.364
 5048POPC   C1B64303  42.562   4.302   6.464
 5048POPC   C2B64304  42.561   4.326   6.764
 5048POPC   C3B64305  42.619   4.373   7.064
 5048POPC   C4B64306  42.630   4.353   7.364
 5049POPC   NC364307   6.677   2.748   5.564
 5049POPC   PO464308   6.630   2.749   5.864
 5049POPC   GL164309   6.600   2.776   6.164
 5049POPC   GL264310   6.569   2.838   6.164
 5049POPC   C1A64311   6.601   2.782   6.464
 5049POPC   D2A64312   6.653   2.778   6.764
 5049POPC   C3A64313   6.630   2.753   7.064
 5049POPC   C4A64314   6.688   2.759   7.364
 5049POPC   C1B64315   6.542   2.989   6.464
 5049POPC   C2B64316   6.492   2.968   6.764
 5049POPC   C3B64317   6.511   2.995   7.064
 5049POPC   C4B64318   6.585   3.013   7.364
 5050POPC   NC364319  17.528  43.846   5.564
 5050POPC   PO464320  17.460  43.841   5.864
 5050POPC   GL164321  17.479  43.853   6.164
 5050POPC   GL264322  17.404  44.010   6.164
 5050POPC   C1A64323  17.473  43.868   6.464
 5050POPC   D2A64324  17.463  43.864   6.764
 5050POPC   C3A64325  17.512  43.888   7.064
 5050POPC   C4A64326  17.518  43.914   7.364
 5050POPC   C1B64327  17.421  44.128   6.464
 5050POPC   C2B64328  17.364  44.106   6.764
 5050POPC   C3B64329  17.356  44.080   7.064
 5050POPC   C4B64330  17.372  44.087   7.364
 5051POPC   NC364331  10.520   4.328   5.564
 5051POPC   PO464332  10.490   4.367   5.864
 5051POPC   GL164333  10.571   4.284   6.164
 5051POPC   GL264334  10.438   4.431   6.164
 5051POPC   C1A64335  10.525   4.335   6.464
 5051POPC   D2A64336  10.545   4.308   6.764
 5051POPC   C3A64337  10.540   4.282   7.064
 5051POPC   C4A64338  10.518   4.297   7.364
 5051POPC   C1B64339  10.358   4.504   6.464
 5051POPC   C2B64340  10.337   4.439   6.764
 5051POPC   C3B64341  10.357   4.518   7.064
 5051POPC   C4B64342  10.324   4.486   7.364
 5052POPC   NC364343   3.541  25.233   5.564
 5052POPC   PO464344   3.558  25.233   5.864
 5052POPC   GL164345   3.529  25.271   6.164
 5052POPC   GL264346   3.678  25.213   6.164
 5052POPC   C1A64347   3.552  25.306   6.464
 5052POPC   D2A64348   3.521  25.224   6.764
 5052POPC   C3A64349   3.519  25.269   7.064
 5052POPC   C4A64350   3.544  25.256   7.364
 5052POPC   C1B64351   3.800  25.246   6.464
 5052POPC   C2B64352   3.755  25.188   6.764
 5052POPC   C3B64353   3.751  25.153   7.064
 5052POPC   C4B64354   3.741  25.206   7.364
 5053POPC   NC364355  34.528  22.972   5.564
 5053POPC   PO464356  34.621  22.940   5.864
 5053POPC   GL164357  34.569  22.931   6.164
 5053POPC   GL264358  34.680  22.991   6.164
 5053POPC   C1A64359  34.547  22.945   6.464
 5053POPC   D2A64360  34.544  22.971   6.764
 5053POPC   C3A64361  34.548  22.888   7.064
 5053POPC   C4A64362  34.549  22.909   7.364
 5053POPC   C1B64363  34.805  23.009   6.464
 5053POPC   C2B64364  34.784  23.002   6.764
 5053POPC   C3B64365  34.860  23.024   7.064
 5053POPC   C4B64366  34.792  23.019   7.364
 5054POPC   NC364367   9.774   8.203   5.564
 5054POPC   PO464368   9.723   8.180   5.864
 5054POPC   GL164369   9.760   8.197   6.164
 5054POPC   GL264370   9.589   8.214   6.164
 5054POPC   C1A64371   9.762   8.156   6.464
 5054POPC   D2A64372   9.716   8.149   6.764
 5054POPC   C3A64373   9.742   8.170   7.064
 5054POPC   C4A64374   9.788   8.207   7.364
 5054POPC   C1B64375   9.476   8.129   6.464
 5054POPC   C2B64376   9.546   8.150   6.764
 5054POPC   C3B64377   9.506   8.126   7.064
 5054POPC   C4B64378   9.475   8.185   7.364
 5055POPC   NC364379   9.699  17.482   5.564
 5055POPC   PO464380   9.700  17.511   5.864
 5055POPC   GL164381   9.701  17.465   6.164
 5055POPC   GL264382   9.810  17.560   6.164
 5055POPC   C1A64383   9.767  17.545   6.464
 5055POPC   D2A64384   9.723  17.482   6.764
 5055POPC   C3A64385   9.774  17.528   7.064
 5055POPC   C4A64386   9.798  17.520   7.364
 5055POPC   C1B64387   9.862  17.679   6.464
 5055POPC   C2B64388   9.881  17.686   6.764
 5055POPC   C3B64389   9.924  17.678   7.064
 5055POPC   C4B64390   9.914  17.663   7.364
 5056POPC   NC364391  23.742  36.079   5.564
 5056POPC   PO464392  23.729  36.103   5.864
 5056POPC   GL164393  23.683  36.140   6.164
 5056POPC   GL264394  23.732  36.290   6.164
 5056POPC   C1A64395  23.735  36.080   6.464
 5056POPC   D2A64396  23.715  36.107   6.764
 5056POPC   C3A64397  23.684  36.130   7.064
 5056POPC   C4A64398  23.701  36.098   7.364
 5056POPC   C1B64399  23.828  36.387   6.464
 5056POPC   C2B64400  23.781  36.345   6.764
 5056POPC   C3B64401  23.814  36.364   7.064
 5056POPC   C4B64402  23.784  36.343   7.364
 5057POPC   NC364403  34.536  41.560   5.564
 5057POPC   PO464404  34.578  41.541   5.864
 5057POPC   GL164405  34.530  41.525   6.164
 5057POPC   GL264406  34.573  41.420   6.164
 5057POPC   C1A64407  34.549  41.585   6.464
 5057POPC   D2A64408  34.527  41.603   6.764
 5057POPC   C3A64409  34.613  41.527   7.064
 5057POPC   C4A64410  34.620  41.570   7.364
 5057POPC   C1B64411  34.579  41.306   6.464
 5057POPC   C2B64412  34.597  41.326   6.764
 5057POPC   C3B64413  34.595  41.341   7.064
 5057POPC   C4B64414  34.617  41.326   7.364
 5058POPC   NC364415  10.546   7.420   5.564
 5058POPC   PO464416  10.500   7.410   5.864
 5058POPC   GL164417  10.520   7.450   6.164
 5058POPC   GL264418  10.428   7.299   6.164
 5058POPC   C1A64419  10.565   7.431   6.464
 5058POPC   D2A64420  10.553   7.451   6.764
 5058POPC   C3A64421  10.491   7.407   7.064
 5058POPC   C4A64422  10.560   7.377   7.364
 5058POPC   C1B64423  10.302   7.234   6.464
 5058POPC   C2B64424  10.311   7.230   6.764
 5058POPC   C3B64425  10.316   7.246   7.064
 5058POPC   C4B64426  10.385   7.303   7.364
 5059POPC   NC364427  31.434  34.601   5.564
 5059POPC   PO464428  31.487  34.603   5.864
 5059POPC   GL164429  31.467  34.542   6.164
 5059POPC   GL264430  31.419  34.701   6.164
 5059POPC   C1A64431  31.463  34.533   6.464
 5059POPC   D2A64432  31.521  34.554   6.764
 5059POPC   C3A64433  31.492  34.530   7.064
 5059POPC   C4A64434  31.503  34.603   7.364
 5059POPC   C1B64435  31.354  34.807   6.464
 5059POPC   C2B64436  31.333  34.745   6.764
 5059POPC   C3B64437  31.326  34.792   7.064
 5059POPC   C4B64438  31.343  34.810   7.364
 5060POPC   NC364439  19.027  42.343   5.564
 5060POPC   PO464440  19.031  42.322   5.864
 5060POPC   GL164441  19.049  42.315   6.164
 5060POPC   GL264442  19.141  42.454   6.164
 5060POPC   C1A64443  19.077  42.333   6.464
 5060POPC   D2A64444  19.106  42.290   6.764
 5060POPC   C3A64445  19.094  42.300   7.064
 5060POPC   C4A64446  19.062  42.331   7.364
 5060POPC   C1B64447  19.213  42.482   6.464
 5060POPC   C2B64448  19.216  42.481   6.764
 5060POPC   C3B64449  19.229  42.570   7.064
 5060POPC   C4B64450  19.267  42.487   7.364
 5061POPC   NC364451  18.253  10.487   5.564
 5061POPC   PO464452  18.245  10.559   5.864
 5061POPC   GL164453  18.281  10.499   6.164
 5061POPC   GL264454  18.252  10.678   6.164
 5061POPC   C1A64455  18.308  10.541   6.464
 5061POPC   D2A64456  18.283  10.500   6.764
 5061POPC   C3A64457  18.299  10.504   7.064
 5061POPC   C4A64458  18.270  10.511   7.364
 5061POPC   C1B64459  18.194  10.754   6.464
 5061POPC   C2B64460  18.208  10.713   6.764
 5061POPC   C3B64461  18.191  10.774   7.064
 5061POPC   C4B64462  18.202  10.728   7.364
 5062POPC   NC364463  18.306  12.052   5.564
 5062POPC   PO464464  18.251  12.091   5.864
 5062POPC   GL164465  18.332  12.084   6.164
 5062POPC   GL264466  18.197  12.176   6.164
 5062POPC   C1A64467  18.286  12.029   6.464
 5062POPC   D2A64468  18.325  12.076   6.764
 5062POPC   C3A64469  18.238  12.071   7.064
 5062POPC   C4A64470  18.264  12.088   7.364
 5062POPC   C1B64471  18.145  12.331   6.464
 5062POPC   C2B64472  18.141  12.333   6.764
 5062POPC   C3B64473  18.189  12.303   7.064
 5062POPC   C4B64474  18.168  12.302   7.364
 5063POPC   NC364475  34.596  16.772   5.564
 5063POPC   PO464476  34.562  16.755   5.864
 5063POPC   GL164477  34.548  16.729   6.164
 5063POPC   GL264478  34.649  16.672   6.164
 5063POPC   C1A64479  34.542  16.743   6.464
 5063POPC   D2A64480  34.550  16.704   6.764
 5063POPC   C3A64481  34.576  16.774   7.064
 5063POPC   C4A64482  34.609  16.689   7.364
 5063POPC   C1B64483  34.846  16.658   6.464
 5063POPC   C2B64484  34.791  16.668   6.764
 5063POPC   C3B64485  34.798  16.614   7.064
 5063POPC   C4B64486  34.835  16.702   7.364
 5064POPC   NC364487  37.649  27.561   5.564
 5064POPC   PO464488  37.661  27.572   5.864
 5064POPC   GL164489  37.686  27.620   6.164
 5064POPC   GL264490  37.693  27.460   6.164
 5064POPC   C1A64491  37.665  27.567   6.464
 5064POPC   D2A64492  37.704  27.612   6.764
 5064POPC   C3A64493  37.710  27.582   7.064
 5064POPC   C4A64494  37.728  27.549   7.364
 5064POPC   C1B64495  37.785  27.364   6.464
 5064POPC   C2B64496  37.740  27.360   6.764
 5064POPC   C3B64497  37.695  27.381   7.064
 5064POPC   C4B64498  37.771  27.346   7.364
 5065POPC   NC364499  22.179  32.223   5.564
 5065POPC   PO464500  22.161  32.286   5.864
 5065POPC   GL164501  22.181  32.199   6.164
 5065POPC   GL264502  22.225  32.366   6.164
 5065POPC   C1A64503  22.145  32.289   6.464
 5065POPC   D2A64504  22.173  32.243   6.764
 5065POPC   C3A64505  22.114  32.216   7.064
 5065POPC   C4A64506  22.144  32.280   7.364
 5065POPC   C1B64507  22.294  32.444   6.464
 5065POPC   C2B64508  22.264  32.518   6.764
 5065POPC   C3B64509  22.256  32.487   7.064
 5065POPC   C4B64510  22.239  32.496   7.364
 5066POPC   NC364511  20.641  18.234   5.564
 5066POPC   PO464512  20.616  18.264   5.864
 5066POPC   GL164513  20.652  18.256   6.164
 5066POPC   GL264514  20.489  18.343   6.164
 5066POPC   C1A64515  20.598  18.258   6.464
 5066POPC   D2A64516  20.609  18.263   6.764
 5066POPC   C3A64517  20.624  18.242   7.064
 5066POPC   C4A64518  20.642  18.313   7.364
 5066POPC   C1B64519  20.442  18.519   6.464
 5066POPC   C2B64520  20.417  18.469   6.764
 5066POPC   C3B64521  20.434  18.468   7.064
 5066POPC   C4B64522  20.398  18.465   7.364
 5067POPC   NC364523  22.192  40.783   5.564
 5067POPC   PO464524  22.206  40.763   5.864
 5067POPC   GL164525  22.119  40.810   6.164
 5067POPC   GL264526  22.210  40.666   6.164
 5067POPC   C1A64527  22.143  40.778   6.464
 5067POPC   D2A64528  22.173  40.735   6.764
 5067POPC   C3A64529  22.131  40.778   7.064
 5067POPC   C4A64530  22.127  40.798   7.364
 5067POPC   C1B64531  22.301  40.588   6.464
 5067POPC   C2B64532  22.258  40.550   6.764
 5067POPC   C3B64533  22.281  40.581   7.064
 5067POPC   C4B64534  22.312  40.524   7.364
 5068POPC   NC364535  41.606  14.430   5.564
 5068POPC   PO464536  41.541  14.399   5.864
 5068POPC   GL164537  41.605  14.422   6.164
 5068POPC   GL264538  41.677  14.452   6.164
 5068POPC   C1A64539  41.602  14.394   6.464
 5068POPC   D2A64540  41.572  14.405   6.764
 5068POPC   C3A64541  41.553  14.355   7.064
 5068POPC   C4A64542  41.538  14.377   7.364
 5068POPC   C1B64543  41.774  14.452   6.464
 5068POPC   C2B64544  41.778  14.403   6.764
 5068POPC   C3B64545  41.856  14.412   7.064
 5068POPC   C4B64546  41.846  14.398   7.364
 5069POPC   NC364547  43.869  36.938   5.564
 5069POPC   PO464548  43.889  36.917   5.864
 5069POPC   GL164549  43.918  36.947   6.164
 5069POPC   GL264550  44.019  36.837   6.164
 5069POPC   C1A64551  43.904  36.932   6.464
 5069POPC   D2A64552  43.863  36.884   6.764
 5069POPC   C3A64553  43.861  36.938   7.064
 5069POPC   C4A64554  43.861  36.883   7.364
 5069POPC   C1B64555  44.111  36.768   6.464
 5069POPC   C2B64556  44.063  36.718   6.764
 5069POPC   C3B64557  44.059  36.723   7.064
 5069POPC   C4B64558  44.104  36.750   7.364
 5070POPC   NC364559  15.949  29.905   5.564
 5070POPC   PO464560  15.920  29.927   5.864
 5070POPC   GL164561  15.945  29.920   6.164
 5070POPC   GL264562  15.995  29.783   6.164
 5070POPC   C1A64563  15.948  29.946   6.464
 5070POPC   D2A64564  15.923  29.944   6.764
 5070POPC   C3A64565  15.921  29.904   7.064
 5070POPC   C4A64566  15.995  29.943   7.364
 5070POPC   C1B64567  16.105  29.732   6.464
 5070POPC   C2B64568  16.069  29.715   6.764
 5070POPC   C3B64569  16.140  29.765   7.064
 5070POPC   C4B64570  16.076  29.734   7.364
 5071POPC   NC364571   3.578   6.640   5.564
 5071POPC   PO464572   3.507   6.694   5.864
 5071POPC   GL164573   3.557   6.658   6.164
 5071POPC   GL264574   3.446   6.506   6.164
 5071POPC   C1A64575   3.524   6.677   6.464
 5071POPC   D2A64576   3.522   6.652   6.764
 5071POPC   C3A64577   3.522   6.641   7.064
 5071POPC   C4A64578   3.539   6.613   7.364
 5071POPC   C1B64579   3.378   6.446   6.464
 5071POPC   C2B64580   3.397   6.462   6.764
 5071POPC   C3B64581   3.409   6.444   7.064
 5071POPC   C4B64582   3.385   6.417   7.364
 5072POPC   NC364583  36.949  27.633   5.564
 5072POPC   PO464584  36.877  27.569   5.864
 5072POPC   GL164585  36.939  27.615   6.164
 5072POPC   GL264586  36.840  27.655   6.164
 5072POPC   C1A64587  36.939  27.641   6.464
 5072POPC   D2A64588  36.950  27.586   6.764
 5072POPC   C3A64589  36.941  27.574   7.064
 5072POPC   C4A64590  36.951  27.602   7.364
 5072POPC   C1B64591  36.799  27.791   6.464
 5072POPC   C2B64592  36.716  27.802   6.764
 5072POPC   C3B64593  36.781  27.791   7.064
 5072POPC   C4B64594  36.803  27.760   7.364
 5073POPC   NC364595  39.270  29.878   5.564
 5073POPC   PO464596  39.200  29.898   5.864
 5073POPC   GL164597  39.195  29.903   6.164
 5073POPC   GL264598  39.180  30.060   6.164
 5073POPC   C1A64599  39.274  29.893   6.464
 5073POPC   D2A64600  39.255  29.913   6.764
 5073POPC   C3A64601  39.277  29.953   7.064
 5073POPC   C4A64602  39.246  29.881   7.364
 5073POPC   C1B64603  39.181  30.150   6.464
 5073POPC   C2B64604  39.229  30.134   6.764
 5073POPC   C3B64605  39.179  30.118   7.064
 5073POPC   C4B64606  39.185  30.173   7.364
 5074POPC   NC364607  29.895  29.190   5.564
 5074POPC   PO464608  29.943  29.178   5.864
 5074POPC   GL164609  29.871  29.137   6.164
 5074POPC   GL264610  29.954  29.285   6.164
 5074POPC   C1A64611  29.954  29.163   6.464
 5074POPC   D2A64612  29.961  29.155   6.764
 5074POPC   C3A64613  29.906  29.174   7.064
 5074POPC   C4A64614  29.962  29.187   7.364
 5074POPC   C1B64615  30.046  29.326   6.464
 5074POPC   C2B64616  30.026  29.315   6.764
 5074POPC   C3B64617  30.034  29.374   7.064
 5074POPC   C4B64618  30.084  29.364   7.364
 5075POPC   NC364619  30.648  39.192   5.564
 5075POPC   PO464620  30.710  39.237   5.864
 5075POPC   GL164621  30.684  39.260   6.164
 5075POPC   GL264622  30.578  39.227   6.164
 5075POPC   C1A64623  30.742  39.188   6.464
 5075POPC   D2A64624  30.713  39.277   6.764
 5075POPC   C3A64625  30.711  39.280   7.064
 5075POPC   C4A64626  30.651  39.224   7.364
 5075POPC   C1B64627  30.406  39.246   6.464
 5075POPC   C2B64628  30.438  39.187   6.764
 5075POPC   C3B64629  30.397  39.204   7.064
 5075POPC   C4B64630  30.465  39.235   7.364
 5076POPC   NC364631   2.758  19.084   5.564
 5076POPC   PO464632   2.752  19.102   5.864
 5076POPC   GL164633   2.737  19.025   6.164
 5076POPC   GL264634   2.672  19.118   6.164
 5076POPC   C1A64635   2.788  19.049   6.464
 5076POPC   D2A64636   2.767  19.009   6.764
 5076POPC   C3A64637   2.737  19.098   7.064
 5076POPC   C4A64638   2.804  19.055   7.364
 5076POPC   C1B64639   2.594  19.239   6.464
 5076POPC   C2B64640   2.543  19.201   6.764
 5076POPC   C3B64641   2.528  19.201   7.064
 5076POPC   C4B64642   2.574  19.158   7.364
 5077POPC   NC364643  12.112  12.882   5.564
 5077POPC   PO464644  12.050  12.855   5.864
 5077POPC   GL164645  12.118  12.811   6.164
 5077POPC   GL264646  12.172  12.770   6.164
 5077POPC   C1A64647  12.088  12.873   6.464
 5077POPC   D2A64648  12.114  12.872   6.764
 5077POPC   C3A64649  12.050  12.890   7.064
 5077POPC   C4A64650  12.057  12.838   7.364
 5077POPC   C1B64651  12.271  12.660   6.464
 5077POPC   C2B64652  12.271  12.710   6.764
 5077POPC   C3B64653  12.308  12.683   7.064
 5077POPC   C4B64654  12.248  12.674   7.364
 5078POPC   NC364655  16.732   5.870   5.564
 5078POPC   PO464656  16.733   5.837   5.864
 5078POPC   GL164657  16.747   5.871   6.164
 5078POPC   GL264658  16.761   6.036   6.164
 5078POPC   C1A64659  16.747   5.894   6.464
 5078POPC   D2A64660  16.739   5.903   6.764
 5078POPC   C3A64661  16.682   5.829   7.064
 5078POPC   C4A64662  16.736   5.888   7.364
 5078POPC   C1B64663  16.749   6.131   6.464
 5078POPC   C2B64664  16.710   6.155   6.764
 5078POPC   C3B64665  16.670   6.077   7.064
 5078POPC   C4B64666  16.752   6.139   7.364
 5079POPC   NC364667  20.638  34.617   5.564
 5079POPC   PO464668  20.596  34.527   5.864
 5079POPC   GL164669  20.642  34.565   6.164
 5079POPC   GL264670  20.747  34.588   6.164
 5079POPC   C1A64671  20.581  34.575   6.464
 5079POPC   D2A64672  20.642  34.607   6.764
 5079POPC   C3A64673  20.619  34.553   7.064
 5079POPC   C4A64674  20.614  34.557   7.364
 5079POPC   C1B64675  20.897  34.572   6.464
 5079POPC   C2B64676  20.842  34.620   6.764
 5079POPC   C3B64677  20.881  34.623   7.064
 5079POPC   C4B64678  20.865  34.627   7.364
 5080POPC   NC364679  14.370  19.859   5.564
 5080POPC   PO464680  14.361  19.869   5.864
 5080POPC   GL164681  14.436  19.834   6.164
 5080POPC   GL264682  14.452  19.721   6.164
 5080POPC   C1A64683  14.356  19.818   6.464
 5080POPC   D2A64684  14.442  19.883   6.764
 5080POPC   C3A64685  14.361  19.851   7.064
 5080POPC   C4A64686  14.369  19.797   7.364
 5080POPC   C1B64687  14.562  19.691   6.464
 5080POPC   C2B64688  14.548  19.709   6.764
 5080POPC   C3B64689  14.595  19.660   7.064
 5080POPC   C4B64690  14.581  19.650   7.364
 5081POPC   NC364691   2.002  19.799   5.564
 5081POPC   PO464692   1.954  19.815   5.864
 5081POPC   GL164693   2.037  19.831   6.164
 5081POPC   GL264694   1.981  19.923   6.164
 5081POPC   C1A64695   2.029  19.879   6.464
 5081POPC   D2A64696   1.953  19.828   6.764
 5081POPC   C3A64697   1.982  19.814   7.064
 5081POPC   C4A64698   2.014  19.841   7.364
 5081POPC   C1B64699   1.871  20.065   6.464
 5081POPC   C2B64700   1.920  20.013   6.764
 5081POPC   C3B64701   1.871  20.044   7.064
 5081POPC   C4B64702   1.925  20.017   7.364
 5082POPC   NC364703  17.472  37.642   5.564
 5082POPC   PO464704  17.482  37.671   5.864
 5082POPC   GL164705  17.471  37.693   6.164
 5082POPC   GL264706  17.443  37.626   6.164
 5082POPC   C1A64707  17.531  37.669   6.464
 5082POPC   D2A64708  17.525  37.635   6.764
 5082POPC   C3A64709  17.550  37.682   7.064
 5082POPC   C4A64710  17.546  37.705   7.364
 5082POPC   C1B64711  17.266  37.599   6.464
 5082POPC   C2B64712  17.332  37.606   6.764
 5082POPC   C3B64713  17.258  37.606   7.064
 5082POPC   C4B64714  17.234  37.558   7.364
 5083POPC   NC364715  27.615  20.633   5.564
 5083POPC   PO464716  27.594  20.632   5.864
 5083POPC   GL164717  27.583  20.561   6.164
 5083POPC   GL264718  27.545  20.700   6.164
 5083POPC   C1A64719  27.623  20.597   6.464
 5083POPC   D2A64720  27.640  20.646   6.764
 5083POPC   C3A64721  27.610  20.582   7.064
 5083POPC   C4A64722  27.600  20.614   7.364
 5083POPC   C1B64723  27.467  20.856   6.464
 5083POPC   C2B64724  27.463  20.843   6.764
 5083POPC   C3B64725  27.448  20.794   7.064
 5083POPC   C4B64726  27.462  20.864   7.364
 5084POPC   NC364727  14.354  21.389   5.564
 5084POPC   PO464728  14.400  21.357   5.864
 5084POPC   GL164729  14.440  21.358   6.164
 5084POPC   GL264730  14.285  21.267   6.164
 5084POPC   C1A64731  14.417  21.346   6.464
 5084POPC   D2A64732  14.437  21.358   6.764
 5084POPC   C3A64733  14.362  21.346   7.064
 5084POPC   C4A64734  14.433  21.400   7.364
 5084POPC   C1B64735  14.218  21.168   6.464
 5084POPC   C2B64736  14.222  21.221   6.764
 5084POPC   C3B64737  14.247  21.215   7.064
 5084POPC   C4B64738  14.249  21.175   7.364
 5085POPC   NC364739  19.859  19.851   5.564
 5085POPC   PO464740  19.864  19.840   5.864
 5085POPC   GL164741  19.875  19.862   6.164
 5085POPC   GL264742  19.711  19.809   6.164
 5085POPC   C1A64743  19.829  19.795   6.464
 5085POPC   D2A64744  19.834  19.825   6.764
 5085POPC   C3A64745  19.802  19.838   7.064
 5085POPC   C4A64746  19.789  19.810   7.364
 5085POPC   C1B64747  19.632  19.763   6.464
 5085POPC   C2B64748  19.633  19.706   6.764
 5085POPC   C3B64749  19.557  19.769   7.064
 5085POPC   C4B64750  19.581  19.742   7.364
 5086POPC   NC364751  21.405  15.130   5.564
 5086POPC   PO464752  21.340  15.211   5.864
 5086POPC   GL164753  21.346  15.219   6.164
 5086POPC   GL264754  21.492  15.307   6.164
 5086POPC   C1A64755  21.419  15.152   6.464
 5086POPC   D2A64756  21.430  15.200   6.764
 5086POPC   C3A64757  21.397  15.174   7.064
 5086POPC   C4A64758  21.394  15.137   7.364
 5086POPC   C1B64759  21.600  15.399   6.464
 5086POPC   C2B64760  21.562  15.400   6.764
 5086POPC   C3B64761  21.565  15.354   7.064
 5086POPC   C4B64762  21.584  15.331   7.364
 5087POPC   NC364763   3.553  34.564   5.564
 5087POPC   PO464764   3.510  34.608   5.864
 5087POPC   GL164765   3.520  34.572   6.164
 5087POPC   GL264766   3.525  34.694   6.164
 5087POPC   C1A64767   3.524  34.569   6.464
 5087POPC   D2A64768   3.567  34.593   6.764
 5087POPC   C3A64769   3.526  34.617   7.064
 5087POPC   C4A64770   3.563  34.528   7.364
 5087POPC   C1B64771   3.574  34.811   6.464
 5087POPC   C2B64772   3.559  34.807   6.764
 5087POPC   C3B64773   3.626  34.785   7.064
 5087POPC   C4B64774   3.631  34.808   7.364
 5088POPC   NC364775  16.700  12.082   5.564
 5088POPC   PO464776  16.746  12.088   5.864
 5088POPC   GL164777  16.711  12.035   6.164
 5088POPC   GL264778  16.697  11.907   6.164
 5088POPC   C1A64779  16.700  12.102   6.464
 5088POPC   D2A64780  16.762  12.096   6.764
 5088POPC   C3A64781  16.708  12.113   7.064
 5088POPC   C4A64782  16.751  12.063   7.364
 5088POPC   C1B64783  16.733  11.846   6.464
 5088POPC   C2B64784  16.675  11.825   6.764
 5088POPC   C3B64785  16.703  11.831   7.064
 5088POPC   C4B64786  16.735  11.869   7.364
 5089POPC   NC364787  36.877   7.435   5.564
 5089POPC   PO464788  36.894   7.450   5.864
 5089POPC   GL164789  36.885   7.373   6.164
 5089POPC   GL264790  36.956   7.319   6.164
 5089POPC   C1A64791  36.854   7.386   6.464
 5089POPC   D2A64792  36.953   7.393   6.764
 5089POPC   C3A64793  36.949   7.405   7.064
 5089POPC   C4A64794  36.887   7.435   7.364
 5089POPC   C1B64795  36.969   7.199   6.464
 5089POPC   C2B64796  37.010   7.218   6.764
 5089POPC   C3B64797  36.978   7.157   7.064
 5089POPC   C4B64798  36.999   7.185   7.364
 5090POPC   NC364799  41.517  20.571   5.564
 5090POPC   PO464800  41.542  20.590   5.864
 5090POPC   GL164801  41.535  20.636   6.164
 5090POPC   GL264802  41.426  20.657   6.164
 5090POPC   C1A64803  41.559  20.646   6.464
 5090POPC   D2A64804  41.603  20.574   6.764
 5090POPC   C3A64805  41.599  20.582   7.064
 5090POPC   C4A64806  41.542  20.643   7.364
 5090POPC   C1B64807  41.265  20.607   6.464
 5090POPC   C2B64808  41.345  20.677   6.764
 5090POPC   C3B64809  41.302  20.641   7.064
 5090POPC   C4B64810  41.263  20.640   7.364
 5091POPC   NC364811  41.536  43.868   5.564
 5091POPC   PO464812  41.575  43.910   5.864
 5091POPC   GL164813  41.589  43.838   6.164
 5091POPC   GL264814  41.539  43.960   6.164
 5091POPC   C1A64815  41.572  43.849   6.464
 5091POPC   D2A64816  41.538  43.849   6.764
 5091POPC   C3A64817  41.529  43.871   7.064
 5091POPC   C4A64818  41.523  43.873   7.364
 5091POPC   C1B64819  41.456  44.148   6.464
 5091POPC   C2B64820  41.475  44.150   6.764
 5091POPC   C3B64821  41.401  44.104   7.064
 5091POPC   C4B64822  41.419  44.123   7.364
 5092POPC   NC364823  27.633  43.083   5.564
 5092POPC   PO464824  27.565  43.109   5.864
 5092POPC   GL164825  27.586  43.079   6.164
 5092POPC   GL264826  27.671  43.243   6.164
 5092POPC   C1A64827  27.591  43.122   6.464
 5092POPC   D2A64828  27.641  43.074   6.764
 5092POPC   C3A64829  27.625  43.096   7.064
 5092POPC   C4A64830  27.543  43.079   7.364
 5092POPC   C1B64831  27.610  43.334   6.464
 5092POPC   C2B64832  27.696  43.386   6.764
 5092POPC   C3B64833  27.631  43.303   7.064
 5092POPC   C4B64834  27.700  43.317   7.364
 5093POPC   NC364835  26.797   4.340   5.564
 5093POPC   PO464836  26.773   4.297   5.864
 5093POPC   GL164837  26.830   4.358   6.164
 5093POPC   GL264838  26.744   4.245   6.164
 5093POPC   C1A64839  26.809   4.329   6.464
 5093POPC   D2A64840  26.860   4.331   6.764
 5093POPC   C3A64841  26.772   4.281   7.064
 5093POPC   C4A64842  26.828   4.320   7.364
 5093POPC   C1B64843  26.765   4.129   6.464
 5093POPC   C2B64844  26.699   4.074   6.764
 5093POPC   C3B64845  26.734   4.111   7.064
 5093POPC   C4B64846  26.754   4.095   7.364
 5094POPC   NC364847  29.928   1.168   5.564
 5094POPC   PO464848  29.931   1.213   5.864
 5094POPC   GL164849  29.918   1.213   6.164
 5094POPC   GL264850  29.772   1.181   6.164
 5094POPC   C1A64851  29.910   1.179   6.464
 5094POPC   D2A64852  29.874   1.173   6.764
 5094POPC   C3A64853  29.957   1.171   7.064
 5094POPC   C4A64854  29.882   1.181   7.364
 5094POPC   C1B64855  29.672   1.180   6.464
 5094POPC   C2B64856  29.666   1.144   6.764
 5094POPC   C3B64857  29.724   1.152   7.064
 5094POPC   C4B64858  29.643   1.141   7.364
 5095POPC   NC364859  33.026  38.430   5.564
 5095POPC   PO464860  33.037  38.411   5.864
 5095POPC   GL164861  32.979  38.496   6.164
 5095POPC   GL264862  32.900  38.498   6.164
 5095POPC   C1A64863  32.999  38.497   6.464
 5095POPC   D2A64864  32.981  38.488   6.764
 5095POPC   C3A64865  32.992  38.414   7.064
 5095POPC   C4A64866  32.989  38.487   7.364
 5095POPC   C1B64867  32.785  38.525   6.464
 5095POPC   C2B64868  32.817  38.528   6.764
 5095POPC   C3B64869  32.824  38.495   7.064
 5095POPC   C4B64870  32.808  38.523   7.364
 5096POPC   NC364871  36.948   6.603   5.564
 5096POPC   PO464872  36.880   6.629   5.864
 5096POPC   GL164873  36.914   6.679   6.164
 5096POPC   GL264874  36.990   6.545   6.164
 5096POPC   C1A64875  36.888   6.606   6.464
 5096POPC   D2A64876  36.934   6.692   6.764
 5096POPC   C3A64877  36.950   6.685   7.064
 5096POPC   C4A64878  36.947   6.597   7.364
 5096POPC   C1B64879  37.028   6.441   6.464
 5096POPC   C2B64880  37.036   6.477   6.764
 5096POPC   C3B64881  37.004   6.481   7.064
 5096POPC   C4B64882  37.040   6.449   7.364
 5097POPC   NC364883  21.338  29.949   5.564
 5097POPC   PO464884  21.394  29.909   5.864
 5097POPC   GL164885  21.339  29.966   6.164
 5097POPC   GL264886  21.255  29.953   6.164
 5097POPC   C1A64887  21.343  29.958   6.464
 5097POPC   D2A64888  21.363  29.916   6.764
 5097POPC   C3A64889  21.357  29.956   7.064
 5097POPC   C4A64890  21.418  29.932   7.364
 5097POPC   C1B64891  21.161  30.076   6.464
 5097POPC   C2B64892  21.215  30.077   6.764
 5097POPC   C3B64893  21.184  30.094   7.064
 5097POPC   C4B64894  21.153  30.046   7.364
 5098POPC   NC364895  13.610  19.085   5.564
 5098POPC   PO464896  13.579  19.012   5.864
 5098POPC   GL164897  13.583  19.057   6.164
 5098POPC   GL264898  13.677  19.108   6.164
 5098POPC   C1A64899  13.673  19.072   6.464
 5098POPC   D2A64900  13.675  19.088   6.764
 5098POPC   C3A64901  13.665  19.105   7.064
 5098POPC   C4A64902  13.601  19.074   7.364
 5098POPC   C1B64903  13.771  19.253   6.464
 5098POPC   C2B64904  13.799  19.265   6.764
 5098POPC   C3B64905  13.801  19.217   7.064
 5098POPC   C4B64906  13.836  19.174   7.364
 5099POPC   NC364907   0.401  20.594   5.564
 5099POPC   PO464908   0.415  20.620   5.864
 5099POPC   GL164909   0.484  20.653   6.164
 5099POPC   GL264910   0.337  20.526   6.164
 5099POPC   C1A64911   0.433  20.573   6.464
 5099POPC   D2A64912   0.447  20.658   6.764
 5099POPC   C3A64913   0.439  20.614   7.064
 5099POPC   C4A64914   0.457  20.585   7.364
 5099POPC   C1B64915   0.371  20.409   6.464
 5099POPC   C2B64916   0.325  20.403   6.764
 5099POPC   C3B64917   0.301  20.358   7.064
 5099POPC   C4B64918   0.325  20.420   7.364
 5100POPC   NC364919  10.549  30.736   5.564
 5100POPC   PO464920  10.520  30.652   5.864
 5100POPC   GL164921  10.569  30.647   6.164
 5100POPC   GL264922  10.510  30.833   6.164
 5100POPC   C1A64923  10.495  30.734   6.464
 5100POPC   D2A64924  10.521  30.670   6.764
 5100POPC   C3A64925  10.521  30.726   7.064
 5100POPC   C4A64926  10.567  30.734   7.364
 5100POPC   C1B64927  10.507  30.936   6.464
 5100POPC   C2B64928  10.559  30.958   6.764
 5100POPC   C3B64929  10.573  30.982   7.064
 5100POPC   C4B64930  10.568  30.970   7.364
 5101POPC   NC364931   9.735  42.351   5.564
 5101POPC   PO464932   9.752  42.318   5.864
 5101POPC   GL164933   9.791  42.345   6.164
 5101POPC   GL264934   9.757  42.415   6.164
 5101POPC   C1A64935   9.716  42.342   6.464
 5101POPC   D2A64936   9.740  42.317   6.764
 5101POPC   C3A64937   9.734  42.324   7.064
 5101POPC   C4A64938   9.711  42.297   7.364
 5101POPC   C1B64939   9.683  42.581   6.464
 5101POPC   C2B64940   9.668  42.602   6.764
 5101POPC   C3B64941   9.685  42.598   7.064
 5101POPC   C4B64942   9.736  42.591   7.364
 5102POPC   NC364943  43.871  41.567   5.564
 5102POPC   PO464944  43.929  41.584   5.864
 5102POPC   GL164945  43.927  41.604   6.164
 5102POPC   GL264946  44.048  41.628   6.164
 5102POPC   C1A64947  43.875  41.563   6.464
 5102POPC   D2A64948  43.837  41.598   6.764
 5102POPC   C3A64949  43.886  41.531   7.064
 5102POPC   C4A64950  43.903  41.547   7.364
 5102POPC   C1B64951  44.098  41.617   6.464
 5102POPC   C2B64952  44.169  41.651   6.764
 5102POPC   C3B64953  44.084  41.587   7.064
 5102POPC   C4B64954  44.112  41.567   7.364
 5103POPC   NC364955  15.913  33.001   5.564
 5103POPC   PO464956  15.916  32.988   5.864
 5103POPC   GL164957  15.924  33.022   6.164
 5103POPC   GL264958  15.981  32.969   6.164
 5103POPC   C1A64959  15.929  33.024   6.464
 5103POPC   D2A64960  15.915  33.019   6.764
 5103POPC   C3A64961  15.918  32.975   7.064
 5103POPC   C4A64962  15.931  32.987   7.364
 5103POPC   C1B64963  16.066  32.828   6.464
 5103POPC   C2B64964  16.137  32.816   6.764
 5103POPC   C3B64965  16.146  32.847   7.064
 5103POPC   C4B64966  16.093  32.778   7.364
 5104POPC   NC364967  15.141  18.309   5.564
 5104POPC   PO464968  15.227  18.292   5.864
 5104POPC   GL164969  15.187  18.292   6.164
 5104POPC   GL264970  15.234  18.376   6.164
 5104POPC   C1A64971  15.176  18.321   6.464
 5104POPC   D2A64972  15.163  18.275   6.764
 5104POPC   C3A64973  15.164  18.286   7.064
 5104POPC   C4A64974  15.217  18.299   7.364
 5104POPC   C1B64975  15.210  18.535   6.464
 5104POPC   C2B64976  15.226  18.527   6.764
 5104POPC   C3B64977  15.231  18.576   7.064
 5104POPC   C4B64978  15.224  18.572   7.364
 5105POPC   NC364979  43.887  14.416   5.564
 5105POPC   PO464980  43.928  14.357   5.864
 5105POPC   GL164981  43.930  14.359   6.164
 5105POPC   GL264982  43.783  14.298   6.164
 5105POPC   C1A64983  43.919  14.407   6.464
 5105POPC   D2A64984  43.918  14.442   6.764
 5105POPC   C3A64985  43.877  14.374   7.064
 5105POPC   C4A64986  43.902  14.354   7.364
 5105POPC   C1B64987  43.722  14.193   6.464
 5105POPC   C2B64988  43.790  14.193   6.764
 5105POPC   C3B64989  43.783  14.160   7.064
 5105POPC   C4B64990  43.771  14.203   7.364
 5106POPC   NC364991  39.181   2.809   5.564
 5106POPC   PO464992  39.249   2.734   5.864
 5106POPC   GL164993  39.222   2.760   6.164
 5106POPC   GL264994  39.144   2.763   6.164
 5106POPC   C1A64995  39.268   2.738   6.464
 5106POPC   D2A64996  39.277   2.721   6.764
 5106POPC   C3A64997  39.249   2.745   7.064
 5106POPC   C4A64998  39.267   2.746   7.364
 5106POPC   C1B64999  38.955   2.739   6.464
 5106POPC   C2B65000  38.992   2.711   6.764
 5106POPC   C3B65001  39.020   2.784   7.064
 5106POPC   C4B65002  38.936   2.753   7.364
 5107POPC   NC365003  43.134   1.245   5.564
 5107POPC   PO465004  43.095   1.177   5.864
 5107POPC   GL165005  43.101   1.175   6.164
 5107POPC   GL265006  43.160   1.367   6.164
 5107POPC   C1A65007  43.075   1.212   6.464
 5107POPC   D2A65008  43.102   1.217   6.764
 5107POPC   C3A65009  43.151   1.213   7.064
 5107POPC   C4A65010  43.116   1.227   7.364
 5107POPC   C1B65011  43.206   1.404   6.464
 5107POPC   C2B65012  43.257   1.471   6.764
 5107POPC   C3B65013  43.189   1.407   7.064
 5107POPC   C4B65014  43.258   1.431   7.364
 5108POPC   NC365015  43.893   1.258   5.564
 5108POPC   PO465016  43.919   1.263   5.864
 5108POPC   GL165017  43.839   1.171   6.164
 5108POPC   GL265018  43.809   1.136   6.164
 5108POPC   C1A65019  43.895   1.174   6.464
 5108POPC   D2A65020  43.906   1.183   6.764
 5108POPC   C3A65021  43.893   1.246   7.064
 5108POPC   C4A65022  43.850   1.231   7.364
 5108POPC   C1B65023  43.654   1.117   6.464
 5108POPC   C2B65024  43.635   1.034   6.764
 5108POPC   C3B65025  43.664   1.119   7.064
 5108POPC   C4B65026  43.636   1.090   7.364
 5109POPC   NC365027  18.321  29.932   5.564
 5109POPC   PO465028  18.300  29.966   5.864
 5109POPC   GL165029  18.281  29.926   6.164
 5109POPC   GL265030  18.419  29.981   6.164
 5109POPC   C1A65031  18.248  29.945   6.464
 5109POPC   D2A65032  18.272  29.965   6.764
 5109POPC   C3A65033  18.262  29.894   7.064
 5109POPC   C4A65034  18.318  29.898   7.364
 5109POPC   C1B65035  18.552  30.029   6.464
 5109POPC   C2B65036  18.499  30.040   6.764
 5109POPC   C3B65037  18.514  29.985   7.064
 5109POPC   C4B65038  18.510  29.986   7.364
 5110POPC   NC365039  32.267   1.214   5.564
 5110POPC   PO465040  32.218   1.241   5.864
 5110POPC   GL165041  32.233   1.186   6.164
 5110POPC   GL265042  32.273   1.125   6.164
 5110POPC   C1A65043  32.263   1.228   6.464
 5110POPC   D2A65044  32.291   1.260   6.764
 5110POPC   C3A65045  32.270   1.179   7.064
 5110POPC   C4A65046  32.261   1.222   7.364
 5110POPC   C1B65047  32.218   0.955   6.464
 5110POPC   C2B65048  32.247   0.988   6.764
 5110POPC   C3B65049  32.294   0.955   7.064
 5110POPC   C4B65050  32.306   0.988   7.364
 5111POPC   NC365051  40.030  40.803   5.564
 5111POPC   PO465052  40.015  40.806   5.864
 5111POPC   GL165053  40.017  40.778   6.164
 5111POPC   GL265054  40.154  40.864   6.164
 5111POPC   C1A65055  39.966  40.827   6.464
 5111POPC   D2A65056  39.986  40.819   6.764
 5111POPC   C3A65057  40.046  40.815   7.064
 5111POPC   C4A65058  40.001  40.819   7.364
 5111POPC   C1B65059  40.219  40.850   6.464
 5111POPC   C2B65060  40.248  40.820   6.764
 5111POPC   C3B65061  40.195  40.908   7.064
 5111POPC   C4B65062  40.234  40.822   7.364
 5112POPC   NC365063   4.303   0.482   5.564
 5112POPC   PO465064   4.353   0.389   5.864
 5112POPC   GL165065   4.299   0.401   6.164
 5112POPC   GL265066   4.429   0.389   6.164
 5112POPC   C1A65067   4.329   0.428   6.464
 5112POPC   D2A65068   4.366   0.474   6.764
 5112POPC   C3A65069   4.361   0.432   7.064
 5112POPC   C4A65070   4.322   0.395   7.364
 5112POPC   C1B65071   4.476   0.258   6.464
 5112POPC   C2B65072   4.476   0.295   6.764
 5112POPC   C3B65073   4.510   0.313   7.064
 5112POPC   C4B65074   4.556   0.331   7.364
 5113POPC   NC365075  29.935  13.603   5.564
 5113POPC   PO465076  29.906  13.591   5.864
 5113POPC   GL165077  29.965  13.578   6.164
 5113POPC   GL265078  30.082  13.645   6.164
 5113POPC   C1A65079  29.897  13.670   6.464
 5113POPC   D2A65080  29.911  13.647   6.764
 5113POPC   C3A65081  29.922  13.592   7.064
 5113POPC   C4A65082  29.879  13.613   7.364
 5113POPC   C1B65083  30.128  13.587   6.464
 5113POPC   C2B65084  30.127  13.600   6.764
 5113POPC   C3B65085  30.178  13.565   7.064
 5113POPC   C4B65086  30.160  13.605   7.364
 5114POPC   NC365087   2.793  18.322   5.564
 5114POPC   PO465088   2.732  18.327   5.864
 5114POPC   GL165089   2.724  18.282   6.164
 5114POPC   GL265090   2.826  18.400   6.164
 5114POPC   C1A65091   2.775  18.304   6.464
 5114POPC   D2A65092   2.814  18.292   6.764
 5114POPC   C3A65093   2.788  18.307   7.064
 5114POPC   C4A65094   2.737  18.272   7.364
 5114POPC   C1B65095   2.749  18.496   6.464
 5114POPC   C2B65096   2.788  18.514   6.764
 5114POPC   C3B65097   2.815  18.498   7.064
 5114POPC   C4B65098   2.761  18.557   7.364
 5115POPC   NC365099  11.321  41.590   5.564
 5115POPC   PO465100  11.264  41.584   5.864
 5115POPC   GL165101  11.338  41.587   6.164
 5115POPC   GL265102  11.314  41.690   6.164
 5115POPC   C1A65103  11.316  41.525   6.464
 5115POPC   D2A65104  11.266  41.534   6.764
 5115POPC   C3A65105  11.300  41.529   7.064
 5115POPC   C4A65106  11.304  41.535   7.364
 5115POPC   C1B65107  11.409  41.740   6.464
 5115POPC   C2B65108  11.377  41.777   6.764
 5115POPC   C3B65109  11.449  41.747   7.064
 5115POPC   C4B65110  11.411  41.780   7.364
 5116POPC   NC365111  24.522  44.627   5.564
 5116POPC   PO465112  24.522  44.667   5.864
 5116POPC   GL165113  24.442  44.671   6.164
 5116POPC   GL265114  24.530  44.745   6.164
 5116POPC   C1A65115  24.503  44.659   6.464
 5116POPC   D2A65116  24.479  44.693   6.764
 5116POPC   C3A65117  24.523  44.686   7.064
 5116POPC   C4A65118  24.500  44.698   7.364
 5116POPC   C1B65119  24.601  44.869   6.464
 5116POPC   C2B65120  24.601  44.879   6.764
 5116POPC   C3B65121  24.588  44.933   7.064
 5116POPC   C4B65122  24.565  44.877   7.364
 5117POPC   NC365123   9.725  18.257   5.564
 5117POPC   PO465124   9.763  18.319   5.864
 5117POPC   GL165125   9.705  18.245   6.164
 5117POPC   GL265126   9.847  18.325   6.164
 5117POPC   C1A65127   9.749  18.272   6.464
 5117POPC   D2A65128   9.702  18.291   6.764
 5117POPC   C3A65129   9.790  18.315   7.064
 5117POPC   C4A65130   9.761  18.291   7.364
 5117POPC   C1B65131   9.907  18.488   6.464
 5117POPC   C2B65132   9.987  18.489   6.764
 5117POPC   C3B65133   9.917  18.411   7.064
 5117POPC   C4B65134   9.987  18.450   7.364
 5118POPC   NC365135   0.476   7.411   5.564
 5118POPC   PO465136   0.470   7.372   5.864
 5118POPC   GL165137   0.455   7.425   6.164
 5118POPC   GL265138   0.560   7.468   6.164
 5118POPC   C1A65139   0.479   7.449   6.464
 5118POPC   D2A65140   0.439   7.440   6.764
 5118POPC   C3A65141   0.427   7.443   7.064
 5118POPC   C4A65142   0.465   7.403   7.364
 5118POPC   C1B65143   0.684   7.591   6.464
 5118POPC   C2B65144   0.689   7.538   6.764
 5118POPC   C3B65145   0.695   7.558   7.064
 5118POPC   C4B65146   0.670   7.507   7.364
 5119POPC   NC365147  34.545  15.167   5.564
 5119POPC   PO465148  34.604  15.143   5.864
 5119POPC   GL165149  34.608  15.168   6.164
 5119POPC   GL265150  34.435  15.112   6.164
 5119POPC   C1A65151  34.531  15.228   6.464
 5119POPC   D2A65152  34.620  15.141   6.764
 5119POPC   C3A65153  34.588  15.206   7.064
 5119POPC   C4A65154  34.528  15.205   7.364
 5119POPC   C1B65155  34.313  15.188   6.464
 5119POPC   C2B65156  34.362  15.128   6.764
 5119POPC   C3B65157  34.348  15.121   7.064
 5119POPC   C4B65158  34.330  15.117   7.364
 5120POPC   NC365159  14.379  29.163   5.564
 5120POPC   PO465160  14.417  29.136   5.864
 5120POPC   GL165161  14.430  29.160   6.164
 5120POPC   GL265162  14.365  29.218   6.164
 5120POPC   C1A65163  14.419  29.187   6.464
 5120POPC   D2A65164  14.377  29.190   6.764
 5120POPC   C3A65165  14.365  29.173   7.064
 5120POPC   C4A65166  14.393  29.099   7.364
 5120POPC   C1B65167  14.307  29.353   6.464
 5120POPC   C2B65168  14.305  29.424   6.764
 5120POPC   C3B65169  14.368  29.432   7.064
 5120POPC   C4B65170  14.349  29.343   7.364
 5121POPC   NC365171  44.683  44.652   5.564
 5121POPC   PO465172  44.640  44.641   5.864
 5121POPC   GL165173  44.640  44.699   6.164
 5121POPC   GL265174  44.805  44.655   6.164
 5121POPC   C1A65175  44.651  44.664   6.464
 5121POPC   D2A65176  44.634  44.642   6.764
 5121POPC   C3A65177  44.654  44.659   7.064
 5121POPC   C4A65178  44.700  44.690   7.364
 5121POPC   C1B65179  44.919  44.656   6.464
 5121POPC   C2B65180  44.928  44.627   6.764
 5121POPC   C3B65181  44.898  44.685   7.064
 5121POPC   C4B65182  44.902  44.629   7.364
 5122POPC   NC365183  29.879  43.846   5.564
 5122POPC   PO465184  29.968  43.866   5.864
 5122POPC   GL165185  29.879  43.910   6.164
 5122POPC   GL265186  29.998  43.746   6.164
 5122POPC   C1A65187  29.897  43.843   6.464
 5122POPC   D2A65188  29.963  43.851   6.764
 5122POPC   C3A65189  29.910  43.906   7.064
 5122POPC   C4A65190  29.963  43.880   7.364
 5122POPC   C1B65191  30.011  43.664   6.464
 5122POPC   C2B65192  30.004  43.650   6.764
 5122POPC   C3B65193  30.024  43.653   7.064
 5122POPC   C4B65194  29.942  43.692   7.364
 5123POPC   NC365195  24.440   5.096   5.564
 5123POPC   PO465196  24.447   5.130   5.864
 5123POPC   GL165197  24.470   5.071   6.164
 5123POPC   GL265198  24.396   5.057   6.164
 5123POPC   C1A65199  24.487   5.098   6.464
 5123POPC   D2A65200  24.522   5.128   6.764
 5123POPC   C3A65201  24.508   5.062   7.064
 5123POPC   C4A65202  24.479   5.072   7.364
 5123POPC   C1B65203  24.190   5.093   6.464
 5123POPC   C2B65204  24.236   5.052   6.764
 5123POPC   C3B65205  24.248   5.066   7.064
 5123POPC   C4B65206  24.268   5.144   7.364
 5124POPC   NC365207   6.672  29.941   5.564
 5124POPC   PO465208   6.648  29.941   5.864
 5124POPC   GL165209   6.633  29.939   6.164
 5124POPC   GL265210   6.581  29.993   6.164
 5124POPC   C1A65211   6.652  29.914   6.464
 5124POPC   D2A65212   6.682  29.893   6.764
 5124POPC   C3A65213   6.688  29.933   7.064
 5124POPC   C4A65214   6.689  29.920   7.364
 5124POPC   C1B65215   6.439  30.027   6.464
 5124POPC   C2B65216   6.427  30.079   6.764
 5124POPC   C3B65217   6.387  30.081   7.064
 5124POPC   C4B65218   6.429  30.081   7.364
 5125POPC   NC365219   8.244  19.051   5.564
 5125POPC   PO465220   8.230  19.052   5.864
 5125POPC   GL165221   8.204  19.048   6.164
 5125POPC   GL265222   8.339  18.932   6.164
 5125POPC   C1A65223   8.203  19.104   6.464
 5125POPC   D2A65224   8.153  19.087   6.764
 5125POPC   C3A65225   8.176  19.051   7.064
 5125POPC   C4A65226   8.191  19.009   7.364
 5125POPC   C1B65227   8.428  18.921   6.464
 5125POPC   C2B65228   8.394  18.905   6.764
 5125POPC   C3B65229   8.386  18.926   7.064
 5125POPC   C4B65230   8.364  18.857   7.364
 5126POPC   NC365231   6.662  12.873   5.564
 5126POPC   PO465232   6.597  12.853   5.864
 5126POPC   GL165233   6.608  12.835   6.164
 5126POPC   GL265234   6.623  12.997   6.164
 5126POPC   C1A65235   6.600  12.850   6.464
 5126POPC   D2A65236   6.595  12.882   6.764
 5126POPC   C3A65237   6.685  12.899   7.064
 5126POPC   C4A65238   6.636  12.851   7.364
 5126POPC   C1B65239   6.677  13.130   6.464
 5126POPC   C2B65240   6.694  13.072   6.764
 5126POPC   C3B65241   6.677  13.063   7.064
 5126POPC   C4B65242   6.625  13.134   7.364
 5127POPC   NC365243  38.474  18.299   5.564
 5127POPC   PO465244  38.416  18.238   5.864
 5127POPC   GL165245  38.431  18.318   6.164
 5127POPC   GL265246  38.363  18.356   6.164
 5127POPC   C1A65247  38.420  18.330   6.464
 5127POPC   D2A65248  38.445  18.276   6.764
 5127POPC   C3A65249  38.426  18.290   7.064
 5127POPC   C4A65250  38.433  18.297   7.364
 5127POPC   C1B65251  38.275  18.389   6.464
 5127POPC   C2B65252  38.217  18.369   6.764
 5127POPC   C3B65253  38.228  18.400   7.064
 5127POPC   C4B65254  38.240  18.441   7.364
 5128POPC   NC365255   8.998  28.323   5.564
 5128POPC   PO465256   8.931  28.406   5.864
 5128POPC   GL165257   8.939  28.335   6.164
 5128POPC   GL265258   8.894  28.372   6.164
 5128POPC   C1A65259   8.997  28.403   6.464
 5128POPC   D2A65260   9.005  28.400   6.764
 5128POPC   C3A65261   8.972  28.324   7.064
 5128POPC   C4A65262   8.988  28.344   7.364
 5128POPC   C1B65263   8.760  28.386   6.464
 5128POPC   C2B65264   8.717  28.393   6.764
 5128POPC   C3B65265   8.712  28.398   7.064
 5128POPC   C4B65266   8.702  28.462   7.364
 5129POPC   NC365267  15.968   6.627   5.564
 5129POPC   PO465268  15.974   6.627   5.864
 5129POPC   GL165269  15.922   6.624   6.164
 5129POPC   GL265270  16.051   6.526   6.164
 5129POPC   C1A65271  15.909   6.683   6.464
 5129POPC   D2A65272  15.965   6.635   6.764
 5129POPC   C3A65273  15.982   6.693   7.064
 5129POPC   C4A65274  15.946   6.643   7.364
 5129POPC   C1B65275  16.158   6.448   6.464
 5129POPC   C2B65276  16.148   6.506   6.764
 5129POPC   C3B65277  16.119   6.439   7.064
 5129POPC   C4B65278  16.166   6.514   7.364
 5130POPC   NC365279  12.100  31.451   5.564
 5130POPC   PO465280  12.045  31.455   5.864
 5130POPC   GL165281  12.029  31.497   6.164
 5130POPC   GL265282  11.997  31.428   6.164
 5130POPC   C1A65283  12.040  31.439   6.464
 5130POPC   D2A65284  12.077  31.487   6.764
 5130POPC   C3A65285  12.051  31.426   7.064
 5130POPC   C4A65286  12.118  31.500   7.364
 5130POPC   C1B65287  11.831  31.317   6.464
 5130POPC   C2B65288  11.896  31.369   6.764
 5130POPC   C3B65289  11.872  31.326   7.064
 5130POPC   C4B65290  11.840  31.404   7.364
 5131POPC   NC365291  25.235  13.601   5.564
 5131POPC   PO465292  25.271  13.674   5.864
 5131POPC   GL165293  25.314  13.628   6.164
 5131POPC   GL265294  25.132  13.619   6.164
 5131POPC   C1A65295  25.243  13.579   6.464
 5131POPC   D2A65296  25.253  13.647   6.764
 5131POPC   C3A65297  25.241  13.633   7.064
 5131POPC   C4A65298  25.305  13.654   7.364
 5131POPC   C1B65299  25.046  13.563   6.464
 5131POPC   C2B65300  25.018  13.516   6.764
 5131POPC   C3B65301  24.996  13.540   7.064
 5131POPC   C4B65302  25.066  13.611   7.364
 5132POPC   NC365303  34.588  27.591   5.564
 5132POPC   PO465304  34.545  27.635   5.864
 5132POPC   GL165305  34.582  27.574   6.164
 5132POPC   GL265306  34.530  27.479   6.164
 5132POPC   C1A65307  34.533  27.545   6.464
 5132POPC   D2A65308  34.583  27.589   6.764
 5132POPC   C3A65309  34.538  27.625   7.064
 5132POPC   C4A65310  34.551  27.568   7.364
 5132POPC   C1B65311  34.584  27.375   6.464
 5132POPC   C2B65312  34.549  27.295   6.764
 5132POPC   C3B65313  34.530  27.324   7.064
 5132POPC   C4B65314  34.564  27.303   7.364
 5133POPC   NC365315  25.227  36.892   5.564
 5133POPC   PO465316  25.282  36.906   5.864
 5133POPC   GL165317  25.265  36.866   6.164
 5133POPC   GL265318  25.166  36.887   6.164
 5133POPC   C1A65319  25.237  36.871   6.464
 5133POPC   D2A65320  25.240  36.951   6.764
 5133POPC   C3A65321  25.255  36.909   7.064
 5133POPC   C4A65322  25.292  36.907   7.364
 5133POPC   C1B65323  25.009  36.854   6.464
 5133POPC   C2B65324  25.065  36.886   6.764
 5133POPC   C3B65325  25.046  36.850   7.064
 5133POPC   C4B65326  24.968  36.864   7.364
 5134POPC   NC365327  22.137  24.496   5.564
 5134POPC   PO465328  22.204  24.460   5.864
 5134POPC   GL165329  22.165  24.514   6.164
 5134POPC   GL265330  22.074  24.471   6.164
 5134POPC   C1A65331  22.165  24.510   6.464
 5134POPC   D2A65332  22.176  24.535   6.764
 5134POPC   C3A65333  22.129  24.524   7.064
 5134POPC   C4A65334  22.143  24.490   7.364
 5134POPC   C1B65335  21.884  24.503   6.464
 5134POPC   C2B65336  21.955  24.488   6.764
 5134POPC   C3B65337  21.961  24.571   7.064
 5134POPC   C4B65338  21.949  24.481   7.364
 5135POPC   NC365339  34.561   1.238   5.564
 5135POPC   PO465340  34.596   1.259   5.864
 5135POPC   GL165341  34.610   1.221   6.164
 5135POPC   GL265342  34.480   1.077   6.164
 5135POPC   C1A65343  34.534   1.182   6.464
 5135POPC   D2A65344  34.537   1.166   6.764
 5135POPC   C3A65345  34.529   1.205   7.064
 5135POPC   C4A65346  34.574   1.210   7.364
 5135POPC   C1B65347  34.418   1.044   6.464
 5135POPC   C2B65348  34.463   0.993   6.764
 5135POPC   C3B65349  34.376   0.980   7.064
 5135POPC   C4B65350  34.382   1.027   7.364
 5136POPC   NC365351  29.137  10.552   5.564
 5136POPC   PO465352  29.106  10.515   5.864
 5136POPC   GL165353  29.136  10.542   6.164
 5136POPC   GL265354  29.256  10.406   6.164
 5136POPC   C1A65355  29.136  10.510   6.464
 5136POPC   D2A65356  29.168  10.555   6.764
 5136POPC   C3A65357  29.124  10.560   7.064
 5136POPC   C4A65358  29.144  10.480   7.364
 5136POPC   C1B65359  29.351  10.354   6.464
 5136POPC   C2B65360  29.326  10.359   6.764
 5136POPC   C3B65361  29.297  10.400   7.064
 5136POPC   C4B65362  29.381  10.339   7.364
 5137POPC   NC365363  43.858   3.561   5.564
 5137POPC   PO465364  43.839   3.573   5.864
 5137POPC   GL165365  43.917   3.565   6.164
 5137POPC   GL265366  43.976   3.662   6.164
 5137POPC   C1A65367  43.882   3.506   6.464
 5137POPC   D2A65368  43.864   3.580   6.764
 5137POPC   C3A65369  43.845   3.519   7.064
 5137POPC   C4A65370  43.915   3.551   7.364
 5137POPC   C1B65371  44.027   3.809   6.464
 5137POPC   C2B65372  43.994   3.725   6.764
 5137POPC   C3B65373  44.001   3.760   7.064
 5137POPC   C4B65374  43.934   3.804   7.364
 5138POPC   NC365375  42.347  44.631   5.564
 5138POPC   PO465376  42.337  44.688   5.864
 5138POPC   GL165377  42.371  44.612   6.164
 5138POPC   GL265378  42.278  44.501   6.164
 5138POPC   C1A65379  42.339  44.707   6.464
 5138POPC   D2A65380  42.303  44.663   6.764
 5138POPC   C3A65381  42.341  44.706   7.064
 5138POPC   C4A65382  42.292  44.677   7.364
 5138POPC   C1B65383  42.193  44.391   6.464
 5138POPC   C2B65384  42.190  44.395   6.764
 5138POPC   C3B65385  42.212  44.392   7.064
 5138POPC   C4B65386  42.213  44.448   7.364
 5139POPC   NC365387  29.175  16.775   5.564
 5139POPC   PO465388  29.160  16.690   5.864
 5139POPC   GL165389  29.165  16.773   6.164
 5139POPC   GL265390  29.253  16.748   6.164
 5139POPC   C1A65391  29.149  16.729   6.464
 5139POPC   D2A65392  29.132  16.738   6.764
 5139POPC   C3A65393  29.117  16.708   7.064
 5139POPC   C4A65394  29.125  16.754   7.364
 5139POPC   C1B65395  29.362  16.752   6.464
 5139POPC   C2B65396  29.419  16.788   6.764
 5139POPC   C3B65397  29.394  16.810   7.064
 5139POPC   C4B65398  29.432  16.838   7.364
 5140POPC   NC365399   5.125  37.638   5.564
 5140POPC   PO465400   5.071  37.672   5.864
 5140POPC   GL165401   5.126  37.712   6.164
 5140POPC   GL265402   5.169  37.795   6.164
 5140POPC   C1A65403   5.069  37.652   6.464
 5140POPC   D2A65404   5.067  37.705   6.764
 5140POPC   C3A65405   5.105  37.639   7.064
 5140POPC   C4A65406   5.062  37.725   7.364
 5140POPC   C1B65407   5.167  37.929   6.464
 5140POPC   C2B65408   5.140  37.873   6.764
 5140POPC   C3B65409   5.178  37.906   7.064
 5140POPC   C4B65410   5.140  37.869   7.364
 5141POPC   NC365411   6.623  19.860   5.564
 5141POPC   PO465412   6.648  19.787   5.864
 5141POPC   GL165413   6.689  19.824   6.164
 5141POPC   GL265414   6.629  19.939   6.164
 5141POPC   C1A65415   6.680  19.809   6.464
 5141POPC   D2A65416   6.659  19.789   6.764
 5141POPC   C3A65417   6.660  19.800   7.064
 5141POPC   C4A65418   6.624  19.867   7.364
 5141POPC   C1B65419   6.547  20.092   6.464
 5141POPC   C2B65420   6.555  20.040   6.764
 5141POPC   C3B65421   6.521  20.066   7.064
 5141POPC   C4B65422   6.528  20.028   7.364
 5142POPC   NC365423  28.324  33.785   5.564
 5142POPC   PO465424  28.411  33.806   5.864
 5142POPC   GL165425  28.362  33.787   6.164
 5142POPC   GL265426  28.283  33.759   6.164
 5142POPC   C1A65427  28.322  33.812   6.464
 5142POPC   D2A65428  28.355  33.754   6.764
 5142POPC   C3A65429  28.366  33.848   7.064
 5142POPC   C4A65430  28.328  33.779   7.364
 5142POPC   C1B65431  28.095  33.761   6.464
 5142POPC   C2B65432  28.128  33.749   6.764
 5142POPC   C3B65433  28.092  33.739   7.064
 5142POPC   C4B65434  28.157  33.698   7.364
 5143POPC   NC365435  39.185  39.978   5.564
 5143POPC   PO465436  39.211  40.020   5.864
 5143POPC   GL165437  39.212  40.012   6.164
 5143POPC   GL265438  39.195  40.097   6.164
 5143POPC   C1A65439  39.270  40.018   6.464
 5143POPC   D2A65440  39.268  40.048   6.764
 5143POPC   C3A65441  39.226  39.969   7.064
 5143POPC   C4A65442  39.273  39.958   7.364
 5143POPC   C1B65443  39.273  40.212   6.464
 5143POPC   C2B65444  39.266  40.288   6.764
 5143POPC   C3B65445  39.259  40.248   7.064
 5143POPC   C4B65446  39.252  40.296   7.364
 5144POPC   NC365447  28.391  36.083   5.564
 5144POPC   PO465448  28.392  36.159   5.864
 5144POPC   GL165449  28.335  36.125   6.164
 5144POPC   GL265450  28.463  36.133   6.164
 5144POPC   C1A65451  28.376  36.164   6.464
 5144POPC   D2A65452  28.380  36.121   6.764
 5144POPC   C3A65453  28.320  36.114   7.064
 5144POPC   C4A65454  28.341  36.159   7.364
 5144POPC   C1B65455  28.636  36.167   6.464
 5144POPC   C2B65456  28.563  36.187   6.764
 5144POPC   C3B65457  28.626  36.233   7.064
 5144POPC   C4B65458  28.646  36.189   7.364
 5145POPC   NC365459  25.311  18.275   5.564
 5145POPC   PO465460  25.314  18.244   5.864
 5145POPC   GL165461  25.308  18.322   6.164
 5145POPC   GL265462  25.278  18.157   6.164
 5145POPC   C1A65463  25.263  18.326   6.464
 5145POPC   D2A65464  25.270  18.313   6.764
 5145POPC   C3A65465  25.238  18.285   7.064
 5145POPC   C4A65466  25.282  18.233   7.364
 5145POPC   C1B65467  25.313  18.045   6.464
 5145POPC   C2B65468  25.245  18.071   6.764
 5145POPC   C3B65469  25.325  18.066   7.064
 5145POPC   C4B65470  25.318  18.062   7.364
 5146POPC   NC365471  20.640  11.328   5.564
 5146POPC   PO465472  20.583  11.272   5.864
 5146POPC   GL165473  20.659  11.266   6.164
 5146POPC   GL265474  20.721  11.320   6.164
 5146POPC   C1A65475  20.651  11.269   6.464
 5146POPC   D2A65476  20.593  11.349   6.764
 5146POPC   C3A65477  20.588  11.273   7.064
 5146POPC   C4A65478  20.583  11.348   7.364
 5146POPC   C1B65479  20.839  11.276   6.464
 5146POPC   C2B65480  20.855  11.327   6.764
 5146POPC   C3B65481  20.847  11.315   7.064
 5146POPC   C4B65482  20.819  11.315   7.364
 5147POPC   NC365483  39.212  11.307   5.564
 5147POPC   PO465484  39.204  11.287   5.864
 5147POPC   GL165485  39.226  11.306   6.164
 5147POPC   GL265486  39.367  11.301   6.164
 5147POPC   C1A65487  39.185  11.270   6.464
 5147POPC   D2A65488  39.213  11.285   6.764
 5147POPC   C3A65489  39.269  11.314   7.064
 5147POPC   C4A65490  39.223  11.280   7.364
 5147POPC   C1B65491  39.494  11.402   6.464
 5147POPC   C2B65492  39.417  11.380   6.764
 5147POPC   C3B65493  39.511  11.415   7.064
 5147POPC   C4B65494  39.429  11.439   7.364
 5148POPC   NC365495  19.049  15.192   5.564
 5148POPC   PO465496  19.077  15.174   5.864
 5148POPC   GL165497  19.042  15.196   6.164
 5148POPC   GL265498  19.211  15.176   6.164
 5148POPC   C1A65499  19.050  15.151   6.464
 5148POPC   D2A65500  19.098  15.142   6.764
 5148POPC   C3A65501  19.039  15.131   7.064
 5148POPC   C4A65502  19.009  15.225   7.364
 5148POPC   C1B65503  19.273  15.292   6.464
 5148POPC   C2B65504  19.307  15.232   6.764
 5148POPC   C3B65505  19.319  15.224   7.064
 5148POPC   C4B65506  19.293  15.239   7.364
 5149POPC   NC365507  39.969  35.308   5.564
 5149POPC   PO465508  39.988  35.324   5.864
 5149POPC   GL165509  39.974  35.362   6.164
 5149POPC   GL265510  40.151  35.422   6.164
 5149POPC   C1A65511  39.999  35.345   6.464
 5149POPC   D2A65512  39.991  35.313   6.764
 5149POPC   C3A65513  40.016  35.358   7.064
 5149POPC   C4A65514  40.049  35.371   7.364
 5149POPC   C1B65515  40.247  35.482   6.464
 5149POPC   C2B65516  40.266  35.442   6.764
 5149POPC   C3B65517  40.213  35.431   7.064
 5149POPC   C4B65518  40.279  35.434   7.364
 5150POPC   NC365519  37.711  20.643   5.564
 5150POPC   PO465520  37.635  20.658   5.864
 5150POPC   GL165521  37.634  20.658   6.164
 5150POPC   GL265522  37.773  20.509   6.164
 5150POPC   C1A65523  37.703  20.583   6.464
 5150POPC   D2A65524  37.679  20.626   6.764
 5150POPC   C3A65525  37.640  20.590   7.064
 5150POPC   C4A65526  37.651  20.625   7.364
 5150POPC   C1B65527  37.751  20.381   6.464
 5150POPC   C2B65528  37.793  20.437   6.764
 5150POPC   C3B65529  37.774  20.360   7.064
 5150POPC   C4B65530  37.774  20.375   7.364
 5151POPC   NC365531   5.127   5.047   5.564
 5151POPC   PO465532   5.072   5.065   5.864
 5151POPC   GL165533   5.110   5.053   6.164
 5151POPC   GL265534   5.193   5.097   6.164
 5151POPC   C1A65535   5.136   5.117   6.464
 5151POPC   D2A65536   5.126   5.101   6.764
 5151POPC   C3A65537   5.056   5.117   7.064
 5151POPC   C4A65538   5.048   5.130   7.364
 5151POPC   C1B65539   5.345   5.038   6.464
 5151POPC   C2B65540   5.321   5.023   6.764
 5151POPC   C3B65541   5.305   5.109   7.064
 5151POPC   C4B65542   5.327   5.117   7.364
 5152POPC   NC365543  34.548  37.645   5.564
 5152POPC   PO465544  34.590  37.643   5.864
 5152POPC   GL165545  34.566  37.695   6.164
 5152POPC   GL265546  34.441  37.581   6.164
 5152POPC   C1A65547  34.598  37.636   6.464
 5152POPC   D2A65548  34.534  37.684   6.764
 5152POPC   C3A65549  34.527  37.648   7.064
 5152POPC   C4A65550  34.536  37.712   7.364
 5152POPC   C1B65551  34.384  37.536   6.464
 5152POPC   C2B65552  34.352  37.608   6.764
 5152POPC   C3B65553  34.342  37.525   7.064
 5152POPC   C4B65554  34.381  37.555   7.364
 5153POPC   NC365555  40.032   1.215   5.564
 5153POPC   PO465556  40.000   1.261   5.864
 5153POPC   GL165557  40.044   1.238   6.164
 5153POPC   GL265558  40.011   1.074   6.164
 5153POPC   C1A65559  39.982   1.204   6.464
 5153POPC   D2A65560  39.978   1.235   6.764
 5153POPC   C3A65561  39.992   1.184   7.064
 5153POPC   C4A65562  40.008   1.200   7.364
 5153POPC   C1B65563  39.999   0.915   6.464
 5153POPC   C2B65564  40.016   0.943   6.764
 5153POPC   C3B65565  40.004   0.917   7.064
 5153POPC   C4B65566  39.997   0.963   7.364
 5154POPC   NC365567   6.670  36.119   5.564
 5154POPC   PO465568   6.605  36.157   5.864
 5154POPC   GL165569   6.680  36.113   6.164
 5154POPC   GL265570   6.657  36.016   6.164
 5154POPC   C1A65571   6.682  36.120   6.464
 5154POPC   D2A65572   6.686  36.169   6.764
 5154POPC   C3A65573   6.687  36.169   7.064
 5154POPC   C4A65574   6.608  36.117   7.364
 5154POPC   C1B65575   6.566  35.833   6.464
 5154POPC   C2B65576   6.569  35.851   6.764
 5154POPC   C3B65577   6.623  35.833   7.064
 5154POPC   C4B65578   6.653  35.881   7.364
 5155POPC   NC365579  32.998  14.366   5.564
 5155POPC   PO465580  33.013  14.357   5.864
 5155POPC   GL165581  33.020  14.412   6.164
 5155POPC   GL265582  33.137  14.403   6.164
 5155POPC   C1A65583  33.008  14.429   6.464
 5155POPC   D2A65584  33.028  14.356   6.764
 5155POPC   C3A65585  33.053  14.444   7.064
 5155POPC   C4A65586  33.063  14.450   7.364
 5155POPC   C1B65587  33.219  14.468   6.464
 5155POPC   C2B65588  33.303  14.479   6.764
 5155POPC   C3B65589  33.307  14.460   7.064
 5155POPC   C4B65590  33.236  14.442   7.364
 5156POPC   NC365591   9.701  30.718   5.564
 5156POPC   PO465592   9.732  30.683   5.864
 5156POPC   GL165593   9.789  30.651   6.164
 5156POPC   GL265594   9.890  30.796   6.164
 5156POPC   C1A65595   9.751  30.718   6.464
 5156POPC   D2A65596   9.750  30.682   6.764
 5156POPC   C3A65597   9.760  30.745   7.064
 5156POPC   C4A65598   9.783  30.726   7.364
 5156POPC   C1B65599   9.894  30.821   6.464
 5156POPC   C2B65600   9.985  30.880   6.764
 5156POPC   C3B65601   9.960  30.820   7.064
 5156POPC   C4B65602   9.960  30.828   7.364
 5157POPC   NC365603  13.659  16.721   5.564
 5157POPC   PO465604  13.644  16.734   5.864
 5157POPC   GL165605  13.607  16.779   6.164
 5157POPC   GL265606  13.590  16.572   6.164
 5157POPC   C1A65607  13.673  16.702   6.464
 5157POPC   D2A65608  13.606  16.707   6.764
 5157POPC   C3A65609  13.672  16.747   7.064
 5157POPC   C4A65610  13.606  16.736   7.364
 5157POPC   C1B65611  13.559  16.511   6.464
 5157POPC   C2B65612  13.573  16.455   6.764
 5157POPC   C3B65613  13.647  16.446   7.064
 5157POPC   C4B65614  13.625  16.521   7.364
 5158POPC   NC365615  18.276   1.242   5.564
 5158POPC   PO465616  18.240   1.215   5.864
 5158POPC   GL165617  18.333   1.199   6.164
 5158POPC   GL265618  18.186   1.115   6.164
 5158POPC   C1A65619  18.262   1.188   6.464
 5158POPC   D2A65620  18.250   1.187   6.764
 5158POPC   C3A65621  18.297   1.169   7.064
 5158POPC   C4A65622  18.259   1.218   7.364
 5158POPC   C1B65623  18.217   0.948   6.464
 5158POPC   C2B65624  18.190   0.941   6.764
 5158POPC   C3B65625  18.141   1.000   7.064
 5158POPC   C4B65626  18.183   0.951   7.364
 5159POPC   NC365627   8.166  40.829   5.564
 5159POPC   PO465628   8.161  40.759   5.864
 5159POPC   GL165629   8.148  40.774   6.164
 5159POPC   GL265630   8.169  40.851   6.164
 5159POPC   C1A65631   8.153  40.736   6.464
 5159POPC   D2A65632   8.198  40.784   6.764
 5159POPC   C3A65633   8.178  40.827   7.064
 5159POPC   C4A65634   8.182  40.740   7.364
 5159POPC   C1B65635   8.037  41.019   6.464
 5159POPC   C2B65636   8.116  41.018   6.764
 5159POPC   C3B65637   8.049  40.997   7.064
 5159POPC   C4B65638   8.023  41.016   7.364
 5160POPC   NC365639  36.118  29.923   5.564
 5160POPC   PO465640  36.117  29.922   5.864
 5160POPC   GL165641  36.132  29.905   6.164
 5160POPC   GL265642  36.034  29.785   6.164
 5160POPC   C1A65643  36.083  29.939   6.464
 5160POPC   D2A65644  36.156  29.874   6.764
 5160POPC   C3A65645  36.122  29.873   7.064
 5160POPC   C4A65646  36.137  29.946   7.364
 5160POPC   C1B65647  36.002  29.739   6.464
 5160POPC   C2B65648  36.018  29.731   6.764
 5160POPC   C3B65649  35.961  29.706   7.064
 5160POPC   C4B65650  36.012  29.752   7.364
 5161POPC   NC365651  42.304  12.808   5.564
 5161POPC   PO465652  42.373  12.861   5.864
 5161POPC   GL165653  42.306  12.843   6.164
 5161POPC   GL265654  42.415  12.731   6.164
 5161POPC   C1A65655  42.323  12.808   6.464
 5161POPC   D2A65656  42.304  12.884   6.764
 5161POPC   C3A65657  42.338  12.827   7.064
 5161POPC   C4A65658  42.302  12.868   7.364
 5161POPC   C1B65659  42.443  12.631   6.464
 5161POPC   C2B65660  42.422  12.592   6.764
 5161POPC   C3B65661  42.424  12.631   7.064
 5161POPC   C4B65662  42.454  12.588   7.364
 5162POPC   NC365663  43.842  19.079   5.564
 5162POPC   PO465664  43.885  19.084   5.864
 5162POPC   GL165665  43.885  19.043   6.164
 5162POPC   GL265666  43.940  18.937   6.164
 5162POPC   C1A65667  43.916  19.101   6.464
 5162POPC   D2A65668  43.908  19.022   6.764
 5162POPC   C3A65669  43.873  19.086   7.064
 5162POPC   C4A65670  43.892  19.072   7.364
 5162POPC   C1B65671  43.896  18.836   6.464
 5162POPC   C2B65672  43.917  18.768   6.764
 5162POPC   C3B65673  43.855  18.829   7.064
 5162POPC   C4B65674  43.941  18.802   7.364
 5163POPC   NC365675   8.209  33.815   5.564
 5163POPC   PO465676   8.167  33.793   5.864
 5163POPC   GL165677   8.216  33.809   6.164
 5163POPC   GL265678   8.345  33.869   6.164
 5163POPC   C1A65679   8.230  33.825   6.464
 5163POPC   D2A65680   8.235  33.838   6.764
 5163POPC   C3A65681   8.168  33.763   7.064
 5163POPC   C4A65682   8.170  33.798   7.364
 5163POPC   C1B65683   8.412  33.868   6.464
 5163POPC   C2B65684   8.391  33.819   6.764
 5163POPC   C3B65685   8.483  33.872   7.064
 5163POPC   C4B65686   8.432  33.864   7.364
 5164POPC   NC365687   8.943  44.675   5.564
 5164POPC   PO465688   8.955  44.708   5.864
 5164POPC   GL165689   8.926  44.627   6.164
 5164POPC   GL265690   8.920  44.783   6.164
 5164POPC   C1A65691   8.945  44.707   6.464
 5164POPC   D2A65692   8.988  44.707   6.764
 5164POPC   C3A65693   8.982  44.706   7.064
 5164POPC   C4A65694   8.931  44.677   7.364
 5164POPC   C1B65695   8.751  44.861   6.464
 5164POPC   C2B65696   8.733  44.787   6.764
 5164POPC   C3B65697   8.794  44.870   7.064
 5164POPC   C4B65698   8.792  44.826   7.364
 5165POPC   NC365699  10.547  21.387   5.564
 5165POPC   PO465700  10.510  21.360   5.864
 5165POPC   GL165701  10.501  21.436   6.164
 5165POPC   GL265702  10.665  21.455   6.164
 5165POPC   C1A65703  10.529  21.346   6.464
 5165POPC   D2A65704  10.561  21.397   6.764
 5165POPC   C3A65705  10.565  21.370   7.064
 5165POPC   C4A65706  10.478  21.389   7.364
 5165POPC   C1B65707  10.763  21.506   6.464
 5165POPC   C2B65708  10.776  21.505   6.764
 5165POPC   C3B65709  10.779  21.520   7.064
 5165POPC   C4B65710  10.770  21.528   7.364
 5166POPC   NC365711  41.550  36.935   5.564
 5166POPC   PO465712  41.577  36.880   5.864
 5166POPC   GL165713  41.533  36.893   6.164
 5166POPC   GL265714  41.614  36.774   6.164
 5166POPC   C1A65715  41.554  36.914   6.464
 5166POPC   D2A65716  41.525  36.894   6.764
 5166POPC   C3A65717  41.565  36.882   7.064
 5166POPC   C4A65718  41.516  36.897   7.364
 5166POPC   C1B65719  41.550  36.694   6.464
 5166POPC   C2B65720  41.616  36.608   6.764
 5166POPC   C3B65721  41.595  36.650   7.064
 5166POPC   C4B65722  41.544  36.663   7.364
 5167POPC   NC365723  22.944   5.825   5.564
 5167POPC   PO465724  22.982   5.875   5.864
 5167POPC   GL165725  22.944   5.838   6.164
 5167POPC   GL265726  23.003   5.939   6.164
 5167POPC   C1A65727  22.940   5.865   6.464
 5167POPC   D2A65728  22.954   5.880   6.764
 5167POPC   C3A65729  22.925   5.868   7.064
 5167POPC   C4A65730  22.967   5.830   7.364
 5167POPC   C1B65731  23.148   5.992   6.464
 5167POPC   C2B65732  23.173   5.920   6.764
 5167POPC   C3B65733  23.144   5.936   7.064
 5167POPC   C4B65734  23.119   6.008   7.364
 5168POPC   NC365735  26.861  29.182   5.564
 5168POPC   PO465736  26.830  29.137   5.864
 5168POPC   GL165737  26.863  29.137   6.164
 5168POPC   GL265738  26.734  29.080   6.164
 5168POPC   C1A65739  26.801  29.121   6.464
 5168POPC   D2A65740  26.835  29.125   6.764
 5168POPC   C3A65741  26.830  29.152   7.064
 5168POPC   C4A65742  26.845  29.134   7.364
 5168POPC   C1B65743  26.567  28.981   6.464
 5168POPC   C2B65744  26.584  28.987   6.764
 5168POPC   C3B65745  26.604  29.036   7.064
 5168POPC   C4B65746  26.574  28.987   7.364
 5169POPC   NC365747  19.075  36.916   5.564
 5169POPC   PO465748  19.023  36.881   5.864
 5169POPC   GL165749  19.096  36.892   6.164
 5169POPC   GL265750  19.029  36.954   6.164
 5169POPC   C1A65751  19.032  36.929   6.464
 5169POPC   D2A65752  19.044  36.889   6.764
 5169POPC   C3A65753  19.055  36.947   7.064
 5169POPC   C4A65754  19.024  36.908   7.364
 5169POPC   C1B65755  18.864  37.093   6.464
 5169POPC   C2B65756  18.886  37.119   6.764
 5169POPC   C3B65757  18.923  37.059   7.064
 5169POPC   C4B65758  18.947  37.130   7.364
 5170POPC   NC365759  34.576  23.738   5.564
 5170POPC   PO465760  34.570  23.754   5.864
 5170POPC   GL165761  34.545  23.702   6.164
 5170POPC   GL265762  34.586  23.567   6.164
 5170POPC   C1A65763  34.563  23.707   6.464
 5170POPC   D2A65764  34.577  23.732   6.764
 5170POPC   C3A65765  34.564  23.740   7.064
 5170POPC   C4A65766  34.612  23.672   7.364
 5170POPC   C1B65767  34.615  23.469   6.464
 5170POPC   C2B65768  34.665  23.486   6.764
 5170POPC   C3B65769  34.611  23.469   7.064
 5170POPC   C4B65770  34.623  23.444   7.364
 5171POPC   NC365771   1.219  39.219   5.564
 5171POPC   PO465772   1.178  39.215   5.864
 5171POPC   GL165773   1.189  39.218   6.164
 5171POPC   GL265774   1.313  39.196   6.164
 5171POPC   C1A65775   1.171  39.202   6.464
 5171POPC   D2A65776   1.243  39.225   6.764
 5171POPC   C3A65777   1.252  39.266   7.064
 5171POPC   C4A65778   1.239  39.231   7.364
 5171POPC   C1B65779   1.477  39.293   6.464
 5171POPC   C2B65780   1.450  39.252   6.764
 5171POPC   C3B65781   1.431  39.302   7.064
 5171POPC   C4B65782   1.500  39.304   7.364
 5172POPC   NC365783  26.044   6.614   5.564
 5172POPC   PO465784  25.993   6.633   5.864
 5172POPC   GL165785  26.004   6.616   6.164
 5172POPC   GL265786  25.975   6.755   6.164
 5172POPC   C1A65787  26.036   6.694   6.464
 5172POPC   D2A65788  26.052   6.610   6.764
 5172POPC   C3A65789  26.074   6.600   7.064
 5172POPC   C4A65790  26.080   6.692   7.364
 5172POPC   C1B65791  25.912   6.800   6.464
 5172POPC   C2B65792  25.866   6.818   6.764
 5172POPC   C3B65793  25.852   6.894   7.064
 5172POPC   C4B65794  25.933   6.870   7.364
 5173POPC   NC365795  33.831  39.185   5.564
 5173POPC   PO465796  33.761  39.222   5.864
 5173POPC   GL165797  33.759  39.195   6.164
 5173POPC   GL265798  33.945  39.215   6.164
 5173POPC   C1A65799  33.756  39.229   6.464
 5173POPC   D2A65800  33.779  39.202   6.764
 5173POPC   C3A65801  33.793  39.257   7.064
 5173POPC   C4A65802  33.767  39.206   7.364
 5173POPC   C1B65803  34.093  39.307   6.464
 5173POPC   C2B65804  34.074  39.261   6.764
 5173POPC   C3B65805  34.073  39.276   7.064
 5173POPC   C4B65806  34.095  39.315   7.364
 5174POPC   NC365807  29.164  17.539   5.564
 5174POPC   PO465808  29.104  17.501   5.864
 5174POPC   GL165809  29.138  17.476   6.164
 5174POPC   GL265810  29.022  17.377   6.164
 5174POPC   C1A65811  29.157  17.527   6.464
 5174POPC   D2A65812  29.184  17.458   6.764
 5174POPC   C3A65813  29.123  17.478   7.064
 5174POPC   C4A65814  29.116  17.475   7.364
 5174POPC   C1B65815  28.999  17.275   6.464
 5174POPC   C2B65816  28.975  17.355   6.764
 5174POPC   C3B65817  28.990  17.289   7.064
 5174POPC   C4B65818  28.998  17.308   7.364
 5175POPC   NC365819  43.075  28.349   5.564
 5175POPC   PO465820  43.160  28.321   5.864
 5175POPC   GL165821  43.150  28.333   6.164
 5175POPC   GL265822  43.277  28.370   6.164
 5175POPC   C1A65823  43.109  28.362   6.464
 5175POPC   D2A65824  43.064  28.395   6.764
 5175POPC   C3A65825  43.123  28.340   7.064
 5175POPC   C4A65826  43.128  28.374   7.364
 5175POPC   C1B65827  43.323  28.298   6.464
 5175POPC   C2B65828  43.350  28.301   6.764
 5175POPC   C3B65829  43.383  28.267   7.064
 5175POPC   C4B65830  43.357  28.310   7.364
 5176POPC   NC365831  28.326   5.090   5.564
 5176POPC   PO465832  28.418   5.100   5.864
 5176POPC   GL165833  28.374   5.078   6.164
 5176POPC   GL265834  28.462   5.019   6.164
 5176POPC   C1A65835  28.415   5.101   6.464
 5176POPC   D2A65836  28.401   5.129   6.764
 5176POPC   C3A65837  28.334   5.096   7.064
 5176POPC   C4A65838  28.375   5.055   7.364
 5176POPC   C1B65839  28.580   5.008   6.464
 5176POPC   C2B65840  28.630   4.957   6.764
 5176POPC   C3B65841  28.544   4.955   7.064
 5176POPC   C4B65842  28.584   4.957   7.364
 5177POPC   NC365843  33.759   2.789   5.564
 5177POPC   PO465844  33.825   2.767   5.864
 5177POPC   GL165845  33.800   2.763   6.164
 5177POPC   GL265846  33.747   2.625   6.164
 5177POPC   C1A65847  33.796   2.780   6.464
 5177POPC   D2A65848  33.806   2.739   6.764
 5177POPC   C3A65849  33.770   2.746   7.064
 5177POPC   C4A65850  33.791   2.742   7.364
 5177POPC   C1B65851  33.735   2.510   6.464
 5177POPC   C2B65852  33.750   2.502   6.764
 5177POPC   C3B65853  33.792   2.477   7.064
 5177POPC   C4B65854  33.734   2.520   7.364
 5178POPC   NC365855  33.847  30.732   5.564
 5178POPC   PO465856  33.831  30.705   5.864
 5178POPC   GL165857  33.776  30.698   6.164
 5178POPC   GL265858  33.858  30.769   6.164
 5178POPC   C1A65859  33.756  30.676   6.464
 5178POPC   D2A65860  33.763  30.684   6.764
 5178POPC   C3A65861  33.763  30.648   7.064
 5178POPC   C4A65862  33.809  30.671   7.364
 5178POPC   C1B65863  33.848  30.892   6.464
 5178POPC   C2B65864  33.820  30.961   6.764
 5178POPC   C3B65865  33.837  30.988   7.064
 5178POPC   C4B65866  33.808  30.968   7.364
 5179POPC   NC365867  25.266  33.043   5.564
 5179POPC   PO465868  25.292  33.070   5.864
 5179POPC   GL165869  25.229  33.040   6.164
 5179POPC   GL265870  25.239  33.110   6.164
 5179POPC   C1A65871  25.234  33.000   6.464
 5179POPC   D2A65872  25.257  33.043   6.764
 5179POPC   C3A65873  25.258  33.047   7.064
 5179POPC   C4A65874  25.258  32.990   7.364
 5179POPC   C1B65875  25.136  33.287   6.464
 5179POPC   C2B65876  25.121  33.260   6.764
 5179POPC   C3B65877  25.145  33.232   7.064
 5179POPC   C4B65878  25.112  33.282   7.364
 5180POPC   NC365879   1.941  43.087   5.564
 5180POPC   PO465880   2.035  43.128   5.864
 5180POPC   GL165881   1.966  43.066   6.164
 5180POPC   GL265882   1.921  43.189   6.164
 5180POPC   C1A65883   1.999  43.063   6.464
 5180POPC   D2A65884   1.942  43.112   6.764
 5180POPC   C3A65885   2.026  43.085   7.064
 5180POPC   C4A65886   2.013  43.061   7.364
 5180POPC   C1B65887   1.783  43.333   6.464
 5180POPC   C2B65888   1.819  43.300   6.764
 5180POPC   C3B65889   1.788  43.307   7.064
 5180POPC   C4B65890   1.858  43.236   7.364
 5181POPC   NC365891  31.446  30.647   5.564
 5181POPC   PO465892  31.484  30.741   5.864
 5181POPC   GL165893  31.513  30.725   6.164
 5181POPC   GL265894  31.328  30.716   6.164
 5181POPC   C1A65895  31.442  30.652   6.464
 5181POPC   D2A65896  31.513  30.727   6.764
 5181POPC   C3A65897  31.498  30.668   7.064
 5181POPC   C4A65898  31.492  30.666   7.364
 5181POPC   C1B65899  31.190  30.666   6.464
 5181POPC   C2B65900  31.220  30.624   6.764
 5181POPC   C3B65901  31.273  30.664   7.064
 5181POPC   C4B65902  31.212  30.657   7.364
 5182POPC   NC365903  25.231  24.512   5.564
 5182POPC   PO465904  25.232  24.443   5.864
 5182POPC   GL165905  25.300  24.538   6.164
 5182POPC   GL265906  25.357  24.589   6.164
 5182POPC   C1A65907  25.261  24.485   6.464
 5182POPC   D2A65908  25.285  24.499   6.764
 5182POPC   C3A65909  25.283  24.521   7.064
 5182POPC   C4A65910  25.298  24.455   7.364
 5182POPC   C1B65911  25.514  24.623   6.464
 5182POPC   C2B65912  25.489  24.597   6.764
 5182POPC   C3B65913  25.531  24.629   7.064
 5182POPC   C4B65914  25.510  24.618   7.364
 5183POPC   NC365915   9.699  36.156   5.564
 5183POPC   PO465916   9.753  36.098   5.864
 5183POPC   GL165917   9.794  36.085   6.164
 5183POPC   GL265918   9.854  36.162   6.164
 5183POPC   C1A65919   9.791  36.138   6.464
 5183POPC   D2A65920   9.788  36.176   6.764
 5183POPC   C3A65921   9.765  36.119   7.064
 5183POPC   C4A65922   9.698  36.174   7.364
 5183POPC   C1B65923   9.980  36.231   6.464
 5183POPC   C2B65924   9.986  36.321   6.764
 5183POPC   C3B65925   9.963  36.325   7.064
 5183POPC   C4B65926   9.916  36.281   7.364
 5184POPC   NC365927  10.534   1.211   5.564
 5184POPC   PO465928  10.477   1.196   5.864
 5184POPC   GL165929  10.557   1.240   6.164
 5184POPC   GL265930  10.596   1.245   6.164
 5184POPC   C1A65931  10.493   1.190   6.464
 5184POPC   D2A65932  10.551   1.199   6.764
 5184POPC   C3A65933  10.500   1.237   7.064
 5184POPC   C4A65934  10.561   1.221   7.364
 5184POPC   C1B65935  10.768   1.273   6.464
 5184POPC   C2B65936  10.791   1.258   6.764
 5184POPC   C3B65937  10.737   1.288   7.064
 5184POPC   C4B65938  10.739   1.280   7.364
 5185POPC   NC365939  16.734   4.341   5.564
 5185POPC   PO465940  16.689   4.308   5.864
 5185POPC   GL165941  16.743   4.334   6.164
 5185POPC   GL265942  16.823   4.409   6.164
 5185POPC   C1A65943  16.727   4.333   6.464
 5185POPC   D2A65944  16.732   4.339   6.764
 5185POPC   C3A65945  16.748   4.285   7.064
 5185POPC   C4A65946  16.717   4.317   7.364
 5185POPC   C1B65947  16.899   4.513   6.464
 5185POPC   C2B65948  16.977   4.504   6.764
 5185POPC   C3B65949  16.924   4.516   7.064
 5185POPC   C4B65950  16.888   4.488   7.364
 5186POPC   NC365951  35.363  43.063   5.564
 5186POPC   PO465952  35.355  43.145   5.864
 5186POPC   GL165953  35.347  43.074   6.164
 5186POPC   GL265954  35.462  43.014   6.164
 5186POPC   C1A65955  35.338  43.072   6.464
 5186POPC   D2A65956  35.366  43.094   6.764
 5186POPC   C3A65957  35.315  43.140   7.064
 5186POPC   C4A65958  35.357  43.152   7.364
 5186POPC   C1B65959  35.512  42.891   6.464
 5186POPC   C2B65960  35.431  42.892   6.764
 5186POPC   C3B65961  35.481  42.851   7.064
 5186POPC   C4B65962  35.485  42.942   7.364
 5187POPC   NC365963   6.643  30.679   5.564
 5187POPC   PO465964   6.600  30.720   5.864
 5187POPC   GL165965   6.655  30.650   6.164
 5187POPC   GL265966   6.608  30.590   6.164
 5187POPC   C1A65967   6.603  30.704   6.464
 5187POPC   D2A65968   6.665  30.735   6.764
 5187POPC   C3A65969   6.666  30.694   7.064
 5187POPC   C4A65970   6.603  30.648   7.364
 5187POPC   C1B65971   6.548  30.428   6.464
 5187POPC   C2B65972   6.497  30.489   6.764
 5187POPC   C3B65973   6.551  30.453   7.064
 5187POPC   C4B65974   6.577  30.508   7.364
 5188POPC   NC365975  32.237  36.099   5.564
 5188POPC   PO465976  32.289  36.170   5.864
 5188POPC   GL165977  32.229  36.131   6.164
 5188POPC   GL265978  32.290  36.006   6.164
 5188POPC   C1A65979  32.222  36.127   6.464
 5188POPC   D2A65980  32.237  36.108   6.764
 5188POPC   C3A65981  32.282  36.177   7.064
 5188POPC   C4A65982  32.262  36.162   7.364
 5188POPC   C1B65983  32.263  35.873   6.464
 5188POPC   C2B65984  32.262  35.926   6.764
 5188POPC   C3B65985  32.317  35.873   7.064
 5188POPC   C4B65986  32.301  35.914   7.364
 5189POPC   NC365987  19.841   5.854   5.564
 5189POPC   PO465988  19.856   5.894   5.864
 5189POPC   GL165989  19.847   5.852   6.164
 5189POPC   GL265990  19.803   5.948   6.164
 5189POPC   C1A65991  19.820   5.828   6.464
 5189POPC   D2A65992  19.819   5.887   6.764
 5189POPC   C3A65993  19.798   5.884   7.064
 5189POPC   C4A65994  19.883   5.887   7.364
 5189POPC   C1B65995  19.782   6.106   6.464
 5189POPC   C2B65996  19.805   6.130   6.764
 5189POPC   C3B65997  19.778   6.073   7.064
 5189POPC   C4B65998  19.826   6.154   7.364
 5190POPC   NC365999  27.601  11.281   5.564
 5190POPC   PO466000  27.613  11.271   5.864
 5190POPC   GL166001  27.638  11.286   6.164
 5190POPC   GL266002  27.719  11.322   6.164
 5190POPC   C1A66003  27.579  11.274   6.464
 5190POPC   D2A66004  27.565  11.325   6.764
 5190POPC   C3A66005  27.554  11.260   7.064
 5190POPC   C4A66006  27.577  11.271   7.364
 5190POPC   C1B66007  27.837  11.245   6.464
 5190POPC   C2B66008  27.842  11.295   6.764
 5190POPC   C3B66009  27.884  11.245   7.064
 5190POPC   C4B66010  27.839  11.279   7.364
 5191POPC   NC366011  13.656  12.816   5.564
 5191POPC   PO466012  13.651  12.890   5.864
 5191POPC   GL166013  13.619  12.833   6.164
 5191POPC   GL266014  13.654  12.737   6.164
 5191POPC   C1A66015  13.652  12.810   6.464
 5191POPC   D2A66016  13.612  12.870   6.764
 5191POPC   C3A66017  13.617  12.884   7.064
 5191POPC   C4A66018  13.672  12.863   7.364
 5191POPC   C1B66019  13.641  12.595   6.464
 5191POPC   C2B66020  13.602  12.623   6.764
 5191POPC   C3B66021  13.672  12.652   7.064
 5191POPC   C4B66022  13.617  12.609   7.364
 5192POPC   NC366023  12.839  18.287   5.564
 5192POPC   PO466024  12.822  18.295   5.864
 5192POPC   GL166025  12.881  18.285   6.164
 5192POPC   GL266026  13.017  18.276   6.164
 5192POPC   C1A66027  12.855  18.266   6.464
 5192POPC   D2A66028  12.849  18.295   6.764
 5192POPC   C3A66029  12.822  18.315   7.064
 5192POPC   C4A66030  12.843  18.258   7.364
 5192POPC   C1B66031  13.110  18.221   6.464
 5192POPC   C2B66032  13.125  18.151   6.764
 5192POPC   C3B66033  13.107  18.176   7.064
 5192POPC   C4B66034  13.091  18.230   7.364
 5193POPC   NC366035  26.806  15.194   5.564
 5193POPC   PO466036  26.786  15.208   5.864
 5193POPC   GL166037  26.813  15.172   6.164
 5193POPC   GL266038  26.676  15.156   6.164
 5193POPC   C1A66039  26.833  15.223   6.464
 5193POPC   D2A66040  26.786  15.160   6.764
 5193POPC   C3A66041  26.778  15.209   7.064
 5193POPC   C4A66042  26.789  15.145   7.364
 5193POPC   C1B66043  26.592  15.153   6.464
 5193POPC   C2B66044  26.558  15.190   6.764
 5193POPC   C3B66045  26.586  15.177   7.064
 5193POPC   C4B66046  26.522  15.186   7.364
 5194POPC   NC366047  29.125  15.942   5.564
 5194POPC   PO466048  29.118  15.962   5.864
 5194POPC   GL166049  29.165  15.968   6.164
 5194POPC   GL266050  29.223  15.873   6.164
 5194POPC   C1A66051  29.176  15.907   6.464
 5194POPC   D2A66052  29.125  15.976   6.764
 5194POPC   C3A66053  29.137  15.966   7.064
 5194POPC   C4A66054  29.170  15.991   7.364
 5194POPC   C1B66055  29.304  15.827   6.464
 5194POPC   C2B66056  29.379  15.828   6.764
 5194POPC   C3B66057  29.335  15.838   7.064
 5194POPC   C4B66058  29.387  15.786   7.364
 5195POPC   NC366059   2.716   8.176   5.564
 5195POPC   PO466060   2.724   8.214   5.864
 5195POPC   GL166061   2.748   8.166   6.164
 5195POPC   GL266062   2.715   8.325   6.164
 5195POPC   C1A66063   2.748   8.202   6.464
 5195POPC   D2A66064   2.749   8.239   6.764
 5195POPC   C3A66065   2.773   8.177   7.064
 5195POPC   C4A66066   2.779   8.188   7.364
 5195POPC   C1B66067   2.569   8.359   6.464
 5195POPC   C2B66068   2.569   8.398   6.764
 5195POPC   C3B66069   2.578   8.357   7.064
 5195POPC   C4B66070   2.591   8.378   7.364
 5196POPC   NC366071  30.691  26.001   5.564
 5196POPC   PO466072  30.707  26.034   5.864
 5196POPC   GL166073  30.655  26.052   6.164
 5196POPC   GL266074  30.801  26.131   6.164
 5196POPC   C1A66075  30.719  26.015   6.464
 5196POPC   D2A66076  30.663  26.035   6.764
 5196POPC   C3A66077  30.687  26.042   7.064
 5196POPC   C4A66078  30.667  26.029   7.364
 5196POPC   C1B66079  30.847  26.246   6.464
 5196POPC   C2B66080  30.790  26.221   6.764
 5196POPC   C3B66081  30.778  26.217   7.064
 5196POPC   C4B66082  30.827  26.285   7.364
 5197POPC   NC366083  26.025  18.298   5.564
 5197POPC   PO466084  25.999  18.298   5.864
 5197POPC   GL166085  26.070  18.264   6.164
 5197POPC   GL266086  26.178  18.245   6.164
 5197POPC   C1A66087  26.022  18.258   6.464
 5197POPC   D2A66088  26.028  18.252   6.764
 5197POPC   C3A66089  26.031  18.251   7.064
 5197POPC   C4A66090  26.090  18.245   7.364
 5197POPC   C1B66091  26.263  18.212   6.464
 5197POPC   C2B66092  26.297  18.216   6.764
 5197POPC   C3B66093  26.327  18.255   7.064
 5197POPC   C4B66094  26.315  18.236   7.364
 5198POPC   NC366095   8.224  36.121   5.564
 5198POPC   PO466096   8.230  36.101   5.864
 5198POPC   GL166097   8.177  36.152   6.164
 5198POPC   GL266098   8.211  36.022   6.164
 5198POPC   C1A66099   8.160  36.097   6.464
 5198POPC   D2A66100   8.182  36.153   6.764
 5198POPC   C3A66101   8.153  36.137   7.064
 5198POPC   C4A66102   8.190  36.118   7.364
 5198POPC   C1B66103   8.177  35.885   6.464
 5198POPC   C2B66104   8.169  35.923   6.764
 5198POPC   C3B66105   8.175  35.852   7.064
 5198POPC   C4B66106   8.159  35.911   7.364
 5199POPC   NC366107   2.012  33.030   5.564
 5199POPC   PO466108   1.998  33.056   5.864
 5199POPC   GL166109   2.026  33.069   6.164
 5199POPC   GL266110   2.003  33.115   6.164
 5199POPC   C1A66111   1.994  33.031   6.464
 5199POPC   D2A66112   1.999  32.997   6.764
 5199POPC   C3A66113   1.947  33.061   7.064
 5199POPC   C4A66114   1.974  33.004   7.364
 5199POPC   C1B66115   1.964  33.263   6.464
 5199POPC   C2B66116   2.007  33.247   6.764
 5199POPC   C3B66117   2.000  33.280   7.064
 5199POPC   C4B66118   1.921  33.240   7.364
 5200POPC   NC366119   3.507  15.984   5.564
 5200POPC   PO466120   3.557  15.998   5.864
 5200POPC   GL166121   3.534  15.952   6.164
 5200POPC   GL266122   3.689  15.872   6.164
 5200POPC   C1A66123   3.575  15.920   6.464
 5200POPC   D2A66124   3.558  15.982   6.764
 5200POPC   C3A66125   3.571  15.927   7.064
 5200POPC   C4A66126   3.511  15.921   7.364
 5200POPC   C1B66127   3.744  15.882   6.464
 5200POPC   C2B66128   3.726  15.828   6.764
 5200POPC   C3B66129   3.778  15.846   7.064
 5200POPC   C4B66130   3.810  15.826   7.364
 5201POPC   NC366131  31.485  44.674   5.564
 5201POPC   PO466132  31.512  44.693   5.864
 5201POPC   GL166133  31.427  44.624   6.164
 5201POPC   GL266134  31.498  44.584   6.164
 5201POPC   C1A66135  31.431  44.690   6.464
 5201POPC   D2A66136  31.467  44.698   6.764
 5201POPC   C3A66137  31.453  44.642   7.064
 5201POPC   C4A66138  31.495  44.640   7.364
 5201POPC   C1B66139  31.515  44.449   6.464
 5201POPC   C2B66140  31.564  44.420   6.764
 5201POPC   C3B66141  31.510  44.460   7.064
 5201POPC   C4B66142  31.513  44.463   7.364
 5202POPC   NC366143  34.558  28.329   5.564
 5202POPC   PO466144  34.586  28.412   5.864
 5202POPC   GL166145  34.551  28.372   6.164
 5202POPC   GL266146  34.467  28.421   6.164
 5202POPC   C1A66147  34.579  28.388   6.464
 5202POPC   D2A66148  34.591  28.328   6.764
 5202POPC   C3A66149  34.599  28.321   7.064
 5202POPC   C4A66150  34.583  28.361   7.364
 5202POPC   C1B66151  34.325  28.410   6.464
 5202POPC   C2B66152  34.320  28.413   6.764
 5202POPC   C3B66153  34.300  28.436   7.064
 5202POPC   C4B66154  34.302  28.415   7.364
 5203POPC   NC366155  16.769  37.676   5.564
 5203POPC   PO466156  16.740  37.700   5.864
 5203POPC   GL166157  16.779  37.660   6.164
 5203POPC   GL266158  16.642  37.633   6.164
 5203POPC   C1A66159  16.764  37.680   6.464
 5203POPC   D2A66160  16.712  37.661   6.764
 5203POPC   C3A66161  16.763  37.706   7.064
 5203POPC   C4A66162  16.730  37.662   7.364
 5203POPC   C1B66163  16.504  37.616   6.464
 5203POPC   C2B66164  16.531  37.609   6.764
 5203POPC   C3B66165  16.517  37.610   7.064
 5203POPC   C4B66166  16.536  37.613   7.364
 5204POPC   NC366167  20.609   7.372   5.564
 5204POPC   PO466168  20.580   7.413   5.864
 5204POPC   GL166169  20.657   7.418   6.164
 5204POPC   GL266170  20.506   7.377   6.164
 5204POPC   C1A66171  20.597   7.374   6.464
 5204POPC   D2A66172  20.593   7.457   6.764
 5204POPC   C3A66173  20.594   7.435   7.064
 5204POPC   C4A66174  20.657   7.403   7.364
 5204POPC   C1B66175  20.393   7.471   6.464
 5204POPC   C2B66176  20.364   7.401   6.764
 5204POPC   C3B66177  20.361   7.382   7.064
 5204POPC   C4B66178  20.328   7.375   7.364
 5205POPC   NC366179   9.713  31.488   5.564
 5205POPC   PO466180   9.762  31.471   5.864
 5205POPC   GL166181   9.795  31.464   6.164
 5205POPC   GL266182   9.741  31.598   6.164
 5205POPC   C1A66183   9.707  31.460   6.464
 5205POPC   D2A66184   9.788  31.455   6.764
 5205POPC   C3A66185   9.771  31.434   7.064
 5205POPC   C4A66186   9.772  31.464   7.364
 5205POPC   C1B66187   9.829  31.691   6.464
 5205POPC   C2B66188   9.801  31.759   6.764
 5205POPC   C3B66189   9.754  31.680   7.064
 5205POPC   C4B66190   9.771  31.712   7.364
 5206POPC   NC366191   5.077  15.965   5.564
 5206POPC   PO466192   5.143  15.915   5.864
 5206POPC   GL166193   5.079  15.908   6.164
 5206POPC   GL266194   4.980  16.002   6.164
 5206POPC   C1A66195   5.131  15.933   6.464
 5206POPC   D2A66196   5.058  15.947   6.764
 5206POPC   C3A66197   5.051  15.913   7.064
 5206POPC   C4A66198   5.125  16.005   7.364
 5206POPC   C1B66199   4.816  16.020   6.464
 5206POPC   C2B66200   4.877  16.008   6.764
 5206POPC   C3B66201   4.826  15.964   7.064
 5206POPC   C4B66202   4.834  15.975   7.364
 5207POPC   NC366203  42.383  37.687   5.564
 5207POPC   PO466204  42.310  37.699   5.864
 5207POPC   GL166205  42.374  37.670   6.164
 5207POPC   GL266206  42.441  37.755   6.164
 5207POPC   C1A66207  42.328  37.707   6.464
 5207POPC   D2A66208  42.349  37.668   6.764
 5207POPC   C3A66209  42.381  37.661   7.064
 5207POPC   C4A66210  42.372  37.724   7.364
 5207POPC   C1B66211  42.493  37.923   6.464
 5207POPC   C2B66212  42.508  37.859   6.764
 5207POPC   C3B66213  42.481  37.896   7.064
 5207POPC   C4B66214  42.458  37.829   7.364
 5208POPC   NC366215  17.517   9.782   5.564
 5208POPC   PO466216  17.550   9.797   5.864
 5208POPC   GL166217  17.508   9.721   6.164
 5208POPC   GL266218  17.558   9.867   6.164
 5208POPC   C1A66219  17.491   9.741   6.464
 5208POPC   D2A66220  17.459   9.726   6.764
 5208POPC   C3A66221  17.526   9.707   7.064
 5208POPC   C4A66222  17.493   9.792   7.364
 5208POPC   C1B66223  17.633   9.930   6.464
 5208POPC   C2B66224  17.601   9.932   6.764
 5208POPC   C3B66225  17.671   9.969   7.064
 5208POPC   C4B66226  17.595   9.922   7.364
 5209POPC   NC366227  32.999  39.224   5.564
 5209POPC   PO466228  33.029  39.214   5.864
 5209POPC   GL166229  33.038  39.264   6.164
 5209POPC   GL266230  33.003  39.125   6.164
 5209POPC   C1A66231  33.064  39.198   6.464
 5209POPC   D2A66232  32.992  39.205   6.764
 5209POPC   C3A66233  33.046  39.272   7.064
 5209POPC   C4A66234  33.026  39.275   7.364
 5209POPC   C1B66235  33.029  38.949   6.464
 5209POPC   C2B66236  32.962  38.982   6.764
 5209POPC   C3B66237  32.993  38.957   7.064
 5209POPC   C4B66238  33.043  38.994   7.364
 5210POPC   NC366239  35.314  23.752   5.564
 5210POPC   PO466240  35.385  23.671   5.864
 5210POPC   GL166241  35.358  23.715   6.164
 5210POPC   GL266242  35.229  23.645   6.164
 5210POPC   C1A66243  35.358  23.739   6.464
 5210POPC   D2A66244  35.366  23.762   6.764
 5210POPC   C3A66245  35.380  23.695   7.064
 5210POPC   C4A66246  35.376  23.713   7.364
 5210POPC   C1B66247  35.176  23.628   6.464
 5210POPC   C2B66248  35.101  23.558   6.764
 5210POPC   C3B66249  35.155  23.623   7.064
 5210POPC   C4B66250  35.171  23.634   7.364
 5211POPC   NC366251  19.798   2.774   5.564
 5211POPC   PO466252  19.791   2.750   5.864
 5211POPC   GL166253  19.857   2.767   6.164
 5211POPC   GL266254  19.777   2.825   6.164
 5211POPC   C1A66255  19.836   2.791   6.464
 5211POPC   D2A66256  19.853   2.779   6.764
 5211POPC   C3A66257  19.839   2.747   7.064
 5211POPC   C4A66258  19.875   2.740   7.364
 5211POPC   C1B66259  19.684   2.982   6.464
 5211POPC   C2B66260  19.623   2.906   6.764
 5211POPC   C3B66261  19.660   2.945   7.064
 5211POPC   C4B66262  19.703   2.922   7.364
 5212POPC   NC366263  10.512  44.678   5.564
 5212POPC   PO466264  10.537  44.676   5.864
 5212POPC   GL166265  10.529  44.646   6.164
 5212POPC   GL266266  10.671  44.696   6.164
 5212POPC   C1A66267  10.482  44.662   6.464
 5212POPC   D2A66268  10.573  44.698   6.764
 5212POPC   C3A66269  10.499  44.708   7.064
 5212POPC   C4A66270  10.568  44.633   7.364
 5212POPC   C1B66271  10.785  44.753   6.464
 5212POPC   C2B66272  10.740  44.775   6.764
 5212POPC   C3B66273  10.750  44.741   7.064
 5212POPC   C4B66274  10.724  44.815   7.364
 5213POPC   NC366275  33.798  21.409   5.564
 5213POPC   PO466276  33.763  21.420   5.864
 5213POPC   GL166277  33.839  21.418   6.164
 5213POPC   GL266278  33.804  21.471   6.164
 5213POPC   C1A66279  33.781  21.432   6.464
 5213POPC   D2A66280  33.837  21.388   6.764
 5213POPC   C3A66281  33.821  21.380   7.064
 5213POPC   C4A66282  33.814  21.419   7.364
 5213POPC   C1B66283  33.735  21.586   6.464
 5213POPC   C2B66284  33.735  21.631   6.764
 5213POPC   C3B66285  33.773  21.654   7.064
 5213POPC   C4B66286  33.716  21.656   7.364
 5214POPC   NC366287  11.304  40.809   5.564
 5214POPC   PO466288  11.344  40.750   5.864
 5214POPC   GL166289  11.350  40.759   6.164
 5214POPC   GL266290  11.425  40.762   6.164
 5214POPC   C1A66291  11.269  40.756   6.464
 5214POPC   D2A66292  11.293  40.810   6.764
 5214POPC   C3A66293  11.323  40.743   7.064
 5214POPC   C4A66294  11.342  40.815   7.364
 5214POPC   C1B66295  11.530  40.771   6.464
 5214POPC   C2B66296  11.578  40.717   6.764
 5214POPC   C3B66297  11.596  40.772   7.064
 5214POPC   C4B66298  11.500  40.789   7.364
 5215POPC   NC366299   2.793  41.523   5.564
 5215POPC   PO466300   2.773  41.583   5.864
 5215POPC   GL166301   2.803  41.595   6.164
 5215POPC   GL266302   2.860  41.533   6.164
 5215POPC   C1A66303   2.795  41.511   6.464
 5215POPC   D2A66304   2.787  41.540   6.764
 5215POPC   C3A66305   2.793  41.586   7.064
 5215POPC   C4A66306   2.748  41.603   7.364
 5215POPC   C1B66307   2.954  41.411   6.464
 5215POPC   C2B66308   3.004  41.393   6.764
 5215POPC   C3B66309   2.944  41.408   7.064
 5215POPC   C4B66310   2.939  41.408   7.364
 5216POPC   NC366311  39.212   6.600   5.564
 5216POPC   PO466312  39.197   6.670   5.864
 5216POPC   GL166313  39.211   6.625   6.164
 5216POPC   GL266314  39.148   6.597   6.164
 5216POPC   C1A66315  39.189   6.673   6.464
 5216POPC   D2A66316  39.205   6.620   6.764
 5216POPC   C3A66317  39.247   6.602   7.064
 5216POPC   C4A66318  39.234   6.668   7.364
 5216POPC   C1B66319  39.063   6.534   6.464
 5216POPC   C2B66320  39.057   6.495   6.764
 5216POPC   C3B66321  39.050   6.475   7.064
 5216POPC   C4B66322  38.976   6.543   7.364
 5217POPC   NC366323  42.291   0.466   5.564
 5217POPC   PO466324  42.303   0.459   5.864
 5217POPC   GL166325  42.358   0.437   6.164
 5217POPC   GL266326  42.390   0.523   6.164
 5217POPC   C1A66327  42.285   0.447   6.464
 5217POPC   D2A66328  42.379   0.396   6.764
 5217POPC   C3A66329  42.376   0.483   7.064
 5217POPC   C4A66330  42.290   0.432   7.364
 5217POPC   C1B66331  42.565   0.570   6.464
 5217POPC   C2B66332  42.571   0.605   6.764
 5217POPC   C3B66333  42.495   0.585   7.064
 5217POPC   C4B66334  42.573   0.596   7.364
 5218POPC   NC366335  39.207  22.959   5.564
 5218POPC   PO466336  39.222  22.970   5.864
 5218POPC   GL166337  39.247  22.955   6.164
 5218POPC   GL266338  39.242  23.062   6.164
 5218POPC   C1A66339  39.240  22.918   6.464
 5218POPC   D2A66340  39.267  22.975   6.764
 5218POPC   C3A66341  39.259  22.969   7.064
 5218POPC   C4A66342  39.244  22.893   7.364
 5218POPC   C1B66343  39.203  23.150   6.464
 5218POPC   C2B66344  39.184  23.178   6.764
 5218POPC   C3B66345  39.152  23.130   7.064
 5218POPC   C4B66346  39.121  23.145   7.364
 5219POPC   NC366347  11.280   4.288   5.564
 5219POPC   PO466348  11.261   4.325   5.864
 5219POPC   GL166349  11.251   4.326   6.164
 5219POPC   GL266350  11.155   4.310   6.164
 5219POPC   C1A66351  11.263   4.334   6.464
 5219POPC   D2A66352  11.302   4.285   6.764
 5219POPC   C3A66353  11.337   4.322   7.064
 5219POPC   C4A66354  11.312   4.340   7.364
 5219POPC   C1B66355  11.021   4.248   6.464
 5219POPC   C2B66356  11.103   4.301   6.764
 5219POPC   C3B66357  11.074   4.240   7.064
 5219POPC   C4B66358  11.031   4.288   7.364
 5220POPC   NC366359   6.647  14.402   5.564
 5220POPC   PO466360   6.603  14.436   5.864
 5220POPC   GL166361   6.605  14.408   6.164
 5220POPC   GL266362   6.743  14.496   6.164
 5220POPC   C1A66363   6.597  14.414   6.464
 5220POPC   D2A66364   6.654  14.415   6.764
 5220POPC   C3A66365   6.597  14.407   7.064
 5220POPC   C4A66366   6.694  14.370   7.364
 5220POPC   C1B66367   6.857  14.531   6.464
 5220POPC   C2B66368   6.794  14.586   6.764
 5220POPC   C3B66369   6.802  14.571   7.064
 5220POPC   C4B66370   6.801  14.591   7.364
 5221POPC   NC366371  40.746  26.858   5.564
 5221POPC   PO466372  40.761  26.801   5.864
 5221POPC   GL166373  40.778  26.807   6.164
 5221POPC   GL266374  40.805  26.665   6.164
 5221POPC   C1A66375  40.754  26.798   6.464
 5221POPC   D2A66376  40.792  26.771   6.764
 5221POPC   C3A66377  40.752  26.828   7.064
 5221POPC   C4A66378  40.734  26.818   7.364
 5221POPC   C1B66379  40.752  26.554   6.464
 5221POPC   C2B66380  40.797  26.534   6.764
 5221POPC   C3B66381  40.750  26.550   7.064
 5221POPC   C4B66382  40.767  26.541   7.364
 5222POPC   NC366383  32.975   4.340   5.564
 5222POPC   PO466384  33.058   4.334   5.864
 5222POPC   GL166385  32.997   4.364   6.164
 5222POPC   GL266386  33.042   4.161   6.164
 5222POPC   C1A66387  33.035   4.306   6.464
 5222POPC   D2A66388  33.017   4.355   6.764
 5222POPC   C3A66389  33.072   4.315   7.064
 5222POPC   C4A66390  32.981   4.317   7.364
 5222POPC   C1B66391  33.116   4.081   6.464
 5222POPC   C2B66392  33.140   4.076   6.764
 5222POPC   C3B66393  33.052   4.065   7.064
 5222POPC   C4B66394  33.101   4.105   7.364
 5223POPC   NC366395   2.732  44.698   5.564
 5223POPC   PO466396   2.766  44.646   5.864
 5223POPC   GL166397   2.775  44.640   6.164
 5223POPC   GL266398   2.658  44.742   6.164
 5223POPC   C1A66399   2.769  44.705   6.464
 5223POPC   D2A66400   2.716  44.655   6.764
 5223POPC   C3A66401   2.745  44.668   7.064
 5223POPC   C4A66402   2.796  44.712   7.364
 5223POPC   C1B66403   2.598  44.750   6.464
 5223POPC   C2B66404   2.525  44.843   6.764
 5223POPC   C3B66405   2.554  44.794   7.064
 5223POPC   C4B66406   2.549  44.842   7.364
 5224POPC   NC366407  23.760  10.483   5.564
 5224POPC   PO466408  23.716  10.494   5.864
 5224POPC   GL166409  23.694  10.520   6.164
 5224POPC   GL266410  23.622  10.612   6.164
 5224POPC   C1A66411  23.679  10.505   6.464
 5224POPC   D2A66412  23.695  10.498   6.764
 5224POPC   C3A66413  23.690  10.532   7.064
 5224POPC   C4A66414  23.678  10.474   7.364
 5224POPC   C1B66415  23.532  10.660   6.464
 5224POPC   C2B66416  23.471  10.683   6.764
 5224POPC   C3B66417  23.475  10.651   7.064
 5224POPC   C4B66418  23.532  10.722   7.364
 5225POPC   NC366419  28.346   6.628   5.564
 5225POPC   PO466420  28.406   6.618   5.864
 5225POPC   GL166421  28.342   6.661   6.164
 5225POPC   GL266422  28.215   6.681   6.164
 5225POPC   C1A66423  28.373   6.640   6.464
 5225POPC   D2A66424  28.353   6.613   6.764
 5225POPC   C3A66425  28.389   6.605   7.064
 5225POPC   C4A66426  28.343   6.630   7.364
 5225POPC   C1B66427  28.148   6.631   6.464
 5225POPC   C2B66428  28.163   6.667   6.764
 5225POPC   C3B66429  28.082   6.689   7.064
 5225POPC   C4B66430  28.108   6.692   7.364
 5226POPC   NC366431  31.487  12.898   5.564
 5226POPC   PO466432  31.507  12.898   5.864
 5226POPC   GL166433  31.439  12.826   6.164
 5226POPC   GL266434  31.354  12.736   6.164
 5226POPC   C1A66435  31.491  12.810   6.464
 5226POPC   D2A66436  31.459  12.840   6.764
 5226POPC   C3A66437  31.490  12.887   7.064
 5226POPC   C4A66438  31.475  12.822   7.364
 5226POPC   C1B66439  31.379  12.622   6.464
 5226POPC   C2B66440  31.367  12.680   6.764
 5226POPC   C3B66441  31.309  12.635   7.064
 5226POPC   C4B66442  31.378  12.685   7.364
 5227POPC   NC366443  24.502  10.549   5.564
 5227POPC   PO466444  24.468  10.496   5.864
 5227POPC   GL166445  24.449  10.537   6.164
 5227POPC   GL266446  24.523  10.411   6.164
 5227POPC   C1A66447  24.525  10.478   6.464
 5227POPC   D2A66448  24.456  10.531   6.764
 5227POPC   C3A66449  24.500  10.540   7.064
 5227POPC   C4A66450  24.444  10.494   7.364
 5227POPC   C1B66451  24.640  10.362   6.464
 5227POPC   C2B66452  24.683  10.311   6.764
 5227POPC   C3B66453  24.620  10.339   7.064
 5227POPC   C4B66454  24.644  10.361   7.364
 5228POPC   NC366455  19.094   8.218   5.564
 5228POPC   PO466456  19.102   8.227   5.864
 5228POPC   GL166457  19.058   8.230   6.164
 5228POPC   GL266458  18.927   8.268   6.164
 5228POPC   C1A66459  19.070   8.160   6.464
 5228POPC   D2A66460  19.085   8.229   6.764
 5228POPC   C3A66461  19.041   8.221   7.064
 5228POPC   C4A66462  19.066   8.217   7.364
 5228POPC   C1B66463  18.867   8.298   6.464
 5228POPC   C2B66464  18.869   8.252   6.764
 5228POPC   C3B66465  18.779   8.234   7.064
 5228POPC   C4B66466  18.775   8.295   7.364
 5229POPC   NC366467   1.967  34.558   5.564
 5229POPC   PO466468   2.023  34.526   5.864
 5229POPC   GL166469   2.031  34.618   6.164
 5229POPC   GL266470   1.935  34.476   6.164
 5229POPC   C1A66471   1.998  34.603   6.464
 5229POPC   D2A66472   1.979  34.555   6.764
 5229POPC   C3A66473   2.027  34.594   7.064
 5229POPC   C4A66474   2.023  34.602   7.364
 5229POPC   C1B66475   1.802  34.474   6.464
 5229POPC   C2B66476   1.824  34.406   6.764
 5229POPC   C3B66477   1.819  34.406   7.064
 5229POPC   C4B66478   1.825  34.396   7.364
 5230POPC   NC366479  19.026  19.836   5.564
 5230POPC   PO466480  19.061  19.855   5.864
 5230POPC   GL166481  19.041  19.857   6.164
 5230POPC   GL266482  19.134  19.952   6.164
 5230POPC   C1A66483  19.084  19.786   6.464
 5230POPC   D2A66484  19.083  19.806   6.764
 5230POPC   C3A66485  19.094  19.826   7.064
 5230POPC   C4A66486  19.082  19.853   7.364
 5230POPC   C1B66487  19.182  20.056   6.464
 5230POPC   C2B66488  19.160  20.097   6.764
 5230POPC   C3B66489  19.120  20.085   7.064
 5230POPC   C4B66490  19.195  20.113   7.364
 5231POPC   NC366491  23.755  26.010   5.564
 5231POPC   PO466492  23.735  26.027   5.864
 5231POPC   GL166493  23.735  26.083   6.164
 5231POPC   GL266494  23.873  26.073   6.164
 5231POPC   C1A66495  23.718  26.040   6.464
 5231POPC   D2A66496  23.671  26.054   6.764
 5231POPC   C3A66497  23.690  26.037   7.064
 5231POPC   C4A66498  23.723  26.024   7.364
 5231POPC   C1B66499  23.981  26.082   6.464
 5231POPC   C2B66500  23.985  26.117   6.764
 5231POPC   C3B66501  23.921  26.126   7.064
 5231POPC   C4B66502  23.991  26.149   7.364
 5232POPC   NC366503  44.645   0.420   5.564
 5232POPC   PO466504  44.664   0.435   5.864
 5232POPC   GL166505  44.625   0.432   6.164
 5232POPC   GL266506  44.598   0.384   6.164
 5232POPC   C1A66507  44.658   0.449   6.464
 5232POPC   D2A66508  44.629   0.436   6.764
 5232POPC   C3A66509  44.671   0.416   7.064
 5232POPC   C4A66510  44.617   0.467   7.364
 5232POPC   C1B66511  44.467   0.303   6.464
 5232POPC   C2B66512  44.450   0.355   6.764
 5232POPC   C3B66513  44.455   0.318   7.064
 5232POPC   C4B66514  44.410   0.376   7.364
 5233POPC   NC366515  17.483  36.924   5.564
 5233POPC   PO466516  17.482  36.891   5.864
 5233POPC   GL166517  17.501  36.933   6.164
 5233POPC   GL266518  17.438  36.974   6.164
 5233POPC   C1A66519  17.481  36.919   6.464
 5233POPC   D2A66520  17.496  36.911   6.764
 5233POPC   C3A66521  17.539  36.866   7.064
 5233POPC   C4A66522  17.468  36.920   7.364
 5233POPC   C1B66523  17.268  37.016   6.464
 5233POPC   C2B66524  17.301  37.028   6.764
 5233POPC   C3B66525  17.315  37.086   7.064
 5233POPC   C4B66526  17.336  37.030   7.364
 5234POPC   NC366527  43.142  33.024   5.564
 5234POPC   PO466528  43.145  32.998   5.864
 5234POPC   GL166529  43.075  33.062   6.164
 5234POPC   GL266530  43.035  32.974   6.164
 5234POPC   C1A66531  43.107  33.018   6.464
 5234POPC   D2A66532  43.090  33.070   6.764
 5234POPC   C3A66533  43.125  33.068   7.064
 5234POPC   C4A66534  43.088  33.060   7.364
 5234POPC   C1B66535  42.867  32.876   6.464
 5234POPC   C2B66536  42.919  32.859   6.764
 5234POPC   C3B66537  42.879  32.876   7.064
 5234POPC   C4B66538  42.938  32.880   7.364
 5235POPC   NC366539  15.173  29.171   5.564
 5235POPC   PO466540  15.190  29.162   5.864
 5235POPC   GL166541  15.139  29.174   6.164
 5235POPC   GL266542  15.077  29.255   6.164
 5235POPC   C1A66543  15.186  29.193   6.464
 5235POPC   D2A66544  15.224  29.184   6.764
 5235POPC   C3A66545  15.212  29.149   7.064
 5235POPC   C4A66546  15.143  29.151   7.364
 5235POPC   C1B66547  15.022  29.281   6.464
 5235POPC   C2B66548  14.942  29.317   6.764
 5235POPC   C3B66549  15.029  29.332   7.064
 5235POPC   C4B66550  15.009  29.304   7.364
 5236POPC   NC366551  14.362   7.390   5.564
 5236POPC   PO466552  14.360   7.394   5.864
 5236POPC   GL166553  14.393   7.461   6.164
 5236POPC   GL266554  14.497   7.302   6.164
 5236POPC   C1A66555  14.408   7.402   6.464
 5236POPC   D2A66556  14.394   7.415   6.764
 5236POPC   C3A66557  14.379   7.450   7.064
 5236POPC   C4A66558  14.422   7.462   7.364
 5236POPC   C1B66559  14.512   7.168   6.464
 5236POPC   C2B66560  14.523   7.246   6.764
 5236POPC   C3B66561  14.493   7.159   7.064
 5236POPC   C4B66562  14.571   7.165   7.364
 5237POPC   NC366563  29.888  36.897   5.564
 5237POPC   PO466564  29.900  36.946   5.864
 5237POPC   GL166565  29.949  36.952   6.164
 5237POPC   GL266566  29.903  36.782   6.164
 5237POPC   C1A66567  29.921  36.893   6.464
 5237POPC   D2A66568  29.951  36.892   6.764
 5237POPC   C3A66569  29.876  36.928   7.064
 5237POPC   C4A66570  29.894  36.879   7.364
 5237POPC   C1B66571  29.806  36.678   6.464
 5237POPC   C2B66572  29.766  36.680   6.764
 5237POPC   C3B66573  29.790  36.644   7.064
 5237POPC   C4B66574  29.844  36.709   7.364
 5238POPC   NC366575  42.309   3.565   5.564
 5238POPC   PO466576  42.302   3.510   5.864
 5238POPC   GL166577  42.360   3.578   6.164
 5238POPC   GL266578  42.234   3.573   6.164
 5238POPC   C1A66579  42.341   3.575   6.464
 5238POPC   D2A66580  42.337   3.501   6.764
 5238POPC   C3A66581  42.306   3.523   7.064
 5238POPC   C4A66582  42.340   3.520   7.364
 5238POPC   C1B66583  42.138   3.653   6.464
 5238POPC   C2B66584  42.154   3.698   6.764
 5238POPC   C3B66585  42.145   3.704   7.064
 5238POPC   C4B66586  42.065   3.697   7.364
 5239POPC   NC366587   4.356   5.102   5.564
 5239POPC   PO466588   4.366   5.065   5.864
 5239POPC   GL166589   4.366   5.104   6.164
 5239POPC   GL266590   4.285   5.213   6.164
 5239POPC   C1A66591   4.364   5.125   6.464
 5239POPC   D2A66592   4.343   5.089   6.764
 5239POPC   C3A66593   4.357   5.089   7.064
 5239POPC   C4A66594   4.272   5.076   7.364
 5239POPC   C1B66595   4.344   5.378   6.464
 5239POPC   C2B66596   4.272   5.322   6.764
 5239POPC   C3B66597   4.330   5.389   7.064
 5239POPC   C4B66598   4.280   5.345   7.364
 5240POPC   NC366599  12.108  19.876   5.564
 5240POPC   PO466600  12.112  19.806   5.864
 5240POPC   GL166601  12.092  19.856   6.164
 5240POPC   GL266602  12.116  19.977   6.164
 5240POPC   C1A66603  12.091  19.818   6.464
 5240POPC   D2A66604  12.077  19.876   6.764
 5240POPC   C3A66605  12.049  19.827   7.064
 5240POPC   C4A66606  12.052  19.815   7.364
 5240POPC   C1B66607  12.242  20.087   6.464
 5240POPC   C2B66608  12.239  20.025   6.764
 5240POPC   C3B66609  12.228  20.024   7.064
 5240POPC   C4B66610  12.185  20.076   7.364
 5241POPC   NC366611  21.347  22.185   5.564
 5241POPC   PO466612  21.362  22.150   5.864
 5241POPC   GL166613  21.360  22.170   6.164
 5241POPC   GL266614  21.282  22.200   6.164
 5241POPC   C1A66615  21.397  22.197   6.464
 5241POPC   D2A66616  21.433  22.196   6.764
 5241POPC   C3A66617  21.386  22.140   7.064
 5241POPC   C4A66618  21.340  22.153   7.364
 5241POPC   C1B66619  21.112  22.201   6.464
 5241POPC   C2B66620  21.151  22.198   6.764
 5241POPC   C3B66621  21.125  22.224   7.064
 5241POPC   C4B66622  21.188  22.211   7.364
 5242POPC   NC366623   5.059  29.126   5.564
 5242POPC   PO466624   5.053  29.128   5.864
 5242POPC   GL166625   5.101  29.120   6.164
 5242POPC   GL266626   4.986  29.059   6.164
 5242POPC   C1A66627   5.108  29.167   6.464
 5242POPC   D2A66628   5.118  29.099   6.764
 5242POPC   C3A66629   5.140  29.187   7.064
 5242POPC   C4A66630   5.063  29.157   7.364
 5242POPC   C1B66631   4.909  29.025   6.464
 5242POPC   C2B66632   4.902  29.017   6.764
 5242POPC   C3B66633   4.848  29.031   7.064
 5242POPC   C4B66634   4.902  28.965   7.364
 5243POPC   NC366635   1.953  30.710   5.564
 5243POPC   PO466636   1.983  30.695   5.864
 5243POPC   GL166637   1.946  30.733   6.164
 5243POPC   GL266638   1.985  30.583   6.164
 5243POPC   C1A66639   1.964  30.720   6.464
 5243POPC   D2A66640   1.986  30.710   6.764
 5243POPC   C3A66641   2.004  30.694   7.064
 5243POPC   C4A66642   1.980  30.667   7.364
 5243POPC   C1B66643   2.034  30.456   6.464
 5243POPC   C2B66644   2.048  30.467   6.764
 5243POPC   C3B66645   2.030  30.477   7.064
 5243POPC   C4B66646   2.077  30.416   7.364
 5244POPC   NC366647  36.135  40.017   5.564
 5244POPC   PO466648  36.097  39.980   5.864
 5244POPC   GL166649  36.153  40.016   6.164
 5244POPC   GL266650  36.174  39.873   6.164
 5244POPC   C1A66651  36.098  39.999   6.464
 5244POPC   D2A66652  36.141  40.052   6.764
 5244POPC   C3A66653  36.108  39.996   7.064
 5244POPC   C4A66654  36.155  39.994   7.364
 5244POPC   C1B66655  36.192  39.745   6.464
 5244POPC   C2B66656  36.153  39.757   6.764
 5244POPC   C3B66657  36.165  39.717   7.064
 5244POPC   C4B66658  36.172  39.727   7.364
 5245POPC   NC366659  24.510  31.451   5.564
 5245POPC   PO466660  24.474  31.521   5.864
 5245POPC   GL166661  24.452  31.432   6.164
 5245POPC   GL266662  24.425  31.349   6.164
 5245POPC   C1A66663  24.450  31.496   6.464
 5245POPC   D2A66664  24.450  31.427   6.764
 5245POPC   C3A66665  24.512  31.428   7.064
 5245POPC   C4A66666  24.516  31.486   7.364
 5245POPC   C1B66667  24.324  31.346   6.464
 5245POPC   C2B66668  24.312  31.273   6.764
 5245POPC   C3B66669  24.302  31.293   7.064
 5245POPC   C4B66670  24.335  31.302   7.364
 5246POPC   NC366671  19.800   8.994   5.564
 5246POPC   PO466672  19.832   8.963   5.864
 5246POPC   GL166673  19.790   8.949   6.164
 5246POPC   GL266674  19.938   9.044   6.164
 5246POPC   C1A66675  19.851   9.018   6.464
 5246POPC   D2A66676  19.859   8.963   6.764
 5246POPC   C3A66677  19.845   8.950   7.064
 5246POPC   C4A66678  19.870   8.969   7.364
 5246POPC   C1B66679  20.006   9.179   6.464
 5246POPC   C2B66680  19.952   9.224   6.764
 5246POPC   C3B66681  19.967   9.162   7.064
 5246POPC   C4B66682  19.991   9.151   7.364
 5247POPC   NC366683  10.487  37.713   5.564
 5247POPC   PO466684  10.557  37.631   5.864
 5247POPC   GL166685  10.561  37.648   6.164
 5247POPC   GL266686  10.596  37.681   6.164
 5247POPC   C1A66687  10.552  37.642   6.464
 5247POPC   D2A66688  10.563  37.688   6.764
 5247POPC   C3A66689  10.532  37.652   7.064
 5247POPC   C4A66690  10.536  37.668   7.364
 5247POPC   C1B66691  10.773  37.586   6.464
 5247POPC   C2B66692  10.780  37.601   6.764
 5247POPC   C3B66693  10.806  37.549   7.064
 5247POPC   C4B66694  10.736  37.562   7.364
 5248POPC   NC366695   8.930  35.387   5.564
 5248POPC   PO466696   9.014  35.308   5.864
 5248POPC   GL166697   8.928  35.356   6.164
 5248POPC   GL266698   8.885  35.315   6.164
 5248POPC   C1A66699   8.960  35.351   6.464
 5248POPC   D2A66700   8.958  35.334   6.764
 5248POPC   C3A66701   8.999  35.388   7.064
 5248POPC   C4A66702   9.015  35.329   7.364
 5248POPC   C1B66703   8.719  35.359   6.464
 5248POPC   C2B66704   8.679  35.362   6.764
 5248POPC   C3B66705   8.761  35.341   7.064
 5248POPC   C4B66706   8.695  35.314   7.364
 5249POPC   NC366707  41.524  40.026   5.564
 5249POPC   PO466708  41.557  40.007   5.864
 5249POPC   GL166709  41.569  40.040   6.164
 5249POPC   GL266710  41.414  40.004   6.164
 5249POPC   C1A66711  41.595  40.010   6.464
 5249POPC   D2A66712  41.572  40.032   6.764
 5249POPC   C3A66713  41.593  39.964   7.064
 5249POPC   C4A66714  41.604  40.021   7.364
 5249POPC   C1B66715  41.319  40.005   6.464
 5249POPC   C2B66716  41.293  40.020   6.764
 5249POPC   C3B66717  41.329  40.024   7.064
 5249POPC   C4B66718  41.296  39.979   7.364
 5250POPC   NC366719   1.244   9.007   5.564
 5250POPC   PO466720   1.203   8.927   5.864
 5250POPC   GL166721   1.200   8.961   6.164
 5250POPC   GL266722   1.291   8.954   6.164
 5250POPC   C1A66723   1.197   8.952   6.464
 5250POPC   D2A66724   1.215   8.949   6.764
 5250POPC   C3A66725   1.184   9.010   7.064
 5250POPC   C4A66726   1.190   8.999   7.364
 5250POPC   C1B66727   1.468   8.869   6.464
 5250POPC   C2B66728   1.467   8.849   6.764
 5250POPC   C3B66729   1.426   8.829   7.064
 5250POPC   C4B66730   1.440   8.818   7.364
 5251POPC   NC366731  39.220  31.521   5.564
 5251POPC   PO466732  39.218  31.509   5.864
 5251POPC   GL166733  39.253  31.522   6.164
 5251POPC   GL266734  39.138  31.418   6.164
 5251POPC   C1A66735  39.201  31.494   6.464
 5251POPC   D2A66736  39.262  31.494   6.764
 5251POPC   C3A66737  39.222  31.423   7.064
 5251POPC   C4A66738  39.240  31.505   7.364
 5251POPC   C1B66739  39.004  31.323   6.464
 5251POPC   C2B66740  38.997  31.415   6.764
 5251POPC   C3B66741  39.022  31.356   7.064
 5251POPC   C4B66742  38.963  31.365   7.364
 5252POPC   NC366743  11.337  29.172   5.564
 5252POPC   PO466744  11.295  29.126   5.864
 5252POPC   GL166745  11.295  29.138   6.164
 5252POPC   GL266746  11.312  29.257   6.164
 5252POPC   C1A66747  11.267  29.110   6.464
 5252POPC   D2A66748  11.293  29.135   6.764
 5252POPC   C3A66749  11.292  29.182   7.064
 5252POPC   C4A66750  11.301  29.175   7.364
 5252POPC   C1B66751  11.285  29.346   6.464
 5252POPC   C2B66752  11.243  29.385   6.764
 5252POPC   C3B66753  11.283  29.408   7.064
 5252POPC   C4B66754  11.248  29.430   7.364
 5253POPC   NC366755  22.123   9.008   5.564
 5253POPC   PO466756  22.202   8.999   5.864
 5253POPC   GL166757  22.131   8.925   6.164
 5253POPC   GL266758  22.037   8.845   6.164
 5253POPC   C1A66759  22.147   9.012   6.464
 5253POPC   D2A66760  22.148   8.941   6.764
 5253POPC   C3A66761  22.187   8.997   7.064
 5253POPC   C4A66762  22.207   8.995   7.364
 5253POPC   C1B66763  22.022   8.752   6.464
 5253POPC   C2B66764  21.953   8.757   6.764
 5253POPC   C3B66765  21.976   8.781   7.064
 5253POPC   C4B66766  21.999   8.776   7.364
 5254POPC   NC366767  31.508  20.618   5.564
 5254POPC   PO466768  31.434  20.657   5.864
 5254POPC   GL166769  31.451  20.606   6.164
 5254POPC   GL266770  31.515  20.693   6.164
 5254POPC   C1A66771  31.472  20.636   6.464
 5254POPC   D2A66772  31.426  20.624   6.764
 5254POPC   C3A66773  31.494  20.602   7.064
 5254POPC   C4A66774  31.445  20.601   7.364
 5254POPC   C1B66775  31.568  20.846   6.464
 5254POPC   C2B66776  31.568  20.801   6.764
 5254POPC   C3B66777  31.582  20.884   7.064
 5254POPC   C4B66778  31.531  20.875   7.364
 5255POPC   NC366779   4.320  36.934   5.564
 5255POPC   PO466780   4.268  36.907   5.864
 5255POPC   GL166781   4.324  36.936   6.164
 5255POPC   GL266782   4.151  36.895   6.164
 5255POPC   C1A66783   4.346  36.863   6.464
 5255POPC   D2A66784   4.341  36.890   6.764
 5255POPC   C3A66785   4.313  36.884   7.064
 5255POPC   C4A66786   4.269  36.868   7.364
 5255POPC   C1B66787   4.096  37.007   6.464
 5255POPC   C2B66788   4.090  36.947   6.764
 5255POPC   C3B66789   4.099  36.941   7.064
 5255POPC   C4B66790   4.045  36.978   7.364
 5256POPC   NC366791  34.565  22.130   5.564
 5256POPC   PO466792  34.624  22.177   5.864
 5256POPC   GL166793  34.602  22.146   6.164
 5256POPC   GL266794  34.581  22.239   6.164
 5256POPC   C1A66795  34.599  22.137   6.464
 5256POPC   D2A66796  34.589  22.119   6.764
 5256POPC   C3A66797  34.596  22.159   7.064
 5256POPC   C4A66798  34.618  22.173   7.364
 5256POPC   C1B66799  34.639  22.427   6.464
 5256POPC   C2B66800  34.584  22.419   6.764
 5256POPC   C3B66801  34.594  22.449   7.064
 5256POPC   C4B66802  34.626  22.376   7.364
 5257POPC   NC366803  19.042  29.966   5.564
 5257POPC   PO466804  19.024  29.920   5.864
 5257POPC   GL166805  19.086  29.894   6.164
 5257POPC   GL266806  19.148  29.805   6.164
 5257POPC   C1A66807  19.052  29.901   6.464
 5257POPC   D2A66808  19.061  29.949   6.764
 5257POPC   C3A66809  19.092  29.893   7.064
 5257POPC   C4A66810  19.034  29.926   7.364
 5257POPC   C1B66811  19.242  29.806   6.464
 5257POPC   C2B66812  19.210  29.810   6.764
 5257POPC   C3B66813  19.282  29.797   7.064
 5257POPC   C4B66814  19.230  29.764   7.364
 5258POPC   NC366815  13.668  32.267   5.564
 5258POPC   PO466816  13.630  32.201   5.864
 5258POPC   GL166817  13.611  32.211   6.164
 5258POPC   GL266818  13.587  32.332   6.164
 5258POPC   C1A66819  13.596  32.260   6.464
 5258POPC   D2A66820  13.582  32.281   6.764
 5258POPC   C3A66821  13.639  32.238   7.064
 5258POPC   C4A66822  13.585  32.253   7.364
 5258POPC   C1B66823  13.452  32.456   6.464
 5258POPC   C2B66824  13.487  32.446   6.764
 5258POPC   C3B66825  13.512  32.427   7.064
 5258POPC   C4B66826  13.501  32.499   7.364
 5259POPC   NC366827  23.755  32.999   5.564
 5259POPC   PO466828  23.700  32.990   5.864
 5259POPC   GL166829  23.675  33.051   6.164
 5259POPC   GL266830  23.605  33.026   6.164
 5259POPC   C1A66831  23.738  33.002   6.464
 5259POPC   D2A66832  23.727  33.073   6.764
 5259POPC   C3A66833  23.707  33.030   7.064
 5259POPC   C4A66834  23.742  32.974   7.364
 5259POPC   C1B66835  23.451  32.910   6.464
 5259POPC   C2B66836  23.448  32.937   6.764
 5259POPC   C3B66837  23.473  32.908   7.064
 5259POPC   C4B66838  23.487  32.975   7.364
 5260POPC   NC366839  27.558  23.681   5.564
 5260POPC   PO466840  27.589  23.678   5.864
 5260POPC   GL166841  27.608  23.685   6.164
 5260POPC   GL266842  27.507  23.763   6.164
 5260POPC   C1A66843  27.553  23.763   6.464
 5260POPC   D2A66844  27.596  23.668   6.764
 5260POPC   C3A66845  27.562  23.720   7.064
 5260POPC   C4A66846  27.585  23.764   7.364
 5260POPC   C1B66847  27.371  23.825   6.464
 5260POPC   C2B66848  27.374  23.904   6.764
 5260POPC   C3B66849  27.387  23.907   7.064
 5260POPC   C4B66850  27.403  23.847   7.364
 5261POPC   NC366851  25.291  11.298   5.564
 5261POPC   PO466852  25.240  11.310   5.864
 5261POPC   GL166853  25.260  11.286   6.164
 5261POPC   GL266854  25.358  11.199   6.164
 5261POPC   C1A66855  25.247  11.263   6.464
 5261POPC   D2A66856  25.218  11.346   6.764
 5261POPC   C3A66857  25.237  11.294   7.064
 5261POPC   C4A66858  25.222  11.317   7.364
 5261POPC   C1B66859  25.448  11.114   6.464
 5261POPC   C2B66860  25.504  11.208   6.764
 5261POPC   C3B66861  25.441  11.174   7.064
 5261POPC   C4B66862  25.521  11.138   7.364
 5262POPC   NC366863  43.134  43.149   5.564
 5262POPC   PO466864  43.077  43.070   5.864
 5262POPC   GL166865  43.089  43.110   6.164
 5262POPC   GL266866  43.064  43.205   6.164
 5262POPC   C1A66867  43.089  43.103   6.464
 5262POPC   D2A66868  43.123  43.115   6.764
 5262POPC   C3A66869  43.126  43.102   7.064
 5262POPC   C4A66870  43.081  43.109   7.364
 5262POPC   C1B66871  43.082  43.375   6.464
 5262POPC   C2B66872  43.118  43.343   6.764
 5262POPC   C3B66873  43.117  43.312   7.064
 5262POPC   C4B66874  43.071  43.320   7.364
 5263POPC   NC366875  34.537  29.162   5.564
 5263POPC   PO466876  34.558  29.167   5.864
 5263POPC   GL166877  34.592  29.175   6.164
 5263POPC   GL266878  34.592  29.224   6.164
 5263POPC   C1A66879  34.545  29.167   6.464
 5263POPC   D2A66880  34.623  29.122   6.764
 5263POPC   C3A66881  34.542  29.165   7.064
 5263POPC   C4A66882  34.614  29.186   7.364
 5263POPC   C1B66883  34.738  29.409   6.464
 5263POPC   C2B66884  34.697  29.384   6.764
 5263POPC   C3B66885  34.677  29.407   7.064
 5263POPC   C4B66886  34.691  29.343   7.364
 5264POPC   NC366887  12.899   6.672   5.564
 5264POPC   PO466888  12.820   6.681   5.864
 5264POPC   GL166889  12.850   6.639   6.164
 5264POPC   GL266890  12.778   6.576   6.164
 5264POPC   C1A66891  12.855   6.688   6.464
 5264POPC   D2A66892  12.840   6.672   6.764
 5264POPC   C3A66893  12.853   6.647   7.064
 5264POPC   C4A66894  12.836   6.615   7.364
 5264POPC   C1B66895  12.606   6.504   6.464
 5264POPC   C2B66896  12.642   6.502   6.764
 5264POPC   C3B66897  12.652   6.502   7.064
 5264POPC   C4B66898  12.647   6.522   7.364
 5265POPC   NC366899  43.138  35.342   5.564
 5265POPC   PO466900  43.149  35.321   5.864
 5265POPC   GL166901  43.098  35.351   6.164
 5265POPC   GL266902  43.262  35.382   6.164
 5265POPC   C1A66903  43.088  35.391   6.464
 5265POPC   D2A66904  43.098  35.368   6.764
 5265POPC   C3A66905  43.095  35.306   7.064
 5265POPC   C4A66906  43.128  35.339   7.364
 5265POPC   C1B66907  43.310  35.530   6.464
 5265POPC   C2B66908  43.372  35.502   6.764
 5265POPC   C3B66909  43.311  35.467   7.064
 5265POPC   C4B66910  43.301  35.508   7.364
 5266POPC   NC366911   3.499  36.886   5.564
 5266POPC   PO466912   3.583  36.868   5.864
 5266POPC   GL166913   3.520  36.951   6.164
 5266POPC   GL266914   3.573  36.989   6.164
 5266POPC   C1A66915   3.557  36.938   6.464
 5266POPC   D2A66916   3.499  36.905   6.764
 5266POPC   C3A66917   3.508  36.943   7.064
 5266POPC   C4A66918   3.581  36.928   7.364
 5266POPC   C1B66919   3.587  37.147   6.464
 5266POPC   C2B66920   3.538  37.185   6.764
 5266POPC   C3B66921   3.522  37.183   7.064
 5266POPC   C4B66922   3.541  37.152   7.364
 5267POPC   NC366923  33.031  12.097   5.564
 5267POPC   PO466924  33.034  12.061   5.864
 5267POPC   GL166925  33.045  12.028   6.164
 5267POPC   GL266926  32.994  11.949   6.164
 5267POPC   C1A66927  33.054  12.028   6.464
 5267POPC   D2A66928  33.052  12.076   6.764
 5267POPC   C3A66929  32.983  12.118   7.064
 5267POPC   C4A66930  33.022  12.099   7.364
 5267POPC   C1B66931  32.965  11.864   6.464
 5267POPC   C2B66932  32.945  11.819   6.764
 5267POPC   C3B66933  33.004  11.825   7.064
 5267POPC   C4B66934  32.969  11.875   7.364
 5268POPC   NC366935  25.272   7.405   5.564
 5268POPC   PO466936  25.291   7.377   5.864
 5268POPC   GL166937  25.298   7.418   6.164
 5268POPC   GL266938  25.140   7.338   6.164
 5268POPC   C1A66939  25.289   7.380   6.464
 5268POPC   D2A66940  25.231   7.448   6.764
 5268POPC   C3A66941  25.304   7.424   7.064
 5268POPC   C4A66942  25.231   7.394   7.364
 5268POPC   C1B66943  25.072   7.223   6.464
 5268POPC   C2B66944  25.071   7.287   6.764
 5268POPC   C3B66945  25.031   7.287   7.064
 5268POPC   C4B66946  25.046   7.296   7.364
 5269POPC   NC366947  11.273   1.954   5.564
 5269POPC   PO466948  11.335   1.940   5.864
 5269POPC   GL166949  11.309   2.012   6.164
 5269POPC   GL266950  11.198   1.866   6.164
 5269POPC   C1A66951  11.348   1.969   6.464
 5269POPC   D2A66952  11.265   2.037   6.764
 5269POPC   C3A66953  11.289   1.985   7.064
 5269POPC   C4A66954  11.308   1.958   7.364
 5269POPC   C1B66955  11.169   1.825   6.464
 5269POPC   C2B66956  11.143   1.755   6.764
 5269POPC   C3B66957  11.142   1.752   7.064
 5269POPC   C4B66958  11.165   1.784   7.364
 5270POPC   NC366959  20.647   2.807   5.564
 5270POPC   PO466960  20.605   2.725   5.864
 5270POPC   GL166961  20.574   2.780   6.164
 5270POPC   GL266962  20.661   2.888   6.164
 5270POPC   C1A66963  20.613   2.765   6.464
 5270POPC   D2A66964  20.590   2.764   6.764
 5270POPC   C3A66965  20.634   2.727   7.064
 5270POPC   C4A66966  20.600   2.760   7.364
 5270POPC   C1B66967  20.679   2.997   6.464
 5270POPC   C2B66968  20.656   3.033   6.764
 5270POPC   C3B66969  20.658   3.030   7.064
 5270POPC   C4B66970  20.676   3.031   7.364
 5271POPC   NC366971   9.021   5.873   5.564
 5271POPC   PO466972   8.931   5.913   5.864
 5271POPC   GL166973   8.966   5.840   6.164
 5271POPC   GL266974   8.983   5.743   6.164
 5271POPC   C1A66975   8.998   5.895   6.464
 5271POPC   D2A66976   9.011   5.827   6.764
 5271POPC   C3A66977   8.985   5.862   7.064
 5271POPC   C4A66978   8.981   5.851   7.364
 5271POPC   C1B66979   8.916   5.630   6.464
 5271POPC   C2B66980   8.854   5.653   6.764
 5271POPC   C3B66981   8.880   5.598   7.064
 5271POPC   C4B66982   8.891   5.609   7.364
 5272POPC   NC366983  24.495  42.333   5.564
 5272POPC   PO466984  24.443  42.311   5.864
 5272POPC   GL166985  24.482  42.344   6.164
 5272POPC   GL266986  24.556  42.220   6.164
 5272POPC   C1A66987  24.478  42.300   6.464
 5272POPC   D2A66988  24.531  42.328   6.764
 5272POPC   C3A66989  24.460  42.323   7.064
 5272POPC   C4A66990  24.515  42.372   7.364
 5272POPC   C1B66991  24.623  42.171   6.464
 5272POPC   C2B66992  24.701  42.115   6.764
 5272POPC   C3B66993  24.627  42.168   7.064
 5272POPC   C4B66994  24.641  42.121   7.364
 5273POPC   NC366995  35.401  16.751   5.564
 5273POPC   PO466996  35.351  16.766   5.864
 5273POPC   GL166997  35.360  16.765   6.164
 5273POPC   GL266998  35.476  16.716   6.164
 5273POPC   C1A66999  35.324  16.745   6.464
 5273POPC   D2A67000  35.365  16.743   6.764
 5273POPC   C3A67001  35.394  16.713   7.064
 5273POPC   C4A67002  35.366  16.773   7.364
 5273POPC   C1B67003  35.559  16.712   6.464
 5273POPC   C2B67004  35.634  16.742   6.764
 5273POPC   C3B67005  35.606  16.735   7.064
 5273POPC   C4B67006  35.556  16.689   7.364
 5274POPC   NC367007  11.303   7.383   5.564
 5274POPC   PO467008  11.317   7.428   5.864
 5274POPC   GL167009  11.284   7.388   6.164
 5274POPC   GL267010  11.384   7.280   6.164
 5274POPC   C1A67011  11.335   7.385   6.464
 5274POPC   D2A67012  11.306   7.389   6.764
 5274POPC   C3A67013  11.264   7.469   7.064
 5274POPC   C4A67014  11.262   7.424   7.364
 5274POPC   C1B67015  11.417   7.167   6.464
 5274POPC   C2B67016  11.396   7.170   6.764
 5274POPC   C3B67017  11.361   7.179   7.064
 5274POPC   C4B67018  11.406   7.198   7.364
 5275POPC   NC367019  11.297  42.301   5.564
 5275POPC   PO467020  11.287  42.286   5.864
 5275POPC   GL167021  11.258  42.332   6.164
 5275POPC   GL267022  11.343  42.479   6.164
 5275POPC   C1A67023  11.269  42.299   6.464
 5275POPC   D2A67024  11.311  42.310   6.764
 5275POPC   C3A67025  11.292  42.315   7.064
 5275POPC   C4A67026  11.254  42.343   7.364
 5275POPC   C1B67027  11.332  42.626   6.464
 5275POPC   C2B67028  11.367  42.547   6.764
 5275POPC   C3B67029  11.378  42.557   7.064
 5275POPC   C4B67030  11.309  42.570   7.364
 5276POPC   NC367031  26.014   7.409   5.564
 5276POPC   PO467032  25.994   7.447   5.864
 5276POPC   GL167033  25.997   7.432   6.164
 5276POPC   GL267034  26.035   7.303   6.164
 5276POPC   C1A67035  26.045   7.467   6.464
 5276POPC   D2A67036  26.002   7.376   6.764
 5276POPC   C3A67037  26.058   7.432   7.064
 5276POPC   C4A67038  26.083   7.451   7.364
 5276POPC   C1B67039  25.951   7.128   6.464
 5276POPC   C2B67040  26.044   7.199   6.764
 5276POPC   C3B67041  25.978   7.171   7.064
 5276POPC   C4B67042  26.027   7.170   7.364
 5277POPC   NC367043  33.823  19.098   5.564
 5277POPC   PO467044  33.818  19.030   5.864
 5277POPC   GL167045  33.796  19.050   6.164
 5277POPC   GL267046  33.907  19.033   6.164
 5277POPC   C1A67047  33.835  19.032   6.464
 5277POPC   D2A67048  33.771  19.103   6.764
 5277POPC   C3A67049  33.839  19.027   7.064
 5277POPC   C4A67050  33.782  19.045   7.364
 5277POPC   C1B67051  33.981  18.939   6.464
 5277POPC   C2B67052  34.041  18.877   6.764
 5277POPC   C3B67053  33.985  18.884   7.064
 5277POPC   C4B67054  33.985  18.866   7.364
 5278POPC   NC367055  26.854  40.743   5.564
 5278POPC   PO467056  26.768  40.796   5.864
 5278POPC   GL167057  26.842  40.746   6.164
 5278POPC   GL267058  26.736  40.825   6.164
 5278POPC   C1A67059  26.841  40.777   6.464
 5278POPC   D2A67060  26.801  40.784   6.764
 5278POPC   C3A67061  26.865  40.758   7.064
 5278POPC   C4A67062  26.862  40.754   7.364
 5278POPC   C1B67063  26.623  40.835   6.464
 5278POPC   C2B67064  26.615  40.879   6.764
 5278POPC   C3B67065  26.611  40.888   7.064
 5278POPC   C4B67066  26.621  40.824   7.364
 5279POPC   NC367067  24.458   6.643   5.564
 5279POPC   PO467068  24.468   6.659   5.864
 5279POPC   GL167069  24.493   6.619   6.164
 5279POPC   GL267070  24.385   6.646   6.164
 5279POPC   C1A67071  24.516   6.639   6.464
 5279POPC   D2A67072  24.482   6.688   6.764
 5279POPC   C3A67073  24.487   6.607   7.064
 5279POPC   C4A67074  24.482   6.675   7.364
 5279POPC   C1B67075  24.268   6.572   6.464
 5279POPC   C2B67076  24.293   6.567   6.764
 5279POPC   C3B67077  24.284   6.587   7.064
 5279POPC   C4B67078  24.209   6.573   7.364
 5280POPC   NC367079  11.250  43.159   5.564
 5280POPC   PO467080  11.323  43.138   5.864
 5280POPC   GL167081  11.290  43.094   6.164
 5280POPC   GL267082  11.134  43.129   6.164
 5280POPC   C1A67083  11.279  43.104   6.464
 5280POPC   D2A67084  11.270  43.127   6.764
 5280POPC   C3A67085  11.338  43.150   7.064
 5280POPC   C4A67086  11.262  43.133   7.364
 5280POPC   C1B67087  11.082  43.120   6.464
 5280POPC   C2B67088  11.074  43.092   6.764
 5280POPC   C3B67089  11.014  43.137   7.064
 5280POPC   C4B67090  11.080  43.147   7.364
 5281POPC   NC367091   8.985   4.282   5.564
 5281POPC   PO467092   8.981   4.367   5.864
 5281POPC   GL167093   8.939   4.339   6.164
 5281POPC   GL267094   9.052   4.212   6.164
 5281POPC   C1A67095   8.961   4.308   6.464
 5281POPC   D2A67096   9.004   4.275   6.764
 5281POPC   C3A67097   8.933   4.346   7.064
 5281POPC   C4A67098   8.923   4.289   7.364
 5281POPC   C1B67099   9.169   4.116   6.464
 5281POPC   C2B67100   9.137   4.136   6.764
 5281POPC   C3B67101   9.128   4.101   7.064
 5281POPC   C4B67102   9.137   4.170   7.364
 5282POPC   NC367103  25.220  38.441   5.564
 5282POPC   PO467104  25.283  38.436   5.864
 5282POPC   GL167105  25.309  38.478   6.164
 5282POPC   GL267106  25.163  38.487   6.164
 5282POPC   C1A67107  25.238  38.416   6.464
 5282POPC   D2A67108  25.310  38.505   6.764
 5282POPC   C3A67109  25.276  38.459   7.064
 5282POPC   C4A67110  25.277  38.426   7.364
 5282POPC   C1B67111  25.044  38.442   6.464
 5282POPC   C2B67112  25.067  38.450   6.764
 5282POPC   C3B67113  25.000  38.483   7.064
 5282POPC   C4B67114  24.991  38.440   7.364
 5283POPC   NC367115  10.552  38.409   5.564
 5283POPC   PO467116  10.559  38.419   5.864
 5283POPC   GL167117  10.563  38.470   6.164
 5283POPC   GL267118  10.428  38.507   6.164
 5283POPC   C1A67119  10.517  38.431   6.464
 5283POPC   D2A67120  10.508  38.429   6.764
 5283POPC   C3A67121  10.550  38.424   7.064
 5283POPC   C4A67122  10.492  38.493   7.364
 5283POPC   C1B67123  10.337  38.502   6.464
 5283POPC   C2B67124  10.280  38.577   6.764
 5283POPC   C3B67125  10.298  38.554   7.064
 5283POPC   C4B67126  10.256  38.532   7.364
 5284POPC   NC367127  32.291  12.033   5.564
 5284POPC   PO467128  32.243  12.085   5.864
 5284POPC   GL167129  32.276  12.042   6.164
 5284POPC   GL267130  32.405  11.995   6.164
 5284POPC   C1A67131  32.221  12.050   6.464
 5284POPC   D2A67132  32.203  12.097   6.764
 5284POPC   C3A67133  32.217  12.086   7.064
 5284POPC   C4A67134  32.231  12.091   7.364
 5284POPC   C1B67135  32.505  11.951   6.464
 5284POPC   C2B67136  32.520  11.972   6.764
 5284POPC   C3B67137  32.468  12.010   7.064
 5284POPC   C4B67138  32.423  11.950   7.364
 5285POPC   NC367139  34.596  39.969   5.564
 5285POPC   PO467140  34.615  39.975   5.864
 5285POPC   GL167141  34.585  40.008   6.164
 5285POPC   GL267142  34.608  39.925   6.164
 5285POPC   C1A67143  34.607  39.966   6.464
 5285POPC   D2A67144  34.558  39.990   6.764
 5285POPC   C3A67145  34.559  39.969   7.064
 5285POPC   C4A67146  34.536  40.000   7.364
 5285POPC   C1B67147  34.618  39.758   6.464
 5285POPC   C2B67148  34.602  39.745   6.764
 5285POPC   C3B67149  34.535  39.777   7.064
 5285POPC   C4B67150  34.600  39.758   7.364
 5286POPC   NC367151  27.601  31.458   5.564
 5286POPC   PO467152  27.605  31.450   5.864
 5286POPC   GL167153  27.634  31.453   6.164
 5286POPC   GL267154  27.537  31.357   6.164
 5286POPC   C1A67155  27.551  31.472   6.464
 5286POPC   D2A67156  27.556  31.520   6.764
 5286POPC   C3A67157  27.561  31.444   7.064
 5286POPC   C4A67158  27.601  31.427   7.364
 5286POPC   C1B67159  27.414  31.267   6.464
 5286POPC   C2B67160  27.391  31.276   6.764
 5286POPC   C3B67161  27.481  31.272   7.064
 5286POPC   C4B67162  27.422  31.257   7.364
 5287POPC   NC367163  35.302  41.595   5.564
 5287POPC   PO467164  35.327  41.563   5.864
 5287POPC   GL167165  35.326  41.582   6.164
 5287POPC   GL267166  35.430  41.649   6.164
 5287POPC   C1A67167  35.320  41.605   6.464
 5287POPC   D2A67168  35.384  41.597   6.764
 5287POPC   C3A67169  35.333  41.556   7.064
 5287POPC   C4A67170  35.313  41.547   7.364
 5287POPC   C1B67171  35.508  41.740   6.464
 5287POPC   C2B67172  35.560  41.721   6.764
 5287POPC   C3B67173  35.537  41.712   7.064
 5287POPC   C4B67174  35.518  41.673   7.364
 5288POPC   NC367175  26.039  12.825   5.564
 5288POPC   PO467176  26.040  12.842   5.864
 5288POPC   GL167177  26.029  12.831   6.164
 5288POPC   GL267178  26.195  12.892   6.164
 5288POPC   C1A67179  26.004  12.872   6.464
 5288POPC   D2A67180  26.033  12.832   6.764
 5288POPC   C3A67181  26.074  12.803   7.064
 5288POPC   C4A67182  26.091  12.810   7.364
 5288POPC   C1B67183  26.265  12.907   6.464
 5288POPC   C2B67184  26.239  12.841   6.764
 5288POPC   C3B67185  26.318  12.936   7.064
 5288POPC   C4B67186  26.309  12.839   7.364
 5289POPC   NC367187  26.019  22.913   5.564
 5289POPC   PO467188  26.033  22.932   5.864
 5289POPC   GL167189  26.086  22.911   6.164
 5289POPC   GL267190  25.903  22.970   6.164
 5289POPC   C1A67191  26.062  22.912   6.464
 5289POPC   D2A67192  26.033  22.978   6.764
 5289POPC   C3A67193  25.998  22.933   7.064
 5289POPC   C4A67194  26.038  22.923   7.364
 5289POPC   C1B67195  25.812  23.093   6.464
 5289POPC   C2B67196  25.846  23.104   6.764
 5289POPC   C3B67197  25.783  23.045   7.064
 5289POPC   C4B67198  25.834  23.037   7.364
 5290POPC   NC367199  17.481  30.729   5.564
 5290POPC   PO467200  17.510  30.722   5.864
 5290POPC   GL167201  17.538  30.715   6.164
 5290POPC   GL267202  17.373  30.638   6.164
 5290POPC   C1A67203  17.507  30.732   6.464
 5290POPC   D2A67204  17.544  30.652   6.764
 5290POPC   C3A67205  17.473  30.669   7.064
 5290POPC   C4A67206  17.552  30.709   7.364
 5290POPC   C1B67207  17.293  30.627   6.464
 5290POPC   C2B67208  17.302  30.630   6.764
 5290POPC   C3B67209  17.232  30.655   7.064
 5290POPC   C4B67210  17.242  30.632   7.364
 5291POPC   NC367211   5.893  11.325   5.564
 5291POPC   PO467212   5.862  11.301   5.864
 5291POPC   GL167213   5.892  11.323   6.164
 5291POPC   GL267214   5.888  11.446   6.164
 5291POPC   C1A67215   5.916  11.258   6.464
 5291POPC   D2A67216   5.903  11.273   6.764
 5291POPC   C3A67217   5.916  11.274   7.064
 5291POPC   C4A67218   5.870  11.296   7.364
 5291POPC   C1B67219   5.864  11.591   6.464
 5291POPC   C2B67220   5.892  11.565   6.764
 5291POPC   C3B67221   5.889  11.592   7.064
 5291POPC   C4B67222   5.853  11.577   7.364
 5292POPC   NC367223  40.056  36.940   5.564
 5292POPC   PO467224  40.000  36.934   5.864
 5292POPC   GL167225  40.051  36.927   6.164
 5292POPC   GL267226  39.933  36.837   6.164
 5292POPC   C1A67227  40.027  36.920   6.464
 5292POPC   D2A67228  40.052  36.874   6.764
 5292POPC   C3A67229  40.027  36.897   7.064
 5292POPC   C4A67230  39.994  36.950   7.364
 5292POPC   C1B67231  39.886  36.656   6.464
 5292POPC   C2B67232  39.897  36.648   6.764
 5292POPC   C3B67233  39.899  36.684   7.064
 5292POPC   C4B67234  39.875  36.661   7.364
 5293POPC   NC367235  19.071   4.273   5.564
 5293POPC   PO467236  19.013   4.304   5.864
 5293POPC   GL167237  19.093   4.340   6.164
 5293POPC   GL267238  18.928   4.365   6.164
 5293POPC   C1A67239  19.026   4.292   6.464
 5293POPC   D2A67240  19.023   4.296   6.764
 5293POPC   C3A67241  19.087   4.274   7.064
 5293POPC   C4A67242  19.099   4.345   7.364
 5293POPC   C1B67243  18.839   4.355   6.464
 5293POPC   C2B67244  18.814   4.362   6.764
 5293POPC   C3B67245  18.834   4.384   7.064
 5293POPC   C4B67246  18.774   4.372   7.364
 5294POPC   NC367247  43.068  30.668   5.564
 5294POPC   PO467248  43.154  30.722   5.864
 5294POPC   GL167249  43.137  30.704   6.164
 5294POPC   GL267250  43.033  30.595   6.164
 5294POPC   C1A67251  43.101  30.657   6.464
 5294POPC   D2A67252  43.129  30.711   6.764
 5294POPC   C3A67253  43.099  30.670   7.064
 5294POPC   C4A67254  43.140  30.670   7.364
 5294POPC   C1B67255  42.965  30.438   6.464
 5294POPC   C2B67256  43.020  30.471   6.764
 5294POPC   C3B67257  42.998  30.501   7.064
 5294POPC   C4B67258  42.986  30.444   7.364
 5295POPC   NC367259   1.171   0.411   5.564
 5295POPC   PO467260   1.169   0.433   5.864
 5295POPC   GL167261   1.206   0.430   6.164
 5295POPC   GL267262   1.342   0.439   6.164
 5295POPC   C1A67263   1.192   0.398   6.464
 5295POPC   D2A67264   1.223   0.479   6.764
 5295POPC   C3A67265   1.165   0.446   7.064
 5295POPC   C4A67266   1.243   0.407   7.364
 5295POPC   C1B67267   1.449   0.382   6.464
 5295POPC   C2B67268   1.501   0.344   6.764
 5295POPC   C3B67269   1.479   0.322   7.064
 5295POPC   C4B67270   1.406   0.374   7.364
 5296POPC   NC367271  33.065  29.901   5.564
 5296POPC   PO467272  32.980  29.916   5.864
 5296POPC   GL167273  32.994  29.884   6.164
 5296POPC   GL267274  33.137  29.846   6.164
 5296POPC   C1A67275  33.038  29.948   6.464
 5296POPC   D2A67276  33.063  29.942   6.764
 5296POPC   C3A67277  32.979  29.910   7.064
 5296POPC   C4A67278  32.988  29.890   7.364
 5296POPC   C1B67279  33.176  29.727   6.464
 5296POPC   C2B67280  33.237  29.686   6.764
 5296POPC   C3B67281  33.152  29.722   7.064
 5296POPC   C4B67282  33.174  29.707   7.364
 5297POPC   NC367283  33.039  24.504   5.564
 5297POPC   PO467284  33.058  24.501   5.864
 5297POPC   GL167285  32.976  24.480   6.164
 5297POPC   GL267286  32.934  24.482   6.164
 5297POPC   C1A67287  33.053  24.492   6.464
 5297POPC   D2A67288  33.004  24.540   6.764
 5297POPC   C3A67289  33.059  24.519   7.064
 5297POPC   C4A67290  32.997  24.465   7.364
 5297POPC   C1B67291  32.800  24.443   6.464
 5297POPC   C2B67292  32.752  24.471   6.764
 5297POPC   C3B67293  32.798  24.418   7.064
 5297POPC   C4B67294  32.806  24.434   7.364
 5298POPC   NC367295  39.978  24.515   5.564
 5298POPC   PO467296  40.016  24.506   5.864
 5298POPC   GL167297  40.004  24.444   6.164
 5298POPC   GL267298  40.094  24.417   6.164
 5298POPC   C1A67299  40.043  24.470   6.464
 5298POPC   D2A67300  39.978  24.448   6.764
 5298POPC   C3A67301  40.055  24.536   7.064
 5298POPC   C4A67302  40.039  24.505   7.364
 5298POPC   C1B67303  40.201  24.303   6.464
 5298POPC   C2B67304  40.204  24.337   6.764
 5298POPC   C3B67305  40.240  24.311   7.064
 5298POPC   C4B67306  40.188  24.315   7.364
 5299POPC   NC367307  11.275  22.888   5.564
 5299POPC   PO467308  11.317  22.918   5.864
 5299POPC   GL167309  11.333  22.964   6.164
 5299POPC   GL267310  11.197  22.887   6.164
 5299POPC   C1A67311  11.252  22.920   6.464
 5299POPC   D2A67312  11.310  22.934   6.764
 5299POPC   C3A67313  11.262  22.901   7.064
 5299POPC   C4A67314  11.300  22.984   7.364
 5299POPC   C1B67315  11.153  22.795   6.464
 5299POPC   C2B67316  11.093  22.735   6.764
 5299POPC   C3B67317  11.106  22.714   7.064
 5299POPC   C4B67318  11.170  22.719   7.364
 5300POPC   NC367319  36.139  29.193   5.564
 5300POPC   PO467320  36.152  29.168   5.864
 5300POPC   GL167321  36.106  29.108   6.164
 5300POPC   GL267322  36.086  29.035   6.164
 5300POPC   C1A67323  36.169  29.137   6.464
 5300POPC   D2A67324  36.146  29.141   6.764
 5300POPC   C3A67325  36.082  29.176   7.064
 5300POPC   C4A67326  36.125  29.146   7.364
 5300POPC   C1B67327  35.985  28.973   6.464
 5300POPC   C2B67328  35.939  28.931   6.764
 5300POPC   C3B67329  35.982  28.926   7.064
 5300POPC   C4B67330  35.970  28.959   7.364
 5301POPC   NC367331  28.349  30.683   5.564
 5301POPC   PO467332  28.327  30.745   5.864
 5301POPC   GL167333  28.326  30.731   6.164
 5301POPC   GL267334  28.483  30.820   6.164
 5301POPC   C1A67335  28.372  30.714   6.464
 5301POPC   D2A67336  28.386  30.735   6.764
 5301POPC   C3A67337  28.346  30.729   7.064
 5301POPC   C4A67338  28.342  30.704   7.364
 5301POPC   C1B67339  28.574  30.915   6.464
 5301POPC   C2B67340  28.566  30.937   6.764
 5301POPC   C3B67341  28.535  30.911   7.064
 5301POPC   C4B67342  28.569  30.928   7.364
 5302POPC   NC367343  36.888   1.947   5.564
 5302POPC   PO467344  36.882   1.954   5.864
 5302POPC   GL167345  36.900   1.953   6.164
 5302POPC   GL267346  36.764   2.031   6.164
 5302POPC   C1A67347  36.947   1.974   6.464
 5302POPC   D2A67348  36.873   2.028   6.764
 5302POPC   C3A67349  36.881   1.983   7.064
 5302POPC   C4A67350  36.860   2.011   7.364
 5302POPC   C1B67351  36.624   2.023   6.464
 5302POPC   C2B67352  36.653   2.013   6.764
 5302POPC   C3B67353  36.630   2.072   7.064
 5302POPC   C4B67354  36.635   2.013   7.364
 5303POPC   NC367355  17.466   8.187   5.564
 5303POPC   PO467356  17.490   8.174   5.864
 5303POPC   GL167357  17.511   8.223   6.164
 5303POPC   GL267358  17.430   8.170   6.164
 5303POPC   C1A67359  17.468   8.194   6.464
 5303POPC   D2A67360  17.499   8.171   6.764
 5303POPC   C3A67361  17.524   8.196   7.064
 5303POPC   C4A67362  17.472   8.235   7.364
 5303POPC   C1B67363  17.248   8.195   6.464
 5303POPC   C2B67364  17.228   8.223   6.764
 5303POPC   C3B67365  17.234   8.208   7.064
 5303POPC   C4B67366  17.248   8.247   7.364
 5304POPC   NC367367  40.758  26.077   5.564
 5304POPC   PO467368  40.822  26.071   5.864
 5304POPC   GL167369  40.774  26.085   6.164
 5304POPC   GL267370  40.664  25.999   6.164
 5304POPC   C1A67371  40.801  26.085   6.464
 5304POPC   D2A67372  40.757  26.076   6.764
 5304POPC   C3A67373  40.734  26.030   7.064
 5304POPC   C4A67374  40.773  26.034   7.364
 5304POPC   C1B67375  40.511  25.968   6.464
 5304POPC   C2B67376  40.536  25.983   6.764
 5304POPC   C3B67377  40.575  25.960   7.064
 5304POPC   C4B67378  40.522  25.928   7.364
 5305POPC   NC367379  29.173   1.210   5.564
 5305POPC   PO467380  29.139   1.243   5.864
 5305POPC   GL167381  29.185   1.184   6.164
 5305POPC   GL267382  29.133   1.107   6.164
 5305POPC   C1A67383  29.142   1.206   6.464
 5305POPC   D2A67384  29.100   1.233   6.764
 5305POPC   C3A67385  29.170   1.254   7.064
 5305POPC   C4A67386  29.190   1.257   7.364
 5305POPC   C1B67387  29.066   0.938   6.464
 5305POPC   C2B67388  29.060   1.016   6.764
 5305POPC   C3B67389  29.080   0.959   7.064
 5305POPC   C4B67390  29.139   0.950   7.364
 5306POPC   NC367391  15.147  26.057   5.564
 5306POPC   PO467392  15.157  26.076   5.864
 5306POPC   GL167393  15.205  26.032   6.164
 5306POPC   GL267394  15.162  25.926   6.164
 5306POPC   C1A67395  15.149  26.056   6.464
 5306POPC   D2A67396  15.204  26.043   6.764
 5306POPC   C3A67397  15.134  26.029   7.064
 5306POPC   C4A67398  15.224  26.033   7.364
 5306POPC   C1B67399  15.194  25.823   6.464
 5306POPC   C2B67400  15.200  25.791   6.764
 5306POPC   C3B67401  15.243  25.765   7.064
 5306POPC   C4B67402  15.194  25.819   7.364
 5307POPC   NC367403  19.786  18.257   5.564
 5307POPC   PO467404  19.814  18.279   5.864
 5307POPC   GL167405  19.842  18.258   6.164
 5307POPC   GL267406  19.713  18.292   6.164
 5307POPC   C1A67407  19.873  18.306   6.464
 5307POPC   D2A67408  19.821  18.319   6.764
 5307POPC   C3A67409  19.837  18.278   7.064
 5307POPC   C4A67410  19.791  18.331   7.364
 5307POPC   C1B67411  19.654  18.386   6.464
 5307POPC   C2B67412  19.626  18.350   6.764
 5307POPC   C3B67413  19.593  18.351   7.064
 5307POPC   C4B67414  19.604  18.413   7.364
 5308POPC   NC367415   3.590   1.215   5.564
 5308POPC   PO467416   3.558   1.166   5.864
 5308POPC   GL167417   3.566   1.193   6.164
 5308POPC   GL267418   3.667   1.195   6.164
 5308POPC   C1A67419   3.518   1.215   6.464
 5308POPC   D2A67420   3.552   1.240   6.764
 5308POPC   C3A67421   3.547   1.260   7.064
 5308POPC   C4A67422   3.589   1.167   7.364
 5308POPC   C1B67423   3.795   1.091   6.464
 5308POPC   C2B67424   3.734   1.106   6.764
 5308POPC   C3B67425   3.804   1.154   7.064
 5308POPC   C4B67426   3.805   1.119   7.364
 5309POPC   NC367427   1.208  31.488   5.564
 5309POPC   PO467428   1.167  31.500   5.864
 5309POPC   GL167429   1.201  31.478   6.164
 5309POPC   GL267430   1.334  31.550   6.164
 5309POPC   C1A67431   1.166  31.468   6.464
 5309POPC   D2A67432   1.211  31.477   6.764
 5309POPC   C3A67433   1.197  31.494   7.064
 5309POPC   C4A67434   1.230  31.433   7.364
 5309POPC   C1B67435   1.401  31.700   6.464
 5309POPC   C2B67436   1.368  31.710   6.764
 5309POPC   C3B67437   1.413  31.639   7.064
 5309POPC   C4B67438   1.349  31.654   7.364
 5310POPC   NC367439  41.557  18.253   5.564
 5310POPC   PO467440  41.553  18.312   5.864
 5310POPC   GL167441  41.525  18.298   6.164
 5310POPC   GL267442  41.671  18.229   6.164
 5310POPC   C1A67443  41.596  18.273   6.464
 5310POPC   D2A67444  41.526  18.250   6.764
 5310POPC   C3A67445  41.581  18.293   7.064
 5310POPC   C4A67446  41.608  18.290   7.364
 5310POPC   C1B67447  41.732  18.082   6.464
 5310POPC   C2B67448  41.745  18.076   6.764
 5310POPC   C3B67449  41.737  18.102   7.064
 5310POPC   C4B67450  41.713  18.076   7.364
 5311POPC   NC367451  11.336   3.571   5.564
 5311POPC   PO467452  11.260   3.525   5.864
 5311POPC   GL167453  11.295   3.498   6.164
 5311POPC   GL267454  11.220   3.452   6.164
 5311POPC   C1A67455  11.346   3.509   6.464
 5311POPC   D2A67456  11.314   3.536   6.764
 5311POPC   C3A67457  11.291   3.531   7.064
 5311POPC   C4A67458  11.251   3.579   7.364
 5311POPC   C1B67459  11.128   3.383   6.464
 5311POPC   C2B67460  11.115   3.386   6.764
 5311POPC   C3B67461  11.170   3.388   7.064
 5311POPC   C4B67462  11.106   3.362   7.364
 5312POPC   NC367463   4.290  21.364   5.564
 5312POPC   PO467464   4.305  21.405   5.864
 5312POPC   GL167465   4.358  21.368   6.164
 5312POPC   GL267466   4.371  21.468   6.164
 5312POPC   C1A67467   4.338  21.383   6.464
 5312POPC   D2A67468   4.329  21.420   6.764
 5312POPC   C3A67469   4.298  21.363   7.064
 5312POPC   C4A67470   4.275  21.419   7.364
 5312POPC   C1B67471   4.319  21.603   6.464
 5312POPC   C2B67472   4.382  21.613   6.764
 5312POPC   C3B67473   4.350  21.621   7.064
 5312POPC   C4B67474   4.370  21.630   7.364
 5313POPC   NC367475  29.964   8.993   5.564
 5313POPC   PO467476  29.940   9.021   5.864
 5313POPC   GL167477  29.878   9.017   6.164
 5313POPC   GL267478  30.035   9.072   6.164
 5313POPC   C1A67479  29.932   9.018   6.464
 5313POPC   D2A67480  29.946   8.930   6.764
 5313POPC   C3A67481  29.959   8.957   7.064
 5313POPC   C4A67482  29.947   8.935   7.364
 5313POPC   C1B67483  30.085   9.197   6.464
 5313POPC   C2B67484  30.050   9.208   6.764
 5313POPC   C3B67485  30.111   9.190   7.064
 5313POPC   C4B67486  30.093   9.181   7.364
 5314POPC   NC367487  40.013  12.881   5.564
 5314POPC   PO467488  40.025  12.837   5.864
 5314POPC   GL167489  39.985  12.806   6.164
 5314POPC   GL267490  39.939  12.920   6.164
 5314POPC   C1A67491  39.994  12.870   6.464
 5314POPC   D2A67492  40.002  12.814   6.764
 5314POPC   C3A67493  40.010  12.821   7.064
 5314POPC   C4A67494  40.048  12.803   7.364
 5314POPC   C1B67495  39.832  12.947   6.464
 5314POPC   C2B67496  39.828  12.939   6.764
 5314POPC   C3B67497  39.815  12.991   7.064
 5314POPC   C4B67498  39.795  12.990   7.364
 5315POPC   NC367499  10.496  31.456   5.564
 5315POPC   PO467500  10.540  31.476   5.864
 5315POPC   GL167501  10.527  31.517   6.164
 5315POPC   GL267502  10.376  31.440   6.164
 5315POPC   C1A67503  10.489  31.436   6.464
 5315POPC   D2A67504  10.490  31.504   6.764
 5315POPC   C3A67505  10.523  31.440   7.064
 5315POPC   C4A67506  10.525  31.470   7.364
 5315POPC   C1B67507  10.328  31.359   6.464
 5315POPC   C2B67508  10.277  31.313   6.764
 5315POPC   C3B67509  10.333  31.394   7.064
 5315POPC   C4B67510  10.294  31.351   7.364
 5316POPC   NC367511  38.417  17.532   5.564
 5316POPC   PO467512  38.431  17.471   5.864
 5316POPC   GL167513  38.408  17.536   6.164
 5316POPC   GL267514  38.587  17.584   6.164
 5316POPC   C1A67515  38.442  17.462   6.464
 5316POPC   D2A67516  38.483  17.470   6.764
 5316POPC   C3A67517  38.445  17.514   7.064
 5316POPC   C4A67518  38.487  17.495   7.364
 5316POPC   C1B67519  38.665  17.648   6.464
 5316POPC   C2B67520  38.725  17.672   6.764
 5316POPC   C3B67521  38.683  17.586   7.064
 5316POPC   C4B67522  38.695  17.659   7.364
 5317POPC   NC367523   1.949  27.633   5.564
 5317POPC   PO467524   1.950  27.566   5.864
 5317POPC   GL167525   2.005  27.617   6.164
 5317POPC   GL267526   1.964  27.459   6.164
 5317POPC   C1A67527   1.956  27.621   6.464
 5317POPC   D2A67528   2.000  27.587   6.764
 5317POPC   C3A67529   1.968  27.639   7.064
 5317POPC   C4A67530   1.977  27.573   7.364
 5317POPC   C1B67531   1.951  27.373   6.464
 5317POPC   C2B67532   1.860  27.406   6.764
 5317POPC   C3B67533   1.905  27.405   7.064
 5317POPC   C4B67534   1.861  27.406   7.364
 5318POPC   NC367535   3.500  15.163   5.564
 5318POPC   PO467536   3.571  15.208   5.864
 5318POPC   GL167537   3.524  15.161   6.164
 5318POPC   GL267538   3.609  15.263   6.164
 5318POPC   C1A67539   3.521  15.182   6.464
 5318POPC   D2A67540   3.529  15.170   6.764
 5318POPC   C3A67541   3.529  15.176   7.064
 5318POPC   C4A67542   3.493  15.172   7.364
 5318POPC   C1B67543   3.795  15.321   6.464
 5318POPC   C2B67544   3.790  15.329   6.764
 5318POPC   C3B67545   3.796  15.270   7.064
 5318POPC   C4B67546   3.725  15.283   7.364
 5319POPC   NC367547  37.634  15.935   5.564
 5319POPC   PO467548  37.645  15.941   5.864
 5319POPC   GL167549  37.714  15.990   6.164
 5319POPC   GL267550  37.670  16.119   6.164
 5319POPC   C1A67551  37.654  15.984   6.464
 5319POPC   D2A67552  37.719  15.913   6.764
 5319POPC   C3A67553  37.676  15.951   7.064
 5319POPC   C4A67554  37.651  15.909   7.364
 5319POPC   C1B67555  37.587  16.186   6.464
 5319POPC   C2B67556  37.593  16.238   6.764
 5319POPC   C3B67557  37.608  16.183   7.064
 5319POPC   C4B67558  37.589  16.145   7.364
 5320POPC   NC367559   5.138  36.102   5.564
 5320POPC   PO467560   5.106  36.148   5.864
 5320POPC   GL167561   5.141  36.090   6.164
 5320POPC   GL267562   4.972  36.187   6.164
 5320POPC   C1A67563   5.136  36.118   6.464
 5320POPC   D2A67564   5.113  36.088   6.764
 5320POPC   C3A67565   5.090  36.147   7.064
 5320POPC   C4A67566   5.054  36.142   7.364
 5320POPC   C1B67567   4.860  36.174   6.464
 5320POPC   C2B67568   4.842  36.189   6.764
 5320POPC   C3B67569   4.850  36.252   7.064
 5320POPC   C4B67570   4.852  36.182   7.364
 5321POPC   NC367571   9.001  39.995   5.564
 5321POPC   PO467572   9.017  40.000   5.864
 5321POPC   GL167573   8.979  40.056   6.164
 5321POPC   GL267574   9.113  39.946   6.164
 5321POPC   C1A67575   8.972  40.047   6.464
 5321POPC   D2A67576   9.017  40.007   6.764
 5321POPC   C3A67577   8.977  39.974   7.064
 5321POPC   C4A67578   8.969  39.981   7.364
 5321POPC   C1B67579   9.145  39.818   6.464
 5321POPC   C2B67580   9.185  39.849   6.764
 5321POPC   C3B67581   9.202  39.862   7.064
 5321POPC   C4B67582   9.135  39.862   7.364
 5322POPC   NC367583   7.376  19.099   5.564
 5322POPC   PO467584   7.461  19.094   5.864
 5322POPC   GL167585   7.441  19.070   6.164
 5322POPC   GL267586   7.527  19.080   6.164
 5322POPC   C1A67587   7.372  19.041   6.464
 5322POPC   D2A67588   7.458  19.097   6.764
 5322POPC   C3A67589   7.463  19.045   7.064
 5322POPC   C4A67590   7.407  19.084   7.364
 5322POPC   C1B67591   7.616  19.146   6.464
 5322POPC   C2B67592   7.713  19.108   6.764
 5322POPC   C3B67593   7.696  19.068   7.064
 5322POPC   C4B67594   7.681  19.154   7.364
 5323POPC   NC367595   3.588   8.193   5.564
 5323POPC   PO467596   3.503   8.164   5.864
 5323POPC   GL167597   3.537   8.202   6.164
 5323POPC   GL267598   3.637   8.249   6.164
 5323POPC   C1A67599   3.544   8.212   6.464
 5323POPC   D2A67600   3.504   8.158   6.764
 5323POPC   C3A67601   3.590   8.189   7.064
 5323POPC   C4A67602   3.510   8.235   7.364
 5323POPC   C1B67603   3.818   8.254   6.464
 5323POPC   C2B67604   3.797   8.195   6.764
 5323POPC   C3B67605   3.828   8.258   7.064
 5323POPC   C4B67606   3.819   8.195   7.364
 5324POPC   NC367607  30.709   2.781   5.564
 5324POPC   PO467608  30.723   2.745   5.864
 5324POPC   GL167609  30.708   2.739   6.164
 5324POPC   GL267610  30.816   2.686   6.164
 5324POPC   C1A67611  30.649   2.760   6.464
 5324POPC   D2A67612  30.686   2.791   6.764
 5324POPC   C3A67613  30.726   2.799   7.064
 5324POPC   C4A67614  30.712   2.742   7.364
 5324POPC   C1B67615  30.949   2.697   6.464
 5324POPC   C2B67616  30.932   2.681   6.764
 5324POPC   C3B67617  30.968   2.668   7.064
 5324POPC   C4B67618  30.955   2.647   7.364
 5325POPC   NC367619   0.392  31.426   5.564
 5325POPC   PO467620   0.478  31.433   5.864
 5325POPC   GL167621   0.410  31.505   6.164
 5325POPC   GL267622   0.517  31.426   6.164
 5325POPC   C1A67623   0.461  31.440   6.464
 5325POPC   D2A67624   0.460  31.484   6.764
 5325POPC   C3A67625   0.447  31.478   7.064
 5325POPC   C4A67626   0.395  31.454   7.364
 5325POPC   C1B67627   0.556  31.327   6.464
 5325POPC   C2B67628   0.567  31.319   6.764
 5325POPC   C3B67629   0.625  31.269   7.064
 5325POPC   C4B67630   0.603  31.311   7.364
 5326POPC   NC367631  28.385  40.000   5.564
 5326POPC   PO467632  28.369  40.023   5.864
 5326POPC   GL167633  28.346  39.958   6.164
 5326POPC   GL267634  28.407  39.834   6.164
 5326POPC   C1A67635  28.374  40.051   6.464
 5326POPC   D2A67636  28.389  40.049   6.764
 5326POPC   C3A67637  28.325  40.036   7.064
 5326POPC   C4A67638  28.401  40.055   7.364
 5326POPC   C1B67639  28.352  39.714   6.464
 5326POPC   C2B67640  28.415  39.803   6.764
 5326POPC   C3B67641  28.381  39.763   7.064
 5326POPC   C4B67642  28.414  39.736   7.364
 5327POPC   NC367643  26.859  22.141   5.564
 5327POPC   PO467644  26.810  22.113   5.864
 5327POPC   GL167645  26.830  22.161   6.164
 5327POPC   GL267646  26.937  22.238   6.164
 5327POPC   C1A67647  26.826  22.180   6.464
 5327POPC   D2A67648  26.769  22.199   6.764
 5327POPC   C3A67649  26.855  22.184   7.064
 5327POPC   C4A67650  26.806  22.166   7.364
 5327POPC   C1B67651  27.016  22.229   6.464
 5327POPC   C2B67652  27.022  22.255   6.764
 5327POPC   C3B67653  27.076  22.197   7.064
 5327POPC   C4B67654  27.078  22.217   7.364
 5328POPC   NC367655  21.339  18.307   5.564
 5328POPC   PO467656  21.403  18.241   5.864
 5328POPC   GL167657  21.423  18.326   6.164
 5328POPC   GL267658  21.408  18.142   6.164
 5328POPC   C1A67659  21.436  18.285   6.464
 5328POPC   D2A67660  21.426  18.300   6.764
 5328POPC   C3A67661  21.429  18.247   7.064
 5328POPC   C4A67662  21.345  18.299   7.364
 5328POPC   C1B67663  21.514  18.012   6.464
 5328POPC   C2B67664  21.456  18.100   6.764
 5328POPC   C3B67665  21.500  18.026   7.064
 5328POPC   C4B67666  21.459  18.054   7.364
 5329POPC   NC367667  19.038  38.462   5.564
 5329POPC   PO467668  19.076  38.440   5.864
 5329POPC   GL167669  19.064  38.491   6.164
 5329POPC   GL267670  19.103  38.381   6.164
 5329POPC   C1A67671  19.049  38.407   6.464
 5329POPC   D2A67672  19.084  38.467   6.764
 5329POPC   C3A67673  19.014  38.505   7.064
 5329POPC   C4A67674  19.044  38.458   7.364
 5329POPC   C1B67675  19.142  38.261   6.464
 5329POPC   C2B67676  19.197  38.278   6.764
 5329POPC   C3B67677  19.132  38.213   7.064
 5329POPC   C4B67678  19.212  38.248   7.364
 5330POPC   NC367679  15.912   8.180   5.564
 5330POPC   PO467680  15.937   8.238   5.864
 5330POPC   GL167681  15.971   8.216   6.164
 5330POPC   GL267682  15.930   8.134   6.164
 5330POPC   C1A67683  15.991   8.157   6.464
 5330POPC   D2A67684  15.960   8.155   6.764
 5330POPC   C3A67685  15.988   8.235   7.064
 5330POPC   C4A67686  15.969   8.185   7.364
 5330POPC   C1B67687  15.799   7.959   6.464
 5330POPC   C2B67688  15.875   7.944   6.764
 5330POPC   C3B67689  15.826   8.031   7.064
 5330POPC   C4B67690  15.844   8.011   7.364
 5331POPC   NC367691  29.159  13.617   5.564
 5331POPC   PO467692  29.146  13.662   5.864
 5331POPC   GL167693  29.118  13.611   6.164
 5331POPC   GL267694  29.198  13.536   6.164
 5331POPC   C1A67695  29.153  13.621   6.464
 5331POPC   D2A67696  29.151  13.626   6.764
 5331POPC   C3A67697  29.175  13.592   7.064
 5331POPC   C4A67698  29.095  13.599   7.364
 5331POPC   C1B67699  29.196  13.403   6.464
 5331POPC   C2B67700  29.112  13.390   6.764
 5331POPC   C3B67701  29.192  13.362   7.064
 5331POPC   C4B67702  29.152  13.364   7.364
 5332POPC   NC367703  15.229  24.463   5.564
 5332POPC   PO467704  15.194  24.477   5.864
 5332POPC   GL167705  15.215  24.448   6.164
 5332POPC   GL267706  15.304  24.403   6.164
 5332POPC   C1A67707  15.144  24.472   6.464
 5332POPC   D2A67708  15.142  24.456   6.764
 5332POPC   C3A67709  15.142  24.519   7.064
 5332POPC   C4A67710  15.213  24.526   7.364
 5332POPC   C1B67711  15.359  24.336   6.464
 5332POPC   C2B67712  15.352  24.296   6.764
 5332POPC   C3B67713  15.315  24.318   7.064
 5332POPC   C4B67714  15.374  24.281   7.364
 5333POPC   NC367715  43.886   9.798   5.564
 5333POPC   PO467716  43.863   9.775   5.864
 5333POPC   GL167717  43.891   9.776   6.164
 5333POPC   GL267718  43.824   9.898   6.164
 5333POPC   C1A67719  43.923   9.748   6.464
 5333POPC   D2A67720  43.896   9.719   6.764
 5333POPC   C3A67721  43.907   9.762   7.064
 5333POPC   C4A67722  43.889   9.760   7.364
 5333POPC   C1B67723  43.782   9.955   6.464
 5333POPC   C2B67724  43.746   9.987   6.764
 5333POPC   C3B67725  43.722   9.975   7.064
 5333POPC   C4B67726  43.753   9.912   7.364
 5334POPC   NC367727  11.319   9.750   5.564
 5334POPC   PO467728  11.310   9.750   5.864
 5334POPC   GL167729  11.252   9.790   6.164
 5334POPC   GL267730  11.380   9.790   6.164
 5334POPC   C1A67731  11.333   9.754   6.464
 5334POPC   D2A67732  11.329   9.785   6.764
 5334POPC   C3A67733  11.316   9.720   7.064
 5334POPC   C4A67734  11.277   9.723   7.364
 5334POPC   C1B67735  11.538   9.790   6.464
 5334POPC   C2B67736  11.549   9.696   6.764
 5334POPC   C3B67737  11.508   9.728   7.064
 5334POPC   C4B67738  11.501   9.753   7.364
 5335POPC   NC367739   2.799  30.702   5.564
 5335POPC   PO467740   2.741  30.687   5.864
 5335POPC   GL167741   2.785  30.672   6.164
 5335POPC   GL267742   2.780  30.826   6.164
 5335POPC   C1A67743   2.743  30.720   6.464
 5335POPC   D2A67744   2.812  30.666   6.764
 5335POPC   C3A67745   2.758  30.712   7.064
 5335POPC   C4A67746   2.721  30.701   7.364
 5335POPC   C1B67747   2.924  30.960   6.464
 5335POPC   C2B67748   2.930  30.894   6.764
 5335POPC   C3B67749   2.927  30.917   7.064
 5335POPC   C4B67750   2.929  30.875   7.364
 5336POPC   NC367751  40.040  44.709   5.564
 5336POPC   PO467752  39.969  44.688   5.864
 5336POPC   GL167753  39.985  44.688   6.164
 5336POPC   GL267754  39.886  44.715   6.164
 5336POPC   C1A67755  39.993  44.636   6.464
 5336POPC   D2A67756  40.015  44.709   6.764
 5336POPC   C3A67757  39.991  44.620   7.064
 5336POPC   C4A67758  40.000  44.651   7.364
 5336POPC   C1B67759  39.760  44.747   6.464
 5336POPC   C2B67760  39.797  44.762   6.764
 5336POPC   C3B67761  39.754  44.805   7.064
 5336POPC   C4B67762  39.836  44.791   7.364
 5337POPC   NC367763  26.836   6.691   5.564
 5337POPC   PO467764  26.835   6.605   5.864
 5337POPC   GL167765  26.831   6.616   6.164
 5337POPC   GL267766  26.966   6.596   6.164
 5337POPC   C1A67767  26.772   6.600   6.464
 5337POPC   D2A67768  26.840   6.623   6.764
 5337POPC   C3A67769  26.848   6.625   7.064
 5337POPC   C4A67770  26.773   6.678   7.364
 5337POPC   C1B67771  27.007   6.541   6.464
 5337POPC   C2B67772  26.992   6.544   6.764
 5337POPC   C3B67773  27.053   6.576   7.064
 5337POPC   C4B67774  27.076   6.486   7.364
 5338POPC   NC367775  30.734  32.204   5.564
 5338POPC   PO467776  30.683  32.274   5.864
 5338POPC   GL167777  30.720  32.222   6.164
 5338POPC   GL267778  30.754  32.380   6.164
 5338POPC   C1A67779  30.722  32.226   6.464
 5338POPC   D2A67780  30.685  32.249   6.764
 5338POPC   C3A67781  30.736  32.200   7.064
 5338POPC   C4A67782  30.682  32.285   7.364
 5338POPC   C1B67783  30.823  32.447   6.464
 5338POPC   C2B67784  30.786  32.507   6.764
 5338POPC   C3B67785  30.856  32.420   7.064
 5338POPC   C4B67786  30.842  32.482   7.364
 5339POPC   NC367787  15.134  15.145   5.564
 5339POPC   PO467788  15.181  15.176   5.864
 5339POPC   GL167789  15.160  15.160   6.164
 5339POPC   GL267790  15.198  15.091   6.164
 5339POPC   C1A67791  15.150  15.156   6.464
 5339POPC   D2A67792  15.154  15.198   6.764
 5339POPC   C3A67793  15.228  15.143   7.064
 5339POPC   C4A67794  15.144  15.217   7.364
 5339POPC   C1B67795  15.292  14.954   6.464
 5339POPC   C2B67796  15.239  14.948   6.764
 5339POPC   C3B67797  15.313  14.903   7.064
 5339POPC   C4B67798  15.309  14.968   7.364
 5340POPC   NC367799   5.916  42.333   5.564
 5340POPC   PO467800   5.850  42.313   5.864
 5340POPC   GL167801   5.887  42.319   6.164
 5340POPC   GL267802   5.985  42.250   6.164
 5340POPC   C1A67803   5.872  42.339   6.464
 5340POPC   D2A67804   5.849  42.337   6.764
 5340POPC   C3A67805   5.879  42.286   7.064
 5340POPC   C4A67806   5.837  42.376   7.364
 5340POPC   C1B67807   6.107  42.230   6.464
 5340POPC   C2B67808   6.078  42.240   6.764
 5340POPC   C3B67809   6.072  42.220   7.064
 5340POPC   C4B67810   6.100  42.238   7.364
 5341POPC   NC367811  33.818   9.785   5.564
 5341POPC   PO467812  33.775   9.760   5.864
 5341POPC   GL167813  33.814   9.700   6.164
 5341POPC   GL267814  33.822   9.887   6.164
 5341POPC   C1A67815  33.832   9.785   6.464
 5341POPC   D2A67816  33.828   9.721   6.764
 5341POPC   C3A67817  33.788   9.785   7.064
 5341POPC   C4A67818  33.825   9.735   7.364
 5341POPC   C1B67819  33.868   9.992   6.464
 5341POPC   C2B67820  33.898  10.012   6.764
 5341POPC   C3B67821  33.938   9.976   7.064
 5341POPC   C4B67822  33.922   9.932   7.364
 5342POPC   NC367823  30.713   3.541   5.564
 5342POPC   PO467824  30.675   3.578   5.864
 5342POPC   GL167825  30.737   3.508   6.164
 5342POPC   GL267826  30.670   3.684   6.164
 5342POPC   C1A67827  30.739   3.580   6.464
 5342POPC   D2A67828  30.724   3.577   6.764
 5342POPC   C3A67829  30.724   3.547   7.064
 5342POPC   C4A67830  30.673   3.567   7.364
 5342POPC   C1B67831  30.558   3.775   6.464
 5342POPC   C2B67832  30.591   3.691   6.764
 5342POPC   C3B67833  30.498   3.787   7.064
 5342POPC   C4B67834  30.548   3.728   7.364
 5343POPC   NC367835  32.293  23.756   5.564
 5343POPC   PO467836  32.280  23.716   5.864
 5343POPC   GL167837  32.266  23.739   6.164
 5343POPC   GL267838  32.318  23.728   6.164
 5343POPC   C1A67839  32.298  23.669   6.464
 5343POPC   D2A67840  32.225  23.674   6.764
 5343POPC   C3A67841  32.232  23.740   7.064
 5343POPC   C4A67842  32.265  23.753   7.364
 5343POPC   C1B67843  32.515  23.825   6.464
 5343POPC   C2B67844  32.473  23.874   6.764
 5343POPC   C3B67845  32.469  23.819   7.064
 5343POPC   C4B67846  32.425  23.778   7.364
 5344POPC   NC367847  22.120  29.114   5.564
 5344POPC   PO467848  22.209  29.181   5.864
 5344POPC   GL167849  22.153  29.180   6.164
 5344POPC   GL267850  22.275  29.183   6.164
 5344POPC   C1A67851  22.190  29.176   6.464
 5344POPC   D2A67852  22.147  29.164   6.764
 5344POPC   C3A67853  22.202  29.110   7.064
 5344POPC   C4A67854  22.137  29.102   7.364
 5344POPC   C1B67855  22.401  29.210   6.464
 5344POPC   C2B67856  22.389  29.139   6.764
 5344POPC   C3B67857  22.401  29.130   7.064
 5344POPC   C4B67858  22.428  29.126   7.364
 5345POPC   NC367859  30.653  10.572   5.564
 5345POPC   PO467860  30.725  10.478   5.864
 5345POPC   GL167861  30.684  10.554   6.164
 5345POPC   GL267862  30.571  10.445   6.164
 5345POPC   C1A67863  30.689  10.495   6.464
 5345POPC   D2A67864  30.664  10.567   6.764
 5345POPC   C3A67865  30.697  10.506   7.064
 5345POPC   C4A67866  30.711  10.560   7.364
 5345POPC   C1B67867  30.515  10.359   6.464
 5345POPC   C2B67868  30.483  10.362   6.764
 5345POPC   C3B67869  30.473  10.361   7.064
 5345POPC   C4B67870  30.554  10.354   7.364
 5346POPC   NC367871  14.370   2.797   5.564
 5346POPC   PO467872  14.357   2.751   5.864
 5346POPC   GL167873  14.409   2.716   6.164
 5346POPC   GL267874  14.423   2.865   6.164
 5346POPC   C1A67875  14.430   2.809   6.464
 5346POPC   D2A67876  14.448   2.803   6.764
 5346POPC   C3A67877  14.450   2.736   7.064
 5346POPC   C4A67878  14.384   2.745   7.364
 5346POPC   C1B67879  14.478   3.012   6.464
 5346POPC   C2B67880  14.484   2.948   6.764
 5346POPC   C3B67881  14.528   2.959   7.064
 5346POPC   C4B67882  14.499   2.958   7.364
 5347POPC   NC367883  32.256  33.022   5.564
 5347POPC   PO467884  32.215  33.022   5.864
 5347POPC   GL167885  32.285  33.049   6.164
 5347POPC   GL267886  32.289  33.139   6.164
 5347POPC   C1A67887  32.246  33.049   6.464
 5347POPC   D2A67888  32.233  33.070   6.764
 5347POPC   C3A67889  32.207  33.002   7.064
 5347POPC   C4A67890  32.288  33.009   7.364
 5347POPC   C1B67891  32.382  33.251   6.464
 5347POPC   C2B67892  32.368  33.267   6.764
 5347POPC   C3B67893  32.396  33.263   7.064
 5347POPC   C4B67894  32.398  33.240   7.364
 5348POPC   NC367895  44.687   3.504   5.564
 5348POPC   PO467896  44.709   3.519   5.864
 5348POPC   GL167897  44.640   3.568   6.164
 5348POPC   GL267898  44.762   3.640   6.164
 5348POPC   C1A67899  44.703   3.586   6.464
 5348POPC   D2A67900  44.622   3.523   6.764
 5348POPC   C3A67901  44.640   3.555   7.064
 5348POPC   C4A67902  44.681   3.554   7.364
 5348POPC   C1B67903  44.865   3.747   6.464
 5348POPC   C2B67904  44.819   3.749   6.764
 5348POPC   C3B67905  44.836   3.660   7.064
 5348POPC   C4B67906  44.809   3.694   7.364
 5349POPC   NC367907  15.946  29.182   5.564
 5349POPC   PO467908  15.961  29.165   5.864
 5349POPC   GL167909  15.959  29.148   6.164
 5349POPC   GL267910  16.100  29.224   6.164
 5349POPC   C1A67911  15.995  29.135   6.464
 5349POPC   D2A67912  15.922  29.129   6.764
 5349POPC   C3A67913  15.967  29.187   7.064
 5349POPC   C4A67914  15.958  29.149   7.364
 5349POPC   C1B67915  16.204  29.267   6.464
 5349POPC   C2B67916  16.187  29.222   6.764
 5349POPC   C3B67917  16.198  29.308   7.064
 5349POPC   C4B67918  16.158  29.287   7.364
 5350POPC   NC367919  35.326  15.978   5.564
 5350POPC   PO467920  35.355  15.943   5.864
 5350POPC   GL167921  35.342  15.919   6.164
 5350POPC   GL267922  35.430  15.837   6.164
 5350POPC   C1A67923  35.303  15.926   6.464
 5350POPC   D2A67924  35.334  15.925   6.764
 5350POPC   C3A67925  35.391  15.932   7.064
 5350POPC   C4A67926  35.394  15.950   7.364
 5350POPC   C1B67927  35.514  15.758   6.464
 5350POPC   C2B67928  35.557  15.780   6.764
 5350POPC   C3B67929  35.500  15.824   7.064
 5350POPC   C4B67930  35.496  15.739   7.364
 5351POPC   NC367931   2.790  35.338   5.564
 5351POPC   PO467932   2.762  35.365   5.864
 5351POPC   GL167933   2.750  35.391   6.164
 5351POPC   GL267934   2.779  35.464   6.164
 5351POPC   C1A67935   2.753  35.358   6.464
 5351POPC   D2A67936   2.763  35.320   6.764
 5351POPC   C3A67937   2.753  35.369   7.064
 5351POPC   C4A67938   2.750  35.379   7.364
 5351POPC   C1B67939   2.769  35.557   6.464
 5351POPC   C2B67940   2.775  35.603   6.764
 5351POPC   C3B67941   2.800  35.636   7.064
 5351POPC   C4B67942   2.853  35.596   7.364
 5352POPC   NC367943  40.803  33.754   5.564
 5352POPC   PO467944  40.804  33.784   5.864
 5352POPC   GL167945  40.776  33.768   6.164
 5352POPC   GL267946  40.674  33.902   6.164
 5352POPC   C1A67947  40.792  33.807   6.464
 5352POPC   D2A67948  40.756  33.776   6.764
 5352POPC   C3A67949  40.814  33.825   7.064
 5352POPC   C4A67950  40.791  33.831   7.364
 5352POPC   C1B67951  40.562  33.971   6.464
 5352POPC   C2B67952  40.574  33.936   6.764
 5352POPC   C3B67953  40.557  33.979   7.064
 5352POPC   C4B67954  40.536  33.931   7.364
 5353POPC   NC367955  25.250  42.316   5.564
 5353POPC   PO467956  25.279  42.356   5.864
 5353POPC   GL167957  25.249  42.305   6.164
 5353POPC   GL267958  25.278  42.223   6.164
 5353POPC   C1A67959  25.240  42.324   6.464
 5353POPC   D2A67960  25.241  42.357   6.764
 5353POPC   C3A67961  25.262  42.353   7.064
 5353POPC   C4A67962  25.248  42.295   7.364
 5353POPC   C1B67963  25.243  42.133   6.464
 5353POPC   C2B67964  25.240  42.080   6.764
 5353POPC   C3B67965  25.242  42.048   7.064
 5353POPC   C4B67966  25.241  42.066   7.364
 5354POPC   NC367967   2.815  25.995   5.564
 5354POPC   PO467968   2.736  26.034   5.864
 5354POPC   GL167969   2.791  26.032   6.164
 5354POPC   GL267970   2.757  25.908   6.164
 5354POPC   C1A67971   2.722  26.056   6.464
 5354POPC   D2A67972   2.726  26.001   6.764
 5354POPC   C3A67973   2.725  26.023   7.064
 5354POPC   C4A67974   2.762  26.076   7.364
 5354POPC   C1B67975   2.749  25.839   6.464
 5354POPC   C2B67976   2.770  25.830   6.764
 5354POPC   C3B67977   2.711  25.763   7.064
 5354POPC   C4B67978   2.782  25.823   7.364
 5355POPC   NC367979   4.334  33.827   5.564
 5355POPC   PO467980   4.301  33.800   5.864
 5355POPC   GL167981   4.353  33.848   6.164
 5355POPC   GL267982   4.399  33.781   6.164
 5355POPC   C1A67983   4.337  33.819   6.464
 5355POPC   D2A67984   4.329  33.842   6.764
 5355POPC   C3A67985   4.324  33.822   7.064
 5355POPC   C4A67986   4.268  33.844   7.364
 5355POPC   C1B67987   4.588  33.836   6.464
 5355POPC   C2B67988   4.538  33.821   6.764
 5355POPC   C3B67989   4.591  33.851   7.064
 5355POPC   C4B67990   4.601  33.858   7.364
 5356POPC   NC367991   2.027  36.938   5.564
 5356POPC   PO467992   2.004  36.910   5.864
 5356POPC   GL167993   1.983  36.930   6.164
 5356POPC   GL267994   2.077  36.965   6.164
 5356POPC   C1A67995   2.023  36.883   6.464
 5356POPC   D2A67996   1.940  36.947   6.764
 5356POPC   C3A67997   1.964  36.878   7.064
 5356POPC   C4A67998   2.036  36.921   7.364
 5356POPC   C1B67999   2.239  37.028   6.464
 5356POPC   C2B68000   2.231  37.020   6.764
 5356POPC   C3B68001   2.197  36.992   7.064
 5356POPC   C4B68002   2.224  37.023   7.364
 5357POPC   NC368003  13.677  31.487   5.564
 5357POPC   PO468004  13.664  31.480   5.864
 5357POPC   GL168005  13.580  31.486   6.164
 5357POPC   GL268006  13.734  31.530   6.164
 5357POPC   C1A68007  13.673  31.464   6.464
 5357POPC   D2A68008  13.641  31.497   6.764
 5357POPC   C3A68009  13.634  31.426   7.064
 5357POPC   C4A68010  13.658  31.445   7.364
 5357POPC   C1B68011  13.910  31.519   6.464
 5357POPC   C2B68012  13.901  31.595   6.764
 5357POPC   C3B68013  13.909  31.501   7.064
 5357POPC   C4B68014  13.903  31.527   7.364
 5358POPC   NC368015  37.635   2.004   5.564
 5358POPC   PO468016  37.676   2.019   5.864
 5358POPC   GL168017  37.673   1.940   6.164
 5358POPC   GL268018  37.649   1.856   6.164
 5358POPC   C1A68019  37.711   2.001   6.464
 5358POPC   D2A68020  37.729   1.971   6.764
 5358POPC   C3A68021  37.682   1.940   7.064
 5358POPC   C4A68022  37.729   1.969   7.364
 5358POPC   C1B68023  37.568   1.834   6.464
 5358POPC   C2B68024  37.483   1.816   6.764
 5358POPC   C3B68025  37.540   1.828   7.064
 5358POPC   C4B68026  37.528   1.832   7.364
 5359POPC   NC368027   7.389  29.186   5.564
 5359POPC   PO468028   7.469  29.128   5.864
 5359POPC   GL168029   7.448  29.189   6.164
 5359POPC   GL268030   7.566  29.169   6.164
 5359POPC   C1A68031   7.388  29.115   6.464
 5359POPC   D2A68032   7.420  29.171   6.764
 5359POPC   C3A68033   7.470  29.168   7.064
 5359POPC   C4A68034   7.409  29.142   7.364
 5359POPC   C1B68035   7.646  29.148   6.464
 5359POPC   C2B68036   7.643  29.161   6.764
 5359POPC   C3B68037   7.651  29.222   7.064
 5359POPC   C4B68038   7.683  29.236   7.364
 5360POPC   NC368039  23.706  33.804   5.564
 5360POPC   PO468040  23.744  33.756   5.864
 5360POPC   GL168041  23.667  33.799   6.164
 5360POPC   GL268042  23.557  33.885   6.164
 5360POPC   C1A68043  23.746  33.796   6.464
 5360POPC   D2A68044  23.677  33.831   6.764
 5360POPC   C3A68045  23.685  33.803   7.064
 5360POPC   C4A68046  23.691  33.814   7.364
 5360POPC   C1B68047  23.455  33.904   6.464
 5360POPC   C2B68048  23.511  33.849   6.764
 5360POPC   C3B68049  23.473  33.882   7.064
 5360POPC   C4B68050  23.506  33.945   7.364
 5361POPC   NC368051  16.752  43.932   5.564
 5361POPC   PO468052  16.701  43.918   5.864
 5361POPC   GL168053  16.772  43.856   6.164
 5361POPC   GL268054  16.729  43.724   6.164
 5361POPC   C1A68055  16.747  43.870   6.464
 5361POPC   D2A68056  16.727  43.866   6.764
 5361POPC   C3A68057  16.734  43.884   7.064
 5361POPC   C4A68058  16.763  43.865   7.364
 5361POPC   C1B68059  16.667  43.699   6.464
 5361POPC   C2B68060  16.676  43.703   6.764
 5361POPC   C3B68061  16.629  43.680   7.064
 5361POPC   C4B68062  16.602  43.638   7.364
 5362POPC   NC368063  12.103   9.725   5.564
 5362POPC   PO468064  12.105   9.752   5.864
 5362POPC   GL168065  12.089   9.720   6.164
 5362POPC   GL268066  12.219   9.786   6.164
 5362POPC   C1A68067  12.094   9.709   6.464
 5362POPC   D2A68068  12.060   9.783   6.764
 5362POPC   C3A68069  12.111   9.705   7.064
 5362POPC   C4A68070  12.057   9.716   7.364
 5362POPC   C1B68071  12.352   9.814   6.464
 5362POPC   C2B68072  12.321   9.847   6.764
 5362POPC   C3B68073  12.274   9.754   7.064
 5362POPC   C4B68074  12.284   9.835   7.364
 5363POPC   NC368075  27.574   4.331   5.564
 5363POPC   PO468076  27.621   4.280   5.864
 5363POPC   GL168077  27.599   4.359   6.164
 5363POPC   GL268078  27.451   4.382   6.164
 5363POPC   C1A68079  27.548   4.279   6.464
 5363POPC   D2A68080  27.626   4.295   6.764
 5363POPC   C3A68081  27.628   4.333   7.064
 5363POPC   C4A68082  27.639   4.270   7.364
 5363POPC   C1B68083  27.371   4.351   6.464
 5363POPC   C2B68084  27.377   4.378   6.764
 5363POPC   C3B68085  27.309   4.341   7.064
 5363POPC   C4B68086  27.393   4.327   7.364
 5364POPC   NC368087  17.460  26.833   5.564
 5364POPC   PO468088  17.468  26.784   5.864
 5364POPC   GL168089  17.492  26.820   6.164
 5364POPC   GL268090  17.563  26.964   6.164
 5364POPC   C1A68091  17.520  26.830   6.464
 5364POPC   D2A68092  17.516  26.812   6.764
 5364POPC   C3A68093  17.514  26.826   7.064
 5364POPC   C4A68094  17.526  26.848   7.364
 5364POPC   C1B68095  17.643  27.027   6.464
 5364POPC   C2B68096  17.684  27.017   6.764
 5364POPC   C3B68097  17.619  27.073   7.064
 5364POPC   C4B68098  17.629  27.075   7.364
 5365POPC   NC368099   2.801  32.255   5.564
 5365POPC   PO468100   2.753  32.207   5.864
 5365POPC   GL168101   2.765  32.234   6.164
 5365POPC   GL268102   2.788  32.084   6.164
 5365POPC   C1A68103   2.803  32.243   6.464
 5365POPC   D2A68104   2.733  32.240   6.764
 5365POPC   C3A68105   2.736  32.224   7.064
 5365POPC   C4A68106   2.726  32.221   7.364
 5365POPC   C1B68107   2.731  32.045   6.464
 5365POPC   C2B68108   2.805  32.014   6.764
 5365POPC   C3B68109   2.816  32.030   7.064
 5365POPC   C4B68110   2.807  31.970   7.364
 5366POPC   NC368111  15.207  22.938   5.564
 5366POPC   PO468112  15.190  22.912   5.864
 5366POPC   GL168113  15.213  22.888   6.164
 5366POPC   GL268114  15.179  23.032   6.164
 5366POPC   C1A68115  15.171  22.936   6.464
 5366POPC   D2A68116  15.169  22.946   6.764
 5366POPC   C3A68117  15.202  22.921   7.064
 5366POPC   C4A68118  15.186  22.987   7.364
 5366POPC   C1B68119  15.145  23.233   6.464
 5366POPC   C2B68120  15.178  23.141   6.764
 5366POPC   C3B68121  15.126  23.183   7.064
 5366POPC   C4B68122  15.106  23.165   7.364
 5367POPC   NC368123  32.279  14.448   5.564
 5367POPC   PO468124  32.286  14.356   5.864
 5367POPC   GL168125  32.247  14.431   6.164
 5367POPC   GL268126  32.186  14.306   6.164
 5367POPC   C1A68127  32.257  14.395   6.464
 5367POPC   D2A68128  32.233  14.451   6.764
 5367POPC   C3A68129  32.291  14.355   7.064
 5367POPC   C4A68130  32.284  14.441   7.364
 5367POPC   C1B68131  32.067  14.147   6.464
 5367POPC   C2B68132  32.087  14.201   6.764
 5367POPC   C3B68133  32.153  14.188   7.064
 5367POPC   C4B68134  32.146  14.150   7.364
 5368POPC   NC368135  19.049  13.598   5.564
 5368POPC   PO468136  19.024  13.628   5.864
 5368POPC   GL168137  19.043  13.604   6.164
 5368POPC   GL268138  19.134  13.726   6.164
 5368POPC   C1A68139  19.022  13.627   6.464
 5368POPC   D2A68140  19.084  13.610   6.764
 5368POPC   C3A68141  19.091  13.613   7.064
 5368POPC   C4A68142  19.077  13.650   7.364
 5368POPC   C1B68143  19.325  13.735   6.464
 5368POPC   C2B68144  19.257  13.699   6.764
 5368POPC   C3B68145  19.254  13.773   7.064
 5368POPC   C4B68146  19.327  13.783   7.364
 5369POPC   NC368147   7.387  40.757   5.564
 5369POPC   PO468148   7.422  40.775   5.864
 5369POPC   GL168149   7.444  40.741   6.164
 5369POPC   GL268150   7.530  40.682   6.164
 5369POPC   C1A68151   7.412  40.742   6.464
 5369POPC   D2A68152   7.389  40.787   6.764
 5369POPC   C3A68153   7.418  40.813   7.064
 5369POPC   C4A68154   7.453  40.814   7.364
 5369POPC   C1B68155   7.585  40.571   6.464
 5369POPC   C2B68156   7.604  40.621   6.764
 5369POPC   C3B68157   7.582  40.542   7.064
 5369POPC   C4B68158   7.537  40.576   7.364
 5370POPC   NC368159  25.273  32.207   5.564
 5370POPC   PO468160  25.276  32.254   5.864
 5370POPC   GL168161  25.301  32.218   6.164
 5370POPC   GL268162  25.256  32.087   6.164
 5370POPC   C1A68163  25.281  32.228   6.464
 5370POPC   D2A68164  25.255  32.291   6.764
 5370POPC   C3A68165  25.265  32.237   7.064
 5370POPC   C4A68166  25.248  32.208   7.364
 5370POPC   C1B68167  25.163  32.021   6.464
 5370POPC   C2B68168  25.187  31.992   6.764
 5370POPC   C3B68169  25.141  32.044   7.064
 5370POPC   C4B68170  25.195  32.055   7.364
 5371POPC   NC368171  18.322  27.632   5.564
 5371POPC   PO468172  18.321  27.572   5.864
 5371POPC   GL168173  18.295  27.591   6.164
 5371POPC   GL268174  18.144  27.591   6.164
 5371POPC   C1A68175  18.302  27.614   6.464
 5371POPC   D2A68176  18.273  27.594   6.764
 5371POPC   C3A68177  18.302  27.602   7.064
 5371POPC   C4A68178  18.296  27.613   7.364
 5371POPC   C1B68179  17.991  27.550   6.464
 5371POPC   C2B68180  18.029  27.544   6.764
 5371POPC   C3B68181  18.028  27.566   7.064
 5371POPC   C4B68182  18.066  27.584   7.364
 5372POPC   NC368183  15.915  27.618   5.564
 5372POPC   PO468184  15.970  27.607   5.864
 5372POPC   GL168185  15.996  27.598   6.164
 5372POPC   GL268186  16.063  27.621   6.164
 5372POPC   C1A68187  16.001  27.618   6.464
 5372POPC   D2A68188  15.910  27.598   6.764
 5372POPC   C3A68189  15.998  27.603   7.064
 5372POPC   C4A68190  15.981  27.600   7.364
 5372POPC   C1B68191  16.210  27.619   6.464
 5372POPC   C2B68192  16.223  27.691   6.764
 5372POPC   C3B68193  16.245  27.628   7.064
 5372POPC   C4B68194  16.220  27.599   7.364
 5373POPC   NC368195   5.900  40.025   5.564
 5373POPC   PO468196   5.897  40.056   5.864
 5373POPC   GL168197   5.918  40.031   6.164
 5373POPC   GL268198   5.951  40.087   6.164
 5373POPC   C1A68199   5.872  39.965   6.464
 5373POPC   D2A68200   5.848  40.010   6.764
 5373POPC   C3A68201   5.905  40.037   7.064
 5373POPC   C4A68202   5.917  39.991   7.364
 5373POPC   C1B68203   6.087  40.128   6.464
 5373POPC   C2B68204   6.057  40.196   6.764
 5373POPC   C3B68205   6.090  40.167   7.064
 5373POPC   C4B68206   6.084  40.113   7.364
 5374POPC   NC368207   5.123   4.312   5.564
 5374POPC   PO468208   5.060   4.341   5.864
 5374POPC   GL168209   5.125   4.271   6.164
 5374POPC   GL268210   5.065   4.154   6.164
 5374POPC   C1A68211   5.121   4.283   6.464
 5374POPC   D2A68212   5.085   4.283   6.764
 5374POPC   C3A68213   5.099   4.313   7.064
 5374POPC   C4A68214   5.117   4.287   7.364
 5374POPC   C1B68215   5.081   4.086   6.464
 5374POPC   C2B68216   5.159   4.082   6.764
 5374POPC   C3B68217   5.077   4.038   7.064
 5374POPC   C4B68218   5.174   4.109   7.364
 5375POPC   NC368219  12.054   6.658   5.564
 5375POPC   PO468220  12.041   6.679   5.864
 5375POPC   GL168221  12.027   6.657   6.164
 5375POPC   GL268222  12.102   6.492   6.164
 5375POPC   C1A68223  12.115   6.628   6.464
 5375POPC   D2A68224  12.066   6.668   6.764
 5375POPC   C3A68225  12.037   6.694   7.064
 5375POPC   C4A68226  12.087   6.611   7.364
 5375POPC   C1B68227  12.232   6.459   6.464
 5375POPC   C2B68228  12.229   6.389   6.764
 5375POPC   C3B68229  12.182   6.435   7.064
 5375POPC   C4B68230  12.200   6.468   7.364
 5376POPC   NC368231  19.065  31.502   5.564
 5376POPC   PO468232  19.086  31.486   5.864
 5376POPC   GL168233  19.052  31.505   6.164
 5376POPC   GL268234  19.148  31.432   6.164
 5376POPC   C1A68235  19.064  31.442   6.464
 5376POPC   D2A68236  19.029  31.473   6.764
 5376POPC   C3A68237  19.082  31.449   7.064
 5376POPC   C4A68238  19.052  31.426   7.364
 5376POPC   C1B68239  19.284  31.346   6.464
 5376POPC   C2B68240  19.326  31.374   6.764
 5376POPC   C3B68241  19.338  31.433   7.064
 5376POPC   C4B68242  19.256  31.422   7.364
 5377POPC   NC368243  24.538   0.402   5.564
 5377POPC   PO468244  24.513   0.434   5.864
 5377POPC   GL168245  24.537   0.456   6.164
 5377POPC   GL268246  24.413   0.361   6.164
 5377POPC   C1A68247  24.495   0.443   6.464
 5377POPC   D2A68248  24.492   0.435   6.764
 5377POPC   C3A68249  24.485   0.404   7.064
 5377POPC   C4A68250  24.530   0.425   7.364
 5377POPC   C1B68251  24.243   0.343   6.464
 5377POPC   C2B68252  24.236   0.335   6.764
 5377POPC   C3B68253  24.268   0.346   7.064
 5377POPC   C4B68254  24.264   0.361   7.364
 5378POPC   NC368255  26.835  31.440   5.564
 5378POPC   PO468256  26.787  31.522   5.864
 5378POPC   GL168257  26.848  31.425   6.164
 5378POPC   GL268258  26.806  31.564   6.164
 5378POPC   C1A68259  26.823  31.446   6.464
 5378POPC   D2A68260  26.812  31.453   6.764
 5378POPC   C3A68261  26.794  31.493   7.064
 5378POPC   C4A68262  26.842  31.484   7.364
 5378POPC   C1B68263  26.696  31.646   6.464
 5378POPC   C2B68264  26.668  31.675   6.764
 5378POPC   C3B68265  26.691  31.648   7.064
 5378POPC   C4B68266  26.695  31.694   7.364
 5379POPC   NC368267   5.076  41.592   5.564
 5379POPC   PO468268   5.115  41.509   5.864
 5379POPC   GL168269   5.122  41.527   6.164
 5379POPC   GL268270   5.017  41.527   6.164
 5379POPC   C1A68271   5.081  41.558   6.464
 5379POPC   D2A68272   5.058  41.549   6.764
 5379POPC   C3A68273   5.063  41.512   7.064
 5379POPC   C4A68274   5.057  41.585   7.364
 5379POPC   C1B68275   4.891  41.567   6.464
 5379POPC   C2B68276   4.879  41.502   6.764
 5379POPC   C3B68277   4.804  41.509   7.064
 5379POPC   C4B68278   4.845  41.535   7.364
 5380POPC   NC368279  10.495  39.201   5.564
 5380POPC   PO468280  10.561  39.278   5.864
 5380POPC   GL168281  10.523  39.239   6.164
 5380POPC   GL268282  10.663  39.312   6.164
 5380POPC   C1A68283  10.535  39.245   6.464
 5380POPC   D2A68284  10.475  39.227   6.764
 5380POPC   C3A68285  10.495  39.236   7.064
 5380POPC   C4A68286  10.475  39.229   7.364
 5380POPC   C1B68287  10.728  39.305   6.464
 5380POPC   C2B68288  10.814  39.253   6.764
 5380POPC   C3B68289  10.752  39.350   7.064
 5380POPC   C4B68290  10.807  39.318   7.364
 5381POPC   NC368291  25.312   9.761   5.564
 5381POPC   PO468292  25.225   9.779   5.864
 5381POPC   GL168293  25.242   9.782   6.164
 5381POPC   GL268294  25.162   9.763   6.164
 5381POPC   C1A68295  25.253   9.783   6.464
 5381POPC   D2A68296  25.234   9.777   6.764
 5381POPC   C3A68297  25.274   9.731   7.064
 5381POPC   C4A68298  25.260   9.726   7.364
 5381POPC   C1B68299  25.050   9.794   6.464
 5381POPC   C2B68300  25.051   9.756   6.764
 5381POPC   C3B68301  25.038   9.758   7.064
 5381POPC   C4B68302  25.014   9.741   7.364
 5382POPC   NC368303  34.543   1.995   5.564
 5382POPC   PO468304  34.555   1.969   5.864
 5382POPC   GL168305  34.600   1.978   6.164
 5382POPC   GL268306  34.610   2.101   6.164
 5382POPC   C1A68307  34.544   1.950   6.464
 5382POPC   D2A68308  34.538   1.962   6.764
 5382POPC   C3A68309  34.597   1.978   7.064
 5382POPC   C4A68310  34.546   2.009   7.364
 5382POPC   C1B68311  34.635   2.228   6.464
 5382POPC   C2B68312  34.610   2.204   6.764
 5382POPC   C3B68313  34.597   2.221   7.064
 5382POPC   C4B68314  34.626   2.239   7.364
 5383POPC   NC368315  42.342  26.015   5.564
 5383POPC   PO468316  42.358  26.031   5.864
 5383POPC   GL168317  42.306  26.036   6.164
 5383POPC   GL268318  42.407  26.137   6.164
 5383POPC   C1A68319  42.307  26.082   6.464
 5383POPC   D2A68320  42.326  26.037   6.764
 5383POPC   C3A68321  42.383  26.066   7.064
 5383POPC   C4A68322  42.344  26.040   7.364
 5383POPC   C1B68323  42.551  26.188   6.464
 5383POPC   C2B68324  42.508  26.190   6.764
 5383POPC   C3B68325  42.480  26.272   7.064
 5383POPC   C4B68326  42.482  26.204   7.364
 5384POPC   NC368327  25.305  40.744   5.564
 5384POPC   PO468328  25.262  40.810   5.864
 5384POPC   GL168329  25.250  40.774   6.164
 5384POPC   GL268330  25.204  40.696   6.164
 5384POPC   C1A68331  25.271  40.819   6.464
 5384POPC   D2A68332  25.303  40.768   6.764
 5384POPC   C3A68333  25.291  40.826   7.064
 5384POPC   C4A68334  25.218  40.796   7.364
 5384POPC   C1B68335  25.128  40.660   6.464
 5384POPC   C2B68336  25.122  40.612   6.764
 5384POPC   C3B68337  25.076  40.567   7.064
 5384POPC   C4B68338  25.121  40.624   7.364
 5385POPC   NC368339  19.047  39.226   5.564
 5385POPC   PO468340  19.093  39.213   5.864
 5385POPC   GL168341  19.098  39.224   6.164
 5385POPC   GL268342  19.074  39.351   6.164
 5385POPC   C1A68343  19.075  39.274   6.464
 5385POPC   D2A68344  19.015  39.275   6.764
 5385POPC   C3A68345  19.014  39.188   7.064
 5385POPC   C4A68346  19.058  39.245   7.364
 5385POPC   C1B68347  19.081  39.433   6.464
 5385POPC   C2B68348  19.146  39.518   6.764
 5385POPC   C3B68349  19.134  39.461   7.064
 5385POPC   C4B68350  19.113  39.524   7.364
 5386POPC   NC368351   9.009   7.374   5.564
 5386POPC   PO468352   8.940   7.402   5.864
 5386POPC   GL168353   8.961   7.402   6.164
 5386POPC   GL268354   9.059   7.489   6.164
 5386POPC   C1A68355   8.941   7.407   6.464
 5386POPC   D2A68356   9.001   7.469   6.764
 5386POPC   C3A68357   9.009   7.428   7.064
 5386POPC   C4A68358   8.980   7.401   7.364
 5386POPC   C1B68359   9.262   7.429   6.464
 5386POPC   C2B68360   9.188   7.439   6.764
 5386POPC   C3B68361   9.258   7.440   7.064
 5386POPC   C4B68362   9.219   7.513   7.364
 5387POPC   NC368363  10.481  12.866   5.564
 5387POPC   PO468364  10.521  12.888   5.864
 5387POPC   GL168365  10.519  12.846   6.164
 5387POPC   GL268366  10.420  12.963   6.164
 5387POPC   C1A68367  10.569  12.896   6.464
 5387POPC   D2A68368  10.489  12.831   6.764
 5387POPC   C3A68369  10.563  12.858   7.064
 5387POPC   C4A68370  10.560  12.897   7.364
 5387POPC   C1B68371  10.389  13.088   6.464
 5387POPC   C2B68372  10.428  13.086   6.764
 5387POPC   C3B68373  10.375  13.074   7.064
 5387POPC   C4B68374  10.355  13.039   7.364
 5388POPC   NC368375   6.685   0.446   5.564
 5388POPC   PO468376   6.654   0.474   5.864
 5388POPC   GL168377   6.674   0.477   6.164
 5388POPC   GL268378   6.706   0.306   6.164
 5388POPC   C1A68379   6.597   0.431   6.464
 5388POPC   D2A68380   6.682   0.476   6.764
 5388POPC   C3A68381   6.674   0.422   7.064
 5388POPC   C4A68382   6.596   0.398   7.364
 5388POPC   C1B68383   6.813   0.268   6.464
 5388POPC   C2B68384   6.794   0.273   6.764
 5388POPC   C3B68385   6.843   0.262   7.064
 5388POPC   C4B68386   6.814   0.249   7.364
 5389POPC   NC368387  22.932  26.030   5.564
 5389POPC   PO468388  22.949  26.091   5.864
 5389POPC   GL168389  22.974  26.058   6.164
 5389POPC   GL268390  22.781  26.124   6.164
 5389POPC   C1A68391  22.964  26.036   6.464
 5389POPC   D2A68392  22.968  26.018   6.764
 5389POPC   C3A68393  22.945  25.999   7.064
 5389POPC   C4A68394  22.981  26.072   7.364
 5389POPC   C1B68395  22.668  26.083   6.464
 5389POPC   C2B68396  22.688  26.140   6.764
 5389POPC   C3B68397  22.693  26.124   7.064
 5389POPC   C4B68398  22.740  26.115   7.364
 5390POPC   NC368399  26.835  39.249   5.564
 5390POPC   PO468400  26.803  39.258   5.864
 5390POPC   GL168401  26.797  39.243   6.164
 5390POPC   GL268402  26.860  39.124   6.164
 5390POPC   C1A68403  26.807  39.212   6.464
 5390POPC   D2A68404  26.799  39.280   6.764
 5390POPC   C3A68405  26.819  39.208   7.064
 5390POPC   C4A68406  26.851  39.247   7.364
 5390POPC   C1B68407  26.972  39.035   6.464
 5390POPC   C2B68408  26.998  39.072   6.764
 5390POPC   C3B68409  26.961  39.085   7.064
 5390POPC   C4B68410  27.008  39.047   7.364
 5391POPC   NC368411  17.468  14.409   5.564
 5391POPC   PO468412  17.491  14.425   5.864
 5391POPC   GL168413  17.467  14.386   6.164
 5391POPC   GL268414  17.532  14.552   6.164
 5391POPC   C1A68415  17.496  14.389   6.464
 5391POPC   D2A68416  17.496  14.440   6.764
 5391POPC   C3A68417  17.548  14.434   7.064
 5391POPC   C4A68418  17.541  14.380   7.364
 5391POPC   C1B68419  17.659  14.569   6.464
 5391POPC   C2B68420  17.609  14.641   6.764
 5391POPC   C3B68421  17.617  14.582   7.064
 5391POPC   C4B68422  17.608  14.596   7.364
 5392POPC   NC368423   3.577  17.472   5.564
 5392POPC   PO468424   3.495  17.524   5.864
 5392POPC   GL168425   3.496  17.540   6.164
 5392POPC   GL268426   3.372  17.464   6.164
 5392POPC   C1A68427   3.511  17.504   6.464
 5392POPC   D2A68428   3.541  17.490   6.764
 5392POPC   C3A68429   3.585  17.466   7.064
 5392POPC   C4A68430   3.559  17.457   7.364
 5392POPC   C1B68431   3.346  17.401   6.464
 5392POPC   C2B68432   3.264  17.447   6.764
 5392POPC   C3B68433   3.258  17.420   7.064
 5392POPC   C4B68434   3.283  17.455   7.364
 5393POPC   NC368435  15.131  16.707   5.564
 5393POPC   PO468436  15.187  16.730   5.864
 5393POPC   GL168437  15.156  16.685   6.164
 5393POPC   GL268438  15.349  16.798   6.164
 5393POPC   C1A68439  15.201  16.707   6.464
 5393POPC   D2A68440  15.192  16.703   6.764
 5393POPC   C3A68441  15.209  16.760   7.064
 5393POPC   C4A68442  15.176  16.716   7.364
 5393POPC   C1B68443  15.442  16.798   6.464
 5393POPC   C2B68444  15.379  16.790   6.764
 5393POPC   C3B68445  15.458  16.759   7.064
 5393POPC   C4B68446  15.415  16.744   7.364
 5394POPC   NC368447  19.879  36.150   5.564
 5394POPC   PO468448  19.804  36.104   5.864
 5394POPC   GL168449  19.843  36.170   6.164
 5394POPC   GL268450  19.718  36.251   6.164
 5394POPC   C1A68451  19.802  36.098   6.464
 5394POPC   D2A68452  19.847  36.137   6.764
 5394POPC   C3A68453  19.869  36.131   7.064
 5394POPC   C4A68454  19.809  36.163   7.364
 5394POPC   C1B68455  19.629  36.281   6.464
 5394POPC   C2B68456  19.673  36.346   6.764
 5394POPC   C3B68457  19.639  36.327   7.064
 5394POPC   C4B68458  19.649  36.299   7.364
 5395POPC   NC368459  14.374  43.890   5.564
 5395POPC   PO468460  14.433  43.871   5.864
 5395POPC   GL168461  14.367  43.923   6.164
 5395POPC   GL268462  14.464  43.790   6.164
 5395POPC   C1A68463  14.424  43.925   6.464
 5395POPC   D2A68464  14.389  43.884   6.764
 5395POPC   C3A68465  14.358  43.883   7.064
 5395POPC   C4A68466  14.443  43.861   7.364
 5395POPC   C1B68467  14.623  43.754   6.464
 5395POPC   C2B68468  14.623  43.763   6.764
 5395POPC   C3B68469  14.578  43.761   7.064
 5395POPC   C4B68470  14.662  43.777   7.364
 5396POPC   NC368471   8.196  41.549   5.564
 5396POPC   PO468472   8.171  41.539   5.864
 5396POPC   GL168473   8.222  41.592   6.164
 5396POPC   GL268474   8.324  41.489   6.164
 5396POPC   C1A68475   8.229  41.591   6.464
 5396POPC   D2A68476   8.157  41.546   6.764
 5396POPC   C3A68477   8.190  41.529   7.064
 5396POPC   C4A68478   8.177  41.576   7.364
 5396POPC   C1B68479   8.469  41.496   6.464
 5396POPC   C2B68480   8.400  41.546   6.764
 5396POPC   C3B68481   8.421  41.498   7.064
 5396POPC   C4B68482   8.425  41.492   7.364
 5397POPC   NC368483  22.903  14.450   5.564
 5397POPC   PO468484  22.924  14.420   5.864
 5397POPC   GL168485  22.931  14.367   6.164
 5397POPC   GL268486  23.007  14.440   6.164
 5397POPC   C1A68487  22.934  14.448   6.464
 5397POPC   D2A68488  22.949  14.404   6.764
 5397POPC   C3A68489  22.893  14.435   7.064
 5397POPC   C4A68490  22.982  14.437   7.364
 5397POPC   C1B68491  23.161  14.526   6.464
 5397POPC   C2B68492  23.149  14.461   6.764
 5397POPC   C3B68493  23.188  14.477   7.064
 5397POPC   C4B68494  23.210  14.545   7.364
 5398POPC   NC368495  42.347  14.451   5.564
 5398POPC   PO468496  42.339  14.403   5.864
 5398POPC   GL168497  42.303  14.421   6.164
 5398POPC   GL268498  42.341  14.502   6.164
 5398POPC   C1A68499  42.307  14.439   6.464
 5398POPC   D2A68500  42.294  14.432   6.764
 5398POPC   C3A68501  42.350  14.432   7.064
 5398POPC   C4A68502  42.298  14.365   7.364
 5398POPC   C1B68503  42.287  14.691   6.464
 5398POPC   C2B68504  42.368  14.660   6.764
 5398POPC   C3B68505  42.300  14.625   7.064
 5398POPC   C4B68506  42.281  14.612   7.364
 5399POPC   NC368507  28.342  35.368   5.564
 5399POPC   PO468508  28.378  35.343   5.864
 5399POPC   GL168509  28.408  35.318   6.164
 5399POPC   GL268510  28.266  35.211   6.164
 5399POPC   C1A68511  28.416  35.311   6.464
 5399POPC   D2A68512  28.343  35.315   6.764
 5399POPC   C3A68513  28.342  35.396   7.064
 5399POPC   C4A68514  28.391  35.359   7.364
 5399POPC   C1B68515  28.257  35.153   6.464
 5399POPC   C2B68516  28.183  35.126   6.764
 5399POPC   C3B68517  28.231  35.110   7.064
 5399POPC   C4B68518  28.274  35.190   7.364
 5400POPC   NC368519   1.237  43.146   5.564
 5400POPC   PO468520   1.188  43.098   5.864
 5400POPC   GL168521   1.190  43.065   6.164
 5400POPC   GL268522   1.298  43.047   6.164
 5400POPC   C1A68523   1.213  43.153   6.464
 5400POPC   D2A68524   1.206  43.085   6.764
 5400POPC   C3A68525   1.221  43.061   7.064
 5400POPC   C4A68526   1.198  43.062   7.364
 5400POPC   C1B68527   1.385  42.970   6.464
 5400POPC   C2B68528   1.374  42.930   6.764
 5400POPC   C3B68529   1.398  42.949   7.064
 5400POPC   C4B68530   1.337  42.896   7.364
 5401POPC   NC368531  17.477   5.825   5.564
 5401POPC   PO468532  17.462   5.821   5.864
 5401POPC   GL168533  17.554   5.820   6.164
 5401POPC   GL268534  17.430   5.989   6.164
 5401POPC   C1A68535  17.464   5.871   6.464
 5401POPC   D2A68536  17.490   5.837   6.764
 5401POPC   C3A68537  17.518   5.835   7.064
 5401POPC   C4A68538  17.549   5.871   7.364
 5401POPC   C1B68539  17.313   6.031   6.464
 5401POPC   C2B68540  17.362   6.025   6.764
 5401POPC   C3B68541  17.290   6.069   7.064
 5401POPC   C4B68542  17.311   6.043   7.364
 5402POPC   NC368543  18.235  14.365   5.564
 5402POPC   PO468544  18.241  14.381   5.864
 5402POPC   GL168545  18.269  14.447   6.164
 5402POPC   GL268546  18.227  14.569   6.164
 5402POPC   C1A68547  18.327  14.432   6.464
 5402POPC   D2A68548  18.304  14.426   6.764
 5402POPC   C3A68549  18.239  14.385   7.064
 5402POPC   C4A68550  18.288  14.400   7.364
 5402POPC   C1B68551  18.205  14.694   6.464
 5402POPC   C2B68552  18.238  14.662   6.764
 5402POPC   C3B68553  18.199  14.684   7.064
 5402POPC   C4B68554  18.219  14.665   7.364
 5403POPC   NC368555  35.308   6.613   5.564
 5403POPC   PO468556  35.363   6.650   5.864
 5403POPC   GL168557  35.307   6.655   6.164
 5403POPC   GL268558  35.413   6.687   6.164
 5403POPC   C1A68559  35.319   6.631   6.464
 5403POPC   D2A68560  35.323   6.688   6.764
 5403POPC   C3A68561  35.347   6.646   7.064
 5403POPC   C4A68562  35.367   6.604   7.364
 5403POPC   C1B68563  35.537   6.824   6.464
 5403POPC   C2B68564  35.547   6.843   6.764
 5403POPC   C3B68565  35.528   6.792   7.064
 5403POPC   C4B68566  35.524   6.802   7.364
 5404POPC   NC368567   9.703  11.259   5.564
 5404POPC   PO468568   9.723  11.298   5.864
 5404POPC   GL168569   9.739  11.257   6.164
 5404POPC   GL268570   9.647  11.360   6.164
 5404POPC   C1A68571   9.740  11.273   6.464
 5404POPC   D2A68572   9.762  11.258   6.764
 5404POPC   C3A68573   9.721  11.257   7.064
 5404POPC   C4A68574   9.712  11.349   7.364
 5404POPC   C1B68575   9.588  11.493   6.464
 5404POPC   C2B68576   9.597  11.500   6.764
 5404POPC   C3B68577   9.577  11.491   7.064
 5404POPC   C4B68578   9.598  11.411   7.364
 5405POPC   NC368579  16.730  14.399   5.564
 5405POPC   PO468580  16.753  14.383   5.864
 5405POPC   GL168581  16.761  14.405   6.164
 5405POPC   GL268582  16.647  14.444   6.164
 5405POPC   C1A68583  16.684  14.357   6.464
 5405POPC   D2A68584  16.774  14.434   6.764
 5405POPC   C3A68585  16.757  14.358   7.064
 5405POPC   C4A68586  16.707  14.395   7.364
 5405POPC   C1B68587  16.539  14.442   6.464
 5405POPC   C2B68588  16.507  14.531   6.764
 5405POPC   C3B68589  16.501  14.434   7.064
 5405POPC   C4B68590  16.494  14.449   7.364
 5406POPC   NC368591  42.329   8.980   5.564
 5406POPC   PO468592  42.336   8.927   5.864
 5406POPC   GL168593  42.325   9.014   6.164
 5406POPC   GL268594  42.444   9.032   6.164
 5406POPC   C1A68595  42.359   9.001   6.464
 5406POPC   D2A68596  42.306   8.958   6.764
 5406POPC   C3A68597  42.326   8.977   7.064
 5406POPC   C4A68598  42.319   9.009   7.364
 5406POPC   C1B68599  42.548   9.148   6.464
 5406POPC   C2B68600  42.542   9.121   6.764
 5406POPC   C3B68601  42.502   9.077   7.064
 5406POPC   C4B68602  42.553   9.093   7.364
 5407POPC   NC368603  32.986   1.977   5.564
 5407POPC   PO468604  33.059   1.971   5.864
 5407POPC   GL168605  33.050   1.967   6.164
 5407POPC   GL268606  33.142   1.920   6.164
 5407POPC   C1A68607  33.070   2.023   6.464
 5407POPC   D2A68608  33.070   1.995   6.764
 5407POPC   C3A68609  33.029   2.039   7.064
 5407POPC   C4A68610  32.997   1.946   7.364
 5407POPC   C1B68611  33.300   1.899   6.464
 5407POPC   C2B68612  33.215   1.936   6.764
 5407POPC   C3B68613  33.239   1.874   7.064
 5407POPC   C4B68614  33.277   1.942   7.364
 5408POPC   NC368615  15.218  39.218   5.564
 5408POPC   PO468616  15.219  39.240   5.864
 5408POPC   GL168617  15.157  39.270   6.164
 5408POPC   GL268618  15.103  39.077   6.164
 5408POPC   C1A68619  15.152  39.183   6.464
 5408POPC   D2A68620  15.197  39.210   6.764
 5408POPC   C3A68621  15.170  39.277   7.064
 5408POPC   C4A68622  15.150  39.228   7.364
 5408POPC   C1B68623  15.143  38.989   6.464
 5408POPC   C2B68624  15.083  39.029   6.764
 5408POPC   C3B68625  15.115  38.963   7.064
 5408POPC   C4B68626  15.138  38.993   7.364
 5409POPC   NC368627   4.353  44.646   5.564
 5409POPC   PO468628   4.331  44.625   5.864
 5409POPC   GL168629   4.362  44.685   6.164
 5409POPC   GL268630   4.233  44.633   6.164
 5409POPC   C1A68631   4.358  44.630   6.464
 5409POPC   D2A68632   4.333  44.635   6.764
 5409POPC   C3A68633   4.274  44.680   7.064
 5409POPC   C4A68634   4.299  44.695   7.364
 5409POPC   C1B68635   4.118  44.517   6.464
 5409POPC   C2B68636   4.141  44.521   6.764
 5409POPC   C3B68637   4.128  44.510   7.064
 5409POPC   C4B68638   4.151  44.515   7.364
 5410POPC   NC368639  27.560   9.728   5.564
 5410POPC   PO468640  27.635   9.785   5.864
 5410POPC   GL168641  27.549   9.733   6.164
 5410POPC   GL268642  27.504   9.770   6.164
 5410POPC   C1A68643  27.583   9.781   6.464
 5410POPC   D2A68644  27.622   9.756   6.764
 5410POPC   C3A68645  27.601   9.797   7.064
 5410POPC   C4A68646  27.568   9.748   7.364
 5410POPC   C1B68647  27.393   9.731   6.464
 5410POPC   C2B68648  27.379   9.799   6.764
 5410POPC   C3B68649  27.372   9.798   7.064
 5410POPC   C4B68650  27.390   9.780   7.364
 5411POPC   NC368651  32.241  24.493   5.564
 5411POPC   PO468652  32.222  24.458   5.864
 5411POPC   GL168653  32.262  24.507   6.164
 5411POPC   GL268654  32.324  24.537   6.164
 5411POPC   C1A68655  32.236  24.518   6.464
 5411POPC   D2A68656  32.225  24.521   6.764
 5411POPC   C3A68657  32.207  24.463   7.064
 5411POPC   C4A68658  32.245  24.539   7.364
 5411POPC   C1B68659  32.502  24.512   6.464
 5411POPC   C2B68660  32.539  24.536   6.764
 5411POPC   C3B68661  32.466  24.524   7.064
 5411POPC   C4B68662  32.497  24.476   7.364
 5412POPC   NC368663  14.377  33.010   5.564
 5412POPC   PO468664  14.373  32.987   5.864
 5412POPC   GL168665  14.440  32.998   6.164
 5412POPC   GL268666  14.358  32.955   6.164
 5412POPC   C1A68667  14.382  33.036   6.464
 5412POPC   D2A68668  14.355  33.009   6.764
 5412POPC   C3A68669  14.445  33.036   7.064
 5412POPC   C4A68670  14.452  33.040   7.364
 5412POPC   C1B68671  14.289  32.851   6.464
 5412POPC   C2B68672  14.228  32.845   6.764
 5412POPC   C3B68673  14.223  32.795   7.064
 5412POPC   C4B68674  14.199  32.813   7.364
 5413POPC   NC368675   9.794   7.389   5.564
 5413POPC   PO468676   9.771   7.387   5.864
 5413POPC   GL168677   9.716   7.450   6.164
 5413POPC   GL268678   9.785   7.343   6.164
 5413POPC   C1A68679   9.741   7.380   6.464
 5413POPC   D2A68680   9.766   7.432   6.764
 5413POPC   C3A68681   9.753   7.445   7.064
 5413POPC   C4A68682   9.717   7.409   7.364
 5413POPC   C1B68683   9.775   7.160   6.464
 5413POPC   C2B68684   9.791   7.137   6.764
 5413POPC   C3B68685   9.867   7.154   7.064
 5413POPC   C4B68686   9.857   7.201   7.364
 5414POPC   NC368687   9.783  33.797   5.564
 5414POPC   PO468688   9.772  33.784   5.864
 5414POPC   GL168689   9.751  33.777   6.164
 5414POPC   GL268690   9.702  33.928   6.164
 5414POPC   C1A68691   9.708  33.809   6.464
 5414POPC   D2A68692   9.784  33.835   6.764
 5414POPC   C3A68693   9.776  33.813   7.064
 5414POPC   C4A68694   9.701  33.777   7.364
 5414POPC   C1B68695   9.590  33.985   6.464
 5414POPC   C2B68696   9.635  34.011   6.764
 5414POPC   C3B68697   9.664  33.995   7.064
 5414POPC   C4B68698   9.634  33.982   7.364
 5415POPC   NC368699   2.723  15.208   5.564
 5415POPC   PO468700   2.793  15.181   5.864
 5415POPC   GL168701   2.794  15.201   6.164
 5415POPC   GL268702   2.696  15.261   6.164
 5415POPC   C1A68703   2.738  15.144   6.464
 5415POPC   D2A68704   2.716  15.212   6.764
 5415POPC   C3A68705   2.773  15.206   7.064
 5415POPC   C4A68706   2.763  15.160   7.364
 5415POPC   C1B68707   2.537  15.299   6.464
 5415POPC   C2B68708   2.523  15.365   6.764
 5415POPC   C3B68709   2.608  15.316   7.064
 5415POPC   C4B68710   2.603  15.329   7.364
 5416POPC   NC368711  40.754   1.965   5.564
 5416POPC   PO468712  40.786   2.039   5.864
 5416POPC   GL168713  40.734   2.004   6.164
 5416POPC   GL268714  40.847   1.916   6.164
 5416POPC   C1A68715  40.827   2.039   6.464
 5416POPC   D2A68716  40.810   1.969   6.764
 5416POPC   C3A68717  40.784   1.964   7.064
 5416POPC   C4A68718  40.773   1.965   7.364
 5416POPC   C1B68719  40.878   1.722   6.464
 5416POPC   C2B68720  40.875   1.743   6.764
 5416POPC   C3B68721  40.865   1.789   7.064
 5416POPC   C4B68722  40.897   1.766   7.364
 5417POPC   NC368723   8.925   1.190   5.564
 5417POPC   PO468724   8.954   1.201   5.864
 5417POPC   GL168725   8.974   1.201   6.164
 5417POPC   GL268726   8.824   1.219   6.164
 5417POPC   C1A68727   8.925   1.245   6.464
 5417POPC   D2A68728   8.934   1.188   6.764
 5417POPC   C3A68729   8.991   1.174   7.064
 5417POPC   C4A68730   8.967   1.199   7.364
 5417POPC   C1B68731   8.692   1.109   6.464
 5417POPC   C2B68732   8.774   1.119   6.764
 5417POPC   C3B68733   8.727   1.126   7.064
 5417POPC   C4B68734   8.699   1.096   7.364
 5418POPC   NC368735  15.973  21.364   5.564
 5418POPC   PO468736  15.950  21.348   5.864
 5418POPC   GL168737  15.965  21.366   6.164
 5418POPC   GL268738  15.943  21.537   6.164
 5418POPC   C1A68739  15.973  21.406   6.464
 5418POPC   D2A68740  15.969  21.419   6.764
 5418POPC   C3A68741  15.970  21.346   7.064
 5418POPC   C4A68742  15.918  21.407   7.364
 5418POPC   C1B68743  15.958  21.614   6.464
 5418POPC   C2B68744  15.939  21.589   6.764
 5418POPC   C3B68745  16.018  21.650   7.064
 5418POPC   C4B68746  15.963  21.647   7.364
 5419POPC   NC368747  10.535  29.885   5.564
 5419POPC   PO468748  10.476  29.951   5.864
 5419POPC   GL168749  10.534  29.960   6.164
 5419POPC   GL268750  10.568  29.796   6.164
 5419POPC   C1A68751  10.558  29.931   6.464
 5419POPC   D2A68752  10.540  29.923   6.764
 5419POPC   C3A68753  10.569  29.915   7.064
 5419POPC   C4A68754  10.504  29.895   7.364
 5419POPC   C1B68755  10.657  29.669   6.464
 5419POPC   C2B68756  10.665  29.737   6.764
 5419POPC   C3B68757  10.682  29.729   7.064
 5419POPC   C4B68758  10.701  29.725   7.364
 5420POPC   NC368759  29.958  35.399   5.564
 5420POPC   PO468760  29.959  35.329   5.864
 5420POPC   GL168761  29.910  35.327   6.164
 5420POPC   GL268762  29.998  35.269   6.164
 5420POPC   C1A68763  29.929  35.348   6.464
 5420POPC   D2A68764  29.924  35.304   6.764
 5420POPC   C3A68765  29.953  35.334   7.064
 5420POPC   C4A68766  29.909  35.314   7.364
 5420POPC   C1B68767  29.999  35.112   6.464
 5420POPC   C2B68768  30.042  35.102   6.764
 5420POPC   C3B68769  29.966  35.130   7.064
 5420POPC   C4B68770  30.031  35.094   7.364
 5421POPC   NC368771   9.743  44.640   5.564
 5421POPC   PO468772   9.772  44.688   5.864
 5421POPC   GL168773   9.742  44.637   6.164
 5421POPC   GL268774   9.789  44.508   6.164
 5421POPC   C1A68775   9.751  44.709   6.464
 5421POPC   D2A68776   9.721  44.629   6.764
 5421POPC   C3A68777   9.722  44.637   7.064
 5421POPC   C4A68778   9.709  44.694   7.364
 5421POPC   C1B68779   9.847  44.428   6.464
 5421POPC   C2B68780   9.900  44.474   6.764
 5421POPC   C3B68781   9.886  44.468   7.064
 5421POPC   C4B68782   9.891  44.431   7.364
 5422POPC   NC368783  25.999  31.484   5.564
 5422POPC   PO468784  26.055  31.510   5.864
 5422POPC   GL168785  26.002  31.439   6.164
 5422POPC   GL268786  25.945  31.577   6.164
 5422POPC   C1A68787  26.013  31.476   6.464
 5422POPC   D2A68788  26.083  31.505   6.764
 5422POPC   C3A68789  26.072  31.474   7.064
 5422POPC   C4A68790  26.058  31.513   7.364
 5422POPC   C1B68791  25.793  31.626   6.464
 5422POPC   C2B68792  25.794  31.611   6.764
 5422POPC   C3B68793  25.794  31.590   7.064
 5422POPC   C4B68794  25.864  31.651   7.364
 5423POPC   NC368795  33.795   5.900   5.564
 5423POPC   PO468796  33.804   5.885   5.864
 5423POPC   GL168797  33.802   5.867   6.164
 5423POPC   GL268798  33.703   5.901   6.164
 5423POPC   C1A68799  33.820   5.871   6.464
 5423POPC   D2A68800  33.814   5.896   6.764
 5423POPC   C3A68801  33.822   5.863   7.064
 5423POPC   C4A68802  33.834   5.842   7.364
 5423POPC   C1B68803  33.545   5.998   6.464
 5423POPC   C2B68804  33.533   5.970   6.764
 5423POPC   C3B68805  33.630   6.028   7.064
 5423POPC   C4B68806  33.578   6.007   7.364
 5424POPC   NC368807   5.046  35.304   5.564
 5424POPC   PO468808   5.049  35.355   5.864
 5424POPC   GL168809   5.140  35.378   6.164
 5424POPC   GL268810   5.022  35.461   6.164
 5424POPC   C1A68811   5.043  35.332   6.464
 5424POPC   D2A68812   5.067  35.332   6.764
 5424POPC   C3A68813   5.044  35.329   7.064
 5424POPC   C4A68814   5.059  35.356   7.364
 5424POPC   C1B68815   5.009  35.589   6.464
 5424POPC   C2B68816   4.993  35.610   6.764
 5424POPC   C3B68817   5.024  35.600   7.064
 5424POPC   C4B68818   4.975  35.581   7.364
 5425POPC   NC368819   1.211  33.790   5.564
 5425POPC   PO468820   1.215  33.765   5.864
 5425POPC   GL168821   1.202  33.805   6.164
 5425POPC   GL268822   1.068  33.832   6.164
 5425POPC   C1A68823   1.221  33.800   6.464
 5425POPC   D2A68824   1.202  33.770   6.764
 5425POPC   C3A68825   1.180  33.756   7.064
 5425POPC   C4A68826   1.261  33.847   7.364
 5425POPC   C1B68827   0.963  33.931   6.464
 5425POPC   C2B68828   0.993  33.969   6.764
 5425POPC   C3B68829   1.012  33.981   7.064
 5425POPC   C4B68830   0.971  33.943   7.364
 5426POPC   NC368831  19.802  24.474   5.564
 5426POPC   PO468832  19.799  24.498   5.864
 5426POPC   GL168833  19.811  24.497   6.164
 5426POPC   GL268834  19.729  24.382   6.164
 5426POPC   C1A68835  19.836  24.448   6.464
 5426POPC   D2A68836  19.866  24.514   6.764
 5426POPC   C3A68837  19.837  24.470   7.064
 5426POPC   C4A68838  19.862  24.449   7.364
 5426POPC   C1B68839  19.717  24.322   6.464
 5426POPC   C2B68840  19.666  24.337   6.764
 5426POPC   C3B68841  19.633  24.275   7.064
 5426POPC   C4B68842  19.650  24.252   7.364
 5427POPC   NC368843   5.919  34.542   5.564
 5427POPC   PO468844   5.903  34.574   5.864
 5427POPC   GL168845   5.918  34.534   6.164
 5427POPC   GL268846   5.833  34.454   6.164
 5427POPC   C1A68847   5.891  34.605   6.464
 5427POPC   D2A68848   5.908  34.598   6.764
 5427POPC   C3A68849   5.894  34.527   7.064
 5427POPC   C4A68850   5.860  34.561   7.364
 5427POPC   C1B68851   5.680  34.394   6.464
 5427POPC   C2B68852   5.731  34.396   6.764
 5427POPC   C3B68853   5.695  34.397   7.064
 5427POPC   C4B68854   5.729  34.329   7.364
 5428POPC   NC368855   5.065  22.959   5.564
 5428POPC   PO468856   5.074  22.929   5.864
 5428POPC   GL168857   5.078  22.963   6.164
 5428POPC   GL268858   5.105  23.035   6.164
 5428POPC   C1A68859   5.049  22.893   6.464
 5428POPC   D2A68860   5.127  22.917   6.764
 5428POPC   C3A68861   5.051  22.985   7.064
 5428POPC   C4A68862   5.112  22.940   7.364
 5428POPC   C1B68863   5.102  23.223   6.464
 5428POPC   C2B68864   5.069  23.188   6.764
 5428POPC   C3B68865   5.139  23.173   7.064
 5428POPC   C4B68866   5.095  23.214   7.364
 5429POPC   NC368867   4.268  40.022   5.564
 5429POPC   PO468868   4.362  40.035   5.864
 5429POPC   GL168869   4.357  40.030   6.164
 5429POPC   GL268870   4.381  39.848   6.164
 5429POPC   C1A68871   4.365  39.965   6.464
 5429POPC   D2A68872   4.309  39.968   6.764
 5429POPC   C3A68873   4.361  40.052   7.064
 5429POPC   C4A68874   4.285  39.987   7.364
 5429POPC   C1B68875   4.439  39.751   6.464
 5429POPC   C2B68876   4.386  39.810   6.764
 5429POPC   C3B68877   4.458  39.818   7.064
 5429POPC   C4B68878   4.456  39.745   7.364
 5430POPC   NC368879  43.856  40.818   5.564
 5430POPC   PO468880  43.911  40.802   5.864
 5430POPC   GL168881  43.922  40.809   6.164
 5430POPC   GL268882  43.799  40.807   6.164
 5430POPC   C1A68883  43.904  40.786   6.464
 5430POPC   D2A68884  43.861  40.784   6.764
 5430POPC   C3A68885  43.897  40.746   7.064
 5430POPC   C4A68886  43.933  40.802   7.364
 5430POPC   C1B68887  43.708  40.883   6.464
 5430POPC   C2B68888  43.706  40.893   6.764
 5430POPC   C3B68889  43.701  40.915   7.064
 5430POPC   C4B68890  43.687  40.960   7.364
 5431POPC   NC368891  36.936  34.596   5.564
 5431POPC   PO468892  36.907  34.531   5.864
 5431POPC   GL168893  36.856  34.528   6.164
 5431POPC   GL268894  36.986  34.665   6.164
 5431POPC   C1A68895  36.939  34.606   6.464
 5431POPC   D2A68896  36.888  34.557   6.764
 5431POPC   C3A68897  36.929  34.571   7.064
 5431POPC   C4A68898  36.943  34.552   7.364
 5431POPC   C1B68899  37.050  34.725   6.464
 5431POPC   C2B68900  37.107  34.800   6.764
 5431POPC   C3B68901  37.048  34.741   7.064
 5431POPC   C4B68902  37.066  34.801   7.364
 5432POPC   NC368903  24.500   9.764   5.564
 5432POPC   PO468904  24.491   9.761   5.864
 5432POPC   GL168905  24.463   9.759   6.164
 5432POPC   GL268906  24.425   9.633   6.164
 5432POPC   C1A68907  24.534   9.700   6.464
 5432POPC   D2A68908  24.441   9.699   6.764
 5432POPC   C3A68909  24.454   9.754   7.064
 5432POPC   C4A68910  24.445   9.759   7.364
 5432POPC   C1B68911  24.401   9.523   6.464
 5432POPC   C2B68912  24.440   9.493   6.764
 5432POPC   C3B68913  24.453   9.461   7.064
 5432POPC   C4B68914  24.445   9.495   7.364
 5433POPC   NC368915  13.641  43.861   5.564
 5433POPC   PO468916  13.580  43.927   5.864
 5433POPC   GL168917  13.675  43.925   6.164
 5433POPC   GL268918  13.708  43.906   6.164
 5433POPC   C1A68919  13.645  43.866   6.464
 5433POPC   D2A68920  13.662  43.921   6.764
 5433POPC   C3A68921  13.641  43.848   7.064
 5433POPC   C4A68922  13.634  43.927   7.364
 5433POPC   C1B68923  13.800  43.980   6.464
 5433POPC   C2B68924  13.868  43.978   6.764
 5433POPC   C3B68925  13.803  44.022   7.064
 5433POPC   C4B68926  13.815  44.056   7.364
 5434POPC   NC368927   5.110   2.756   5.564
 5434POPC   PO468928   5.140   2.810   5.864
 5434POPC   GL168929   5.090   2.812   6.164
 5434POPC   GL268930   5.022   2.905   6.164
 5434POPC   C1A68931   5.115   2.738   6.464
 5434POPC   D2A68932   5.138   2.734   6.764
 5434POPC   C3A68933   5.120   2.752   7.064
 5434POPC   C4A68934   5.069   2.798   7.364
 5434POPC   C1B68935   4.953   2.977   6.464
 5434POPC   C2B68936   4.990   2.962   6.764
 5434POPC   C3B68937   4.938   2.956   7.064
 5434POPC   C4B68938   5.012   2.941   7.364
 5435POPC   NC368939  31.473  22.951   5.564
 5435POPC   PO468940  31.516  22.924   5.864
 5435POPC   GL168941  31.520  22.979   6.164
 5435POPC   GL268942  31.494  22.829   6.164
 5435POPC   C1A68943  31.465  22.908   6.464
 5435POPC   D2A68944  31.513  22.967   6.764
 5435POPC   C3A68945  31.514  22.973   7.064
 5435POPC   C4A68946  31.458  22.918   7.364
 5435POPC   C1B68947  31.593  22.674   6.464
 5435POPC   C2B68948  31.517  22.661   6.764
 5435POPC   C3B68949  31.535  22.690   7.064
 5435POPC   C4B68950  31.561  22.710   7.364
 5436POPC   NC368951  16.691  29.960   5.564
 5436POPC   PO468952  16.742  29.876   5.864
 5436POPC   GL168953  16.770  29.955   6.164
 5436POPC   GL268954  16.645  29.802   6.164
 5436POPC   C1A68955  16.709  29.899   6.464
 5436POPC   D2A68956  16.740  29.956   6.764
 5436POPC   C3A68957  16.735  29.893   7.064
 5436POPC   C4A68958  16.713  29.949   7.364
 5436POPC   C1B68959  16.680  29.715   6.464
 5436POPC   C2B68960  16.619  29.663   6.764
 5436POPC   C3B68961  16.674  29.666   7.064
 5436POPC   C4B68962  16.673  29.722   7.364
 5437POPC   NC368963  18.318  29.118   5.564
 5437POPC   PO468964  18.254  29.126   5.864
 5437POPC   GL168965  18.273  29.126   6.164
 5437POPC   GL268966  18.246  29.025   6.164
 5437POPC   C1A68967  18.269  29.122   6.464
 5437POPC   D2A68968  18.242  29.124   6.764
 5437POPC   C3A68969  18.275  29.149   7.064
 5437POPC   C4A68970  18.238  29.121   7.364
 5437POPC   C1B68971  18.194  28.928   6.464
 5437POPC   C2B68972  18.152  28.956   6.764
 5437POPC   C3B68973  18.137  28.917   7.064
 5437POPC   C4B68974  18.188  28.922   7.364
 5438POPC   NC368975   8.168  12.057   5.564
 5438POPC   PO468976   8.236  12.115   5.864
 5438POPC   GL168977   8.169  12.095   6.164
 5438POPC   GL268978   8.234  12.174   6.164
 5438POPC   C1A68979   8.169  12.109   6.464
 5438POPC   D2A68980   8.170  12.102   6.764
 5438POPC   C3A68981   8.229  12.042   7.064
 5438POPC   C4A68982   8.164  12.097   7.364
 5438POPC   C1B68983   8.227  12.312   6.464
 5438POPC   C2B68984   8.161  12.312   6.764
 5438POPC   C3B68985   8.214  12.352   7.064
 5438POPC   C4B68986   8.206  12.349   7.364
 5439POPC   NC368987   4.353  35.338   5.564
 5439POPC   PO468988   4.292  35.335   5.864
 5439POPC   GL168989   4.311  35.393   6.164
 5439POPC   GL268990   4.241  35.443   6.164
 5439POPC   C1A68991   4.280  35.320   6.464
 5439POPC   D2A68992   4.347  35.344   6.764
 5439POPC   C3A68993   4.326  35.336   7.064
 5439POPC   C4A68994   4.346  35.390   7.364
 5439POPC   C1B68995   4.132  35.470   6.464
 5439POPC   C2B68996   4.060  35.432   6.764
 5439POPC   C3B68997   4.096  35.488   7.064
 5439POPC   C4B68998   4.095  35.453   7.364
 5440POPC   NC368999  21.378   4.272   5.564
 5440POPC   PO469000  21.394   4.288   5.864
 5440POPC   GL169001  21.400   4.313   6.164
 5440POPC   GL269002  21.245   4.246   6.164
 5440POPC   C1A69003  21.431   4.318   6.464
 5440POPC   D2A69004  21.342   4.304   6.764
 5440POPC   C3A69005  21.340   4.321   7.064
 5440POPC   C4A69006  21.405   4.275   7.364
 5440POPC   C1B69007  21.142   4.180   6.464
 5440POPC   C2B69008  21.193   4.210   6.764
 5440POPC   C3B69009  21.173   4.125   7.064
 5440POPC   C4B69010  21.189   4.169   7.364
 5441POPC   NC369011   3.513  33.781   5.564
 5441POPC   PO469012   3.549  33.835   5.864
 5441POPC   GL169013   3.554  33.780   6.164
 5441POPC   GL269014   3.454  33.685   6.164
 5441POPC   C1A69015   3.556  33.805   6.464
 5441POPC   D2A69016   3.523  33.848   6.764
 5441POPC   C3A69017   3.575  33.832   7.064
 5441POPC   C4A69018   3.571  33.815   7.364
 5441POPC   C1B69019   3.439  33.605   6.464
 5441POPC   C2B69020   3.361  33.607   6.764
 5441POPC   C3B69021   3.398  33.543   7.064
 5441POPC   C4B69022   3.414  33.556   7.364
 5442POPC   NC369023  16.759  24.465   5.564
 5442POPC   PO469024  16.771  24.502   5.864
 5442POPC   GL169025  16.764  24.446   6.164
 5442POPC   GL269026  16.815  24.449   6.164
 5442POPC   C1A69027  16.736  24.530   6.464
 5442POPC   D2A69028  16.764  24.482   6.764
 5442POPC   C3A69029  16.766  24.486   7.064
 5442POPC   C4A69030  16.714  24.530   7.364
 5442POPC   C1B69031  16.963  24.451   6.464
 5442POPC   C2B69032  16.973  24.492   6.764
 5442POPC   C3B69033  16.980  24.419   7.064
 5442POPC   C4B69034  17.017  24.439   7.364
 5443POPC   NC369035  33.799  36.942   5.564
 5443POPC   PO469036  33.777  36.950   5.864
 5443POPC   GL169037  33.756  36.926   6.164
 5443POPC   GL269038  33.739  36.779   6.164
 5443POPC   C1A69039  33.824  36.877   6.464
 5443POPC   D2A69040  33.758  36.889   6.764
 5443POPC   C3A69041  33.811  36.908   7.064
 5443POPC   C4A69042  33.797  36.948   7.364
 5443POPC   C1B69043  33.666  36.664   6.464
 5443POPC   C2B69044  33.652  36.705   6.764
 5443POPC   C3B69045  33.689  36.683   7.064
 5443POPC   C4B69046  33.617  36.733   7.364
 5444POPC   NC369047  40.791  36.930   5.564
 5444POPC   PO469048  40.739  36.896   5.864
 5444POPC   GL169049  40.773  36.892   6.164
 5444POPC   GL269050  40.778  36.784   6.164
 5444POPC   C1A69051  40.801  36.901   6.464
 5444POPC   D2A69052  40.760  36.918   6.764
 5444POPC   C3A69053  40.769  36.909   7.064
 5444POPC   C4A69054  40.799  36.881   7.364
 5444POPC   C1B69055  40.714  36.630   6.464
 5444POPC   C2B69056  40.728  36.668   6.764
 5444POPC   C3B69057  40.751  36.677   7.064
 5444POPC   C4B69058  40.727  36.637   7.364
 5445POPC   NC369059  30.658   1.184   5.564
 5445POPC   PO469060  30.721   1.215   5.864
 5445POPC   GL169061  30.684   1.216   6.164
 5445POPC   GL269062  30.575   1.224   6.164
 5445POPC   C1A69063  30.731   1.167   6.464
 5445POPC   D2A69064  30.679   1.195   6.764
 5445POPC   C3A69065  30.711   1.169   7.064
 5445POPC   C4A69066  30.678   1.222   7.364
 5445POPC   C1B69067  30.416   1.199   6.464
 5445POPC   C2B69068  30.481   1.178   6.764
 5445POPC   C3B69069  30.416   1.143   7.064
 5445POPC   C4B69070  30.479   1.155   7.364
 5446POPC   NC369071  40.755   1.165   5.564
 5446POPC   PO469072  40.784   1.179   5.864
 5446POPC   GL169073  40.827   1.170   6.164
 5446POPC   GL269074  40.657   1.153   6.164
 5446POPC   C1A69075  40.790   1.253   6.464
 5446POPC   D2A69076  40.819   1.261   6.764
 5446POPC   C3A69077  40.791   1.207   7.064
 5446POPC   C4A69078  40.829   1.248   7.364
 5446POPC   C1B69079  40.538   1.057   6.464
 5446POPC   C2B69080  40.578   1.092   6.764
 5446POPC   C3B69081  40.578   1.022   7.064
 5446POPC   C4B69082  40.536   1.069   7.364
 5447POPC   NC369083  44.688  26.776   5.564
 5447POPC   PO469084  44.688  26.811   5.864
 5447POPC   GL169085  44.645  26.847   6.164
 5447POPC   GL269086  44.815  26.924   6.164
 5447POPC   C1A69087  44.703  26.839   6.464
 5447POPC   D2A69088  44.681  26.808   6.764
 5447POPC   C3A69089  44.619  26.826   7.064
 5447POPC   C4A69090  44.663  26.863   7.364
 5447POPC   C1B69091  44.869  26.911   6.464
 5447POPC   C2B69092  44.864  26.933   6.764
 5447POPC   C3B69093  44.852  26.900   7.064
 5447POPC   C4B69094  44.923  26.957   7.364
 5448POPC   NC369095  21.374  14.405   5.564
 5448POPC   PO469096  21.395  14.426   5.864
 5448POPC   GL169097  21.347  14.440   6.164
 5448POPC   GL269098  21.500  14.462   6.164
 5448POPC   C1A69099  21.412  14.388   6.464
 5448POPC   D2A69100  21.400  14.429   6.764
 5448POPC   C3A69101  21.353  14.430   7.064
 5448POPC   C4A69102  21.433  14.406   7.364
 5448POPC   C1B69103  21.556  14.611   6.464
 5448POPC   C2B69104  21.599  14.585   6.764
 5448POPC   C3B69105  21.525  14.600   7.064
 5448POPC   C4B69106  21.568  14.550   7.364
 5449POPC   NC369107  29.154  34.550   5.564
 5449POPC   PO469108  29.130  34.624   5.864
 5449POPC   GL169109  29.109  34.532   6.164
 5449POPC   GL269110  29.248  34.631   6.164
 5449POPC   C1A69111  29.119  34.615   6.464
 5449POPC   D2A69112  29.194  34.598   6.764
 5449POPC   C3A69113  29.106  34.567   7.064
 5449POPC   C4A69114  29.143  34.591   7.364
 5449POPC   C1B69115  29.284  34.766   6.464
 5449POPC   C2B69116  29.297  34.805   6.764
 5449POPC   C3B69117  29.315  34.799   7.064
 5449POPC   C4B69118  29.262  34.793   7.364
 5450POPC   NC369119  29.100   9.729   5.564
 5450POPC   PO469120  29.129   9.716   5.864
 5450POPC   GL169121  29.096   9.753   6.164
 5450POPC   GL269122  29.304   9.831   6.164
 5450POPC   C1A69123  29.161   9.701   6.464
 5450POPC   D2A69124  29.148   9.747   6.764
 5450POPC   C3A69125  29.170   9.767   7.064
 5450POPC   C4A69126  29.169   9.736   7.364
 5450POPC   C1B69127  29.431   9.861   6.464
 5450POPC   C2B69128  29.428   9.776   6.764
 5450POPC   C3B69129  29.347   9.787   7.064
 5450POPC   C4B69130  29.361   9.811   7.364
 5451POPC   NC369131  27.558  21.344   5.564
 5451POPC   PO469132  27.641  21.415   5.864
 5451POPC   GL169133  27.555  21.364   6.164
 5451POPC   GL269134  27.703  21.535   6.164
 5451POPC   C1A69135  27.556  21.362   6.464
 5451POPC   D2A69136  27.568  21.340   6.764
 5451POPC   C3A69137  27.611  21.402   7.064
 5451POPC   C4A69138  27.572  21.393   7.364
 5451POPC   C1B69139  27.724  21.602   6.464
 5451POPC   C2B69140  27.697  21.595   6.764
 5451POPC   C3B69141  27.752  21.628   7.064
 5451POPC   C4B69142  27.723  21.536   7.364
 5452POPC   NC369143  10.504  34.593   5.564
 5452POPC   PO469144  10.566  34.606   5.864
 5452POPC   GL169145  10.524  34.552   6.164
 5452POPC   GL269146  10.566  34.457   6.164
 5452POPC   C1A69147  10.530  34.557   6.464
 5452POPC   D2A69148  10.555  34.590   6.764
 5452POPC   C3A69149  10.476  34.551   7.064
 5452POPC   C4A69150  10.496  34.573   7.364
 5452POPC   C1B69151  10.652  34.380   6.464
 5452POPC   C2B69152  10.569  34.363   6.764
 5452POPC   C3B69153  10.632  34.336   7.064
 5452POPC   C4B69154  10.607  34.328   7.364
 5453POPC   NC369155   7.392  33.790   5.564
 5453POPC   PO469156   7.421  33.772   5.864
 5453POPC   GL169157   7.387  33.751   6.164
 5453POPC   GL269158   7.547  33.733   6.164
 5453POPC   C1A69159   7.407  33.829   6.464
 5453POPC   D2A69160   7.434  33.785   6.764
 5453POPC   C3A69161   7.393  33.787   7.064
 5453POPC   C4A69162   7.387  33.803   7.364
 5453POPC   C1B69163   7.637  33.636   6.464
 5453POPC   C2B69164   7.599  33.685   6.764
 5453POPC   C3B69165   7.579  33.630   7.064
 5453POPC   C4B69166   7.645  33.626   7.364
 5454POPC   NC369167  15.950  35.397   5.564
 5454POPC   PO469168  15.944  35.325   5.864
 5454POPC   GL169169  15.986  35.332   6.164
 5454POPC   GL269170  15.799  35.369   6.164
 5454POPC   C1A69171  15.985  35.312   6.464
 5454POPC   D2A69172  15.908  35.344   6.764
 5454POPC   C3A69173  15.957  35.400   7.064
 5454POPC   C4A69174  15.927  35.310   7.364
 5454POPC   C1B69175  15.739  35.367   6.464
 5454POPC   C2B69176  15.720  35.320   6.764
 5454POPC   C3B69177  15.658  35.315   7.064
 5454POPC   C4B69178  15.733  35.398   7.364
 5455POPC   NC369179   9.707  28.342   5.564
 5455POPC   PO469180   9.792  28.376   5.864
 5455POPC   GL169181   9.773  28.324   6.164
 5455POPC   GL269182   9.843  28.228   6.164
 5455POPC   C1A69183   9.777  28.406   6.464
 5455POPC   D2A69184   9.783  28.379   6.764
 5455POPC   C3A69185   9.700  28.359   7.064
 5455POPC   C4A69186   9.786  28.387   7.364
 5455POPC   C1B69187   9.910  28.106   6.464
 5455POPC   C2B69188   9.871  28.125   6.764
 5455POPC   C3B69189   9.871  28.163   7.064
 5455POPC   C4B69190   9.847  28.106   7.364
 5456POPC   NC369191   3.509  44.699   5.564
 5456POPC   PO469192   3.575  44.654   5.864
 5456POPC   GL169193   3.574  44.649   6.164
 5456POPC   GL269194   3.473  44.556   6.164
 5456POPC   C1A69195   3.535  44.655   6.464
 5456POPC   D2A69196   3.565  44.656   6.764
 5456POPC   C3A69197   3.515  44.641   7.064
 5456POPC   C4A69198   3.533  44.687   7.364
 5456POPC   C1B69199   3.361  44.488   6.464
 5456POPC   C2B69200   3.419  44.451   6.764
 5456POPC   C3B69201   3.342  44.455   7.064
 5456POPC   C4B69202   3.354  44.501   7.364
 5457POPC   NC369203   5.885  12.804   5.564
 5457POPC   PO469204   5.856  12.820   5.864
 5457POPC   GL169205   5.860  12.884   6.164
 5457POPC   GL269206   5.770  12.893   6.164
 5457POPC   C1A69207   5.873  12.828   6.464
 5457POPC   D2A69208   5.837  12.846   6.764
 5457POPC   C3A69209   5.884  12.820   7.064
 5457POPC   C4A69210   5.867  12.815   7.364
 5457POPC   C1B69211   5.664  12.933   6.464
 5457POPC   C2B69212   5.637  12.888   6.764
 5457POPC   C3B69213   5.648  12.872   7.064
 5457POPC   C4B69214   5.676  12.878   7.364
 5458POPC   NC369215  12.115  40.057   5.564
 5458POPC   PO469216  12.085  40.051   5.864
 5458POPC   GL169217  12.058  39.988   6.164
 5458POPC   GL269218  12.072  40.116   6.164
 5458POPC   C1A69219  12.074  39.979   6.464
 5458POPC   D2A69220  12.092  39.993   6.764
 5458POPC   C3A69221  12.067  40.031   7.064
 5458POPC   C4A69222  12.106  40.037   7.364
 5458POPC   C1B69223  12.121  40.228   6.464
 5458POPC   C2B69224  12.210  40.209   6.764
 5458POPC   C3B69225  12.166  40.228   7.064
 5458POPC   C4B69226  12.128  40.249   7.364
 5459POPC   NC369227  35.310  39.182   5.564
 5459POPC   PO469228  35.387  39.249   5.864
 5459POPC   GL169229  35.376  39.197   6.164
 5459POPC   GL269230  35.445  39.262   6.164
 5459POPC   C1A69231  35.357  39.182   6.464
 5459POPC   D2A69232  35.398  39.236   6.764
 5459POPC   C3A69233  35.333  39.224   7.064
 5459POPC   C4A69234  35.383  39.211   7.364
 5459POPC   C1B69235  35.552  39.275   6.464
 5459POPC   C2B69236  35.547  39.269   6.764
 5459POPC   C3B69237  35.564  39.333   7.064
 5459POPC   C4B69238  35.609  39.318   7.364
 5460POPC   NC369239  36.940  29.907   5.564
 5460POPC   PO469240  36.857  29.963   5.864
 5460POPC   GL169241  36.938  29.944   6.164
 5460POPC   GL269242  36.965  29.800   6.164
 5460POPC   C1A69243  36.921  29.942   6.464
 5460POPC   D2A69244  36.857  29.955   6.764
 5460POPC   C3A69245  36.889  29.882   7.064
 5460POPC   C4A69246  36.902  29.938   7.364
 5460POPC   C1B69247  37.035  29.671   6.464
 5460POPC   C2B69248  37.034  29.652   6.764
 5460POPC   C3B69249  37.015  29.744   7.064
 5460POPC   C4B69250  37.056  29.717   7.364
 5461POPC   NC369251  15.920  41.576   5.564
 5461POPC   PO469252  15.941  41.556   5.864
 5461POPC   GL169253  15.929  41.575   6.164
 5461POPC   GL269254  15.794  41.556   6.164
 5461POPC   C1A69255  15.946  41.578   6.464
 5461POPC   D2A69256  15.984  41.588   6.764
 5461POPC   C3A69257  16.003  41.529   7.064
 5461POPC   C4A69258  15.931  41.545   7.364
 5461POPC   C1B69259  15.723  41.602   6.464
 5461POPC   C2B69260  15.715  41.569   6.764
 5461POPC   C3B69261  15.754  41.574   7.064
 5461POPC   C4B69262  15.697  41.613   7.364
 5462POPC   NC369263  42.346  15.977   5.564
 5462POPC   PO469264  42.357  15.935   5.864
 5462POPC   GL169265  42.355  15.963   6.164
 5462POPC   GL269266  42.253  15.858   6.164
 5462POPC   C1A69267  42.303  15.954   6.464
 5462POPC   D2A69268  42.350  15.912   6.764
 5462POPC   C3A69269  42.303  15.939   7.064
 5462POPC   C4A69270  42.374  15.993   7.364
 5462POPC   C1B69271  42.268  15.744   6.464
 5462POPC   C2B69272  42.238  15.752   6.764
 5462POPC   C3B69273  42.269  15.692   7.064
 5462POPC   C4B69274  42.289  15.738   7.364
 5463POPC   NC369275   7.380  27.614   5.564
 5463POPC   PO469276   7.434  27.581   5.864
 5463POPC   GL169277   7.458  27.622   6.164
 5463POPC   GL269278   7.410  27.750   6.164
 5463POPC   C1A69279   7.374  27.596   6.464
 5463POPC   D2A69280   7.407  27.568   6.764
 5463POPC   C3A69281   7.464  27.633   7.064
 5463POPC   C4A69282   7.424  27.578   7.364
 5463POPC   C1B69283   7.412  27.794   6.464
 5463POPC   C2B69284   7.397  27.810   6.764
 5463POPC   C3B69285   7.401  27.836   7.064
 5463POPC   C4B69286   7.369  27.844   7.364
 5464POPC   NC369287  39.191  27.589   5.564
 5464POPC   PO469288  39.182  27.565   5.864
 5464POPC   GL169289  39.280  27.640   6.164
 5464POPC   GL269290  39.399  27.601   6.164
 5464POPC   C1A69291  39.207  27.579   6.464
 5464POPC   D2A69292  39.260  27.607   6.764
 5464POPC   C3A69293  39.209  27.567   7.064
 5464POPC   C4A69294  39.228  27.626   7.364
 5464POPC   C1B69295  39.436  27.622   6.464
 5464POPC   C2B69296  39.442  27.616   6.764
 5464POPC   C3B69297  39.475  27.597   7.064
 5464POPC   C4B69298  39.528  27.572   7.364
 5465POPC   NC369299  34.578  26.794   5.564
 5465POPC   PO469300  34.562  26.792   5.864
 5465POPC   GL169301  34.535  26.829   6.164
 5465POPC   GL269302  34.473  26.688   6.164
 5465POPC   C1A69303  34.597  26.830   6.464
 5465POPC   D2A69304  34.553  26.849   6.764
 5465POPC   C3A69305  34.611  26.805   7.064
 5465POPC   C4A69306  34.572  26.798   7.364
 5465POPC   C1B69307  34.495  26.591   6.464
 5465POPC   C2B69308  34.499  26.601   6.764
 5465POPC   C3B69309  34.483  26.567   7.064
 5465POPC   C4B69310  34.424  26.629   7.364
 5466POPC   NC369311   3.546  24.524   5.564
 5466POPC   PO469312   3.556  24.442   5.864
 5466POPC   GL169313   3.534  24.520   6.164
 5466POPC   GL269314   3.633  24.552   6.164
 5466POPC   C1A69315   3.575  24.483   6.464
 5466POPC   D2A69316   3.559  24.509   6.764
 5466POPC   C3A69317   3.578  24.468   7.064
 5466POPC   C4A69318   3.493  24.440   7.364
 5466POPC   C1B69319   3.720  24.623   6.464
 5466POPC   C2B69320   3.745  24.609   6.764
 5466POPC   C3B69321   3.747  24.668   7.064
 5466POPC   C4B69322   3.790  24.586   7.364
 5467POPC   NC369323   0.403   9.004   5.564
 5467POPC   PO469324   0.467   8.979   5.864
 5467POPC   GL169325   0.450   8.939   6.164
 5467POPC   GL269326   0.556   8.849   6.164
 5467POPC   C1A69327   0.441   8.965   6.464
 5467POPC   D2A69328   0.408   9.011   6.764
 5467POPC   C3A69329   0.416   8.976   7.064
 5467POPC   C4A69330   0.418   8.943   7.364
 5467POPC   C1B69331   0.576   8.762   6.464
 5467POPC   C2B69332   0.634   8.807   6.764
 5467POPC   C3B69333   0.581   8.787   7.064
 5467POPC   C4B69334   0.594   8.760   7.364
 5468POPC   NC369335  17.472  28.329   5.564
 5468POPC   PO469336  17.487  28.393   5.864
 5468POPC   GL169337  17.527  28.359   6.164
 5468POPC   GL269338  17.393  28.493   6.164
 5468POPC   C1A69339  17.461  28.407   6.464
 5468POPC   D2A69340  17.523  28.334   6.764
 5468POPC   C3A69341  17.503  28.329   7.064
 5468POPC   C4A69342  17.461  28.339   7.364
 5468POPC   C1B69343  17.401  28.628   6.464
 5468POPC   C2B69344  17.345  28.578   6.764
 5468POPC   C3B69345  17.334  28.566   7.064
 5468POPC   C4B69346  17.407  28.545   7.364
 5469POPC   NC369347  22.137   2.807   5.564
 5469POPC   PO469348  22.161   2.775   5.864
 5469POPC   GL169349  22.191   2.747   6.164
 5469POPC   GL269350  22.176   2.893   6.164
 5469POPC   C1A69351  22.128   2.794   6.464
 5469POPC   D2A69352  22.186   2.770   6.764
 5469POPC   C3A69353  22.212   2.746   7.064
 5469POPC   C4A69354  22.150   2.763   7.364
 5469POPC   C1B69355  22.147   3.025   6.464
 5469POPC   C2B69356  22.097   3.037   6.764
 5469POPC   C3B69357  22.140   3.014   7.064
 5469POPC   C4B69358  22.065   3.034   7.364
 5470POPC   NC369359  32.293  16.756   5.564
 5470POPC   PO469360  32.229  16.736   5.864
 5470POPC   GL169361  32.241  16.728   6.164
 5470POPC   GL269362  32.356  16.766   6.164
 5470POPC   C1A69363  32.220  16.764   6.464
 5470POPC   D2A69364  32.286  16.706   6.764
 5470POPC   C3A69365  32.269  16.738   7.064
 5470POPC   C4A69366  32.276  16.730   7.364
 5470POPC   C1B69367  32.430  16.856   6.464
 5470POPC   C2B69368  32.450  16.821   6.764
 5470POPC   C3B69369  32.489  16.869   7.064
 5470POPC   C4B69370  32.445  16.865   7.364
 5471POPC   NC369371   3.544  32.994   5.564
 5471POPC   PO469372   3.537  33.074   5.864
 5471POPC   GL169373   3.511  33.046   6.164
 5471POPC   GL269374   3.647  33.086   6.164
 5471POPC   C1A69375   3.510  33.048   6.464
 5471POPC   D2A69376   3.574  32.989   6.764
 5471POPC   C3A69377   3.553  33.000   7.064
 5471POPC   C4A69378   3.590  33.002   7.364
 5471POPC   C1B69379   3.795  33.148   6.464
 5471POPC   C2B69380   3.759  33.175   6.764
 5471POPC   C3B69381   3.723  33.141   7.064
 5471POPC   C4B69382   3.794  33.106   7.364
 5472POPC   NC369383  15.157   3.505   5.564
 5472POPC   PO469384  15.190   3.560   5.864
 5472POPC   GL169385  15.212   3.500   6.164
 5472POPC   GL269386  15.192   3.430   6.164
 5472POPC   C1A69387  15.153   3.535   6.464
 5472POPC   D2A69388  15.143   3.495   6.764
 5472POPC   C3A69389  15.202   3.540   7.064
 5472POPC   C4A69390  15.147   3.529   7.364
 5472POPC   C1B69391  15.269   3.279   6.464
 5472POPC   C2B69392  15.301   3.290   6.764
 5472POPC   C3B69393  15.319   3.293   7.064
 5472POPC   C4B69394  15.256   3.296   7.364
 5473POPC   NC369395   7.402  12.082   5.564
 5473POPC   PO469396   7.453  12.073   5.864
 5473POPC   GL169397   7.372  12.037   6.164
 5473POPC   GL269398   7.532  12.056   6.164
 5473POPC   C1A69399   7.380  12.070   6.464
 5473POPC   D2A69400   7.450  12.046   6.764
 5473POPC   C3A69401   7.422  12.040   7.064
 5473POPC   C4A69402   7.461  12.032   7.364
 5473POPC   C1B69403   7.712  12.030   6.464
 5473POPC   C2B69404   7.677  12.029   6.764
 5473POPC   C3B69405   7.710  12.095   7.064
 5473POPC   C4B69406   7.685  12.035   7.364
 5474POPC   NC369407  12.855  11.332   5.564
 5474POPC   PO469408  12.833  11.328   5.864
 5474POPC   GL169409  12.884  11.264   6.164
 5474POPC   GL269410  12.920  11.149   6.164
 5474POPC   C1A69411  12.806  11.261   6.464
 5474POPC   D2A69412  12.811  11.346   6.764
 5474POPC   C3A69413  12.850  11.336   7.064
 5474POPC   C4A69414  12.831  11.328   7.364
 5474POPC   C1B69415  12.912  11.003   6.464
 5474POPC   C2B69416  12.928  11.016   6.764
 5474POPC   C3B69417  12.913  11.056   7.064
 5474POPC   C4B69418  12.917  11.041   7.364
 5475POPC   NC369419  33.839  44.673   5.564
 5475POPC   PO469420  33.833  44.669   5.864
 5475POPC   GL169421  33.797  44.701   6.164
 5475POPC   GL269422  33.935  44.651   6.164
 5475POPC   C1A69423  33.754  44.660   6.464
 5475POPC   D2A69424  33.845  44.669   6.764
 5475POPC   C3A69425  33.813  44.703   7.064
 5475POPC   C4A69426  33.814  44.683   7.364
 5475POPC   C1B69427  34.013  44.753   6.464
 5475POPC   C2B69428  34.075  44.715   6.764
 5475POPC   C3B69429  34.076  44.672   7.064
 5475POPC   C4B69430  34.090  44.689   7.364
 5476POPC   NC369431  14.363   4.307   5.564
 5476POPC   PO469432  14.407   4.330   5.864
 5476POPC   GL169433  14.443   4.359   6.164
 5476POPC   GL269434  14.318   4.300   6.164
 5476POPC   C1A69435  14.389   4.281   6.464
 5476POPC   D2A69436  14.429   4.274   6.764
 5476POPC   C3A69437  14.424   4.333   7.064
 5476POPC   C4A69438  14.382   4.341   7.364
 5476POPC   C1B69439  14.212   4.236   6.464
 5476POPC   C2B69440  14.143   4.196   6.764
 5476POPC   C3B69441  14.190   4.163   7.064
 5476POPC   C4B69442  14.183   4.211   7.364
 5477POPC   NC369443  39.974  14.402   5.564
 5477POPC   PO469444  39.976  14.387   5.864
 5477POPC   GL169445  40.007  14.383   6.164
 5477POPC   GL269446  39.940  14.373   6.164
 5477POPC   C1A69447  40.002  14.418   6.464
 5477POPC   D2A69448  39.978  14.401   6.764
 5477POPC   C3A69449  39.982  14.354   7.064
 5477POPC   C4A69450  40.055  14.365   7.364
 5477POPC   C1B69451  39.817  14.288   6.464
 5477POPC   C2B69452  39.793  14.317   6.764
 5477POPC   C3B69453  39.774  14.289   7.064
 5477POPC   C4B69454  39.798  14.231   7.364
 5478POPC   NC369455  40.759   9.753   5.564
 5478POPC   PO469456  40.785   9.705   5.864
 5478POPC   GL169457  40.789   9.758   6.164
 5478POPC   GL269458  40.838   9.584   6.164
 5478POPC   C1A69459  40.770   9.700   6.464
 5478POPC   D2A69460  40.748   9.770   6.764
 5478POPC   C3A69461  40.784   9.710   7.064
 5478POPC   C4A69462  40.832   9.751   7.364
 5478POPC   C1B69463  40.845   9.530   6.464
 5478POPC   C2B69464  40.820   9.513   6.764
 5478POPC   C3B69465  40.760   9.489   7.064
 5478POPC   C4B69466  40.822   9.523   7.364
 5479POPC   NC369467  27.641  40.744   5.564
 5479POPC   PO469468  27.625  40.823   5.864
 5479POPC   GL169469  27.585  40.754   6.164
 5479POPC   GL269470  27.745  40.689   6.164
 5479POPC   C1A69471  27.578  40.768   6.464
 5479POPC   D2A69472  27.569  40.796   6.764
 5479POPC   C3A69473  27.575  40.786   7.064
 5479POPC   C4A69474  27.613  40.757   7.364
 5479POPC   C1B69475  27.795  40.696   6.464
 5479POPC   C2B69476  27.828  40.705   6.764
 5479POPC   C3B69477  27.844  40.724   7.064
 5479POPC   C4B69478  27.841  40.649   7.364
 5480POPC   NC369479  15.921   8.950   5.564
 5480POPC   PO469480  15.943   8.953   5.864
 5480POPC   GL169481  15.933   8.993   6.164
 5480POPC   GL269482  15.824   9.070   6.164
 5480POPC   C1A69483  16.000   8.978   6.464
 5480POPC   D2A69484  15.958   9.015   6.764
 5480POPC   C3A69485  16.005   9.007   7.064
 5480POPC   C4A69486  15.939   8.934   7.364
 5480POPC   C1B69487  15.770   9.170   6.464
 5480POPC   C2B69488  15.806   9.125   6.764
 5480POPC   C3B69489  15.811   9.163   7.064
 5480POPC   C4B69490  15.839   9.163   7.364
 5481POPC   NC369491  32.983   8.197   5.564
 5481POPC   PO469492  33.031   8.226   5.864
 5481POPC   GL169493  32.986   8.222   6.164
 5481POPC   GL269494  33.079   8.317   6.164
 5481POPC   C1A69495  32.982   8.157   6.464
 5481POPC   D2A69496  33.062   8.158   6.764
 5481POPC   C3A69497  33.014   8.239   7.064
 5481POPC   C4A69498  33.065   8.214   7.364
 5481POPC   C1B69499  33.115   8.423   6.464
 5481POPC   C2B69500  33.159   8.431   6.764
 5481POPC   C3B69501  33.123   8.447   7.064
 5481POPC   C4B69502  33.147   8.401   7.364
 5482POPC   NC369503  34.531   8.926   5.564
 5482POPC   PO469504  34.554   8.933   5.864
 5482POPC   GL169505  34.575   9.015   6.164
 5482POPC   GL269506  34.643   8.844   6.164
 5482POPC   C1A69507  34.620   9.022   6.464
 5482POPC   D2A69508  34.531   8.986   6.764
 5482POPC   C3A69509  34.534   8.975   7.064
 5482POPC   C4A69510  34.609   9.013   7.364
 5482POPC   C1B69511  34.703   8.736   6.464
 5482POPC   C2B69512  34.719   8.755   6.764
 5482POPC   C3B69513  34.684   8.808   7.064
 5482POPC   C4B69514  34.697   8.725   7.364
 5483POPC   NC369515  34.613   3.528   5.564
 5483POPC   PO469516  34.575   3.493   5.864
 5483POPC   GL169517  34.527   3.537   6.164
 5483POPC   GL269518  34.559   3.399   6.164
 5483POPC   C1A69519  34.560   3.508   6.464
 5483POPC   D2A69520  34.552   3.589   6.764
 5483POPC   C3A69521  34.615   3.546   7.064
 5483POPC   C4A69522  34.621   3.566   7.364
 5483POPC   C1B69523  34.482   3.280   6.464
 5483POPC   C2B69524  34.515   3.281   6.764
 5483POPC   C3B69525  34.557   3.289   7.064
 5483POPC   C4B69526  34.538   3.295   7.364
 5484POPC   NC369527  22.150   9.776   5.564
 5484POPC   PO469528  22.144   9.758   5.864
 5484POPC   GL169529  22.172   9.699   6.164
 5484POPC   GL269530  22.040   9.676   6.164
 5484POPC   C1A69531  22.126   9.776   6.464
 5484POPC   D2A69532  22.159   9.773   6.764
 5484POPC   C3A69533  22.145   9.780   7.064
 5484POPC   C4A69534  22.180   9.734   7.364
 5484POPC   C1B69535  21.988   9.582   6.464
 5484POPC   C2B69536  21.962   9.622   6.764
 5484POPC   C3B69537  21.975   9.560   7.064
 5484POPC   C4B69538  22.027   9.575   7.364
 5485POPC   NC369539  44.678  26.024   5.564
 5485POPC   PO469540  44.699  26.077   5.864
 5485POPC   GL169541  44.678  26.004   6.164
 5485POPC   GL269542  44.703  25.897   6.164
 5485POPC   C1A69543  44.674  26.023   6.464
 5485POPC   D2A69544  44.650  26.084   6.764
 5485POPC   C3A69545  44.694  26.071   7.064
 5485POPC   C4A69546  44.635  26.076   7.364
 5485POPC   C1B69547  44.819  25.853   6.464
 5485POPC   C2B69548  44.835  25.847   6.764
 5485POPC   C3B69549  44.826  25.861   7.064
 5485POPC   C4B69550  44.814  25.816   7.364
 5486POPC   NC369551   7.405   5.897   5.564
 5486POPC   PO469552   7.454   5.898   5.864
 5486POPC   GL169553   7.395   5.910   6.164
 5486POPC   GL269554   7.370   5.734   6.164
 5486POPC   C1A69555   7.416   5.888   6.464
 5486POPC   D2A69556   7.418   5.895   6.764
 5486POPC   C3A69557   7.435   5.899   7.064
 5486POPC   C4A69558   7.455   5.857   7.364
 5486POPC   C1B69559   7.245   5.707   6.464
 5486POPC   C2B69560   7.232   5.682   6.764
 5486POPC   C3B69561   7.213   5.678   7.064
 5486POPC   C4B69562   7.211   5.673   7.364
 5487POPC   NC369563  40.804  19.881   5.564
 5487POPC   PO469564  40.745  19.823   5.864
 5487POPC   GL169565  40.735  19.844   6.164
 5487POPC   GL269566  40.647  19.862   6.164
 5487POPC   C1A69567  40.824  19.880   6.464
 5487POPC   D2A69568  40.781  19.838   6.764
 5487POPC   C3A69569  40.751  19.880   7.064
 5487POPC   C4A69570  40.799  19.808   7.364
 5487POPC   C1B69571  40.526  19.918   6.464
 5487POPC   C2B69572  40.527  19.982   6.764
 5487POPC   C3B69573  40.509  19.979   7.064
 5487POPC   C4B69574  40.572  19.925   7.364
 5488POPC   NC369575  17.470  19.010   5.564
 5488POPC   PO469576  17.505  19.069   5.864
 5488POPC   GL169577  17.478  19.014   6.164
 5488POPC   GL269578  17.459  18.936   6.164
 5488POPC   C1A69579  17.460  19.016   6.464
 5488POPC   D2A69580  17.526  19.103   6.764
 5488POPC   C3A69581  17.496  19.086   7.064
 5488POPC   C4A69582  17.528  19.049   7.364
 5488POPC   C1B69583  17.365  18.851   6.464
 5488POPC   C2B69584  17.425  18.793   6.764
 5488POPC   C3B69585  17.351  18.879   7.064
 5488POPC   C4B69586  17.436  18.807   7.364
 5489POPC   NC369587  25.233  36.131   5.564
 5489POPC   PO469588  25.293  36.097   5.864
 5489POPC   GL169589  25.233  36.171   6.164
 5489POPC   GL269590  25.240  35.962   6.164
 5489POPC   C1A69591  25.282  36.083   6.464
 5489POPC   D2A69592  25.263  36.107   6.764
 5489POPC   C3A69593  25.308  36.139   7.064
 5489POPC   C4A69594  25.283  36.165   7.364
 5489POPC   C1B69595  25.242  35.887   6.464
 5489POPC   C2B69596  25.198  35.883   6.764
 5489POPC   C3B69597  25.205  35.918   7.064
 5489POPC   C4B69598  25.192  35.833   7.364
 5490POPC   NC369599  19.098  30.666   5.564
 5490POPC   PO469600  19.108  30.675   5.864
 5490POPC   GL169601  19.065  30.723   6.164
 5490POPC   GL269602  19.123  30.535   6.164
 5490POPC   C1A69603  19.057  30.708   6.464
 5490POPC   D2A69604  19.102  30.690   6.764
 5490POPC   C3A69605  19.057  30.651   7.064
 5490POPC   C4A69606  19.054  30.741   7.364
 5490POPC   C1B69607  19.078  30.430   6.464
 5490POPC   C2B69608  19.120  30.461   6.764
 5490POPC   C3B69609  19.108  30.446   7.064
 5490POPC   C4B69610  19.145  30.461   7.364
 5491POPC   NC369611  19.025  12.812   5.564
 5491POPC   PO469612  19.048  12.853   5.864
 5491POPC   GL169613  19.075  12.814   6.164
 5491POPC   GL269614  19.030  12.938   6.164
 5491POPC   C1A69615  19.043  12.822   6.464
 5491POPC   D2A69616  19.026  12.865   6.764
 5491POPC   C3A69617  19.059  12.847   7.064
 5491POPC   C4A69618  19.092  12.822   7.364
 5491POPC   C1B69619  19.072  13.053   6.464
 5491POPC   C2B69620  19.054  13.103   6.764
 5491POPC   C3B69621  18.981  13.119   7.064
 5491POPC   C4B69622  19.032  13.121   7.364
 5492POPC   NC369623   5.069  28.381   5.564
 5492POPC   PO469624   5.117  28.380   5.864
 5492POPC   GL169625   5.115  28.387   6.164
 5492POPC   GL269626   5.152  28.448   6.164
 5492POPC   C1A69627   5.124  28.405   6.464
 5492POPC   D2A69628   5.073  28.363   6.764
 5492POPC   C3A69629   5.069  28.337   7.064
 5492POPC   C4A69630   5.097  28.379   7.364
 5492POPC   C1B69631   5.197  28.553   6.464
 5492POPC   C2B69632   5.192  28.578   6.764
 5492POPC   C3B69633   5.173  28.571   7.064
 5492POPC   C4B69634   5.194  28.545   7.364
 5493POPC   NC369635  43.879   2.765   5.564
 5493POPC   PO469636  43.855   2.730   5.864
 5493POPC   GL169637  43.874   2.733   6.164
 5493POPC   GL269638  44.034   2.713   6.164
 5493POPC   C1A69639  43.911   2.758   6.464
 5493POPC   D2A69640  43.906   2.779   6.764
 5493POPC   C3A69641  43.839   2.744   7.064
 5493POPC   C4A69642  43.930   2.764   7.364
 5493POPC   C1B69643  44.159   2.662   6.464
 5493POPC   C2B69644  44.144   2.666   6.764
 5493POPC   C3B69645  44.103   2.668   7.064
 5493POPC   C4B69646  44.112   2.713   7.364
 5494POPC   NC369647  12.859  43.907   5.564
 5494POPC   PO469648  12.808  43.880   5.864
 5494POPC   GL169649  12.886  43.910   6.164
 5494POPC   GL269650  12.728  43.917   6.164
 5494POPC   C1A69651  12.857  43.918   6.464
 5494POPC   D2A69652  12.825  43.905   6.764
 5494POPC   C3A69653  12.882  43.904   7.064
 5494POPC   C4A69654  12.838  43.894   7.364
 5494POPC   C1B69655  12.642  43.930   6.464
 5494POPC   C2B69656  12.624  43.875   6.764
 5494POPC   C3B69657  12.582  43.874   7.064
 5494POPC   C4B69658  12.630  43.917   7.364
 5495POPC   NC369659  16.691  22.985   5.564
 5495POPC   PO469660  16.749  22.974   5.864
 5495POPC   GL169661  16.769  22.958   6.164
 5495POPC   GL269662  16.598  23.007   6.164
 5495POPC   C1A69663  16.681  22.970   6.464
 5495POPC   D2A69664  16.701  22.889   6.764
 5495POPC   C3A69665  16.717  22.937   7.064
 5495POPC   C4A69666  16.706  22.916   7.364
 5495POPC   C1B69667  16.544  23.120   6.464
 5495POPC   C2B69668  16.548  23.058   6.764
 5495POPC   C3B69669  16.563  23.037   7.064
 5495POPC   C4B69670  16.500  23.113   7.364
 5496POPC   NC369671  28.322   0.465   5.564
 5496POPC   PO469672  28.398   0.448   5.864
 5496POPC   GL169673  28.354   0.408   6.164
 5496POPC   GL269674  28.375   0.300   6.164
 5496POPC   C1A69675  28.410   0.466   6.464
 5496POPC   D2A69676  28.337   0.456   6.764
 5496POPC   C3A69677  28.331   0.445   7.064
 5496POPC   C4A69678  28.384   0.415   7.364
 5496POPC   C1B69679  28.280   0.212   6.464
 5496POPC   C2B69680  28.326   0.162   6.764
 5496POPC   C3B69681  28.328   0.223   7.064
 5496POPC   C4B69682  28.288   0.247   7.364
 5497POPC   NC369683  19.091   5.878   5.564
 5497POPC   PO469684  19.031   5.827   5.864
 5497POPC   GL169685  19.102   5.861   6.164
 5497POPC   GL269686  19.140   5.783   6.164
 5497POPC   C1A69687  19.010   5.845   6.464
 5497POPC   D2A69688  19.065   5.834   6.764
 5497POPC   C3A69689  19.051   5.885   7.064
 5497POPC   C4A69690  19.054   5.905   7.364
 5497POPC   C1B69691  19.327   5.768   6.464
 5497POPC   C2B69692  19.298   5.795   6.764
 5497POPC   C3B69693  19.315   5.781   7.064
 5497POPC   C4B69694  19.302   5.779   7.364
 5498POPC   NC369695  44.676  15.956   5.564
 5498POPC   PO469696  44.624  15.922   5.864
 5498POPC   GL169697  44.682  15.909   6.164
 5498POPC   GL269698  44.718  16.091   6.164
 5498POPC   C1A69699  44.668  15.959   6.464
 5498POPC   D2A69700  44.703  15.941   6.764
 5498POPC   C3A69701  44.644  15.929   7.064
 5498POPC   C4A69702  44.700  15.946   7.364
 5498POPC   C1B69703  44.666  16.155   6.464
 5498POPC   C2B69704  44.648  16.189   6.764
 5498POPC   C3B69705  44.714  16.184   7.064
 5498POPC   C4B69706  44.680  16.163   7.364
 5499POPC   NC369707  25.309  25.226   5.564
 5499POPC   PO469708  25.243  25.232   5.864
 5499POPC   GL169709  25.313  25.217   6.164
 5499POPC   GL269710  25.388  25.352   6.164
 5499POPC   C1A69711  25.247  25.313   6.464
 5499POPC   D2A69712  25.241  25.298   6.764
 5499POPC   C3A69713  25.220  25.277   7.064
 5499POPC   C4A69714  25.278  25.233   7.364
 5499POPC   C1B69715  25.473  25.377   6.464
 5499POPC   C2B69716  25.462  25.385   6.764
 5499POPC   C3B69717  25.527  25.405   7.064
 5499POPC   C4B69718  25.501  25.342   7.364
 5500POPC   NC369719   4.335  19.038   5.564
 5500POPC   PO469720   4.275  19.103   5.864
 5500POPC   GL169721   4.301  19.055   6.164
 5500POPC   GL269722   4.348  18.912   6.164
 5500POPC   C1A69723   4.367  19.090   6.464
 5500POPC   D2A69724   4.367  19.102   6.764
 5500POPC   C3A69725   4.326  19.034   7.064
 5500POPC   C4A69726   4.323  19.033   7.364
 5500POPC   C1B69727   4.295  18.830   6.464
 5500POPC   C2B69728   4.301  18.808   6.764
 5500POPC   C3B69729   4.356  18.841   7.064
 5500POPC   C4B69730   4.322  18.800   7.364
 5501POPC   NC369731   8.184  29.112   5.564
 5501POPC   PO469732   8.230  29.132   5.864
 5501POPC   GL169733   8.148  29.152   6.164
 5501POPC   GL269734   8.222  29.310   6.164
 5501POPC   C1A69735   8.181  29.101   6.464
 5501POPC   D2A69736   8.154  29.173   6.764
 5501POPC   C3A69737   8.243  29.104   7.064
 5501POPC   C4A69738   8.193  29.134   7.364
 5501POPC   C1B69739   8.264  29.402   6.464
 5501POPC   C2B69740   8.274  29.343   6.764
 5501POPC   C3B69741   8.239  29.387   7.064
 5501POPC   C4B69742   8.232  29.359   7.364
 5502POPC   NC369743  12.828  17.542   5.564
 5502POPC   PO469744  12.867  17.526   5.864
 5502POPC   GL169745  12.889  17.550   6.164
 5502POPC   GL269746  12.771  17.420   6.164
 5502POPC   C1A69747  12.809  17.494   6.464
 5502POPC   D2A69748  12.854  17.554   6.764
 5502POPC   C3A69749  12.837  17.510   7.064
 5502POPC   C4A69750  12.834  17.501   7.364
 5502POPC   C1B69751  12.623  17.294   6.464
 5502POPC   C2B69752  12.620  17.349   6.764
 5502POPC   C3B69753  12.710  17.300   7.064
 5502POPC   C4B69754  12.624  17.316   7.364
 5503POPC   NC369755   1.954  40.038   5.564
 5503POPC   PO469756   2.027  40.012   5.864
 5503POPC   GL169757   1.981  39.990   6.164
 5503POPC   GL269758   2.045  39.939   6.164
 5503POPC   C1A69759   1.995  39.983   6.464
 5503POPC   D2A69760   2.017  40.043   6.764
 5503POPC   C3A69761   2.026  40.045   7.064
 5503POPC   C4A69762   1.974  40.011   7.364
 5503POPC   C1B69763   2.221  39.807   6.464
 5503POPC   C2B69764   2.176  39.886   6.764
 5503POPC   C3B69765   2.198  39.845   7.064
 5503POPC   C4B69766   2.158  39.872   7.364
 5504POPC   NC369767   2.000  42.353   5.564
 5504POPC   PO469768   2.002  42.344   5.864
 5504POPC   GL169769   2.026  42.369   6.164
 5504POPC   GL269770   1.978  42.230   6.164
 5504POPC   C1A69771   1.998  42.382   6.464
 5504POPC   D2A69772   1.994  42.371   6.764
 5504POPC   C3A69773   2.020  42.360   7.064
 5504POPC   C4A69774   1.945  42.325   7.364
 5504POPC   C1B69775   2.002  42.083   6.464
 5504POPC   C2B69776   2.007  42.118   6.764
 5504POPC   C3B69777   2.042  42.101   7.064
 5504POPC   C4B69778   2.090  42.121   7.364
 5505POPC   NC369779  36.129  16.734   5.564
 5505POPC   PO469780  36.082  16.768   5.864
 5505POPC   GL169781  36.113  16.730   6.164
 5505POPC   GL269782  36.048  16.616   6.164
 5505POPC   C1A69783  36.114  16.697   6.464
 5505POPC   D2A69784  36.128  16.698   6.764
 5505POPC   C3A69785  36.158  16.730   7.064
 5505POPC   C4A69786  36.110  16.697   7.364
 5505POPC   C1B69787  35.994  16.565   6.464
 5505POPC   C2B69788  35.913  16.585   6.764
 5505POPC   C3B69789  35.944  16.580   7.064
 5505POPC   C4B69790  35.938  16.515   7.364
 5506POPC   NC369791  41.550  17.503   5.564
 5506POPC   PO469792  41.515  17.534   5.864
 5506POPC   GL169793  41.542  17.519   6.164
 5506POPC   GL269794  41.591  17.620   6.164
 5506POPC   C1A69795  41.603  17.500   6.464
 5506POPC   D2A69796  41.594  17.489   6.764
 5506POPC   C3A69797  41.591  17.503   7.064
 5506POPC   C4A69798  41.534  17.462   7.364
 5506POPC   C1B69799  41.561  17.755   6.464
 5506POPC   C2B69800  41.575  17.792   6.764
 5506POPC   C3B69801  41.594  17.801   7.064
 5506POPC   C4B69802  41.569  17.760   7.364
 5507POPC   NC369803   5.843  44.649   5.564
 5507POPC   PO469804   5.830  44.631   5.864
 5507POPC   GL169805   5.886  44.654   6.164
 5507POPC   GL269806   5.732  44.748   6.164
 5507POPC   C1A69807   5.878  44.659   6.464
 5507POPC   D2A69808   5.839  44.697   6.764
 5507POPC   C3A69809   5.881  44.615   7.064
 5507POPC   C4A69810   5.883  44.686   7.364
 5507POPC   C1B69811   5.611  44.753   6.464
 5507POPC   C2B69812   5.611  44.690   6.764
 5507POPC   C3B69813   5.638  44.782   7.064
 5507POPC   C4B69814   5.637  44.764   7.364
 5508POPC   NC369815   8.169   4.331   5.564
 5508POPC   PO469816   8.191   4.324   5.864
 5508POPC   GL169817   8.226   4.365   6.164
 5508POPC   GL269818   8.358   4.242   6.164
 5508POPC   C1A69819   8.206   4.291   6.464
 5508POPC   D2A69820   8.175   4.276   6.764
 5508POPC   C3A69821   8.204   4.354   7.064
 5508POPC   C4A69822   8.246   4.321   7.364
 5508POPC   C1B69823   8.458   4.258   6.464
 5508POPC   C2B69824   8.454   4.257   6.764
 5508POPC   C3B69825   8.466   4.200   7.064
 5508POPC   C4B69826   8.466   4.171   7.364
 5509POPC   NC369827  16.771  41.588   5.564
 5509POPC   PO469828  16.731  41.533   5.864
 5509POPC   GL169829  16.741  41.588   6.164
 5509POPC   GL269830  16.856  41.600   6.164
 5509POPC   C1A69831  16.745  41.592   6.464
 5509POPC   D2A69832  16.764  41.526   6.764
 5509POPC   C3A69833  16.700  41.548   7.064
 5509POPC   C4A69834  16.696  41.567   7.364
 5509POPC   C1B69835  16.971  41.569   6.464
 5509POPC   C2B69836  17.013  41.543   6.764
 5509POPC   C3B69837  16.940  41.594   7.064
 5509POPC   C4B69838  16.995  41.546   7.364
 5510POPC   NC369839  31.460  36.139   5.564
 5510POPC   PO469840  31.492  36.164   5.864
 5510POPC   GL169841  31.506  36.140   6.164
 5510POPC   GL269842  31.540  36.075   6.164
 5510POPC   C1A69843  31.503  36.082   6.464
 5510POPC   D2A69844  31.433  36.177   6.764
 5510POPC   C3A69845  31.500  36.172   7.064
 5510POPC   C4A69846  31.460  36.101   7.364
 5510POPC   C1B69847  31.652  35.948   6.464
 5510POPC   C2B69848  31.690  36.028   6.764
 5510POPC   C3B69849  31.717  36.044   7.064
 5510POPC   C4B69850  31.706  36.015   7.364
 5511POPC   NC369851  29.165  32.977   5.564
 5511POPC   PO469852  29.139  33.074   5.864
 5511POPC   GL169853  29.112  33.029   6.164
 5511POPC   GL269854  29.270  33.028   6.164
 5511POPC   C1A69855  29.130  32.978   6.464
 5511POPC   D2A69856  29.098  33.053   6.764
 5511POPC   C3A69857  29.133  32.990   7.064
 5511POPC   C4A69858  29.130  32.993   7.364
 5511POPC   C1B69859  29.419  33.097   6.464
 5511POPC   C2B69860  29.435  33.041   6.764
 5511POPC   C3B69861  29.418  33.085   7.064
 5511POPC   C4B69862  29.341  33.071   7.364
 5512POPC   NC369863   7.422   5.092   5.564
 5512POPC   PO469864   7.394   5.047   5.864
 5512POPC   GL169865   7.388   5.134   6.164
 5512POPC   GL269866   7.516   5.163   6.164
 5512POPC   C1A69867   7.419   5.080   6.464
 5512POPC   D2A69868   7.381   5.121   6.764
 5512POPC   C3A69869   7.452   5.094   7.064
 5512POPC   C4A69870   7.467   5.047   7.364
 5512POPC   C1B69871   7.571   5.231   6.464
 5512POPC   C2B69872   7.587   5.250   6.764
 5512POPC   C3B69873   7.578   5.262   7.064
 5512POPC   C4B69874   7.649   5.273   7.364
 5513POPC   NC369875  18.286  43.085   5.564
 5513POPC   PO469876  18.275  43.065   5.864
 5513POPC   GL169877  18.270  43.143   6.164
 5513POPC   GL269878  18.304  43.036   6.164
 5513POPC   C1A69879  18.316  43.107   6.464
 5513POPC   D2A69880  18.320  43.122   6.764
 5513POPC   C3A69881  18.241  43.129   7.064
 5513POPC   C4A69882  18.310  43.136   7.364
 5513POPC   C1B69883  18.440  42.915   6.464
 5513POPC   C2B69884  18.451  42.861   6.764
 5513POPC   C3B69885  18.391  42.883   7.064
 5513POPC   C4B69886  18.434  42.951   7.364
 5514POPC   NC369887  19.830  15.987   5.564
 5514POPC   PO469888  19.843  15.912   5.864
 5514POPC   GL169889  19.796  15.937   6.164
 5514POPC   GL269890  19.782  15.833   6.164
 5514POPC   C1A69891  19.840  15.926   6.464
 5514POPC   D2A69892  19.867  15.917   6.764
 5514POPC   C3A69893  19.857  15.911   7.064
 5514POPC   C4A69894  19.824  15.939   7.364
 5514POPC   C1B69895  19.694  15.761   6.464
 5514POPC   C2B69896  19.754  15.694   6.764
 5514POPC   C3B69897  19.721  15.738   7.064
 5514POPC   C4B69898  19.755  15.743   7.364
 5515POPC   NC369899  24.446  12.084   5.564
 5515POPC   PO469900  24.514  12.050   5.864
 5515POPC   GL169901  24.441  12.071   6.164
 5515POPC   GL269902  24.418  11.975   6.164
 5515POPC   C1A69903  24.451  12.027   6.464
 5515POPC   D2A69904  24.469  12.109   6.764
 5515POPC   C3A69905  24.504  12.091   7.064
 5515POPC   C4A69906  24.450  12.124   7.364
 5515POPC   C1B69907  24.271  11.919   6.464
 5515POPC   C2B69908  24.257  11.942   6.764
 5515POPC   C3B69909  24.289  11.966   7.064
 5515POPC   C4B69910  24.313  11.901   7.364
 5516POPC   NC369911  32.994  10.515   5.564
 5516POPC   PO469912  32.990  10.541   5.864
 5516POPC   GL169913  32.982  10.478   6.164
 5516POPC   GL269914  33.059  10.441   6.164
 5516POPC   C1A69915  33.012  10.498   6.464
 5516POPC   D2A69916  33.008  10.530   6.764
 5516POPC   C3A69917  33.035  10.538   7.064
 5516POPC   C4A69918  33.060  10.514   7.364
 5516POPC   C1B69919  33.127  10.294   6.464
 5516POPC   C2B69920  33.157  10.294   6.764
 5516POPC   C3B69921  33.103  10.257   7.064
 5516POPC   C4B69922  33.096  10.327   7.364
 5517POPC   NC369923  19.024  28.415   5.564
 5517POPC   PO469924  19.042  28.359   5.864
 5517POPC   GL169925  19.059  28.398   6.164
 5517POPC   GL269926  18.960  28.348   6.164
 5517POPC   C1A69927  19.075  28.368   6.464
 5517POPC   D2A69928  19.015  28.412   6.764
 5517POPC   C3A69929  19.045  28.375   7.064
 5517POPC   C4A69930  19.012  28.327   7.364
 5517POPC   C1B69931  18.875  28.306   6.464
 5517POPC   C2B69932  18.824  28.285   6.764
 5517POPC   C3B69933  18.854  28.248   7.064
 5517POPC   C4B69934  18.808  28.240   7.364
 5518POPC   NC369935  31.476   3.522   5.564
 5518POPC   PO469936  31.449   3.516   5.864
 5518POPC   GL169937  31.423   3.531   6.164
 5518POPC   GL269938  31.599   3.499   6.164
 5518POPC   C1A69939  31.429   3.569   6.464
 5518POPC   D2A69940  31.488   3.555   6.764
 5518POPC   C3A69941  31.441   3.530   7.064
 5518POPC   C4A69942  31.455   3.501   7.364
 5518POPC   C1B69943  31.718   3.563   6.464
 5518POPC   C2B69944  31.678   3.571   6.764
 5518POPC   C3B69945  31.752   3.563   7.064
 5518POPC   C4B69946  31.739   3.520   7.364
 5519POPC   NC369947   8.984  16.706   5.564
 5519POPC   PO469948   8.923  16.761   5.864
 5519POPC   GL169949   9.005  16.773   6.164
 5519POPC   GL269950   8.946  16.850   6.164
 5519POPC   C1A69951   9.018  16.720   6.464
 5519POPC   D2A69952   8.968  16.750   6.764
 5519POPC   C3A69953   8.992  16.714   7.064
 5519POPC   C4A69954   8.977  16.707   7.364
 5519POPC   C1B69955   8.879  16.969   6.464
 5519POPC   C2B69956   8.867  16.980   6.764
 5519POPC   C3B69957   8.882  16.980   7.064
 5519POPC   C4B69958   8.842  16.954   7.364
 5520POPC   NC369959  34.567  12.112   5.564
 5520POPC   PO469960  34.624  12.111   5.864
 5520POPC   GL169961  34.594  12.077   6.164
 5520POPC   GL269962  34.679  12.171   6.164
 5520POPC   C1A69963  34.538  12.047   6.464
 5520POPC   D2A69964  34.528  12.036   6.764
 5520POPC   C3A69965  34.600  12.095   7.064
 5520POPC   C4A69966  34.598  12.111   7.364
 5520POPC   C1B69967  34.780  12.253   6.464
 5520POPC   C2B69968  34.753  12.236   6.764
 5520POPC   C3B69969  34.719  12.221   7.064
 5520POPC   C4B69970  34.721  12.300   7.364
 5521POPC   NC369971  26.863   1.256   5.564
 5521POPC   PO469972  26.854   1.249   5.864
 5521POPC   GL169973  26.825   1.175   6.164
 5521POPC   GL269974  26.929   1.257   6.164
 5521POPC   C1A69975  26.825   1.232   6.464
 5521POPC   D2A69976  26.785   1.191   6.764
 5521POPC   C3A69977  26.814   1.232   7.064
 5521POPC   C4A69978  26.841   1.256   7.364
 5521POPC   C1B69979  26.976   1.404   6.464
 5521POPC   C2B69980  27.011   1.329   6.764
 5521POPC   C3B69981  26.984   1.372   7.064
 5521POPC   C4B69982  27.053   1.338   7.364
 5522POPC   NC369983  43.128  20.593   5.564
 5522POPC   PO469984  43.075  20.648   5.864
 5522POPC   GL169985  43.113  20.599   6.164
 5522POPC   GL269986  43.237  20.510   6.164
 5522POPC   C1A69987  43.120  20.571   6.464
 5522POPC   D2A69988  43.147  20.623   6.764
 5522POPC   C3A69989  43.104  20.568   7.064
 5522POPC   C4A69990  43.081  20.590   7.364
 5522POPC   C1B69991  43.301  20.480   6.464
 5522POPC   C2B69992  43.292  20.412   6.764
 5522POPC   C3B69993  43.292  20.430   7.064
 5522POPC   C4B69994  43.268  20.404   7.364
 5523POPC   NC369995  34.581  29.968   5.564
 5523POPC   PO469996  34.573  29.883   5.864
 5523POPC   GL169997  34.596  29.905   6.164
 5523POPC   GL269998  34.562  30.063   6.164
 5523POPC   C1A69999  34.580  29.948   6.464
 5523POPC   D2A70000  34.614  29.926   6.764
 5523POPC   C3A70001  34.622  29.969   7.064
 5523POPC   C4A70002  34.575  29.918   7.364
 5523POPC   C1B70003  34.694  30.157   6.464
 5523POPC   C2B70004  34.650  30.190   6.764
 5523POPC   C3B70005  34.669  30.183   7.064
 5523POPC   C4B70006  34.606  30.176   7.364
 5524POPC   NC370007  11.343  30.649   5.564
 5524POPC   PO470008  11.340  30.736   5.864
 5524POPC   GL170009  11.332  30.695   6.164
 5524POPC   GL270010  11.335  30.628   6.164
 5524POPC   C1A70011  11.255  30.714   6.464
 5524POPC   D2A70012  11.289  30.714   6.764
 5524POPC   C3A70013  11.281  30.716   7.064
 5524POPC   C4A70014  11.268  30.648   7.364
 5524POPC   C1B70015  11.440  30.546   6.464
 5524POPC   C2B70016  11.440  30.513   6.764
 5524POPC   C3B70017  11.482  30.550   7.064
 5524POPC   C4B70018  11.448  30.502   7.364
 5525POPC   NC370019  25.271   8.939   5.564
 5525POPC   PO470020  25.287   8.989   5.864
 5525POPC   GL170021  25.286   8.998   6.164
 5525POPC   GL270022  25.113   8.904   6.164
 5525POPC   C1A70023  25.286   8.972   6.464
 5525POPC   D2A70024  25.230   8.983   6.764
 5525POPC   C3A70025  25.273   8.998   7.064
 5525POPC   C4A70026  25.304   8.936   7.364
 5525POPC   C1B70027  25.091   8.843   6.464
 5525POPC   C2B70028  25.048   8.879   6.764
 5525POPC   C3B70029  25.014   8.889   7.064
 5525POPC   C4B70030  25.036   8.826   7.364
 5526POPC   NC370031  23.681  44.633   5.564
 5526POPC   PO470032  23.679  44.689   5.864
 5526POPC   GL170033  23.682  44.641   6.164
 5526POPC   GL270034  23.624  44.605   6.164
 5526POPC   C1A70035  23.677  44.688   6.464
 5526POPC   D2A70036  23.692  44.695   6.764
 5526POPC   C3A70037  23.715  44.631   7.064
 5526POPC   C4A70038  23.705  44.649   7.364
 5526POPC   C1B70039  23.522  44.574   6.464
 5526POPC   C2B70040  23.518  44.611   6.764
 5526POPC   C3B70041  23.435  44.603   7.064
 5526POPC   C4B70042  23.444  44.594   7.364
 5527POPC   NC370043  18.235  11.288   5.564
 5527POPC   PO470044  18.274  11.343   5.864
 5527POPC   GL170045  18.268  11.272   6.164
 5527POPC   GL270046  18.207  11.423   6.164
 5527POPC   C1A70047  18.270  11.350   6.464
 5527POPC   D2A70048  18.283  11.290   6.764
 5527POPC   C3A70049  18.250  11.275   7.064
 5527POPC   C4A70050  18.323  11.338   7.364
 5527POPC   C1B70051  18.137  11.522   6.464
 5527POPC   C2B70052  18.137  11.500   6.764
 5527POPC   C3B70053  18.110  11.504   7.064
 5527POPC   C4B70054  18.143  11.456   7.364
 5528POPC   NC370055  39.264  41.604   5.564
 5528POPC   PO470056  39.210  41.584   5.864
 5528POPC   GL170057  39.195  41.574   6.164
 5528POPC   GL270058  39.206  41.408   6.164
 5528POPC   C1A70059  39.213  41.565   6.464
 5528POPC   D2A70060  39.226  41.597   6.764
 5528POPC   C3A70061  39.252  41.569   7.064
 5528POPC   C4A70062  39.238  41.515   7.364
 5528POPC   C1B70063  39.204  41.322   6.464
 5528POPC   C2B70064  39.123  41.286   6.764
 5528POPC   C3B70065  39.156  41.273   7.064
 5528POPC   C4B70066  39.215  41.357   7.364
 5529POPC   NC370067  36.950  17.525   5.564
 5529POPC   PO470068  36.887  17.551   5.864
 5529POPC   GL170069  36.930  17.544   6.164
 5529POPC   GL270070  36.969  17.475   6.164
 5529POPC   C1A70071  36.862  17.459   6.464
 5529POPC   D2A70072  36.916  17.474   6.764
 5529POPC   C3A70073  36.879  17.523   7.064
 5529POPC   C4A70074  36.899  17.555   7.364
 5529POPC   C1B70075  37.142  17.317   6.464
 5529POPC   C2B70076  37.103  17.343   6.764
 5529POPC   C3B70077  37.071  17.305   7.064
 5529POPC   C4B70078  37.080  17.362   7.364
 5530POPC   NC370079   8.992  19.042   5.564
 5530POPC   PO470080   8.955  19.010   5.864
 5530POPC   GL170081   9.018  19.032   6.164
 5530POPC   GL270082   9.076  19.105   6.164
 5530POPC   C1A70083   9.001  19.067   6.464
 5530POPC   D2A70084   8.960  19.028   6.764
 5530POPC   C3A70085   8.965  19.105   7.064
 5530POPC   C4A70086   8.970  19.026   7.364
 5530POPC   C1B70087   9.210  19.166   6.464
 5530POPC   C2B70088   9.154  19.187   6.764
 5530POPC   C3B70089   9.181  19.196   7.064
 5530POPC   C4B70090   9.168  19.242   7.364
 5531POPC   NC370091  42.325  29.126   5.564
 5531POPC   PO470092  42.289  29.138   5.864
 5531POPC   GL170093  42.346  29.142   6.164
 5531POPC   GL270094  42.204  29.015   6.164
 5531POPC   C1A70095  42.364  29.148   6.464
 5531POPC   D2A70096  42.382  29.147   6.764
 5531POPC   C3A70097  42.285  29.185   7.064
 5531POPC   C4A70098  42.304  29.172   7.364
 5531POPC   C1B70099  42.126  28.983   6.464
 5531POPC   C2B70100  42.112  28.942   6.764
 5531POPC   C3B70101  42.184  29.026   7.064
 5531POPC   C4B70102  42.098  28.986   7.364
 5532POPC   NC370103  22.899  26.779   5.564
 5532POPC   PO470104  22.916  26.853   5.864
 5532POPC   GL170105  22.983  26.796   6.164
 5532POPC   GL270106  22.931  26.710   6.164
 5532POPC   C1A70107  22.928  26.850   6.464
 5532POPC   D2A70108  22.895  26.833   6.764
 5532POPC   C3A70109  22.925  26.786   7.064
 5532POPC   C4A70110  22.889  26.824   7.364
 5532POPC   C1B70111  22.911  26.596   6.464
 5532POPC   C2B70112  22.942  26.590   6.764
 5532POPC   C3B70113  22.871  26.562   7.064
 5532POPC   C4B70114  22.879  26.592   7.364
 5533POPC   NC370115  34.574  44.662   5.564
 5533POPC   PO470116  34.602  44.620   5.864
 5533POPC   GL170117  34.583  44.622   6.164
 5533POPC   GL270118  34.443  44.539   6.164
 5533POPC   C1A70119  34.568  44.623   6.464
 5533POPC   D2A70120  34.577  44.639   6.764
 5533POPC   C3A70121  34.582  44.675   7.064
 5533POPC   C4A70122  34.555  44.659   7.364
 5533POPC   C1B70123  34.442  44.507   6.464
 5533POPC   C2B70124  34.405  44.434   6.764
 5533POPC   C3B70125  34.404  44.490   7.064
 5533POPC   C4B70126  34.398  44.432   7.364
 5534POPC   NC370127  33.065   0.417   5.564
 5534POPC   PO470128  32.982   0.412   5.864
 5534POPC   GL170129  33.058   0.411   6.164
 5534POPC   GL270130  33.096   0.522   6.164
 5534POPC   C1A70131  33.063   0.459   6.464
 5534POPC   D2A70132  33.027   0.413   6.764
 5534POPC   C3A70133  33.052   0.394   7.064
 5534POPC   C4A70134  33.052   0.416   7.364
 5534POPC   C1B70135  33.243   0.616   6.464
 5534POPC   C2B70136  33.205   0.656   6.764
 5534POPC   C3B70137  33.188   0.640   7.064
 5534POPC   C4B70138  33.157   0.659   7.364
 5535POPC   NC370139   8.176   1.227   5.564
 5535POPC   PO470140   8.155   1.192   5.864
 5535POPC   GL170141   8.162   1.206   6.164
 5535POPC   GL270142   8.212   1.056   6.164
 5535POPC   C1A70143   8.216   1.206   6.464
 5535POPC   D2A70144   8.185   1.165   6.764
 5535POPC   C3A70145   8.234   1.236   7.064
 5535POPC   C4A70146   8.189   1.200   7.364
 5535POPC   C1B70147   8.162   0.942   6.464
 5535POPC   C2B70148   8.105   0.951   6.764
 5535POPC   C3B70149   8.107   1.008   7.064
 5535POPC   C4B70150   8.172   0.936   7.364
 5536POPC   NC370151  39.958  20.560   5.564
 5536POPC   PO470152  40.035  20.593   5.864
 5536POPC   GL170153  39.971  20.578   6.164
 5536POPC   GL270154  40.018  20.737   6.164
 5536POPC   C1A70155  40.042  20.626   6.464
 5536POPC   D2A70156  39.983  20.637   6.764
 5536POPC   C3A70157  40.019  20.646   7.064
 5536POPC   C4A70158  40.035  20.631   7.364
 5536POPC   C1B70159  39.942  20.906   6.464
 5536POPC   C2B70160  39.925  20.812   6.764
 5536POPC   C3B70161  40.014  20.834   7.064
 5536POPC   C4B70162  39.994  20.841   7.364
 5537POPC   NC370163   1.215  12.843   5.564
 5537POPC   PO470164   1.236  12.856   5.864
 5537POPC   GL170165   1.183  12.883   6.164
 5537POPC   GL270166   1.079  12.831   6.164
 5537POPC   C1A70167   1.259  12.862   6.464
 5537POPC   D2A70168   1.249  12.858   6.764
 5537POPC   C3A70169   1.213  12.865   7.064
 5537POPC   C4A70170   1.254  12.898   7.364
 5537POPC   C1B70171   0.939  12.770   6.464
 5537POPC   C2B70172   1.003  12.775   6.764
 5537POPC   C3B70173   1.006  12.862   7.064
 5537POPC   C4B70174   0.981  12.770   7.364
 5538POPC   NC370175  18.251   4.298   5.564
 5538POPC   PO470176  18.303   4.296   5.864
 5538POPC   GL170177  18.250   4.288   6.164
 5538POPC   GL270178  18.305   4.415   6.164
 5538POPC   C1A70179  18.261   4.329   6.464
 5538POPC   D2A70180  18.330   4.272   6.764
 5538POPC   C3A70181  18.283   4.304   7.064
 5538POPC   C4A70182  18.276   4.321   7.364
 5538POPC   C1B70183  18.344   4.509   6.464
 5538POPC   C2B70184  18.373   4.528   6.764
 5538POPC   C3B70185  18.383   4.516   7.064
 5538POPC   C4B70186  18.313   4.567   7.364
 5539POPC   NC370187   0.480  32.206   5.564
 5539POPC   PO470188   0.476  32.222   5.864
 5539POPC   GL170189   0.418  32.294   6.164
 5539POPC   GL270190   0.333  32.304   6.164
 5539POPC   C1A70191   0.461  32.201   6.464
 5539POPC   D2A70192   0.449  32.232   6.764
 5539POPC   C3A70193   0.464  32.206   7.064
 5539POPC   C4A70194   0.407  32.218   7.364
 5539POPC   C1B70195   0.231  32.469   6.464
 5539POPC   C2B70196   0.282  32.409   6.764
 5539POPC   C3B70197   0.239  32.417   7.064
 5539POPC   C4B70198   0.301  32.429   7.364
 5540POPC   NC370199  22.955  44.684   5.564
 5540POPC   PO470200  22.889  44.712   5.864
 5540POPC   GL170201  22.936  44.662   6.164
 5540POPC   GL270202  22.977  44.827   6.164
 5540POPC   C1A70203  22.910  44.662   6.464
 5540POPC   D2A70204  22.931  44.621   6.764
 5540POPC   C3A70205  22.925  44.681   7.064
 5540POPC   C4A70206  22.925  44.708   7.364
 5540POPC   C1B70207  22.987  44.900   6.464
 5540POPC   C2B70208  23.027  44.911   6.764
 5540POPC   C3B70209  23.027  44.924   7.064
 5540POPC   C4B70210  22.988  44.953   7.364
 5541POPC   NC370211  43.862  29.144   5.564
 5541POPC   PO470212  43.870  29.123   5.864
 5541POPC   GL170213  43.870  29.180   6.164
 5541POPC   GL270214  44.059  29.187   6.164
 5541POPC   C1A70215  43.878  29.151   6.464
 5541POPC   D2A70216  43.920  29.185   6.764
 5541POPC   C3A70217  43.845  29.174   7.064
 5541POPC   C4A70218  43.883  29.114   7.364
 5541POPC   C1B70219  44.089  29.085   6.464
 5541POPC   C2B70220  44.100  29.127   6.764
 5541POPC   C3B70221  44.143  29.146   7.064
 5541POPC   C4B70222  44.112  29.116   7.364
 5542POPC   NC370223   1.237  40.030   5.564
 5542POPC   PO470224   1.228  39.969   5.864
 5542POPC   GL170225   1.211  40.006   6.164
 5542POPC   GL270226   1.079  40.065   6.164
 5542POPC   C1A70227   1.231  40.000   6.464
 5542POPC   D2A70228   1.251  40.005   6.764
 5542POPC   C3A70229   1.172  40.013   7.064
 5542POPC   C4A70230   1.196  40.029   7.364
 5542POPC   C1B70231   1.021  40.171   6.464
 5542POPC   C2B70232   0.963  40.155   6.764
 5542POPC   C3B70233   1.021  40.170   7.064
 5542POPC   C4B70234   1.001  40.144   7.364
 5543POPC   NC370235   5.874  36.078   5.564
 5543POPC   PO470236   5.908  36.128   5.864
 5543POPC   GL170237   5.919  36.086   6.164
 5543POPC   GL270238   5.987  36.181   6.164
 5543POPC   C1A70239   5.916  36.143   6.464
 5543POPC   D2A70240   5.840  36.149   6.764
 5543POPC   C3A70241   5.825  36.162   7.064
 5543POPC   C4A70242   5.819  36.105   7.364
 5543POPC   C1B70243   6.056  36.323   6.464
 5543POPC   C2B70244   5.989  36.360   6.764
 5543POPC   C3B70245   6.080  36.293   7.064
 5543POPC   C4B70246   5.998  36.281   7.364
 5544POPC   NC370247  26.073   9.764   5.564
 5544POPC   PO470248  26.005   9.743   5.864
 5544POPC   GL170249  26.031   9.797   6.164
 5544POPC   GL270250  25.982   9.629   6.164
 5544POPC   C1A70251  26.004   9.753   6.464
 5544POPC   D2A70252  25.997   9.751   6.764
 5544POPC   C3A70253  26.049   9.704   7.064
 5544POPC   C4A70254  26.034   9.785   7.364
 5544POPC   C1B70255  25.892   9.561   6.464
 5544POPC   C2B70256  25.908   9.492   6.764
 5544POPC   C3B70257  25.925   9.547   7.064
 5544POPC   C4B70258  25.898   9.526   7.364
 5545POPC   NC370259  15.993  22.182   5.564
 5545POPC   PO470260  15.976  22.143   5.864
 5545POPC   GL170261  15.922  22.149   6.164
 5545POPC   GL270262  15.862  22.216   6.164
 5545POPC   C1A70263  15.965  22.127   6.464
 5545POPC   D2A70264  15.973  22.201   6.764
 5545POPC   C3A70265  15.958  22.172   7.064
 5545POPC   C4A70266  15.918  22.167   7.364
 5545POPC   C1B70267  15.753  22.297   6.464
 5545POPC   C2B70268  15.723  22.224   6.764
 5545POPC   C3B70269  15.682  22.309   7.064
 5545POPC   C4B70270  15.768  22.280   7.364
 5546POPC   NC370271   8.956  37.667   5.564
 5546POPC   PO470272   8.985  37.657   5.864
 5546POPC   GL170273   8.965  37.656   6.164
 5546POPC   GL270274   9.013  37.753   6.164
 5546POPC   C1A70275   9.018  37.657   6.464
 5546POPC   D2A70276   8.923  37.717   6.764
 5546POPC   C3A70277   8.971  37.713   7.064
 5546POPC   C4A70278   8.936  37.698   7.364
 5546POPC   C1B70279   9.075  37.876   6.464
 5546POPC   C2B70280   9.090  37.867   6.764
 5546POPC   C3B70281   9.103  37.910   7.064
 5546POPC   C4B70282   9.051  37.955   7.364
 5547POPC   NC370283  33.042  25.224   5.564
 5547POPC   PO470284  33.005  25.300   5.864
 5547POPC   GL170285  33.015  25.291   6.164
 5547POPC   GL270286  33.004  25.346   6.164
 5547POPC   C1A70287  32.981  25.218   6.464
 5547POPC   D2A70288  32.989  25.315   6.764
 5547POPC   C3A70289  33.009  25.272   7.064
 5547POPC   C4A70290  33.030  25.287   7.364
 5547POPC   C1B70291  32.936  25.472   6.464
 5547POPC   C2B70292  32.898  25.450   6.764
 5547POPC   C3B70293  32.883  25.505   7.064
 5547POPC   C4B70294  32.935  25.477   7.364
 5548POPC   NC370295  19.880  43.093   5.564
 5548POPC   PO470296  19.857  43.130   5.864
 5548POPC   GL170297  19.809  43.099   6.164
 5548POPC   GL270298  19.952  43.068   6.164
 5548POPC   C1A70299  19.836  43.143   6.464
 5548POPC   D2A70300  19.810  43.123   6.764
 5548POPC   C3A70301  19.832  43.108   7.064
 5548POPC   C4A70302  19.819  43.095   7.364
 5548POPC   C1B70303  20.009  42.974   6.464
 5548POPC   C2B70304  20.036  42.994   6.764
 5548POPC   C3B70305  20.074  43.020   7.064
 5548POPC   C4B70306  20.069  42.964   7.364
 5549POPC   NC370307   3.532   5.821   5.564
 5549POPC   PO470308   3.549   5.836   5.864
 5549POPC   GL170309   3.568   5.853   6.164
 5549POPC   GL270310   3.654   5.899   6.164
 5549POPC   C1A70311   3.526   5.919   6.464
 5549POPC   D2A70312   3.518   5.852   6.764
 5549POPC   C3A70313   3.508   5.882   7.064
 5549POPC   C4A70314   3.590   5.877   7.364
 5549POPC   C1B70315   3.786   5.977   6.464
 5549POPC   C2B70316   3.731   5.925   6.764
 5549POPC   C3B70317   3.806   5.902   7.064
 5549POPC   C4B70318   3.741   5.922   7.364
 5550POPC   NC370319  22.142  27.569   5.564
 5550POPC   PO470320  22.204  27.573   5.864
 5550POPC   GL170321  22.199  27.550   6.164
 5550POPC   GL270322  22.187  27.487   6.164
 5550POPC   C1A70323  22.197  27.616   6.464
 5550POPC   D2A70324  22.143  27.628   6.764
 5550POPC   C3A70325  22.193  27.632   7.064
 5550POPC   C4A70326  22.126  27.544   7.364
 5550POPC   C1B70327  22.114  27.300   6.464
 5550POPC   C2B70328  22.158  27.348   6.764
 5550POPC   C3B70329  22.105  27.336   7.064
 5550POPC   C4B70330  22.098  27.369   7.364
 5551POPC   NC370331  36.898  40.772   5.564
 5551POPC   PO470332  36.928  40.831   5.864
 5551POPC   GL170333  36.920  40.801   6.164
 5551POPC   GL270334  36.990  40.671   6.164
 5551POPC   C1A70335  36.885  40.792   6.464
 5551POPC   D2A70336  36.931  40.759   6.764
 5551POPC   C3A70337  36.949  40.783   7.064
 5551POPC   C4A70338  36.896  40.759   7.364
 5551POPC   C1B70339  37.084  40.599   6.464
 5551POPC   C2B70340  37.109  40.673   6.764
 5551POPC   C3B70341  37.114  40.662   7.064
 5551POPC   C4B70342  37.138  40.650   7.364
 5552POPC   NC370343  37.715  16.692   5.564
 5552POPC   PO470344  37.647  16.685   5.864
 5552POPC   GL170345  37.679  16.751   6.164
 5552POPC   GL270346  37.731  16.870   6.164
 5552POPC   C1A70347  37.666  16.768   6.464
 5552POPC   D2A70348  37.681  16.693   6.764
 5552POPC   C3A70349  37.683  16.716   7.064
 5552POPC   C4A70350  37.700  16.766   7.364
 5552POPC   C1B70351  37.823  16.952   6.464
 5552POPC   C2B70352  37.847  16.927   6.764
 5552POPC   C3B70353  37.802  16.937   7.064
 5552POPC   C4B70354  37.877  16.948   7.364
 5553POPC   NC370355  20.637  36.895   5.564
 5553POPC   PO470356  20.639  36.857   5.864
 5553POPC   GL170357  20.585  36.901   6.164
 5553POPC   GL270358  20.464  36.872   6.164
 5553POPC   C1A70359  20.577  36.861   6.464
 5553POPC   D2A70360  20.613  36.935   6.764
 5553POPC   C3A70361  20.613  36.936   7.064
 5553POPC   C4A70362  20.620  36.938   7.364
 5553POPC   C1B70363  20.370  36.864   6.464
 5553POPC   C2B70364  20.364  36.881   6.764
 5553POPC   C3B70365  20.379  36.855   7.064
 5553POPC   C4B70366  20.346  36.854   7.364
 5554POPC   NC370367  40.022  30.691   5.564
 5554POPC   PO470368  39.967  30.685   5.864
 5554POPC   GL170369  39.970  30.648   6.164
 5554POPC   GL270370  40.019  30.829   6.164
 5554POPC   C1A70371  40.024  30.726   6.464
 5554POPC   D2A70372  40.016  30.697   6.764
 5554POPC   C3A70373  40.054  30.731   7.064
 5554POPC   C4A70374  40.041  30.691   7.364
 5554POPC   C1B70375  39.985  30.932   6.464
 5554POPC   C2B70376  39.998  30.919   6.764
 5554POPC   C3B70377  39.910  30.946   7.064
 5554POPC   C4B70378  40.008  30.915   7.364
 5555POPC   NC370379  34.538  18.272   5.564
 5555POPC   PO470380  34.542  18.251   5.864
 5555POPC   GL170381  34.534  18.234   6.164
 5555POPC   GL270382  34.496  18.285   6.164
 5555POPC   C1A70383  34.545  18.312   6.464
 5555POPC   D2A70384  34.556  18.288   6.764
 5555POPC   C3A70385  34.597  18.272   7.064
 5555POPC   C4A70386  34.596  18.292   7.364
 5555POPC   C1B70387  34.307  18.369   6.464
 5555POPC   C2B70388  34.375  18.352   6.764
 5555POPC   C3B70389  34.350  18.343   7.064
 5555POPC   C4B70390  34.318  18.330   7.364
 5556POPC   NC370391  15.961  40.020   5.564
 5556POPC   PO470392  15.980  40.037   5.864
 5556POPC   GL170393  15.994  39.984   6.164
 5556POPC   GL270394  16.006  40.100   6.164
 5556POPC   C1A70395  15.935  40.010   6.464
 5556POPC   D2A70396  15.925  39.963   6.764
 5556POPC   C3A70397  15.949  40.033   7.064
 5556POPC   C4A70398  15.981  40.044   7.364
 5556POPC   C1B70399  15.979  40.245   6.464
 5556POPC   C2B70400  16.018  40.206   6.764
 5556POPC   C3B70401  16.019  40.208   7.064
 5556POPC   C4B70402  16.032  40.258   7.364
 5557POPC   NC370403  40.756  35.374   5.564
 5557POPC   PO470404  40.741  35.390   5.864
 5557POPC   GL170405  40.747  35.338   6.164
 5557POPC   GL270406  40.710  35.259   6.164
 5557POPC   C1A70407  40.758  35.347   6.464
 5557POPC   D2A70408  40.822  35.379   6.764
 5557POPC   C3A70409  40.743  35.308   7.064
 5557POPC   C4A70410  40.750  35.347   7.364
 5557POPC   C1B70411  40.541  35.178   6.464
 5557POPC   C2B70412  40.559  35.185   6.764
 5557POPC   C3B70413  40.570  35.210   7.064
 5557POPC   C4B70414  40.593  35.171   7.364
 5558POPC   NC370415  20.568   6.610   5.564
 5558POPC   PO470416  20.566   6.688   5.864
 5558POPC   GL170417  20.604   6.599   6.164
 5558POPC   GL270418  20.655   6.783   6.164
 5558POPC   C1A70419  20.640   6.605   6.464
 5558POPC   D2A70420  20.605   6.688   6.764
 5558POPC   C3A70421  20.613   6.618   7.064
 5558POPC   C4A70422  20.635   6.639   7.364
 5558POPC   C1B70423  20.605   6.906   6.464
 5558POPC   C2B70424  20.609   6.923   6.764
 5558POPC   C3B70425  20.583   6.940   7.064
 5558POPC   C4B70426  20.631   6.931   7.364
 5559POPC   NC370427   7.376   9.795   5.564
 5559POPC   PO470428   7.467   9.721   5.864
 5559POPC   GL170429   7.376   9.699   6.164
 5559POPC   GL270430   7.354   9.845   6.164
 5559POPC   C1A70431   7.446   9.796   6.464
 5559POPC   D2A70432   7.458   9.780   6.764
 5559POPC   C3A70433   7.407   9.745   7.064
 5559POPC   C4A70434   7.455   9.746   7.364
 5559POPC   C1B70435   7.298   9.940   6.464
 5559POPC   C2B70436   7.319   9.982   6.764
 5559POPC   C3B70437   7.287   9.971   7.064
 5559POPC   C4B70438   7.298   9.971   7.364
 5560POPC   NC370439   3.519  27.580   5.564
 5560POPC   PO470440   3.507  27.641   5.864
 5560POPC   GL170441   3.557  27.604   6.164
 5560POPC   GL270442   3.658  27.667   6.164
 5560POPC   C1A70443   3.529  27.589   6.464
 5560POPC   D2A70444   3.563  27.616   6.764
 5560POPC   C3A70445   3.576  27.605   7.064
 5560POPC   C4A70446   3.552  27.544   7.364
 5560POPC   C1B70447   3.695  27.771   6.464
 5560POPC   C2B70448   3.778  27.748   6.764
 5560POPC   C3B70449   3.717  27.767   7.064
 5560POPC   C4B70450   3.771  27.720   7.364
 5561POPC   NC370451  36.140  44.654   5.564
 5561POPC   PO470452  36.170  44.702   5.864
 5561POPC   GL170453  36.169  44.664   6.164
 5561POPC   GL270454  36.293  44.626   6.164
 5561POPC   C1A70455  36.153  44.633   6.464
 5561POPC   D2A70456  36.093  44.626   6.764
 5561POPC   C3A70457  36.095  44.641   7.064
 5561POPC   C4A70458  36.085  44.621   7.364
 5561POPC   C1B70459  36.388  44.649   6.464
 5561POPC   C2B70460  36.352  44.658   6.764
 5561POPC   C3B70461  36.331  44.659   7.064
 5561POPC   C4B70462  36.407  44.654   7.364
 5562POPC   NC370463   2.022  18.252   5.564
 5562POPC   PO470464   1.999  18.245   5.864
 5562POPC   GL170465   1.986  18.289   6.164
 5562POPC   GL270466   1.910  18.362   6.164
 5562POPC   C1A70467   2.025  18.271   6.464
 5562POPC   D2A70468   1.941  18.324   6.764
 5562POPC   C3A70469   1.960  18.291   7.064
 5562POPC   C4A70470   1.962  18.318   7.364
 5562POPC   C1B70471   1.729  18.333   6.464
 5562POPC   C2B70472   1.704  18.324   6.764
 5562POPC   C3B70473   1.776  18.383   7.064
 5562POPC   C4B70474   1.734  18.391   7.364
 5563POPC   NC370475  33.812  16.721   5.564
 5563POPC   PO470476  33.836  16.737   5.864
 5563POPC   GL170477  33.850  16.746   6.164
 5563POPC   GL270478  33.820  16.598   6.164
 5563POPC   C1A70479  33.791  16.715   6.464
 5563POPC   D2A70480  33.844  16.683   6.764
 5563POPC   C3A70481  33.801  16.714   7.064
 5563POPC   C4A70482  33.787  16.726   7.364
 5563POPC   C1B70483  33.775  16.521   6.464
 5563POPC   C2B70484  33.836  16.447   6.764
 5563POPC   C3B70485  33.810  16.497   7.064
 5563POPC   C4B70486  33.766  16.527   7.364
 5564POPC   NC370487  43.115  36.867   5.564
 5564POPC   PO470488  43.151  36.935   5.864
 5564POPC   GL170489  43.082  36.908   6.164
 5564POPC   GL270490  43.015  36.809   6.164
 5564POPC   C1A70491  43.148  36.894   6.464
 5564POPC   D2A70492  43.148  36.860   6.764
 5564POPC   C3A70493  43.108  36.942   7.064
 5564POPC   C4A70494  43.078  36.912   7.364
 5564POPC   C1B70495  42.889  36.823   6.464
 5564POPC   C2B70496  42.933  36.744   6.764
 5564POPC   C3B70497  42.847  36.768   7.064
 5564POPC   C4B70498  42.910  36.786   7.364
 5565POPC   NC370499  40.040  39.988   5.564
 5565POPC   PO470500  40.042  40.034   5.864
 5565POPC   GL170501  39.967  40.022   6.164
 5565POPC   GL270502  40.084  39.954   6.164
 5565POPC   C1A70503  39.984  40.005   6.464
 5565POPC   D2A70504  40.050  40.030   6.764
 5565POPC   C3A70505  40.002  39.989   7.064
 5565POPC   C4A70506  39.974  39.981   7.364
 5565POPC   C1B70507  40.132  39.828   6.464
 5565POPC   C2B70508  40.137  39.757   6.764
 5565POPC   C3B70509  40.167  39.761   7.064
 5565POPC   C4B70510  40.136  39.835   7.364
 5566POPC   NC370511  25.243  28.380   5.564
 5566POPC   PO470512  25.263  28.415   5.864
 5566POPC   GL170513  25.253  28.391   6.164
 5566POPC   GL270514  25.284  28.275   6.164
 5566POPC   C1A70515  25.260  28.360   6.464
 5566POPC   D2A70516  25.267  28.370   6.764
 5566POPC   C3A70517  25.248  28.359   7.064
 5566POPC   C4A70518  25.278  28.416   7.364
 5566POPC   C1B70519  25.412  28.189   6.464
 5566POPC   C2B70520  25.410  28.189   6.764
 5566POPC   C3B70521  25.432  28.146   7.064
 5566POPC   C4B70522  25.366  28.142   7.364
 5567POPC   NC370523  36.149  40.758   5.564
 5567POPC   PO470524  36.173  40.806   5.864
 5567POPC   GL170525  36.110  40.759   6.164
 5567POPC   GL270526  36.027  40.693   6.164
 5567POPC   C1A70527  36.111  40.811   6.464
 5567POPC   D2A70528  36.120  40.752   6.764
 5567POPC   C3A70529  36.114  40.815   7.064
 5567POPC   C4A70530  36.119  40.826   7.364
 5567POPC   C1B70531  35.886  40.649   6.464
 5567POPC   C2B70532  35.901  40.602   6.764
 5567POPC   C3B70533  35.934  40.687   7.064
 5567POPC   C4B70534  35.881  40.633   7.364
 5568POPC   NC370535  38.424  29.936   5.564
 5568POPC   PO470536  38.406  29.967   5.864
 5568POPC   GL170537  38.448  29.910   6.164
 5568POPC   GL270538  38.526  30.003   6.164
 5568POPC   C1A70539  38.504  29.890   6.464
 5568POPC   D2A70540  38.500  29.881   6.764
 5568POPC   C3A70541  38.452  29.967   7.064
 5568POPC   C4A70542  38.486  29.928   7.364
 5568POPC   C1B70543  38.636  30.011   6.464
 5568POPC   C2B70544  38.695  30.058   6.764
 5568POPC   C3B70545  38.619  30.103   7.064
 5568POPC   C4B70546  38.682  30.070   7.364
 5569POPC   NC370547  16.745  38.483   5.564
 5569POPC   PO470548  16.696  38.415   5.864
 5569POPC   GL170549  16.757  38.473   6.164
 5569POPC   GL270550  16.674  38.337   6.164
 5569POPC   C1A70551  16.719  38.474   6.464
 5569POPC   D2A70552  16.690  38.495   6.764
 5569POPC   C3A70553  16.704  38.447   7.064
 5569POPC   C4A70554  16.769  38.441   7.364
 5569POPC   C1B70555  16.629  38.220   6.464
 5569POPC   C2B70556  16.636  38.217   6.764
 5569POPC   C3B70557  16.602  38.195   7.064
 5569POPC   C4B70558  16.566  38.217   7.364
 5570POPC   NC370559  34.558  11.323   5.564
 5570POPC   PO470560  34.611  11.321   5.864
 5570POPC   GL170561  34.592  11.316   6.164
 5570POPC   GL270562  34.437  11.336   6.164
 5570POPC   C1A70563  34.615  11.256   6.464
 5570POPC   D2A70564  34.551  11.311   6.764
 5570POPC   C3A70565  34.532  11.330   7.064
 5570POPC   C4A70566  34.604  11.306   7.364
 5570POPC   C1B70567  34.380  11.445   6.464
 5570POPC   C2B70568  34.350  11.477   6.764
 5570POPC   C3B70569  34.355  11.467   7.064
 5570POPC   C4B70570  34.338  11.455   7.364
 5571POPC   NC370571  19.877  26.853   5.564
 5571POPC   PO470572  19.866  26.773   5.864
 5571POPC   GL170573  19.865  26.798   6.164
 5571POPC   GL270574  19.909  26.809   6.164
 5571POPC   C1A70575  19.801  26.822   6.464
 5571POPC   D2A70576  19.824  26.850   6.764
 5571POPC   C3A70577  19.818  26.821   7.064
 5571POPC   C4A70578  19.788  26.824   7.364
 5571POPC   C1B70579  20.115  26.853   6.464
 5571POPC   C2B70580  20.049  26.912   6.764
 5571POPC   C3B70581  20.109  26.917   7.064
 5571POPC   C4B70582  20.127  26.877   7.364
 5572POPC   NC370583  34.563  17.510   5.564
 5572POPC   PO470584  34.532  17.544   5.864
 5572POPC   GL170585  34.601  17.494   6.164
 5572POPC   GL270586  34.670  17.404   6.164
 5572POPC   C1A70587  34.554  17.509   6.464
 5572POPC   D2A70588  34.553  17.507   6.764
 5572POPC   C3A70589  34.609  17.471   7.064
 5572POPC   C4A70590  34.587  17.466   7.364
 5572POPC   C1B70591  34.761  17.339   6.464
 5572POPC   C2B70592  34.768  17.335   6.764
 5572POPC   C3B70593  34.693  17.290   7.064
 5572POPC   C4B70594  34.764  17.353   7.364
 5573POPC   NC370595  36.143   8.244   5.564
 5573POPC   PO470596  36.093   8.178   5.864
 5573POPC   GL170597  36.157   8.168   6.164
 5573POPC   GL270598  36.135   8.054   6.164
 5573POPC   C1A70599  36.136   8.151   6.464
 5573POPC   D2A70600  36.078   8.184   6.764
 5573POPC   C3A70601  36.156   8.230   7.064
 5573POPC   C4A70602  36.087   8.162   7.364
 5573POPC   C1B70603  36.122   7.937   6.464
 5573POPC   C2B70604  36.152   7.947   6.764
 5573POPC   C3B70605  36.127   7.973   7.064
 5573POPC   C4B70606  36.166   7.991   7.364
 5574POPC   NC370607  23.681  13.596   5.564
 5574POPC   PO470608  23.724  13.662   5.864
 5574POPC   GL170609  23.682  13.592   6.164
 5574POPC   GL270610  23.606  13.595   6.164
 5574POPC   C1A70611  23.701  13.609   6.464
 5574POPC   D2A70612  23.748  13.630   6.764
 5574POPC   C3A70613  23.675  13.598   7.064
 5574POPC   C4A70614  23.688  13.625   7.364
 5574POPC   C1B70615  23.450  13.510   6.464
 5574POPC   C2B70616  23.523  13.541   6.764
 5574POPC   C3B70617  23.517  13.596   7.064
 5574POPC   C4B70618  23.474  13.549   7.364
 5575POPC   NC370619  26.827  44.646   5.564
 5575POPC   PO470620  26.844  44.674   5.864
 5575POPC   GL170621  26.814  44.706   6.164
 5575POPC   GL270622  26.762  44.530   6.164
 5575POPC   C1A70623  26.785  44.630   6.464
 5575POPC   D2A70624  26.796  44.648   6.764
 5575POPC   C3A70625  26.833  44.663   7.064
 5575POPC   C4A70626  26.769  44.651   7.364
 5575POPC   C1B70627  26.724  44.496   6.464
 5575POPC   C2B70628  26.642  44.479   6.764
 5575POPC   C3B70629  26.727  44.453   7.064
 5575POPC   C4B70630  26.635  44.457   7.364
 5576POPC   NC370631  35.380  19.051   5.564
 5576POPC   PO470632  35.390  19.108   5.864
 5576POPC   GL170633  35.370  19.011   6.164
 5576POPC   GL270634  35.393  18.935   6.164
 5576POPC   C1A70635  35.311  19.040   6.464
 5576POPC   D2A70636  35.373  19.052   6.764
 5576POPC   C3A70637  35.317  19.044   7.064
 5576POPC   C4A70638  35.386  19.046   7.364
 5576POPC   C1B70639  35.421  18.848   6.464
 5576POPC   C2B70640  35.481  18.839   6.764
 5576POPC   C3B70641  35.472  18.859   7.064
 5576POPC   C4B70642  35.497  18.843   7.364
 5577POPC   NC370643  41.597   3.510   5.564
 5577POPC   PO470644  41.579   3.555   5.864
 5577POPC   GL170645  41.549   3.511   6.164
 5577POPC   GL270646  41.643   3.532   6.164
 5577POPC   C1A70647  41.589   3.498   6.464
 5577POPC   D2A70648  41.541   3.537   6.764
 5577POPC   C3A70649  41.520   3.533   7.064
 5577POPC   C4A70650  41.579   3.574   7.364
 5577POPC   C1B70651  41.755   3.557   6.464
 5577POPC   C2B70652  41.827   3.549   6.764
 5577POPC   C3B70653  41.845   3.578   7.064
 5577POPC   C4B70654  41.846   3.575   7.364
 5578POPC   NC370655  19.104   1.940   5.564
 5578POPC   PO470656  19.027   2.019   5.864
 5578POPC   GL170657  19.061   2.001   6.164
 5578POPC   GL270658  19.186   2.041   6.164
 5578POPC   C1A70659  19.063   2.005   6.464
 5578POPC   D2A70660  19.087   1.971   6.764
 5578POPC   C3A70661  19.087   1.953   7.064
 5578POPC   C4A70662  19.041   2.039   7.364
 5578POPC   C1B70663  19.251   2.165   6.464
 5578POPC   C2B70664  19.224   2.137   6.764
 5578POPC   C3B70665  19.202   2.197   7.064
 5578POPC   C4B70666  19.233   2.149   7.364
 5579POPC   NC370667  37.635  22.970   5.564
 5579POPC   PO470668  37.690  22.892   5.864
 5579POPC   GL170669  37.680  22.933   6.164
 5579POPC   GL270670  37.686  22.789   6.164
 5579POPC   C1A70671  37.682  22.952   6.464
 5579POPC   D2A70672  37.678  22.944   6.764
 5579POPC   C3A70673  37.683  22.963   7.064
 5579POPC   C4A70674  37.662  22.935   7.364
 5579POPC   C1B70675  37.679  22.694   6.464
 5579POPC   C2B70676  37.671  22.729   6.764
 5579POPC   C3B70677  37.668  22.653   7.064
 5579POPC   C4B70678  37.625  22.685   7.364
 5580POPC   NC370679  42.340  33.809   5.564
 5580POPC   PO470680  42.374  33.843   5.864
 5580POPC   GL170681  42.327  33.784   6.164
 5580POPC   GL270682  42.492  33.766   6.164
 5580POPC   C1A70683  42.301  33.801   6.464
 5580POPC   D2A70684  42.312  33.845   6.764
 5580POPC   C3A70685  42.344  33.821   7.064
 5580POPC   C4A70686  42.315  33.835   7.364
 5580POPC   C1B70687  42.522  33.659   6.464
 5580POPC   C2B70688  42.569  33.716   6.764
 5580POPC   C3B70689  42.541  33.689   7.064
 5580POPC   C4B70690  42.547  33.668   7.364
 5581POPC   NC370691  25.309  30.696   5.564
 5581POPC   PO470692  25.285  30.711   5.864
 5581POPC   GL170693  25.298  30.713   6.164
 5581POPC   GL270694  25.259  30.579   6.164
 5581POPC   C1A70695  25.223  30.682   6.464
 5581POPC   D2A70696  25.271  30.704   6.764
 5581POPC   C3A70697  25.239  30.663   7.064
 5581POPC   C4A70698  25.274  30.740   7.364
 5581POPC   C1B70699  25.223  30.472   6.464
 5581POPC   C2B70700  25.272  30.413   6.764
 5581POPC   C3B70701  25.221  30.446   7.064
 5581POPC   C4B70702  25.237  30.493   7.364
 5582POPC   NC370703  41.594   0.392   5.564
 5582POPC   PO470704  41.510   0.485   5.864
 5582POPC   GL170705  41.557   0.427   6.164
 5582POPC   GL270706  41.545   0.608   6.164
 5582POPC   C1A70707  41.523   0.460   6.464
 5582POPC   D2A70708  41.570   0.441   6.764
 5582POPC   C3A70709  41.599   0.461   7.064
 5582POPC   C4A70710  41.540   0.422   7.364
 5582POPC   C1B70711  41.548   0.709   6.464
 5582POPC   C2B70712  41.541   0.691   6.764
 5582POPC   C3B70713  41.534   0.668   7.064
 5582POPC   C4B70714  41.497   0.679   7.364
 5583POPC   NC370715  30.740  29.910   5.564
 5583POPC   PO470716  30.654  29.915   5.864
 5583POPC   GL170717  30.730  29.903   6.164
 5583POPC   GL270718  30.750  29.851   6.164
 5583POPC   C1A70719  30.704  29.876   6.464
 5583POPC   D2A70720  30.686  29.952   6.764
 5583POPC   C3A70721  30.684  29.895   7.064
 5583POPC   C4A70722  30.667  29.954   7.364
 5583POPC   C1B70723  30.857  29.735   6.464
 5583POPC   C2B70724  30.856  29.722   6.764
 5583POPC   C3B70725  30.892  29.686   7.064
 5583POPC   C4B70726  30.847  29.733   7.364
 5584POPC   NC370727  31.517  41.573   5.564
 5584POPC   PO470728  31.435  41.571   5.864
 5584POPC   GL170729  31.443  41.559   6.164
 5584POPC   GL270730  31.465  41.635   6.164
 5584POPC   C1A70731  31.459  41.546   6.464
 5584POPC   D2A70732  31.454  41.599   6.764
 5584POPC   C3A70733  31.477  41.576   7.064
 5584POPC   C4A70734  31.477  41.549   7.364
 5584POPC   C1B70735  31.522  41.782   6.464
 5584POPC   C2B70736  31.550  41.825   6.764
 5584POPC   C3B70737  31.529  41.807   7.064
 5584POPC   C4B70738  31.591  41.806   7.364
 5585POPC   NC370739  24.445  29.139   5.564
 5585POPC   PO470740  24.490  29.174   5.864
 5585POPC   GL170741  24.531  29.105   6.164
 5585POPC   GL270742  24.416  29.064   6.164
 5585POPC   C1A70743  24.485  29.120   6.464
 5585POPC   D2A70744  24.441  29.113   6.764
 5585POPC   C3A70745  24.455  29.103   7.064
 5585POPC   C4A70746  24.477  29.156   7.364
 5585POPC   C1B70747  24.315  29.023   6.464
 5585POPC   C2B70748  24.278  29.051   6.764
 5585POPC   C3B70749  24.268  28.970   7.064
 5585POPC   C4B70750  24.234  28.969   7.364
 5586POPC   NC370751  27.633  15.952   5.564
 5586POPC   PO470752  27.609  15.986   5.864
 5586POPC   GL170753  27.624  15.912   6.164
 5586POPC   GL270754  27.523  15.892   6.164
 5586POPC   C1A70755  27.545  15.956   6.464
 5586POPC   D2A70756  27.549  15.921   6.764
 5586POPC   C3A70757  27.598  15.982   7.064
 5586POPC   C4A70758  27.604  15.996   7.364
 5586POPC   C1B70759  27.399  15.794   6.464
 5586POPC   C2B70760  27.378  15.854   6.764
 5586POPC   C3B70761  27.358  15.800   7.064
 5586POPC   C4B70762  27.366  15.836   7.364
 5587POPC   NC370763  11.311   1.179   5.564
 5587POPC   PO470764  11.265   1.263   5.864
 5587POPC   GL170765  11.334   1.178   6.164
 5587POPC   GL270766  11.379   1.250   6.164
 5587POPC   C1A70767  11.320   1.256   6.464
 5587POPC   D2A70768  11.334   1.207   6.764
 5587POPC   C3A70769  11.252   1.180   7.064
 5587POPC   C4A70770  11.267   1.216   7.364
 5587POPC   C1B70771  11.515   1.381   6.464
 5587POPC   C2B70772  11.490   1.403   6.764
 5587POPC   C3B70773  11.522   1.389   7.064
 5587POPC   C4B70774  11.439   1.358   7.364
 5588POPC   NC370775  22.893  22.138   5.564
 5588POPC   PO470776  22.967  22.173   5.864
 5588POPC   GL170777  22.922  22.186   6.164
 5588POPC   GL270778  22.871  22.209   6.164
 5588POPC   C1A70779  22.916  22.190   6.464
 5588POPC   D2A70780  22.976  22.160   6.764
 5588POPC   C3A70781  22.907  22.160   7.064
 5588POPC   C4A70782  22.930  22.168   7.364
 5588POPC   C1B70783  22.678  22.262   6.464
 5588POPC   C2B70784  22.675  22.325   6.764
 5588POPC   C3B70785  22.704  22.266   7.064
 5588POPC   C4B70786  22.748  22.303   7.364
 5589POPC   NC370787  12.053  29.127   5.564
 5589POPC   PO470788  12.079  29.100   5.864
 5589POPC   GL170789  12.120  29.190   6.164
 5589POPC   GL270790  11.946  29.063   6.164
 5589POPC   C1A70791  12.042  29.169   6.464
 5589POPC   D2A70792  12.076  29.098   6.764
 5589POPC   C3A70793  12.088  29.153   7.064
 5589POPC   C4A70794  12.051  29.158   7.364
 5589POPC   C1B70795  11.867  29.024   6.464
 5589POPC   C2B70796  11.833  29.014   6.764
 5589POPC   C3B70797  11.884  28.982   7.064
 5589POPC   C4B70798  11.825  29.034   7.364
 5590POPC   NC370799  18.257   3.528   5.564
 5590POPC   PO470800  18.287   3.584   5.864
 5590POPC   GL170801  18.328   3.549   6.164
 5590POPC   GL270802  18.160   3.598   6.164
 5590POPC   C1A70803  18.258   3.571   6.464
 5590POPC   D2A70804  18.252   3.525   6.764
 5590POPC   C3A70805  18.326   3.498   7.064
 5590POPC   C4A70806  18.297   3.505   7.364
 5590POPC   C1B70807  18.074   3.647   6.464
 5590POPC   C2B70808  18.116   3.674   6.764
 5590POPC   C3B70809  18.076   3.655   7.064
 5590POPC   C4B70810  18.076   3.666   7.364
 5591POPC   NC370811   2.026  14.400   5.564
 5591POPC   PO470812   1.984  14.373   5.864
 5591POPC   GL170813   2.018  14.410   6.164
 5591POPC   GL270814   2.004  14.533   6.164
 5591POPC   C1A70815   1.950  14.403   6.464
 5591POPC   D2A70816   1.978  14.380   6.764
 5591POPC   C3A70817   2.033  14.444   7.064
 5591POPC   C4A70818   1.980  14.403   7.364
 5591POPC   C1B70819   1.946  14.677   6.464
 5591POPC   C2B70820   2.017  14.654   6.764
 5591POPC   C3B70821   2.018  14.618   7.064
 5591POPC   C4B70822   2.042  14.657   7.364
 5592POPC   NC370823  25.220   4.358   5.564
 5592POPC   PO470824  25.269   4.279   5.864
 5592POPC   GL170825  25.271   4.277   6.164
 5592POPC   GL270826  25.188   4.309   6.164
 5592POPC   C1A70827  25.231   4.276   6.464
 5592POPC   D2A70828  25.279   4.343   6.764
 5592POPC   C3A70829  25.255   4.338   7.064
 5592POPC   C4A70830  25.244   4.293   7.364
 5592POPC   C1B70831  25.008   4.391   6.464
 5592POPC   C2B70832  24.976   4.406   6.764
 5592POPC   C3B70833  25.045   4.351   7.064
 5592POPC   C4B70834  25.000   4.409   7.364
 5593POPC   NC370835  43.892  33.840   5.564
 5593POPC   PO470836  43.927  33.830   5.864
 5593POPC   GL170837  43.927  33.781   6.164
 5593POPC   GL270838  43.807  33.841   6.164
 5593POPC   C1A70839  43.860  33.751   6.464
 5593POPC   D2A70840  43.907  33.830   6.764
 5593POPC   C3A70841  43.865  33.774   7.064
 5593POPC   C4A70842  43.913  33.790   7.364
 5593POPC   C1B70843  43.661  33.838   6.464
 5593POPC   C2B70844  43.647  33.810   6.764
 5593POPC   C3B70845  43.611  33.796   7.064
 5593POPC   C4B70846  43.625  33.786   7.364
 5594POPC   NC370847  35.397  18.251   5.564
 5594POPC   PO470848  35.363  18.318   5.864
 5594POPC   GL170849  35.311  18.304   6.164
 5594POPC   GL270850  35.195  18.272   6.164
 5594POPC   C1A70851  35.327  18.270   6.464
 5594POPC   D2A70852  35.374  18.264   6.764
 5594POPC   C3A70853  35.400  18.263   7.064
 5594POPC   C4A70854  35.358  18.238   7.364
 5594POPC   C1B70855  35.075  18.248   6.464
 5594POPC   C2B70856  35.099  18.240   6.764
 5594POPC   C3B70857  35.143  18.298   7.064
 5594POPC   C4B70858  35.077  18.311   7.364
 5595POPC   NC370859   4.296   1.224   5.564
 5595POPC   PO470860   4.307   1.226   5.864
 5595POPC   GL170861   4.321   1.232   6.164
 5595POPC   GL270862   4.340   1.301   6.164
 5595POPC   C1A70863   4.359   1.222   6.464
 5595POPC   D2A70864   4.365   1.260   6.764
 5595POPC   C3A70865   4.281   1.169   7.064
 5595POPC   C4A70866   4.319   1.227   7.364
 5595POPC   C1B70867   4.279   1.508   6.464
 5595POPC   C2B70868   4.330   1.501   6.764
 5595POPC   C3B70869   4.359   1.507   7.064
 5595POPC   C4B70870   4.334   1.443   7.364
 5596POPC   NC370871  16.693   5.060   5.564
 5596POPC   PO470872  16.684   5.111   5.864
 5596POPC   GL170873  16.760   5.101   6.164
 5596POPC   GL270874  16.786   5.169   6.164
 5596POPC   C1A70875  16.687   5.108   6.464
 5596POPC   D2A70876  16.767   5.053   6.764
 5596POPC   C3A70877  16.729   5.110   7.064
 5596POPC   C4A70878  16.689   5.107   7.364
 5596POPC   C1B70879  16.896   5.261   6.464
 5596POPC   C2B70880  16.861   5.279   6.764
 5596POPC   C3B70881  16.848   5.342   7.064
 5596POPC   C4B70882  16.890   5.329   7.364
 5597POPC   NC370883  43.853  16.696   5.564
 5597POPC   PO470884  43.930  16.723   5.864
 5597POPC   GL170885  43.914  16.715   6.164
 5597POPC   GL270886  43.811  16.806   6.164
 5597POPC   C1A70887  43.868  16.709   6.464
 5597POPC   D2A70888  43.913  16.697   6.764
 5597POPC   C3A70889  43.881  16.754   7.064
 5597POPC   C4A70890  43.900  16.708   7.364
 5597POPC   C1B70891  43.829  17.002   6.464
 5597POPC   C2B70892  43.768  16.968   6.764
 5597POPC   C3B70893  43.823  17.000   7.064
 5597POPC   C4B70894  43.817  16.982   7.364
 5598POPC   NC370895  33.787  15.216   5.564
 5598POPC   PO470896  33.757  15.160   5.864
 5598POPC   GL170897  33.813  15.140   6.164
 5598POPC   GL270898  33.717  15.258   6.164
 5598POPC   C1A70899  33.754  15.228   6.464
 5598POPC   D2A70900  33.815  15.170   6.764
 5598POPC   C3A70901  33.788  15.155   7.064
 5598POPC   C4A70902  33.766  15.213   7.364
 5598POPC   C1B70903  33.572  15.316   6.464
 5598POPC   C2B70904  33.585  15.312   6.764
 5598POPC   C3B70905  33.651  15.340   7.064
 5598POPC   C4B70906  33.591  15.346   7.364
 5599POPC   NC370907  39.218  16.681   5.564
 5599POPC   PO470908  39.252  16.778   5.864
 5599POPC   GL170909  39.271  16.756   6.164
 5599POPC   GL270910  39.219  16.869   6.164
 5599POPC   C1A70911  39.263  16.708   6.464
 5599POPC   D2A70912  39.231  16.767   6.764
 5599POPC   C3A70913  39.186  16.756   7.064
 5599POPC   C4A70914  39.238  16.710   7.364
 5599POPC   C1B70915  39.070  16.961   6.464
 5599POPC   C2B70916  39.140  16.966   6.764
 5599POPC   C3B70917  39.093  16.916   7.064
 5599POPC   C4B70918  39.143  16.960   7.364
 5600POPC   NC370919   2.762   6.679   5.564
 5600POPC   PO470920   2.789   6.655   5.864
 5600POPC   GL170921   2.783   6.688   6.164
 5600POPC   GL270922   2.686   6.746   6.164
 5600POPC   C1A70923   2.731   6.690   6.464
 5600POPC   D2A70924   2.798   6.685   6.764
 5600POPC   C3A70925   2.724   6.689   7.064
 5600POPC   C4A70926   2.785   6.660   7.364
 5600POPC   C1B70927   2.614   6.823   6.464
 5600POPC   C2B70928   2.618   6.879   6.764
 5600POPC   C3B70929   2.568   6.794   7.064
 5600POPC   C4B70930   2.635   6.884   7.364
 5601POPC   NC370931   8.950   0.395   5.564
 5601POPC   PO470932   8.977   0.465   5.864
 5601POPC   GL170933   8.984   0.450   6.164
 5601POPC   GL270934   8.820   0.381   6.164
 5601POPC   C1A70935   8.990   0.463   6.464
 5601POPC   D2A70936   9.003   0.439   6.764
 5601POPC   C3A70937   8.934   0.438   7.064
 5601POPC   C4A70938   9.007   0.389   7.364
 5601POPC   C1B70939   8.739   0.390   6.464
 5601POPC   C2B70940   8.775   0.394   6.764
 5601POPC   C3B70941   8.731   0.356   7.064
 5601POPC   C4B70942   8.757   0.375   7.364
 5602POPC   NC370943  12.867   9.787   5.564
 5602POPC   PO470944  12.899   9.729   5.864
 5602POPC   GL170945  12.803   9.755   6.164
 5602POPC   GL270946  12.923   9.581   6.164
 5602POPC   C1A70947  12.887   9.736   6.464
 5602POPC   D2A70948  12.842   9.703   6.764
 5602POPC   C3A70949  12.866   9.713   7.064
 5602POPC   C4A70950  12.826   9.747   7.364
 5602POPC   C1B70951  12.923   9.526   6.464
 5602POPC   C2B70952  12.920   9.482   6.764
 5602POPC   C3B70953  12.939   9.534   7.064
 5602POPC   C4B70954  12.878   9.555   7.364
 5603POPC   NC370955  18.264  40.773   5.564
 5603POPC   PO470956  18.258  40.824   5.864
 5603POPC   GL170957  18.280  40.823   6.164
 5603POPC   GL270958  18.142  40.748   6.164
 5603POPC   C1A70959  18.273  40.786   6.464
 5603POPC   D2A70960  18.304  40.751   6.764
 5603POPC   C3A70961  18.312  40.753   7.064
 5603POPC   C4A70962  18.274  40.783   7.364
 5603POPC   C1B70963  18.057  40.680   6.464
 5603POPC   C2B70964  18.079  40.635   6.764
 5603POPC   C3B70965  18.043  40.642   7.064
 5603POPC   C4B70966  18.081  40.712   7.364
 5604POPC   NC370967  30.676  21.342   5.564
 5604POPC   PO470968  30.696  21.358   5.864
 5604POPC   GL170969  30.697  21.417   6.164
 5604POPC   GL270970  30.548  21.363   6.164
 5604POPC   C1A70971  30.698  21.407   6.464
 5604POPC   D2A70972  30.685  21.435   6.764
 5604POPC   C3A70973  30.666  21.357   7.064
 5604POPC   C4A70974  30.648  21.379   7.364
 5604POPC   C1B70975  30.473  21.373   6.464
 5604POPC   C2B70976  30.488  21.402   6.764
 5604POPC   C3B70977  30.410  21.375   7.064
 5604POPC   C4B70978  30.441  21.431   7.364
 5605POPC   NC370979  21.342  25.302   5.564
 5605POPC   PO470980  21.419  25.246   5.864
 5605POPC   GL170981  21.421  25.274   6.164
 5605POPC   GL270982  21.417  25.122   6.164
 5605POPC   C1A70983  21.433  25.310   6.464
 5605POPC   D2A70984  21.343  25.280   6.764
 5605POPC   C3A70985  21.363  25.231   7.064
 5605POPC   C4A70986  21.358  25.295   7.364
 5605POPC   C1B70987  21.499  25.065   6.464
 5605POPC   C2B70988  21.569  25.090   6.764
 5605POPC   C3B70989  21.578  25.034   7.064
 5605POPC   C4B70990  21.512  25.065   7.364
 5606POPC   NC370991  28.405  34.545   5.564
 5606POPC   PO470992  28.378  34.540   5.864
 5606POPC   GL170993  28.325  34.614   6.164
 5606POPC   GL270994  28.529  34.508   6.164
 5606POPC   C1A70995  28.371  34.567   6.464
 5606POPC   D2A70996  28.331  34.583   6.764
 5606POPC   C3A70997  28.349  34.544   7.064
 5606POPC   C4A70998  28.414  34.560   7.364
 5606POPC   C1B70999  28.610  34.483   6.464
 5606POPC   C2B71000  28.592  34.460   6.764
 5606POPC   C3B71001  28.567  34.496   7.064
 5606POPC   C4B71002  28.566  34.448   7.364
 5607POPC   NC371003   1.945  37.727   5.564
 5607POPC   PO471004   2.020  37.686   5.864
 5607POPC   GL171005   2.034  37.704   6.164
 5607POPC   GL271006   1.912  37.759   6.164
 5607POPC   C1A71007   1.954  37.669   6.464
 5607POPC   D2A71008   2.034  37.692   6.764
 5607POPC   C3A71009   1.984  37.695   7.064
 5607POPC   C4A71010   1.972  37.643   7.364
 5607POPC   C1B71011   1.887  37.891   6.464
 5607POPC   C2B71012   1.836  37.878   6.764
 5607POPC   C3B71013   1.804  37.890   7.064
 5607POPC   C4B71014   1.889  37.876   7.364
 5608POPC   NC371015  15.208  30.713   5.564
 5608POPC   PO471016  15.147  30.653   5.864
 5608POPC   GL171017  15.228  30.677   6.164
 5608POPC   GL271018  15.195  30.548   6.164
 5608POPC   C1A71019  15.199  30.716   6.464
 5608POPC   D2A71020  15.210  30.679   6.764
 5608POPC   C3A71021  15.150  30.738   7.064
 5608POPC   C4A71022  15.167  30.745   7.364
 5608POPC   C1B71023  15.235  30.459   6.464
 5608POPC   C2B71024  15.192  30.417   6.764
 5608POPC   C3B71025  15.184  30.492   7.064
 5608POPC   C4B71026  15.182  30.460   7.364
 5609POPC   NC371027  15.971   1.167   5.564
 5609POPC   PO471028  15.916   1.242   5.864
 5609POPC   GL171029  15.925   1.171   6.164
 5609POPC   GL271030  15.831   1.112   6.164
 5609POPC   C1A71031  15.940   1.237   6.464
 5609POPC   D2A71032  15.965   1.227   6.764
 5609POPC   C3A71033  15.924   1.176   7.064
 5609POPC   C4A71034  15.952   1.249   7.364
 5609POPC   C1B71035  15.740   1.036   6.464
 5609POPC   C2B71036  15.743   1.077   6.764
 5609POPC   C3B71037  15.780   1.036   7.064
 5609POPC   C4B71038  15.749   1.057   7.364
 5610POPC   NC371039  28.409   9.718   5.564
 5610POPC   PO471040  28.418   9.784   5.864
 5610POPC   GL171041  28.397   9.745   6.164
 5610POPC   GL271042  28.456   9.732   6.164
 5610POPC   C1A71043  28.349   9.796   6.464
 5610POPC   D2A71044  28.395   9.730   6.764
 5610POPC   C3A71045  28.346   9.795   7.064
 5610POPC   C4A71046  28.383   9.792   7.364
 5610POPC   C1B71047  28.637   9.653   6.464
 5610POPC   C2B71048  28.599   9.698   6.764
 5610POPC   C3B71049  28.611   9.662   7.064
 5610POPC   C4B71050  28.650   9.652   7.364
 5611POPC   NC371051  18.297   9.722   5.564
 5611POPC   PO471052  18.287   9.774   5.864
 5611POPC   GL171053  18.255   9.741   6.164
 5611POPC   GL271054  18.421   9.824   6.164
 5611POPC   C1A71055  18.310   9.738   6.464
 5611POPC   D2A71056  18.324   9.740   6.764
 5611POPC   C3A71057  18.328   9.741   7.064
 5611POPC   C4A71058  18.260   9.759   7.364
 5611POPC   C1B71059  18.493   9.796   6.464
 5611POPC   C2B71060  18.531   9.832   6.764
 5611POPC   C3B71061  18.510   9.845   7.064
 5611POPC   C4B71062  18.530   9.798   7.364
 5612POPC   NC371063  43.857  29.952   5.564
 5612POPC   PO471064  43.880  29.888   5.864
 5612POPC   GL171065  43.878  29.942   6.164
 5612POPC   GL271066  43.934  30.061   6.164
 5612POPC   C1A71067  43.906  29.951   6.464
 5612POPC   D2A71068  43.916  29.932   6.764
 5612POPC   C3A71069  43.854  29.931   7.064
 5612POPC   C4A71070  43.866  29.969   7.364
 5612POPC   C1B71071  44.054  30.123   6.464
 5612POPC   C2B71072  44.081  30.154   6.764
 5612POPC   C3B71073  44.007  30.164   7.064
 5612POPC   C4B71074  44.050  30.093   7.364
 5613POPC   NC371075  40.798  20.649   5.564
 5613POPC   PO471076  40.807  20.633   5.864
 5613POPC   GL171077  40.738  20.562   6.164
 5613POPC   GL271078  40.852  20.702   6.164
 5613POPC   C1A71079  40.771  20.591   6.464
 5613POPC   D2A71080  40.826  20.592   6.764
 5613POPC   C3A71081  40.756  20.623   7.064
 5613POPC   C4A71082  40.733  20.586   7.364
 5613POPC   C1B71083  40.884  20.836   6.464
 5613POPC   C2B71084  40.848  20.854   6.764
 5613POPC   C3B71085  40.894  20.841   7.064
 5613POPC   C4B71086  40.904  20.893   7.364
 5614POPC   NC371087  30.669   8.942   5.564
 5614POPC   PO471088  30.660   8.998   5.864
 5614POPC   GL171089  30.732   8.930   6.164
 5614POPC   GL271090  30.740   9.020   6.164
 5614POPC   C1A71091  30.710   8.947   6.464
 5614POPC   D2A71092  30.689   9.018   6.764
 5614POPC   C3A71093  30.653   8.965   7.064
 5614POPC   C4A71094  30.668   8.995   7.364
 5614POPC   C1B71095  30.910   9.122   6.464
 5614POPC   C2B71096  30.818   9.150   6.764
 5614POPC   C3B71097  30.851   9.173   7.064
 5614POPC   C4B71098  30.835   9.123   7.364
 5615POPC   NC371099  22.185  44.698   5.564
 5615POPC   PO471100  22.197  44.705   5.864
 5615POPC   GL171101  22.157  44.643   6.164
 5615POPC   GL271102  22.061  44.728   6.164
 5615POPC   C1A71103  22.128  44.707   6.464
 5615POPC   D2A71104  22.208  44.635   6.764
 5615POPC   C3A71105  22.144  44.697   7.064
 5615POPC   C4A71106  22.119  44.684   7.364
 5615POPC   C1B71107  21.888  44.686   6.464
 5615POPC   C2B71108  21.917  44.683   6.764
 5615POPC   C3B71109  21.964  44.725   7.064
 5615POPC   C4B71110  21.930  44.712   7.364
 5616POPC   NC371111  16.686  36.099   5.564
 5616POPC   PO471112  16.738  36.164   5.864
 5616POPC   GL171113  16.722  36.173   6.164
 5616POPC   GL271114  16.586  36.039   6.164
 5616POPC   C1A71115  16.712  36.128   6.464
 5616POPC   D2A71116  16.748  36.105   6.764
 5616POPC   C3A71117  16.750  36.092   7.064
 5616POPC   C4A71118  16.747  36.135   7.364
 5616POPC   C1B71119  16.502  35.939   6.464
 5616POPC   C2B71120  16.531  35.989   6.764
 5616POPC   C3B71121  16.508  35.980   7.064
 5616POPC   C4B71122  16.534  35.987   7.364
 5617POPC   NC371123  41.514  35.357   5.564
 5617POPC   PO471124  41.582  35.381   5.864
 5617POPC   GL171125  41.529  35.307   6.164
 5617POPC   GL271126  41.462  35.287   6.164
 5617POPC   C1A71127  41.576  35.319   6.464
 5617POPC   D2A71128  41.562  35.313   6.764
 5617POPC   C3A71129  41.544  35.379   7.064
 5617POPC   C4A71130  41.539  35.359   7.364
 5617POPC   C1B71131  41.442  35.147   6.464
 5617POPC   C2B71132  41.356  35.155   6.764
 5617POPC   C3B71133  41.428  35.181   7.064
 5617POPC   C4B71134  41.426  35.200   7.364
 5618POPC   NC371135  15.950  16.696   5.564
 5618POPC   PO471136  15.949  16.776   5.864
 5618POPC   GL171137  15.955  16.739   6.164
 5618POPC   GL271138  16.029  16.876   6.164
 5618POPC   C1A71139  16.001  16.720   6.464
 5618POPC   D2A71140  15.916  16.779   6.764
 5618POPC   C3A71141  15.980  16.695   7.064
 5618POPC   C4A71142  15.920  16.756   7.364
 5618POPC   C1B71143  16.058  16.927   6.464
 5618POPC   C2B71144  16.046  16.977   6.764
 5618POPC   C3B71145  16.086  16.918   7.064
 5618POPC   C4B71146  16.047  16.911   7.364
 5619POPC   NC371147  37.688  19.068   5.564
 5619POPC   PO471148  37.681  19.043   5.864
 5619POPC   GL171149  37.634  19.062   6.164
 5619POPC   GL271150  37.705  19.125   6.164
 5619POPC   C1A71151  37.698  19.038   6.464
 5619POPC   D2A71152  37.630  19.040   6.764
 5619POPC   C3A71153  37.687  19.039   7.064
 5619POPC   C4A71154  37.664  19.045   7.364
 5619POPC   C1B71155  37.808  19.316   6.464
 5619POPC   C2B71156  37.776  19.236   6.764
 5619POPC   C3B71157  37.773  19.278   7.064
 5619POPC   C4B71158  37.794  19.279   7.364
 5620POPC   NC371159  32.997  18.311   5.564
 5620POPC   PO471160  33.012  18.263   5.864
 5620POPC   GL171161  32.986  18.284   6.164
 5620POPC   GL271162  33.181  18.342   6.164
 5620POPC   C1A71163  33.028  18.263   6.464
 5620POPC   D2A71164  33.032  18.276   6.764
 5620POPC   C3A71165  33.045  18.319   7.064
 5620POPC   C4A71166  33.004  18.304   7.364
 5620POPC   C1B71167  33.288  18.420   6.464
 5620POPC   C2B71168  33.227  18.381   6.764
 5620POPC   C3B71169  33.280  18.435   7.064
 5620POPC   C4B71170  33.203  18.423   7.364
 5621POPC   NC371171  39.241   9.699   5.564
 5621POPC   PO471172  39.252   9.790   5.864
 5621POPC   GL171173  39.198   9.716   6.164
 5621POPC   GL271174  39.322   9.701   6.164
 5621POPC   C1A71175  39.218   9.746   6.464
 5621POPC   D2A71176  39.243   9.768   6.764
 5621POPC   C3A71177  39.183   9.709   7.064
 5621POPC   C4A71178  39.199   9.759   7.364
 5621POPC   C1B71179  39.427   9.608   6.464
 5621POPC   C2B71180  39.423   9.640   6.764
 5621POPC   C3B71181  39.390   9.647   7.064
 5621POPC   C4B71182  39.419   9.639   7.364
 5622POPC   NC371183  20.599  29.953   5.564
 5622POPC   PO471184  20.572  29.935   5.864
 5622POPC   GL171185  20.618  29.954   6.164
 5622POPC   GL271186  20.487  29.854   6.164
 5622POPC   C1A71187  20.571  29.876   6.464
 5622POPC   D2A71188  20.648  29.871   6.764
 5622POPC   C3A71189  20.613  29.901   7.064
 5622POPC   C4A71190  20.645  29.922   7.364
 5622POPC   C1B71191  20.339  29.900   6.464
 5622POPC   C2B71192  20.362  29.891   6.764
 5622POPC   C3B71193  20.364  29.896   7.064
 5622POPC   C4B71194  20.362  29.843   7.364
 5623POPC   NC371195  39.192  15.209   5.564
 5623POPC   PO471196  39.254  15.229   5.864
 5623POPC   GL171197  39.202  15.205   6.164
 5623POPC   GL271198  39.102  15.067   6.164
 5623POPC   C1A71199  39.279  15.160   6.464
 5623POPC   D2A71200  39.273  15.162   6.764
 5623POPC   C3A71201  39.248  15.218   7.064
 5623POPC   C4A71202  39.184  15.203   7.364
 5623POPC   C1B71203  38.991  15.069   6.464
 5623POPC   C2B71204  39.036  15.081   6.764
 5623POPC   C3B71205  38.980  15.003   7.064
 5623POPC   C4B71206  39.050  15.083   7.364
 5624POPC   NC371207  28.399  31.457   5.564
 5624POPC   PO471208  28.349  31.519   5.864
 5624POPC   GL171209  28.384  31.445   6.164
 5624POPC   GL271210  28.427  31.599   6.164
 5624POPC   C1A71211  28.325  31.425   6.464
 5624POPC   D2A71212  28.339  31.433   6.764
 5624POPC   C3A71213  28.344  31.452   7.064
 5624POPC   C4A71214  28.383  31.442   7.364
 5624POPC   C1B71215  28.513  31.658   6.464
 5624POPC   C2B71216  28.557  31.628   6.764
 5624POPC   C3B71217  28.488  31.661   7.064
 5624POPC   C4B71218  28.480  31.643   7.364
 5625POPC   NC371219  43.879   7.434   5.564
 5625POPC   PO471220  43.934   7.429   5.864
 5625POPC   GL171221  43.925   7.451   6.164
 5625POPC   GL271222  43.995   7.467   6.164
 5625POPC   C1A71223  43.893   7.444   6.464
 5625POPC   D2A71224  43.847   7.465   6.764
 5625POPC   C3A71225  43.913   7.382   7.064
 5625POPC   C4A71226  43.839   7.382   7.364
 5625POPC   C1B71227  44.096   7.631   6.464
 5625POPC   C2B71228  44.065   7.571   6.764
 5625POPC   C3B71229  44.044   7.629   7.064
 5625POPC   C4B71230  44.111   7.574   7.364
 5626POPC   NC371231  40.769  15.156   5.564
 5626POPC   PO471232  40.783  15.196   5.864
 5626POPC   GL171233  40.815  15.219   6.164
 5626POPC   GL271234  40.633  15.132   6.164
 5626POPC   C1A71235  40.780  15.224   6.464
 5626POPC   D2A71236  40.738  15.158   6.764
 5626POPC   C3A71237  40.757  15.200   7.064
 5626POPC   C4A71238  40.787  15.138   7.364
 5626POPC   C1B71239  40.548  15.094   6.464
 5626POPC   C2B71240  40.499  15.098   6.764
 5626POPC   C3B71241  40.552  15.136   7.064
 5626POPC   C4B71242  40.540  15.131   7.364
 5627POPC   NC371243   2.746   5.892   5.564
 5627POPC   PO471244   2.725   5.840   5.864
 5627POPC   GL171245   2.732   5.842   6.164
 5627POPC   GL271246   2.831   5.742   6.164
 5627POPC   C1A71247   2.768   5.834   6.464
 5627POPC   D2A71248   2.791   5.823   6.764
 5627POPC   C3A71249   2.788   5.895   7.064
 5627POPC   C4A71250   2.779   5.904   7.364
 5627POPC   C1B71251   2.933   5.694   6.464
 5627POPC   C2B71252   2.886   5.722   6.764
 5627POPC   C3B71253   2.901   5.683   7.064
 5627POPC   C4B71254   2.918   5.641   7.364
 5628POPC   NC371255  31.521  12.122   5.564
 5628POPC   PO471256  31.435  12.050   5.864
 5628POPC   GL171257  31.443  12.082   6.164
 5628POPC   GL271258  31.548  12.026   6.164
 5628POPC   C1A71259  31.441  12.117   6.464
 5628POPC   D2A71260  31.485  12.125   6.764
 5628POPC   C3A71261  31.448  12.122   7.064
 5628POPC   C4A71262  31.479  12.071   7.364
 5628POPC   C1B71263  31.662  11.907   6.464
 5628POPC   C2B71264  31.677  11.941   6.764
 5628POPC   C3B71265  31.687  11.917   7.064
 5628POPC   C4B71266  31.726  11.914   7.364
 5629POPC   NC371267   0.393  23.722   5.564
 5629POPC   PO471268   0.415  23.749   5.864
 5629POPC   GL171269   0.413  23.711   6.164
 5629POPC   GL271270   0.320  23.717   6.164
 5629POPC   C1A71271   0.461  23.743   6.464
 5629POPC   D2A71272   0.472  23.751   6.764
 5629POPC   C3A71273   0.417  23.694   7.064
 5629POPC   C4A71274   0.467  23.762   7.364
 5629POPC   C1B71275   0.209  23.730   6.464
 5629POPC   C2B71276   0.157  23.740   6.764
 5629POPC   C3B71277   0.202  23.721   7.064
 5629POPC   C4B71278   0.157  23.722   7.364
 5630POPC   NC371279  44.645  28.414   5.564
 5630POPC   PO471280  44.685  28.370   5.864
 5630POPC   GL171281  44.651  28.405   6.164
 5630POPC   GL271282  44.537  28.446   6.164
 5630POPC   C1A71283  44.641  28.355   6.464
 5630POPC   D2A71284  44.652  28.342   6.764
 5630POPC   C3A71285  44.687  28.357   7.064
 5630POPC   C4A71286  44.680  28.332   7.364
 5630POPC   C1B71287  44.484  28.453   6.464
 5630POPC   C2B71288  44.424  28.459   6.764
 5630POPC   C3B71289  44.418  28.424   7.064
 5630POPC   C4B71290  44.423  28.487   7.364
 5631POPC   NC371291   3.553  29.886   5.564
 5631POPC   PO471292   3.578  29.934   5.864
 5631POPC   GL171293   3.511  29.896   6.164
 5631POPC   GL271294   3.608  29.829   6.164
 5631POPC   C1A71295   3.503  29.899   6.464
 5631POPC   D2A71296   3.565  29.931   6.764
 5631POPC   C3A71297   3.529  29.968   7.064
 5631POPC   C4A71298   3.571  29.954   7.364
 5631POPC   C1B71299   3.745  29.690   6.464
 5631POPC   C2B71300   3.687  29.752   6.764
 5631POPC   C3B71301   3.752  29.717   7.064
 5631POPC   C4B71302   3.698  29.748   7.364
 5632POPC   NC371303   3.569  39.211   5.564
 5632POPC   PO471304   3.526  39.238   5.864
 5632POPC   GL171305   3.591  39.192   6.164
 5632POPC   GL271306   3.396  39.227   6.164
 5632POPC   C1A71307   3.534  39.183   6.464
 5632POPC   D2A71308   3.506  39.262   6.764
 5632POPC   C3A71309   3.548  39.187   7.064
 5632POPC   C4A71310   3.526  39.193   7.364
 5632POPC   C1B71311   3.253  39.137   6.464
 5632POPC   C2B71312   3.318  39.143   6.764
 5632POPC   C3B71313   3.267  39.206   7.064
 5632POPC   C4B71314   3.310  39.211   7.364
 5633POPC   NC371315  26.795   0.390   5.564
 5633POPC   PO471316  26.814   0.421   5.864
 5633POPC   GL171317  26.855   0.428   6.164
 5633POPC   GL271318  26.925   0.538   6.164
 5633POPC   C1A71319  26.799   0.407   6.464
 5633POPC   D2A71320  26.846   0.441   6.764
 5633POPC   C3A71321  26.770   0.413   7.064
 5633POPC   C4A71322  26.811   0.421   7.364
 5633POPC   C1B71323  26.919   0.591   6.464
 5633POPC   C2B71324  26.928   0.612   6.764
 5633POPC   C3B71325  26.949   0.670   7.064
 5633POPC   C4B71326  26.931   0.661   7.364
 5634POPC   NC371327   9.004  23.733   5.564
 5634POPC   PO471328   9.009  23.761   5.864
 5634POPC   GL171329   8.954  23.723   6.164
 5634POPC   GL271330   9.043  23.853   6.164
 5634POPC   C1A71331   9.014  23.712   6.464
 5634POPC   D2A71332   8.958  23.743   6.764
 5634POPC   C3A71333   9.009  23.736   7.064
 5634POPC   C4A71334   8.949  23.713   7.364
 5634POPC   C1B71335   9.022  23.902   6.464
 5634POPC   C2B71336   9.096  23.960   6.764
 5634POPC   C3B71337   9.025  23.963   7.064
 5634POPC   C4B71338   9.037  23.938   7.364
 5635POPC   NC371339  43.120  16.001   5.564
 5635POPC   PO471340  43.069  15.939   5.864
 5635POPC   GL171341  43.151  15.987   6.164
 5635POPC   GL271342  43.121  16.047   6.164
 5635POPC   C1A71343  43.153  15.973   6.464
 5635POPC   D2A71344  43.123  15.949   6.764
 5635POPC   C3A71345  43.096  15.945   7.064
 5635POPC   C4A71346  43.081  15.983   7.364
 5635POPC   C1B71347  43.044  16.168   6.464
 5635POPC   C2B71348  43.120  16.235   6.764
 5635POPC   C3B71349  43.110  16.225   7.064
 5635POPC   C4B71350  43.088  16.240   7.364
 5636POPC   NC371351  29.134   5.871   5.564
 5636POPC   PO471352  29.183   5.826   5.864
 5636POPC   GL171353  29.193   5.871   6.164
 5636POPC   GL271354  29.081   5.818   6.164
 5636POPC   C1A71355  29.171   5.839   6.464
 5636POPC   D2A71356  29.166   5.842   6.764
 5636POPC   C3A71357  29.180   5.862   7.064
 5636POPC   C4A71358  29.153   5.916   7.364
 5636POPC   C1B71359  28.955   5.712   6.464
 5636POPC   C2B71360  28.932   5.709   6.764
 5636POPC   C3B71361  28.954   5.736   7.064
 5636POPC   C4B71362  28.922   5.727   7.364
 5637POPC   NC371363  12.101  13.667   5.564
 5637POPC   PO471364  12.092  13.654   5.864
 5637POPC   GL171365  12.033  13.638   6.164
 5637POPC   GL271366  12.205  13.556   6.164
 5637POPC   C1A71367  12.086  13.601   6.464
 5637POPC   D2A71368  12.110  13.614   6.764
 5637POPC   C3A71369  12.097  13.656   7.064
 5637POPC   C4A71370  12.027  13.662   7.364
 5637POPC   C1B71371  12.254  13.417   6.464
 5637POPC   C2B71372  12.211  13.478   6.764
 5637POPC   C3B71373  12.213  13.421   7.064
 5637POPC   C4B71374  12.225  13.448   7.364
 5638POPC   NC371375   2.728  27.628   5.564
 5638POPC   PO471376   2.779  27.566   5.864
 5638POPC   GL171377   2.736  27.606   6.164
 5638POPC   GL271378   2.784  27.663   6.164
 5638POPC   C1A71379   2.765  27.639   6.464
 5638POPC   D2A71380   2.810  27.623   6.764
 5638POPC   C3A71381   2.778  27.560   7.064
 5638POPC   C4A71382   2.802  27.638   7.364
 5638POPC   C1B71383   2.842  27.794   6.464
 5638POPC   C2B71384   2.809  27.873   6.764
 5638POPC   C3B71385   2.879  27.846   7.064
 5638POPC   C4B71386   2.895  27.872   7.364
 5639POPC   NC371387   7.373  11.327   5.564
 5639POPC   PO471388   7.389  11.260   5.864
 5639POPC   GL171389   7.457  11.270   6.164
 5639POPC   GL271390   7.349  11.462   6.164
 5639POPC   C1A71391   7.379  11.282   6.464
 5639POPC   D2A71392   7.391  11.324   6.764
 5639POPC   C3A71393   7.405  11.276   7.064
 5639POPC   C4A71394   7.383  11.308   7.364
 5639POPC   C1B71395   7.344  11.492   6.464
 5639POPC   C2B71396   7.370  11.514   6.764
 5639POPC   C3B71397   7.292  11.532   7.064
 5639POPC   C4B71398   7.320  11.527   7.364
 5640POPC   NC371399  29.888  22.946   5.564
 5640POPC   PO471400  29.931  22.920   5.864
 5640POPC   GL171401  29.912  22.914   6.164
 5640POPC   GL271402  29.834  22.833   6.164
 5640POPC   C1A71403  29.893  22.899   6.464
 5640POPC   D2A71404  29.960  22.943   6.764
 5640POPC   C3A71405  29.964  22.986   7.064
 5640POPC   C4A71406  29.910  22.892   7.364
 5640POPC   C1B71407  29.779  22.675   6.464
 5640POPC   C2B71408  29.794  22.721   6.764
 5640POPC   C3B71409  29.824  22.720   7.064
 5640POPC   C4B71410  29.841  22.664   7.364
 5641POPC   NC371411  19.009  41.587   5.564
 5641POPC   PO471412  19.064  41.605   5.864
 5641POPC   GL171413  19.023  41.587   6.164
 5641POPC   GL271414  19.219  41.558   6.164
 5641POPC   C1A71415  19.082  41.573   6.464
 5641POPC   D2A71416  19.104  41.578   6.764
 5641POPC   C3A71417  19.108  41.581   7.064
 5641POPC   C4A71418  19.055  41.553   7.364
 5641POPC   C1B71419  19.304  41.601   6.464
 5641POPC   C2B71420  19.297  41.566   6.764
 5641POPC   C3B71421  19.294  41.638   7.064
 5641POPC   C4B71422  19.349  41.614   7.364
 5642POPC   NC371423  34.575  21.370   5.564
 5642POPC   PO471424  34.547  21.388   5.864
 5642POPC   GL171425  34.601  21.339   6.164
 5642POPC   GL271426  34.523  21.280   6.164
 5642POPC   C1A71427  34.574  21.397   6.464
 5642POPC   D2A71428  34.578  21.347   6.764
 5642POPC   C3A71429  34.565  21.433   7.064
 5642POPC   C4A71430  34.570  21.397   7.364
 5642POPC   C1B71431  34.363  21.169   6.464
 5642POPC   C2B71432  34.455  21.195   6.764
 5642POPC   C3B71433  34.414  21.160   7.064
 5642POPC   C4B71434  34.442  21.186   7.364
 5643POPC   NC371435  39.993  36.134   5.564
 5643POPC   PO471436  40.035  36.127   5.864
 5643POPC   GL171437  39.999  36.100   6.164
 5643POPC   GL271438  40.134  36.042   6.164
 5643POPC   C1A71439  39.990  36.119   6.464
 5643POPC   D2A71440  40.023  36.132   6.764
 5643POPC   C3A71441  39.971  36.169   7.064
 5643POPC   C4A71442  40.048  36.095   7.364
 5643POPC   C1B71443  40.264  36.034   6.464
 5643POPC   C2B71444  40.227  36.034   6.764
 5643POPC   C3B71445  40.227  36.048   7.064
 5643POPC   C4B71446  40.207  36.016   7.364
 5644POPC   NC371447  19.028  33.068   5.564
 5644POPC   PO471448  19.054  33.052   5.864
 5644POPC   GL171449  19.083  33.060   6.164
 5644POPC   GL271450  18.968  32.961   6.164
 5644POPC   C1A71451  19.102  33.011   6.464
 5644POPC   D2A71452  19.086  33.022   6.764
 5644POPC   C3A71453  19.019  32.998   7.064
 5644POPC   C4A71454  19.014  33.052   7.364
 5644POPC   C1B71455  18.788  32.936   6.464
 5644POPC   C2B71456  18.780  32.929   6.764
 5644POPC   C3B71457  18.810  32.923   7.064
 5644POPC   C4B71458  18.815  32.925   7.364
 5645POPC   NC371459   5.084  32.999   5.564
 5645POPC   PO471460   5.085  33.011   5.864
 5645POPC   GL171461   5.141  33.040   6.164
 5645POPC   GL271462   5.246  33.086   6.164
 5645POPC   C1A71463   5.057  33.048   6.464
 5645POPC   D2A71464   5.051  33.028   6.764
 5645POPC   C3A71465   5.065  33.073   7.064
 5645POPC   C4A71466   5.095  33.072   7.364
 5645POPC   C1B71467   5.329  33.080   6.464
 5645POPC   C2B71468   5.305  33.088   6.764
 5645POPC   C3B71469   5.287  33.096   7.064
 5645POPC   C4B71470   5.317  33.145   7.364
 5646POPC   NC371471   4.350  38.490   5.564
 5646POPC   PO471472   4.305  38.504   5.864
 5646POPC   GL171473   4.341  38.459   6.164
 5646POPC   GL271474   4.410  38.454   6.164
 5646POPC   C1A71475   4.306  38.450   6.464
 5646POPC   D2A71476   4.338  38.488   6.764
 5646POPC   C3A71477   4.363  38.464   7.064
 5646POPC   C4A71478   4.324  38.475   7.364
 5646POPC   C1B71479   4.595  38.344   6.464
 5646POPC   C2B71480   4.521  38.408   6.764
 5646POPC   C3B71481   4.560  38.360   7.064
 5646POPC   C4B71482   4.516  38.379   7.364
 5647POPC   NC371483  26.090  36.892   5.564
 5647POPC   PO471484  26.000  36.863   5.864
 5647POPC   GL171485  26.084  36.906   6.164
 5647POPC   GL271486  25.912  36.956   6.164
 5647POPC   C1A71487  25.993  36.905   6.464
 5647POPC   D2A71488  26.002  36.943   6.764
 5647POPC   C3A71489  26.057  36.875   7.064
 5647POPC   C4A71490  26.041  36.886   7.364
 5647POPC   C1B71491  25.794  36.985   6.464
 5647POPC   C2B71492  25.845  37.037   6.764
 5647POPC   C3B71493  25.861  36.997   7.064
 5647POPC   C4B71494  25.803  37.060   7.364
 5648POPC   NC371495  20.567  37.715   5.564
 5648POPC   PO471496  20.656  37.658   5.864
 5648POPC   GL171497  20.640  37.703   6.164
 5648POPC   GL271498  20.527  37.643   6.164
 5648POPC   C1A71499  20.608  37.641   6.464
 5648POPC   D2A71500  20.589  37.661   6.764
 5648POPC   C3A71501  20.642  37.723   7.064
 5648POPC   C4A71502  20.644  37.635   7.364
 5648POPC   C1B71503  20.335  37.679   6.464
 5648POPC   C2B71504  20.390  37.730   6.764
 5648POPC   C3B71505  20.338  37.711   7.064
 5648POPC   C4B71506  20.325  37.719   7.364
 5649POPC   NC371507  43.068   4.363   5.564
 5649POPC   PO471508  43.130   4.316   5.864
 5649POPC   GL171509  43.104   4.341   6.164
 5649POPC   GL271510  43.058   4.241   6.164
 5649POPC   C1A71511  43.080   4.315   6.464
 5649POPC   D2A71512  43.076   4.346   6.764
 5649POPC   C3A71513  43.089   4.361   7.064
 5649POPC   C4A71514  43.116   4.283   7.364
 5649POPC   C1B71515  42.903   4.136   6.464
 5649POPC   C2B71516  42.923   4.140   6.764
 5649POPC   C3B71517  42.936   4.217   7.064
 5649POPC   C4B71518  42.931   4.187   7.364
 5650POPC   NC371519  28.339   1.221   5.564
 5650POPC   PO471520  28.416   1.173   5.864
 5650POPC   GL171521  28.321   1.196   6.164
 5650POPC   GL271522  28.236   1.221   6.164
 5650POPC   C1A71523  28.354   1.209   6.464
 5650POPC   D2A71524  28.322   1.185   6.764
 5650POPC   C3A71525  28.399   1.260   7.064
 5650POPC   C4A71526  28.411   1.226   7.364
 5650POPC   C1B71527  28.154   1.297   6.464
 5650POPC   C2B71528  28.127   1.265   6.764
 5650POPC   C3B71529  28.184   1.322   7.064
 5650POPC   C4B71530  28.095   1.332   7.364
 5651POPC   NC371531   6.684   5.096   5.564
 5651POPC   PO471532   6.687   5.094   5.864
 5651POPC   GL171533   6.688   5.058   6.164
 5651POPC   GL271534   6.646   5.206   6.164
 5651POPC   C1A71535   6.625   5.130   6.464
 5651POPC   D2A71536   6.685   5.127   6.764
 5651POPC   C3A71537   6.631   5.066   7.064
 5651POPC   C4A71538   6.629   5.127   7.364
 5651POPC   C1B71539   6.612   5.305   6.464
 5651POPC   C2B71540   6.538   5.318   6.764
 5651POPC   C3B71541   6.569   5.344   7.064
 5651POPC   C4B71542   6.627   5.309   7.364
 5652POPC   NC371543  42.357  20.582   5.564
 5652POPC   PO471544  42.314  20.645   5.864
 5652POPC   GL171545  42.290  20.574   6.164
 5652POPC   GL271546  42.463  20.744   6.164
 5652POPC   C1A71547  42.319  20.589   6.464
 5652POPC   D2A71548  42.326  20.602   6.764
 5652POPC   C3A71549  42.296  20.655   7.064
 5652POPC   C4A71550  42.310  20.587   7.364
 5652POPC   C1B71551  42.504  20.756   6.464
 5652POPC   C2B71552  42.521  20.835   6.764
 5652POPC   C3B71553  42.486  20.814   7.064
 5652POPC   C4B71554  42.560  20.751   7.364
 5653POPC   NC371555  41.607  40.755   5.564
 5653POPC   PO471556  41.604  40.742   5.864
 5653POPC   GL171557  41.600  40.769   6.164
 5653POPC   GL271558  41.594  40.883   6.164
 5653POPC   C1A71559  41.583  40.790   6.464
 5653POPC   D2A71560  41.601  40.794   6.764
 5653POPC   C3A71561  41.545  40.778   7.064
 5653POPC   C4A71562  41.550  40.825   7.364
 5653POPC   C1B71563  41.684  40.948   6.464
 5653POPC   C2B71564  41.753  41.013   6.764
 5653POPC   C3B71565  41.699  40.998   7.064
 5653POPC   C4B71566  41.727  40.946   7.364
 5654POPC   NC371567  26.849   3.516   5.564
 5654POPC   PO471568  26.771   3.568   5.864
 5654POPC   GL171569  26.795   3.496   6.164
 5654POPC   GL271570  26.921   3.464   6.164
 5654POPC   C1A71571  26.768   3.582   6.464
 5654POPC   D2A71572  26.814   3.523   6.764
 5654POPC   C3A71573  26.853   3.507   7.064
 5654POPC   C4A71574  26.769   3.546   7.364
 5654POPC   C1B71575  26.994   3.397   6.464
 5654POPC   C2B71576  26.979   3.356   6.764
 5654POPC   C3B71577  26.984   3.397   7.064
 5654POPC   C4B71578  26.999   3.381   7.364
 5655POPC   NC371579  19.075  24.513   5.564
 5655POPC   PO471580  19.029  24.502   5.864
 5655POPC   GL171581  19.064  24.496   6.164
 5655POPC   GL271582  19.104  24.608   6.164
 5655POPC   C1A71583  19.028  24.515   6.464
 5655POPC   D2A71584  19.026  24.527   6.764
 5655POPC   C3A71585  19.078  24.475   7.064
 5655POPC   C4A71586  19.058  24.454   7.364
 5655POPC   C1B71587  19.152  24.764   6.464
 5655POPC   C2B71588  19.122  24.732   6.764
 5655POPC   C3B71589  19.214  24.747   7.064
 5655POPC   C4B71590  19.140  24.707   7.364
 5656POPC   NC371591   1.210  29.142   5.564
 5656POPC   PO471592   1.167  29.166   5.864
 5656POPC   GL171593   1.238  29.160   6.164
 5656POPC   GL271594   1.324  29.198   6.164
 5656POPC   C1A71595   1.248  29.129   6.464
 5656POPC   D2A71596   1.195  29.105   6.764
 5656POPC   C3A71597   1.226  29.180   7.064
 5656POPC   C4A71598   1.179  29.104   7.364
 5656POPC   C1B71599   1.425  29.223   6.464
 5656POPC   C2B71600   1.446  29.267   6.764
 5656POPC   C3B71601   1.430  29.214   7.064
 5656POPC   C4B71602   1.459  29.215   7.364
 5657POPC   NC371603  30.694  13.667   5.564
 5657POPC   PO471604  30.730  13.660   5.864
 5657POPC   GL171605  30.687  13.669   6.164
 5657POPC   GL271606  30.586  13.590   6.164
 5657POPC   C1A71607  30.685  13.637   6.464
 5657POPC   D2A71608  30.714  13.644   6.764
 5657POPC   C3A71609  30.715  13.643   7.064
 5657POPC   C4A71610  30.671  13.583   7.364
 5657POPC   C1B71611  30.415  13.622   6.464
 5657POPC   C2B71612  30.446  13.629   6.764
 5657POPC   C3B71613  30.468  13.647   7.064
 5657POPC   C4B71614  30.416  13.624   7.364
 5658POPC   NC371615  43.154  26.842   5.564
 5658POPC   PO471616  43.111  26.828   5.864
 5658POPC   GL171617  43.119  26.845   6.164
 5658POPC   GL271618  42.962  26.872   6.164
 5658POPC   C1A71619  43.145  26.787   6.464
 5658POPC   D2A71620  43.091  26.846   6.764
 5658POPC   C3A71621  43.125  26.847   7.064
 5658POPC   C4A71622  43.128  26.810   7.364
 5658POPC   C1B71623  42.858  26.868   6.464
 5658POPC   C2B71624  42.828  26.895   6.764
 5658POPC   C3B71625  42.874  26.915   7.064
 5658POPC   C4B71626  42.911  26.844   7.364
 5659POPC   NC371627  26.068   5.061   5.564
 5659POPC   PO471628  26.064   5.129   5.864
 5659POPC   GL171629  26.087   5.141   6.164
 5659POPC   GL271630  25.965   5.139   6.164
 5659POPC   C1A71631  26.026   5.043   6.464
 5659POPC   D2A71632  26.074   5.118   6.764
 5659POPC   C3A71633  26.076   5.045   7.064
 5659POPC   C4A71634  26.052   5.134   7.364
 5659POPC   C1B71635  25.858   5.229   6.464
 5659POPC   C2B71636  25.855   5.209   6.764
 5659POPC   C3B71637  25.865   5.252   7.064
 5659POPC   C4B71638  25.819   5.238   7.364
 5660POPC   NC371639  41.540  26.770   5.564
 5660POPC   PO471640  41.587  26.787   5.864
 5660POPC   GL171641  41.545  26.814   6.164
 5660POPC   GL271642  41.432  26.880   6.164
 5660POPC   C1A71643  41.518  26.827   6.464
 5660POPC   D2A71644  41.564  26.783   6.764
 5660POPC   C3A71645  41.518  26.862   7.064
 5660POPC   C4A71646  41.553  26.781   7.364
 5660POPC   C1B71647  41.363  26.964   6.464
 5660POPC   C2B71648  41.434  27.003   6.764
 5660POPC   C3B71649  41.366  26.956   7.064
 5660POPC   C4B71650  41.361  26.991   7.364
 5661POPC   NC371651  43.078   9.767   5.564
 5661POPC   PO471652  43.101   9.778   5.864
 5661POPC   GL171653  43.073   9.733   6.164
 5661POPC   GL271654  43.241   9.713   6.164
 5661POPC   C1A71655  43.141   9.731   6.464
 5661POPC   D2A71656  43.078   9.777   6.764
 5661POPC   C3A71657  43.066   9.735   7.064
 5661POPC   C4A71658  43.097   9.768   7.364
 5661POPC   C1B71659  43.405   9.727   6.464
 5661POPC   C2B71660  43.372   9.737   6.764
 5661POPC   C3B71661  43.400   9.745   7.064
 5661POPC   C4B71662  43.326   9.820   7.364
 5662POPC   NC371663  25.313  26.779   5.564
 5662POPC   PO471664  25.224  26.801   5.864
 5662POPC   GL171665  25.295  26.802   6.164
 5662POPC   GL271666  25.318  26.656   6.164
 5662POPC   C1A71667  25.312  26.863   6.464
 5662POPC   D2A71668  25.218  26.782   6.764
 5662POPC   C3A71669  25.247  26.789   7.064
 5662POPC   C4A71670  25.249  26.824   7.364
 5662POPC   C1B71671  25.352  26.525   6.464
 5662POPC   C2B71672  25.362  26.560   6.764
 5662POPC   C3B71673  25.336  26.530   7.064
 5662POPC   C4B71674  25.285  26.612   7.364
 5663POPC   NC371675   8.153   3.523   5.564
 5663POPC   PO471676   8.196   3.500   5.864
 5663POPC   GL171677   8.210   3.507   6.164
 5663POPC   GL271678   8.324   3.559   6.164
 5663POPC   C1A71679   8.204   3.551   6.464
 5663POPC   D2A71680   8.161   3.586   6.764
 5663POPC   C3A71681   8.208   3.522   7.064
 5663POPC   C4A71682   8.148   3.519   7.364
 5663POPC   C1B71683   8.395   3.483   6.464
 5663POPC   C2B71684   8.451   3.489   6.764
 5663POPC   C3B71685   8.484   3.471   7.064
 5663POPC   C4B71686   8.483   3.481   7.364
 5664POPC   NC371687  36.910  32.212   5.564
 5664POPC   PO471688  36.858  32.206   5.864
 5664POPC   GL171689  36.904  32.253   6.164
 5664POPC   GL271690  36.837  32.110   6.164
 5664POPC   C1A71691  36.874  32.239   6.464
 5664POPC   D2A71692  36.920  32.284   6.764
 5664POPC   C3A71693  36.911  32.266   7.064
 5664POPC   C4A71694  36.866  32.210   7.364
 5664POPC   C1B71695  36.780  32.078   6.464
 5664POPC   C2B71696  36.785  32.036   6.764
 5664POPC   C3B71697  36.774  32.061   7.064
 5664POPC   C4B71698  36.792  32.038   7.364
 5665POPC   NC371699   5.058  18.278   5.564
 5665POPC   PO471700   5.056  18.307   5.864
 5665POPC   GL171701   5.103  18.304   6.164
 5665POPC   GL271702   4.981  18.263   6.164
 5665POPC   C1A71703   5.062  18.272   6.464
 5665POPC   D2A71704   5.046  18.257   6.764
 5665POPC   C3A71705   5.065  18.270   7.064
 5665POPC   C4A71706   5.115  18.299   7.364
 5665POPC   C1B71707   4.894  18.224   6.464
 5665POPC   C2B71708   4.837  18.223   6.764
 5665POPC   C3B71709   4.870  18.211   7.064
 5665POPC   C4B71710   4.798  18.290   7.364
 5666POPC   NC371711  29.946  34.532   5.564
 5666POPC   PO471712  29.964  34.565   5.864
 5666POPC   GL171713  29.930  34.583   6.164
 5666POPC   GL271714  29.778  34.613   6.164
 5666POPC   C1A71715  29.895  34.587   6.464
 5666POPC   D2A71716  29.955  34.561   6.764
 5666POPC   C3A71717  29.951  34.622   7.064
 5666POPC   C4A71718  29.901  34.563   7.364
 5666POPC   C1B71719  29.714  34.723   6.464
 5666POPC   C2B71720  29.676  34.657   6.764
 5666POPC   C3B71721  29.674  34.694   7.064
 5666POPC   C4B71722  29.675  34.685   7.364
 5667POPC   NC371723  14.354   3.559   5.564
 5667POPC   PO471724  14.449   3.524   5.864
 5667POPC   GL171725  14.397   3.575   6.164
 5667POPC   GL271726  14.419   3.465   6.164
 5667POPC   C1A71727  14.358   3.494   6.464
 5667POPC   D2A71728  14.396   3.496   6.764
 5667POPC   C3A71729  14.435   3.508   7.064
 5667POPC   C4A71730  14.367   3.556   7.364
 5667POPC   C1B71731  14.294   3.288   6.464
 5667POPC   C2B71732  14.350   3.269   6.764
 5667POPC   C3B71733  14.373   3.322   7.064
 5667POPC   C4B71734  14.287   3.294   7.364
 5668POPC   NC371735  28.349  12.097   5.564
 5668POPC   PO471736  28.386  12.065   5.864
 5668POPC   GL171737  28.373  12.060   6.164
 5668POPC   GL271738  28.466  12.010   6.164
 5668POPC   C1A71739  28.414  12.066   6.464
 5668POPC   D2A71740  28.406  12.096   6.764
 5668POPC   C3A71741  28.327  12.055   7.064
 5668POPC   C4A71742  28.366  12.040   7.364
 5668POPC   C1B71743  28.609  12.011   6.464
 5668POPC   C2B71744  28.569  12.059   6.764
 5668POPC   C3B71745  28.648  12.016   7.064
 5668POPC   C4B71746  28.614  12.042   7.364
 5669POPC   NC371747  13.628  22.185   5.564
 5669POPC   PO471748  13.625  22.137   5.864
 5669POPC   GL171749  13.648  22.141   6.164
 5669POPC   GL271750  13.650  22.222   6.164
 5669POPC   C1A71751  13.615  22.139   6.464
 5669POPC   D2A71752  13.610  22.204   6.764
 5669POPC   C3A71753  13.631  22.125   7.064
 5669POPC   C4A71754  13.598  22.186   7.364
 5669POPC   C1B71755  13.800  22.406   6.464
 5669POPC   C2B71756  13.741  22.341   6.764
 5669POPC   C3B71757  13.758  22.395   7.064
 5669POPC   C4B71758  13.746  22.326   7.364
 5670POPC   NC371759  31.460  39.206   5.564
 5670POPC   PO471760  31.476  39.195   5.864
 5670POPC   GL171761  31.514  39.210   6.164
 5670POPC   GL271762  31.350  39.211   6.164
 5670POPC   C1A71763  31.444  39.198   6.464
 5670POPC   D2A71764  31.490  39.261   6.764
 5670POPC   C3A71765  31.454  39.188   7.064
 5670POPC   C4A71766  31.445  39.265   7.364
 5670POPC   C1B71767  31.178  39.207   6.464
 5670POPC   C2B71768  31.259  39.191   6.764
 5670POPC   C3B71769  31.178  39.196   7.064
 5670POPC   C4B71770  31.266  39.220   7.364
 5671POPC   NC371771   4.346  20.651   5.564
 5671POPC   PO471772   4.294  20.656   5.864
 5671POPC   GL171773   4.278  20.654   6.164
 5671POPC   GL271774   4.184  20.656   6.164
 5671POPC   C1A71775   4.310  20.597   6.464
 5671POPC   D2A71776   4.269  20.598   6.764
 5671POPC   C3A71777   4.276  20.598   7.064
 5671POPC   C4A71778   4.343  20.650   7.364
 5671POPC   C1B71779   4.087  20.682   6.464
 5671POPC   C2B71780   4.139  20.701   6.764
 5671POPC   C3B71781   4.110  20.752   7.064
 5671POPC   C4B71782   4.098  20.686   7.364
 5672POPC   NC371783  28.395  12.802   5.564
 5672POPC   PO471784  28.369  12.883   5.864
 5672POPC   GL171785  28.384  12.863   6.164
 5672POPC   GL271786  28.506  12.789   6.164
 5672POPC   C1A71787  28.326  12.806   6.464
 5672POPC   D2A71788  28.388  12.883   6.764
 5672POPC   C3A71789  28.324  12.803   7.064
 5672POPC   C4A71790  28.369  12.818   7.364
 5672POPC   C1B71791  28.660  12.812   6.464
 5672POPC   C2B71792  28.599  12.777   6.764
 5672POPC   C3B71793  28.621  12.810   7.064
 5672POPC   C4B71794  28.579  12.820   7.364
 5673POPC   NC371795  26.002  29.906   5.564
 5673POPC   PO471796  26.061  29.885   5.864
 5673POPC   GL171797  26.055  29.935   6.164
 5673POPC   GL271798  26.052  30.052   6.164
 5673POPC   C1A71799  26.066  29.914   6.464
 5673POPC   D2A71800  25.995  29.946   6.764
 5673POPC   C3A71801  25.992  29.944   7.064
 5673POPC   C4A71802  26.017  29.901   7.364
 5673POPC   C1B71803  25.937  30.158   6.464
 5673POPC   C2B71804  25.964  30.145   6.764
 5673POPC   C3B71805  25.926  30.201   7.064
 5673POPC   C4B71806  25.928  30.198   7.364
 5674POPC   NC371807   8.214  17.479   5.564
 5674POPC   PO471808   8.175  17.554   5.864
 5674POPC   GL171809   8.198  17.505   6.164
 5674POPC   GL271810   8.356  17.444   6.164
 5674POPC   C1A71811   8.246  17.530   6.464
 5674POPC   D2A71812   8.244  17.476   6.764
 5674POPC   C3A71813   8.179  17.538   7.064
 5674POPC   C4A71814   8.231  17.499   7.364
 5674POPC   C1B71815   8.380  17.452   6.464
 5674POPC   C2B71816   8.395  17.392   6.764
 5674POPC   C3B71817   8.415  17.390   7.064
 5674POPC   C4B71818   8.422  17.364   7.364
 5675POPC   NC371819   2.785  26.809   5.564
 5675POPC   PO471820   2.728  26.834   5.864
 5675POPC   GL171821   2.755  26.773   6.164
 5675POPC   GL271822   2.882  26.824   6.164
 5675POPC   C1A71823   2.814  26.782   6.464
 5675POPC   D2A71824   2.782  26.768   6.764
 5675POPC   C3A71825   2.805  26.772   7.064
 5675POPC   C4A71826   2.766  26.829   7.364
 5675POPC   C1B71827   3.049  26.790   6.464
 5675POPC   C2B71828   2.983  26.799   6.764
 5675POPC   C3B71829   3.038  26.821   7.064
 5675POPC   C4B71830   2.998  26.791   7.364
 5676POPC   NC371831  15.956  19.845   5.564
 5676POPC   PO471832  16.000  19.787   5.864
 5676POPC   GL171833  16.003  19.850   6.164
 5676POPC   GL271834  16.027  19.699   6.164
 5676POPC   C1A71835  15.987  19.807   6.464
 5676POPC   D2A71836  15.979  19.796   6.764
 5676POPC   C3A71837  15.994  19.786   7.064
 5676POPC   C4A71838  15.939  19.875   7.364
 5676POPC   C1B71839  16.020  19.605   6.464
 5676POPC   C2B71840  16.041  19.602   6.764
 5676POPC   C3B71841  16.027  19.577   7.064
 5676POPC   C4B71842  16.075  19.580   7.364
 5677POPC   NC371843  11.256  19.824   5.564
 5677POPC   PO471844  11.292  19.833   5.864
 5677POPC   GL171845  11.286  19.813   6.164
 5677POPC   GL271846  11.432  19.863   6.164
 5677POPC   C1A71847  11.326  19.864   6.464
 5677POPC   D2A71848  11.261  19.803   6.764
 5677POPC   C3A71849  11.320  19.880   7.064
 5677POPC   C4A71850  11.281  19.789   7.364
 5677POPC   C1B71851  11.540  19.814   6.464
 5677POPC   C2B71852  11.563  19.851   6.764
 5677POPC   C3B71853  11.586  19.780   7.064
 5677POPC   C4B71854  11.518  19.778   7.364
 5678POPC   NC371855  43.840   8.940   5.564
 5678POPC   PO471856  43.885   8.943   5.864
 5678POPC   GL171857  43.873   9.015   6.164
 5678POPC   GL271858  43.854   9.069   6.164
 5678POPC   C1A71859  43.854   9.017   6.464
 5678POPC   D2A71860  43.898   8.943   6.764
 5678POPC   C3A71861  43.867   9.004   7.064
 5678POPC   C4A71862  43.930   8.942   7.364
 5678POPC   C1B71863  43.744   9.206   6.464
 5678POPC   C2B71864  43.792   9.171   6.764
 5678POPC   C3B71865  43.716   9.189   7.064
 5678POPC   C4B71866  43.751   9.183   7.364
 5679POPC   NC371867   8.241   5.843   5.564
 5679POPC   PO471868   8.181   5.886   5.864
 5679POPC   GL171869   8.212   5.888   6.164
 5679POPC   GL271870   8.204   5.727   6.164
 5679POPC   C1A71871   8.198   5.868   6.464
 5679POPC   D2A71872   8.196   5.834   6.764
 5679POPC   C3A71873   8.183   5.847   7.064
 5679POPC   C4A71874   8.201   5.866   7.364
 5679POPC   C1B71875   8.202   5.643   6.464
 5679POPC   C2B71876   8.244   5.663   6.764
 5679POPC   C3B71877   8.274   5.632   7.064
 5679POPC   C4B71878   8.241   5.648   7.364
 5680POPC   NC371879  21.379  19.878   5.564
 5680POPC   PO471880  21.436  19.817   5.864
 5680POPC   GL171881  21.402  19.847   6.164
 5680POPC   GL271882  21.467  19.820   6.164
 5680POPC   C1A71883  21.340  19.793   6.464
 5680POPC   D2A71884  21.423  19.874   6.764
 5680POPC   C3A71885  21.353  19.842   7.064
 5680POPC   C4A71886  21.359  19.811   7.364
 5680POPC   C1B71887  21.590  19.814   6.464
 5680POPC   C2B71888  21.610  19.814   6.764
 5680POPC   C3B71889  21.669  19.746   7.064
 5680POPC   C4B71890  21.597  19.737   7.364
 5681POPC   NC371891  24.487  28.363   5.564
 5681POPC   PO471892  24.464  28.342   5.864
 5681POPC   GL171893  24.528  28.345   6.164
 5681POPC   GL271894  24.520  28.474   6.164
 5681POPC   C1A71895  24.464  28.350   6.464
 5681POPC   D2A71896  24.508  28.357   6.764
 5681POPC   C3A71897  24.514  28.355   7.064
 5681POPC   C4A71898  24.477  28.387   7.364
 5681POPC   C1B71899  24.623  28.599   6.464
 5681POPC   C2B71900  24.621  28.581   6.764
 5681POPC   C3B71901  24.549  28.644   7.064
 5681POPC   C4B71902  24.597  28.585   7.364
 5682POPC   NC371903  14.416  14.422   5.564
 5682POPC   PO471904  14.414  14.362   5.864
 5682POPC   GL171905  14.394  14.424   6.164
 5682POPC   GL271906  14.275  14.380   6.164
 5682POPC   C1A71907  14.365  14.360   6.464
 5682POPC   D2A71908  14.441  14.365   6.764
 5682POPC   C3A71909  14.422  14.443   7.064
 5682POPC   C4A71910  14.370  14.362   7.364
 5682POPC   C1B71911  14.158  14.414   6.464
 5682POPC   C2B71912  14.188  14.418   6.764
 5682POPC   C3B71913  14.172  14.481   7.064
 5682POPC   C4B71914  14.108  14.459   7.364
 5683POPC   NC371915  18.305   6.612   5.564
 5683POPC   PO471916  18.271   6.635   5.864
 5683POPC   GL171917  18.239   6.604   6.164
 5683POPC   GL271918  18.438   6.706   6.164
 5683POPC   C1A71919  18.259   6.609   6.464
 5683POPC   D2A71920  18.328   6.679   6.764
 5683POPC   C3A71921  18.324   6.658   7.064
 5683POPC   C4A71922  18.252   6.628   7.364
 5683POPC   C1B71923  18.497   6.753   6.464
 5683POPC   C2B71924  18.464   6.710   6.764
 5683POPC   C3B71925  18.548   6.772   7.064
 5683POPC   C4B71926  18.496   6.780   7.364
 5684POPC   NC371927  31.497  17.551   5.564
 5684POPC   PO471928  31.469  17.512   5.864
 5684POPC   GL171929  31.437  17.458   6.164
 5684POPC   GL271930  31.532  17.389   6.164
 5684POPC   C1A71931  31.486  17.468   6.464
 5684POPC   D2A71932  31.505  17.551   6.764
 5684POPC   C3A71933  31.441  17.537   7.064
 5684POPC   C4A71934  31.512  17.481   7.364
 5684POPC   C1B71935  31.535  17.231   6.464
 5684POPC   C2B71936  31.567  17.301   6.764
 5684POPC   C3B71937  31.521  17.263   7.064
 5684POPC   C4B71938  31.496  17.271   7.364
 5685POPC   NC371939  33.843  15.954   5.564
 5685POPC   PO471940  33.796  15.996   5.864
 5685POPC   GL171941  33.767  15.965   6.164
 5685POPC   GL271942  33.764  15.827   6.164
 5685POPC   C1A71943  33.754  15.940   6.464
 5685POPC   D2A71944  33.840  15.965   6.764
 5685POPC   C3A71945  33.806  15.964   7.064
 5685POPC   C4A71946  33.802  15.979   7.364
 5685POPC   C1B71947  33.662  15.698   6.464
 5685POPC   C2B71948  33.624  15.784   6.764
 5685POPC   C3B71949  33.639  15.757   7.064
 5685POPC   C4B71950  33.641  15.694   7.364
 5686POPC   NC371951   5.055  26.803   5.564
 5686POPC   PO471952   5.081  26.787   5.864
 5686POPC   GL171953   5.044  26.802   6.164
 5686POPC   GL271954   5.112  26.960   6.164
 5686POPC   C1A71955   5.084  26.859   6.464
 5686POPC   D2A71956   5.116  26.854   6.764
 5686POPC   C3A71957   5.103  26.797   7.064
 5686POPC   C4A71958   5.118  26.799   7.364
 5686POPC   C1B71959   5.013  27.089   6.464
 5686POPC   C2B71960   5.064  27.110   6.764
 5686POPC   C3B71961   5.093  27.032   7.064
 5686POPC   C4B71962   5.007  27.113   7.364
 5687POPC   NC371963  21.349   5.886   5.564
 5687POPC   PO471964  21.432   5.874   5.864
 5687POPC   GL171965  21.403   5.839   6.164
 5687POPC   GL271966  21.239   5.793   6.164
 5687POPC   C1A71967  21.348   5.893   6.464
 5687POPC   D2A71968  21.360   5.889   6.764
 5687POPC   C3A71969  21.387   5.906   7.064
 5687POPC   C4A71970  21.379   5.907   7.364
 5687POPC   C1B71971  21.176   5.698   6.464
 5687POPC   C2B71972  21.186   5.739   6.764
 5687POPC   C3B71973  21.151   5.746   7.064
 5687POPC   C4B71974  21.141   5.724   7.364
 5688POPC   NC371975  24.473   3.554   5.564
 5688POPC   PO471976  24.519   3.528   5.864
 5688POPC   GL171977  24.470   3.558   6.164
 5688POPC   GL271978  24.448   3.386   6.164
 5688POPC   C1A71979  24.516   3.548   6.464
 5688POPC   D2A71980  24.474   3.586   6.764
 5688POPC   C3A71981  24.531   3.539   7.064
 5688POPC   C4A71982  24.503   3.560   7.364
 5688POPC   C1B71983  24.395   3.362   6.464
 5688POPC   C2B71984  24.329   3.322   6.764
 5688POPC   C3B71985  24.374   3.358   7.064
 5688POPC   C4B71986  24.411   3.327   7.364
 5689POPC   NC371987  13.618  15.181   5.564
 5689POPC   PO471988  13.662  15.148   5.864
 5689POPC   GL171989  13.634  15.129   6.164
 5689POPC   GL271990  13.540  15.245   6.164
 5689POPC   C1A71991  13.594  15.144   6.464
 5689POPC   D2A71992  13.607  15.219   6.764
 5689POPC   C3A71993  13.642  15.141   7.064
 5689POPC   C4A71994  13.677  15.162   7.364
 5689POPC   C1B71995  13.404  15.362   6.464
 5689POPC   C2B71996  13.437  15.356   6.764
 5689POPC   C3B71997  13.467  15.394   7.064
 5689POPC   C4B71998  13.412  15.367   7.364
 5690POPC   NC371999  17.542  39.248   5.564
 5690POPC   PO472000  17.459  39.278   5.864
 5690POPC   GL172001  17.544  39.195   6.164
 5690POPC   GL272002  17.382  39.274   6.164
 5690POPC   C1A72003  17.513  39.193   6.464
 5690POPC   D2A72004  17.525  39.242   6.764
 5690POPC   C3A72005  17.517  39.261   7.064
 5690POPC   C4A72006  17.502  39.278   7.364
 5690POPC   C1B72007  17.272  39.260   6.464
 5690POPC   C2B72008  17.213  39.248   6.764
 5690POPC   C3B72009  17.214  39.308   7.064
 5690POPC   C4B72010  17.231  39.289   7.364
 5691POPC   NC372011  38.432  22.943   5.564
 5691POPC   PO472012  38.470  22.980   5.864
 5691POPC   GL172013  38.493  22.904   6.164
 5691POPC   GL272014  38.393  23.025   6.164
 5691POPC   C1A72015  38.472  22.940   6.464
 5691POPC   D2A72016  38.437  22.961   6.764
 5691POPC   C3A72017  38.429  22.911   7.064
 5691POPC   C4A72018  38.490  22.915   7.364
 5691POPC   C1B72019  38.373  23.192   6.464
 5691POPC   C2B72020  38.353  23.213   6.764
 5691POPC   C3B72021  38.407  23.221   7.064
 5691POPC   C4B72022  38.390  23.180   7.364
 5692POPC   NC372023  35.376   4.324   5.564
 5692POPC   PO472024  35.376   4.319   5.864
 5692POPC   GL172025  35.360   4.333   6.164
 5692POPC   GL272026  35.357   4.170   6.164
 5692POPC   C1A72027  35.394   4.318   6.464
 5692POPC   D2A72028  35.344   4.335   6.764
 5692POPC   C3A72029  35.374   4.268   7.064
 5692POPC   C4A72030  35.362   4.300   7.364
 5692POPC   C1B72031  35.423   4.068   6.464
 5692POPC   C2B72032  35.417   4.037   6.764
 5692POPC   C3B72033  35.398   4.112   7.064
 5692POPC   C4B72034  35.384   4.034   7.364
 5693POPC   NC372035   2.010  26.780   5.564
 5693POPC   PO472036   1.993  26.772   5.864
 5693POPC   GL172037   1.952  26.854   6.164
 5693POPC   GL272038   1.886  26.766   6.164
 5693POPC   C1A72039   1.943  26.819   6.464
 5693POPC   D2A72040   2.028  26.833   6.764
 5693POPC   C3A72041   2.015  26.774   7.064
 5693POPC   C4A72042   2.011  26.798   7.364
 5693POPC   C1B72043   1.733  26.728   6.464
 5693POPC   C2B72044   1.721  26.682   6.764
 5693POPC   C3B72045   1.794  26.670   7.064
 5693POPC   C4B72046   1.782  26.735   7.364
 5694POPC   NC372047   3.495  32.243   5.564
 5694POPC   PO472048   3.576  32.296   5.864
 5694POPC   GL172049   3.559  32.203   6.164
 5694POPC   GL272050   3.463  32.152   6.164
 5694POPC   C1A72051   3.583  32.254   6.464
 5694POPC   D2A72052   3.527  32.249   6.764
 5694POPC   C3A72053   3.550  32.203   7.064
 5694POPC   C4A72054   3.510  32.214   7.364
 5694POPC   C1B72055   3.413  32.022   6.464
 5694POPC   C2B72056   3.413  32.027   6.764
 5694POPC   C3B72057   3.416  32.008   7.064
 5694POPC   C4B72058   3.467  32.000   7.364
 5695POPC   NC372059  34.579  43.110   5.564
 5695POPC   PO472060  34.576  43.106   5.864
 5695POPC   GL172061  34.547  43.154   6.164
 5695POPC   GL272062  34.713  43.131   6.164
 5695POPC   C1A72063  34.580  43.143   6.464
 5695POPC   D2A72064  34.548  43.063   6.764
 5695POPC   C3A72065  34.619  43.074   7.064
 5695POPC   C4A72066  34.621  43.152   7.364
 5695POPC   C1B72067  34.775  43.269   6.464
 5695POPC   C2B72068  34.833  43.227   6.764
 5695POPC   C3B72069  34.797  43.220   7.064
 5695POPC   C4B72070  34.778  43.245   7.364
 5696POPC   NC372071  40.003  38.450   5.564
 5696POPC   PO472072  40.040  38.451   5.864
 5696POPC   GL172073  39.962  38.414   6.164
 5696POPC   GL272074  40.121  38.505   6.164
 5696POPC   C1A72075  40.056  38.454   6.464
 5696POPC   D2A72076  40.055  38.488   6.764
 5696POPC   C3A72077  39.984  38.454   7.064
 5696POPC   C4A72078  40.028  38.441   7.364
 5696POPC   C1B72079  40.275  38.478   6.464
 5696POPC   C2B72080  40.283  38.491   6.764
 5696POPC   C3B72081  40.245  38.522   7.064
 5696POPC   C4B72082  40.292  38.496   7.364
 5697POPC   NC372083   6.617  32.283   5.564
 5697POPC   PO472084   6.685  32.277   5.864
 5697POPC   GL172085   6.663  32.217   6.164
 5697POPC   GL272086   6.751  32.349   6.164
 5697POPC   C1A72087   6.637  32.256   6.464
 5697POPC   D2A72088   6.687  32.206   6.764
 5697POPC   C3A72089   6.603  32.202   7.064
 5697POPC   C4A72090   6.687  32.284   7.364
 5697POPC   C1B72091   6.812  32.445   6.464
 5697POPC   C2B72092   6.779  32.463   6.764
 5697POPC   C3B72093   6.806  32.434   7.064
 5697POPC   C4B72094   6.740  32.458   7.364
 5698POPC   NC372095  43.094  16.730   5.564
 5698POPC   PO472096  43.148  16.686   5.864
 5698POPC   GL172097  43.100  16.777   6.164
 5698POPC   GL272098  43.197  16.645   6.164
 5698POPC   C1A72099  43.139  16.690   6.464
 5698POPC   D2A72100  43.119  16.720   6.764
 5698POPC   C3A72101  43.111  16.726   7.064
 5698POPC   C4A72102  43.137  16.757   7.364
 5698POPC   C1B72103  43.289  16.578   6.464
 5698POPC   C2B72104  43.220  16.519   6.764
 5698POPC   C3B72105  43.219  16.519   7.064
 5698POPC   C4B72106  43.247  16.528   7.364
 5699POPC   NC372107   1.226  40.745   5.564
 5699POPC   PO472108   1.173  40.768   5.864
 5699POPC   GL172109   1.212  40.772   6.164
 5699POPC   GL272110   1.185  40.871   6.164
 5699POPC   C1A72111   1.228  40.813   6.464
 5699POPC   D2A72112   1.225  40.791   6.764
 5699POPC   C3A72113   1.171  40.793   7.064
 5699POPC   C4A72114   1.218  40.806   7.364
 5699POPC   C1B72115   1.122  41.022   6.464
 5699POPC   C2B72116   1.142  41.072   6.764
 5699POPC   C3B72117   1.181  41.010   7.064
 5699POPC   C4B72118   1.153  40.978   7.364
 5700POPC   NC372119  39.221  37.656   5.564
 5700POPC   PO472120  39.275  37.674   5.864
 5700POPC   GL172121  39.230  37.652   6.164
 5700POPC   GL272122  39.145  37.771   6.164
 5700POPC   C1A72123  39.251  37.689   6.464
 5700POPC   D2A72124  39.261  37.666   6.764
 5700POPC   C3A72125  39.258  37.723   7.064
 5700POPC   C4A72126  39.261  37.692   7.364
 5700POPC   C1B72127  39.158  37.881   6.464
 5700POPC   C2B72128  39.139  37.867   6.764
 5700POPC   C3B72129  39.115  37.880   7.064
 5700POPC   C4B72130  39.095  37.935   7.364
 5701POPC   NC372131  19.050  22.951   5.564
 5701POPC   PO472132  19.059  22.942   5.864
 5701POPC   GL172133  19.090  22.951   6.164
 5701POPC   GL272134  19.191  22.999   6.164
 5701POPC   C1A72135  19.072  22.960   6.464
 5701POPC   D2A72136  19.023  22.968   6.764
 5701POPC   C3A72137  19.035  22.912   7.064
 5701POPC   C4A72138  19.048  22.935   7.364
 5701POPC   C1B72139  19.276  23.006   6.464
 5701POPC   C2B72140  19.348  22.962   6.764
 5701POPC   C3B72141  19.317  22.952   7.064
 5701POPC   C4B72142  19.283  22.974   7.364
 5702POPC   NC372143   0.433  34.559   5.564
 5702POPC   PO472144   0.483  34.542   5.864
 5702POPC   GL172145   0.475  34.565   6.164
 5702POPC   GL272146   0.484  34.468   6.164
 5702POPC   C1A72147   0.447  34.625   6.464
 5702POPC   D2A72148   0.455  34.559   6.764
 5702POPC   C3A72149   0.462  34.554   7.064
 5702POPC   C4A72150   0.479  34.592   7.364
 5702POPC   C1B72151   0.650  34.340   6.464
 5702POPC   C2B72152   0.639  34.433   6.764
 5702POPC   C3B72153   0.637  34.371   7.064
 5702POPC   C4B72154   0.624  34.360   7.364
 5703POPC   NC372155  16.758  35.381   5.564
 5703POPC   PO472156  16.779  35.311   5.864
 5703POPC   GL172157  16.757  35.348   6.164
 5703POPC   GL272158  16.606  35.371   6.164
 5703POPC   C1A72159  16.723  35.346   6.464
 5703POPC   D2A72160  16.780  35.338   6.764
 5703POPC   C3A72161  16.692  35.308   7.064
 5703POPC   C4A72162  16.770  35.366   7.364
 5703POPC   C1B72163  16.527  35.296   6.464
 5703POPC   C2B72164  16.440  35.366   6.764
 5703POPC   C3B72165  16.516  35.299   7.064
 5703POPC   C4B72166  16.441  35.391   7.364
 5704POPC   NC372167  22.160  34.531   5.564
 5704POPC   PO472168  22.168  34.596   5.864
 5704POPC   GL172169  22.135  34.600   6.164
 5704POPC   GL272170  22.082  34.731   6.164
 5704POPC   C1A72171  22.145  34.596   6.464
 5704POPC   D2A72172  22.189  34.591   6.764
 5704POPC   C3A72173  22.164  34.541   7.064
 5704POPC   C4A72174  22.171  34.588   7.364
 5704POPC   C1B72175  22.050  34.777   6.464
 5704POPC   C2B72176  22.046  34.835   6.764
 5704POPC   C3B72177  22.030  34.861   7.064
 5704POPC   C4B72178  22.092  34.845   7.364
 5705POPC   NC372179   2.776  43.083   5.564
 5705POPC   PO472180   2.752  43.118   5.864
 5705POPC   GL172181   2.801  43.091   6.164
 5705POPC   GL272182   2.672  43.074   6.164
 5705POPC   C1A72183   2.780  43.102   6.464
 5705POPC   D2A72184   2.779  43.060   6.764
 5705POPC   C3A72185   2.805  43.086   7.064
 5705POPC   C4A72186   2.737  43.138   7.364
 5705POPC   C1B72187   2.583  42.962   6.464
 5705POPC   C2B72188   2.520  43.009   6.764
 5705POPC   C3B72189   2.552  42.994   7.064
 5705POPC   C4B72190   2.513  43.046   7.364
 5706POPC   NC372191   7.437  21.342   5.564
 5706POPC   PO472192   7.401  21.393   5.864
 5706POPC   GL172193   7.420  21.426   6.164
 5706POPC   GL272194   7.353  21.258   6.164
 5706POPC   C1A72195   7.438  21.390   6.464
 5706POPC   D2A72196   7.389  21.358   6.764
 5706POPC   C3A72197   7.400  21.381   7.064
 5706POPC   C4A72198   7.427  21.337   7.364
 5706POPC   C1B72199   7.277  21.143   6.464
 5706POPC   C2B72200   7.298  21.172   6.764
 5706POPC   C3B72201   7.319  21.230   7.064
 5706POPC   C4B72202   7.280  21.181   7.364
 5707POPC   NC372203  36.114   9.746   5.564
 5707POPC   PO472204  36.120   9.702   5.864
 5707POPC   GL172205  36.095   9.734   6.164
 5707POPC   GL272206  36.221   9.757   6.164
 5707POPC   C1A72207  36.116   9.775   6.464
 5707POPC   D2A72208  36.160   9.756   6.764
 5707POPC   C3A72209  36.138   9.789   7.064
 5707POPC   C4A72210  36.117   9.724   7.364
 5707POPC   C1B72211  36.390   9.828   6.464
 5707POPC   C2B72212  36.304   9.882   6.764
 5707POPC   C3B72213  36.319   9.888   7.064
 5707POPC   C4B72214  36.382   9.892   7.364
 5708POPC   NC372215   7.408  19.828   5.564
 5708POPC   PO472216   7.432  19.870   5.864
 5708POPC   GL172217   7.399  19.843   6.164
 5708POPC   GL272218   7.533  19.942   6.164
 5708POPC   C1A72219   7.371  19.857   6.464
 5708POPC   D2A72220   7.399  19.816   6.764
 5708POPC   C3A72221   7.414  19.847   7.064
 5708POPC   C4A72222   7.451  19.860   7.364
 5708POPC   C1B72223   7.586  20.031   6.464
 5708POPC   C2B72224   7.647  20.019   6.764
 5708POPC   C3B72225   7.621  19.980   7.064
 5708POPC   C4B72226   7.622  19.996   7.364
 5709POPC   NC372227  40.790  10.557   5.564
 5709POPC   PO472228  40.818  10.567   5.864
 5709POPC   GL172229  40.806  10.513   6.164
 5709POPC   GL272230  40.890  10.416   6.164
 5709POPC   C1A72231  40.734  10.572   6.464
 5709POPC   D2A72232  40.825  10.515   6.764
 5709POPC   C3A72233  40.754  10.563   7.064
 5709POPC   C4A72234  40.808  10.504   7.364
 5709POPC   C1B72235  40.923  10.350   6.464
 5709POPC   C2B72236  40.959  10.331   6.764
 5709POPC   C3B72237  40.926  10.399   7.064
 5709POPC   C4B72238  40.964  10.352   7.364
 5710POPC   NC372239  22.197  33.056   5.564
 5710POPC   PO472240  22.123  32.999   5.864
 5710POPC   GL172241  22.153  33.046   6.164
 5710POPC   GL272242  22.130  33.091   6.164
 5710POPC   C1A72243  22.116  33.041   6.464
 5710POPC   D2A72244  22.189  33.030   6.764
 5710POPC   C3A72245  22.120  33.048   7.064
 5710POPC   C4A72246  22.188  33.060   7.364
 5710POPC   C1B72247  22.054  33.278   6.464
 5710POPC   C2B72248  22.051  33.242   6.764
 5710POPC   C3B72249  22.045  33.187   7.064
 5710POPC   C4B72250  21.994  33.247   7.364
 5711POPC   NC372251   5.902  22.896   5.564
 5711POPC   PO472252   5.840  22.889   5.864
 5711POPC   GL172253   5.822  22.953   6.164
 5711POPC   GL272254   5.985  22.800   6.164
 5711POPC   C1A72255   5.835  22.908   6.464
 5711POPC   D2A72256   5.839  22.984   6.764
 5711POPC   C3A72257   5.873  22.925   7.064
 5711POPC   C4A72258   5.853  22.894   7.364
 5711POPC   C1B72259   5.980  22.738   6.464
 5711POPC   C2B72260   5.990  22.726   6.764
 5711POPC   C3B72261   6.035  22.698   7.064
 5711POPC   C4B72262   6.019  22.759   7.364
 5712POPC   NC372263  13.611  41.535   5.564
 5712POPC   PO472264  13.666  41.518   5.864
 5712POPC   GL172265  13.615  41.559   6.164
 5712POPC   GL272266  13.718  41.674   6.164
 5712POPC   C1A72267  13.646  41.605   6.464
 5712POPC   D2A72268  13.653  41.587   6.764
 5712POPC   C3A72269  13.592  41.603   7.064
 5712POPC   C4A72270  13.620  41.583   7.364
 5712POPC   C1B72271  13.754  41.727   6.464
 5712POPC   C2B72272  13.788  41.763   6.764
 5712POPC   C3B72273  13.771  41.689   7.064
 5712POPC   C4B72274  13.850  41.754   7.364
 5713POPC   NC372275  19.837  31.511   5.564
 5713POPC   PO472276  19.828  31.435   5.864
 5713POPC   GL172277  19.811  31.436   6.164
 5713POPC   GL272278  19.696  31.379   6.164
 5713POPC   C1A72279  19.801  31.516   6.464
 5713POPC   D2A72280  19.792  31.436   6.764
 5713POPC   C3A72281  19.838  31.424   7.064
 5713POPC   C4A72282  19.792  31.501   7.364
 5713POPC   C1B72283  19.581  31.336   6.464
 5713POPC   C2B72284  19.601  31.412   6.764
 5713POPC   C3B72285  19.568  31.373   7.064
 5713POPC   C4B72286  19.609  31.405   7.364
 5714POPC   NC372287  34.591   4.357   5.564
 5714POPC   PO472288  34.596   4.277   5.864
 5714POPC   GL172289  34.598   4.274   6.164
 5714POPC   GL272290  34.434   4.395   6.164
 5714POPC   C1A72291  34.607   4.324   6.464
 5714POPC   D2A72292  34.592   4.290   6.764
 5714POPC   C3A72293  34.539   4.313   7.064
 5714POPC   C4A72294  34.569   4.298   7.364
 5714POPC   C1B72295  34.359   4.429   6.464
 5714POPC   C2B72296  34.390   4.404   6.764
 5714POPC   C3B72297  34.362   4.450   7.064
 5714POPC   C4B72298  34.394   4.426   7.364
 5715POPC   NC372299  24.500  13.640   5.564
 5715POPC   PO472300  24.469  13.635   5.864
 5715POPC   GL172301  24.516  13.588   6.164
 5715POPC   GL272302  24.320  13.669   6.164
 5715POPC   C1A72303  24.440  13.607   6.464
 5715POPC   D2A72304  24.442  13.604   6.764
 5715POPC   C3A72305  24.464  13.607   7.064
 5715POPC   C4A72306  24.492  13.640   7.364
 5715POPC   C1B72307  24.196  13.631   6.464
 5715POPC   C2B72308  24.203  13.641   6.764
 5715POPC   C3B72309  24.263  13.590   7.064
 5715POPC   C4B72310  24.279  13.596   7.364
 5716POPC   NC372311  41.542   8.973   5.564
 5716POPC   PO472312  41.586   8.947   5.864
 5716POPC   GL172313  41.519   8.973   6.164
 5716POPC   GL272314  41.635   8.915   6.164
 5716POPC   C1A72315  41.569   8.935   6.464
 5716POPC   D2A72316  41.557   8.996   6.764
 5716POPC   C3A72317  41.544   8.976   7.064
 5716POPC   C4A72318  41.595   8.933   7.364
 5716POPC   C1B72319  41.753   8.876   6.464
 5716POPC   C2B72320  41.793   8.816   6.764
 5716POPC   C3B72321  41.735   8.853   7.064
 5716POPC   C4B72322  41.828   8.869   7.364
 5717POPC   NC372323  39.272  13.595   5.564
 5717POPC   PO472324  39.270  13.627   5.864
 5717POPC   GL172325  39.246  13.669   6.164
 5717POPC   GL272326  39.255  13.733   6.164
 5717POPC   C1A72327  39.233  13.636   6.464
 5717POPC   D2A72328  39.217  13.643   6.764
 5717POPC   C3A72329  39.185  13.596   7.064
 5717POPC   C4A72330  39.214  13.613   7.364
 5717POPC   C1B72331  39.347  13.819   6.464
 5717POPC   C2B72332  39.260  13.836   6.764
 5717POPC   C3B72333  39.333  13.910   7.064
 5717POPC   C4B72334  39.264  13.882   7.364
 5718POPC   NC372335  34.562  30.746   5.564
 5718POPC   PO472336  34.613  30.677   5.864
 5718POPC   GL172337  34.612  30.657   6.164
 5718POPC   GL272338  34.666  30.673   6.164
 5718POPC   C1A72339  34.609  30.692   6.464
 5718POPC   D2A72340  34.604  30.701   6.764
 5718POPC   C3A72341  34.587  30.660   7.064
 5718POPC   C4A72342  34.554  30.707   7.364
 5718POPC   C1B72343  34.787  30.683   6.464
 5718POPC   C2B72344  34.862  30.762   6.764
 5718POPC   C3B72345  34.849  30.679   7.064
 5718POPC   C4B72346  34.783  30.690   7.364
 5719POPC   NC372347  19.835  39.195   5.564
 5719POPC   PO472348  19.868  39.255   5.864
 5719POPC   GL172349  19.866  39.184   6.164
 5719POPC   GL272350  19.805  39.139   6.164
 5719POPC   C1A72351  19.881  39.235   6.464
 5719POPC   D2A72352  19.880  39.280   6.764
 5719POPC   C3A72353  19.822  39.254   7.064
 5719POPC   C4A72354  19.864  39.251   7.364
 5719POPC   C1B72355  19.706  38.992   6.464
 5719POPC   C2B72356  19.681  39.027   6.764
 5719POPC   C3B72357  19.715  39.066   7.064
 5719POPC   C4B72358  19.693  39.004   7.364
 5720POPC   NC372359  24.447  12.871   5.564
 5720POPC   PO472360  24.508  12.885   5.864
 5720POPC   GL172361  24.475  12.855   6.164
 5720POPC   GL272362  24.354  12.939   6.164
 5720POPC   C1A72363  24.492  12.897   6.464
 5720POPC   D2A72364  24.454  12.830   6.764
 5720POPC   C3A72365  24.500  12.879   7.064
 5720POPC   C4A72366  24.468  12.847   7.364
 5720POPC   C1B72367  24.325  12.996   6.464
 5720POPC   C2B72368  24.281  13.033   6.764
 5720POPC   C3B72369  24.328  12.982   7.064
 5720POPC   C4B72370  24.276  13.030   7.364
 5721POPC   NC372371  33.782  31.502   5.564
 5721POPC   PO472372  33.753  31.467   5.864
 5721POPC   GL172373  33.764  31.512   6.164
 5721POPC   GL272374  33.689  31.486   6.164
 5721POPC   C1A72375  33.766  31.455   6.464
 5721POPC   D2A72376  33.804  31.493   6.764
 5721POPC   C3A72377  33.758  31.458   7.064
 5721POPC   C4A72378  33.796  31.473   7.364
 5721POPC   C1B72379  33.514  31.517   6.464
 5721POPC   C2B72380  33.586  31.500   6.764
 5721POPC   C3B72381  33.554  31.522   7.064
 5721POPC   C4B72382  33.586  31.517   7.364
 5722POPC   NC372383  20.655  12.852   5.564
 5722POPC   PO472384  20.658  12.821   5.864
 5722POPC   GL172385  20.584  12.877   6.164
 5722POPC   GL272386  20.544  12.752   6.164
 5722POPC   C1A72387  20.581  12.877   6.464
 5722POPC   D2A72388  20.594  12.810   6.764
 5722POPC   C3A72389  20.598  12.850   7.064
 5722POPC   C4A72390  20.585  12.886   7.364
 5722POPC   C1B72391  20.549  12.620   6.464
 5722POPC   C2B72392  20.540  12.656   6.764
 5722POPC   C3B72393  20.485  12.598   7.064
 5722POPC   C4B72394  20.537  12.574   7.364
 5723POPC   NC372395  39.227  28.325   5.564
 5723POPC   PO472396  39.189  28.406   5.864
 5723POPC   GL172397  39.241  28.331   6.164
 5723POPC   GL272398  39.321  28.489   6.164
 5723POPC   C1A72399  39.198  28.374   6.464
 5723POPC   D2A72400  39.244  28.376   6.764
 5723POPC   C3A72401  39.260  28.406   7.064
 5723POPC   C4A72402  39.278  28.369   7.364
 5723POPC   C1B72403  39.307  28.616   6.464
 5723POPC   C2B72404  39.315  28.640   6.764
 5723POPC   C3B72405  39.343  28.571   7.064
 5723POPC   C4B72406  39.306  28.563   7.364
 5724POPC   NC372407  41.583  43.093   5.564
 5724POPC   PO472408  41.557  43.140   5.864
 5724POPC   GL172409  41.515  43.132   6.164
 5724POPC   GL272410  41.478  43.030   6.164
 5724POPC   C1A72411  41.580  43.114   6.464
 5724POPC   D2A72412  41.517  43.140   6.764
 5724POPC   C3A72413  41.562  43.106   7.064
 5724POPC   C4A72414  41.550  43.092   7.364
 5724POPC   C1B72415  41.300  43.062   6.464
 5724POPC   C2B72416  41.286  43.087   6.764
 5724POPC   C3B72417  41.356  43.029   7.064
 5724POPC   C4B72418  41.334  43.050   7.364
 5725POPC   NC372419   9.736  22.925   5.564
 5725POPC   PO472420   9.744  22.962   5.864
 5725POPC   GL172421   9.736  22.983   6.164
 5725POPC   GL272422   9.706  23.053   6.164
 5725POPC   C1A72423   9.751  22.900   6.464
 5725POPC   D2A72424   9.785  22.900   6.764
 5725POPC   C3A72425   9.772  22.899   7.064
 5725POPC   C4A72426   9.794  22.933   7.364
 5725POPC   C1B72427   9.765  23.221   6.464
 5725POPC   C2B72428   9.713  23.202   6.764
 5725POPC   C3B72429   9.702  23.203   7.064
 5725POPC   C4B72430   9.765  23.223   7.364
 5726POPC   NC372431   6.692  33.026   5.564
 5726POPC   PO472432   6.600  33.054   5.864
 5726POPC   GL172433   6.662  33.052   6.164
 5726POPC   GL272434   6.794  33.069   6.164
 5726POPC   C1A72435   6.644  33.067   6.464
 5726POPC   D2A72436   6.653  32.976   6.764
 5726POPC   C3A72437   6.666  33.044   7.064
 5726POPC   C4A72438   6.622  33.018   7.364
 5726POPC   C1B72439   6.847  33.176   6.464
 5726POPC   C2B72440   6.821  33.196   6.764
 5726POPC   C3B72441   6.816  33.192   7.064
 5726POPC   C4B72442   6.841  33.200   7.364
 5727POPC   NC372443  30.728  19.024   5.564
 5727POPC   PO472444  30.667  19.105   5.864
 5727POPC   GL172445  30.692  19.041   6.164
 5727POPC   GL272446  30.523  19.078   6.164
 5727POPC   C1A72447  30.720  19.024   6.464
 5727POPC   D2A72448  30.719  19.011   6.764
 5727POPC   C3A72449  30.736  19.045   7.064
 5727POPC   C4A72450  30.671  19.091   7.364
 5727POPC   C1B72451  30.412  19.068   6.464
 5727POPC   C2B72452  30.456  19.065   6.764
 5727POPC   C3B72453  30.406  19.053   7.064
 5727POPC   C4B72454  30.440  19.013   7.364
 5728POPC   NC372455  40.783  12.056   5.564
 5728POPC   PO472456  40.772  12.083   5.864
 5728POPC   GL172457  40.758  12.107   6.164
 5728POPC   GL272458  40.713  11.933   6.164
 5728POPC   C1A72459  40.772  12.047   6.464
 5728POPC   D2A72460  40.797  12.058   6.764
 5728POPC   C3A72461  40.751  12.031   7.064
 5728POPC   C4A72462  40.787  12.125   7.364
 5728POPC   C1B72463  40.711  11.863   6.464
 5728POPC   C2B72464  40.712  11.816   6.764
 5728POPC   C3B72465  40.689  11.857   7.064
 5728POPC   C4B72466  40.694  11.782   7.364
 5729POPC   NC372467  12.824  40.018   5.564
 5729POPC   PO472468  12.808  40.002   5.864
 5729POPC   GL172469  12.877  40.042   6.164
 5729POPC   GL272470  13.026  40.002   6.164
 5729POPC   C1A72471  12.896  39.966   6.464
 5729POPC   D2A72472  12.834  40.006   6.764
 5729POPC   C3A72473  12.867  40.027   7.064
 5729POPC   C4A72474  12.850  40.034   7.364
 5729POPC   C1B72475  13.076  39.963   6.464
 5729POPC   C2B72476  13.053  39.960   6.764
 5729POPC   C3B72477  13.116  39.952   7.064
 5729POPC   C4B72478  13.106  39.975   7.364
 5730POPC   NC372479  15.169  17.457   5.564
 5730POPC   PO472480  15.217  17.491   5.864
 5730POPC   GL172481  15.175  17.507   6.164
 5730POPC   GL272482  15.165  17.397   6.164
 5730POPC   C1A72483  15.145  17.543   6.464
 5730POPC   D2A72484  15.178  17.493   6.764
 5730POPC   C3A72485  15.154  17.472   7.064
 5730POPC   C4A72486  15.221  17.493   7.364
 5730POPC   C1B72487  15.114  17.222   6.464
 5730POPC   C2B72488  15.137  17.258   6.764
 5730POPC   C3B72489  15.131  17.226   7.064
 5730POPC   C4B72490  15.183  17.226   7.364
 5731POPC   NC372491  32.296   7.423   5.564
 5731POPC   PO472492  32.269   7.387   5.864
 5731POPC   GL172493  32.278   7.424   6.164
 5731POPC   GL272494  32.256   7.315   6.164
 5731POPC   C1A72495  32.253   7.411   6.464
 5731POPC   D2A72496  32.229   7.415   6.764
 5731POPC   C3A72497  32.243   7.409   7.064
 5731POPC   C4A72498  32.245   7.398   7.364
 5731POPC   C1B72499  32.321   7.207   6.464
 5731POPC   C2B72500  32.286   7.150   6.764
 5731POPC   C3B72501  32.265   7.124   7.064
 5731POPC   C4B72502  32.247   7.176   7.364
 5732POPC   NC372503  22.158   5.891   5.564
 5732POPC   PO472504  22.148   5.901   5.864
 5732POPC   GL172505  22.144   5.837   6.164
 5732POPC   GL272506  22.328   5.888   6.164
 5732POPC   C1A72507  22.137   5.897   6.464
 5732POPC   D2A72508  22.160   5.912   6.764
 5732POPC   C3A72509  22.208   5.905   7.064
 5732POPC   C4A72510  22.164   5.828   7.364
 5732POPC   C1B72511  22.370   5.873   6.464
 5732POPC   C2B72512  22.416   5.885   6.764
 5732POPC   C3B72513  22.386   5.947   7.064
 5732POPC   C4B72514  22.455   5.904   7.364
 5733POPC   NC372515  42.314   6.637   5.564
 5733POPC   PO472516  42.382   6.665   5.864
 5733POPC   GL172517  42.316   6.693   6.164
 5733POPC   GL272518  42.235   6.747   6.164
 5733POPC   C1A72519  42.381   6.656   6.464
 5733POPC   D2A72520  42.360   6.667   6.764
 5733POPC   C3A72521  42.293   6.648   7.064
 5733POPC   C4A72522  42.305   6.623   7.364
 5733POPC   C1B72523  42.224   6.877   6.464
 5733POPC   C2B72524  42.213   6.895   6.764
 5733POPC   C3B72525  42.230   6.824   7.064
 5733POPC   C4B72526  42.232   6.881   7.364
 5734POPC   NC372527  18.315  39.963   5.564
 5734POPC   PO472528  18.291  40.004   5.864
 5734POPC   GL172529  18.282  40.006   6.164
 5734POPC   GL272530  18.222  39.839   6.164
 5734POPC   C1A72531  18.248  40.019   6.464
 5734POPC   D2A72532  18.236  40.054   6.764
 5734POPC   C3A72533  18.269  40.013   7.064
 5734POPC   C4A72534  18.328  39.965   7.364
 5734POPC   C1B72535  18.193  39.765   6.464
 5734POPC   C2B72536  18.220  39.776   6.764
 5734POPC   C3B72537  18.232  39.786   7.064
 5734POPC   C4B72538  18.225  39.792   7.364
 5735POPC   NC372539   9.735   5.911   5.564
 5735POPC   PO472540   9.774   5.910   5.864
 5735POPC   GL172541   9.721   5.892   6.164
 5735POPC   GL272542   9.866   5.786   6.164
 5735POPC   C1A72543   9.772   5.840   6.464
 5735POPC   D2A72544   9.738   5.870   6.764
 5735POPC   C3A72545   9.735   5.846   7.064
 5735POPC   C4A72546   9.792   5.911   7.364
 5735POPC   C1B72547   9.897   5.683   6.464
 5735POPC   C2B72548   9.917   5.682   6.764
 5735POPC   C3B72549   9.891   5.611   7.064
 5735POPC   C4B72550   9.883   5.665   7.364
 5736POPC   NC372551  30.719  22.180   5.564
 5736POPC   PO472552  30.741  22.129   5.864
 5736POPC   GL172553  30.724  22.143   6.164
 5736POPC   GL272554  30.763  22.090   6.164
 5736POPC   C1A72555  30.681  22.168   6.464
 5736POPC   D2A72556  30.698  22.132   6.764
 5736POPC   C3A72557  30.695  22.210   7.064
 5736POPC   C4A72558  30.698  22.154   7.364
 5736POPC   C1B72559  30.886  22.078   6.464
 5736POPC   C2B72560  30.897  22.113   6.764
 5736POPC   C3B72561  30.922  22.105   7.064
 5736POPC   C4B72562  30.920  22.075   7.364
 5737POPC   NC372563  43.068   1.943   5.564
 5737POPC   PO472564  43.120   1.968   5.864
 5737POPC   GL172565  43.106   2.021   6.164
 5737POPC   GL272566  43.055   2.094   6.164
 5737POPC   C1A72567  43.133   2.007   6.464
 5737POPC   D2A72568  43.130   1.985   6.764
 5737POPC   C3A72569  43.100   1.988   7.064
 5737POPC   C4A72570  43.125   1.940   7.364
 5737POPC   C1B72571  42.920   2.164   6.464
 5737POPC   C2B72572  42.992   2.190   6.764
 5737POPC   C3B72573  42.930   2.140   7.064
 5737POPC   C4B72574  42.962   2.203   7.364
 5738POPC   NC372575  12.843  38.474   5.564
 5738POPC   PO472576  12.860  38.451   5.864
 5738POPC   GL172577  12.824  38.422   6.164
 5738POPC   GL272578  12.768  38.542   6.164
 5738POPC   C1A72579  12.827  38.487   6.464
 5738POPC   D2A72580  12.816  38.489   6.764
 5738POPC   C3A72581  12.885  38.441   7.064
 5738POPC   C4A72582  12.833  38.432   7.364
 5738POPC   C1B72583  12.664  38.612   6.464
 5738POPC   C2B72584  12.646  38.629   6.764
 5738POPC   C3B72585  12.685  38.604   7.064
 5738POPC   C4B72586  12.663  38.543   7.364
 5739POPC   NC372587  19.858  19.014   5.564
 5739POPC   PO472588  19.822  19.042   5.864
 5739POPC   GL172589  19.877  19.053   6.164
 5739POPC   GL272590  19.838  19.165   6.164
 5739POPC   C1A72591  19.832  19.043   6.464
 5739POPC   D2A72592  19.804  19.035   6.764
 5739POPC   C3A72593  19.790  19.025   7.064
 5739POPC   C4A72594  19.816  19.084   7.364
 5739POPC   C1B72595  19.953  19.336   6.464
 5739POPC   C2B72596  19.937  19.288   6.764
 5739POPC   C3B72597  19.908  19.336   7.064
 5739POPC   C4B72598  19.969  19.323   7.364
 5740POPC   NC372599  29.125  15.215   5.564
 5740POPC   PO472600  29.157  15.137   5.864
 5740POPC   GL172601  29.119  15.160   6.164
 5740POPC   GL272602  29.203  15.246   6.164
 5740POPC   C1A72603  29.130  15.131   6.464
 5740POPC   D2A72604  29.101  15.149   6.764
 5740POPC   C3A72605  29.142  15.177   7.064
 5740POPC   C4A72606  29.104  15.162   7.364
 5740POPC   C1B72607  29.327  15.305   6.464
 5740POPC   C2B72608  29.311  15.308   6.764
 5740POPC   C3B72609  29.313  15.369   7.064
 5740POPC   C4B72610  29.393  15.356   7.364
 5741POPC   NC372611  31.425  43.107   5.564
 5741POPC   PO472612  31.458  43.155   5.864
 5741POPC   GL172613  31.464  43.066   6.164
 5741POPC   GL272614  31.358  43.013   6.164
 5741POPC   C1A72615  31.429  43.093   6.464
 5741POPC   D2A72616  31.520  43.066   6.764
 5741POPC   C3A72617  31.482  43.082   7.064
 5741POPC   C4A72618  31.521  43.139   7.364
 5741POPC   C1B72619  31.244  43.019   6.464
 5741POPC   C2B72620  31.254  43.022   6.764
 5741POPC   C3B72621  31.263  42.962   7.064
 5741POPC   C4B72622  31.242  43.020   7.364
 5742POPC   NC372623  38.473  40.754   5.564
 5742POPC   PO472624  38.486  40.751   5.864
 5742POPC   GL172625  38.433  40.779   6.164
 5742POPC   GL272626  38.300  40.784   6.164
 5742POPC   C1A72627  38.465  40.794   6.464
 5742POPC   D2A72628  38.455  40.763   6.764
 5742POPC   C3A72629  38.452  40.798   7.064
 5742POPC   C4A72630  38.447  40.755   7.364
 5742POPC   C1B72631  38.186  40.814   6.464
 5742POPC   C2B72632  38.223  40.879   6.764
 5742POPC   C3B72633  38.188  40.867   7.064
 5742POPC   C4B72634  38.255  40.880   7.364
 5743POPC   NC372635   6.644   1.247   5.564
 5743POPC   PO472636   6.618   1.234   5.864
 5743POPC   GL172637   6.622   1.169   6.164
 5743POPC   GL272638   6.687   1.280   6.164
 5743POPC   C1A72639   6.655   1.233   6.464
 5743POPC   D2A72640   6.608   1.235   6.764
 5743POPC   C3A72641   6.635   1.246   7.064
 5743POPC   C4A72642   6.665   1.171   7.364
 5743POPC   C1B72643   6.776   1.379   6.464
 5743POPC   C2B72644   6.854   1.449   6.764
 5743POPC   C3B72645   6.852   1.350   7.064
 5743POPC   C4B72646   6.859   1.366   7.364
 5744POPC   NC372647  39.190  26.081   5.564
 5744POPC   PO472648  39.270  26.083   5.864
 5744POPC   GL172649  39.263  26.004   6.164
 5744POPC   GL272650  39.370  25.968   6.164
 5744POPC   C1A72651  39.248  26.029   6.464
 5744POPC   D2A72652  39.218  26.028   6.764
 5744POPC   C3A72653  39.195  26.027   7.064
 5744POPC   C4A72654  39.216  25.995   7.364
 5744POPC   C1B72655  39.449  25.888   6.464
 5744POPC   C2B72656  39.467  25.901   6.764
 5744POPC   C3B72657  39.433  25.943   7.064
 5744POPC   C4B72658  39.436  25.946   7.364
 5745POPC   NC372659  16.698  28.355   5.564
 5745POPC   PO472660  16.689  28.393   5.864
 5745POPC   GL172661  16.767  28.324   6.164
 5745POPC   GL272662  16.694  28.285   6.164
 5745POPC   C1A72663  16.739  28.348   6.464
 5745POPC   D2A72664  16.779  28.414   6.764
 5745POPC   C3A72665  16.766  28.320   7.064
 5745POPC   C4A72666  16.703  28.417   7.364
 5745POPC   C1B72667  16.775  28.079   6.464
 5745POPC   C2B72668  16.761  28.147   6.764
 5745POPC   C3B72669  16.792  28.083   7.064
 5745POPC   C4B72670  16.723  28.102   7.364
 5746POPC   NC372671  15.134   2.778   5.564
 5746POPC   PO472672  15.161   2.773   5.864
 5746POPC   GL172673  15.156   2.750   6.164
 5746POPC   GL272674  15.158   2.920   6.164
 5746POPC   C1A72675  15.211   2.746   6.464
 5746POPC   D2A72676  15.141   2.778   6.764
 5746POPC   C3A72677  15.145   2.735   7.064
 5746POPC   C4A72678  15.175   2.800   7.364
 5746POPC   C1B72679  15.217   3.050   6.464
 5746POPC   C2B72680  15.257   3.009   6.764
 5746POPC   C3B72681  15.189   3.027   7.064
 5746POPC   C4B72682  15.183   3.022   7.364
 5747POPC   NC372683  19.064  18.301   5.564
 5747POPC   PO472684  19.014  18.317   5.864
 5747POPC   GL172685  19.041  18.289   6.164
 5747POPC   GL272686  19.128  18.153   6.164
 5747POPC   C1A72687  19.102  18.327   6.464
 5747POPC   D2A72688  19.080  18.245   6.764
 5747POPC   C3A72689  19.078  18.241   7.064
 5747POPC   C4A72690  19.075  18.315   7.364
 5747POPC   C1B72691  19.239  18.090   6.464
 5747POPC   C2B72692  19.261  18.118   6.764
 5747POPC   C3B72693  19.216  18.154   7.064
 5747POPC   C4B72694  19.258  18.096   7.364
 5748POPC   NC372695   7.448   4.302   5.564
 5748POPC   PO472696   7.419   4.367   5.864
 5748POPC   GL172697   7.398   4.349   6.164
 5748POPC   GL272698   7.474   4.231   6.164
 5748POPC   C1A72699   7.440   4.270   6.464
 5748POPC   D2A72700   7.458   4.325   6.764
 5748POPC   C3A72701   7.424   4.353   7.064
 5748POPC   C4A72702   7.405   4.357   7.364
 5748POPC   C1B72703   7.487   4.061   6.464
 5748POPC   C2B72704   7.518   4.133   6.764
 5748POPC   C3B72705   7.522   4.088   7.064
 5748POPC   C4B72706   7.572   4.108   7.364
 5749POPC   NC372707  29.110  38.456   5.564
 5749POPC   PO472708  29.118  38.453   5.864
 5749POPC   GL172709  29.095  38.503   6.164
 5749POPC   GL272710  29.049  38.398   6.164
 5749POPC   C1A72711  29.168  38.495   6.464
 5749POPC   D2A72712  29.169  38.436   6.764
 5749POPC   C3A72713  29.147  38.414   7.064
 5749POPC   C4A72714  29.143  38.429   7.364
 5749POPC   C1B72715  28.870  38.366   6.464
 5749POPC   C2B72716  28.881  38.357   6.764
 5749POPC   C3B72717  28.904  38.412   7.064
 5749POPC   C4B72718  28.903  38.404   7.364
 5750POPC   NC372719  26.787  13.652   5.564
 5750POPC   PO472720  26.860  13.579   5.864
 5750POPC   GL172721  26.787  13.639   6.164
 5750POPC   GL272722  26.706  13.636   6.164
 5750POPC   C1A72723  26.833  13.587   6.464
 5750POPC   D2A72724  26.770  13.581   6.764
 5750POPC   C3A72725  26.811  13.582   7.064
 5750POPC   C4A72726  26.840  13.596   7.364
 5750POPC   C1B72727  26.543  13.715   6.464
 5750POPC   C2B72728  26.601  13.701   6.764
 5750POPC   C3B72729  26.566  13.714   7.064
 5750POPC   C4B72730  26.522  13.705   7.364
 5751POPC   NC372731  36.933  42.295   5.564
 5751POPC   PO472732  36.947  42.383   5.864
 5751POPC   GL172733  36.895  42.297   6.164
 5751POPC   GL272734  36.764  42.329   6.164
 5751POPC   C1A72735  36.899  42.350   6.464
 5751POPC   D2A72736  36.855  42.358   6.764
 5751POPC   C3A72737  36.904  42.331   7.064
 5751POPC   C4A72738  36.911  42.377   7.364
 5751POPC   C1B72739  36.693  42.217   6.464
 5751POPC   C2B72740  36.689  42.260   6.764
 5751POPC   C3B72741  36.690  42.250   7.064
 5751POPC   C4B72742  36.644  42.237   7.364
 5752POPC   NC372743   6.635   2.018   5.564
 5752POPC   PO472744   6.635   1.990   5.864
 5752POPC   GL172745   6.680   2.016   6.164
 5752POPC   GL272746   6.608   1.821   6.164
 5752POPC   C1A72747   6.623   1.977   6.464
 5752POPC   D2A72748   6.656   1.973   6.764
 5752POPC   C3A72749   6.672   1.996   7.064
 5752POPC   C4A72750   6.645   2.036   7.364
 5752POPC   C1B72751   6.625   1.729   6.464
 5752POPC   C2B72752   6.624   1.718   6.764
 5752POPC   C3B72753   6.593   1.779   7.064
 5752POPC   C4B72754   6.647   1.722   7.364
 5753POPC   NC372755  42.358  18.317   5.564
 5753POPC   PO472756  42.322  18.239   5.864
 5753POPC   GL172757  42.374  18.251   6.164
 5753POPC   GL272758  42.436  18.275   6.164
 5753POPC   C1A72759  42.342  18.304   6.464
 5753POPC   D2A72760  42.336  18.307   6.764
 5753POPC   C3A72761  42.345  18.241   7.064
 5753POPC   C4A72762  42.372  18.265   7.364
 5753POPC   C1B72763  42.564  18.220   6.464
 5753POPC   C2B72764  42.525  18.192   6.764
 5753POPC   C3B72765  42.596  18.177   7.064
 5753POPC   C4B72766  42.615  18.230   7.364
 5754POPC   NC372767  39.186  17.460   5.564
 5754POPC   PO472768  39.188  17.540   5.864
 5754POPC   GL172769  39.199  17.491   6.164
 5754POPC   GL272770  39.358  17.461   6.164
 5754POPC   C1A72771  39.235  17.542   6.464
 5754POPC   D2A72772  39.247  17.499   6.764
 5754POPC   C3A72773  39.281  17.524   7.064
 5754POPC   C4A72774  39.205  17.516   7.364
 5754POPC   C1B72775  39.398  17.272   6.464
 5754POPC   C2B72776  39.416  17.323   6.764
 5754POPC   C3B72777  39.377  17.287   7.064
 5754POPC   C4B72778  39.401  17.321   7.364
 5755POPC   NC372779  12.089  17.553   5.564
 5755POPC   PO472780  12.033  17.493   5.864
 5755POPC   GL172781  12.067  17.480   6.164
 5755POPC   GL272782  11.974  17.601   6.164
 5755POPC   C1A72783  12.083  17.493   6.464
 5755POPC   D2A72784  12.072  17.462   6.764
 5755POPC   C3A72785  12.098  17.496   7.064
 5755POPC   C4A72786  12.066  17.535   7.364
 5755POPC   C1B72787  11.860  17.650   6.464
 5755POPC   C2B72788  11.883  17.703   6.764
 5755POPC   C3B72789  11.849  17.672   7.064
 5755POPC   C4B72790  11.844  17.628   7.364
 5756POPC   NC372791  33.760  43.108   5.564
 5756POPC   PO472792  33.750  43.159   5.864
 5756POPC   GL172793  33.841  43.075   6.164
 5756POPC   GL272794  33.890  43.168   6.164
 5756POPC   C1A72795  33.755  43.141   6.464
 5756POPC   D2A72796  33.778  43.150   6.764
 5756POPC   C3A72797  33.816  43.142   7.064
 5756POPC   C4A72798  33.812  43.130   7.364
 5756POPC   C1B72799  33.999  43.202   6.464
 5756POPC   C2B72800  33.994  43.201   6.764
 5756POPC   C3B72801  34.035  43.244   7.064
 5756POPC   C4B72802  34.033  43.273   7.364
 5757POPC   NC372803   9.724   4.352   5.564
 5757POPC   PO472804   9.717   4.351   5.864
 5757POPC   GL172805   9.745   4.306   6.164
 5757POPC   GL272806   9.795   4.171   6.164
 5757POPC   C1A72807   9.789   4.292   6.464
 5757POPC   D2A72808   9.726   4.309   6.764
 5757POPC   C3A72809   9.738   4.339   7.064
 5757POPC   C4A72810   9.711   4.305   7.364
 5757POPC   C1B72811   9.791   4.024   6.464
 5757POPC   C2B72812   9.748   4.072   6.764
 5757POPC   C3B72813   9.759   4.053   7.064
 5757POPC   C4B72814   9.751   4.117   7.364
 5758POPC   NC372815  13.668   2.775   5.564
 5758POPC   PO472816  13.598   2.740   5.864
 5758POPC   GL172817  13.588   2.804   6.164
 5758POPC   GL272818  13.482   2.750   6.164
 5758POPC   C1A72819  13.662   2.775   6.464
 5758POPC   D2A72820  13.648   2.794   6.764
 5758POPC   C3A72821  13.583   2.798   7.064
 5758POPC   C4A72822  13.602   2.729   7.364
 5758POPC   C1B72823  13.404   2.705   6.464
 5758POPC   C2B72824  13.362   2.676   6.764
 5758POPC   C3B72825  13.351   2.714   7.064
 5758POPC   C4B72826  13.419   2.638   7.364
 5759POPC   NC372827  44.681  33.008   5.564
 5759POPC   PO472828  44.645  33.023   5.864
 5759POPC   GL172829  44.629  32.977   6.164
 5759POPC   GL272830  44.798  33.065   6.164
 5759POPC   C1A72831  44.664  33.046   6.464
 5759POPC   D2A72832  44.612  33.028   6.764
 5759POPC   C3A72833  44.671  33.065   7.064
 5759POPC   C4A72834  44.700  33.053   7.364
 5759POPC   C1B72835  44.868  33.067   6.464
 5759POPC   C2B72836  44.874  33.067   6.764
 5759POPC   C3B72837  44.941  33.101   7.064
 5759POPC   C4B72838  44.920  33.102   7.364
 5760POPC   NC372839  39.258  24.452   5.564
 5760POPC   PO472840  39.223  24.514   5.864
 5760POPC   GL172841  39.251  24.447   6.164
 5760POPC   GL272842  39.251  24.351   6.164
 5760POPC   C1A72843  39.228  24.498   6.464
 5760POPC   D2A72844  39.182  24.531   6.764
 5760POPC   C3A72845  39.222  24.508   7.064
 5760POPC   C4A72846  39.269  24.502   7.364
 5760POPC   C1B72847  39.279  24.226   6.464
 5760POPC   C2B72848  39.270  24.227   6.764
 5760POPC   C3B72849  39.246  24.247   7.064
 5760POPC   C4B72850  39.271  24.261   7.364
 5761POPC   NC372851  15.947  43.087   5.564
 5761POPC   PO472852  15.997  43.081   5.864
 5761POPC   GL172853  15.972  43.145   6.164
 5761POPC   GL272854  15.803  43.121   6.164
 5761POPC   C1A72855  15.935  43.091   6.464
 5761POPC   D2A72856  15.906  43.128   6.764
 5761POPC   C3A72857  15.986  43.134   7.064
 5761POPC   C4A72858  15.999  43.099   7.364
 5761POPC   C1B72859  15.696  43.043   6.464
 5761POPC   C2B72860  15.724  43.032   6.764
 5761POPC   C3B72861  15.715  43.036   7.064
 5761POPC   C4B72862  15.678  43.030   7.364
 5762POPC   NC372863  22.141   4.340   5.564
 5762POPC   PO472864  22.122   4.357   5.864
 5762POPC   GL172865  22.160   4.365   6.164
 5762POPC   GL272866  22.087   4.271   6.164
 5762POPC   C1A72867  22.135   4.310   6.464
 5762POPC   D2A72868  22.143   4.337   6.764
 5762POPC   C3A72869  22.197   4.352   7.064
 5762POPC   C4A72870  22.186   4.281   7.364
 5762POPC   C1B72871  21.981   4.173   6.464
 5762POPC   C2B72872  21.960   4.219   6.764
 5762POPC   C3B72873  21.949   4.181   7.064
 5762POPC   C4B72874  21.994   4.147   7.364
 5763POPC   NC372875  40.012  31.498   5.564
 5763POPC   PO472876  40.007  31.520   5.864
 5763POPC   GL172877  39.992  31.436   6.164
 5763POPC   GL272878  39.859  31.409   6.164
 5763POPC   C1A72879  40.038  31.424   6.464
 5763POPC   D2A72880  39.965  31.480   6.764
 5763POPC   C3A72881  40.017  31.477   7.064
 5763POPC   C4A72882  40.002  31.441   7.364
 5763POPC   C1B72883  39.787  31.356   6.464
 5763POPC   C2B72884  39.821  31.371   6.764
 5763POPC   C3B72885  39.827  31.420   7.064
 5763POPC   C4B72886  39.823  31.400   7.364
 5764POPC   NC372887  17.552   7.416   5.564
 5764POPC   PO472888  17.553   7.424   5.864
 5764POPC   GL172889  17.542   7.465   6.164
 5764POPC   GL272890  17.380   7.364   6.164
 5764POPC   C1A72891  17.518   7.454   6.464
 5764POPC   D2A72892  17.552   7.407   6.764
 5764POPC   C3A72893  17.529   7.404   7.064
 5764POPC   C4A72894  17.551   7.405   7.364
 5764POPC   C1B72895  17.340   7.307   6.464
 5764POPC   C2B72896  17.256   7.299   6.764
 5764POPC   C3B72897  17.350   7.297   7.064
 5764POPC   C4B72898  17.309   7.301   7.364
 5765POPC   NC372899  24.519  41.551   5.564
 5765POPC   PO472900  24.469  41.550   5.864
 5765POPC   GL172901  24.498  41.609   6.164
 5765POPC   GL272902  24.611  41.671   6.164
 5765POPC   C1A72903  24.515  41.557   6.464
 5765POPC   D2A72904  24.493  41.578   6.764
 5765POPC   C3A72905  24.470  41.532   7.064
 5765POPC   C4A72906  24.477  41.541   7.364
 5765POPC   C1B72907  24.715  41.708   6.464
 5765POPC   C2B72908  24.671  41.695   6.764
 5765POPC   C3B72909  24.661  41.720   7.064
 5765POPC   C4B72910  24.716  41.729   7.364
 5766POPC   NC372911  40.052  19.826   5.564
 5766POPC   PO472912  40.003  19.843   5.864
 5766POPC   GL172913  39.963  19.868   6.164
 5766POPC   GL272914  39.920  19.944   6.164
 5766POPC   C1A72915  40.049  19.857   6.464
 5766POPC   D2A72916  39.964  19.803   6.764
 5766POPC   C3A72917  40.046  19.871   7.064
 5766POPC   C4A72918  40.021  19.787   7.364
 5766POPC   C1B72919  39.837  20.045   6.464
 5766POPC   C2B72920  39.805  20.049   6.764
 5766POPC   C3B72921  39.783  20.052   7.064
 5766POPC   C4B72922  39.783  20.045   7.364
 5767POPC   NC372923   8.966  27.605   5.564
 5767POPC   PO472924   9.004  27.598   5.864
 5767POPC   GL172925   8.971  27.554   6.164
 5767POPC   GL272926   9.055  27.514   6.164
 5767POPC   C1A72927   8.982  27.578   6.464
 5767POPC   D2A72928   8.970  27.545   6.764
 5767POPC   C3A72929   8.944  27.618   7.064
 5767POPC   C4A72930   8.962  27.551   7.364
 5767POPC   C1B72931   9.145  27.363   6.464
 5767POPC   C2B72932   9.089  27.386   6.764
 5767POPC   C3B72933   9.095  27.366   7.064
 5767POPC   C4B72934   9.097  27.407   7.364
 5768POPC   NC372935  36.078  36.858   5.564
 5768POPC   PO472936  36.092  36.949   5.864
 5768POPC   GL172937  36.168  36.874   6.164
 5768POPC   GL272938  36.173  37.011   6.164
 5768POPC   C1A72939  36.081  36.937   6.464
 5768POPC   D2A72940  36.164  36.921   6.764
 5768POPC   C3A72941  36.153  36.921   7.064
 5768POPC   C4A72942  36.093  36.891   7.364
 5768POPC   C1B72943  36.294  37.105   6.464
 5768POPC   C2B72944  36.281  37.042   6.764
 5768POPC   C3B72945  36.354  37.101   7.064
 5768POPC   C4B72946  36.354  37.086   7.364
 5769POPC   NC372947  37.688   6.684   5.564
 5769POPC   PO472948  37.634   6.689   5.864
 5769POPC   GL172949  37.711   6.612   6.164
 5769POPC   GL272950  37.690   6.514   6.164
 5769POPC   C1A72951  37.674   6.662   6.464
 5769POPC   D2A72952  37.661   6.597   6.764
 5769POPC   C3A72953  37.629   6.690   7.064
 5769POPC   C4A72954  37.713   6.679   7.364
 5769POPC   C1B72955  37.680   6.373   6.464
 5769POPC   C2B72956  37.654   6.370   6.764
 5769POPC   C3B72957  37.734   6.429   7.064
 5769POPC   C4B72958  37.685   6.385   7.364
 5770POPC   NC372959   9.701  15.983   5.564
 5770POPC   PO472960   9.789  15.959   5.864
 5770POPC   GL172961   9.708  15.967   6.164
 5770POPC   GL272962   9.623  15.939   6.164
 5770POPC   C1A72963   9.752  15.917   6.464
 5770POPC   D2A72964   9.721  15.971   6.764
 5770POPC   C3A72965   9.749  15.984   7.064
 5770POPC   C4A72966   9.725  15.934   7.364
 5770POPC   C1B72967   9.471  15.890   6.464
 5770POPC   C2B72968   9.514  15.895   6.764
 5770POPC   C3B72969   9.489  15.846   7.064
 5770POPC   C4B72970   9.524  15.918   7.364
 5771POPC   NC372971  43.859  15.166   5.564
 5771POPC   PO472972  43.924  15.156   5.864
 5771POPC   GL172973  43.916  15.130   6.164
 5771POPC   GL272974  43.784  15.246   6.164
 5771POPC   C1A72975  43.921  15.183   6.464
 5771POPC   D2A72976  43.842  15.180   6.764
 5771POPC   C3A72977  43.920  15.165   7.064
 5771POPC   C4A72978  43.905  15.169   7.364
 5771POPC   C1B72979  43.598  15.260   6.464
 5771POPC   C2B72980  43.602  15.225   6.764
 5771POPC   C3B72981  43.645  15.166   7.064
 5771POPC   C4B72982  43.603  15.194   7.364
 5772POPC   NC372983  41.559  16.757   5.564
 5772POPC   PO472984  41.578  16.737   5.864
 5772POPC   GL172985  41.524  16.700   6.164
 5772POPC   GL272986  41.429  16.728   6.164
 5772POPC   C1A72987  41.576  16.714   6.464
 5772POPC   D2A72988  41.583  16.770   6.764
 5772POPC   C3A72989  41.558  16.736   7.064
 5772POPC   C4A72990  41.566  16.713   7.364
 5772POPC   C1B72991  41.334  16.739   6.464
 5772POPC   C2B72992  41.324  16.765   6.764
 5772POPC   C3B72993  41.318  16.777   7.064
 5772POPC   C4B72994  41.268  16.687   7.364
 5773POPC   NC372995  11.348  14.417   5.564
 5773POPC   PO472996  11.274  14.441   5.864
 5773POPC   GL172997  11.257  14.403   6.164
 5773POPC   GL272998  11.199  14.436   6.164
 5773POPC   C1A72999  11.255  14.427   6.464
 5773POPC   D2A73000  11.286  14.374   6.764
 5773POPC   C3A73001  11.268  14.409   7.064
 5773POPC   C4A73002  11.297  14.391   7.364
 5773POPC   C1B73003  11.089  14.501   6.464
 5773POPC   C2B73004  11.108  14.508   6.764
 5773POPC   C3B73005  11.128  14.530   7.064
 5773POPC   C4B73006  11.077  14.576   7.364
 5774POPC   NC373007  41.525  21.395   5.564
 5774POPC   PO473008  41.549  21.345   5.864
 5774POPC   GL173009  41.530  21.339   6.164
 5774POPC   GL273010  41.600  21.499   6.164
 5774POPC   C1A73011  41.557  21.372   6.464
 5774POPC   D2A73012  41.558  21.368   6.764
 5774POPC   C3A73013  41.591  21.430   7.064
 5774POPC   C4A73014  41.550  21.376   7.364
 5774POPC   C1B73015  41.559  21.633   6.464
 5774POPC   C2B73016  41.588  21.632   6.764
 5774POPC   C3B73017  41.567  21.663   7.064
 5774POPC   C4B73018  41.522  21.591   7.364
 5775POPC   NC373019  21.408  24.476   5.564
 5775POPC   PO473020  21.369  24.508   5.864
 5775POPC   GL173021  21.341  24.453   6.164
 5775POPC   GL273022  21.536  24.511   6.164
 5775POPC   C1A73023  21.398  24.455   6.464
 5775POPC   D2A73024  21.411  24.473   6.764
 5775POPC   C3A73025  21.419  24.519   7.064
 5775POPC   C4A73026  21.383  24.482   7.364
 5775POPC   C1B73027  21.641  24.556   6.464
 5775POPC   C2B73028  21.676  24.568   6.764
 5775POPC   C3B73029  21.660  24.551   7.064
 5775POPC   C4B73030  21.658  24.515   7.364
 5776POPC   NC373031  33.839  12.034   5.564
 5776POPC   PO473032  33.779  12.048   5.864
 5776POPC   GL173033  33.826  12.026   6.164
 5776POPC   GL273034  33.746  12.178   6.164
 5776POPC   C1A73035  33.763  12.093   6.464
 5776POPC   D2A73036  33.789  12.107   6.764
 5776POPC   C3A73037  33.833  12.105   7.064
 5776POPC   C4A73038  33.805  12.047   7.364
 5776POPC   C1B73039  33.635  12.243   6.464
 5776POPC   C2B73040  33.633  12.238   6.764
 5776POPC   C3B73041  33.693  12.326   7.064
 5776POPC   C4B73042  33.692  12.279   7.364
 5777POPC   NC373043   5.841  32.226   5.564
 5777POPC   PO473044   5.837  32.234   5.864
 5777POPC   GL173045   5.822  32.214   6.164
 5777POPC   GL273046   5.914  32.093   6.164
 5777POPC   C1A73047   5.890  32.242   6.464
 5777POPC   D2A73048   5.857  32.262   6.764
 5777POPC   C3A73049   5.877  32.265   7.064
 5777POPC   C4A73050   5.885  32.297   7.364
 5777POPC   C1B73051   6.012  31.980   6.464
 5777POPC   C2B73052   6.004  32.057   6.764
 5777POPC   C3B73053   5.966  32.012   7.064
 5777POPC   C4B73054   5.994  32.039   7.364
 5778POPC   NC373055   1.165  13.581   5.564
 5778POPC   PO473056   1.179  13.620   5.864
 5778POPC   GL173057   1.184  13.610   6.164
 5778POPC   GL273058   1.137  13.558   6.164
 5778POPC   C1A73059   1.204  13.673   6.464
 5778POPC   D2A73060   1.171  13.613   6.764
 5778POPC   C3A73061   1.244  13.613   7.064
 5778POPC   C4A73062   1.190  13.620   7.364
 5778POPC   C1B73063   1.094  13.430   6.464
 5778POPC   C2B73064   1.022  13.488   6.764
 5778POPC   C3B73065   1.028  13.416   7.064
 5778POPC   C4B73066   1.024  13.428   7.364
 5779POPC   NC373067  10.569  22.985   5.564
 5779POPC   PO473068  10.566  22.947   5.864
 5779POPC   GL173069  10.564  22.920   6.164
 5779POPC   GL273070  10.461  22.794   6.164
 5779POPC   C1A73071  10.484  22.917   6.464
 5779POPC   D2A73072  10.554  22.984   6.764
 5779POPC   C3A73073  10.536  22.889   7.064
 5779POPC   C4A73074  10.565  22.917   7.364
 5779POPC   C1B73075  10.447  22.681   6.464
 5779POPC   C2B73076  10.421  22.729   6.764
 5779POPC   C3B73077  10.432  22.717   7.064
 5779POPC   C4B73078  10.409  22.753   7.364
 5780POPC   NC373079  42.322  29.928   5.564
 5780POPC   PO473080  42.366  29.920   5.864
 5780POPC   GL173081  42.332  29.888   6.164
 5780POPC   GL273082  42.215  29.880   6.164
 5780POPC   C1A73083  42.308  29.883   6.464
 5780POPC   D2A73084  42.309  29.934   6.764
 5780POPC   C3A73085  42.350  29.922   7.064
 5780POPC   C4A73086  42.340  29.871   7.364
 5780POPC   C1B73087  42.184  29.712   6.464
 5780POPC   C2B73088  42.155  29.771   6.764
 5780POPC   C3B73089  42.124  29.738   7.064
 5780POPC   C4B73090  42.178  29.746   7.364
 5781POPC   NC373091  10.480  32.225   5.564
 5781POPC   PO473092  10.493  32.250   5.864
 5781POPC   GL173093  10.505  32.241   6.164
 5781POPC   GL273094  10.647  32.256   6.164
 5781POPC   C1A73095  10.522  32.284   6.464
 5781POPC   D2A73096  10.478  32.244   6.764
 5781POPC   C3A73097  10.562  32.214   7.064
 5781POPC   C4A73098  10.476  32.270   7.364
 5781POPC   C1B73099  10.815  32.197   6.464
 5781POPC   C2B73100  10.813  32.211   6.764
 5781POPC   C3B73101  10.782  32.187   7.064
 5781POPC   C4B73102  10.761  32.195   7.364
 5782POPC   NC373103  12.863  15.221   5.564
 5782POPC   PO473104  12.882  15.183   5.864
 5782POPC   GL173105  12.821  15.184   6.164
 5782POPC   GL273106  12.959  15.158   6.164
 5782POPC   C1A73107  12.889  15.181   6.464
 5782POPC   D2A73108  12.857  15.212   6.764
 5782POPC   C3A73109  12.852  15.160   7.064
 5782POPC   C4A73110  12.887  15.182   7.364
 5782POPC   C1B73111  13.085  15.088   6.464
 5782POPC   C2B73112  13.064  15.067   6.764
 5782POPC   C3B73113  13.038  15.090   7.064
 5782POPC   C4B73114  13.089  15.069   7.364
 5783POPC   NC373115  40.750  11.293   5.564
 5783POPC   PO473116  40.799  11.282   5.864
 5783POPC   GL173117  40.815  11.339   6.164
 5783POPC   GL273118  40.932  11.269   6.164
 5783POPC   C1A73119  40.742  11.336   6.464
 5783POPC   D2A73120  40.824  11.325   6.764
 5783POPC   C3A73121  40.771  11.338   7.064
 5783POPC   C4A73122  40.753  11.308   7.364
 5783POPC   C1B73123  40.989  11.203   6.464
 5783POPC   C2B73124  40.962  11.175   6.764
 5783POPC   C3B73125  40.965  11.158   7.064
 5783POPC   C4B73126  41.003  11.154   7.364
 5784POPC   NC373127  42.359  26.792   5.564
 5784POPC   PO473128  42.357  26.833   5.864
 5784POPC   GL173129  42.383  26.840   6.164
 5784POPC   GL273130  42.413  26.725   6.164
 5784POPC   C1A73131  42.348  26.778   6.464
 5784POPC   D2A73132  42.295  26.842   6.764
 5784POPC   C3A73133  42.354  26.847   7.064
 5784POPC   C4A73134  42.309  26.803   7.364
 5784POPC   C1B73135  42.524  26.615   6.464
 5784POPC   C2B73136  42.529  26.676   6.764
 5784POPC   C3B73137  42.498  26.643   7.064
 5784POPC   C4B73138  42.543  26.616   7.364
 5785POPC   NC373139  16.773   8.149   5.564
 5785POPC   PO473140  16.750   8.158   5.864
 5785POPC   GL173141  16.720   8.155   6.164
 5785POPC   GL273142  16.841   8.238   6.164
 5785POPC   C1A73143  16.778   8.244   6.464
 5785POPC   D2A73144  16.699   8.207   6.764
 5785POPC   C3A73145  16.692   8.206   7.064
 5785POPC   C4A73146  16.729   8.156   7.364
 5785POPC   C1B73147  16.943   8.266   6.464
 5785POPC   C2B73148  16.952   8.214   6.764
 5785POPC   C3B73149  16.930   8.285   7.064
 5785POPC   C4B73150  16.958   8.302   7.364
 5786POPC   NC373151  36.859  20.610   5.564
 5786POPC   PO473152  36.919  20.561   5.864
 5786POPC   GL173153  36.871  20.630   6.164
 5786POPC   GL273154  36.871  20.510   6.164
 5786POPC   C1A73155  36.855  20.585   6.464
 5786POPC   D2A73156  36.878  20.660   6.764
 5786POPC   C3A73157  36.855  20.591   7.064
 5786POPC   C4A73158  36.951  20.596   7.364
 5786POPC   C1B73159  36.920  20.346   6.464
 5786POPC   C2B73160  36.925  20.344   6.764
 5786POPC   C3B73161  36.949  20.380   7.064
 5786POPC   C4B73162  36.917  20.368   7.364
 5787POPC   NC373163   5.110   0.465   5.564
 5787POPC   PO473164   5.070   0.404   5.864
 5787POPC   GL173165   5.104   0.395   6.164
 5787POPC   GL273166   5.174   0.326   6.164
 5787POPC   C1A73167   5.090   0.481   6.464
 5787POPC   D2A73168   5.120   0.440   6.764
 5787POPC   C3A73169   5.104   0.405   7.064
 5787POPC   C4A73170   5.081   0.463   7.364
 5787POPC   C1B73171   5.276   0.273   6.464
 5787POPC   C2B73172   5.254   0.333   6.764
 5787POPC   C3B73173   5.283   0.344   7.064
 5787POPC   C4B73174   5.322   0.336   7.364
 5788POPC   NC373175  24.456   1.982   5.564
 5788POPC   PO473176  24.454   1.958   5.864
 5788POPC   GL173177  24.538   2.038   6.164
 5788POPC   GL273178  24.615   1.891   6.164
 5788POPC   C1A73179  24.468   1.943   6.464
 5788POPC   D2A73180  24.441   1.976   6.764
 5788POPC   C3A73181  24.455   2.005   7.064
 5788POPC   C4A73182  24.441   1.953   7.364
 5788POPC   C1B73183  24.597   1.771   6.464
 5788POPC   C2B73184  24.613   1.820   6.764
 5788POPC   C3B73185  24.662   1.841   7.064
 5788POPC   C4B73186  24.666   1.770   7.364
 5789POPC   NC373187   5.098  20.566   5.564
 5789POPC   PO473188   5.088  20.638   5.864
 5789POPC   GL173189   5.070  20.567   6.164
 5789POPC   GL273190   5.060  20.534   6.164
 5789POPC   C1A73191   5.044  20.654   6.464
 5789POPC   D2A73192   5.050  20.589   6.764
 5789POPC   C3A73193   5.102  20.615   7.064
 5789POPC   C4A73194   5.111  20.617   7.364
 5789POPC   C1B73195   5.065  20.405   6.464
 5789POPC   C2B73196   5.035  20.417   6.764
 5789POPC   C3B73197   4.994  20.381   7.064
 5789POPC   C4B73198   5.064  20.347   7.364
 5790POPC   NC373199  12.867  43.135   5.564
 5790POPC   PO473200  12.833  43.106   5.864
 5790POPC   GL173201  12.854  43.122   6.164
 5790POPC   GL273202  12.979  43.126   6.164
 5790POPC   C1A73203  12.899  43.073   6.464
 5790POPC   D2A73204  12.847  43.128   6.764
 5790POPC   C3A73205  12.856  43.101   7.064
 5790POPC   C4A73206  12.815  43.146   7.364
 5790POPC   C1B73207  13.081  43.093   6.464
 5790POPC   C2B73208  13.141  43.060   6.764
 5790POPC   C3B73209  13.098  43.096   7.064
 5790POPC   C4B73210  13.052  43.068   7.364
 5791POPC   NC373211  37.677  40.803   5.564
 5791POPC   PO473212  37.723  40.770   5.864
 5791POPC   GL173213  37.634  40.741   6.164
 5791POPC   GL273214  37.784  40.749   6.164
 5791POPC   C1A73215  37.661  40.805   6.464
 5791POPC   D2A73216  37.636  40.771   6.764
 5791POPC   C3A73217  37.716  40.757   7.064
 5791POPC   C4A73218  37.649  40.815   7.364
 5791POPC   C1B73219  37.941  40.744   6.464
 5791POPC   C2B73220  37.974  40.686   6.764
 5791POPC   C3B73221  37.963  40.765   7.064
 5791POPC   C4B73222  37.972  40.739   7.364
 5792POPC   NC373223  35.311  12.818   5.564
 5792POPC   PO473224  35.359  12.886   5.864
 5792POPC   GL173225  35.333  12.863   6.164
 5792POPC   GL273226  35.514  12.875   6.164
 5792POPC   C1A73227  35.343  12.855   6.464
 5792POPC   D2A73228  35.379  12.879   6.764
 5792POPC   C3A73229  35.347  12.817   7.064
 5792POPC   C4A73230  35.328  12.893   7.364
 5792POPC   C1B73231  35.581  12.849   6.464
 5792POPC   C2B73232  35.561  12.866   6.764
 5792POPC   C3B73233  35.633  12.859   7.064
 5792POPC   C4B73234  35.589  12.900   7.364
 5793POPC   NC373235  15.178  29.944   5.564
 5793POPC   PO473236  15.202  29.899   5.864
 5793POPC   GL173237  15.132  29.922   6.164
 5793POPC   GL273238  15.062  29.860   6.164
 5793POPC   C1A73239  15.135  29.877   6.464
 5793POPC   D2A73240  15.136  29.927   6.764
 5793POPC   C3A73241  15.167  29.939   7.064
 5793POPC   C4A73242  15.208  29.938   7.364
 5793POPC   C1B73243  14.957  29.769   6.464
 5793POPC   C2B73244  15.010  29.745   6.764
 5793POPC   C3B73245  15.008  29.810   7.064
 5793POPC   C4B73246  14.924  29.752   7.364
 5794POPC   NC373247  12.071   0.444   5.564
 5794POPC   PO473248  12.091   0.430   5.864
 5794POPC   GL173249  12.070   0.477   6.164
 5794POPC   GL273250  12.149   0.547   6.164
 5794POPC   C1A73251  12.074   0.412   6.464
 5794POPC   D2A73252  12.085   0.427   6.764
 5794POPC   C3A73253  12.110   0.460   7.064
 5794POPC   C4A73254  12.069   0.457   7.364
 5794POPC   C1B73255  12.327   0.542   6.464
 5794POPC   C2B73256  12.257   0.550   6.764
 5794POPC   C3B73257  12.261   0.593   7.064
 5794POPC   C4B73258  12.280   0.580   7.364
 5795POPC   NC373259   3.573  36.154   5.564
 5795POPC   PO473260   3.528  36.133   5.864
 5795POPC   GL173261   3.553  36.114   6.164
 5795POPC   GL273262   3.468  36.224   6.164
 5795POPC   C1A73263   3.498  36.154   6.464
 5795POPC   D2A73264   3.558  36.134   6.764
 5795POPC   C3A73265   3.548  36.164   7.064
 5795POPC   C4A73266   3.518  36.079   7.364
 5795POPC   C1B73267   3.375  36.210   6.464
 5795POPC   C2B73268   3.318  36.307   6.764
 5795POPC   C3B73269   3.307  36.215   7.064
 5795POPC   C4B73270   3.330  36.273   7.364
 5796POPC   NC373271   8.976   8.169   5.564
 5796POPC   PO473272   8.941   8.198   5.864
 5796POPC   GL173273   8.955   8.222   6.164
 5796POPC   GL273274   9.005   8.357   6.164
 5796POPC   C1A73275   8.983   8.194   6.464
 5796POPC   D2A73276   8.998   8.215   6.764
 5796POPC   C3A73277   9.020   8.160   7.064
 5796POPC   C4A73278   8.994   8.223   7.364
 5796POPC   C1B73279   9.088   8.444   6.464
 5796POPC   C2B73280   9.000   8.389   6.764
 5796POPC   C3B73281   9.081   8.427   7.064
 5796POPC   C4B73282   9.011   8.458   7.364
 5797POPC   NC373283  34.543  10.573   5.564
 5797POPC   PO473284  34.538  10.525   5.864
 5797POPC   GL173285  34.605  10.558   6.164
 5797POPC   GL273286  34.706  10.478   6.164
 5797POPC   C1A73287  34.622  10.499   6.464
 5797POPC   D2A73288  34.533  10.505   6.764
 5797POPC   C3A73289  34.573  10.566   7.064
 5797POPC   C4A73290  34.575  10.554   7.364
 5797POPC   C1B73291  34.768  10.362   6.464
 5797POPC   C2B73292  34.810  10.394   6.764
 5797POPC   C3B73293  34.758  10.455   7.064
 5797POPC   C4B73294  34.828  10.452   7.364
 5798POPC   NC373295  19.820  22.168   5.564
 5798POPC   PO473296  19.820  22.210   5.864
 5798POPC   GL173297  19.793  22.205   6.164
 5798POPC   GL273298  19.763  22.282   6.164
 5798POPC   C1A73299  19.844  22.132   6.464
 5798POPC   D2A73300  19.797  22.134   6.764
 5798POPC   C3A73301  19.852  22.144   7.064
 5798POPC   C4A73302  19.814  22.115   7.364
 5798POPC   C1B73303  19.702  22.341   6.464
 5798POPC   C2B73304  19.724  22.394   6.764
 5798POPC   C3B73305  19.737  22.375   7.064
 5798POPC   C4B73306  19.754  22.372   7.364
 5799POPC   NC373307  31.477  23.692   5.564
 5799POPC   PO473308  31.486  23.756   5.864
 5799POPC   GL173309  31.496  23.732   6.164
 5799POPC   GL273310  31.547  23.551   6.164
 5799POPC   C1A73311  31.457  23.673   6.464
 5799POPC   D2A73312  31.466  23.713   6.764
 5799POPC   C3A73313  31.488  23.725   7.064
 5799POPC   C4A73314  31.436  23.728   7.364
 5799POPC   C1B73315  31.492  23.481   6.464
 5799POPC   C2B73316  31.565  23.462   6.764
 5799POPC   C3B73317  31.526  23.433   7.064
 5799POPC   C4B73318  31.559  23.509   7.364
 5800POPC   NC373319   6.693  35.400   5.564
 5800POPC   PO473320   6.656  35.367   5.864
 5800POPC   GL173321   6.686  35.361   6.164
 5800POPC   GL273322   6.567  35.228   6.164
 5800POPC   C1A73323   6.595  35.327   6.464
 5800POPC   D2A73324   6.633  35.381   6.764
 5800POPC   C3A73325   6.615  35.336   7.064
 5800POPC   C4A73326   6.694  35.342   7.364
 5800POPC   C1B73327   6.440  35.198   6.464
 5800POPC   C2B73328   6.489  35.207   6.764
 5800POPC   C3B73329   6.505  35.152   7.064
 5800POPC   C4B73330   6.447  35.181   7.364
 5801POPC   NC373331  43.861  28.322   5.564
 5801POPC   PO473332  43.898  28.325   5.864
 5801POPC   GL173333  43.862  28.396   6.164
 5801POPC   GL273334  43.996  28.325   6.164
 5801POPC   C1A73335  43.846  28.355   6.464
 5801POPC   D2A73336  43.919  28.377   6.764
 5801POPC   C3A73337  43.903  28.392   7.064
 5801POPC   C4A73338  43.891  28.412   7.364
 5801POPC   C1B73339  44.132  28.276   6.464
 5801POPC   C2B73340  44.098  28.223   6.764
 5801POPC   C3B73341  44.131  28.202   7.064
 5801POPC   C4B73342  44.057  28.272   7.364
 5802POPC   NC373343   8.220   8.972   5.564
 5802POPC   PO473344   8.187   8.946   5.864
 5802POPC   GL173345   8.180   9.020   6.164
 5802POPC   GL273346   8.122   9.008   6.164
 5802POPC   C1A73347   8.209   8.939   6.464
 5802POPC   D2A73348   8.160   8.976   6.764
 5802POPC   C3A73349   8.163   8.977   7.064
 5802POPC   C4A73350   8.221   8.931   7.364
 5802POPC   C1B73351   8.016   9.113   6.464
 5802POPC   C2B73352   7.957   9.081   6.764
 5802POPC   C3B73353   8.026   9.122   7.064
 5802POPC   C4B73354   8.010   9.126   7.364
 5803POPC   NC373355  28.375  37.665   5.564
 5803POPC   PO473356  28.352  37.716   5.864
 5803POPC   GL173357  28.338  37.702   6.164
 5803POPC   GL273358  28.304  37.708   6.164
 5803POPC   C1A73359  28.400  37.712   6.464
 5803POPC   D2A73360  28.392  37.633   6.764
 5803POPC   C3A73361  28.374  37.721   7.064
 5803POPC   C4A73362  28.325  37.648   7.364
 5803POPC   C1B73363  28.185  37.793   6.464
 5803POPC   C2B73364  28.148  37.807   6.764
 5803POPC   C3B73365  28.120  37.819   7.064
 5803POPC   C4B73366  28.208  37.786   7.364
 5804POPC   NC373367  17.496  17.553   5.564
 5804POPC   PO473368  17.462  17.501   5.864
 5804POPC   GL173369  17.460  17.508   6.164
 5804POPC   GL273370  17.620  17.582   6.164
 5804POPC   C1A73371  17.508  17.555   6.464
 5804POPC   D2A73372  17.463  17.547   6.764
 5804POPC   C3A73373  17.546  17.501   7.064
 5804POPC   C4A73374  17.490  17.470   7.364
 5804POPC   C1B73375  17.718  17.670   6.464
 5804POPC   C2B73376  17.669  17.663   6.764
 5804POPC   C3B73377  17.699  17.640   7.064
 5804POPC   C4B73378  17.761  17.605   7.364
 5805POPC   NC373379  35.361  22.941   5.564
 5805POPC   PO473380  35.368  22.988   5.864
 5805POPC   GL173381  35.340  22.925   6.164
 5805POPC   GL273382  35.240  22.933   6.164
 5805POPC   C1A73383  35.360  22.970   6.464
 5805POPC   D2A73384  35.359  22.979   6.764
 5805POPC   C3A73385  35.385  22.932   7.064
 5805POPC   C4A73386  35.400  22.981   7.364
 5805POPC   C1B73387  35.108  22.865   6.464
 5805POPC   C2B73388  35.131  22.905   6.764
 5805POPC   C3B73389  35.099  22.917   7.064
 5805POPC   C4B73390  35.104  22.825   7.364
 5806POPC   NC373391  32.281  26.071   5.564
 5806POPC   PO473392  32.219  26.023   5.864
 5806POPC   GL173393  32.208  26.083   6.164
 5806POPC   GL273394  32.191  25.968   6.164
 5806POPC   C1A73395  32.298  26.070   6.464
 5806POPC   D2A73396  32.264  26.046   6.764
 5806POPC   C3A73397  32.271  26.050   7.064
 5806POPC   C4A73398  32.296  26.001   7.364
 5806POPC   C1B73399  32.090  25.923   6.464
 5806POPC   C2B73400  32.058  25.870   6.764
 5806POPC   C3B73401  32.048  25.934   7.064
 5806POPC   C4B73402  32.095  25.856   7.364
 5807POPC   NC373403  21.355  40.787   5.564
 5807POPC   PO473404  21.423  40.790   5.864
 5807POPC   GL173405  21.342  40.832   6.164
 5807POPC   GL273406  21.438  40.939   6.164
 5807POPC   C1A73407  21.379  40.821   6.464
 5807POPC   D2A73408  21.433  40.747   6.764
 5807POPC   C3A73409  21.432  40.749   7.064
 5807POPC   C4A73410  21.431  40.790   7.364
 5807POPC   C1B73411  21.443  41.003   6.464
 5807POPC   C2B73412  21.441  40.977   6.764
 5807POPC   C3B73413  21.441  41.016   7.064
 5807POPC   C4B73414  21.472  41.053   7.364
 5808POPC   NC373415  40.051  13.660   5.564
 5808POPC   PO473416  40.004  13.661   5.864
 5808POPC   GL173417  40.024  13.647   6.164
 5808POPC   GL273418  40.107  13.758   6.164
 5808POPC   C1A73419  40.026  13.634   6.464
 5808POPC   D2A73420  40.052  13.583   6.764
 5808POPC   C3A73421  40.012  13.586   7.064
 5808POPC   C4A73422  40.039  13.677   7.364
 5808POPC   C1B73423  40.153  13.790   6.464
 5808POPC   C2B73424  40.158  13.806   6.764
 5808POPC   C3B73425  40.202  13.777   7.064
 5808POPC   C4B73426  40.212  13.835   7.364
 5809POPC   NC373427  37.645  34.556   5.564
 5809POPC   PO473428  37.676  34.581   5.864
 5809POPC   GL173429  37.670  34.555   6.164
 5809POPC   GL273430  37.541  34.521   6.164
 5809POPC   C1A73431  37.635  34.557   6.464
 5809POPC   D2A73432  37.632  34.583   6.764
 5809POPC   C3A73433  37.634  34.626   7.064
 5809POPC   C4A73434  37.725  34.532   7.364
 5809POPC   C1B73435  37.500  34.430   6.464
 5809POPC   C2B73436  37.514  34.474   6.764
 5809POPC   C3B73437  37.445  34.401   7.064
 5809POPC   C4B73438  37.497  34.427   7.364
 5810POPC   NC373439  44.686  19.091   5.564
 5810POPC   PO473440  44.613  19.060   5.864
 5810POPC   GL173441  44.706  19.078   6.164
 5810POPC   GL273442  44.760  19.044   6.164
 5810POPC   C1A73443  44.617  19.084   6.464
 5810POPC   D2A73444  44.704  19.102   6.764
 5810POPC   C3A73445  44.639  19.106   7.064
 5810POPC   C4A73446  44.677  19.102   7.364
 5810POPC   C1B73447  44.871  18.906   6.464
 5810POPC   C2B73448  44.901  18.923   6.764
 5810POPC   C3B73449  44.881  18.944   7.064
 5810POPC   C4B73450  44.903  18.956   7.364
 5811POPC   NC373451   6.647   9.018   5.564
 5811POPC   PO473452   6.626   8.987   5.864
 5811POPC   GL173453   6.671   8.952   6.164
 5811POPC   GL273454   6.560   9.054   6.164
 5811POPC   C1A73455   6.679   8.926   6.464
 5811POPC   D2A73456   6.691   9.016   6.764
 5811POPC   C3A73457   6.677   9.018   7.064
 5811POPC   C4A73458   6.646   9.010   7.364
 5811POPC   C1B73459   6.474   9.224   6.464
 5811POPC   C2B73460   6.554   9.216   6.764
 5811POPC   C3B73461   6.548   9.139   7.064
 5811POPC   C4B73462   6.547   9.144   7.364
 5812POPC   NC373463  39.256  23.713   5.564
 5812POPC   PO473464  39.193  23.746   5.864
 5812POPC   GL173465  39.239  23.733   6.164
 5812POPC   GL273466  39.158  23.824   6.164
 5812POPC   C1A73467  39.185  23.753   6.464
 5812POPC   D2A73468  39.262  23.760   6.764
 5812POPC   C3A73469  39.253  23.729   7.064
 5812POPC   C4A73470  39.185  23.707   7.364
 5812POPC   C1B73471  39.133  23.891   6.464
 5812POPC   C2B73472  39.082  23.947   6.764
 5812POPC   C3B73473  39.097  23.929   7.064
 5812POPC   C4B73474  39.119  23.929   7.364
 5813POPC   NC373475  40.022  29.880   5.564
 5813POPC   PO473476  40.009  29.964   5.864
 5813POPC   GL173477  40.010  29.893   6.164
 5813POPC   GL273478  40.085  29.869   6.164
 5813POPC   C1A73479  40.013  29.882   6.464
 5813POPC   D2A73480  39.994  29.880   6.764
 5813POPC   C3A73481  39.961  29.964   7.064
 5813POPC   C4A73482  40.015  29.931   7.364
 5813POPC   C1B73483  40.255  29.815   6.464
 5813POPC   C2B73484  40.246  29.791   6.764
 5813POPC   C3B73485  40.228  29.797   7.064
 5813POPC   C4B73486  40.238  29.773   7.364
 5814POPC   NC373487  18.282  33.015   5.564
 5814POPC   PO473488  18.319  33.048   5.864
 5814POPC   GL173489  18.297  33.047   6.164
 5814POPC   GL273490  18.329  32.918   6.164
 5814POPC   C1A73491  18.318  33.017   6.464
 5814POPC   D2A73492  18.256  33.038   6.764
 5814POPC   C3A73493  18.243  32.987   7.064
 5814POPC   C4A73494  18.262  32.990   7.364
 5814POPC   C1B73495  18.410  32.745   6.464
 5814POPC   C2B73496  18.370  32.761   6.764
 5814POPC   C3B73497  18.359  32.779   7.064
 5814POPC   C4B73498  18.339  32.760   7.364
 5815POPC   NC373499  19.876  27.561   5.564
 5815POPC   PO473500  19.823  27.555   5.864
 5815POPC   GL173501  19.826  27.603   6.164
 5815POPC   GL273502  19.747  27.528   6.164
 5815POPC   C1A73503  19.823  27.639   6.464
 5815POPC   D2A73504  19.873  27.612   6.764
 5815POPC   C3A73505  19.846  27.559   7.064
 5815POPC   C4A73506  19.879  27.595   7.364
 5815POPC   C1B73507  19.581  27.482   6.464
 5815POPC   C2B73508  19.618  27.433   6.764
 5815POPC   C3B73509  19.563  27.453   7.064
 5815POPC   C4B73510  19.661  27.496   7.364
 5816POPC   NC373511   5.833   0.478   5.564
 5816POPC   PO473512   5.833   0.429   5.864
 5816POPC   GL173513   5.911   0.443   6.164
 5816POPC   GL273514   5.805   0.553   6.164
 5816POPC   C1A73515   5.848   0.421   6.464
 5816POPC   D2A73516   5.828   0.434   6.764
 5816POPC   C3A73517   5.821   0.397   7.064
 5816POPC   C4A73518   5.837   0.439   7.364
 5816POPC   C1B73519   5.754   0.658   6.464
 5816POPC   C2B73520   5.739   0.677   6.764
 5816POPC   C3B73521   5.737   0.684   7.064
 5816POPC   C4B73522   5.750   0.635   7.364
 5817POPC   NC373523  30.735   6.692   5.564
 5817POPC   PO473524  30.699   6.626   5.864
 5817POPC   GL173525  30.745   6.630   6.164
 5817POPC   GL273526  30.692   6.778   6.164
 5817POPC   C1A73527  30.745   6.693   6.464
 5817POPC   D2A73528  30.675   6.670   6.764
 5817POPC   C3A73529  30.699   6.649   7.064
 5817POPC   C4A73530  30.691   6.692   7.364
 5817POPC   C1B73531  30.722   6.933   6.464
 5817POPC   C2B73532  30.774   6.899   6.764
 5817POPC   C3B73533  30.797   6.890   7.064
 5817POPC   C4B73534  30.713   6.884   7.364
 5818POPC   NC373535  39.986  23.680   5.564
 5818POPC   PO473536  40.003  23.722   5.864
 5818POPC   GL173537  40.015  23.704   6.164
 5818POPC   GL273538  39.887  23.660   6.164
 5818POPC   C1A73539  40.046  23.757   6.464
 5818POPC   D2A73540  39.987  23.675   6.764
 5818POPC   C3A73541  40.051  23.735   7.064
 5818POPC   C4A73542  39.996  23.749   7.364
 5818POPC   C1B73543  39.807  23.630   6.464
 5818POPC   C2B73544  39.737  23.588   6.764
 5818POPC   C3B73545  39.735  23.665   7.064
 5818POPC   C4B73546  39.729  23.587   7.364
 5819POPC   NC373547  42.325  25.263   5.564
 5819POPC   PO473548  42.309  25.301   5.864
 5819POPC   GL173549  42.369  25.315   6.164
 5819POPC   GL273550  42.440  25.317   6.164
 5819POPC   C1A73551  42.330  25.256   6.464
 5819POPC   D2A73552  42.357  25.263   6.764
 5819POPC   C3A73553  42.301  25.255   7.064
 5819POPC   C4A73554  42.326  25.260   7.364
 5819POPC   C1B73555  42.513  25.362   6.464
 5819POPC   C2B73556  42.506  25.371   6.764
 5819POPC   C3B73557  42.512  25.375   7.064
 5819POPC   C4B73558  42.570  25.430   7.364
 5820POPC   NC373559  26.808  33.778   5.564
 5820POPC   PO473560  26.857  33.834   5.864
 5820POPC   GL173561  26.858  33.791   6.164
 5820POPC   GL273562  26.850  33.942   6.164
 5820POPC   C1A73563  26.777  33.762   6.464
 5820POPC   D2A73564  26.840  33.799   6.764
 5820POPC   C3A73565  26.842  33.849   7.064
 5820POPC   C4A73566  26.796  33.775   7.364
 5820POPC   C1B73567  26.935  34.046   6.464
 5820POPC   C2B73568  26.935  33.977   6.764
 5820POPC   C3B73569  26.934  34.031   7.064
 5820POPC   C4B73570  26.927  33.996   7.364
 5821POPC   NC373571   4.351  18.250   5.564
 5821POPC   PO473572   4.325  18.294   5.864
 5821POPC   GL173573   4.287  18.254   6.164
 5821POPC   GL273574   4.378  18.244   6.164
 5821POPC   C1A73575   4.280  18.284   6.464
 5821POPC   D2A73576   4.286  18.247   6.764
 5821POPC   C3A73577   4.292  18.273   7.064
 5821POPC   C4A73578   4.280  18.235   7.364
 5821POPC   C1B73579   4.520  18.125   6.464
 5821POPC   C2B73580   4.481  18.123   6.764
 5821POPC   C3B73581   4.500  18.096   7.064
 5821POPC   C4B73582   4.528  18.121   7.364
 5822POPC   NC373583  12.027  32.272   5.564
 5822POPC   PO473584  12.125  32.216   5.864
 5822POPC   GL173585  12.104  32.290   6.164
 5822POPC   GL273586  12.016  32.284   6.164
 5822POPC   C1A73587  12.111  32.249   6.464
 5822POPC   D2A73588  12.119  32.205   6.764
 5822POPC   C3A73589  12.110  32.288   7.064
 5822POPC   C4A73590  12.105  32.207   7.364
 5822POPC   C1B73591  11.873  32.426   6.464
 5822POPC   C2B73592  11.888  32.353   6.764
 5822POPC   C3B73593  11.897  32.378   7.064
 5822POPC   C4B73594  11.897  32.331   7.364
 5823POPC   NC373595  34.527   5.872   5.564
 5823POPC   PO473596  34.537   5.899   5.864
 5823POPC   GL173597  34.550   5.858   6.164
 5823POPC   GL273598  34.525   5.773   6.164
 5823POPC   C1A73599  34.534   5.898   6.464
 5823POPC   D2A73600  34.549   5.883   6.764
 5823POPC   C3A73601  34.568   5.829   7.064
 5823POPC   C4A73602  34.620   5.912   7.364
 5823POPC   C1B73603  34.558   5.637   6.464
 5823POPC   C2B73604  34.559   5.628   6.764
 5823POPC   C3B73605  34.522   5.592   7.064
 5823POPC   C4B73606  34.542   5.616   7.364
 5824POPC   NC373607  29.167  22.907   5.564
 5824POPC   PO473608  29.163  22.912   5.864
 5824POPC   GL173609  29.113  22.965   6.164
 5824POPC   GL273610  29.259  22.995   6.164
 5824POPC   C1A73611  29.104  22.892   6.464
 5824POPC   D2A73612  29.168  22.931   6.764
 5824POPC   C3A73613  29.111  22.946   7.064
 5824POPC   C4A73614  29.127  22.910   7.364
 5824POPC   C1B73615  29.381  22.912   6.464
 5824POPC   C2B73616  29.381  22.957   6.764
 5824POPC   C3B73617  29.347  22.944   7.064
 5824POPC   C4B73618  29.386  22.925   7.364
 5825POPC   NC373619  21.367  10.572   5.564
 5825POPC   PO473620  21.422  10.541   5.864
 5825POPC   GL173621  21.429  10.524   6.164
 5825POPC   GL273622  21.289  10.409   6.164
 5825POPC   C1A73623  21.348  10.523   6.464
 5825POPC   D2A73624  21.392  10.554   6.764
 5825POPC   C3A73625  21.340  10.534   7.064
 5825POPC   C4A73626  21.357  10.571   7.364
 5825POPC   C1B73627  21.225  10.366   6.464
 5825POPC   C2B73628  21.145  10.428   6.764
 5825POPC   C3B73629  21.208  10.343   7.064
 5825POPC   C4B73630  21.211  10.378   7.364
 5826POPC   NC373631  19.841   0.403   5.564
 5826POPC   PO473632  19.848   0.407   5.864
 5826POPC   GL173633  19.806   0.470   6.164
 5826POPC   GL273634  19.967   0.413   6.164
 5826POPC   C1A73635  19.804   0.412   6.464
 5826POPC   D2A73636  19.868   0.400   6.764
 5826POPC   C3A73637  19.850   0.456   7.064
 5826POPC   C4A73638  19.841   0.463   7.364
 5826POPC   C1B73639  20.093   0.464   6.464
 5826POPC   C2B73640  20.114   0.435   6.764
 5826POPC   C3B73641  20.123   0.440   7.064
 5826POPC   C4B73642  20.117   0.406   7.364
 5827POPC   NC373643  11.340  16.696   5.564
 5827POPC   PO473644  11.343  16.693   5.864
 5827POPC   GL173645  11.279  16.691   6.164
 5827POPC   GL273646  11.371  16.774   6.164
 5827POPC   C1A73647  11.314  16.733   6.464
 5827POPC   D2A73648  11.338  16.728   6.764
 5827POPC   C3A73649  11.339  16.687   7.064
 5827POPC   C4A73650  11.305  16.741   7.364
 5827POPC   C1B73651  11.500  16.800   6.464
 5827POPC   C2B73652  11.574  16.842   6.764
 5827POPC   C3B73653  11.576  16.829   7.064
 5827POPC   C4B73654  11.570  16.850   7.364
 5828POPC   NC373655  16.707  32.256   5.564
 5828POPC   PO473656  16.732  32.201   5.864
 5828POPC   GL173657  16.766  32.282   6.164
 5828POPC   GL273658  16.711  32.353   6.164
 5828POPC   C1A73659  16.750  32.213   6.464
 5828POPC   D2A73660  16.714  32.226   6.764
 5828POPC   C3A73661  16.718  32.248   7.064
 5828POPC   C4A73662  16.715  32.290   7.364
 5828POPC   C1B73663  16.689  32.483   6.464
 5828POPC   C2B73664  16.686  32.501   6.764
 5828POPC   C3B73665  16.659  32.493   7.064
 5828POPC   C4B73666  16.711  32.532   7.364
 5829POPC   NC373667  17.511  10.508   5.564
 5829POPC   PO473668  17.462  10.495   5.864
 5829POPC   GL173669  17.541  10.555   6.164
 5829POPC   GL273670  17.574  10.442   6.164
 5829POPC   C1A73671  17.532  10.520   6.464
 5829POPC   D2A73672  17.527  10.569   6.764
 5829POPC   C3A73673  17.517  10.562   7.064
 5829POPC   C4A73674  17.471  10.564   7.364
 5829POPC   C1B73675  17.606  10.306   6.464
 5829POPC   C2B73676  17.535  10.291   6.764
 5829POPC   C3B73677  17.521  10.244   7.064
 5829POPC   C4B73678  17.563  10.307   7.364
 5830POPC   NC373679  41.552  38.502   5.564
 5830POPC   PO473680  41.520  38.411   5.864
 5830POPC   GL173681  41.520  38.492   6.164
 5830POPC   GL273682  41.465  38.565   6.164
 5830POPC   C1A73683  41.602  38.418   6.464
 5830POPC   D2A73684  41.555  38.406   6.764
 5830POPC   C3A73685  41.567  38.479   7.064
 5830POPC   C4A73686  41.598  38.438   7.364
 5830POPC   C1B73687  41.386  38.621   6.464
 5830POPC   C2B73688  41.349  38.592   6.764
 5830POPC   C3B73689  41.339  38.603   7.064
 5830POPC   C4B73690  41.343  38.566   7.364
 5831POPC   NC373691   9.734   6.680   5.564
 5831POPC   PO473692   9.710   6.623   5.864
 5831POPC   GL173693   9.709   6.673   6.164
 5831POPC   GL273694   9.717   6.747   6.164
 5831POPC   C1A73695   9.752   6.610   6.464
 5831POPC   D2A73696   9.782   6.658   6.764
 5831POPC   C3A73697   9.724   6.614   7.064
 5831POPC   C4A73698   9.785   6.596   7.364
 5831POPC   C1B73699   9.703   6.885   6.464
 5831POPC   C2B73700   9.720   6.930   6.764
 5831POPC   C3B73701   9.694   6.875   7.064
 5831POPC   C4B73702   9.716   6.910   7.364
 5832POPC   NC373703  34.538  15.994   5.564
 5832POPC   PO473704  34.589  15.943   5.864
 5832POPC   GL173705  34.533  15.990   6.164
 5832POPC   GL273706  34.499  15.858   6.164
 5832POPC   C1A73707  34.544  15.951   6.464
 5832POPC   D2A73708  34.579  15.951   6.764
 5832POPC   C3A73709  34.532  15.951   7.064
 5832POPC   C4A73710  34.561  15.940   7.364
 5832POPC   C1B73711  34.395  15.853   6.464
 5832POPC   C2B73712  34.360  15.814   6.764
 5832POPC   C3B73713  34.338  15.867   7.064
 5832POPC   C4B73714  34.306  15.852   7.364
 5833POPC   NC373715   5.139  17.464   5.564
 5833POPC   PO473716   5.133  17.488   5.864
 5833POPC   GL173717   5.135  17.497   6.164
 5833POPC   GL273718   5.173  17.451   6.164
 5833POPC   C1A73719   5.059  17.521   6.464
 5833POPC   D2A73720   5.060  17.554   6.764
 5833POPC   C3A73721   5.078  17.513   7.064
 5833POPC   C4A73722   5.048  17.462   7.364
 5833POPC   C1B73723   5.279  17.321   6.464
 5833POPC   C2B73724   5.329  17.332   6.764
 5833POPC   C3B73725   5.260  17.331   7.064
 5833POPC   C4B73726   5.311  17.339   7.364
 5834POPC   NC373727  14.428   1.980   5.564
 5834POPC   PO473728  14.422   1.948   5.864
 5834POPC   GL173729  14.413   1.984   6.164
 5834POPC   GL273730  14.478   1.937   6.164
 5834POPC   C1A73731  14.360   1.943   6.464
 5834POPC   D2A73732  14.418   2.037   6.764
 5834POPC   C3A73733  14.417   2.035   7.064
 5834POPC   C4A73734  14.417   2.013   7.364
 5834POPC   C1B73735  14.658   1.945   6.464
 5834POPC   C2B73736  14.606   1.904   6.764
 5834POPC   C3B73737  14.650   1.863   7.064
 5834POPC   C4B73738  14.603   1.911   7.364
 5835POPC   NC373739  38.496  32.285   5.564
 5835POPC   PO473740  38.442  32.202   5.864
 5835POPC   GL173741  38.490  32.204   6.164
 5835POPC   GL273742  38.515  32.376   6.164
 5835POPC   C1A73743  38.479  32.207   6.464
 5835POPC   D2A73744  38.430  32.232   6.764
 5835POPC   C3A73745  38.457  32.292   7.064
 5835POPC   C4A73746  38.421  32.229   7.364
 5835POPC   C1B73747  38.601  32.423   6.464
 5835POPC   C2B73748  38.669  32.436   6.764
 5835POPC   C3B73749  38.662  32.440   7.064
 5835POPC   C4B73750  38.626  32.406   7.364
 5836POPC   NC373751  40.801  39.212   5.564
 5836POPC   PO473752  40.749  39.234   5.864
 5836POPC   GL173753  40.815  39.267   6.164
 5836POPC   GL273754  40.725  39.135   6.164
 5836POPC   C1A73755  40.749  39.259   6.464
 5836POPC   D2A73756  40.786  39.189   6.764
 5836POPC   C3A73757  40.800  39.213   7.064
 5836POPC   C4A73758  40.752  39.237   7.364
 5836POPC   C1B73759  40.579  39.105   6.464
 5836POPC   C2B73760  40.605  39.113   6.764
 5836POPC   C3B73761  40.591  39.043   7.064
 5836POPC   C4B73762  40.557  39.115   7.364
 5837POPC   NC373763  32.224  25.227   5.564
 5837POPC   PO473764  32.294  25.242   5.864
 5837POPC   GL173765  32.252  25.268   6.164
 5837POPC   GL273766  32.163  25.334   6.164
 5837POPC   C1A73767  32.270  25.302   6.464
 5837POPC   D2A73768  32.210  25.241   6.764
 5837POPC   C3A73769  32.273  25.247   7.064
 5837POPC   C4A73770  32.297  25.253   7.364
 5837POPC   C1B73771  32.130  25.451   6.464
 5837POPC   C2B73772  32.094  25.527   6.764
 5837POPC   C3B73773  32.070  25.493   7.064
 5837POPC   C4B73774  32.081  25.433   7.364
 5838POPC   NC373775  32.257  38.501   5.564
 5838POPC   PO473776  32.215  38.461   5.864
 5838POPC   GL173777  32.235  38.461   6.164
 5838POPC   GL273778  32.320  38.307   6.164
 5838POPC   C1A73779  32.252  38.409   6.464
 5838POPC   D2A73780  32.289  38.475   6.764
 5838POPC   C3A73781  32.293  38.431   7.064
 5838POPC   C4A73782  32.204  38.505   7.364
 5838POPC   C1B73783  32.352  38.247   6.464
 5838POPC   C2B73784  32.295  38.220   6.764
 5838POPC   C3B73785  32.282  38.203   7.064
 5838POPC   C4B73786  32.262  38.247   7.364
 5839POPC   NC373787   9.753  32.251   5.564
 5839POPC   PO473788   9.783  32.282   5.864
 5839POPC   GL173789   9.763  32.234   6.164
 5839POPC   GL273790   9.600  32.243   6.164
 5839POPC   C1A73791   9.731  32.198   6.464
 5839POPC   D2A73792   9.781  32.220   6.764
 5839POPC   C3A73793   9.701  32.245   7.064
 5839POPC   C4A73794   9.783  32.288   7.364
 5839POPC   C1B73795   9.470  32.168   6.464
 5839POPC   C2B73796   9.483  32.189   6.764
 5839POPC   C3B73797   9.541  32.149   7.064
 5839POPC   C4B73798   9.515  32.221   7.364
 5840POPC   NC373799  17.467  23.736   5.564
 5840POPC   PO473800  17.504  23.764   5.864
 5840POPC   GL173801  17.544  23.674   6.164
 5840POPC   GL273802  17.594  23.732   6.164
 5840POPC   C1A73803  17.535  23.712   6.464
 5840POPC   D2A73804  17.459  23.711   6.764
 5840POPC   C3A73805  17.543  23.675   7.064
 5840POPC   C4A73806  17.494  23.696   7.364
 5840POPC   C1B73807  17.728  23.684   6.464
 5840POPC   C2B73808  17.711  23.741   6.764
 5840POPC   C3B73809  17.791  23.720   7.064
 5840POPC   C4B73810  17.778  23.701   7.364
 5841POPC   NC373811   9.015  29.111   5.564
 5841POPC   PO473812   8.991  29.144   5.864
 5841POPC   GL173813   8.973  29.171   6.164
 5841POPC   GL273814   9.018  29.198   6.164
 5841POPC   C1A73815   8.943  29.115   6.464
 5841POPC   D2A73816   8.985  29.175   6.764
 5841POPC   C3A73817   8.970  29.187   7.064
 5841POPC   C4A73818   8.962  29.104   7.364
 5841POPC   C1B73819   9.156  29.344   6.464
 5841POPC   C2B73820   9.072  29.334   6.764
 5841POPC   C3B73821   9.141  29.391   7.064
 5841POPC   C4B73822   9.138  29.312   7.364
 5842POPC   NC373823  12.096  16.737   5.564
 5842POPC   PO473824  12.115  16.737   5.864
 5842POPC   GL173825  12.079  16.685   6.164
 5842POPC   GL273826  12.166  16.788   6.164
 5842POPC   C1A73827  12.107  16.747   6.464
 5842POPC   D2A73828  12.091  16.770   6.764
 5842POPC   C3A73829  12.070  16.699   7.064
 5842POPC   C4A73830  12.067  16.692   7.364
 5842POPC   C1B73831  12.263  16.815   6.464
 5842POPC   C2B73832  12.260  16.852   6.764
 5842POPC   C3B73833  12.282  16.819   7.064
 5842POPC   C4B73834  12.281  16.834   7.364
 5843POPC   NC373835  11.338  23.740   5.564
 5843POPC   PO473836  11.272  23.755   5.864
 5843POPC   GL173837  11.280  23.673   6.164
 5843POPC   GL273838  11.149  23.720   6.164
 5843POPC   C1A73839  11.268  23.713   6.464
 5843POPC   D2A73840  11.326  23.760   6.764
 5843POPC   C3A73841  11.305  23.754   7.064
 5843POPC   C4A73842  11.321  23.688   7.364
 5843POPC   C1B73843  11.079  23.829   6.464
 5843POPC   C2B73844  11.101  23.785   6.764
 5843POPC   C3B73845  11.032  23.861   7.064
 5843POPC   C4B73846  11.083  23.860   7.364
 5844POPC   NC373847  28.377  41.541   5.564
 5844POPC   PO473848  28.404  41.570   5.864
 5844POPC   GL173849  28.372  41.557   6.164
 5844POPC   GL273850  28.266  41.535   6.164
 5844POPC   C1A73851  28.377  41.541   6.464
 5844POPC   D2A73852  28.368  41.581   6.764
 5844POPC   C3A73853  28.331  41.567   7.064
 5844POPC   C4A73854  28.337  41.593   7.364
 5844POPC   C1B73855  28.169  41.436   6.464
 5844POPC   C2B73856  28.153  41.416   6.764
 5844POPC   C3B73857  28.185  41.467   7.064
 5844POPC   C4B73858  28.202  41.398   7.364
 5845POPC   NC373859   2.765  36.149   5.564
 5845POPC   PO473860   2.744  36.106   5.864
 5845POPC   GL173861   2.781  36.093   6.164
 5845POPC   GL273862   2.839  36.052   6.164
 5845POPC   C1A73863   2.809  36.151   6.464
 5845POPC   D2A73864   2.796  36.118   6.764
 5845POPC   C3A73865   2.758  36.169   7.064
 5845POPC   C4A73866   2.735  36.120   7.364
 5845POPC   C1B73867   3.023  36.038   6.464
 5845POPC   C2B73868   3.040  36.092   6.764
 5845POPC   C3B73869   3.033  36.050   7.064
 5845POPC   C4B73870   3.045  36.074   7.364
 5846POPC   NC373871  42.333  39.967   5.564
 5846POPC   PO473872  42.364  39.999   5.864
 5846POPC   GL173873  42.360  39.957   6.164
 5846POPC   GL273874  42.285  39.851   6.164
 5846POPC   C1A73875  42.376  40.004   6.464
 5846POPC   D2A73876  42.286  40.019   6.764
 5846POPC   C3A73877  42.375  39.986   7.064
 5846POPC   C4A73878  42.295  39.968   7.364
 5846POPC   C1B73879  42.252  39.721   6.464
 5846POPC   C2B73880  42.215  39.807   6.764
 5846POPC   C3B73881  42.244  39.770   7.064
 5846POPC   C4B73882  42.258  39.784   7.364
 5847POPC   NC373883  19.787  10.555   5.564
 5847POPC   PO473884  19.868  10.491   5.864
 5847POPC   GL173885  19.818  10.509   6.164
 5847POPC   GL273886  19.918  10.674   6.164
 5847POPC   C1A73887  19.880  10.512   6.464
 5847POPC   D2A73888  19.868  10.500   6.764
 5847POPC   C3A73889  19.816  10.498   7.064
 5847POPC   C4A73890  19.799  10.541   7.364
 5847POPC   C1B73891  19.987  10.688   6.464
 5847POPC   C2B73892  19.952  10.751   6.764
 5847POPC   C3B73893  19.992  10.741   7.064
 5847POPC   C4B73894  19.959  10.684   7.364
 5848POPC   NC373895  19.817  35.392   5.564
 5848POPC   PO473896  19.874  35.354   5.864
 5848POPC   GL173897  19.871  35.376   6.164
 5848POPC   GL273898  19.715  35.350   6.164
 5848POPC   C1A73899  19.881  35.314   6.464
 5848POPC   D2A73900  19.865  35.361   6.764
 5848POPC   C3A73901  19.857  35.362   7.064
 5848POPC   C4A73902  19.836  35.327   7.364
 5848POPC   C1B73903  19.542  35.385   6.464
 5848POPC   C2B73904  19.597  35.426   6.764
 5848POPC   C3B73905  19.554  35.350   7.064
 5848POPC   C4B73906  19.555  35.409   7.364
 5849POPC   NC373907  30.682  40.827   5.564
 5849POPC   PO473908  30.743  40.799   5.864
 5849POPC   GL173909  30.676  40.745   6.164
 5849POPC   GL273910  30.655  40.914   6.164
 5849POPC   C1A73911  30.664  40.737   6.464
 5849POPC   D2A73912  30.709  40.788   6.764
 5849POPC   C3A73913  30.685  40.789   7.064
 5849POPC   C4A73914  30.720  40.814   7.364
 5849POPC   C1B73915  30.568  40.966   6.464
 5849POPC   C2B73916  30.504  40.966   6.764
 5849POPC   C3B73917  30.539  40.985   7.064
 5849POPC   C4B73918  30.576  40.965   7.364
 5850POPC   NC373919  23.692  24.515   5.564
 5850POPC   PO473920  23.687  24.462   5.864
 5850POPC   GL173921  23.666  24.533   6.164
 5850POPC   GL273922  23.724  24.333   6.164
 5850POPC   C1A73923  23.711  24.501   6.464
 5850POPC   D2A73924  23.707  24.450   6.764
 5850POPC   C3A73925  23.749  24.475   7.064
 5850POPC   C4A73926  23.730  24.505   7.364
 5850POPC   C1B73927  23.792  24.226   6.464
 5850POPC   C2B73928  23.697  24.278   6.764
 5850POPC   C3B73929  23.768  24.288   7.064
 5850POPC   C4B73930  23.789  24.215   7.364
 5851POPC   NC373931  20.624  40.029   5.564
 5851POPC   PO473932  20.568  40.025   5.864
 5851POPC   GL173933  20.658  40.000   6.164
 5851POPC   GL273934  20.542  40.007   6.164
 5851POPC   C1A73935  20.636  40.053   6.464
 5851POPC   D2A73936  20.637  40.017   6.764
 5851POPC   C3A73937  20.593  39.989   7.064
 5851POPC   C4A73938  20.641  40.031   7.364
 5851POPC   C1B73939  20.369  39.907   6.464
 5851POPC   C2B73940  20.416  39.938   6.764
 5851POPC   C3B73941  20.349  39.882   7.064
 5851POPC   C4B73942  20.396  39.941   7.364
 5852POPC   NC373943   7.443  34.584   5.564
 5852POPC   PO473944   7.457  34.560   5.864
 5852POPC   GL173945   7.460  34.581   6.164
 5852POPC   GL273946   7.328  34.673   6.164
 5852POPC   C1A73947   7.380  34.608   6.464
 5852POPC   D2A73948   7.435  34.548   6.764
 5852POPC   C3A73949   7.389  34.551   7.064
 5852POPC   C4A73950   7.382  34.549   7.364
 5852POPC   C1B73951   7.199  34.788   6.464
 5852POPC   C2B73952   7.286  34.773   6.764
 5852POPC   C3B73953   7.288  34.702   7.064
 5852POPC   C4B73954   7.236  34.747   7.364
 5853POPC   NC373955  10.500  29.157   5.564
 5853POPC   PO473956  10.478  29.160   5.864
 5853POPC   GL173957  10.510  29.182   6.164
 5853POPC   GL273958  10.475  29.309   6.164
 5853POPC   C1A73959  10.477  29.098   6.464
 5853POPC   D2A73960  10.496  29.151   6.764
 5853POPC   C3A73961  10.523  29.152   7.064
 5853POPC   C4A73962  10.534  29.148   7.364
 5853POPC   C1B73963  10.409  29.340   6.464
 5853POPC   C2B73964  10.435  29.382   6.764
 5853POPC   C3B73965  10.421  29.344   7.064
 5853POPC   C4B73966  10.437  29.386   7.364
 5854POPC   NC373967  40.055  28.387   5.564
 5854POPC   PO473968  40.000  28.340   5.864
 5854POPC   GL173969  40.010  28.383   6.164
 5854POPC   GL273970  39.950  28.465   6.164
 5854POPC   C1A73971  39.958  28.388   6.464
 5854POPC   D2A73972  40.017  28.357   6.764
 5854POPC   C3A73973  40.057  28.340   7.064
 5854POPC   C4A73974  40.033  28.336   7.364
 5854POPC   C1B73975  39.826  28.538   6.464
 5854POPC   C2B73976  39.783  28.559   6.764
 5854POPC   C3B73977  39.828  28.467   7.064
 5854POPC   C4B73978  39.757  28.532   7.364
 5855POPC   NC373979  20.641  15.203   5.564
 5855POPC   PO473980  20.625  15.209   5.864
 5855POPC   GL173981  20.600  15.227   6.164
 5855POPC   GL273982  20.540  15.067   6.164
 5855POPC   C1A73983  20.618  15.209   6.464
 5855POPC   D2A73984  20.602  15.221   6.764
 5855POPC   C3A73985  20.585  15.162   7.064
 5855POPC   C4A73986  20.583  15.172   7.364
 5855POPC   C1B73987  20.497  14.970   6.464
 5855POPC   C2B73988  20.566  14.943   6.764
 5855POPC   C3B73989  20.507  14.916   7.064
 5855POPC   C4B73990  20.513  14.953   7.364
 5856POPC   NC373991  30.702  31.487   5.564
 5856POPC   PO473992  30.725  31.490   5.864
 5856POPC   GL173993  30.724  31.470   6.164
 5856POPC   GL273994  30.724  31.411   6.164
 5856POPC   C1A73995  30.667  31.506   6.464
 5856POPC   D2A73996  30.671  31.505   6.764
 5856POPC   C3A73997  30.721  31.440   7.064
 5856POPC   C4A73998  30.676  31.433   7.364
 5856POPC   C1B73999  30.809  31.293   6.464
 5856POPC   C2B74000  30.855  31.213   6.764
 5856POPC   C3B74001  30.862  31.207   7.064
 5856POPC   C4B74002  30.832  31.244   7.364
 5857POPC   NC374003  19.011  36.101   5.564
 5857POPC   PO474004  19.107  36.134   5.864
 5857POPC   GL174005  19.092  36.111   6.164
 5857POPC   GL274006  19.058  36.255   6.164
 5857POPC   C1A74007  19.073  36.093   6.464
 5857POPC   D2A74008  19.032  36.132   6.764
 5857POPC   C3A74009  19.052  36.152   7.064
 5857POPC   C4A74010  19.084  36.143   7.364
 5857POPC   C1B74011  18.969  36.339   6.464
 5857POPC   C2B74012  19.009  36.388   6.764
 5857POPC   C3B74013  19.003  36.369   7.064
 5857POPC   C4B74014  18.938  36.320   7.364
 5858POPC   NC374015   0.416  36.892   5.564
 5858POPC   PO474016   0.460  36.860   5.864
 5858POPC   GL174017   0.482  36.877   6.164
 5858POPC   GL274018   0.508  37.023   6.164
 5858POPC   C1A74019   0.423  36.861   6.464
 5858POPC   D2A74020   0.471  36.869   6.764
 5858POPC   C3A74021   0.448  36.933   7.064
 5858POPC   C4A74022   0.439  36.899   7.364
 5858POPC   C1B74023   0.453  37.129   6.464
 5858POPC   C2B74024   0.520  37.115   6.764
 5858POPC   C3B74025   0.527  37.192   7.064
 5858POPC   C4B74026   0.467  37.153   7.364
 5859POPC   NC374027  39.229  29.190   5.564
 5859POPC   PO474028  39.209  29.130   5.864
 5859POPC   GL174029  39.249  29.129   6.164
 5859POPC   GL274030  39.133  29.235   6.164
 5859POPC   C1A74031  39.274  29.169   6.464
 5859POPC   D2A74032  39.276  29.168   6.764
 5859POPC   C3A74033  39.206  29.095   7.064
 5859POPC   C4A74034  39.239  29.164   7.364
 5859POPC   C1B74035  39.146  29.405   6.464
 5859POPC   C2B74036  39.083  29.348   6.764
 5859POPC   C3B74037  39.123  29.343   7.064
 5859POPC   C4B74038  39.089  29.381   7.364
 5860POPC   NC374039  40.021  41.521   5.564
 5860POPC   PO474040  40.020  41.531   5.864
 5860POPC   GL174041  40.002  41.569   6.164
 5860POPC   GL274042  39.969  41.427   6.164
 5860POPC   C1A74043  39.988  41.559   6.464
 5860POPC   D2A74044  39.959  41.571   6.764
 5860POPC   C3A74045  40.030  41.560   7.064
 5860POPC   C4A74046  40.025  41.536   7.364
 5860POPC   C1B74047  39.876  41.343   6.464
 5860POPC   C2B74048  39.960  41.331   6.764
 5860POPC   C3B74049  39.907  41.336   7.064
 5860POPC   C4B74050  39.930  41.273   7.364
 5861POPC   NC374051  12.068  29.956   5.564
 5861POPC   PO474052  12.064  29.947   5.864
 5861POPC   GL174053  12.093  29.913   6.164
 5861POPC   GL274054  12.065  29.819   6.164
 5861POPC   C1A74055  12.055  29.966   6.464
 5861POPC   D2A74056  12.096  29.940   6.764
 5861POPC   C3A74057  12.079  29.877   7.064
 5861POPC   C4A74058  12.080  29.951   7.364
 5861POPC   C1B74059  12.047  29.686   6.464
 5861POPC   C2B74060  12.081  29.625   6.764
 5861POPC   C3B74061  12.058  29.722   7.064
 5861POPC   C4B74062  11.995  29.630   7.364
 5862POPC   NC374063  20.565  28.416   5.564
 5862POPC   PO474064  20.646  28.354   5.864
 5862POPC   GL174065  20.566  28.320   6.164
 5862POPC   GL274066  20.478  28.436   6.164
 5862POPC   C1A74067  20.616  28.418   6.464
 5862POPC   D2A74068  20.644  28.329   6.764
 5862POPC   C3A74069  20.615  28.325   7.064
 5862POPC   C4A74070  20.609  28.373   7.364
 5862POPC   C1B74071  20.410  28.494   6.464
 5862POPC   C2B74072  20.427  28.583   6.764
 5862POPC   C3B74073  20.391  28.574   7.064
 5862POPC   C4B74074  20.445  28.536   7.364
 5863POPC   NC374075  15.979  20.625   5.564
 5863POPC   PO474076  15.928  20.597   5.864
 5863POPC   GL174077  16.002  20.595   6.164
 5863POPC   GL274078  16.024  20.727   6.164
 5863POPC   C1A74079  15.999  20.636   6.464
 5863POPC   D2A74080  15.908  20.648   6.764
 5863POPC   C3A74081  15.935  20.631   7.064
 5863POPC   C4A74082  15.913  20.598   7.364
 5863POPC   C1B74083  16.113  20.812   6.464
 5863POPC   C2B74084  16.023  20.844   6.764
 5863POPC   C3B74085  16.047  20.824   7.064
 5863POPC   C4B74086  16.025  20.829   7.364
 5864POPC   NC374087  36.879   4.335   5.564
 5864POPC   PO474088  36.867   4.317   5.864
 5864POPC   GL174089  36.908   4.348   6.164
 5864POPC   GL274090  36.933   4.186   6.164
 5864POPC   C1A74091  36.888   4.306   6.464
 5864POPC   D2A74092  36.871   4.367   6.764
 5864POPC   C3A74093  36.874   4.322   7.064
 5864POPC   C4A74094  36.862   4.297   7.364
 5864POPC   C1B74095  36.995   4.056   6.464
 5864POPC   C2B74096  37.037   4.091   6.764
 5864POPC   C3B74097  37.043   4.068   7.064
 5864POPC   C4B74098  37.003   4.058   7.364
 5865POPC   NC374099  30.722  28.415   5.564
 5865POPC   PO474100  30.736  28.353   5.864
 5865POPC   GL174101  30.654  28.401   6.164
 5865POPC   GL274102  30.576  28.455   6.164
 5865POPC   C1A74103  30.656  28.333   6.464
 5865POPC   D2A74104  30.740  28.417   6.764
 5865POPC   C3A74105  30.688  28.375   7.064
 5865POPC   C4A74106  30.687  28.368   7.364
 5865POPC   C1B74107  30.485  28.463   6.464
 5865POPC   C2B74108  30.433  28.448   6.764
 5865POPC   C3B74109  30.493  28.437   7.064
 5865POPC   C4B74110  30.504  28.407   7.364
 5866POPC   NC374111  22.130  22.120   5.564
 5866POPC   PO474112  22.185  22.140   5.864
 5866POPC   GL174113  22.191  22.135   6.164
 5866POPC   GL274114  22.293  22.241   6.164
 5866POPC   C1A74115  22.130  22.170   6.464
 5866POPC   D2A74116  22.161  22.178   6.764
 5866POPC   C3A74117  22.113  22.185   7.064
 5866POPC   C4A74118  22.124  22.159   7.364
 5866POPC   C1B74119  22.354  22.236   6.464
 5866POPC   C2B74120  22.413  22.228   6.764
 5866POPC   C3B74121  22.435  22.224   7.064
 5866POPC   C4B74122  22.372  22.255   7.364
 5867POPC   NC374123  41.509  23.674   5.564
 5867POPC   PO474124  41.593  23.749   5.864
 5867POPC   GL174125  41.582  23.713   6.164
 5867POPC   GL274126  41.570  23.630   6.164
 5867POPC   C1A74127  41.541  23.751   6.464
 5867POPC   D2A74128  41.595  23.667   6.764
 5867POPC   C3A74129  41.528  23.706   7.064
 5867POPC   C4A74130  41.547  23.743   7.364
 5867POPC   C1B74131  41.685  23.480   6.464
 5867POPC   C2B74132  41.677  23.507   6.764
 5867POPC   C3B74133  41.618  23.476   7.064
 5867POPC   C4B74134  41.612  23.432   7.364
 5868POPC   NC374135  11.275  21.380   5.564
 5868POPC   PO474136  11.304  21.376   5.864
 5868POPC   GL174137  11.314  21.343   6.164
 5868POPC   GL274138  11.342  21.459   6.164
 5868POPC   C1A74139  11.313  21.367   6.464
 5868POPC   D2A74140  11.347  21.401   6.764
 5868POPC   C3A74141  11.334  21.398   7.064
 5868POPC   C4A74142  11.294  21.370   7.364
 5868POPC   C1B74143  11.427  21.613   6.464
 5868POPC   C2B74144  11.457  21.605   6.764
 5868POPC   C3B74145  11.487  21.540   7.064
 5868POPC   C4B74146  11.476  21.548   7.364
 5869POPC   NC374147   5.105  19.832   5.564
 5869POPC   PO474148   5.138  19.841   5.864
 5869POPC   GL174149   5.115  19.840   6.164
 5869POPC   GL274150   4.947  19.763   6.164
 5869POPC   C1A74151   5.058  19.857   6.464
 5869POPC   D2A74152   5.081  19.873   6.764
 5869POPC   C3A74153   5.058  19.795   7.064
 5869POPC   C4A74154   5.052  19.798   7.364
 5869POPC   C1B74155   4.809  19.773   6.464
 5869POPC   C2B74156   4.808  19.800   6.764
 5869POPC   C3B74157   4.819  19.777   7.064
 5869POPC   C4B74158   4.877  19.804   7.364
 5870POPC   NC374159  12.122  42.352   5.564
 5870POPC   PO474160  12.059  42.301   5.864
 5870POPC   GL174161  12.112  42.329   6.164
 5870POPC   GL274162  12.035  42.210   6.164
 5870POPC   C1A74163  12.081  42.290   6.464
 5870POPC   D2A74164  12.029  42.301   6.764
 5870POPC   C3A74165  12.071  42.310   7.064
 5870POPC   C4A74166  12.083  42.318   7.364
 5870POPC   C1B74167  12.135  42.109   6.464
 5870POPC   C2B74168  12.067  42.047   6.764
 5870POPC   C3B74169  12.095  42.036   7.064
 5870POPC   C4B74170  12.095  42.049   7.364
 5871POPC   NC374171  14.372  36.896   5.564
 5871POPC   PO474172  14.371  36.871   5.864
 5871POPC   GL174173  14.400  36.933   6.164
 5871POPC   GL274174  14.407  36.975   6.164
 5871POPC   C1A74175  14.358  36.876   6.464
 5871POPC   D2A74176  14.417  36.867   6.764
 5871POPC   C3A74177  14.442  36.908   7.064
 5871POPC   C4A74178  14.396  36.906   7.364
 5871POPC   C1B74179  14.497  37.136   6.464
 5871POPC   C2B74180  14.530  37.092   6.764
 5871POPC   C3B74181  14.462  37.094   7.064
 5871POPC   C4B74182  14.458  37.100   7.364
 5872POPC   NC374183  36.933  43.082   5.564
 5872POPC   PO474184  36.948  43.122   5.864
 5872POPC   GL174185  36.943  43.153   6.164
 5872POPC   GL274186  37.018  43.042   6.164
 5872POPC   C1A74187  36.857  43.071   6.464
 5872POPC   D2A74188  36.905  43.092   6.764
 5872POPC   C3A74189  36.892  43.123   7.064
 5872POPC   C4A74190  36.945  43.103   7.364
 5872POPC   C1B74191  37.185  42.994   6.464
 5872POPC   C2B74192  37.131  43.069   6.764
 5872POPC   C3B74193  37.099  43.011   7.064
 5872POPC   C4B74194  37.097  42.998   7.364
 5873POPC   NC374195  26.078  10.556   5.564
 5873POPC   PO474196  26.045  10.527   5.864
 5873POPC   GL174197  26.026  10.565   6.164
 5873POPC   GL274198  26.198  10.586   6.164
 5873POPC   C1A74199  26.017  10.514   6.464
 5873POPC   D2A74200  26.081  10.500   6.764
 5873POPC   C3A74201  26.048  10.556   7.064
 5873POPC   C4A74202  26.055  10.483   7.364
 5873POPC   C1B74203  26.295  10.548   6.464
 5873POPC   C2B74204  26.309  10.589   6.764
 5873POPC   C3B74205  26.307  10.631   7.064
 5873POPC   C4B74206  26.273  10.557   7.364
 5874POPC   NC374207  33.027  43.936   5.564
 5874POPC   PO474208  33.064  43.891   5.864
 5874POPC   GL174209  32.976  43.936   6.164
 5874POPC   GL274210  33.015  43.795   6.164
 5874POPC   C1A74211  33.073  43.908   6.464
 5874POPC   D2A74212  33.047  43.890   6.764
 5874POPC   C3A74213  33.046  43.934   7.064
 5874POPC   C4A74214  33.001  43.907   7.364
 5874POPC   C1B74215  33.038  43.587   6.464
 5874POPC   C2B74216  33.042  43.624   6.764
 5874POPC   C3B74217  33.035  43.613   7.064
 5874POPC   C4B74218  33.050  43.603   7.364
 5875POPC   NC374219  29.100   2.039   5.564
 5875POPC   PO474220  29.113   2.010   5.864
 5875POPC   GL174221  29.191   2.029   6.164
 5875POPC   GL274222  29.114   2.119   6.164
 5875POPC   C1A74223  29.096   2.039   6.464
 5875POPC   D2A74224  29.182   1.978   6.764
 5875POPC   C3A74225  29.133   1.989   7.064
 5875POPC   C4A74226  29.174   1.947   7.364
 5875POPC   C1B74227  28.959   2.175   6.464
 5875POPC   C2B74228  28.956   2.169   6.764
 5875POPC   C3B74229  28.983   2.227   7.064
 5875POPC   C4B74230  29.003   2.180   7.364
 5876POPC   NC374231  19.053  33.847   5.564
 5876POPC   PO474232  19.017  33.833   5.864
 5876POPC   GL174233  19.071  33.786   6.164
 5876POPC   GL274234  18.930  33.720   6.164
 5876POPC   C1A74235  19.073  33.848   6.464
 5876POPC   D2A74236  19.062  33.813   6.764
 5876POPC   C3A74237  19.018  33.782   7.064
 5876POPC   C4A74238  19.047  33.773   7.364
 5876POPC   C1B74239  18.872  33.695   6.464
 5876POPC   C2B74240  18.829  33.719   6.764
 5876POPC   C3B74241  18.821  33.716   7.064
 5876POPC   C4B74242  18.871  33.693   7.364
 5877POPC   NC374243  27.549  35.318   5.564
 5877POPC   PO474244  27.596  35.359   5.864
 5877POPC   GL174245  27.548  35.390   6.164
 5877POPC   GL274246  27.694  35.254   6.164
 5877POPC   C1A74247  27.600  35.382   6.464
 5877POPC   D2A74248  27.588  35.311   6.764
 5877POPC   C3A74249  27.628  35.348   7.064
 5877POPC   C4A74250  27.556  35.383   7.364
 5877POPC   C1B74251  27.764  35.188   6.464
 5877POPC   C2B74252  27.826  35.158   6.764
 5877POPC   C3B74253  27.828  35.149   7.064
 5877POPC   C4B74254  27.813  35.228   7.364
 5878POPC   NC374255  22.184  36.871   5.564
 5878POPC   PO474256  22.181  36.868   5.864
 5878POPC   GL174257  22.114  36.949   6.164
 5878POPC   GL274258  21.993  36.877   6.164
 5878POPC   C1A74259  22.189  36.917   6.464
 5878POPC   D2A74260  22.199  36.883   6.764
 5878POPC   C3A74261  22.150  36.877   7.064
 5878POPC   C4A74262  22.162  36.943   7.364
 5878POPC   C1B74263  21.881  36.909   6.464
 5878POPC   C2B74264  21.913  36.894   6.764
 5878POPC   C3B74265  21.909  36.903   7.064
 5878POPC   C4B74266  21.939  36.912   7.364
 5879POPC   NC374267   9.703  26.078   5.564
 5879POPC   PO474268   9.747  26.004   5.864
 5879POPC   GL174269   9.763  26.078   6.164
 5879POPC   GL274270   9.688  25.939   6.164
 5879POPC   C1A74271   9.722  26.068   6.464
 5879POPC   D2A74272   9.702  26.016   6.764
 5879POPC   C3A74273   9.715  26.042   7.064
 5879POPC   C4A74274   9.786  26.065   7.364
 5879POPC   C1B74275   9.553  25.886   6.464
 5879POPC   C2B74276   9.550  25.899   6.764
 5879POPC   C3B74277   9.566  25.848   7.064
 5879POPC   C4B74278   9.515  25.909   7.364
 5880POPC   NC374279   5.080  16.755   5.564
 5880POPC   PO474280   5.054  16.709   5.864
 5880POPC   GL174281   5.077  16.687   6.164
 5880POPC   GL274282   4.974  16.736   6.164
 5880POPC   C1A74283   5.131  16.717   6.464
 5880POPC   D2A74284   5.055  16.739   6.764
 5880POPC   C3A74285   5.100  16.760   7.064
 5880POPC   C4A74286   5.107  16.724   7.364
 5880POPC   C1B74287   4.826  16.726   6.464
 5880POPC   C2B74288   4.843  16.767   6.764
 5880POPC   C3B74289   4.840  16.752   7.064
 5880POPC   C4B74290   4.865  16.750   7.364
 5881POPC   NC374291  27.554  17.499   5.564
 5881POPC   PO474292  27.612  17.500   5.864
 5881POPC   GL174293  27.553  17.465   6.164
 5881POPC   GL274294  27.596  17.644   6.164
 5881POPC   C1A74295  27.566  17.504   6.464
 5881POPC   D2A74296  27.597  17.497   6.764
 5881POPC   C3A74297  27.594  17.492   7.064
 5881POPC   C4A74298  27.570  17.541   7.364
 5881POPC   C1B74299  27.674  17.756   6.464
 5881POPC   C2B74300  27.694  17.736   6.764
 5881POPC   C3B74301  27.722  17.778   7.064
 5881POPC   C4B74302  27.715  17.757   7.364
 5882POPC   NC374303  20.573  35.369   5.564
 5882POPC   PO474304  20.610  35.341   5.864
 5882POPC   GL174305  20.588  35.365   6.164
 5882POPC   GL274306  20.713  35.246   6.164
 5882POPC   C1A74307  20.640  35.352   6.464
 5882POPC   D2A74308  20.660  35.386   6.764
 5882POPC   C3A74309  20.652  35.351   7.064
 5882POPC   C4A74310  20.620  35.327   7.364
 5882POPC   C1B74311  20.741  35.183   6.464
 5882POPC   C2B74312  20.747  35.147   6.764
 5882POPC   C3B74313  20.716  35.150   7.064
 5882POPC   C4B74314  20.767  35.169   7.364
 5883POPC   NC374315  36.942  43.863   5.564
 5883POPC   PO474316  36.941  43.853   5.864
 5883POPC   GL174317  36.926  43.855   6.164
 5883POPC   GL274318  36.978  43.827   6.164
 5883POPC   C1A74319  36.909  43.921   6.464
 5883POPC   D2A74320  36.896  43.850   6.764
 5883POPC   C3A74321  36.896  43.908   7.064
 5883POPC   C4A74322  36.883  43.863   7.364
 5883POPC   C1B74323  37.153  43.756   6.464
 5883POPC   C2B74324  37.116  43.711   6.764
 5883POPC   C3B74325  37.115  43.696   7.064
 5883POPC   C4B74326  37.085  43.746   7.364
 5884POPC   NC374327  19.862  16.752   5.564
 5884POPC   PO474328  19.882  16.771   5.864
 5884POPC   GL174329  19.798  16.778   6.164
 5884POPC   GL274330  19.877  16.592   6.164
 5884POPC   C1A74331  19.816  16.686   6.464
 5884POPC   D2A74332  19.810  16.694   6.764
 5884POPC   C3A74333  19.847  16.698   7.064
 5884POPC   C4A74334  19.855  16.725   7.364
 5884POPC   C1B74335  19.838  16.481   6.464
 5884POPC   C2B74336  19.805  16.434   6.764
 5884POPC   C3B74337  19.784  16.460   7.064
 5884POPC   C4B74338  19.800  16.507   7.364
 5885POPC   NC374339  14.398  10.518   5.564
 5885POPC   PO474340  14.368  10.565   5.864
 5885POPC   GL174341  14.453  10.559   6.164
 5885POPC   GL274342  14.524  10.529   6.164
 5885POPC   C1A74343  14.357  10.559   6.464
 5885POPC   D2A74344  14.424  10.493   6.764
 5885POPC   C3A74345  14.367  10.486   7.064
 5885POPC   C4A74346  14.411  10.477   7.364
 5885POPC   C1B74347  14.677  10.494   6.464
 5885POPC   C2B74348  14.687  10.541   6.764
 5885POPC   C3B74349  14.699  10.550   7.064
 5885POPC   C4B74350  14.624  10.518   7.364
 5886POPC   NC374351  29.177  12.837   5.564
 5886POPC   PO474352  29.098  12.855   5.864
 5886POPC   GL174353  29.146  12.862   6.164
 5886POPC   GL274354  29.222  12.866   6.164
 5886POPC   C1A74355  29.111  12.852   6.464
 5886POPC   D2A74356  29.146  12.854   6.764
 5886POPC   C3A74357  29.163  12.875   7.064
 5886POPC   C4A74358  29.157  12.878   7.364
 5886POPC   C1B74359  29.368  12.851   6.464
 5886POPC   C2B74360  29.429  12.827   6.764
 5886POPC   C3B74361  29.394  12.826   7.064
 5886POPC   C4B74362  29.371  12.886   7.364
 5887POPC   NC374363  42.287  11.284   5.564
 5887POPC   PO474364  42.308  11.337   5.864
 5887POPC   GL174365  42.359  11.310   6.164
 5887POPC   GL274366  42.341  11.217   6.164
 5887POPC   C1A74367  42.304  11.337   6.464
 5887POPC   D2A74368  42.383  11.328   6.764
 5887POPC   C3A74369  42.348  11.329   7.064
 5887POPC   C4A74370  42.384  11.255   7.364
 5887POPC   C1B74371  42.303  11.077   6.464
 5887POPC   C2B74372  42.313  11.057   6.764
 5887POPC   C3B74373  42.385  11.063   7.064
 5887POPC   C4B74374  42.383  11.081   7.364
 5888POPC   NC374375  43.902  11.299   5.564
 5888POPC   PO474376  43.914  11.303   5.864
 5888POPC   GL174377  43.921  11.339   6.164
 5888POPC   GL274378  43.875  11.433   6.164
 5888POPC   C1A74379  43.872  11.269   6.464
 5888POPC   D2A74380  43.920  11.264   6.764
 5888POPC   C3A74381  43.879  11.290   7.064
 5888POPC   C4A74382  43.850  11.343   7.364
 5888POPC   C1B74383  43.968  11.588   6.464
 5888POPC   C2B74384  43.953  11.508   6.764
 5888POPC   C3B74385  43.890  11.565   7.064
 5888POPC   C4B74386  43.927  11.542   7.364
 5889POPC   NC374387   7.393  39.264   5.564
 5889POPC   PO474388   7.420  39.224   5.864
 5889POPC   GL174389   7.415  39.244   6.164
 5889POPC   GL274390   7.501  39.339   6.164
 5889POPC   C1A74391   7.428  39.268   6.464
 5889POPC   D2A74392   7.456  39.191   6.764
 5889POPC   C3A74393   7.403  39.210   7.064
 5889POPC   C4A74394   7.456  39.207   7.364
 5889POPC   C1B74395   7.604  39.352   6.464
 5889POPC   C2B74396   7.649  39.358   6.764
 5889POPC   C3B74397   7.638  39.385   7.064
 5889POPC   C4B74398   7.563  39.422   7.364
 5890POPC   NC374399   2.785  33.032   5.564
 5890POPC   PO474400   2.735  33.001   5.864
 5890POPC   GL174401   2.772  32.983   6.164
 5890POPC   GL274402   2.894  32.906   6.164
 5890POPC   C1A74403   2.729  33.011   6.464
 5890POPC   D2A74404   2.756  32.975   6.764
 5890POPC   C3A74405   2.751  33.058   7.064
 5890POPC   C4A74406   2.789  33.022   7.364
 5890POPC   C1B74407   2.960  32.828   6.464
 5890POPC   C2B74408   2.917  32.867   6.764
 5890POPC   C3B74409   2.928  32.846   7.064
 5890POPC   C4B74410   2.960  32.874   7.364
 5891POPC   NC374411  19.804  33.005   5.564
 5891POPC   PO474412  19.878  33.031   5.864
 5891POPC   GL174413  19.803  33.015   6.164
 5891POPC   GL274414  19.815  33.121   6.164
 5891POPC   C1A74415  19.871  32.993   6.464
 5891POPC   D2A74416  19.805  33.004   6.764
 5891POPC   C3A74417  19.873  33.066   7.064
 5891POPC   C4A74418  19.808  33.018   7.364
 5891POPC   C1B74419  19.866  33.227   6.464
 5891POPC   C2B74420  19.908  33.291   6.764
 5891POPC   C3B74421  19.924  33.314   7.064
 5891POPC   C4B74422  19.903  33.314   7.364
 5892POPC   NC374423   5.137   7.414   5.564
 5892POPC   PO474424   5.132   7.425   5.864
 5892POPC   GL174425   5.136   7.379   6.164
 5892POPC   GL274426   4.935   7.423   6.164
 5892POPC   C1A74427   5.133   7.405   6.464
 5892POPC   D2A74428   5.053   7.394   6.764
 5892POPC   C3A74429   5.062   7.384   7.064
 5892POPC   C4A74430   5.067   7.455   7.364
 5892POPC   C1B74431   4.817   7.362   6.464
 5892POPC   C2B74432   4.828   7.398   6.764
 5892POPC   C3B74433   4.856   7.427   7.064
 5892POPC   C4B74434   4.804   7.394   7.364
 5893POPC   NC374435   5.907  17.481   5.564
 5893POPC   PO474436   5.907  17.509   5.864
 5893POPC   GL174437   5.903  17.497   6.164
 5893POPC   GL274438   5.829  17.363   6.164
 5893POPC   C1A74439   5.849  17.549   6.464
 5893POPC   D2A74440   5.908  17.485   6.764
 5893POPC   C3A74441   5.882  17.492   7.064
 5893POPC   C4A74442   5.857  17.496   7.364
 5893POPC   C1B74443   5.781  17.332   6.464
 5893POPC   C2B74444   5.793  17.310   6.764
 5893POPC   C3B74445   5.767  17.321   7.064
 5893POPC   C4B74446   5.709  17.276   7.364
 5894POPC   NC374447  36.915  26.069   5.564
 5894POPC   PO474448  36.913  26.058   5.864
 5894POPC   GL174449  36.859  26.010   6.164
 5894POPC   GL274450  36.748  26.036   6.164
 5894POPC   C1A74451  36.908  26.029   6.464
 5894POPC   D2A74452  36.951  26.052   6.764
 5894POPC   C3A74453  36.878  26.041   7.064
 5894POPC   C4A74454  36.871  26.026   7.364
 5894POPC   C1B74455  36.695  26.060   6.464
 5894POPC   C2B74456  36.698  25.973   6.764
 5894POPC   C3B74457  36.628  26.064   7.064
 5894POPC   C4B74458  36.638  25.987   7.364
 5895POPC   NC374459  18.317  31.473   5.564
 5895POPC   PO474460  18.319  31.433   5.864
 5895POPC   GL174461  18.281  31.493   6.164
 5895POPC   GL274462  18.146  31.441   6.164
 5895POPC   C1A74463  18.323  31.450   6.464
 5895POPC   D2A74464  18.279  31.516   6.764
 5895POPC   C3A74465  18.313  31.475   7.064
 5895POPC   C4A74466  18.307  31.486   7.364
 5895POPC   C1B74467  18.045  31.337   6.464
 5895POPC   C2B74468  18.098  31.387   6.764
 5895POPC   C3B74469  18.082  31.360   7.064
 5895POPC   C4B74470  18.086  31.347   7.364
 5896POPC   NC374471   5.827  33.830   5.564
 5896POPC   PO474472   5.876  33.826   5.864
 5896POPC   GL174473   5.919  33.810   6.164
 5896POPC   GL274474   5.824  33.856   6.164
 5896POPC   C1A74475   5.859  33.799   6.464
 5896POPC   D2A74476   5.838  33.824   6.764
 5896POPC   C3A74477   5.850  33.770   7.064
 5896POPC   C4A74478   5.846  33.810   7.364
 5896POPC   C1B74479   5.728  33.960   6.464
 5896POPC   C2B74480   5.666  33.966   6.764
 5896POPC   C3B74481   5.654  34.015   7.064
 5896POPC   C4B74482   5.699  33.975   7.364
 5897POPC   NC374483  37.678  43.890   5.564
 5897POPC   PO474484  37.637  43.866   5.864
 5897POPC   GL174485  37.702  43.846   6.164
 5897POPC   GL274486  37.695  43.955   6.164
 5897POPC   C1A74487  37.718  43.847   6.464
 5897POPC   D2A74488  37.651  43.847   6.764
 5897POPC   C3A74489  37.688  43.930   7.064
 5897POPC   C4A74490  37.642  43.924   7.364
 5897POPC   C1B74491  37.774  44.139   6.464
 5897POPC   C2B74492  37.811  44.143   6.764
 5897POPC   C3B74493  37.784  44.160   7.064
 5897POPC   C4B74494  37.797  44.103   7.364
 5898POPC   NC374495   1.218  44.627   5.564
 5898POPC   PO474496   1.260  44.685   5.864
 5898POPC   GL174497   1.213  44.628   6.164
 5898POPC   GL274498   1.375  44.626   6.164
 5898POPC   C1A74499   1.247  44.627   6.464
 5898POPC   D2A74500   1.214  44.707   6.764
 5898POPC   C3A74501   1.245  44.659   7.064
 5898POPC   C4A74502   1.173  44.625   7.364
 5898POPC   C1B74503   1.466  44.544   6.464
 5898POPC   C2B74504   1.430  44.606   6.764
 5898POPC   C3B74505   1.466  44.570   7.064
 5898POPC   C4B74506   1.445  44.568   7.364
 5899POPC   NC374507  11.259  17.483   5.564
 5899POPC   PO474508  11.284  17.493   5.864
 5899POPC   GL174509  11.296  17.547   6.164
 5899POPC   GL274510  11.200  17.371   6.164
 5899POPC   C1A74511  11.305  17.498   6.464
 5899POPC   D2A74512  11.328  17.459   6.764
 5899POPC   C3A74513  11.342  17.472   7.064
 5899POPC   C4A74514  11.309  17.489   7.364
 5899POPC   C1B74515  11.087  17.277   6.464
 5899POPC   C2B74516  11.145  17.301   6.764
 5899POPC   C3B74517  11.108  17.365   7.064
 5899POPC   C4B74518  11.153  17.370   7.364
 5900POPC   NC374519  40.750  30.728   5.564
 5900POPC   PO474520  40.764  30.649   5.864
 5900POPC   GL174521  40.739  30.686   6.164
 5900POPC   GL274522  40.679  30.828   6.164
 5900POPC   C1A74523  40.776  30.668   6.464
 5900POPC   D2A74524  40.768  30.661   6.764
 5900POPC   C3A74525  40.751  30.708   7.064
 5900POPC   C4A74526  40.736  30.745   7.364
 5900POPC   C1B74527  40.584  30.897   6.464
 5900POPC   C2B74528  40.616  30.847   6.764
 5900POPC   C3B74529  40.560  30.873   7.064
 5900POPC   C4B74530  40.623  30.836   7.364
 5901POPC   NC374531  17.544  44.670   5.564
 5901POPC   PO474532  17.496  44.654   5.864
 5901POPC   GL174533  17.468  44.636   6.164
 5901POPC   GL274534  17.645  44.568   6.164
 5901POPC   C1A74535  17.468  44.682   6.464
 5901POPC   D2A74536  17.535  44.639   6.764
 5901POPC   C3A74537  17.471  44.672   7.064
 5901POPC   C4A74538  17.537  44.659   7.364
 5901POPC   C1B74539  17.737  44.535   6.464
 5901POPC   C2B74540  17.720  44.488   6.764
 5901POPC   C3B74541  17.713  44.541   7.064
 5901POPC   C4B74542  17.747  44.521   7.364
 5902POPC   NC374543  44.631  39.265   5.564
 5902POPC   PO474544  44.624  39.259   5.864
 5902POPC   GL174545  44.677  39.277   6.164
 5902POPC   GL274546  44.605  39.151   6.164
 5902POPC   C1A74547  44.671  39.230   6.464
 5902POPC   D2A74548  44.635  39.279   6.764
 5902POPC   C3A74549  44.704  39.191   7.064
 5902POPC   C4A74550  44.645  39.248   7.364
 5902POPC   C1B74551  44.633  38.956   6.464
 5902POPC   C2B74552  44.609  38.988   6.764
 5902POPC   C3B74553  44.602  39.006   7.064
 5902POPC   C4B74554  44.623  38.945   7.364
 5903POPC   NC374555  17.516  29.188   5.564
 5903POPC   PO474556  17.548  29.166   5.864
 5903POPC   GL174557  17.487  29.135   6.164
 5903POPC   GL274558  17.580  29.015   6.164
 5903POPC   C1A74559  17.465  29.169   6.464
 5903POPC   D2A74560  17.492  29.187   6.764
 5903POPC   C3A74561  17.540  29.116   7.064
 5903POPC   C4A74562  17.507  29.118   7.364
 5903POPC   C1B74563  17.637  28.899   6.464
 5903POPC   C2B74564  17.577  28.870   6.764
 5903POPC   C3B74565  17.628  28.909   7.064
 5903POPC   C4B74566  17.618  28.891   7.364
 5904POPC   NC374567  33.816  13.615   5.564
 5904POPC   PO474568  33.775  13.599   5.864
 5904POPC   GL174569  33.840  13.591   6.164
 5904POPC   GL274570  33.876  13.492   6.164
 5904POPC   C1A74571  33.761  13.616   6.464
 5904POPC   D2A74572  33.780  13.585   6.764
 5904POPC   C3A74573  33.762  13.589   7.064
 5904POPC   C4A74574  33.839  13.647   7.364
 5904POPC   C1B74575  33.924  13.461   6.464
 5904POPC   C2B74576  34.002  13.416   6.764
 5904POPC   C3B74577  34.006  13.426   7.064
 5904POPC   C4B74578  33.970  13.449   7.364
 5905POPC   NC374579   3.583  30.648   5.564
 5905POPC   PO474580   3.528  30.662   5.864
 5905POPC   GL174581   3.517  30.656   6.164
 5905POPC   GL274582   3.428  30.610   6.164
 5905POPC   C1A74583   3.590  30.726   6.464
 5905POPC   D2A74584   3.502  30.672   6.764
 5905POPC   C3A74585   3.530  30.713   7.064
 5905POPC   C4A74586   3.532  30.647   7.364
 5905POPC   C1B74587   3.323  30.564   6.464
 5905POPC   C2B74588   3.285  30.603   6.764
 5905POPC   C3B74589   3.276  30.570   7.064
 5905POPC   C4B74590   3.329  30.632   7.364
 5906POPC   NC374591  30.713   8.196   5.564
 5906POPC   PO474592  30.678   8.221   5.864
 5906POPC   GL174593  30.739   8.246   6.164
 5906POPC   GL274594  30.837   8.268   6.164
 5906POPC   C1A74595  30.738   8.236   6.464
 5906POPC   D2A74596  30.714   8.207   6.764
 5906POPC   C3A74597  30.727   8.216   7.064
 5906POPC   C4A74598  30.675   8.208   7.364
 5906POPC   C1B74599  30.877   8.350   6.464
 5906POPC   C2B74600  30.905   8.289   6.764
 5906POPC   C3B74601  30.952   8.287   7.064
 5906POPC   C4B74602  30.907   8.315   7.364
 5907POPC   NC374603  11.345  12.027   5.564
 5907POPC   PO474604  11.333  12.030   5.864
 5907POPC   GL174605  11.281  12.051   6.164
 5907POPC   GL274606  11.220  12.187   6.164
 5907POPC   C1A74607  11.348  12.030   6.464
 5907POPC   D2A74608  11.313  12.053   6.764
 5907POPC   C3A74609  11.283  12.089   7.064
 5907POPC   C4A74610  11.264  12.097   7.364
 5907POPC   C1B74611  11.134  12.207   6.464
 5907POPC   C2B74612  11.148  12.219   6.764
 5907POPC   C3B74613  11.074  12.195   7.064
 5907POPC   C4B74614  11.130  12.225   7.364
 5908POPC   NC374615  36.900  38.453   5.564
 5908POPC   PO474616  36.875  38.422   5.864
 5908POPC   GL174617  36.917  38.456   6.164
 5908POPC   GL274618  36.965  38.411   6.164
 5908POPC   C1A74619  36.877  38.461   6.464
 5908POPC   D2A74620  36.896  38.503   6.764
 5908POPC   C3A74621  36.862  38.419   7.064
 5908POPC   C4A74622  36.881  38.418   7.364
 5908POPC   C1B74623  37.068  38.287   6.464
 5908POPC   C2B74624  37.131  38.311   6.764
 5908POPC   C3B74625  37.071  38.329   7.064
 5908POPC   C4B74626  37.139  38.284   7.364
 5909POPC   NC374627  41.594  33.003   5.564
 5909POPC   PO474628  41.607  33.018   5.864
 5909POPC   GL174629  41.567  33.002   6.164
 5909POPC   GL274630  41.518  32.854   6.164
 5909POPC   C1A74631  41.564  33.039   6.464
 5909POPC   D2A74632  41.543  32.985   6.764
 5909POPC   C3A74633  41.515  33.041   7.064
 5909POPC   C4A74634  41.580  33.012   7.364
 5909POPC   C1B74635  41.541  32.808   6.464
 5909POPC   C2B74636  41.576  32.801   6.764
 5909POPC   C3B74637  41.596  32.815   7.064
 5909POPC   C4B74638  41.571  32.751   7.364
 5910POPC   NC374639  23.709  32.213   5.564
 5910POPC   PO474640  23.702  32.277   5.864
 5910POPC   GL174641  23.674  32.227   6.164
 5910POPC   GL274642  23.755  32.194   6.164
 5910POPC   C1A74643  23.721  32.251   6.464
 5910POPC   D2A74644  23.719  32.294   6.764
 5910POPC   C3A74645  23.746  32.240   7.064
 5910POPC   C4A74646  23.741  32.204   7.364
 5910POPC   C1B74647  23.866  32.088   6.464
 5910POPC   C2B74648  23.842  32.056   6.764
 5910POPC   C3B74649  23.831  32.086   7.064
 5910POPC   C4B74650  23.842  32.048   7.364
 5911POPC   NC374651  27.626  12.868   5.564
 5911POPC   PO474652  27.561  12.830   5.864
 5911POPC   GL174653  27.596  12.879   6.164
 5911POPC   GL274654  27.696  12.764   6.164
 5911POPC   C1A74655  27.630  12.839   6.464
 5911POPC   D2A74656  27.622  12.829   6.764
 5911POPC   C3A74657  27.593  12.874   7.064
 5911POPC   C4A74658  27.595  12.859   7.364
 5911POPC   C1B74659  27.757  12.659   6.464
 5911POPC   C2B74660  27.767  12.690   6.764
 5911POPC   C3B74661  27.780  12.644   7.064
 5911POPC   C4B74662  27.721  12.721   7.364
 5912POPC   NC374663  15.906   2.812   5.564
 5912POPC   PO474664  15.944   2.776   5.864
 5912POPC   GL174665  15.946   2.740   6.164
 5912POPC   GL274666  15.846   2.649   6.164
 5912POPC   C1A74667  15.979   2.727   6.464
 5912POPC   D2A74668  15.948   2.778   6.764
 5912POPC   C3A74669  15.959   2.733   7.064
 5912POPC   C4A74670  15.949   2.812   7.364
 5912POPC   C1B74671  15.758   2.624   6.464
 5912POPC   C2B74672  15.758   2.622   6.764
 5912POPC   C3B74673  15.777   2.584   7.064
 5912POPC   C4B74674  15.765   2.654   7.364
 5913POPC   NC374675  33.848   6.644   5.564
 5913POPC   PO474676  33.790   6.612   5.864
 5913POPC   GL174677  33.751   6.596   6.164
 5913POPC   GL274678  33.787   6.501   6.164
 5913POPC   C1A74679  33.803   6.683   6.464
 5913POPC   D2A74680  33.840   6.599   6.764
 5913POPC   C3A74681  33.768   6.639   7.064
 5913POPC   C4A74682  33.840   6.632   7.364
 5913POPC   C1B74683  33.839   6.379   6.464
 5913POPC   C2B74684  33.823   6.423   6.764
 5913POPC   C3B74685  33.860   6.348   7.064
 5913POPC   C4B74686  33.789   6.385   7.364
 5914POPC   NC374687  30.655  32.989   5.564
 5914POPC   PO474688  30.727  32.990   5.864
 5914POPC   GL174689  30.701  33.061   6.164
 5914POPC   GL274690  30.590  33.109   6.164
 5914POPC   C1A74691  30.657  33.033   6.464
 5914POPC   D2A74692  30.650  33.005   6.764
 5914POPC   C3A74693  30.732  32.980   7.064
 5914POPC   C4A74694  30.711  33.056   7.364
 5914POPC   C1B74695  30.563  33.276   6.464
 5914POPC   C2B74696  30.573  33.221   6.764
 5914POPC   C3B74697  30.561  33.279   7.064
 5914POPC   C4B74698  30.578  33.208   7.364
 5915POPC   NC374699  37.704   2.783   5.564
 5915POPC   PO474700  37.635   2.796   5.864
 5915POPC   GL174701  37.693   2.777   6.164
 5915POPC   GL274702  37.541   2.745   6.164
 5915POPC   C1A74703  37.685   2.740   6.464
 5915POPC   D2A74704  37.665   2.770   6.764
 5915POPC   C3A74705  37.707   2.726   7.064
 5915POPC   C4A74706  37.727   2.783   7.364
 5915POPC   C1B74707  37.478   2.644   6.464
 5915POPC   C2B74708  37.409   2.646   6.764
 5915POPC   C3B74709  37.478   2.679   7.064
 5915POPC   C4B74710  37.473   2.642   7.364
 5916POPC   NC374711  36.112  25.282   5.564
 5916POPC   PO474712  36.151  25.231   5.864
 5916POPC   GL174713  36.085  25.296   6.164
 5916POPC   GL274714  36.042  25.371   6.164
 5916POPC   C1A74715  36.087  25.220   6.464
 5916POPC   D2A74716  36.125  25.217   6.764
 5916POPC   C3A74717  36.168  25.281   7.064
 5916POPC   C4A74718  36.133  25.218   7.364
 5916POPC   C1B74719  35.910  25.388   6.464
 5916POPC   C2B74720  35.885  25.370   6.764
 5916POPC   C3B74721  35.903  25.362   7.064
 5916POPC   C4B74722  35.884  25.391   7.364
 5917POPC   NC374723  40.007   2.763   5.564
 5917POPC   PO474724  40.051   2.730   5.864
 5917POPC   GL174725  39.993   2.728   6.164
 5917POPC   GL274726  39.855   2.829   6.164
 5917POPC   C1A74727  39.968   2.716   6.464
 5917POPC   D2A74728  40.032   2.773   6.764
 5917POPC   C3A74729  40.018   2.746   7.064
 5917POPC   C4A74730  40.051   2.738   7.364
 5917POPC   C1B74731  39.767   2.821   6.464
 5917POPC   C2B74732  39.737   2.844   6.764
 5917POPC   C3B74733  39.789   2.780   7.064
 5917POPC   C4B74734  39.784   2.828   7.364
 5918POPC   NC374735   3.531   0.438   5.564
 5918POPC   PO474736   3.547   0.475   5.864
 5918POPC   GL174737   3.513   0.444   6.164
 5918POPC   GL274738   3.664   0.512   6.164
 5918POPC   C1A74739   3.549   0.458   6.464
 5918POPC   D2A74740   3.494   0.409   6.764
 5918POPC   C3A74741   3.566   0.388   7.064
 5918POPC   C4A74742   3.563   0.410   7.364
 5918POPC   C1B74743   3.668   0.590   6.464
 5918POPC   C2B74744   3.688   0.668   6.764
 5918POPC   C3B74745   3.666   0.579   7.064
 5918POPC   C4B74746   3.739   0.620   7.364
 5919POPC   NC374747  10.567  14.367   5.564
 5919POPC   PO474748  10.568  14.383   5.864
 5919POPC   GL174749  10.536  14.392   6.164
 5919POPC   GL274750  10.659  14.386   6.164
 5919POPC   C1A74751  10.500  14.404   6.464
 5919POPC   D2A74752  10.557  14.401   6.764
 5919POPC   C3A74753  10.544  14.394   7.064
 5919POPC   C4A74754  10.501  14.392   7.364
 5919POPC   C1B74755  10.761  14.247   6.464
 5919POPC   C2B74756  10.723  14.302   6.764
 5919POPC   C3B74757  10.701  14.269   7.064
 5919POPC   C4B74758  10.706  14.297   7.364
 5920POPC   NC374759  29.889  29.971   5.564
 5920POPC   PO474760  29.928  29.910   5.864
 5920POPC   GL174761  29.969  29.959   6.164
 5920POPC   GL274762  30.010  29.931   6.164
 5920POPC   C1A74763  29.908  29.909   6.464
 5920POPC   D2A74764  29.937  29.967   6.764
 5920POPC   C3A74765  29.906  29.879   7.064
 5920POPC   C4A74766  29.896  29.881   7.364
 5920POPC   C1B74767  30.167  30.035   6.464
 5920POPC   C2B74768  30.173  30.007   6.764
 5920POPC   C3B74769  30.159  29.991   7.064
 5920POPC   C4B74770  30.151  30.047   7.364
 5921POPC   NC374771  43.898  39.267   5.564
 5921POPC   PO474772  43.887  39.187   5.864
 5921POPC   GL174773  43.861  39.272   6.164
 5921POPC   GL274774  43.835  39.342   6.164
 5921POPC   C1A74775  43.912  39.228   6.464
 5921POPC   D2A74776  43.934  39.229   6.764
 5921POPC   C3A74777  43.844  39.258   7.064
 5921POPC   C4A74778  43.854  39.192   7.364
 5921POPC   C1B74779  43.703  39.438   6.464
 5921POPC   C2B74780  43.721  39.392   6.764
 5921POPC   C3B74781  43.729  39.422   7.064
 5921POPC   C4B74782  43.707  39.429   7.364
 5922POPC   NC374783  26.018  13.661   5.564
 5922POPC   PO474784  26.006  13.594   5.864
 5922POPC   GL174785  25.994  13.658   6.164
 5922POPC   GL274786  26.011  13.519   6.164
 5922POPC   C1A74787  26.063  13.654   6.464
 5922POPC   D2A74788  26.063  13.632   6.764
 5922POPC   C3A74789  26.061  13.602   7.064
 5922POPC   C4A74790  26.004  13.634   7.364
 5922POPC   C1B74791  26.016  13.403   6.464
 5922POPC   C2B74792  25.992  13.420   6.764
 5922POPC   C3B74793  25.988  13.339   7.064
 5922POPC   C4B74794  26.034  13.374   7.364
 5923POPC   NC374795  43.090  36.156   5.564
 5923POPC   PO474796  43.094  36.145   5.864
 5923POPC   GL174797  43.061  36.129   6.164
 5923POPC   GL274798  43.023  36.035   6.164
 5923POPC   C1A74799  43.109  36.078   6.464
 5923POPC   D2A74800  43.142  36.169   6.764
 5923POPC   C3A74801  43.148  36.089   7.064
 5923POPC   C4A74802  43.112  36.162   7.364
 5923POPC   C1B74803  42.858  35.997   6.464
 5923POPC   C2B74804  42.907  36.032   6.764
 5923POPC   C3B74805  42.949  35.991   7.064
 5923POPC   C4B74806  42.917  36.002   7.364
 5924POPC   NC374807  32.993  13.668   5.564
 5924POPC   PO474808  33.049  13.619   5.864
 5924POPC   GL174809  32.999  13.578   6.164
 5924POPC   GL274810  33.073  13.744   6.164
 5924POPC   C1A74811  32.987  13.611   6.464
 5924POPC   D2A74812  33.073  13.609   6.764
 5924POPC   C3A74813  32.976  13.610   7.064
 5924POPC   C4A74814  33.074  13.613   7.364
 5924POPC   C1B74815  33.111  13.890   6.464
 5924POPC   C2B74816  33.029  13.867   6.764
 5924POPC   C3B74817  33.092  13.900   7.064
 5924POPC   C4B74818  33.098  13.886   7.364
 5925POPC   NC374819  43.142  13.587   5.564
 5925POPC   PO474820  43.114  13.584   5.864
 5925POPC   GL174821  43.114  13.591   6.164
 5925POPC   GL274822  43.254  13.563   6.164
 5925POPC   C1A74823  43.092  13.655   6.464
 5925POPC   D2A74824  43.065  13.637   6.764
 5925POPC   C3A74825  43.061  13.611   7.064
 5925POPC   C4A74826  43.073  13.674   7.364
 5925POPC   C1B74827  43.339  13.563   6.464
 5925POPC   C2B74828  43.375  13.509   6.764
 5925POPC   C3B74829  43.377  13.532   7.064
 5925POPC   C4B74830  43.297  13.502   7.364
 5926POPC   NC374831  24.467  21.380   5.564
 5926POPC   PO474832  24.460  21.377   5.864
 5926POPC   GL174833  24.466  21.424   6.164
 5926POPC   GL274834  24.396  21.295   6.164
 5926POPC   C1A74835  24.477  21.381   6.464
 5926POPC   D2A74836  24.489  21.404   6.764
 5926POPC   C3A74837  24.472  21.337   7.064
 5926POPC   C4A74838  24.534  21.434   7.364
 5926POPC   C1B74839  24.407  21.173   6.464
 5926POPC   C2B74840  24.353  21.208   6.764
 5926POPC   C3B74841  24.335  21.197   7.064
 5926POPC   C4B74842  24.368  21.141   7.364
 5927POPC   NC374843  36.952  37.647   5.564
 5927POPC   PO474844  36.857  37.652   5.864
 5927POPC   GL174845  36.872  37.683   6.164
 5927POPC   GL274846  36.970  37.779   6.164
 5927POPC   C1A74847  36.941  37.663   6.464
 5927POPC   D2A74848  36.951  37.680   6.764
 5927POPC   C3A74849  36.915  37.652   7.064
 5927POPC   C4A74850  36.927  37.651   7.364
 5927POPC   C1B74851  37.071  37.788   6.464
 5927POPC   C2B74852  37.137  37.852   6.764
 5927POPC   C3B74853  37.137  37.816   7.064
 5927POPC   C4B74854  37.110  37.847   7.364
 5928POPC   NC374855   0.427  30.721   5.564
 5928POPC   PO474856   0.399  30.714   5.864
 5928POPC   GL174857   0.440  30.675   6.164
 5928POPC   GL274858   0.349  30.619   6.164
 5928POPC   C1A74859   0.482  30.673   6.464
 5928POPC   D2A74860   0.438  30.694   6.764
 5928POPC   C3A74861   0.473  30.715   7.064
 5928POPC   C4A74862   0.404  30.725   7.364
 5928POPC   C1B74863   0.251  30.552   6.464
 5928POPC   C2B74864   0.207  30.554   6.764
 5928POPC   C3B74865   0.235  30.572   7.064
 5928POPC   C4B74866   0.171  30.608   7.364
 5929POPC   NC374867   9.786  23.708   5.564
 5929POPC   PO474868   9.784  23.761   5.864
 5929POPC   GL174869   9.713  23.686   6.164
 5929POPC   GL274870   9.589  23.759   6.164
 5929POPC   C1A74871   9.750  23.741   6.464
 5929POPC   D2A74872   9.753  23.677   6.764
 5929POPC   C3A74873   9.708  23.686   7.064
 5929POPC   C4A74874   9.749  23.708   7.364
 5929POPC   C1B74875   9.464  23.780   6.464
 5929POPC   C2B74876   9.538  23.773   6.764
 5929POPC   C3B74877   9.501  23.740   7.064
 5929POPC   C4B74878   9.469  23.784   7.364
 5930POPC   NC374879  22.975   7.467   5.564
 5930POPC   PO474880  22.963   7.410   5.864
 5930POPC   GL174881  22.946   7.392   6.164
 5930POPC   GL274882  23.086   7.329   6.164
 5930POPC   C1A74883  22.915   7.391   6.464
 5930POPC   D2A74884  22.912   7.470   6.764
 5930POPC   C3A74885  22.965   7.451   7.064
 5930POPC   C4A74886  22.927   7.380   7.364
 5930POPC   C1B74887  23.185   7.339   6.464
 5930POPC   C2B74888  23.179   7.348   6.764
 5930POPC   C3B74889  23.133   7.279   7.064
 5930POPC   C4B74890  23.145   7.282   7.364
 5931POPC   NC374891  29.964  43.113   5.564
 5931POPC   PO474892  29.871  43.137   5.864
 5931POPC   GL174893  29.942  43.094   6.164
 5931POPC   GL274894  30.070  43.027   6.164
 5931POPC   C1A74895  29.906  43.142   6.464
 5931POPC   D2A74896  29.918  43.061   6.764
 5931POPC   C3A74897  29.897  43.101   7.064
 5931POPC   C4A74898  29.889  43.086   7.364
 5931POPC   C1B74899  30.148  43.001   6.464
 5931POPC   C2B74900  30.170  42.990   6.764
 5931POPC   C3B74901  30.089  42.994   7.064
 5931POPC   C4B74902  30.092  42.961   7.364
 5932POPC   NC374903  16.718  19.869   5.564
 5932POPC   PO474904  16.742  19.827   5.864
 5932POPC   GL174905  16.716  19.848   6.164
 5932POPC   GL274906  16.625  19.760   6.164
 5932POPC   C1A74907  16.729  19.792   6.464
 5932POPC   D2A74908  16.725  19.882   6.764
 5932POPC   C3A74909  16.685  19.812   7.064
 5932POPC   C4A74910  16.736  19.800   7.364
 5932POPC   C1B74911  16.511  19.665   6.464
 5932POPC   C2B74912  16.522  19.719   6.764
 5932POPC   C3B74913  16.522  19.642   7.064
 5932POPC   C4B74914  16.525  19.677   7.364
 5933POPC   NC374915  17.478  40.029   5.564
 5933POPC   PO474916  17.486  40.054   5.864
 5933POPC   GL174917  17.550  39.975   6.164
 5933POPC   GL274918  17.421  40.076   6.164
 5933POPC   C1A74919  17.557  40.052   6.464
 5933POPC   D2A74920  17.508  40.039   6.764
 5933POPC   C3A74921  17.538  39.990   7.064
 5933POPC   C4A74922  17.498  39.999   7.364
 5933POPC   C1B74923  17.343  40.172   6.464
 5933POPC   C2B74924  17.360  40.225   6.764
 5933POPC   C3B74925  17.374  40.150   7.064
 5933POPC   C4B74926  17.331  40.228   7.364
 5934POPC   NC374927   8.155  24.479   5.564
 5934POPC   PO474928   8.223  24.485   5.864
 5934POPC   GL174929   8.211  24.503   6.164
 5934POPC   GL274930   8.317  24.444   6.164
 5934POPC   C1A74931   8.156  24.491   6.464
 5934POPC   D2A74932   8.214  24.456   6.764
 5934POPC   C3A74933   8.225  24.529   7.064
 5934POPC   C4A74934   8.217  24.502   7.364
 5934POPC   C1B74935   8.400  24.510   6.464
 5934POPC   C2B74936   8.397  24.456   6.764
 5934POPC   C3B74937   8.464  24.467   7.064
 5934POPC   C4B74938   8.409  24.479   7.364
 5935POPC   NC374939   5.904  28.364   5.564
 5935POPC   PO474940   5.866  28.359   5.864
 5935POPC   GL174941   5.860  28.400   6.164
 5935POPC   GL274942   5.781  28.254   6.164
 5935POPC   C1A74943   5.820  28.340   6.464
 5935POPC   D2A74944   5.863  28.389   6.764
 5935POPC   C3A74945   5.884  28.354   7.064
 5935POPC   C4A74946   5.863  28.336   7.364
 5935POPC   C1B74947   5.683  28.224   6.464
 5935POPC   C2B74948   5.669  28.270   6.764
 5935POPC   C3B74949   5.693  28.195   7.064
 5935POPC   C4B74950   5.615  28.203   7.364
 5936POPC   NC374951  31.423  28.327   5.564
 5936POPC   PO474952  31.460  28.323   5.864
 5936POPC   GL174953  31.500  28.341   6.164
 5936POPC   GL274954  31.475  28.444   6.164
 5936POPC   C1A74955  31.506  28.373   6.464
 5936POPC   D2A74956  31.474  28.409   6.764
 5936POPC   C3A74957  31.453  28.401   7.064
 5936POPC   C4A74958  31.485  28.343   7.364
 5936POPC   C1B74959  31.517  28.665   6.464
 5936POPC   C2B74960  31.464  28.600   6.764
 5936POPC   C3B74961  31.493  28.615   7.064
 5936POPC   C4B74962  31.510  28.571   7.364
 5937POPC   NC374963  26.800  19.857   5.564
 5937POPC   PO474964  26.776  19.854   5.864
 5937POPC   GL174965  26.866  19.808   6.164
 5937POPC   GL274966  26.931  19.833   6.164
 5937POPC   C1A74967  26.835  19.813   6.464
 5937POPC   D2A74968  26.859  19.820   6.764
 5937POPC   C3A74969  26.832  19.840   7.064
 5937POPC   C4A74970  26.824  19.869   7.364
 5937POPC   C1B74971  27.021  19.828   6.464
 5937POPC   C2B74972  27.078  19.795   6.764
 5937POPC   C3B74973  27.039  19.842   7.064
 5937POPC   C4B74974  27.081  19.824   7.364
 5938POPC   NC374975  22.165  23.726   5.564
 5938POPC   PO474976  22.168  23.745   5.864
 5938POPC   GL174977  22.144  23.734   6.164
 5938POPC   GL274978  22.003  23.800   6.164
 5938POPC   C1A74979  22.155  23.668   6.464
 5938POPC   D2A74980  22.187  23.705   6.764
 5938POPC   C3A74981  22.132  23.751   7.064
 5938POPC   C4A74982  22.139  23.685   7.364
 5938POPC   C1B74983  21.897  23.865   6.464
 5938POPC   C2B74984  21.953  23.808   6.764
 5938POPC   C3B74985  21.948  23.843   7.064
 5938POPC   C4B74986  21.919  23.866   7.364
 5939POPC   NC374987  13.674  20.580   5.564
 5939POPC   PO474988  13.652  20.575   5.864
 5939POPC   GL174989  13.594  20.600   6.164
 5939POPC   GL274990  13.773  20.612   6.164
 5939POPC   C1A74991  13.627  20.598   6.464
 5939POPC   D2A74992  13.640  20.645   6.764
 5939POPC   C3A74993  13.644  20.588   7.064
 5939POPC   C4A74994  13.584  20.595   7.364
 5939POPC   C1B74995  13.907  20.625   6.464
 5939POPC   C2B74996  13.834  20.675   6.764
 5939POPC   C3B74997  13.871  20.628   7.064
 5939POPC   C4B74998  13.907  20.684   7.364
 5940POPC   NC374999  38.488  34.546   5.564
 5940POPC   PO475000  38.485  34.576   5.864
 5940POPC   GL175001  38.491  34.612   6.164
 5940POPC   GL275002  38.420  34.663   6.164
 5940POPC   C1A75003  38.440  34.596   6.464
 5940POPC   D2A75004  38.406  34.576   6.764
 5940POPC   C3A75005  38.454  34.550   7.064
 5940POPC   C4A75006  38.449  34.597   7.364
 5940POPC   C1B75007  38.492  34.834   6.464
 5940POPC   C2B75008  38.452  34.845   6.764
 5940POPC   C3B75009  38.421  34.851   7.064
 5940POPC   C4B75010  38.471  34.795   7.364
 5941POPC   NC375011  36.867  31.464   5.564
 5941POPC   PO475012  36.861  31.511   5.864
 5941POPC   GL175013  36.901  31.510   6.164
 5941POPC   GL275014  36.958  31.544   6.164
 5941POPC   C1A75015  36.946  31.477   6.464
 5941POPC   D2A75016  36.872  31.477   6.764
 5941POPC   C3A75017  36.914  31.465   7.064
 5941POPC   C4A75018  36.934  31.513   7.364
 5941POPC   C1B75019  37.097  31.601   6.464
 5941POPC   C2B75020  37.145  31.646   6.764
 5941POPC   C3B75021  37.102  31.587   7.064
 5941POPC   C4B75022  37.078  31.609   7.364
 5942POPC   NC375023   5.906  10.555   5.564
 5942POPC   PO475024   5.876  10.499   5.864
 5942POPC   GL175025   5.866  10.522   6.164
 5942POPC   GL275026   5.711  10.632   6.164
 5942POPC   C1A75027   5.855  10.547   6.464
 5942POPC   D2A75028   5.845  10.541   6.764
 5942POPC   C3A75029   5.908  10.573   7.064
 5942POPC   C4A75030   5.839  10.573   7.364
 5942POPC   C1B75031   5.697  10.616   6.464
 5942POPC   C2B75032   5.658  10.646   6.764
 5942POPC   C3B75033   5.669  10.609   7.064
 5942POPC   C4B75034   5.629  10.623   7.364
 5943POPC   NC375035   8.236  20.615   5.564
 5943POPC   PO475036   8.161  20.646   5.864
 5943POPC   GL175037   8.173  20.648   6.164
 5943POPC   GL275038   8.326  20.619   6.164
 5943POPC   C1A75039   8.220  20.647   6.464
 5943POPC   D2A75040   8.183  20.582   6.764
 5943POPC   C3A75041   8.185  20.599   7.064
 5943POPC   C4A75042   8.218  20.577   7.364
 5943POPC   C1B75043   8.417  20.596   6.464
 5943POPC   C2B75044   8.430  20.589   6.764
 5943POPC   C3B75045   8.467  20.599   7.064
 5943POPC   C4B75046   8.483  20.630   7.364
 5944POPC   NC375047   3.557  41.573   5.564
 5944POPC   PO475048   3.573  41.584   5.864
 5944POPC   GL175049   3.565  41.606   6.164
 5944POPC   GL275050   3.491  41.482   6.164
 5944POPC   C1A75051   3.508  41.576   6.464
 5944POPC   D2A75052   3.576  41.598   6.764
 5944POPC   C3A75053   3.498  41.555   7.064
 5944POPC   C4A75054   3.580  41.537   7.364
 5944POPC   C1B75055   3.517  41.276   6.464
 5944POPC   C2B75056   3.556  41.299   6.764
 5944POPC   C3B75057   3.529  41.332   7.064
 5944POPC   C4B75058   3.531  41.311   7.364
 5945POPC   NC375059   5.116  19.088   5.564
 5945POPC   PO475060   5.043  19.026   5.864
 5945POPC   GL175061   5.071  19.028   6.164
 5945POPC   GL275062   5.262  19.043   6.164
 5945POPC   C1A75063   5.082  19.053   6.464
 5945POPC   D2A75064   5.137  19.076   6.764
 5945POPC   C3A75065   5.061  19.108   7.064
 5945POPC   C4A75066   5.140  19.097   7.364
 5945POPC   C1B75067   5.333  19.018   6.464
 5945POPC   C2B75068   5.325  18.986   6.764
 5945POPC   C3B75069   5.350  18.982   7.064
 5945POPC   C4B75070   5.311  19.010   7.364
 5946POPC   NC375071  21.369  36.118   5.564
 5946POPC   PO475072  21.339  36.167   5.864
 5946POPC   GL175073  21.406  36.097   6.164
 5946POPC   GL275074  21.441  36.226   6.164
 5946POPC   C1A75075  21.421  36.153   6.464
 5946POPC   D2A75076  21.382  36.097   6.764
 5946POPC   C3A75077  21.345  36.149   7.064
 5946POPC   C4A75078  21.392  36.081   7.364
 5946POPC   C1B75079  21.513  36.290   6.464
 5946POPC   C2B75080  21.530  36.315   6.764
 5946POPC   C3B75081  21.541  36.345   7.064
 5946POPC   C4B75082  21.571  36.329   7.364
 5947POPC   NC375083  25.224  43.081   5.564
 5947POPC   PO475084  25.245  43.139   5.864
 5947POPC   GL175085  25.266  43.154   6.164
 5947POPC   GL275086  25.117  42.986   6.164
 5947POPC   C1A75087  25.281  43.157   6.464
 5947POPC   D2A75088  25.217  43.147   6.764
 5947POPC   C3A75089  25.243  43.131   7.064
 5947POPC   C4A75090  25.292  43.093   7.364
 5947POPC   C1B75091  25.116  42.946   6.464
 5947POPC   C2B75092  25.050  42.964   6.764
 5947POPC   C3B75093  25.055  42.912   7.064
 5947POPC   C4B75094  25.037  42.973   7.364
 5948POPC   NC375095  29.195   9.016   5.564
 5948POPC   PO475096  29.165   8.973   5.864
 5948POPC   GL175097  29.175   9.014   6.164
 5948POPC   GL275098  29.097   8.888   6.164
 5948POPC   C1A75099  29.141   8.968   6.464
 5948POPC   D2A75100  29.112   8.955   6.764
 5948POPC   C3A75101  29.192   8.979   7.064
 5948POPC   C4A75102  29.154   8.991   7.364
 5948POPC   C1B75103  29.093   8.689   6.464
 5948POPC   C2B75104  29.127   8.728   6.764
 5948POPC   C3B75105  29.112   8.767   7.064
 5948POPC   C4B75106  29.118   8.705   7.364
 5949POPC   NC375107  27.596  13.631   5.564
 5949POPC   PO475108  27.600  13.607   5.864
 5949POPC   GL175109  27.589  13.591   6.164
 5949POPC   GL275110  27.482  13.575   6.164
 5949POPC   C1A75111  27.633  13.654   6.464
 5949POPC   D2A75112  27.609  13.673   6.764
 5949POPC   C3A75113  27.615  13.579   7.064
 5949POPC   C4A75114  27.626  13.652   7.364
 5949POPC   C1B75115  27.387  13.561   6.464
 5949POPC   C2B75116  27.393  13.622   6.764
 5949POPC   C3B75117  27.302  13.569   7.064
 5949POPC   C4B75118  27.310  13.643   7.364
 5950POPC   NC375119   0.400  21.395   5.564
 5950POPC   PO475120   0.458  21.338   5.864
 5950POPC   GL175121   0.411  21.428   6.164
 5950POPC   GL275122   0.324  21.390   6.164
 5950POPC   C1A75123   0.399  21.402   6.464
 5950POPC   D2A75124   0.449  21.380   6.764
 5950POPC   C3A75125   0.418  21.353   7.064
 5950POPC   C4A75126   0.454  21.398   7.364
 5950POPC   C1B75127   0.201  21.380   6.464
 5950POPC   C2B75128   0.209  21.396   6.764
 5950POPC   C3B75129   0.232  21.373   7.064
 5950POPC   C4B75130   0.212  21.343   7.364
 5951POPC   NC375131  19.818  41.554   5.564
 5951POPC   PO475132  19.838  41.603   5.864
 5951POPC   GL175133  19.823  41.510   6.164
 5951POPC   GL275134  19.751  41.716   6.164
 5951POPC   C1A75135  19.848  41.512   6.464
 5951POPC   D2A75136  19.786  41.519   6.764
 5951POPC   C3A75137  19.816  41.541   7.064
 5951POPC   C4A75138  19.817  41.598   7.364
 5951POPC   C1B75139  19.733  41.756   6.464
 5951POPC   C2B75140  19.759  41.780   6.764
 5951POPC   C3B75141  19.767  41.764   7.064
 5951POPC   C4B75142  19.696  41.778   7.364
 5952POPC   NC375143  16.699  33.047   5.564
 5952POPC   PO475144  16.746  33.022   5.864
 5952POPC   GL175145  16.697  33.065   6.164
 5952POPC   GL275146  16.838  33.031   6.164
 5952POPC   C1A75147  16.763  33.057   6.464
 5952POPC   D2A75148  16.743  32.998   6.764
 5952POPC   C3A75149  16.689  32.988   7.064
 5952POPC   C4A75150  16.686  33.017   7.364
 5952POPC   C1B75151  16.988  33.003   6.464
 5952POPC   C2B75152  16.971  33.045   6.764
 5952POPC   C3B75153  16.990  33.017   7.064
 5952POPC   C4B75154  17.009  33.014   7.364
 5953POPC   NC375155  38.431   1.236   5.564
 5953POPC   PO475156  38.488   1.234   5.864
 5953POPC   GL175157  38.463   1.220   6.164
 5953POPC   GL275158  38.571   1.224   6.164
 5953POPC   C1A75159  38.407   1.193   6.464
 5953POPC   D2A75160  38.489   1.255   6.764
 5953POPC   C3A75161  38.503   1.230   7.064
 5953POPC   C4A75162  38.411   1.196   7.364
 5953POPC   C1B75163  38.674   1.232   6.464
 5953POPC   C2B75164  38.677   1.239   6.764
 5953POPC   C3B75165  38.714   1.247   7.064
 5953POPC   C4B75166  38.697   1.210   7.364
 5954POPC   NC375167   1.958  15.953   5.564
 5954POPC   PO475168   2.014  15.907   5.864
 5954POPC   GL175169   1.989  15.931   6.164
 5954POPC   GL275170   1.999  15.843   6.164
 5954POPC   C1A75171   1.975  15.965   6.464
 5954POPC   D2A75172   1.977  15.966   6.764
 5954POPC   C3A75173   2.015  15.999   7.064
 5954POPC   C4A75174   1.990  15.951   7.364
 5954POPC   C1B75175   1.912  15.677   6.464
 5954POPC   C2B75176   1.979  15.679   6.764
 5954POPC   C3B75177   1.993  15.675   7.064
 5954POPC   C4B75178   1.977  15.743   7.364
 5955POPC   NC375179  24.453  19.803   5.564
 5955POPC   PO475180  24.530  19.831   5.864
 5955POPC   GL175181  24.529  19.803   6.164
 5955POPC   GL275182  24.392  19.718   6.164
 5955POPC   C1A75183  24.488  19.875   6.464
 5955POPC   D2A75184  24.534  19.848   6.764
 5955POPC   C3A75185  24.501  19.829   7.064
 5955POPC   C4A75186  24.466  19.824   7.364
 5955POPC   C1B75187  24.275  19.724   6.464
 5955POPC   C2B75188  24.273  19.649   6.764
 5955POPC   C3B75189  24.282  19.690   7.064
 5955POPC   C4B75190  24.304  19.681   7.364
 5956POPC   NC375191   8.963  36.898   5.564
 5956POPC   PO475192   8.933  36.901   5.864
 5956POPC   GL175193   8.991  36.922   6.164
 5956POPC   GL275194   8.962  37.053   6.164
 5956POPC   C1A75195   8.924  36.911   6.464
 5956POPC   D2A75196   8.935  36.936   6.764
 5956POPC   C3A75197   8.946  36.912   7.064
 5956POPC   C4A75198   8.997  36.892   7.364
 5956POPC   C1B75199   9.051  37.181   6.464
 5956POPC   C2B75200   9.049  37.185   6.764
 5956POPC   C3B75201   9.044  37.127   7.064
 5956POPC   C4B75202   9.060  37.138   7.364
 5957POPC   NC375203  26.854  23.743   5.564
 5957POPC   PO475204  26.858  23.729   5.864
 5957POPC   GL175205  26.852  23.703   6.164
 5957POPC   GL275206  26.920  23.799   6.164
 5957POPC   C1A75207  26.816  23.677   6.464
 5957POPC   D2A75208  26.826  23.686   6.764
 5957POPC   C3A75209  26.795  23.710   7.064
 5957POPC   C4A75210  26.858  23.677   7.364
 5957POPC   C1B75211  27.054  23.813   6.464
 5957POPC   C2B75212  27.069  23.846   6.764
 5957POPC   C3B75213  27.027  23.877   7.064
 5957POPC   C4B75214  27.061  23.802   7.364
 5958POPC   NC375215  22.145  20.619   5.564
 5958POPC   PO475216  22.123  20.594   5.864
 5958POPC   GL175217  22.207  20.565   6.164
 5958POPC   GL275218  22.063  20.490   6.164
 5958POPC   C1A75219  22.116  20.619   6.464
 5958POPC   D2A75220  22.158  20.642   6.764
 5958POPC   C3A75221  22.196  20.655   7.064
 5958POPC   C4A75222  22.118  20.579   7.364
 5958POPC   C1B75223  21.965  20.496   6.464
 5958POPC   C2B75224  21.948  20.448   6.764
 5958POPC   C3B75225  21.975  20.486   7.064
 5958POPC   C4B75226  21.966  20.457   7.364
 5959POPC   NC375227  25.282   0.423   5.564
 5959POPC   PO475228  25.236   0.479   5.864
 5959POPC   GL175229  25.264   0.485   6.164
 5959POPC   GL275230  25.175   0.528   6.164
 5959POPC   C1A75231  25.275   0.405   6.464
 5959POPC   D2A75232  25.244   0.415   6.764
 5959POPC   C3A75233  25.255   0.392   7.064
 5959POPC   C4A75234  25.284   0.475   7.364
 5959POPC   C1B75235  25.072   0.652   6.464
 5959POPC   C2B75236  25.097   0.674   6.764
 5959POPC   C3B75237  25.064   0.636   7.064
 5959POPC   C4B75238  25.062   0.597   7.364
 5960POPC   NC375239  26.791  17.540   5.564
 5960POPC   PO475240  26.813  17.512   5.864
 5960POPC   GL175241  26.829  17.527   6.164
 5960POPC   GL275242  26.942  17.437   6.164
 5960POPC   C1A75243  26.773  17.460   6.464
 5960POPC   D2A75244  26.856  17.467   6.764
 5960POPC   C3A75245  26.793  17.520   7.064
 5960POPC   C4A75246  26.797  17.537   7.364
 5960POPC   C1B75247  26.970  17.351   6.464
 5960POPC   C2B75248  26.974  17.349   6.764
 5960POPC   C3B75249  26.995  17.295   7.064
 5960POPC   C4B75250  27.020  17.308   7.364
 5961POPC   NC375251  33.847   4.277   5.564
 5961POPC   PO475252  33.833   4.276   5.864
 5961POPC   GL175253  33.846   4.274   6.164
 5961POPC   GL275254  33.944   4.335   6.164
 5961POPC   C1A75255  33.768   4.314   6.464
 5961POPC   D2A75256  33.761   4.292   6.764
 5961POPC   C3A75257  33.820   4.322   7.064
 5961POPC   C4A75258  33.849   4.317   7.364
 5961POPC   C1B75259  33.978   4.456   6.464
 5961POPC   C2B75260  33.998   4.489   6.764
 5961POPC   C3B75261  33.985   4.468   7.064
 5961POPC   C4B75262  34.028   4.403   7.364
 5962POPC   NC375263  30.712  20.565   5.564
 5962POPC   PO475264  30.658  20.591   5.864
 5962POPC   GL175265  30.696  20.632   6.164
 5962POPC   GL275266  30.806  20.610   6.164
 5962POPC   C1A75267  30.699  20.566   6.464
 5962POPC   D2A75268  30.710  20.588   6.764
 5962POPC   C3A75269  30.674  20.582   7.064
 5962POPC   C4A75270  30.664  20.585   7.364
 5962POPC   C1B75271  30.928  20.663   6.464
 5962POPC   C2B75272  30.915  20.697   6.764
 5962POPC   C3B75273  30.889  20.749   7.064
 5962POPC   C4B75274  30.932  20.721   7.364
 5963POPC   NC375275  32.286  43.850   5.564
 5963POPC   PO475276  32.290  43.874   5.864
 5963POPC   GL175277  32.210  43.884   6.164
 5963POPC   GL275278  32.365  43.842   6.164
 5963POPC   C1A75279  32.232  43.913   6.464
 5963POPC   D2A75280  32.258  43.887   6.764
 5963POPC   C3A75281  32.256  43.922   7.064
 5963POPC   C4A75282  32.292  43.879   7.364
 5963POPC   C1B75283  32.449  43.761   6.464
 5963POPC   C2B75284  32.472  43.753   6.764
 5963POPC   C3B75285  32.431  43.797   7.064
 5963POPC   C4B75286  32.517  43.729   7.364
 5964POPC   NC375287  36.953  30.663   5.564
 5964POPC   PO475288  36.904  30.667   5.864
 5964POPC   GL175289  36.899  30.727   6.164
 5964POPC   GL275290  36.797  30.750   6.164
 5964POPC   C1A75291  36.866  30.728   6.464
 5964POPC   D2A75292  36.888  30.652   6.764
 5964POPC   C3A75293  36.916  30.676   7.064
 5964POPC   C4A75294  36.923  30.734   7.364
 5964POPC   C1B75295  36.759  30.896   6.464
 5964POPC   C2B75296  36.718  30.922   6.764
 5964POPC   C3B75297  36.722  30.842   7.064
 5964POPC   C4B75298  36.697  30.877   7.364
 5965POPC   NC375299   3.582  18.319   5.564
 5965POPC   PO475300   3.510  18.310   5.864
 5965POPC   GL175301   3.563  18.268   6.164
 5965POPC   GL275302   3.509  18.452   6.164
 5965POPC   C1A75303   3.564  18.238   6.464
 5965POPC   D2A75304   3.533  18.254   6.764
 5965POPC   C3A75305   3.543  18.291   7.064
 5965POPC   C4A75306   3.537  18.312   7.364
 5965POPC   C1B75307   3.533  18.564   6.464
 5965POPC   C2B75308   3.495  18.493   6.764
 5965POPC   C3B75309   3.566  18.579   7.064
 5965POPC   C4B75310   3.556  18.519   7.364
 5966POPC   NC375311  20.639  10.555   5.564
 5966POPC   PO475312  20.607  10.565   5.864
 5966POPC   GL175313  20.641  10.541   6.164
 5966POPC   GL275314  20.512  10.538   6.164
 5966POPC   C1A75315  20.647  10.477   6.464
 5966POPC   D2A75316  20.641  10.486   6.764
 5966POPC   C3A75317  20.627  10.534   7.064
 5966POPC   C4A75318  20.598  10.568   7.364
 5966POPC   C1B75319  20.353  10.598   6.464
 5966POPC   C2B75320  20.344  10.604   6.764
 5966POPC   C3B75321  20.345  10.553   7.064
 5966POPC   C4B75322  20.391  10.580   7.364
 5967POPC   NC375323  26.847  35.322   5.564
 5967POPC   PO475324  26.772  35.391   5.864
 5967POPC   GL175325  26.770  35.347   6.164
 5967POPC   GL275326  26.873  35.405   6.164
 5967POPC   C1A75327  26.808  35.379   6.464
 5967POPC   D2A75328  26.828  35.400   6.764
 5967POPC   C3A75329  26.809  35.343   7.064
 5967POPC   C4A75330  26.826  35.333   7.364
 5967POPC   C1B75331  27.029  35.520   6.464
 5967POPC   C2B75332  27.035  35.563   6.764
 5967POPC   C3B75333  27.028  35.504   7.064
 5967POPC   C4B75334  26.978  35.512   7.364
 5968POPC   NC375335  24.468   8.963   5.564
 5968POPC   PO475336  24.479   8.929   5.864
 5968POPC   GL175337  24.531   8.974   6.164
 5968POPC   GL275338  24.611   8.968   6.164
 5968POPC   C1A75339  24.482   8.955   6.464
 5968POPC   D2A75340  24.529   8.961   6.764
 5968POPC   C3A75341  24.528   8.968   7.064
 5968POPC   C4A75342  24.484   8.997   7.364
 5968POPC   C1B75343  24.730   8.986   6.464
 5968POPC   C2B75344  24.704   8.933   6.764
 5968POPC   C3B75345  24.777   8.944   7.064
 5968POPC   C4B75346  24.737   8.995   7.364
 5969POPC   NC375347   1.264   5.887   5.564
 5969POPC   PO475348   1.175   5.866   5.864
 5969POPC   GL175349   1.249   5.843   6.164
 5969POPC   GL275350   1.074   5.802   6.164
 5969POPC   C1A75351   1.175   5.884   6.464
 5969POPC   D2A75352   1.212   5.842   6.764
 5969POPC   C3A75353   1.218   5.840   7.064
 5969POPC   C4A75354   1.236   5.825   7.364
 5969POPC   C1B75355   1.012   5.770   6.464
 5969POPC   C2B75356   1.002   5.784   6.764
 5969POPC   C3B75357   1.021   5.773   7.064
 5969POPC   C4B75358   0.988   5.699   7.364
 5970POPC   NC375359  14.380  43.072   5.564
 5970POPC   PO475360  14.389  43.073   5.864
 5970POPC   GL175361  14.407  43.113   6.164
 5970POPC   GL275362  14.521  43.140   6.164
 5970POPC   C1A75363  14.362  43.067   6.464
 5970POPC   D2A75364  14.434  43.071   6.764
 5970POPC   C3A75365  14.422  43.113   7.064
 5970POPC   C4A75366  14.384  43.073   7.364
 5970POPC   C1B75367  14.681  43.127   6.464
 5970POPC   C2B75368  14.646  43.069   6.764
 5970POPC   C3B75369  14.657  43.122   7.064
 5970POPC   C4B75370  14.641  43.141   7.364
 5971POPC   NC375371  34.558   2.729   5.564
 5971POPC   PO475372  34.607   2.764   5.864
 5971POPC   GL175373  34.553   2.746   6.164
 5971POPC   GL275374  34.422   2.811   6.164
 5971POPC   C1A75375  34.581   2.802   6.464
 5971POPC   D2A75376  34.581   2.734   6.764
 5971POPC   C3A75377  34.598   2.762   7.064
 5971POPC   C4A75378  34.577   2.750   7.364
 5971POPC   C1B75379  34.306   2.913   6.464
 5971POPC   C2B75380  34.358   2.874   6.764
 5971POPC   C3B75381  34.305   2.853   7.064
 5971POPC   C4B75382  34.359   2.903   7.364
 5972POPC   NC375383  29.132  25.242   5.564
 5972POPC   PO475384  29.188  25.278   5.864
 5972POPC   GL175385  29.127  25.284   6.164
 5972POPC   GL275386  29.026  25.402   6.164
 5972POPC   C1A75387  29.098  25.220   6.464
 5972POPC   D2A75388  29.135  25.249   6.764
 5972POPC   C3A75389  29.158  25.219   7.064
 5972POPC   C4A75390  29.097  25.248   7.364
 5972POPC   C1B75391  28.962  25.487   6.464
 5972POPC   C2B75392  29.013  25.455   6.764
 5972POPC   C3B75393  28.978  25.512   7.064
 5972POPC   C4B75394  29.044  25.514   7.364
 5973POPC   NC375395   4.317  15.154   5.564
 5973POPC   PO475396   4.316  15.218   5.864
 5973POPC   GL175397   4.318  15.148   6.164
 5973POPC   GL275398   4.368  15.241   6.164
 5973POPC   C1A75399   4.366  15.216   6.464
 5973POPC   D2A75400   4.354  15.212   6.764
 5973POPC   C3A75401   4.307  15.156   7.064
 5973POPC   C4A75402   4.319  15.221   7.364
 5973POPC   C1B75403   4.513  15.393   6.464
 5973POPC   C2B75404   4.462  15.398   6.764
 5973POPC   C3B75405   4.547  15.396   7.064
 5973POPC   C4B75406   4.512  15.367   7.364
 5974POPC   NC375407  43.924   1.953   5.564
 5974POPC   PO475408  43.912   1.945   5.864
 5974POPC   GL175409  43.842   1.963   6.164
 5974POPC   GL275410  43.894   2.120   6.164
 5974POPC   C1A75411  43.874   1.947   6.464
 5974POPC   D2A75412  43.867   2.003   6.764
 5974POPC   C3A75413  43.906   2.010   7.064
 5974POPC   C4A75414  43.853   1.988   7.364
 5974POPC   C1B75415  43.844   2.191   6.464
 5974POPC   C2B75416  43.816   2.285   6.764
 5974POPC   C3B75417  43.859   2.246   7.064
 5974POPC   C4B75418  43.886   2.204   7.364
 5975POPC   NC375419  22.143  12.861   5.564
 5975POPC   PO475420  22.184  12.839   5.864
 5975POPC   GL175421  22.157  12.885   6.164
 5975POPC   GL275422  22.010  12.780   6.164
 5975POPC   C1A75423  22.132  12.837   6.464
 5975POPC   D2A75424  22.166  12.863   6.764
 5975POPC   C3A75425  22.175  12.859   7.064
 5975POPC   C4A75426  22.128  12.875   7.364
 5975POPC   C1B75427  21.888  12.784   6.464
 5975POPC   C2B75428  21.969  12.793   6.764
 5975POPC   C3B75429  21.961  12.732   7.064
 5975POPC   C4B75430  21.929  12.716   7.364
 5976POPC   NC375431   7.457  41.576   5.564
 5976POPC   PO475432   7.415  41.578   5.864
 5976POPC   GL175433   7.416  41.562   6.164
 5976POPC   GL275434   7.344  41.490   6.164
 5976POPC   C1A75435   7.385  41.557   6.464
 5976POPC   D2A75436   7.434  41.602   6.764
 5976POPC   C3A75437   7.408  41.513   7.064
 5976POPC   C4A75438   7.422  41.554   7.364
 5976POPC   C1B75439   7.256  41.362   6.464
 5976POPC   C2B75440   7.260  41.338   6.764
 5976POPC   C3B75441   7.219  41.358   7.064
 5976POPC   C4B75442   7.283  41.400   7.364
 5977POPC   NC375443   8.969  26.054   5.564
 5977POPC   PO475444   8.982  26.077   5.864
 5977POPC   GL175445   8.940  26.002   6.164
 5977POPC   GL275446   8.896  25.962   6.164
 5977POPC   C1A75447   8.986  26.036   6.464
 5977POPC   D2A75448   8.933  26.087   6.764
 5977POPC   C3A75449   8.999  25.994   7.064
 5977POPC   C4A75450   8.952  26.071   7.364
 5977POPC   C1B75451   8.809  25.840   6.464
 5977POPC   C2B75452   8.842  25.835   6.764
 5977POPC   C3B75453   8.863  25.795   7.064
 5977POPC   C4B75454   8.857  25.871   7.364
 5978POPC   NC375455  43.895  35.335   5.564
 5978POPC   PO475456  43.880  35.352   5.864
 5978POPC   GL175457  43.915  35.316   6.164
 5978POPC   GL275458  43.946  35.375   6.164
 5978POPC   C1A75459  43.903  35.321   6.464
 5978POPC   D2A75460  43.909  35.310   6.764
 5978POPC   C3A75461  43.924  35.349   7.064
 5978POPC   C4A75462  43.841  35.330   7.364
 5978POPC   C1B75463  44.051  35.492   6.464
 5978POPC   C2B75464  44.133  35.536   6.764
 5978POPC   C3B75465  44.138  35.495   7.064
 5978POPC   C4B75466  44.139  35.489   7.364
 5979POPC   NC375467  44.684   2.793   5.564
 5979POPC   PO475468  44.659   2.751   5.864
 5979POPC   GL175469  44.669   2.783   6.164
 5979POPC   GL275470  44.774   2.807   6.164
 5979POPC   C1A75471  44.704   2.781   6.464
 5979POPC   D2A75472  44.676   2.724   6.764
 5979POPC   C3A75473  44.632   2.756   7.064
 5979POPC   C4A75474  44.691   2.751   7.364
 5979POPC   C1B75475  44.891   2.937   6.464
 5979POPC   C2B75476  44.884   2.876   6.764
 5979POPC   C3B75477  44.859   2.969   7.064
 5979POPC   C4B75478  44.897   2.962   7.364
 5980POPC   NC375479  18.316  16.742   5.564
 5980POPC   PO475480  18.309  16.763   5.864
 5980POPC   GL175481  18.246  16.695   6.164
 5980POPC   GL275482  18.419  16.750   6.164
 5980POPC   C1A75483  18.286  16.775   6.464
 5980POPC   D2A75484  18.311  16.706   6.764
 5980POPC   C3A75485  18.321  16.755   7.064
 5980POPC   C4A75486  18.300  16.762   7.364
 5980POPC   C1B75487  18.499  16.848   6.464
 5980POPC   C2B75488  18.523  16.857   6.764
 5980POPC   C3B75489  18.523  16.821   7.064
 5980POPC   C4B75490  18.529  16.800   7.364
 5981POPC   NC375491   3.538   5.057   5.564
 5981POPC   PO475492   3.536   5.126   5.864
 5981POPC   GL175493   3.499   5.048   6.164
 5981POPC   GL275494   3.633   5.246   6.164
 5981POPC   C1A75495   3.537   5.050   6.464
 5981POPC   D2A75496   3.515   5.067   6.764
 5981POPC   C3A75497   3.556   5.072   7.064
 5981POPC   C4A75498   3.532   5.123   7.364
 5981POPC   C1B75499   3.612   5.310   6.464
 5981POPC   C2B75500   3.612   5.357   6.764
 5981POPC   C3B75501   3.673   5.332   7.064
 5981POPC   C4B75502   3.688   5.271   7.364
 5982POPC   NC375503  31.474   6.603   5.564
 5982POPC   PO475504  31.517   6.693   5.864
 5982POPC   GL175505  31.519   6.671   6.164
 5982POPC   GL275506  31.342   6.651   6.164
 5982POPC   C1A75507  31.464   6.597   6.464
 5982POPC   D2A75508  31.432   6.677   6.764
 5982POPC   C3A75509  31.522   6.692   7.064
 5982POPC   C4A75510  31.439   6.634   7.364
 5982POPC   C1B75511  31.178   6.613   6.464
 5982POPC   C2B75512  31.186   6.616   6.764
 5982POPC   C3B75513  31.260   6.604   7.064
 5982POPC   C4B75514  31.237   6.600   7.364
 5983POPC   NC375515   0.442  39.265   5.564
 5983POPC   PO475516   0.480  39.275   5.864
 5983POPC   GL175517   0.440  39.267   6.164
 5983POPC   GL275518   0.302  39.196   6.164
 5983POPC   C1A75519   0.409  39.207   6.464
 5983POPC   D2A75520   0.484  39.213   6.764
 5983POPC   C3A75521   0.444  39.184   7.064
 5983POPC   C4A75522   0.406  39.253   7.364
 5983POPC   C1B75523   0.254  39.075   6.464
 5983POPC   C2B75524   0.263  39.049   6.764
 5983POPC   C3B75525   0.262  39.016   7.064
 5983POPC   C4B75526   0.232  39.109   7.364
 5984POPC   NC375527  38.473   0.426   5.564
 5984POPC   PO475528  38.415   0.450   5.864
 5984POPC   GL175529  38.483   0.396   6.164
 5984POPC   GL275530  38.469   0.291   6.164
 5984POPC   C1A75531  38.435   0.445   6.464
 5984POPC   D2A75532  38.431   0.471   6.764
 5984POPC   C3A75533  38.492   0.478   7.064
 5984POPC   C4A75534  38.479   0.425   7.364
 5984POPC   C1B75535  38.435   0.202   6.464
 5984POPC   C2B75536  38.381   0.214   6.764
 5984POPC   C3B75537  38.414   0.210   7.064
 5984POPC   C4B75538  38.421   0.169   7.364
 5985POPC   NC375539  28.413   2.721   5.564
 5985POPC   PO475540  28.417   2.716   5.864
 5985POPC   GL175541  28.401   2.775   6.164
 5985POPC   GL275542  28.401   2.596   6.164
 5985POPC   C1A75543  28.383   2.729   6.464
 5985POPC   D2A75544  28.411   2.799   6.764
 5985POPC   C3A75545  28.382   2.764   7.064
 5985POPC   C4A75546  28.344   2.742   7.364
 5985POPC   C1B75547  28.385   2.499   6.464
 5985POPC   C2B75548  28.324   2.525   6.764
 5985POPC   C3B75549  28.354   2.525   7.064
 5985POPC   C4B75550  28.378   2.468   7.364
 5986POPC   NC375551  11.281  11.293   5.564
 5986POPC   PO475552  11.329  11.254   5.864
 5986POPC   GL175553  11.279  11.316   6.164
 5986POPC   GL275554  11.286  11.402   6.164
 5986POPC   C1A75555  11.335  11.340   6.464
 5986POPC   D2A75556  11.309  11.328   6.764
 5986POPC   C3A75557  11.283  11.284   7.064
 5986POPC   C4A75558  11.336  11.282   7.364
 5986POPC   C1B75559  11.308  11.582   6.464
 5986POPC   C2B75560  11.328  11.568   6.764
 5986POPC   C3B75561  11.371  11.517   7.064
 5986POPC   C4B75562  11.367  11.527   7.364
 5987POPC   NC375563  33.066   6.658   5.564
 5987POPC   PO475564  33.055   6.678   5.864
 5987POPC   GL175565  32.996   6.645   6.164
 5987POPC   GL275566  33.062   6.528   6.164
 5987POPC   C1A75567  33.022   6.678   6.464
 5987POPC   D2A75568  33.048   6.694   6.764
 5987POPC   C3A75569  33.022   6.619   7.064
 5987POPC   C4A75570  32.990   6.661   7.364
 5987POPC   C1B75571  33.054   6.448   6.464
 5987POPC   C2B75572  33.054   6.386   6.764
 5987POPC   C3B75573  33.060   6.375   7.064
 5987POPC   C4B75574  33.103   6.351   7.364
 5988POPC   NC375575  19.839  44.646   5.564
 5988POPC   PO475576  19.838  44.677   5.864
 5988POPC   GL175577  19.823  44.696   6.164
 5988POPC   GL275578  19.720  44.546   6.164
 5988POPC   C1A75579  19.797  44.656   6.464
 5988POPC   D2A75580  19.869  44.705   6.764
 5988POPC   C3A75581  19.792  44.615   7.064
 5988POPC   C4A75582  19.797  44.636   7.364
 5988POPC   C1B75583  19.633  44.564   6.464
 5988POPC   C2B75584  19.607  44.495   6.764
 5988POPC   C3B75585  19.615  44.537   7.064
 5988POPC   C4B75586  19.607  44.564   7.364
 5989POPC   NC375587  13.595  15.995   5.564
 5989POPC   PO475588  13.640  15.914   5.864
 5989POPC   GL175589  13.596  15.934   6.164
 5989POPC   GL275590  13.549  16.044   6.164
 5989POPC   C1A75591  13.612  15.972   6.464
 5989POPC   D2A75592  13.652  15.980   6.764
 5989POPC   C3A75593  13.648  15.925   7.064
 5989POPC   C4A75594  13.624  15.949   7.364
 5989POPC   C1B75595  13.582  16.230   6.464
 5989POPC   C2B75596  13.584  16.207   6.764
 5989POPC   C3B75597  13.506  16.167   7.064
 5989POPC   C4B75598  13.510  16.148   7.364
 5990POPC   NC375599   7.448   7.448   5.564
 5990POPC   PO475600   7.439   7.391   5.864
 5990POPC   GL175601   7.424   7.430   6.164
 5990POPC   GL275602   7.376   7.378   6.164
 5990POPC   C1A75603   7.419   7.383   6.464
 5990POPC   D2A75604   7.469   7.380   6.764
 5990POPC   C3A75605   7.410   7.440   7.064
 5990POPC   C4A75606   7.461   7.383   7.364
 5990POPC   C1B75607   7.284   7.198   6.464
 5990POPC   C2B75608   7.220   7.287   6.764
 5990POPC   C3B75609   7.235   7.268   7.064
 5990POPC   C4B75610   7.254   7.284   7.364
 5991POPC   NC375611   9.022  33.766   5.564
 5991POPC   PO475612   8.967  33.807   5.864
 5991POPC   GL175613   8.963  33.774   6.164
 5991POPC   GL275614   8.879  33.873   6.164
 5991POPC   C1A75615   8.958  33.832   6.464
 5991POPC   D2A75616   8.966  33.797   6.764
 5991POPC   C3A75617   8.938  33.760   7.064
 5991POPC   C4A75618   9.021  33.809   7.364
 5991POPC   C1B75619   8.746  33.910   6.464
 5991POPC   C2B75620   8.729  33.876   6.764
 5991POPC   C3B75621   8.787  33.905   7.064
 5991POPC   C4B75622   8.755  33.946   7.364
 5992POPC   NC375623   8.235  44.619   5.564
 5992POPC   PO475624   8.163  44.614   5.864
 5992POPC   GL175625   8.189  44.673   6.164
 5992POPC   GL275626   8.260  44.760   6.164
 5992POPC   C1A75627   8.167  44.671   6.464
 5992POPC   D2A75628   8.246  44.655   6.764
 5992POPC   C3A75629   8.160  44.641   7.064
 5992POPC   C4A75630   8.238  44.646   7.364
 5992POPC   C1B75631   8.257  44.937   6.464
 5992POPC   C2B75632   8.265  44.915   6.764
 5992POPC   C3B75633   8.238  44.947   7.064
 5992POPC   C4B75634   8.262  44.883   7.364
 5993POPC   NC375635  19.884  30.648   5.564
 5993POPC   PO475636  19.816  30.741   5.864
 5993POPC   GL175637  19.869  30.656   6.164
 5993POPC   GL275638  19.768  30.839   6.164
 5993POPC   C1A75639  19.805  30.663   6.464
 5993POPC   D2A75640  19.855  30.675   6.764
 5993POPC   C3A75641  19.883  30.686   7.064
 5993POPC   C4A75642  19.788  30.664   7.364
 5993POPC   C1B75643  19.818  30.967   6.464
 5993POPC   C2B75644  19.809  30.923   6.764
 5993POPC   C3B75645  19.832  30.956   7.064
 5993POPC   C4B75646  19.838  30.916   7.364
 5994POPC   NC375647  19.056  37.728   5.564
 5994POPC   PO475648  19.075  37.642   5.864
 5994POPC   GL175649  19.099  37.709   6.164
 5994POPC   GL275650  19.135  37.578   6.164
 5994POPC   C1A75651  19.061  37.662   6.464
 5994POPC   D2A75652  19.010  37.710   6.764
 5994POPC   C3A75653  19.051  37.663   7.064
 5994POPC   C4A75654  19.072  37.704   7.364
 5994POPC   C1B75655  19.214  37.439   6.464
 5994POPC   C2B75656  19.186  37.510   6.764
 5994POPC   C3B75657  19.164  37.415   7.064
 5994POPC   C4B75658  19.148  37.444   7.364
 5995POPC   NC375659   8.244   2.033   5.564
 5995POPC   PO475660   8.220   2.038   5.864
 5995POPC   GL175661   8.172   2.018   6.164
 5995POPC   GL275662   8.107   1.996   6.164
 5995POPC   C1A75663   8.184   2.038   6.464
 5995POPC   D2A75664   8.227   1.997   6.764
 5995POPC   C3A75665   8.203   1.994   7.064
 5995POPC   C4A75666   8.147   1.978   7.364
 5995POPC   C1B75667   7.981   1.964   6.464
 5995POPC   C2B75668   7.944   1.918   6.764
 5995POPC   C3B75669   7.909   1.979   7.064
 5995POPC   C4B75670   7.962   1.987   7.364
 5996POPC   NC375671   8.179  26.030   5.564
 5996POPC   PO475672   8.152  26.034   5.864
 5996POPC   GL175673   8.226  26.082   6.164
 5996POPC   GL275674   8.298  26.045   6.164
 5996POPC   C1A75675   8.170  26.013   6.464
 5996POPC   D2A75676   8.160  26.055   6.764
 5996POPC   C3A75677   8.208  26.079   7.064
 5996POPC   C4A75678   8.245  26.085   7.364
 5996POPC   C1B75679   8.388  25.977   6.464
 5996POPC   C2B75680   8.445  25.909   6.764
 5996POPC   C3B75681   8.420  26.006   7.064
 5996POPC   C4B75682   8.428  25.992   7.364
 5997POPC   NC375683  27.553  12.061   5.564
 5997POPC   PO475684  27.610  12.109   5.864
 5997POPC   GL175685  27.641  12.113   6.164
 5997POPC   GL275686  27.457  12.129   6.164
 5997POPC   C1A75687  27.601  12.061   6.464
 5997POPC   D2A75688  27.633  12.048   6.764
 5997POPC   C3A75689  27.554  12.074   7.064
 5997POPC   C4A75690  27.576  12.086   7.364
 5997POPC   C1B75691  27.393  12.238   6.464
 5997POPC   C2B75692  27.409  12.238   6.764
 5997POPC   C3B75693  27.366  12.188   7.064
 5997POPC   C4B75694  27.324  12.182   7.364
 5998POPC   NC375695  22.178  30.669   5.564
 5998POPC   PO475696  22.142  30.669   5.864
 5998POPC   GL175697  22.143  30.710   6.164
 5998POPC   GL275698  22.280  30.771   6.164
 5998POPC   C1A75699  22.163  30.718   6.464
 5998POPC   D2A75700  22.164  30.667   6.764
 5998POPC   C3A75701  22.195  30.657   7.064
 5998POPC   C4A75702  22.173  30.706   7.364
 5998POPC   C1B75703  22.368  30.841   6.464
 5998POPC   C2B75704  22.393  30.903   6.764
 5998POPC   C3B75705  22.379  30.906   7.064
 5998POPC   C4B75706  22.339  30.851   7.364
 5999POPC   NC375707  27.633  42.346   5.564
 5999POPC   PO475708  27.572  42.375   5.864
 5999POPC   GL175709  27.580  42.297   6.164
 5999POPC   GL275710  27.575  42.233   6.164
 5999POPC   C1A75711  27.573  42.299   6.464
 5999POPC   D2A75712  27.556  42.359   6.764
 5999POPC   C3A75713  27.573  42.305   7.064
 5999POPC   C4A75714  27.576  42.320   7.364
 5999POPC   C1B75715  27.540  42.052   6.464
 5999POPC   C2B75716  27.504  42.110   6.764
 5999POPC   C3B75717  27.497  42.134   7.064
 5999POPC   C4B75718  27.504  42.106   7.364
 6000POPC   NC375719  15.993  43.900   5.564
 6000POPC   PO475720  15.913  43.918   5.864
 6000POPC   GL175721  15.942  43.908   6.164
 6000POPC   GL275722  16.123  43.908   6.164
 6000POPC   C1A75723  15.976  43.850   6.464
 6000POPC   D2A75724  15.913  43.907   6.764
 6000POPC   C3A75725  15.911  43.906   7.064
 6000POPC   C4A75726  15.965  43.922   7.364
 6000POPC   C1B75727  16.238  43.991   6.464
 6000POPC   C2B75728  16.234  43.968   6.764
 6000POPC   C3B75729  16.197  43.991   7.064
 6000POPC   C4B75730  16.222  43.955   7.364
 6001POPC   NC375731  12.087  43.845   5.564
 6001POPC   PO475732  12.059  43.865   5.864
 6001POPC   GL175733  12.110  43.869   6.164
 6001POPC   GL275734  12.091  43.800   6.164
 6001POPC   C1A75735  12.050  43.919   6.464
 6001POPC   D2A75736  12.124  43.932   6.764
 6001POPC   C3A75737  12.054  43.917   7.064
 6001POPC   C4A75738  12.081  43.878   7.364
 6001POPC   C1B75739  12.163  43.669   6.464
 6001POPC   C2B75740  12.173  43.681   6.764
 6001POPC   C3B75741  12.129  43.665   7.064
 6001POPC   C4B75742  12.121  43.644   7.364
 6002POPC   NC375743  34.580  12.813   5.564
 6002POPC   PO475744  34.588  12.859   5.864
 6002POPC   GL175745  34.539  12.890   6.164
 6002POPC   GL275746  34.718  12.780   6.164
 6002POPC   C1A75747  34.603  12.846   6.464
 6002POPC   D2A75748  34.555  12.886   6.764
 6002POPC   C3A75749  34.551  12.826   7.064
 6002POPC   C4A75750  34.570  12.824   7.364
 6002POPC   C1B75751  34.856  12.819   6.464
 6002POPC   C2B75752  34.834  12.845   6.764
 6002POPC   C3B75753  34.854  12.795   7.064
 6002POPC   C4B75754  34.852  12.768   7.364
 6003POPC   NC375755  19.804  12.845   5.564
 6003POPC   PO475756  19.795  12.862   5.864
 6003POPC   GL175757  19.847  12.877   6.164
 6003POPC   GL275758  19.715  12.785   6.164
 6003POPC   C1A75759  19.858  12.829   6.464
 6003POPC   D2A75760  19.817  12.824   6.764
 6003POPC   C3A75761  19.822  12.865   7.064
 6003POPC   C4A75762  19.790  12.824   7.364
 6003POPC   C1B75763  19.613  12.695   6.464
 6003POPC   C2B75764  19.654  12.743   6.764
 6003POPC   C3B75765  19.648  12.751   7.064
 6003POPC   C4B75766  19.608  12.759   7.364
 6004POPC   NC375767  20.638  33.811   5.564
 6004POPC   PO475768  20.626  33.810   5.864
 6004POPC   GL175769  20.655  33.817   6.164
 6004POPC   GL275770  20.612  33.659   6.164
 6004POPC   C1A75771  20.573  33.762   6.464
 6004POPC   D2A75772  20.636  33.846   6.764
 6004POPC   C3A75773  20.630  33.808   7.064
 6004POPC   C4A75774  20.613  33.798   7.364
 6004POPC   C1B75775  20.702  33.552   6.464
 6004POPC   C2B75776  20.708  33.598   6.764
 6004POPC   C3B75777  20.650  33.525   7.064
 6004POPC   C4B75778  20.667  33.544   7.364
 6005POPC   NC375779  39.261   3.586   5.564
 6005POPC   PO475780  39.213   3.580   5.864
 6005POPC   GL175781  39.191   3.558   6.164
 6005POPC   GL275782  39.136   3.611   6.164
 6005POPC   C1A75783  39.281   3.528   6.464
 6005POPC   D2A75784  39.236   3.545   6.764
 6005POPC   C3A75785  39.262   3.500   7.064
 6005POPC   C4A75786  39.186   3.575   7.364
 6005POPC   C1B75787  39.110   3.717   6.464
 6005POPC   C2B75788  39.113   3.786   6.764
 6005POPC   C3B75789  39.085   3.707   7.064
 6005POPC   C4B75790  39.075   3.774   7.364
 6006POPC   NC375791  17.531  29.892   5.564
 6006POPC   PO475792  17.490  29.949   5.864
 6006POPC   GL175793  17.475  29.926   6.164
 6006POPC   GL275794  17.524  30.026   6.164
 6006POPC   C1A75795  17.467  29.958   6.464
 6006POPC   D2A75796  17.505  29.873   6.764
 6006POPC   C3A75797  17.551  29.873   7.064
 6006POPC   C4A75798  17.490  29.871   7.364
 6006POPC   C1B75799  17.599  30.193   6.464
 6006POPC   C2B75800  17.537  30.186   6.764
 6006POPC   C3B75801  17.510  30.159   7.064
 6006POPC   C4B75802  17.576  30.190   7.364
 6007POPC   NC375803  10.523  23.669   5.564
 6007POPC   PO475804  10.499  23.712   5.864
 6007POPC   GL175805  10.489  23.676   6.164
 6007POPC   GL275806  10.624  23.862   6.164
 6007POPC   C1A75807  10.563  23.757   6.464
 6007POPC   D2A75808  10.521  23.693   6.764
 6007POPC   C3A75809  10.537  23.753   7.064
 6007POPC   C4A75810  10.567  23.737   7.364
 6007POPC   C1B75811  10.586  23.921   6.464
 6007POPC   C2B75812  10.635  23.918   6.764
 6007POPC   C3B75813  10.640  23.940   7.064
 6007POPC   C4B75814  10.683  23.956   7.364
 6008POPC   NC375815  22.136  26.014   5.564
 6008POPC   PO475816  22.144  26.030   5.864
 6008POPC   GL175817  22.140  26.078   6.164
 6008POPC   GL275818  22.026  26.117   6.164
 6008POPC   C1A75819  22.130  26.074   6.464
 6008POPC   D2A75820  22.208  26.071   6.764
 6008POPC   C3A75821  22.193  26.066   7.064
 6008POPC   C4A75822  22.165  25.999   7.364
 6008POPC   C1B75823  21.935  26.155   6.464
 6008POPC   C2B75824  21.979  26.125   6.764
 6008POPC   C3B75825  21.895  26.170   7.064
 6008POPC   C4B75826  21.941  26.098   7.364
 6009POPC   NC375827  30.733  34.553   5.564
 6009POPC   PO475828  30.647  34.534   5.864
 6009POPC   GL175829  30.689  34.592   6.164
 6009POPC   GL275830  30.785  34.556   6.164
 6009POPC   C1A75831  30.675  34.526   6.464
 6009POPC   D2A75832  30.721  34.596   6.764
 6009POPC   C3A75833  30.708  34.618   7.064
 6009POPC   C4A75834  30.683  34.589   7.364
 6009POPC   C1B75835  30.898  34.506   6.464
 6009POPC   C2B75836  30.956  34.476   6.764
 6009POPC   C3B75837  30.947  34.565   7.064
 6009POPC   C4B75838  30.977  34.482   7.364
 6010POPC   NC375839  29.964  44.664   5.564
 6010POPC   PO475840  29.894  44.686   5.864
 6010POPC   GL175841  29.872  44.651   6.164
 6010POPC   GL275842  30.003  44.643   6.164
 6010POPC   C1A75843  29.944  44.711   6.464
 6010POPC   D2A75844  29.915  44.655   6.764
 6010POPC   C3A75845  29.881  44.670   7.064
 6010POPC   C4A75846  29.912  44.621   7.364
 6010POPC   C1B75847  30.218  44.648   6.464
 6010POPC   C2B75848  30.215  44.635   6.764
 6010POPC   C3B75849  30.158  44.660   7.064
 6010POPC   C4B75850  30.177  44.706   7.364
 6011POPC   NC375851  41.560   2.036   5.564
 6011POPC   PO475852  41.513   2.000   5.864
 6011POPC   GL175853  41.579   2.037   6.164
 6011POPC   GL275854  41.418   2.110   6.164
 6011POPC   C1A75855  41.572   2.006   6.464
 6011POPC   D2A75856  41.566   1.986   6.764
 6011POPC   C3A75857  41.532   1.949   7.064
 6011POPC   C4A75858  41.587   1.972   7.364
 6011POPC   C1B75859  41.372   2.110   6.464
 6011POPC   C2B75860  41.398   2.114   6.764
 6011POPC   C3B75861  41.368   2.110   7.064
 6011POPC   C4B75862  41.369   2.154   7.364
 6012POPC   NC375863  15.203  19.053   5.564
 6012POPC   PO475864  15.133  19.079   5.864
 6012POPC   GL175865  15.168  19.075   6.164
 6012POPC   GL275866  15.340  19.074   6.164
 6012POPC   C1A75867  15.139  19.055   6.464
 6012POPC   D2A75868  15.138  19.070   6.764
 6012POPC   C3A75869  15.141  19.105   7.064
 6012POPC   C4A75870  15.214  19.017   7.364
 6012POPC   C1B75871  15.394  19.141   6.464
 6012POPC   C2B75872  15.404  19.109   6.764
 6012POPC   C3B75873  15.366  19.138   7.064
 6012POPC   C4B75874  15.388  19.110   7.364
 6013POPC   NC375875  18.280  43.907   5.564
 6013POPC   PO475876  18.275  43.860   5.864
 6013POPC   GL175877  18.274  43.875   6.164
 6013POPC   GL275878  18.427  43.968   6.164
 6013POPC   C1A75879  18.245  43.863   6.464
 6013POPC   D2A75880  18.242  43.881   6.764
 6013POPC   C3A75881  18.263  43.914   7.064
 6013POPC   C4A75882  18.325  43.885   7.364
 6013POPC   C1B75883  18.545  43.967   6.464
 6013POPC   C2B75884  18.473  43.991   6.764
 6013POPC   C3B75885  18.541  44.007   7.064
 6013POPC   C4B75886  18.524  43.940   7.364
 6014POPC   NC375887  12.112  11.278   5.564
 6014POPC   PO475888  12.125  11.314   5.864
 6014POPC   GL175889  12.100  11.311   6.164
 6014POPC   GL275890  12.152  11.427   6.164
 6014POPC   C1A75891  12.031  11.272   6.464
 6014POPC   D2A75892  12.118  11.295   6.764
 6014POPC   C3A75893  12.098  11.283   7.064
 6014POPC   C4A75894  12.079  11.321   7.364
 6014POPC   C1B75895  12.268  11.466   6.464
 6014POPC   C2B75896  12.196  11.445   6.764
 6014POPC   C3B75897  12.199  11.487   7.064
 6014POPC   C4B75898  12.252  11.537   7.364
 6015POPC   NC375899  32.218   5.864   5.564
 6015POPC   PO475900  32.201   5.911   5.864
 6015POPC   GL175901  32.275   5.862   6.164
 6015POPC   GL275902  32.180   5.908   6.164
 6015POPC   C1A75903  32.259   5.840   6.464
 6015POPC   D2A75904  32.207   5.853   6.764
 6015POPC   C3A75905  32.279   5.825   7.064
 6015POPC   C4A75906  32.224   5.860   7.364
 6015POPC   C1B75907  32.024   5.965   6.464
 6015POPC   C2B75908  32.002   5.976   6.764
 6015POPC   C3B75909  32.020   6.026   7.064
 6015POPC   C4B75910  31.995   5.995   7.364
 6016POPC   NC375911  13.624  38.505   5.564
 6016POPC   PO475912  13.678  38.454   5.864
 6016POPC   GL175913  13.618  38.449   6.164
 6016POPC   GL275914  13.766  38.440   6.164
 6016POPC   C1A75915  13.627  38.421   6.464
 6016POPC   D2A75916  13.654  38.477   6.764
 6016POPC   C3A75917  13.637  38.410   7.064
 6016POPC   C4A75918  13.630  38.481   7.364
 6016POPC   C1B75919  13.888  38.412   6.464
 6016POPC   C2B75920  13.847  38.335   6.764
 6016POPC   C3B75921  13.888  38.395   7.064
 6016POPC   C4B75922  13.831  38.339   7.364
 6017POPC   NC375923  37.722  23.686   5.564
 6017POPC   PO475924  37.650  23.738   5.864
 6017POPC   GL175925  37.647  23.672   6.164
 6017POPC   GL275926  37.670  23.624   6.164
 6017POPC   C1A75927  37.655  23.739   6.464
 6017POPC   D2A75928  37.726  23.763   6.764
 6017POPC   C3A75929  37.680  23.677   7.064
 6017POPC   C4A75930  37.638  23.710   7.364
 6017POPC   C1B75931  37.714  23.429   6.464
 6017POPC   C2B75932  37.722  23.487   6.764
 6017POPC   C3B75933  37.736  23.517   7.064
 6017POPC   C4B75934  37.754  23.466   7.364
 6018POPC   NC375935  21.401  23.707   5.564
 6018POPC   PO475936  21.416  23.678   5.864
 6018POPC   GL175937  21.357  23.738   6.164
 6018POPC   GL275938  21.448  23.764   6.164
 6018POPC   C1A75939  21.394  23.759   6.464
 6018POPC   D2A75940  21.343  23.680   6.764
 6018POPC   C3A75941  21.354  23.691   7.064
 6018POPC   C4A75942  21.416  23.761   7.364
 6018POPC   C1B75943  21.642  23.891   6.464
 6018POPC   C2B75944  21.557  23.856   6.764
 6018POPC   C3B75945  21.588  23.848   7.064
 6018POPC   C4B75946  21.603  23.857   7.364
 6019POPC   NC375947   5.106  30.674   5.564
 6019POPC   PO475948   5.085  30.692   5.864
 6019POPC   GL175949   5.113  30.729   6.164
 6019POPC   GL275950   4.988  30.618   6.164
 6019POPC   C1A75951   5.120  30.700   6.464
 6019POPC   D2A75952   5.116  30.653   6.764
 6019POPC   C3A75953   5.110  30.677   7.064
 6019POPC   C4A75954   5.123  30.711   7.364
 6019POPC   C1B75955   4.842  30.622   6.464
 6019POPC   C2B75956   4.893  30.646   6.764
 6019POPC   C3B75957   4.871  30.643   7.064
 6019POPC   C4B75958   4.892  30.585   7.364
 6020POPC   NC375959   5.839  37.682   5.564
 6020POPC   PO475960   5.911  37.688   5.864
 6020POPC   GL175961   5.872  37.680   6.164
 6020POPC   GL275962   5.975  37.831   6.164
 6020POPC   C1A75963   5.824  37.718   6.464
 6020POPC   D2A75964   5.854  37.696   6.764
 6020POPC   C3A75965   5.851  37.680   7.064
 6020POPC   C4A75966   5.878  37.722   7.364
 6020POPC   C1B75967   5.978  37.912   6.464
 6020POPC   C2B75968   5.955  37.914   6.764
 6020POPC   C3B75969   5.978  37.882   7.064
 6020POPC   C4B75970   6.005  37.846   7.364
 6021POPC   NC375971  26.013   0.467   5.564
 6021POPC   PO475972  26.073   0.390   5.864
 6021POPC   GL175973  25.993   0.441   6.164
 6021POPC   GL275974  26.054   0.591   6.164
 6021POPC   C1A75975  26.031   0.428   6.464
 6021POPC   D2A75976  26.004   0.408   6.764
 6021POPC   C3A75977  26.035   0.396   7.064
 6021POPC   C4A75978  25.998   0.414   7.364
 6021POPC   C1B75979  25.953   0.646   6.464
 6021POPC   C2B75980  25.993   0.707   6.764
 6021POPC   C3B75981  25.924   0.683   7.064
 6021POPC   C4B75982  25.929   0.717   7.364
 6022POPC   NC375983   4.270  31.477   5.564
 6022POPC   PO475984   4.293  31.451   5.864
 6022POPC   GL175985   4.341  31.485   6.164
 6022POPC   GL275986   4.430  31.504   6.164
 6022POPC   C1A75987   4.289  31.470   6.464
 6022POPC   D2A75988   4.346  31.496   6.764
 6022POPC   C3A75989   4.359  31.444   7.064
 6022POPC   C4A75990   4.308  31.459   7.364
 6022POPC   C1B75991   4.533  31.598   6.464
 6022POPC   C2B75992   4.565  31.578   6.764
 6022POPC   C3B75993   4.526  31.563   7.064
 6022POPC   C4B75994   4.566  31.527   7.364
 6023POPC   NC375995  21.377  27.597   5.564
 6023POPC   PO475996  21.373  27.610   5.864
 6023POPC   GL175997  21.383  27.635   6.164
 6023POPC   GL275998  21.425  27.706   6.164
 6023POPC   C1A75999  21.409  27.613   6.464
 6023POPC   D2A76000  21.341  27.599   6.764
 6023POPC   C3A76001  21.342  27.570   7.064
 6023POPC   C4A76002  21.359  27.636   7.364
 6023POPC   C1B76003  21.582  27.772   6.464
 6023POPC   C2B76004  21.582  27.797   6.764
 6023POPC   C3B76005  21.567  27.808   7.064
 6023POPC   C4B76006  21.534  27.747   7.364
 6024POPC   NC376007  35.322  19.792   5.564
 6024POPC   PO476008  35.328  19.846   5.864
 6024POPC   GL176009  35.362  19.795   6.164
 6024POPC   GL276010  35.260  19.844   6.164
 6024POPC   C1A76011  35.355  19.804   6.464
 6024POPC   D2A76012  35.340  19.809   6.764
 6024POPC   C3A76013  35.328  19.876   7.064
 6024POPC   C4A76014  35.328  19.812   7.364
 6024POPC   C1B76015  35.107  19.856   6.464
 6024POPC   C2B76016  35.066  19.843   6.764
 6024POPC   C3B76017  35.137  19.851   7.064
 6024POPC   C4B76018  35.061  19.819   7.364
 6025POPC   NC376019   8.983  15.912   5.564
 6025POPC   PO476020   8.955  15.915   5.864
 6025POPC   GL176021   8.986  15.949   6.164
 6025POPC   GL276022   9.018  15.884   6.164
 6025POPC   C1A76023   8.924  15.997   6.464
 6025POPC   D2A76024   8.971  15.988   6.764
 6025POPC   C3A76025   8.981  15.956   7.064
 6025POPC   C4A76026   8.931  15.931   7.364
 6025POPC   C1B76027   9.012  15.678   6.464
 6025POPC   C2B76028   9.030  15.694   6.764
 6025POPC   C3B76029   9.021  15.732   7.064
 6025POPC   C4B76030   9.083  15.703   7.364
 6026POPC   NC376031   2.037   0.477   5.564
 6026POPC   PO476032   1.961   0.435   5.864
 6026POPC   GL176033   2.022   0.470   6.164
 6026POPC   GL276034   1.898   0.475   6.164
 6026POPC   C1A76035   1.979   0.402   6.464
 6026POPC   D2A76036   1.946   0.429   6.764
 6026POPC   C3A76037   2.017   0.392   7.064
 6026POPC   C4A76038   2.035   0.425   7.364
 6026POPC   C1B76039   1.720   0.563   6.464
 6026POPC   C2B76040   1.793   0.535   6.764
 6026POPC   C3B76041   1.801   0.554   7.064
 6026POPC   C4B76042   1.764   0.585   7.364
 6027POPC   NC376043  33.767  22.974   5.564
 6027POPC   PO476044  33.795  22.947   5.864
 6027POPC   GL176045  33.815  22.903   6.164
 6027POPC   GL276046  33.823  23.011   6.164
 6027POPC   C1A76047  33.774  22.979   6.464
 6027POPC   D2A76048  33.787  22.932   6.764
 6027POPC   C3A76049  33.842  22.906   7.064
 6027POPC   C4A76050  33.812  22.977   7.364
 6027POPC   C1B76051  33.926  23.115   6.464
 6027POPC   C2B76052  33.950  23.114   6.764
 6027POPC   C3B76053  33.951  23.149   7.064
 6027POPC   C4B76054  33.938  23.131   7.364
 6028POPC   NC376055  44.708  16.689   5.564
 6028POPC   PO476056  44.695  16.770   5.864
 6028POPC   GL176057  44.652  16.748   6.164
 6028POPC   GL276058  44.575  16.807   6.164
 6028POPC   C1A76059  44.624  16.691   6.464
 6028POPC   D2A76060  44.667  16.743   6.764
 6028POPC   C3A76061  44.663  16.770   7.064
 6028POPC   C4A76062  44.680  16.756   7.364
 6028POPC   C1B76063  44.419  16.862   6.464
 6028POPC   C2B76064  44.436  16.824   6.764
 6028POPC   C3B76065  44.381  16.806   7.064
 6028POPC   C4B76066  44.444  16.771   7.364
 6029POPC   NC376067  26.805  43.131   5.564
 6029POPC   PO476068  26.867  43.155   5.864
 6029POPC   GL176069  26.841  43.096   6.164
 6029POPC   GL276070  26.743  43.041   6.164
 6029POPC   C1A76071  26.790  43.065   6.464
 6029POPC   D2A76072  26.792  43.156   6.764
 6029POPC   C3A76073  26.866  43.063   7.064
 6029POPC   C4A76074  26.799  43.112   7.364
 6029POPC   C1B76075  26.657  42.951   6.464
 6029POPC   C2B76076  26.633  42.960   6.764
 6029POPC   C3B76077  26.623  42.922   7.064
 6029POPC   C4B76078  26.638  42.907   7.364
 6030POPC   NC376079   5.904  26.814   5.564
 6030POPC   PO476080   5.890  26.846   5.864
 6030POPC   GL176081   5.835  26.790   6.164
 6030POPC   GL276082   5.986  26.874   6.164
 6030POPC   C1A76083   5.864  26.847   6.464
 6030POPC   D2A76084   5.870  26.782   6.764
 6030POPC   C3A76085   5.910  26.777   7.064
 6030POPC   C4A76086   5.826  26.793   7.364
 6030POPC   C1B76087   6.023  27.039   6.464
 6030POPC   C2B76088   6.053  27.013   6.764
 6030POPC   C3B76089   6.047  27.033   7.064
 6030POPC   C4B76090   6.050  26.997   7.364
 6031POPC   NC376091   8.969  25.232   5.564
 6031POPC   PO476092   9.015  25.297   5.864
 6031POPC   GL176093   8.962  25.273   6.164
 6031POPC   GL276094   8.890  25.195   6.164
 6031POPC   C1A76095   8.927  25.266   6.464
 6031POPC   D2A76096   8.953  25.248   6.764
 6031POPC   C3A76097   8.975  25.264   7.064
 6031POPC   C4A76098   8.924  25.219   7.364
 6031POPC   C1B76099   8.920  25.025   6.464
 6031POPC   C2B76100   8.905  25.013   6.764
 6031POPC   C3B76101   8.875  25.058   7.064
 6031POPC   C4B76102   8.856  25.015   7.364
 6032POPC   NC376103   2.027   6.602   5.564
 6032POPC   PO476104   1.987   6.676   5.864
 6032POPC   GL176105   2.028   6.685   6.164
 6032POPC   GL276106   2.099   6.602   6.164
 6032POPC   C1A76107   2.032   6.660   6.464
 6032POPC   D2A76108   1.980   6.614   6.764
 6032POPC   C3A76109   2.020   6.659   7.064
 6032POPC   C4A76110   1.962   6.691   7.364
 6032POPC   C1B76111   2.168   6.491   6.464
 6032POPC   C2B76112   2.204   6.522   6.764
 6032POPC   C3B76113   2.260   6.483   7.064
 6032POPC   C4B76114   2.178   6.545   7.364
 6033POPC   NC376115  15.138  33.849   5.564
 6033POPC   PO476116  15.218  33.771   5.864
 6033POPC   GL176117  15.137  33.827   6.164
 6033POPC   GL276118  15.274  33.859   6.164
 6033POPC   C1A76119  15.159  33.806   6.464
 6033POPC   D2A76120  15.148  33.758   6.764
 6033POPC   C3A76121  15.194  33.793   7.064
 6033POPC   C4A76122  15.145  33.823   7.364
 6033POPC   C1B76123  15.404  33.871   6.464
 6033POPC   C2B76124  15.444  33.838   6.764
 6033POPC   C3B76125  15.387  33.858   7.064
 6033POPC   C4B76126  15.416  33.891   7.364
 6034POPC   NC376127   2.002  32.222   5.564
 6034POPC   PO476128   1.968  32.293   5.864
 6034POPC   GL176129   1.949  32.246   6.164
 6034POPC   GL276130   2.077  32.219   6.164
 6034POPC   C1A76131   1.958  32.257   6.464
 6034POPC   D2A76132   2.007  32.242   6.764
 6034POPC   C3A76133   1.994  32.226   7.064
 6034POPC   C4A76134   2.000  32.229   7.364
 6034POPC   C1B76135   2.150  32.064   6.464
 6034POPC   C2B76136   2.195  32.127   6.764
 6034POPC   C3B76137   2.185  32.154   7.064
 6034POPC   C4B76138   2.198  32.144   7.364
 6035POPC   NC376139  43.882  42.297   5.564
 6035POPC   PO476140  43.902  42.298   5.864
 6035POPC   GL176141  43.923  42.363   6.164
 6035POPC   GL276142  43.834  42.431   6.164
 6035POPC   C1A76143  43.856  42.314   6.464
 6035POPC   D2A76144  43.905  42.292   6.764
 6035POPC   C3A76145  43.863  42.337   7.064
 6035POPC   C4A76146  43.891  42.285   7.364
 6035POPC   C1B76147  43.725  42.496   6.464
 6035POPC   C2B76148  43.763  42.547   6.764
 6035POPC   C3B76149  43.735  42.519   7.064
 6035POPC   C4B76150  43.762  42.519   7.364
 6036POPC   NC376151  19.065  40.029   5.564
 6036POPC   PO476152  19.082  40.023   5.864
 6036POPC   GL176153  19.052  40.056   6.164
 6036POPC   GL276154  19.023  40.143   6.164
 6036POPC   C1A76155  19.108  39.996   6.464
 6036POPC   D2A76156  19.095  40.041   6.764
 6036POPC   C3A76157  19.091  40.016   7.064
 6036POPC   C4A76158  19.101  39.993   7.364
 6036POPC   C1B76159  18.930  40.160   6.464
 6036POPC   C2B76160  18.905  40.187   6.764
 6036POPC   C3B76161  18.915  40.253   7.064
 6036POPC   C4B76162  18.904  40.204   7.364
 6037POPC   NC376163  17.467  25.229   5.564
 6037POPC   PO476164  17.478  25.277   5.864
 6037POPC   GL176165  17.540  25.227   6.164
 6037POPC   GL276166  17.479  25.371   6.164
 6037POPC   C1A76167  17.517  25.245   6.464
 6037POPC   D2A76168  17.523  25.269   6.764
 6037POPC   C3A76169  17.522  25.232   7.064
 6037POPC   C4A76170  17.472  25.282   7.364
 6037POPC   C1B76171  17.349  25.491   6.464
 6037POPC   C2B76172  17.383  25.429   6.764
 6037POPC   C3B76173  17.321  25.496   7.064
 6037POPC   C4B76174  17.323  25.415   7.364
 6038POPC   NC376175  38.412  33.819   5.564
 6038POPC   PO476176  38.480  33.829   5.864
 6038POPC   GL176177  38.482  33.769   6.164
 6038POPC   GL276178  38.294  33.770   6.164
 6038POPC   C1A76179  38.472  33.762   6.464
 6038POPC   D2A76180  38.421  33.768   6.764
 6038POPC   C3A76181  38.495  33.756   7.064
 6038POPC   C4A76182  38.449  33.807   7.364
 6038POPC   C1B76183  38.217  33.769   6.464
 6038POPC   C2B76184  38.229  33.744   6.764
 6038POPC   C3B76185  38.179  33.736   7.064
 6038POPC   C4B76186  38.170  33.726   7.364
 6039POPC   NC376187  21.425  19.036   5.564
 6039POPC   PO476188  21.342  19.055   5.864
 6039POPC   GL176189  21.435  19.095   6.164
 6039POPC   GL276190  21.515  19.107   6.164
 6039POPC   C1A76191  21.415  19.087   6.464
 6039POPC   D2A76192  21.357  19.086   6.764
 6039POPC   C3A76193  21.372  19.069   7.064
 6039POPC   C4A76194  21.396  19.038   7.364
 6039POPC   C1B76195  21.654  19.103   6.464
 6039POPC   C2B76196  21.594  19.065   6.764
 6039POPC   C3B76197  21.652  19.077   7.064
 6039POPC   C4B76198  21.617  19.117   7.364
 6040POPC   NC376199  23.674  41.573   5.564
 6040POPC   PO476200  23.744  41.530   5.864
 6040POPC   GL176201  23.676  41.546   6.164
 6040POPC   GL276202  23.853  41.545   6.164
 6040POPC   C1A76203  23.677  41.515   6.464
 6040POPC   D2A76204  23.669  41.600   6.764
 6040POPC   C3A76205  23.673  41.596   7.064
 6040POPC   C4A76206  23.682  41.608   7.364
 6040POPC   C1B76207  23.976  41.491   6.464
 6040POPC   C2B76208  23.998  41.499   6.764
 6040POPC   C3B76209  23.977  41.452   7.064
 6040POPC   C4B76210  23.970  41.483   7.364
 6041POPC   NC376211  16.763  13.592   5.564
 6041POPC   PO476212  16.722  13.620   5.864
 6041POPC   GL176213  16.724  13.607   6.164
 6041POPC   GL276214  16.705  13.712   6.164
 6041POPC   C1A76215  16.713  13.581   6.464
 6041POPC   D2A76216  16.694  13.638   6.764
 6041POPC   C3A76217  16.722  13.598   7.064
 6041POPC   C4A76218  16.691  13.628   7.364
 6041POPC   C1B76219  16.707  13.850   6.464
 6041POPC   C2B76220  16.729  13.920   6.764
 6041POPC   C3B76221  16.737  13.849   7.064
 6041POPC   C4B76222  16.687  13.845   7.364
 6042POPC   NC376223  40.735  15.944   5.564
 6042POPC   PO476224  40.734  15.923   5.864
 6042POPC   GL176225  40.825  15.937   6.164
 6042POPC   GL276226  40.758  16.031   6.164
 6042POPC   C1A76227  40.793  15.998   6.464
 6042POPC   D2A76228  40.765  15.989   6.764
 6042POPC   C3A76229  40.777  15.947   7.064
 6042POPC   C4A76230  40.765  15.907   7.364
 6042POPC   C1B76231  40.700  16.168   6.464
 6042POPC   C2B76232  40.713  16.203   6.764
 6042POPC   C3B76233  40.736  16.161   7.064
 6042POPC   C4B76234  40.661  16.224   7.364
 6043POPC   NC376235   0.483  16.731   5.564
 6043POPC   PO476236   0.453  16.764   5.864
 6043POPC   GL176237   0.431  16.750   6.164
 6043POPC   GL276238   0.359  16.671   6.164
 6043POPC   C1A76239   0.407  16.759   6.464
 6043POPC   D2A76240   0.405  16.698   6.764
 6043POPC   C3A76241   0.388  16.766   7.064
 6043POPC   C4A76242   0.465  16.726   7.364
 6043POPC   C1B76243   0.246  16.601   6.464
 6043POPC   C2B76244   0.285  16.518   6.764
 6043POPC   C3B76245   0.298  16.558   7.064
 6043POPC   C4B76246   0.268  16.511   7.364
 6044POPC   NC376247  28.394  43.935   5.564
 6044POPC   PO476248  28.367  43.919   5.864
 6044POPC   GL176249  28.406  43.862   6.164
 6044POPC   GL276250  28.224  43.841   6.164
 6044POPC   C1A76251  28.404  43.933   6.464
 6044POPC   D2A76252  28.407  43.845   6.764
 6044POPC   C3A76253  28.324  43.899   7.064
 6044POPC   C4A76254  28.356  43.918   7.364
 6044POPC   C1B76255  28.149  43.759   6.464
 6044POPC   C2B76256  28.176  43.755   6.764
 6044POPC   C3B76257  28.167  43.766   7.064
 6044POPC   C4B76258  28.181  43.736   7.364
 6045POPC   NC376259  40.055   9.021   5.564
 6045POPC   PO476260  40.035   9.005   5.864
 6045POPC   GL176261  40.014   8.939   6.164
 6045POPC   GL276262  40.006   9.090   6.164
 6045POPC   C1A76263  39.967   8.965   6.464
 6045POPC   D2A76264  40.023   8.985   6.764
 6045POPC   C3A76265  40.011   8.995   7.064
 6045POPC   C4A76266  40.008   9.015   7.364
 6045POPC   C1B76267  40.006   9.203   6.464
 6045POPC   C2B76268  39.992   9.266   6.764
 6045POPC   C3B76269  40.016   9.212   7.064
 6045POPC   C4B76270  40.019   9.211   7.364
 6046POPC   NC376271  26.058  38.432   5.564
 6046POPC   PO476272  26.042  38.419   5.864
 6046POPC   GL176273  26.087  38.410   6.164
 6046POPC   GL276274  25.868  38.465   6.164
 6046POPC   C1A76275  25.995  38.434   6.464
 6046POPC   D2A76276  26.002  38.426   6.764
 6046POPC   C3A76277  26.017  38.496   7.064
 6046POPC   C4A76278  26.064  38.456   7.364
 6046POPC   C1B76279  25.814  38.523   6.464
 6046POPC   C2B76280  25.787  38.495   6.764
 6046POPC   C3B76281  25.786  38.535   7.064
 6046POPC   C4B76282  25.771  38.445   7.364
 6047POPC   NC376283   7.377  32.262   5.564
 6047POPC   PO476284   7.384  32.223   5.864
 6047POPC   GL176285   7.452  32.214   6.164
 6047POPC   GL276286   7.356  32.150   6.164
 6047POPC   C1A76287   7.389  32.204   6.464
 6047POPC   D2A76288   7.389  32.234   6.764
 6047POPC   C3A76289   7.372  32.298   7.064
 6047POPC   C4A76290   7.428  32.244   7.364
 6047POPC   C1B76291   7.231  32.055   6.464
 6047POPC   C2B76292   7.210  32.059   6.764
 6047POPC   C3B76293   7.209  32.092   7.064
 6047POPC   C4B76294   7.212  32.088   7.364
 6048POPC   NC376295  36.861   2.733   5.564
 6048POPC   PO476296  36.884   2.752   5.864
 6048POPC   GL176297  36.864   2.725   6.164
 6048POPC   GL276298  37.041   2.748   6.164
 6048POPC   C1A76299  36.882   2.787   6.464
 6048POPC   D2A76300  36.899   2.759   6.764
 6048POPC   C3A76301  36.896   2.757   7.064
 6048POPC   C4A76302  36.884   2.716   7.364
 6048POPC   C1B76303  37.184   2.721   6.464
 6048POPC   C2B76304  37.175   2.648   6.764
 6048POPC   C3B76305  37.159   2.635   7.064
 6048POPC   C4B76306  37.120   2.686   7.364
 6049POPC   NC376307  35.348  40.772   5.564
 6049POPC   PO476308  35.398  40.814   5.864
 6049POPC   GL176309  35.392  40.803   6.164
 6049POPC   GL276310  35.269  40.939   6.164
 6049POPC   C1A76311  35.315  40.767   6.464
 6049POPC   D2A76312  35.387  40.736   6.764
 6049POPC   C3A76313  35.343  40.820   7.064
 6049POPC   C4A76314  35.361  40.832   7.364
 6049POPC   C1B76315  35.286  41.035   6.464
 6049POPC   C2B76316  35.217  41.017   6.764
 6049POPC   C3B76317  35.254  41.051   7.064
 6049POPC   C4B76318  35.212  40.988   7.364
 6050POPC   NC376319  23.692  34.534   5.564
 6050POPC   PO476320  23.711  34.586   5.864
 6050POPC   GL176321  23.674  34.528   6.164
 6050POPC   GL276322  23.734  34.725   6.164
 6050POPC   C1A76323  23.711  34.532   6.464
 6050POPC   D2A76324  23.694  34.617   6.764
 6050POPC   C3A76325  23.692  34.598   7.064
 6050POPC   C4A76326  23.747  34.530   7.364
 6050POPC   C1B76327  23.792  34.772   6.464
 6050POPC   C2B76328  23.750  34.770   6.764
 6050POPC   C3B76329  23.806  34.799   7.064
 6050POPC   C4B76330  23.802  34.868   7.364
 6051POPC   NC376331   5.847   7.444   5.564
 6051POPC   PO476332   5.832   7.378   5.864
 6051POPC   GL176333   5.888   7.398   6.164
 6051POPC   GL276334   5.719   7.383   6.164
 6051POPC   C1A76335   5.879   7.432   6.464
 6051POPC   D2A76336   5.912   7.447   6.764
 6051POPC   C3A76337   5.869   7.379   7.064
 6051POPC   C4A76338   5.897   7.372   7.364
 6051POPC   C1B76339   5.587   7.439   6.464
 6051POPC   C2B76340   5.617   7.400   6.764
 6051POPC   C3B76341   5.590   7.470   7.064
 6051POPC   C4B76342   5.599   7.475   7.364
 6052POPC   NC376343   8.173  10.518   5.564
 6052POPC   PO476344   8.225  10.521   5.864
 6052POPC   GL176345   8.181  10.508   6.164
 6052POPC   GL276346   8.142  10.427   6.164
 6052POPC   C1A76347   8.194  10.532   6.464
 6052POPC   D2A76348   8.242  10.492   6.764
 6052POPC   C3A76349   8.147  10.540   7.064
 6052POPC   C4A76350   8.225  10.564   7.364
 6052POPC   C1B76351   8.093  10.276   6.464
 6052POPC   C2B76352   8.084  10.273   6.764
 6052POPC   C3B76353   8.042  10.316   7.064
 6052POPC   C4B76354   8.027  10.280   7.364
 6053POPC   NC376355  29.112  36.169   5.564
 6053POPC   PO476356  29.169  36.151   5.864
 6053POPC   GL176357  29.125  36.128   6.164
 6053POPC   GL276358  29.145  35.985   6.164
 6053POPC   C1A76359  29.161  36.093   6.464
 6053POPC   D2A76360  29.166  36.103   6.764
 6053POPC   C3A76361  29.160  36.146   7.064
 6053POPC   C4A76362  29.135  36.131   7.364
 6053POPC   C1B76363  29.151  35.895   6.464
 6053POPC   C2B76364  29.204  35.872   6.764
 6053POPC   C3B76365  29.208  35.862   7.064
 6053POPC   C4B76366  29.132  35.844   7.364
 6054POPC   NC376367  38.460  37.663   5.564
 6054POPC   PO476368  38.474  37.720   5.864
 6054POPC   GL176369  38.416  37.688   6.164
 6054POPC   GL276370  38.496  37.789   6.164
 6054POPC   C1A76371  38.493  37.675   6.464
 6054POPC   D2A76372  38.497  37.679   6.764
 6054POPC   C3A76373  38.491  37.725   7.064
 6054POPC   C4A76374  38.483  37.643   7.364
 6054POPC   C1B76375  38.524  37.945   6.464
 6054POPC   C2B76376  38.484  37.884   6.764
 6054POPC   C3B76377  38.527  37.915   7.064
 6054POPC   C4B76378  38.518  37.935   7.364
 6055POPC   NC376379  19.865  36.886   5.564
 6055POPC   PO476380  19.789  36.924   5.864
 6055POPC   GL176381  19.870  36.870   6.164
 6055POPC   GL276382  19.918  36.960   6.164
 6055POPC   C1A76383  19.864  36.863   6.464
 6055POPC   D2A76384  19.875  36.940   6.764
 6055POPC   C3A76385  19.789  36.870   7.064
 6055POPC   C4A76386  19.868  36.911   7.364
 6055POPC   C1B76387  20.047  36.925   6.464
 6055POPC   C2B76388  20.066  36.970   6.764
 6055POPC   C3B76389  20.055  37.008   7.064
 6055POPC   C4B76390  20.090  36.975   7.364
 6056POPC   NC376391   9.797  25.313   5.564
 6056POPC   PO476392   9.739  25.246   5.864
 6056POPC   GL176393   9.738  25.240   6.164
 6056POPC   GL276394   9.631  25.186   6.164
 6056POPC   C1A76395   9.707  25.276   6.464
 6056POPC   D2A76396   9.765  25.237   6.764
 6056POPC   C3A76397   9.790  25.277   7.064
 6056POPC   C4A76398   9.757  25.264   7.364
 6056POPC   C1B76399   9.533  25.128   6.464
 6056POPC   C2B76400   9.565  25.143   6.764
 6056POPC   C3B76401   9.496  25.193   7.064
 6056POPC   C4B76402   9.497  25.174   7.364
 6057POPC   NC376403  15.142   5.891   5.564
 6057POPC   PO476404  15.224   5.913   5.864
 6057POPC   GL176405  15.192   5.854   6.164
 6057POPC   GL276406  15.127   5.982   6.164
 6057POPC   C1A76407  15.153   5.825   6.464
 6057POPC   D2A76408  15.227   5.821   6.764
 6057POPC   C3A76409  15.152   5.830   7.064
 6057POPC   C4A76410  15.187   5.846   7.364
 6057POPC   C1B76411  15.111   6.084   6.464
 6057POPC   C2B76412  15.101   6.124   6.764
 6057POPC   C3B76413  15.126   6.073   7.064
 6057POPC   C4B76414  15.071   6.098   7.364
 6058POPC   NC376415  25.219  40.007   5.564
 6058POPC   PO476416  25.248  39.991   5.864
 6058POPC   GL176417  25.219  39.995   6.164
 6058POPC   GL276418  25.374  40.023   6.164
 6058POPC   C1A76419  25.265  40.026   6.464
 6058POPC   D2A76420  25.239  39.957   6.764
 6058POPC   C3A76421  25.246  40.045   7.064
 6058POPC   C4A76422  25.236  39.977   7.364
 6058POPC   C1B76423  25.475  40.013   6.464
 6058POPC   C2B76424  25.464  40.029   6.764
 6058POPC   C3B76425  25.559  39.998   7.064
 6058POPC   C4B76426  25.503  40.011   7.364
 6059POPC   NC376427   5.091  15.129   5.564
 6059POPC   PO476428   5.067  15.220   5.864
 6059POPC   GL176429   5.050  15.226   6.164
 6059POPC   GL276430   4.958  15.053   6.164
 6059POPC   C1A76431   5.077  15.178   6.464
 6059POPC   D2A76432   5.076  15.213   6.764
 6059POPC   C3A76433   5.133  15.192   7.064
 6059POPC   C4A76434   5.096  15.217   7.364
 6059POPC   C1B76435   4.880  15.019   6.464
 6059POPC   C2B76436   4.936  15.054   6.764
 6059POPC   C3B76437   4.922  14.975   7.064
 6059POPC   C4B76438   4.904  15.033   7.364
 6060POPC   NC376439  12.115  22.967   5.564
 6060POPC   PO476440  12.096  22.906   5.864
 6060POPC   GL176441  12.099  22.966   6.164
 6060POPC   GL276442  12.132  23.018   6.164
 6060POPC   C1A76443  12.109  22.971   6.464
 6060POPC   D2A76444  12.114  22.964   6.764
 6060POPC   C3A76445  12.124  22.920   7.064
 6060POPC   C4A76446  12.074  22.948   7.364
 6060POPC   C1B76447  12.310  23.083   6.464
 6060POPC   C2B76448  12.314  23.139   6.764
 6060POPC   C3B76449  12.272  23.133   7.064
 6060POPC   C4B76450  12.253  23.069   7.364
 6061POPC   NC376451  27.587  32.224   5.564
 6061POPC   PO476452  27.616  32.281   5.864
 6061POPC   GL176453  27.613  32.246   6.164
 6061POPC   GL276454  27.678  32.212   6.164
 6061POPC   C1A76455  27.633  32.291   6.464
 6061POPC   D2A76456  27.641  32.248   6.764
 6061POPC   C3A76457  27.559  32.288   7.064
 6061POPC   C4A76458  27.564  32.257   7.364
 6061POPC   C1B76459  27.791  32.177   6.464
 6061POPC   C2B76460  27.794  32.136   6.764
 6061POPC   C3B76461  27.831  32.132   7.064
 6061POPC   C4B76462  27.860  32.192   7.364
 6062POPC   NC376463  31.426  25.300   5.564
 6062POPC   PO476464  31.425  25.263   5.864
 6062POPC   GL176465  31.468  25.246   6.164
 6062POPC   GL276466  31.350  25.157   6.164
 6062POPC   C1A76467  31.518  25.232   6.464
 6062POPC   D2A76468  31.470  25.217   6.764
 6062POPC   C3A76469  31.521  25.291   7.064
 6062POPC   C4A76470  31.483  25.275   7.364
 6062POPC   C1B76471  31.254  25.159   6.464
 6062POPC   C2B76472  31.306  25.167   6.764
 6062POPC   C3B76473  31.230  25.079   7.064
 6062POPC   C4B76474  31.262  25.105   7.364
 6063POPC   NC376475  31.500  18.275   5.564
 6063POPC   PO476476  31.475  18.240   5.864
 6063POPC   GL176477  31.516  18.330   6.164
 6063POPC   GL276478  31.569  18.359   6.164
 6063POPC   C1A76479  31.505  18.260   6.464
 6063POPC   D2A76480  31.480  18.242   6.764
 6063POPC   C3A76481  31.483  18.288   7.064
 6063POPC   C4A76482  31.486  18.286   7.364
 6063POPC   C1B76483  31.621  18.487   6.464
 6063POPC   C2B76484  31.550  18.509   6.764
 6063POPC   C3B76485  31.575  18.469   7.064
 6063POPC   C4B76486  31.545  18.555   7.364
 6064POPC   NC376487  31.493  32.243   5.564
 6064POPC   PO476488  31.470  32.230   5.864
 6064POPC   GL176489  31.474  32.292   6.164
 6064POPC   GL276490  31.360  32.187   6.164
 6064POPC   C1A76491  31.465  32.263   6.464
 6064POPC   D2A76492  31.423  32.209   6.764
 6064POPC   C3A76493  31.481  32.254   7.064
 6064POPC   C4A76494  31.457  32.237   7.364
 6064POPC   C1B76495  31.207  32.185   6.464
 6064POPC   C2B76496  31.271  32.173   6.764
 6064POPC   C3B76497  31.208  32.173   7.064
 6064POPC   C4B76498  31.284  32.158   7.364
 6065POPC   NC376499  44.630  40.012   5.564
 6065POPC   PO476500  44.653  39.960   5.864
 6065POPC   GL176501  44.663  39.970   6.164
 6065POPC   GL276502  44.583  39.983   6.164
 6065POPC   C1A76503  44.664  40.038   6.464
 6065POPC   D2A76504  44.645  40.053   6.764
 6065POPC   C3A76505  44.647  40.012   7.064
 6065POPC   C4A76506  44.676  39.988   7.364
 6065POPC   C1B76507  44.420  39.901   6.464
 6065POPC   C2B76508  44.453  39.894   6.764
 6065POPC   C3B76509  44.499  39.902   7.064
 6065POPC   C4B76510  44.437  39.829   7.364
 6066POPC   NC376511  27.567   7.385   5.564
 6066POPC   PO476512  27.587   7.469   5.864
 6066POPC   GL176513  27.593   7.428   6.164
 6066POPC   GL276514  27.522   7.332   6.164
 6066POPC   C1A76515  27.590   7.435   6.464
 6066POPC   D2A76516  27.590   7.414   6.764
 6066POPC   C3A76517  27.642   7.435   7.064
 6066POPC   C4A76518  27.618   7.397   7.364
 6066POPC   C1B76519  27.460   7.224   6.464
 6066POPC   C2B76520  27.511   7.238   6.764
 6066POPC   C3B76521  27.460   7.144   7.064
 6066POPC   C4B76522  27.517   7.224   7.364
 6067POPC   NC376523  41.548  15.963   5.564
 6067POPC   PO476524  41.572  15.923   5.864
 6067POPC   GL176525  41.576  15.945   6.164
 6067POPC   GL276526  41.630  15.873   6.164
 6067POPC   C1A76527  41.574  15.930   6.464
 6067POPC   D2A76528  41.541  15.941   6.764
 6067POPC   C3A76529  41.564  15.935   7.064
 6067POPC   C4A76530  41.577  15.994   7.364
 6067POPC   C1B76531  41.713  15.806   6.464
 6067POPC   C2B76532  41.748  15.828   6.764
 6067POPC   C3B76533  41.756  15.747   7.064
 6067POPC   C4B76534  41.772  15.824   7.364
 6068POPC   NC376535   5.119  29.950   5.564
 6068POPC   PO476536   5.094  29.914   5.864
 6068POPC   GL176537   5.090  29.900   6.164
 6068POPC   GL276538   5.189  29.991   6.164
 6068POPC   C1A76539   5.124  29.962   6.464
 6068POPC   D2A76540   5.143  29.909   6.764
 6068POPC   C3A76541   5.138  29.948   7.064
 6068POPC   C4A76542   5.057  29.940   7.364
 6068POPC   C1B76543   5.307  30.015   6.464
 6068POPC   C2B76544   5.309  29.972   6.764
 6068POPC   C3B76545   5.329  30.009   7.064
 6068POPC   C4B76546   5.333  29.969   7.364
 6069POPC   NC376547  41.558  42.379   5.564
 6069POPC   PO476548  41.553  42.333   5.864
 6069POPC   GL176549  41.532  42.321   6.164
 6069POPC   GL276550  41.563  42.241   6.164
 6069POPC   C1A76551  41.555  42.377   6.464
 6069POPC   D2A76552  41.535  42.327   6.764
 6069POPC   C3A76553  41.536  42.347   7.064
 6069POPC   C4A76554  41.534  42.295   7.364
 6069POPC   C1B76555  41.692  42.147   6.464
 6069POPC   C2B76556  41.625  42.139   6.764
 6069POPC   C3B76557  41.690  42.099   7.064
 6069POPC   C4B76558  41.623  42.149   7.364
 6070POPC   NC376559   1.262  18.281   5.564
 6070POPC   PO476560   1.225  18.317   5.864
 6070POPC   GL176561   1.203  18.268   6.164
 6070POPC   GL276562   1.256  18.162   6.164
 6070POPC   C1A76563   1.199  18.264   6.464
 6070POPC   D2A76564   1.217  18.277   6.764
 6070POPC   C3A76565   1.257  18.251   7.064
 6070POPC   C4A76566   1.235  18.247   7.364
 6070POPC   C1B76567   1.345  18.080   6.464
 6070POPC   C2B76568   1.377  18.091   6.764
 6070POPC   C3B76569   1.364  18.124   7.064
 6070POPC   C4B76570   1.320  18.071   7.364
 6071POPC   NC376571  40.776  22.894   5.564
 6071POPC   PO476572  40.753  22.919   5.864
 6071POPC   GL176573  40.742  22.891   6.164
 6071POPC   GL276574  40.675  23.004   6.164
 6071POPC   C1A76575  40.827  22.909   6.464
 6071POPC   D2A76576  40.784  22.948   6.764
 6071POPC   C3A76577  40.751  22.929   7.064
 6071POPC   C4A76578  40.733  22.960   7.364
 6071POPC   C1B76579  40.510  23.020   6.464
 6071POPC   C2B76580  40.518  22.927   6.764
 6071POPC   C3B76581  40.491  23.022   7.064
 6071POPC   C4B76582  40.539  23.001   7.364
 6072POPC   NC376583  17.542  18.250   5.564
 6072POPC   PO476584  17.477  18.271   5.864
 6072POPC   GL176585  17.550  18.240   6.164
 6072POPC   GL276586  17.410  18.422   6.164
 6072POPC   C1A76587  17.488  18.252   6.464
 6072POPC   D2A76588  17.539  18.262   6.764
 6072POPC   C3A76589  17.504  18.286   7.064
 6072POPC   C4A76590  17.518  18.240   7.364
 6072POPC   C1B76591  17.336  18.488   6.464
 6072POPC   C2B76592  17.355  18.541   6.764
 6072POPC   C3B76593  17.351  18.538   7.064
 6072POPC   C4B76594  17.411  18.467   7.364
 6073POPC   NC376595  32.208   0.433   5.564
 6073POPC   PO476596  32.236   0.392   5.864
 6073POPC   GL176597  32.286   0.458   6.164
 6073POPC   GL276598  32.135   0.519   6.164
 6073POPC   C1A76599  32.201   0.399   6.464
 6073POPC   D2A76600  32.243   0.448   6.764
 6073POPC   C3A76601  32.250   0.415   7.064
 6073POPC   C4A76602  32.278   0.423   7.364
 6073POPC   C1B76603  32.111   0.628   6.464
 6073POPC   C2B76604  32.129   0.684   6.764
 6073POPC   C3B76605  32.123   0.650   7.064
 6073POPC   C4B76606  32.098   0.628   7.364
 6074POPC   NC376607  29.131  14.422   5.564
 6074POPC   PO476608  29.107  14.439   5.864
 6074POPC   GL176609  29.166  14.385   6.164
 6074POPC   GL276610  29.109  14.518   6.164
 6074POPC   C1A76611  29.139  14.403   6.464
 6074POPC   D2A76612  29.109  14.369   6.764
 6074POPC   C3A76613  29.110  14.395   7.064
 6074POPC   C4A76614  29.119  14.439   7.364
 6074POPC   C1B76615  28.963  14.653   6.464
 6074POPC   C2B76616  29.041  14.650   6.764
 6074POPC   C3B76617  28.963  14.611   7.064
 6074POPC   C4B76618  28.995  14.580   7.364
 6075POPC   NC376619   4.298   8.968   5.564
 6075POPC   PO476620   4.286   9.017   5.864
 6075POPC   GL176621   4.298   8.946   6.164
 6075POPC   GL276622   4.217   8.856   6.164
 6075POPC   C1A76623   4.287   8.982   6.464
 6075POPC   D2A76624   4.353   8.988   6.764
 6075POPC   C3A76625   4.327   9.001   7.064
 6075POPC   C4A76626   4.334   9.006   7.364
 6075POPC   C1B76627   4.188   8.780   6.464
 6075POPC   C2B76628   4.129   8.808   6.764
 6075POPC   C3B76629   4.118   8.825   7.064
 6075POPC   C4B76630   4.141   8.774   7.364
 6076POPC   NC376631   2.791  29.100   5.564
 6076POPC   PO476632   2.810  29.134   5.864
 6076POPC   GL176633   2.735  29.118   6.164
 6076POPC   GL276634   2.851  29.201   6.164
 6076POPC   C1A76635   2.781  29.116   6.464
 6076POPC   D2A76636   2.717  29.182   6.764
 6076POPC   C3A76637   2.736  29.179   7.064
 6076POPC   C4A76638   2.764  29.097   7.364
 6076POPC   C1B76639   3.010  29.323   6.464
 6076POPC   C2B76640   2.978  29.276   6.764
 6076POPC   C3B76641   2.977  29.304   7.064
 6076POPC   C4B76642   2.977  29.268   7.364
 6077POPC   NC376643  13.662   9.732   5.564
 6077POPC   PO476644  13.578   9.748   5.864
 6077POPC   GL176645  13.583   9.759   6.164
 6077POPC   GL276646  13.577   9.852   6.164
 6077POPC   C1A76647  13.655   9.777   6.464
 6077POPC   D2A76648  13.640   9.765   6.764
 6077POPC   C3A76649  13.648   9.765   7.064
 6077POPC   C4A76650  13.605   9.756   7.364
 6077POPC   C1B76651  13.463   9.949   6.464
 6077POPC   C2B76652  13.440   9.917   6.764
 6077POPC   C3B76653  13.414   9.903   7.064
 6077POPC   C4B76654  13.447   9.898   7.364
 6078POPC   NC376655  26.863  11.345   5.564
 6078POPC   PO476656  26.811  11.344   5.864
 6078POPC   GL176657  26.790  11.334   6.164
 6078POPC   GL276658  26.924  11.248   6.164
 6078POPC   C1A76659  26.863  11.282   6.464
 6078POPC   D2A76660  26.863  11.284   6.764
 6078POPC   C3A76661  26.803  11.307   7.064
 6078POPC   C4A76662  26.802  11.306   7.364
 6078POPC   C1B76663  26.981  11.156   6.464
 6078POPC   C2B76664  26.972  11.141   6.764
 6078POPC   C3B76665  26.997  11.170   7.064
 6078POPC   C4B76666  27.038  11.141   7.364
 6079POPC   NC376667  20.611  21.422   5.564
 6079POPC   PO476668  20.629  21.416   5.864
 6079POPC   GL176669  20.618  21.413   6.164
 6079POPC   GL276670  20.774  21.398   6.164
 6079POPC   C1A76671  20.590  21.389   6.464
 6079POPC   D2A76672  20.608  21.368   6.764
 6079POPC   C3A76673  20.660  21.414   7.064
 6079POPC   C4A76674  20.638  21.360   7.364
 6079POPC   C1B76675  20.856  21.427   6.464
 6079POPC   C2B76676  20.820  21.470   6.764
 6079POPC   C3B76677  20.859  21.471   7.064
 6079POPC   C4B76678  20.814  21.419   7.364
 6080POPC   NC376679  12.892  10.552   5.564
 6080POPC   PO476680  12.859  10.519   5.864
 6080POPC   GL176681  12.817  10.485   6.164
 6080POPC   GL276682  12.844  10.662   6.164
 6080POPC   C1A76683  12.863  10.545   6.464
 6080POPC   D2A76684  12.812  10.574   6.764
 6080POPC   C3A76685  12.876  10.502   7.064
 6080POPC   C4A76686  12.850  10.565   7.364
 6080POPC   C1B76687  12.836  10.746   6.464
 6080POPC   C2B76688  12.851  10.747   6.764
 6080POPC   C3B76689  12.754  10.754   7.064
 6080POPC   C4B76690  12.778  10.796   7.364
 6081POPC   NC376691  12.865   0.390   5.564
 6081POPC   PO476692  12.887   0.487   5.864
 6081POPC   GL176693  12.820   0.463   6.164
 6081POPC   GL276694  12.926   0.343   6.164
 6081POPC   C1A76695  12.811   0.461   6.464
 6081POPC   D2A76696  12.883   0.401   6.764
 6081POPC   C3A76697  12.836   0.427   7.064
 6081POPC   C4A76698  12.818   0.410   7.364
 6081POPC   C1B76699  13.069   0.336   6.464
 6081POPC   C2B76700  13.080   0.348   6.764
 6081POPC   C3B76701  13.050   0.305   7.064
 6081POPC   C4B76702  13.093   0.308   7.364
 6082POPC   NC376703   1.251  28.403   5.564
 6082POPC   PO476704   1.264  28.375   5.864
 6082POPC   GL176705   1.234  28.405   6.164
 6082POPC   GL276706   1.137  28.374   6.164
 6082POPC   C1A76707   1.227  28.404   6.464
 6082POPC   D2A76708   1.230  28.333   6.764
 6082POPC   C3A76709   1.262  28.389   7.064
 6082POPC   C4A76710   1.240  28.403   7.364
 6082POPC   C1B76711   0.946  28.343   6.464
 6082POPC   C2B76712   0.937  28.346   6.764
 6082POPC   C3B76713   1.014  28.354   7.064
 6082POPC   C4B76714   1.001  28.274   7.364
 6083POPC   NC376715  38.485  16.735   5.564
 6083POPC   PO476716  38.483  16.711   5.864
 6083POPC   GL176717  38.435  16.773   6.164
 6083POPC   GL276718  38.329  16.752   6.164
 6083POPC   C1A76719  38.480  16.751   6.464
 6083POPC   D2A76720  38.418  16.682   6.764
 6083POPC   C3A76721  38.459  16.703   7.064
 6083POPC   C4A76722  38.471  16.741   7.364
 6083POPC   C1B76723  38.187  16.679   6.464
 6083POPC   C2B76724  38.227  16.734   6.764
 6083POPC   C3B76725  38.209  16.739   7.064
 6083POPC   C4B76726  38.177  16.763   7.364
 6084POPC   NC376727  29.907  21.355   5.564
 6084POPC   PO476728  29.928  21.373   5.864
 6084POPC   GL176729  29.879  21.368   6.164
 6084POPC   GL276730  29.923  21.550   6.164
 6084POPC   C1A76731  29.910  21.358   6.464
 6084POPC   D2A76732  29.923  21.353   6.764
 6084POPC   C3A76733  29.970  21.417   7.064
 6084POPC   C4A76734  29.948  21.433   7.364
 6084POPC   C1B76735  29.891  21.603   6.464
 6084POPC   C2B76736  29.889  21.666   6.764
 6084POPC   C3B76737  29.955  21.611   7.064
 6084POPC   C4B76738  29.929  21.625   7.364
 6085POPC   NC376739  28.361  40.815   5.564
 6085POPC   PO476740  28.402  40.811   5.864
 6085POPC   GL176741  28.391  40.755   6.164
 6085POPC   GL276742  28.329  40.873   6.164
 6085POPC   C1A76743  28.334  40.749   6.464
 6085POPC   D2A76744  28.389  40.814   6.764
 6085POPC   C3A76745  28.418  40.750   7.064
 6085POPC   C4A76746  28.334  40.790   7.364
 6085POPC   C1B76747  28.380  41.043   6.464
 6085POPC   C2B76748  28.358  41.017   6.764
 6085POPC   C3B76749  28.375  40.991   7.064
 6085POPC   C4B76750  28.328  41.053   7.364
 6086POPC   NC376751  12.814   1.946   5.564
 6086POPC   PO476752  12.898   2.012   5.864
 6086POPC   GL176753  12.806   1.968   6.164
 6086POPC   GL276754  12.994   1.962   6.164
 6086POPC   C1A76755  12.859   1.963   6.464
 6086POPC   D2A76756  12.823   2.026   6.764
 6086POPC   C3A76757  12.822   2.026   7.064
 6086POPC   C4A76758  12.840   1.985   7.364
 6086POPC   C1B76759  13.075   1.906   6.464
 6086POPC   C2B76760  13.048   1.898   6.764
 6086POPC   C3B76761  13.049   1.847   7.064
 6086POPC   C4B76762  13.043   1.908   7.364
 6087POPC   NC376763   6.608  34.581   5.564
 6087POPC   PO476764   6.651  34.534   5.864
 6087POPC   GL176765   6.621  34.553   6.164
 6087POPC   GL276766   6.769  34.719   6.164
 6087POPC   C1A76767   6.622  34.616   6.464
 6087POPC   D2A76768   6.625  34.615   6.764
 6087POPC   C3A76769   6.686  34.583   7.064
 6087POPC   C4A76770   6.667  34.579   7.364
 6087POPC   C1B76771   6.804  34.788   6.464
 6087POPC   C2B76772   6.807  34.717   6.764
 6087POPC   C3B76773   6.822  34.745   7.064
 6087POPC   C4B76774   6.764  34.791   7.364
 6088POPC   NC376775  43.120  44.700   5.564
 6088POPC   PO476776  43.075  44.618   5.864
 6088POPC   GL176777  43.124  44.628   6.164
 6088POPC   GL276778  43.217  44.655   6.164
 6088POPC   C1A76779  43.114  44.625   6.464
 6088POPC   D2A76780  43.136  44.632   6.764
 6088POPC   C3A76781  43.133  44.683   7.064
 6088POPC   C4A76782  43.070  44.649   7.364
 6088POPC   C1B76783  43.368  44.551   6.464
 6088POPC   C2B76784  43.293  44.539   6.764
 6088POPC   C3B76785  43.345  44.558   7.064
 6088POPC   C4B76786  43.302  44.580   7.364
 6089POPC   NC376787  19.881  26.005   5.564
 6089POPC   PO476788  19.827  26.051   5.864
 6089POPC   GL176789  19.856  26.023   6.164
 6089POPC   GL276790  20.000  26.047   6.164
 6089POPC   C1A76791  19.785  26.017   6.464
 6089POPC   D2A76792  19.864  26.089   6.764
 6089POPC   C3A76793  19.871  26.060   7.064
 6089POPC   C4A76794  19.824  26.014   7.364
 6089POPC   C1B76795  20.131  26.098   6.464
 6089POPC   C2B76796  20.124  26.029   6.764
 6089POPC   C3B76797  20.077  26.026   7.064
 6089POPC   C4B76798  20.116  26.104   7.364
 6090POPC   NC376799   2.032  26.081   5.564
 6090POPC   PO476800   1.987  26.028   5.864
 6090POPC   GL176801   1.945  26.088   6.164
 6090POPC   GL276802   2.018  26.175   6.164
 6090POPC   C1A76803   1.945  26.075   6.464
 6090POPC   D2A76804   2.037  26.013   6.764
 6090POPC   C3A76805   2.011  26.004   7.064
 6090POPC   C4A76806   1.957  26.078   7.364
 6090POPC   C1B76807   1.932  26.337   6.464
 6090POPC   C2B76808   1.968  26.266   6.764
 6090POPC   C3B76809   1.957  26.267   7.064
 6090POPC   C4B76810   1.940  26.295   7.364
 6091POPC   NC376811  29.874  30.687   5.564
 6091POPC   PO476812  29.949  30.737   5.864
 6091POPC   GL176813  29.908  30.723   6.164
 6091POPC   GL276814  29.779  30.813   6.164
 6091POPC   C1A76815  29.880  30.736   6.464
 6091POPC   D2A76816  29.898  30.722   6.764
 6091POPC   C3A76817  29.901  30.744   7.064
 6091POPC   C4A76818  29.941  30.731   7.364
 6091POPC   C1B76819  29.750  30.844   6.464
 6091POPC   C2B76820  29.680  30.818   6.764
 6091POPC   C3B76821  29.772  30.814   7.064
 6091POPC   C4B76822  29.750  30.875   7.364
 6092POPC   NC376823  39.248  19.829   5.564
 6092POPC   PO476824  39.198  19.842   5.864
 6092POPC   GL176825  39.255  19.852   6.164
 6092POPC   GL276826  39.206  19.974   6.164
 6092POPC   C1A76827  39.222  19.786   6.464
 6092POPC   D2A76828  39.227  19.789   6.764
 6092POPC   C3A76829  39.251  19.849   7.064
 6092POPC   C4A76830  39.220  19.855   7.364
 6092POPC   C1B76831  39.234  20.115   6.464
 6092POPC   C2B76832  39.266  20.057   6.764
 6092POPC   C3B76833  39.234  20.094   7.064
 6092POPC   C4B76834  39.253  20.101   7.364
 6093POPC   NC376835  25.254  22.930   5.564
 6093POPC   PO476836  25.230  22.949   5.864
 6093POPC   GL176837  25.275  22.917   6.164
 6093POPC   GL276838  25.246  22.842   6.164
 6093POPC   C1A76839  25.274  22.948   6.464
 6093POPC   D2A76840  25.228  22.943   6.764
 6093POPC   C3A76841  25.310  22.984   7.064
 6093POPC   C4A76842  25.269  22.977   7.364
 6093POPC   C1B76843  25.226  22.688   6.464
 6093POPC   C2B76844  25.219  22.663   6.764
 6093POPC   C3B76845  25.226  22.679   7.064
 6093POPC   C4B76846  25.249  22.676   7.364
 6094POPC   NC376847  26.792  37.631   5.564
 6094POPC   PO476848  26.838  37.668   5.864
 6094POPC   GL176849  26.809  37.640   6.164
 6094POPC   GL276850  26.962  37.734   6.164
 6094POPC   C1A76851  26.837  37.631   6.464
 6094POPC   D2A76852  26.833  37.727   6.764
 6094POPC   C3A76853  26.781  37.706   7.064
 6094POPC   C4A76854  26.816  37.682   7.364
 6094POPC   C1B76855  27.041  37.817   6.464
 6094POPC   C2B76856  27.077  37.808   6.764
 6094POPC   C3B76857  27.083  37.839   7.064
 6094POPC   C4B76858  27.035  37.818   7.364
 6095POPC   NC376859  29.952  22.113   5.564
 6095POPC   PO476860  29.939  22.121   5.864
 6095POPC   GL176861  29.923  22.189   6.164
 6095POPC   GL276862  29.875  22.028   6.164
 6095POPC   C1A76863  29.920  22.193   6.464
 6095POPC   D2A76864  29.933  22.141   6.764
 6095POPC   C3A76865  29.907  22.117   7.064
 6095POPC   C4A76866  29.955  22.170   7.364
 6095POPC   C1B76867  29.741  22.000   6.464
 6095POPC   C2B76868  29.741  22.005   6.764
 6095POPC   C3B76869  29.754  21.995   7.064
 6095POPC   C4B76870  29.757  22.006   7.364
 6096POPC   NC376871  43.882  20.620   5.564
 6096POPC   PO476872  43.874  20.655   5.864
 6096POPC   GL176873  43.928  20.636   6.164
 6096POPC   GL276874  44.018  20.502   6.164
 6096POPC   C1A76875  43.929  20.587   6.464
 6096POPC   D2A76876  43.876  20.588   6.764
 6096POPC   C3A76877  43.921  20.623   7.064
 6096POPC   C4A76878  43.878  20.591   7.364
 6096POPC   C1B76879  44.084  20.483   6.464
 6096POPC   C2B76880  44.118  20.495   6.764
 6096POPC   C3B76881  44.037  20.468   7.064
 6096POPC   C4B76882  44.068  20.471   7.364
 6097POPC   NC376883  14.410   8.949   5.564
 6097POPC   PO476884  14.402   8.948   5.864
 6097POPC   GL176885  14.447   9.019   6.164
 6097POPC   GL276886  14.281   8.969   6.164
 6097POPC   C1A76887  14.380   8.966   6.464
 6097POPC   D2A76888  14.417   8.967   6.764
 6097POPC   C3A76889  14.390   8.990   7.064
 6097POPC   C4A76890  14.409   8.988   7.364
 6097POPC   C1B76891  14.180   8.867   6.464
 6097POPC   C2B76892  14.154   8.951   6.764
 6097POPC   C3B76893  14.213   8.930   7.064
 6097POPC   C4B76894  14.125   8.891   7.364
 6098POPC   NC376895  14.367   1.219   5.564
 6098POPC   PO476896  14.391   1.206   5.864
 6098POPC   GL176897  14.391   1.264   6.164
 6098POPC   GL276898  14.443   1.063   6.164
 6098POPC   C1A76899  14.408   1.225   6.464
 6098POPC   D2A76900  14.414   1.169   6.764
 6098POPC   C3A76901  14.386   1.195   7.064
 6098POPC   C4A76902  14.404   1.218   7.364
 6098POPC   C1B76903  14.436   0.987   6.464
 6098POPC   C2B76904  14.460   0.921   6.764
 6098POPC   C3B76905  14.390   0.927   7.064
 6098POPC   C4B76906  14.434   0.977   7.364
 6099POPC   NC376907   1.984  13.587   5.564
 6099POPC   PO476908   1.958  13.586   5.864
 6099POPC   GL176909   2.018  13.625   6.164
 6099POPC   GL276910   2.056  13.755   6.164
 6099POPC   C1A76911   2.023  13.581   6.464
 6099POPC   D2A76912   1.952  13.644   6.764
 6099POPC   C3A76913   1.969  13.595   7.064
 6099POPC   C4A76914   2.035  13.623   7.364
 6099POPC   C1B76915   2.005  13.848   6.464
 6099POPC   C2B76916   2.000  13.863   6.764
 6099POPC   C3B76917   2.020  13.857   7.064
 6099POPC   C4B76918   1.983  13.882   7.364
 6100POPC   NC376919  21.404   8.928   5.564
 6100POPC   PO476920  21.358   8.940   5.864
 6100POPC   GL176921  21.413   8.970   6.164
 6100POPC   GL276922  21.475   8.967   6.164
 6100POPC   C1A76923  21.435   8.995   6.464
 6100POPC   D2A76924  21.373   8.972   6.764
 6100POPC   C3A76925  21.434   8.946   7.064
 6100POPC   C4A76926  21.394   9.008   7.364
 6100POPC   C1B76927  21.636   8.990   6.464
 6100POPC   C2B76928  21.665   9.000   6.764
 6100POPC   C3B76929  21.603   9.064   7.064
 6100POPC   C4B76930  21.653   8.998   7.364
 6101POPC   NC376931   6.668   9.712   5.564
 6101POPC   PO476932   6.642   9.777   5.864
 6101POPC   GL176933   6.608   9.707   6.164
 6101POPC   GL276934   6.647   9.907   6.164
 6101POPC   C1A76935   6.631   9.778   6.464
 6101POPC   D2A76936   6.688   9.715   6.764
 6101POPC   C3A76937   6.664   9.786   7.064
 6101POPC   C4A76938   6.659   9.793   7.364
 6101POPC   C1B76939   6.567   9.948   6.464
 6101POPC   C2B76940   6.566   9.994   6.764
 6101POPC   C3B76941   6.588   9.985   7.064
 6101POPC   C4B76942   6.517   9.983   7.364
 6102POPC   NC376943  16.719  25.256   5.564
 6102POPC   PO476944  16.702  25.261   5.864
 6102POPC   GL176945  16.765  25.313   6.164
 6102POPC   GL276946  16.571  25.276   6.164
 6102POPC   C1A76947  16.682  25.279   6.464
 6102POPC   D2A76948  16.697  25.297   6.764
 6102POPC   C3A76949  16.731  25.273   7.064
 6102POPC   C4A76950  16.741  25.307   7.364
 6102POPC   C1B76951  16.466  25.268   6.464
 6102POPC   C2B76952  16.446  25.279   6.764
 6102POPC   C3B76953  16.455  25.256   7.064
 6102POPC   C4B76954  16.512  25.320   7.364
 6103POPC   NC376955  22.923  28.359   5.564
 6103POPC   PO476956  22.976  28.400   5.864
 6103POPC   GL176957  22.953  28.341   6.164
 6103POPC   GL276958  22.925  28.482   6.164
 6103POPC   C1A76959  22.901  28.365   6.464
 6103POPC   D2A76960  22.932  28.323   6.764
 6103POPC   C3A76961  22.987  28.382   7.064
 6103POPC   C4A76962  22.969  28.400   7.364
 6103POPC   C1B76963  22.923  28.585   6.464
 6103POPC   C2B76964  22.886  28.581   6.764
 6103POPC   C3B76965  22.923  28.630   7.064
 6103POPC   C4B76966  22.960  28.611   7.364
 6104POPC   NC376967  11.319   6.611   5.564
 6104POPC   PO476968  11.251   6.604   5.864
 6104POPC   GL176969  11.284   6.650   6.164
 6104POPC   GL276970  11.374   6.742   6.164
 6104POPC   C1A76971  11.282   6.642   6.464
 6104POPC   D2A76972  11.305   6.646   6.764
 6104POPC   C3A76973  11.282   6.655   7.064
 6104POPC   C4A76974  11.302   6.609   7.364
 6104POPC   C1B76975  11.431   6.900   6.464
 6104POPC   C2B76976  11.435   6.821   6.764
 6104POPC   C3B76977  11.386   6.827   7.064
 6104POPC   C4B76978  11.456   6.862   7.364
 6105POPC   NC376979  20.600   9.751   5.564
 6105POPC   PO476980  20.577   9.745   5.864
 6105POPC   GL176981  20.577   9.726   6.164
 6105POPC   GL276982  20.576   9.666   6.164
 6105POPC   C1A76983  20.586   9.739   6.464
 6105POPC   D2A76984  20.565   9.749   6.764
 6105POPC   C3A76985  20.638   9.734   7.064
 6105POPC   C4A76986  20.582   9.722   7.364
 6105POPC   C1B76987  20.493   9.556   6.464
 6105POPC   C2B76988  20.495   9.479   6.764
 6105POPC   C3B76989  20.465   9.494   7.064
 6105POPC   C4B76990  20.529   9.544   7.364
 6106POPC   NC376991   7.392  44.709   5.564
 6106POPC   PO476992   7.417  44.706   5.864
 6106POPC   GL176993   7.466  44.658   6.164
 6106POPC   GL276994   7.536  44.618   6.164
 6106POPC   C1A76995   7.387  44.648   6.464
 6106POPC   D2A76996   7.462  44.617   6.764
 6106POPC   C3A76997   7.457  44.626   7.064
 6106POPC   C4A76998   7.411  44.635   7.364
 6106POPC   C1B76999   7.614  44.547   6.464
 6106POPC   C2B77000   7.639  44.514   6.764
 6106POPC   C3B77001   7.587  44.519   7.064
 6106POPC   C4B77002   7.652  44.529   7.364
 6107POPC   NC377003  33.021   7.385   5.564
 6107POPC   PO477004  33.012   7.420   5.864
 6107POPC   GL177005  33.024   7.424   6.164
 6107POPC   GL277006  33.054   7.295   6.164
 6107POPC   C1A77007  32.989   7.388   6.464
 6107POPC   D2A77008  33.073   7.450   6.764
 6107POPC   C3A77009  33.015   7.415   7.064
 6107POPC   C4A77010  33.013   7.407   7.364
 6107POPC   C1B77011  33.089   7.219   6.464
 6107POPC   C2B77012  33.022   7.123   6.764
 6107POPC   C3B77013  33.026   7.189   7.064
 6107POPC   C4B77014  33.080   7.146   7.364
 6108POPC   NC377015  21.366  44.629   5.564
 6108POPC   PO477016  21.364  44.686   5.864
 6108POPC   GL177017  21.365  44.618   6.164
 6108POPC   GL277018  21.475  44.596   6.164
 6108POPC   C1A77019  21.405  44.623   6.464
 6108POPC   D2A77020  21.383  44.677   6.764
 6108POPC   C3A77021  21.436  44.706   7.064
 6108POPC   C4A77022  21.422  44.687   7.364
 6108POPC   C1B77023  21.580  44.443   6.464
 6108POPC   C2B77024  21.545  44.492   6.764
 6108POPC   C3B77025  21.558  44.520   7.064
 6108POPC   C4B77026  21.607  44.458   7.364
 6109POPC   NC377027  10.560  42.323   5.564
 6109POPC   PO477028  10.554  42.377   5.864
 6109POPC   GL177029  10.490  42.322   6.164
 6109POPC   GL277030  10.409  42.369   6.164
 6109POPC   C1A77031  10.569  42.304   6.464
 6109POPC   D2A77032  10.543  42.335   6.764
 6109POPC   C3A77033  10.515  42.309   7.064
 6109POPC   C4A77034  10.477  42.320   7.364
 6109POPC   C1B77035  10.297  42.467   6.464
 6109POPC   C2B77036  10.334  42.452   6.764
 6109POPC   C3B77037  10.274  42.434   7.064
 6109POPC   C4B77038  10.324  42.419   7.364
 6110POPC   NC377039  22.936   1.219   5.564
 6110POPC   PO477040  22.912   1.215   5.864
 6110POPC   GL177041  22.928   1.211   6.164
 6110POPC   GL277042  22.873   1.274   6.164
 6110POPC   C1A77043  22.931   1.178   6.464
 6110POPC   D2A77044  22.977   1.184   6.764
 6110POPC   C3A77045  22.969   1.214   7.064
 6110POPC   C4A77046  22.929   1.167   7.364
 6110POPC   C1B77047  22.724   1.276   6.464
 6110POPC   C2B77048  22.699   1.288   6.764
 6110POPC   C3B77049  22.677   1.295   7.064
 6110POPC   C4B77050  22.720   1.268   7.364
 6111POPC   NC377051  41.546  41.607   5.564
 6111POPC   PO477052  41.602  41.582   5.864
 6111POPC   GL177053  41.582  41.600   6.164
 6111POPC   GL277054  41.436  41.536   6.164
 6111POPC   C1A77055  41.575  41.527   6.464
 6111POPC   D2A77056  41.544  41.584   6.764
 6111POPC   C3A77057  41.520  41.543   7.064
 6111POPC   C4A77058  41.532  41.542   7.364
 6111POPC   C1B77059  41.356  41.633   6.464
 6111POPC   C2B77060  41.266  41.559   6.764
 6111POPC   C3B77061  41.345  41.587   7.064
 6111POPC   C4B77062  41.319  41.600   7.364
 6112POPC   NC377063  13.659  14.373   5.564
 6112POPC   PO477064  13.636  14.433   5.864
 6112POPC   GL177065  13.587  14.430   6.164
 6112POPC   GL277066  13.536  14.379   6.164
 6112POPC   C1A77067  13.661  14.383   6.464
 6112POPC   D2A77068  13.610  14.426   6.764
 6112POPC   C3A77069  13.615  14.414   7.064
 6112POPC   C4A77070  13.591  14.360   7.364
 6112POPC   C1B77071  13.375  14.397   6.464
 6112POPC   C2B77072  13.403  14.386   6.764
 6112POPC   C3B77073  13.403  14.387   7.064
 6112POPC   C4B77074  13.427  14.329   7.364
 6113POPC   NC377075  27.608   8.972   5.564
 6113POPC   PO477076  27.557   9.004   5.864
 6113POPC   GL177077  27.562   9.004   6.164
 6113POPC   GL277078  27.576   9.086   6.164
 6113POPC   C1A77079  27.627   8.959   6.464
 6113POPC   D2A77080  27.629   8.927   6.764
 6113POPC   C3A77081  27.564   8.969   7.064
 6113POPC   C4A77082  27.607   9.020   7.364
 6113POPC   C1B77083  27.510   9.253   6.464
 6113POPC   C2B77084  27.518   9.241   6.764
 6113POPC   C3B77085  27.474   9.228   7.064
 6113POPC   C4B77086  27.481   9.177   7.364
 6114POPC   NC377087  36.137  24.463   5.564
 6114POPC   PO477088  36.105  24.442   5.864
 6114POPC   GL177089  36.150  24.468   6.164
 6114POPC   GL277090  36.231  24.499   6.164
 6114POPC   C1A77091  36.100  24.470   6.464
 6114POPC   D2A77092  36.111  24.459   6.764
 6114POPC   C3A77093  36.160  24.466   7.064
 6114POPC   C4A77094  36.175  24.492   7.364
 6114POPC   C1B77095  36.374  24.632   6.464
 6114POPC   C2B77096  36.347  24.556   6.764
 6114POPC   C3B77097  36.392  24.542   7.064
 6114POPC   C4B77098  36.401  24.579   7.364
 6115POPC   NC377099  19.803  22.904   5.564
 6115POPC   PO477100  19.837  22.932   5.864
 6115POPC   GL177101  19.811  22.930   6.164
 6115POPC   GL277102  19.939  22.841   6.164
 6115POPC   C1A77103  19.797  22.925   6.464
 6115POPC   D2A77104  19.832  22.973   6.764
 6115POPC   C3A77105  19.853  22.889   7.064
 6115POPC   C4A77106  19.868  22.910   7.364
 6115POPC   C1B77107  20.011  22.743   6.464
 6115POPC   C2B77108  20.064  22.803   6.764
 6115POPC   C3B77109  19.995  22.724   7.064
 6115POPC   C4B77110  19.991  22.726   7.364
 6116POPC   NC377111  23.744   4.328   5.564
 6116POPC   PO477112  23.701   4.320   5.864
 6116POPC   GL177113  23.756   4.275   6.164
 6116POPC   GL277114  23.726   4.458   6.164
 6116POPC   C1A77115  23.680   4.269   6.464
 6116POPC   D2A77116  23.681   4.271   6.764
 6116POPC   C3A77117  23.745   4.362   7.064
 6116POPC   C4A77118  23.717   4.332   7.364
 6116POPC   C1B77119  23.700   4.602   6.464
 6116POPC   C2B77120  23.698   4.543   6.764
 6116POPC   C3B77121  23.643   4.594   7.064
 6116POPC   C4B77122  23.647   4.593   7.364
 6117POPC   NC377123  32.998  20.569   5.564
 6117POPC   PO477124  33.069  20.620   5.864
 6117POPC   GL177125  33.001  20.655   6.164
 6117POPC   GL277126  32.976  20.507   6.164
 6117POPC   C1A77127  32.976  20.614   6.464
 6117POPC   D2A77128  33.055  20.576   6.764
 6117POPC   C3A77129  32.976  20.566   7.064
 6117POPC   C4A77130  33.044  20.592   7.364
 6117POPC   C1B77131  33.016  20.357   6.464
 6117POPC   C2B77132  33.017  20.317   6.764
 6117POPC   C3B77133  32.987  20.313   7.064
 6117POPC   C4B77134  32.994  20.346   7.364
 6118POPC   NC377135  20.660   3.552   5.564
 6118POPC   PO477136  20.569   3.578   5.864
 6118POPC   GL177137  20.595   3.535   6.164
 6118POPC   GL277138  20.538   3.655   6.164
 6118POPC   C1A77139  20.606   3.510   6.464
 6118POPC   D2A77140  20.637   3.573   6.764
 6118POPC   C3A77141  20.597   3.573   7.064
 6118POPC   C4A77142  20.601   3.540   7.364
 6118POPC   C1B77143  20.511   3.753   6.464
 6118POPC   C2B77144  20.542   3.759   6.764
 6118POPC   C3B77145  20.528   3.826   7.064
 6118POPC   C4B77146  20.547   3.776   7.364
 6119POPC   NC377147  22.170   7.391   5.564
 6119POPC   PO477148  22.133   7.443   5.864
 6119POPC   GL177149  22.192   7.421   6.164
 6119POPC   GL277150  22.159   7.542   6.164
 6119POPC   C1A77151  22.170   7.372   6.464
 6119POPC   D2A77152  22.181   7.427   6.764
 6119POPC   C3A77153  22.152   7.396   7.064
 6119POPC   C4A77154  22.140   7.430   7.364
 6119POPC   C1B77155  22.210   7.692   6.464
 6119POPC   C2B77156  22.223   7.626   6.764
 6119POPC   C3B77157  22.198   7.648   7.064
 6119POPC   C4B77158  22.262   7.690   7.364
 6120POPC   NC377159  17.496   2.781   5.564
 6120POPC   PO477160  17.540   2.769   5.864
 6120POPC   GL177161  17.539   2.807   6.164
 6120POPC   GL277162  17.380   2.773   6.164
 6120POPC   C1A77163  17.459   2.788   6.464
 6120POPC   D2A77164  17.514   2.794   6.764
 6120POPC   C3A77165  17.515   2.753   7.064
 6120POPC   C4A77166  17.514   2.767   7.364
 6120POPC   C1B77167  17.290   2.771   6.464
 6120POPC   C2B77168  17.265   2.715   6.764
 6120POPC   C3B77169  17.295   2.784   7.064
 6120POPC   C4B77170  17.276   2.709   7.364
 6121POPC   NC377171  32.227   8.939   5.564
 6121POPC   PO477172  32.237   8.963   5.864
 6121POPC   GL177173  32.267   8.943   6.164
 6121POPC   GL277174  32.397   8.912   6.164
 6121POPC   C1A77175  32.283   9.001   6.464
 6121POPC   D2A77176  32.217   8.995   6.764
 6121POPC   C3A77177  32.297   8.977   7.064
 6121POPC   C4A77178  32.237   8.954   7.364
 6121POPC   C1B77179  32.509   8.914   6.464
 6121POPC   C2B77180  32.469   8.885   6.764
 6121POPC   C3B77181  32.452   8.937   7.064
 6121POPC   C4B77182  32.530   8.879   7.364
 6122POPC   NC377183  33.047  27.636   5.564
 6122POPC   PO477184  32.991  27.573   5.864
 6122POPC   GL177185  32.991  27.574   6.164
 6122POPC   GL277186  32.886  27.700   6.164
 6122POPC   C1A77187  32.988  27.568   6.464
 6122POPC   D2A77188  33.008  27.625   6.764
 6122POPC   C3A77189  33.011  27.544   7.064
 6122POPC   C4A77190  33.049  27.612   7.364
 6122POPC   C1B77191  32.817  27.697   6.464
 6122POPC   C2B77192  32.845  27.702   6.764
 6122POPC   C3B77193  32.837  27.681   7.064
 6122POPC   C4B77194  32.765  27.691   7.364
 6123POPC   NC377195  12.121   4.268   5.564
 6123POPC   PO477196  12.116   4.339   5.864
 6123POPC   GL177197  12.111   4.282   6.164
 6123POPC   GL277198  12.027   4.419   6.164
 6123POPC   C1A77199  12.051   4.290   6.464
 6123POPC   D2A77200  12.100   4.362   6.764
 6123POPC   C3A77201  12.106   4.313   7.064
 6123POPC   C4A77202  12.066   4.356   7.364
 6123POPC   C1B77203  11.984   4.552   6.464
 6123POPC   C2B77204  11.996   4.565   6.764
 6123POPC   C3B77205  12.022   4.538   7.064
 6123POPC   C4B77206  11.982   4.528   7.364
 6124POPC   NC377207  15.911  19.082   5.564
 6124POPC   PO477208  15.909  19.055   5.864
 6124POPC   GL177209  15.927  19.039   6.164
 6124POPC   GL277210  15.965  18.930   6.164
 6124POPC   C1A77211  15.941  19.085   6.464
 6124POPC   D2A77212  15.965  19.020   6.764
 6124POPC   C3A77213  15.947  19.076   7.064
 6124POPC   C4A77214  15.982  19.084   7.364
 6124POPC   C1B77215  15.912  18.838   6.464
 6124POPC   C2B77216  15.890  18.772   6.764
 6124POPC   C3B77217  15.910  18.826   7.064
 6124POPC   C4B77218  15.927  18.805   7.364
 6125POPC   NC377219   3.567  26.836   5.564
 6125POPC   PO477220   3.548  26.838   5.864
 6125POPC   GL177221   3.559  26.864   6.164
 6125POPC   GL277222   3.491  26.711   6.164
 6125POPC   C1A77223   3.498  26.809   6.464
 6125POPC   D2A77224   3.573  26.795   6.764
 6125POPC   C3A77225   3.500  26.828   7.064
 6125POPC   C4A77226   3.513  26.773   7.364
 6125POPC   C1B77227   3.395  26.660   6.464
 6125POPC   C2B77228   3.384  26.646   6.764
 6125POPC   C3B77229   3.388  26.656   7.064
 6125POPC   C4B77230   3.371  26.651   7.364
 6126POPC   NC377231   6.614  39.213   5.564
 6126POPC   PO477232   6.622  39.189   5.864
 6126POPC   GL177233   6.649  39.187   6.164
 6126POPC   GL277234   6.495  39.275   6.164
 6126POPC   C1A77235   6.599  39.201   6.464
 6126POPC   D2A77236   6.659  39.209   6.764
 6126POPC   C3A77237   6.680  39.259   7.064
 6126POPC   C4A77238   6.645  39.185   7.364
 6126POPC   C1B77239   6.420  39.365   6.464
 6126POPC   C2B77240   6.391  39.368   6.764
 6126POPC   C3B77241   6.456  39.337   7.064
 6126POPC   C4B77242   6.427  39.387   7.364
 6127POPC   NC377243  34.561  38.493   5.564
 6127POPC   PO477244  34.578  38.472   5.864
 6127POPC   GL177245  34.532  38.456   6.164
 6127POPC   GL277246  34.609  38.400   6.164
 6127POPC   C1A77247  34.617  38.444   6.464
 6127POPC   D2A77248  34.560  38.486   6.764
 6127POPC   C3A77249  34.596  38.490   7.064
 6127POPC   C4A77250  34.610  38.471   7.364
 6127POPC   C1B77251  34.732  38.201   6.464
 6127POPC   C2B77252  34.740  38.214   6.764
 6127POPC   C3B77253  34.680  38.218   7.064
 6127POPC   C4B77254  34.746  38.229   7.364
 6128POPC   NC377255  44.632  13.608   5.564
 6128POPC   PO477256  44.691  13.623   5.864
 6128POPC   GL177257  44.672  13.648   6.164
 6128POPC   GL277258  44.735  13.710   6.164
 6128POPC   C1A77259  44.683  13.604   6.464
 6128POPC   D2A77260  44.661  13.592   6.764
 6128POPC   C3A77261  44.657  13.614   7.064
 6128POPC   C4A77262  44.703  13.610   7.364
 6128POPC   C1B77263  44.864  13.820   6.464
 6128POPC   C2B77264  44.837  13.799   6.764
 6128POPC   C3B77265  44.877  13.801   7.064
 6128POPC   C4B77266  44.818  13.819   7.364
 6129POPC   NC377267  29.107   2.755   5.564
 6129POPC   PO477268  29.135   2.752   5.864
 6129POPC   GL177269  29.171   2.773   6.164
 6129POPC   GL277270  29.292   2.804   6.164
 6129POPC   C1A77271  29.107   2.731   6.464
 6129POPC   D2A77272  29.128   2.807   6.764
 6129POPC   C3A77273  29.174   2.767   7.064
 6129POPC   C4A77274  29.192   2.786   7.364
 6129POPC   C1B77275  29.373   2.759   6.464
 6129POPC   C2B77276  29.404   2.833   6.764
 6129POPC   C3B77277  29.438   2.740   7.064
 6129POPC   C4B77278  29.377   2.764   7.364
 6130POPC   NC377279  40.774   5.864   5.564
 6130POPC   PO477280  40.796   5.858   5.864
 6130POPC   GL177281  40.784   5.853   6.164
 6130POPC   GL277282  40.780   5.696   6.164
 6130POPC   C1A77283  40.767   5.834   6.464
 6130POPC   D2A77284  40.749   5.908   6.764
 6130POPC   C3A77285  40.761   5.864   7.064
 6130POPC   C4A77286  40.773   5.877   7.364
 6130POPC   C1B77287  40.760   5.587   6.464
 6130POPC   C2B77288  40.711   5.602   6.764
 6130POPC   C3B77289  40.735   5.583   7.064
 6130POPC   C4B77290  40.690   5.661   7.364
 6131POPC   NC377291  16.770  44.631   5.564
 6131POPC   PO477292  16.758  44.653   5.864
 6131POPC   GL177293  16.778  44.629   6.164
 6131POPC   GL277294  16.813  44.779   6.164
 6131POPC   C1A77295  16.759  44.702   6.464
 6131POPC   D2A77296  16.683  44.663   6.764
 6131POPC   C3A77297  16.761  44.697   7.064
 6131POPC   C4A77298  16.741  44.642   7.364
 6131POPC   C1B77299  16.931  44.813   6.464
 6131POPC   C2B77300  16.935  44.789   6.764
 6131POPC   C3B77301  16.894  44.873   7.064
 6131POPC   C4B77302  16.961  44.800   7.364
 6132POPC   NC377303  30.706  18.238   5.564
 6132POPC   PO477304  30.679  18.304   5.864
 6132POPC   GL177305  30.674  18.324   6.164
 6132POPC   GL277306  30.566  18.352   6.164
 6132POPC   C1A77307  30.659  18.322   6.464
 6132POPC   D2A77308  30.650  18.297   6.764
 6132POPC   C3A77309  30.738  18.291   7.064
 6132POPC   C4A77310  30.738  18.305   7.364
 6132POPC   C1B77311  30.522  18.387   6.464
 6132POPC   C2B77312  30.459  18.432   6.764
 6132POPC   C3B77313  30.483  18.360   7.064
 6132POPC   C4B77314  30.458  18.352   7.364
 6133POPC   NC377315  23.757  22.919   5.564
 6133POPC   PO477316  23.733  22.979   5.864
 6133POPC   GL177317  23.705  22.926   6.164
 6133POPC   GL277318  23.749  23.040   6.164
 6133POPC   C1A77319  23.731  22.907   6.464
 6133POPC   D2A77320  23.735  22.952   6.764
 6133POPC   C3A77321  23.691  22.907   7.064
 6133POPC   C4A77322  23.719  22.932   7.364
 6133POPC   C1B77323  23.885  23.157   6.464
 6133POPC   C2B77324  23.833  23.148   6.764
 6133POPC   C3B77325  23.854  23.169   7.064
 6133POPC   C4B77326  23.844  23.186   7.364
 6134POPC   NC377327  33.834  32.260   5.564
 6134POPC   PO477328  33.794  32.252   5.864
 6134POPC   GL177329  33.835  32.258   6.164
 6134POPC   GL277330  33.934  32.175   6.164
 6134POPC   C1A77331  33.811  32.261   6.464
 6134POPC   D2A77332  33.811  32.246   6.764
 6134POPC   C3A77333  33.780  32.257   7.064
 6134POPC   C4A77334  33.809  32.200   7.364
 6134POPC   C1B77335  34.004  32.034   6.464
 6134POPC   C2B77336  33.934  32.029   6.764
 6134POPC   C3B77337  33.983  32.051   7.064
 6134POPC   C4B77338  33.973  32.103   7.364
 6135POPC   NC377339  12.115  12.103   5.564
 6135POPC   PO477340  12.069  12.110   5.864
 6135POPC   GL177341  12.086  12.035   6.164
 6135POPC   GL277342  11.993  12.071   6.164
 6135POPC   C1A77343  12.079  12.083   6.464
 6135POPC   D2A77344  12.074  12.098   6.764
 6135POPC   C3A77345  12.112  12.091   7.064
 6135POPC   C4A77346  12.117  12.044   7.364
 6135POPC   C1B77347  11.868  11.956   6.464
 6135POPC   C2B77348  11.840  11.993   6.764
 6135POPC   C3B77349  11.796  11.983   7.064
 6135POPC   C4B77350  11.828  12.028   7.364
 6136POPC   NC377351  31.504  19.083   5.564
 6136POPC   PO477352  31.474  19.047   5.864
 6136POPC   GL177353  31.423  19.044   6.164
 6136POPC   GL277354  31.507  18.930   6.164
 6136POPC   C1A77355  31.483  19.040   6.464
 6136POPC   D2A77356  31.490  19.040   6.764
 6136POPC   C3A77357  31.431  19.062   7.064
 6136POPC   C4A77358  31.504  19.049   7.364
 6136POPC   C1B77359  31.606  18.786   6.464
 6136POPC   C2B77360  31.631  18.851   6.764
 6136POPC   C3B77361  31.569  18.831   7.064
 6136POPC   C4B77362  31.548  18.881   7.364
 6137POPC   NC377363  12.839   8.959   5.564
 6137POPC   PO477364  12.897   8.954   5.864
 6137POPC   GL177365  12.897   8.943   6.164
 6137POPC   GL277366  12.736   8.849   6.164
 6137POPC   C1A77367  12.884   8.939   6.464
 6137POPC   D2A77368  12.824   8.983   6.764
 6137POPC   C3A77369  12.887   8.950   7.064
 6137POPC   C4A77370  12.811   8.975   7.364
 6137POPC   C1B77371  12.704   8.785   6.464
 6137POPC   C2B77372  12.687   8.762   6.764
 6137POPC   C3B77373  12.736   8.791   7.064
 6137POPC   C4B77374  12.724   8.716   7.364
 6138POPC   NC377375  33.033  40.029   5.564
 6138POPC   PO477376  32.975  39.968   5.864
 6138POPC   GL177377  33.003  39.999   6.164
 6138POPC   GL277378  32.982  40.128   6.164
 6138POPC   C1A77379  33.020  40.015   6.464
 6138POPC   D2A77380  33.037  39.981   6.764
 6138POPC   C3A77381  33.005  39.964   7.064
 6138POPC   C4A77382  32.978  40.039   7.364
 6138POPC   C1B77383  32.891  40.180   6.464
 6138POPC   C2B77384  32.848  40.230   6.764
 6138POPC   C3B77385  32.834  40.198   7.064
 6138POPC   C4B77386  32.862  40.236   7.364
 6139POPC   NC377387   4.363   7.450   5.564
 6139POPC   PO477388   4.349   7.428   5.864
 6139POPC   GL177389   4.309   7.420   6.164
 6139POPC   GL277390   4.360   7.314   6.164
 6139POPC   C1A77391   4.334   7.467   6.464
 6139POPC   D2A77392   4.320   7.405   6.764
 6139POPC   C3A77393   4.272   7.465   7.064
 6139POPC   C4A77394   4.303   7.461   7.364
 6139POPC   C1B77395   4.439   7.189   6.464
 6139POPC   C2B77396   4.421   7.179   6.764
 6139POPC   C3B77397   4.441   7.191   7.064
 6139POPC   C4B77398   4.454   7.175   7.364
 6140POPC   NC377399  39.256  12.814   5.564
 6140POPC   PO477400  39.223  12.806   5.864
 6140POPC   GL177401  39.238  12.831   6.164
 6140POPC   GL277402  39.110  12.921   6.164
 6140POPC   C1A77403  39.259  12.879   6.464
 6140POPC   D2A77404  39.262  12.849   6.764
 6140POPC   C3A77405  39.253  12.860   7.064
 6140POPC   C4A77406  39.270  12.869   7.364
 6140POPC   C1B77407  39.052  12.972   6.464
 6140POPC   C2B77408  39.038  13.017   6.764
 6140POPC   C3B77409  39.000  12.969   7.064
 6140POPC   C4B77410  39.057  12.977   7.364
 6141POPC   NC377411  28.411  22.139   5.564
 6141POPC   PO477412  28.391  22.135   5.864
 6141POPC   GL177413  28.331  22.167   6.164
 6141POPC   GL277414  28.381  22.268   6.164
 6141POPC   C1A77415  28.413  22.198   6.464
 6141POPC   D2A77416  28.321  22.181   6.764
 6141POPC   C3A77417  28.360  22.126   7.064
 6141POPC   C4A77418  28.400  22.119   7.364
 6141POPC   C1B77419  28.276  22.395   6.464
 6141POPC   C2B77420  28.338  22.379   6.764
 6141POPC   C3B77421  28.367  22.419   7.064
 6141POPC   C4B77422  28.313  22.442   7.364
 6142POPC   NC377423  39.257  43.932   5.564
 6142POPC   PO477424  39.256  43.924   5.864
 6142POPC   GL177425  39.188  43.905   6.164
 6142POPC   GL277426  39.164  43.990   6.164
 6142POPC   C1A77427  39.203  43.896   6.464
 6142POPC   D2A77428  39.220  43.864   6.764
 6142POPC   C3A77429  39.242  43.897   7.064
 6142POPC   C4A77430  39.271  43.928   7.364
 6142POPC   C1B77431  39.028  44.032   6.464
 6142POPC   C2B77432  38.985  44.033   6.764
 6142POPC   C3B77433  38.977  44.067   7.064
 6142POPC   C4B77434  39.047  43.976   7.364
 6143POPC   NC377435   6.675  40.016   5.564
 6143POPC   PO477436   6.612  40.033   5.864
 6143POPC   GL177437   6.691  40.031   6.164
 6143POPC   GL277438   6.682  39.883   6.164
 6143POPC   C1A77439   6.662  39.971   6.464
 6143POPC   D2A77440   6.600  40.003   6.764
 6143POPC   C3A77441   6.635  40.021   7.064
 6143POPC   C4A77442   6.635  40.047   7.364
 6143POPC   C1B77443   6.705  39.816   6.464
 6143POPC   C2B77444   6.736  39.772   6.764
 6143POPC   C3B77445   6.737  39.754   7.064
 6143POPC   C4B77446   6.749  39.775   7.364
 6144POPC   NC377447  12.864   3.557   5.564
 6144POPC   PO477448  12.820   3.572   5.864
 6144POPC   GL177449  12.839   3.495   6.164
 6144POPC   GL277450  12.959   3.681   6.164
 6144POPC   C1A77451  12.869   3.584   6.464
 6144POPC   D2A77452  12.820   3.555   6.764
 6144POPC   C3A77453  12.806   3.518   7.064
 6144POPC   C4A77454  12.901   3.537   7.364
 6144POPC   C1B77455  12.933   3.735   6.464
 6144POPC   C2B77456  13.008   3.789   6.764
 6144POPC   C3B77457  12.955   3.778   7.064
 6144POPC   C4B77458  13.005   3.761   7.364
 6145POPC   NC377459  18.316  15.193   5.564
 6145POPC   PO477460  18.319  15.150   5.864
 6145POPC   GL177461  18.265  15.165   6.164
 6145POPC   GL277462  18.353  15.265   6.164
 6145POPC   C1A77463  18.316  15.224   6.464
 6145POPC   D2A77464  18.277  15.217   6.764
 6145POPC   C3A77465  18.325  15.223   7.064
 6145POPC   C4A77466  18.257  15.228   7.364
 6145POPC   C1B77467  18.348  15.428   6.464
 6145POPC   C2B77468  18.325  15.449   6.764
 6145POPC   C3B77469  18.279  15.413   7.064
 6145POPC   C4B77470  18.322  15.409   7.364
 6146POPC   NC377471  18.329  30.660   5.564
 6146POPC   PO477472  18.291  30.659   5.864
 6146POPC   GL177473  18.238  30.652   6.164
 6146POPC   GL277474  18.276  30.806   6.164
 6146POPC   C1A77475  18.284  30.717   6.464
 6146POPC   D2A77476  18.262  30.707   6.764
 6146POPC   C3A77477  18.252  30.736   7.064
 6146POPC   C4A77478  18.324  30.673   7.364
 6146POPC   C1B77479  18.167  30.965   6.464
 6146POPC   C2B77480  18.189  30.903   6.764
 6146POPC   C3B77481  18.244  30.957   7.064
 6146POPC   C4B77482  18.210  30.936   7.364
 6147POPC   NC377483  29.943  37.659   5.564
 6147POPC   PO477484  29.954  37.689   5.864
 6147POPC   GL177485  29.900  37.678   6.164
 6147POPC   GL277486  30.060  37.639   6.164
 6147POPC   C1A77487  29.890  37.639   6.464
 6147POPC   D2A77488  29.967  37.697   6.764
 6147POPC   C3A77489  29.908  37.650   7.064
 6147POPC   C4A77490  29.931  37.663   7.364
 6147POPC   C1B77491  30.118  37.592   6.464
 6147POPC   C2B77492  30.143  37.608   6.764
 6147POPC   C3B77493  30.189  37.599   7.064
 6147POPC   C4B77494  30.109  37.576   7.364
 6148POPC   NC377495  20.593  19.795   5.564
 6148POPC   PO477496  20.626  19.793   5.864
 6148POPC   GL177497  20.591  19.867   6.164
 6148POPC   GL277498  20.658  19.940   6.164
 6148POPC   C1A77499  20.658  19.857   6.464
 6148POPC   D2A77500  20.607  19.840   6.764
 6148POPC   C3A77501  20.570  19.829   7.064
 6148POPC   C4A77502  20.598  19.830   7.364
 6148POPC   C1B77503  20.733  20.078   6.464
 6148POPC   C2B77504  20.668  20.095   6.764
 6148POPC   C3B77505  20.710  20.017   7.064
 6148POPC   C4B77506  20.762  20.056   7.364
 6149POPC   NC377507  27.545  39.261   5.564
 6149POPC   PO477508  27.620  39.236   5.864
 6149POPC   GL177509  27.587  39.228   6.164
 6149POPC   GL277510  27.547  39.338   6.164
 6149POPC   C1A77511  27.593  39.202   6.464
 6149POPC   D2A77512  27.635  39.267   6.764
 6149POPC   C3A77513  27.558  39.242   7.064
 6149POPC   C4A77514  27.579  39.248   7.364
 6149POPC   C1B77515  27.604  39.442   6.464
 6149POPC   C2B77516  27.548  39.448   6.764
 6149POPC   C3B77517  27.576  39.468   7.064
 6149POPC   C4B77518  27.603  39.467   7.364
 6150POPC   NC377519   5.082  44.619   5.564
 6150POPC   PO477520   5.073  44.662   5.864
 6150POPC   GL177521   5.060  44.668   6.164
 6150POPC   GL277522   5.210  44.640   6.164
 6150POPC   C1A77523   5.050  44.651   6.464
 6150POPC   D2A77524   5.043  44.703   6.764
 6150POPC   C3A77525   5.046  44.620   7.064
 6150POPC   C4A77526   5.111  44.614   7.364
 6150POPC   C1B77527   5.318  44.639   6.464
 6150POPC   C2B77528   5.361  44.574   6.764
 6150POPC   C3B77529   5.369  44.581   7.064
 6150POPC   C4B77530   5.297  44.564   7.364
 6151POPC   NC377531  44.652  14.450   5.564
 6151POPC   PO477532  44.655  14.390   5.864
 6151POPC   GL177533  44.709  14.422   6.164
 6151POPC   GL277534  44.743  14.503   6.164
 6151POPC   C1A77535  44.615  14.423   6.464
 6151POPC   D2A77536  44.699  14.367   6.764
 6151POPC   C3A77537  44.624  14.426   7.064
 6151POPC   C4A77538  44.639  14.368   7.364
 6151POPC   C1B77539  44.756  14.595   6.464
 6151POPC   C2B77540  44.774  14.611   6.764
 6151POPC   C3B77541  44.810  14.648   7.064
 6151POPC   C4B77542  44.802  14.650   7.364
 6152POPC   NC377543   1.973  36.175   5.564
 6152POPC   PO477544   1.947  36.157   5.864
 6152POPC   GL177545   2.017  36.147   6.164
 6152POPC   GL277546   2.149  36.070   6.164
 6152POPC   C1A77547   1.993  36.111   6.464
 6152POPC   D2A77548   2.006  36.101   6.764
 6152POPC   C3A77549   1.981  36.099   7.064
 6152POPC   C4A77550   1.952  36.124   7.364
 6152POPC   C1B77551   2.233  36.074   6.464
 6152POPC   C2B77552   2.237  36.003   6.764
 6152POPC   C3B77553   2.254  36.033   7.064
 6152POPC   C4B77554   2.265  36.050   7.364
 6153POPC   NC377555  17.539  22.941   5.564
 6153POPC   PO477556  17.496  22.934   5.864
 6153POPC   GL177557  17.521  22.937   6.164
 6153POPC   GL277558  17.457  22.850   6.164
 6153POPC   C1A77559  17.540  22.897   6.464
 6153POPC   D2A77560  17.492  22.954   6.764
 6153POPC   C3A77561  17.553  22.893   7.064
 6153POPC   C4A77562  17.537  22.910   7.364
 6153POPC   C1B77563  17.273  22.801   6.464
 6153POPC   C2B77564  17.350  22.734   6.764
 6153POPC   C3B77565  17.273  22.798   7.064
 6153POPC   C4B77566  17.361  22.755   7.364
 6154POPC   NC377567  39.252  44.645   5.564
 6154POPC   PO477568  39.219  44.662   5.864
 6154POPC   GL177569  39.212  44.665   6.164
 6154POPC   GL277570  39.119  44.690   6.164
 6154POPC   C1A77571  39.270  44.657   6.464
 6154POPC   D2A77572  39.184  44.620   6.764
 6154POPC   C3A77573  39.258  44.651   7.064
 6154POPC   C4A77574  39.270  44.698   7.364
 6154POPC   C1B77575  39.005  44.746   6.464
 6154POPC   C2B77576  39.014  44.700   6.764
 6154POPC   C3B77577  38.965  44.735   7.064
 6154POPC   C4B77578  38.959  44.695   7.364
 6155POPC   NC377579  14.395  30.659   5.564
 6155POPC   PO477580  14.432  30.713   5.864
 6155POPC   GL177581  14.388  30.724   6.164
 6155POPC   GL277582  14.315  30.625   6.164
 6155POPC   C1A77583  14.398  30.669   6.464
 6155POPC   D2A77584  14.414  30.712   6.764
 6155POPC   C3A77585  14.432  30.683   7.064
 6155POPC   C4A77586  14.406  30.741   7.364
 6155POPC   C1B77587  14.143  30.671   6.464
 6155POPC   C2B77588  14.146  30.640   6.764
 6155POPC   C3B77589  14.186  30.614   7.064
 6155POPC   C4B77590  14.113  30.667   7.364
 6156POPC   NC377591   9.712  22.138   5.564
 6156POPC   PO477592   9.719  22.198   5.864
 6156POPC   GL177593   9.725  22.199   6.164
 6156POPC   GL277594   9.716  22.059   6.164
 6156POPC   C1A77595   9.776  22.199   6.464
 6156POPC   D2A77596   9.749  22.145   6.764
 6156POPC   C3A77597   9.775  22.189   7.064
 6156POPC   C4A77598   9.716  22.114   7.364
 6156POPC   C1B77599   9.707  21.924   6.464
 6156POPC   C2B77600   9.668  21.888   6.764
 6156POPC   C3B77601   9.650  21.966   7.064
 6156POPC   C4B77602   9.702  21.925   7.364
 6157POPC   NC377603  11.271  18.301   5.564
 6157POPC   PO477604  11.330  18.292   5.864
 6157POPC   GL177605  11.293  18.289   6.164
 6157POPC   GL277606  11.247  18.199   6.164
 6157POPC   C1A77607  11.344  18.237   6.464
 6157POPC   D2A77608  11.319  18.266   6.764
 6157POPC   C3A77609  11.281  18.233   7.064
 6157POPC   C4A77610  11.303  18.242   7.364
 6157POPC   C1B77611  11.261  18.022   6.464
 6157POPC   C2B77612  11.279  18.005   6.764
 6157POPC   C3B77613  11.298  17.999   7.064
 6157POPC   C4B77614  11.265  18.030   7.364
 6158POPC   NC377615  40.820   5.049   5.564
 6158POPC   PO477616  40.735   5.053   5.864
 6158POPC   GL177617  40.818   5.109   6.164
 6158POPC   GL277618  40.936   5.172   6.164
 6158POPC   C1A77619  40.781   5.097   6.464
 6158POPC   D2A77620  40.808   5.049   6.764
 6158POPC   C3A77621  40.780   5.056   7.064
 6158POPC   C4A77622  40.796   5.078   7.364
 6158POPC   C1B77623  40.990   5.158   6.464
 6158POPC   C2B77624  40.985   5.150   6.764
 6158POPC   C3B77625  40.974   5.174   7.064
 6158POPC   C4B77626  41.003   5.214   7.364
 6159POPC   NC377627   6.672  22.151   5.564
 6159POPC   PO477628   6.611  22.150   5.864
 6159POPC   GL177629   6.631  22.132   6.164
 6159POPC   GL277630   6.615  22.083   6.164
 6159POPC   C1A77631   6.668  22.211   6.464
 6159POPC   D2A77632   6.673  22.202   6.764
 6159POPC   C3A77633   6.639  22.112   7.064
 6159POPC   C4A77634   6.693  22.133   7.364
 6159POPC   C1B77635   6.552  21.967   6.464
 6159POPC   C2B77636   6.570  21.893   6.764
 6159POPC   C3B77637   6.557  21.920   7.064
 6159POPC   C4B77638   6.619  21.963   7.364
 6160POPC   NC377639   4.281  10.528   5.564
 6160POPC   PO477640   4.305  10.509   5.864
 6160POPC   GL177641   4.320  10.520   6.164
 6160POPC   GL277642   4.428  10.645   6.164
 6160POPC   C1A77643   4.318  10.502   6.464
 6160POPC   D2A77644   4.312  10.570   6.764
 6160POPC   C3A77645   4.341  10.521   7.064
 6160POPC   C4A77646   4.302  10.534   7.364
 6160POPC   C1B77647   4.452  10.716   6.464
 6160POPC   C2B77648   4.447  10.762   6.764
 6160POPC   C3B77649   4.450  10.755   7.064
 6160POPC   C4B77650   4.482  10.727   7.364
 6161POPC   NC377651  41.544  26.042   5.564
 6161POPC   PO477652  41.530  25.998   5.864
 6161POPC   GL177653  41.555  26.051   6.164
 6161POPC   GL277654  41.434  26.137   6.164
 6161POPC   C1A77655  41.570  26.037   6.464
 6161POPC   D2A77656  41.604  26.067   6.764
 6161POPC   C3A77657  41.548  26.068   7.064
 6161POPC   C4A77658  41.544  26.055   7.364
 6161POPC   C1B77659  41.331  26.135   6.464
 6161POPC   C2B77660  41.355  26.134   6.764
 6161POPC   C3B77661  41.327  26.209   7.064
 6161POPC   C4B77662  41.336  26.229   7.364
 6162POPC   NC377663  38.418  29.141   5.564
 6162POPC   PO477664  38.428  29.117   5.864
 6162POPC   GL177665  38.435  29.098   6.164
 6162POPC   GL277666  38.583  29.048   6.164
 6162POPC   C1A77667  38.409  29.139   6.464
 6162POPC   D2A77668  38.418  29.194   6.764
 6162POPC   C3A77669  38.430  29.180   7.064
 6162POPC   C4A77670  38.436  29.115   7.364
 6162POPC   C1B77671  38.594  28.931   6.464
 6162POPC   C2B77672  38.577  28.982   6.764
 6162POPC   C3B77673  38.591  28.946   7.064
 6162POPC   C4B77674  38.647  28.987   7.364
 6163POPC   NC377675  28.353   7.435   5.564
 6163POPC   PO477676  28.401   7.409   5.864
 6163POPC   GL177677  28.370   7.448   6.164
 6163POPC   GL277678  28.341   7.279   6.164
 6163POPC   C1A77679  28.406   7.462   6.464
 6163POPC   D2A77680  28.337   7.376   6.764
 6163POPC   C3A77681  28.327   7.420   7.064
 6163POPC   C4A77682  28.379   7.451   7.364
 6163POPC   C1B77683  28.222   7.157   6.464
 6163POPC   C2B77684  28.287   7.182   6.764
 6163POPC   C3B77685  28.223   7.179   7.064
 6163POPC   C4B77686  28.261   7.200   7.364
 6164POPC   NC377687  27.630   5.112   5.564
 6164POPC   PO477688  27.595   5.118   5.864
 6164POPC   GL177689  27.617   5.128   6.164
 6164POPC   GL277690  27.523   4.951   6.164
 6164POPC   C1A77691  27.589   5.124   6.464
 6164POPC   D2A77692  27.552   5.107   6.764
 6164POPC   C3A77693  27.577   5.072   7.064
 6164POPC   C4A77694  27.545   5.075   7.364
 6164POPC   C1B77695  27.505   4.874   6.464
 6164POPC   C2B77696  27.552   4.886   6.764
 6164POPC   C3B77697  27.552   4.873   7.064
 6164POPC   C4B77698  27.521   4.805   7.364
 6165POPC   NC377699  22.191  18.316   5.564
 6165POPC   PO477700  22.190  18.294   5.864
 6165POPC   GL177701  22.119  18.275   6.164
 6165POPC   GL277702  22.286  18.276   6.164
 6165POPC   C1A77703  22.202  18.309   6.464
 6165POPC   D2A77704  22.181  18.281   6.764
 6165POPC   C3A77705  22.164  18.300   7.064
 6165POPC   C4A77706  22.190  18.289   7.364
 6165POPC   C1B77707  22.380  18.373   6.464
 6165POPC   C2B77708  22.359  18.366   6.764
 6165POPC   C3B77709  22.402  18.371   7.064
 6165POPC   C4B77710  22.392  18.323   7.364
 6166POPC   NC377711   6.608  36.908   5.564
 6166POPC   PO477712   6.654  36.936   5.864
 6166POPC   GL177713   6.608  36.922   6.164
 6166POPC   GL277714   6.549  36.867   6.164
 6166POPC   C1A77715   6.622  36.866   6.464
 6166POPC   D2A77716   6.601  36.946   6.764
 6166POPC   C3A77717   6.681  36.874   7.064
 6166POPC   C4A77718   6.659  36.919   7.364
 6166POPC   C1B77719   6.430  36.722   6.464
 6166POPC   C2B77720   6.417  36.774   6.764
 6166POPC   C3B77721   6.409  36.795   7.064
 6166POPC   C4B77722   6.500  36.712   7.364
 6167POPC   NC377723  27.610  44.636   5.564
 6167POPC   PO477724  27.569  44.685   5.864
 6167POPC   GL177725  27.619  44.664   6.164
 6167POPC   GL277726  27.585  44.788   6.164
 6167POPC   C1A77727  27.572  44.623   6.464
 6167POPC   D2A77728  27.581  44.691   6.764
 6167POPC   C3A77729  27.614  44.638   7.064
 6167POPC   C4A77730  27.603  44.690   7.364
 6167POPC   C1B77731  27.482  44.855   6.464
 6167POPC   C2B77732  27.518  44.925   6.764
 6167POPC   C3B77733  27.510  44.881   7.064
 6167POPC   C4B77734  27.530  44.946   7.364
 6168POPC   NC377735  20.567  41.531   5.564
 6168POPC   PO477736  20.586  41.532   5.864
 6168POPC   GL177737  20.605  41.607   6.164
 6168POPC   GL277738  20.453  41.543   6.164
 6168POPC   C1A77739  20.646  41.519   6.464
 6168POPC   D2A77740  20.589  41.594   6.764
 6168POPC   C3A77741  20.659  41.586   7.064
 6168POPC   C4A77742  20.604  41.596   7.364
 6168POPC   C1B77743  20.333  41.476   6.464
 6168POPC   C2B77744  20.341  41.418   6.764
 6168POPC   C3B77745  20.401  41.496   7.064
 6168POPC   C4B77746  20.384  41.481   7.364
 6169POPC   NC377747  10.503  36.138   5.564
 6169POPC   PO477748  10.522  36.091   5.864
 6169POPC   GL177749  10.483  36.121   6.164
 6169POPC   GL277750  10.462  36.119   6.164
 6169POPC   C1A77751  10.568  36.151   6.464
 6169POPC   D2A77752  10.539  36.121   6.764
 6169POPC   C3A77753  10.487  36.126   7.064
 6169POPC   C4A77754  10.506  36.110   7.364
 6169POPC   C1B77755  10.293  35.978   6.464
 6169POPC   C2B77756  10.341  35.986   6.764
 6169POPC   C3B77757  10.258  36.039   7.064
 6169POPC   C4B77758  10.273  36.056   7.364
 6170POPC   NC377759  29.970  39.959   5.564
 6170POPC   PO477760  29.922  39.984   5.864
 6170POPC   GL177761  29.908  40.045   6.164
 6170POPC   GL277762  29.821  39.929   6.164
 6170POPC   C1A77763  29.959  40.028   6.464
 6170POPC   D2A77764  29.962  40.015   6.764
 6170POPC   C3A77765  29.909  39.978   7.064
 6170POPC   C4A77766  29.953  39.986   7.364
 6170POPC   C1B77767  29.697  39.922   6.464
 6170POPC   C2B77768  29.672  39.884   6.764
 6170POPC   C3B77769  29.702  39.898   7.064
 6170POPC   C4B77770  29.718  39.914   7.364
 6171POPC   NC377771  20.592  20.625   5.564
 6171POPC   PO477772  20.596  20.579   5.864
 6171POPC   GL177773  20.618  20.631   6.164
 6171POPC   GL277774  20.655  20.486   6.164
 6171POPC   C1A77775  20.571  20.636   6.464
 6171POPC   D2A77776  20.574  20.601   6.764
 6171POPC   C3A77777  20.640  20.586   7.064
 6171POPC   C4A77778  20.640  20.647   7.364
 6171POPC   C1B77779  20.664  20.341   6.464
 6171POPC   C2B77780  20.608  20.349   6.764
 6171POPC   C3B77781  20.580  20.394   7.064
 6171POPC   C4B77782  20.661  20.374   7.364
 6172POPC   NC377783  28.388  29.932   5.564
 6172POPC   PO477784  28.418  29.871   5.864
 6172POPC   GL177785  28.360  29.924   6.164
 6172POPC   GL277786  28.316  30.028   6.164
 6172POPC   C1A77787  28.395  29.957   6.464
 6172POPC   D2A77788  28.354  29.965   6.764
 6172POPC   C3A77789  28.409  29.962   7.064
 6172POPC   C4A77790  28.384  29.887   7.364
 6172POPC   C1B77791  28.387  30.219   6.464
 6172POPC   C2B77792  28.350  30.204   6.764
 6172POPC   C3B77793  28.332  30.197   7.064
 6172POPC   C4B77794  28.359  30.189   7.364
 6173POPC   NC377795  19.056  43.903   5.564
 6173POPC   PO477796  19.082  43.857   5.864
 6173POPC   GL177797  19.050  43.899   6.164
 6173POPC   GL277798  19.116  43.808   6.164
 6173POPC   C1A77799  19.019  43.936   6.464
 6173POPC   D2A77800  19.027  43.915   6.764
 6173POPC   C3A77801  19.104  43.921   7.064
 6173POPC   C4A77802  19.087  43.906   7.364
 6173POPC   C1B77803  19.113  43.675   6.464
 6173POPC   C2B77804  19.099  43.649   6.764
 6173POPC   C3B77805  19.118  43.602   7.064
 6173POPC   C4B77806  19.156  43.642   7.364
 6174POPC   NC377807   3.570  35.332   5.564
 6174POPC   PO477808   3.590  35.329   5.864
 6174POPC   GL177809   3.571  35.328   6.164
 6174POPC   GL277810   3.615  35.287   6.164
 6174POPC   C1A77811   3.568  35.323   6.464
 6174POPC   D2A77812   3.507  35.398   6.764
 6174POPC   C3A77813   3.509  35.356   7.064
 6174POPC   C4A77814   3.541  35.329   7.364
 6174POPC   C1B77815   3.760  35.212   6.464
 6174POPC   C2B77816   3.776  35.268   6.764
 6174POPC   C3B77817   3.767  35.274   7.064
 6174POPC   C4B77818   3.710  35.230   7.364
 6175POPC   NC377819   8.221   8.188   5.564
 6175POPC   PO477820   8.207   8.174   5.864
 6175POPC   GL177821   8.172   8.207   6.164
 6175POPC   GL277822   8.185   8.303   6.164
 6175POPC   C1A77823   8.237   8.167   6.464
 6175POPC   D2A77824   8.167   8.222   6.764
 6175POPC   C3A77825   8.220   8.156   7.064
 6175POPC   C4A77826   8.160   8.238   7.364
 6175POPC   C1B77827   8.100   8.427   6.464
 6175POPC   C2B77828   8.135   8.486   6.764
 6175POPC   C3B77829   8.126   8.432   7.064
 6175POPC   C4B77830   8.140   8.411   7.364
 6176POPC   NC377831  26.849  36.879   5.564
 6176POPC   PO477832  26.790  36.865   5.864
 6176POPC   GL177833  26.861  36.950   6.164
 6176POPC   GL277834  26.743  36.997   6.164
 6176POPC   C1A77835  26.809  36.948   6.464
 6176POPC   D2A77836  26.790  36.915   6.764
 6176POPC   C3A77837  26.786  36.946   7.064
 6176POPC   C4A77838  26.769  36.905   7.364
 6176POPC   C1B77839  26.750  37.112   6.464
 6176POPC   C2B77840  26.745  37.089   6.764
 6176POPC   C3B77841  26.732  37.135   7.064
 6176POPC   C4B77842  26.710  37.122   7.364
 6177POPC   NC377843  15.203   5.085   5.564
 6177POPC   PO477844  15.205   5.062   5.864
 6177POPC   GL177845  15.210   5.127   6.164
 6177POPC   GL277846  15.052   5.063   6.164
 6177POPC   C1A77847  15.160   5.061   6.464
 6177POPC   D2A77848  15.151   5.044   6.764
 6177POPC   C3A77849  15.217   5.077   7.064
 6177POPC   C4A77850  15.138   5.053   7.364
 6177POPC   C1B77851  14.974   5.109   6.464
 6177POPC   C2B77852  14.918   5.047   6.764
 6177POPC   C3B77853  14.928   5.124   7.064
 6177POPC   C4B77854  14.933   5.049   7.364
 6178POPC   NC377855   8.944  21.361   5.564
 6178POPC   PO477856   8.934  21.362   5.864
 6178POPC   GL177857   8.981  21.359   6.164
 6178POPC   GL277858   8.849  21.326   6.164
 6178POPC   C1A77859   9.003  21.415   6.464
 6178POPC   D2A77860   8.933  21.368   6.764
 6178POPC   C3A77861   9.002  21.415   7.064
 6178POPC   C4A77862   8.962  21.424   7.364
 6178POPC   C1B77863   8.834  21.163   6.464
 6178POPC   C2B77864   8.832  21.181   6.764
 6178POPC   C3B77865   8.798  21.150   7.064
 6178POPC   C4B77866   8.801  21.171   7.364
 6179POPC   NC377867  22.196  28.397   5.564
 6179POPC   PO477868  22.175  28.344   5.864
 6179POPC   GL177869  22.154  28.353   6.164
 6179POPC   GL277870  22.267  28.246   6.164
 6179POPC   C1A77871  22.174  28.397   6.464
 6179POPC   D2A77872  22.128  28.358   6.764
 6179POPC   C3A77873  22.160  28.409   7.064
 6179POPC   C4A77874  22.194  28.348   7.364
 6179POPC   C1B77875  22.350  28.176   6.464
 6179POPC   C2B77876  22.373  28.190   6.764
 6179POPC   C3B77877  22.364  28.161   7.064
 6179POPC   C4B77878  22.387  28.211   7.364
 6180POPC   NC377879  30.744  12.892   5.564
 6180POPC   PO477880  30.669  12.853   5.864
 6180POPC   GL177881  30.694  12.827   6.164
 6180POPC   GL277882  30.656  12.769   6.164
 6180POPC   C1A77883  30.678  12.827   6.464
 6180POPC   D2A77884  30.719  12.828   6.764
 6180POPC   C3A77885  30.675  12.803   7.064
 6180POPC   C4A77886  30.744  12.885   7.364
 6180POPC   C1B77887  30.569  12.632   6.464
 6180POPC   C2B77888  30.584  12.662   6.764
 6180POPC   C3B77889  30.586  12.598   7.064
 6180POPC   C4B77890  30.554  12.632   7.364
 6181POPC   NC377891  28.402   1.957   5.564
 6181POPC   PO477892  28.370   1.975   5.864
 6181POPC   GL177893  28.385   1.984   6.164
 6181POPC   GL277894  28.492   2.078   6.164
 6181POPC   C1A77895  28.384   2.004   6.464
 6181POPC   D2A77896  28.385   2.011   6.764
 6181POPC   C3A77897  28.353   1.987   7.064
 6181POPC   C4A77898  28.342   1.944   7.364
 6181POPC   C1B77899  28.581   2.182   6.464
 6181POPC   C2B77900  28.594   2.144   6.764
 6181POPC   C3B77901  28.591   2.114   7.064
 6181POPC   C4B77902  28.583   2.129   7.364
 6182POPC   NC377903   5.824   3.496   5.564
 6182POPC   PO477904   5.895   3.530   5.864
 6182POPC   GL177905   5.846   3.544   6.164
 6182POPC   GL277906   5.949   3.489   6.164
 6182POPC   C1A77907   5.912   3.513   6.464
 6182POPC   D2A77908   5.868   3.499   6.764
 6182POPC   C3A77909   5.898   3.507   7.064
 6182POPC   C4A77910   5.894   3.590   7.364
 6182POPC   C1B77911   6.048   3.322   6.464
 6182POPC   C2B77912   5.985   3.377   6.764
 6182POPC   C3B77913   6.015   3.297   7.064
 6182POPC   C4B77914   6.008   3.354   7.364
 6183POPC   NC377915  22.934   2.728   5.564
 6183POPC   PO477916  22.955   2.756   5.864
 6183POPC   GL177917  22.955   2.799   6.164
 6183POPC   GL277918  23.034   2.784   6.164
 6183POPC   C1A77919  22.979   2.814   6.464
 6183POPC   D2A77920  22.981   2.762   6.764
 6183POPC   C3A77921  22.914   2.787   7.064
 6183POPC   C4A77922  22.965   2.749   7.364
 6183POPC   C1B77923  23.158   2.814   6.464
 6183POPC   C2B77924  23.182   2.773   6.764
 6183POPC   C3B77925  23.197   2.803   7.064
 6183POPC   C4B77926  23.188   2.824   7.364
 6184POPC   NC377927  15.130   4.300   5.564
 6184POPC   PO477928  15.178   4.275   5.864
 6184POPC   GL177929  15.141   4.319   6.164
 6184POPC   GL277930  15.200   4.394   6.164
 6184POPC   C1A77931  15.167   4.270   6.464
 6184POPC   D2A77932  15.182   4.333   6.764
 6184POPC   C3A77933  15.149   4.311   7.064
 6184POPC   C4A77934  15.195   4.353   7.364
 6184POPC   C1B77935  15.278   4.514   6.464
 6184POPC   C2B77936  15.258   4.569   6.764
 6184POPC   C3B77937  15.278   4.595   7.064
 6184POPC   C4B77938  15.200   4.564   7.364
 6185POPC   NC377939  17.483  20.629   5.564
 6185POPC   PO477940  17.551  20.636   5.864
 6185POPC   GL177941  17.542  20.651   6.164
 6185POPC   GL277942  17.524  20.468   6.164
 6185POPC   C1A77943  17.488  20.653   6.464
 6185POPC   D2A77944  17.538  20.595   6.764
 6185POPC   C3A77945  17.482  20.587   7.064
 6185POPC   C4A77946  17.555  20.604   7.364
 6185POPC   C1B77947  17.509  20.400   6.464
 6185POPC   C2B77948  17.438  20.406   6.764
 6185POPC   C3B77949  17.428  20.392   7.064
 6185POPC   C4B77950  17.523  20.404   7.364
 6186POPC   NC377951   8.959  13.584   5.564
 6186POPC   PO477952   8.994  13.605   5.864
 6186POPC   GL177953   8.997  13.627   6.164
 6186POPC   GL277954   9.089  13.642   6.164
 6186POPC   C1A77955   8.996  13.581   6.464
 6186POPC   D2A77956   8.938  13.607   6.764
 6186POPC   C3A77957   9.008  13.675   7.064
 6186POPC   C4A77958   9.008  13.623   7.364
 6186POPC   C1B77959   9.214  13.687   6.464
 6186POPC   C2B77960   9.182  13.718   6.764
 6186POPC   C3B77961   9.228  13.718   7.064
 6186POPC   C4B77962   9.244  13.693   7.364
 6187POPC   NC377963  29.187   3.571   5.564
 6187POPC   PO477964  29.155   3.560   5.864
 6187POPC   GL177965  29.108   3.515   6.164
 6187POPC   GL277966  29.051   3.454   6.164
 6187POPC   C1A77967  29.160   3.512   6.464
 6187POPC   D2A77968  29.125   3.494   6.764
 6187POPC   C3A77969  29.147   3.527   7.064
 6187POPC   C4A77970  29.131   3.571   7.364
 6187POPC   C1B77971  28.968   3.447   6.464
 6187POPC   C2B77972  28.934   3.425   6.764
 6187POPC   C3B77973  28.911   3.441   7.064
 6187POPC   C4B77974  28.952   3.405   7.364
 6188POPC   NC377975  33.774  10.494   5.564
 6188POPC   PO477976  33.772  10.509   5.864
 6188POPC   GL177977  33.808  10.478   6.164
 6188POPC   GL277978  33.661  10.532   6.164
 6188POPC   C1A77979  33.766  10.478   6.464
 6188POPC   D2A77980  33.762  10.482   6.764
 6188POPC   C3A77981  33.767  10.501   7.064
 6188POPC   C4A77982  33.805  10.504   7.364
 6188POPC   C1B77983  33.595  10.447   6.464
 6188POPC   C2B77984  33.570  10.520   6.764
 6188POPC   C3B77985  33.561  10.447   7.064
 6188POPC   C4B77986  33.508  10.514   7.364
 6189POPC   NC377987  14.400   5.827   5.564
 6189POPC   PO477988  14.362   5.822   5.864
 6189POPC   GL177989  14.384   5.829   6.164
 6189POPC   GL277990  14.365   5.991   6.164
 6189POPC   C1A77991  14.421   5.830   6.464
 6189POPC   D2A77992  14.420   5.831   6.764
 6189POPC   C3A77993  14.403   5.909   7.064
 6189POPC   C4A77994  14.426   5.891   7.364
 6189POPC   C1B77995  14.287   6.085   6.464
 6189POPC   C2B77996  14.353   6.067   6.764
 6189POPC   C3B77997  14.265   6.053   7.064
 6189POPC   C4B77998  14.323   6.087   7.364
 6190POPC   NC377999  21.339  31.485   5.564
 6190POPC   PO478000  21.356  31.460   5.864
 6190POPC   GL178001  21.428  31.471   6.164
 6190POPC   GL278002  21.256  31.587   6.164
 6190POPC   C1A78003  21.355  31.423   6.464
 6190POPC   D2A78004  21.427  31.495   6.764
 6190POPC   C3A78005  21.401  31.498   7.064
 6190POPC   C4A78006  21.410  31.460   7.364
 6190POPC   C1B78007  21.171  31.614   6.464
 6190POPC   C2B78008  21.181  31.612   6.764
 6190POPC   C3B78009  21.253  31.685   7.064
 6190POPC   C4B78010  21.167  31.693   7.364
 6191POPC   NC378011  15.203  12.090   5.564
 6191POPC   PO478012  15.156  12.096   5.864
 6191POPC   GL178013  15.219  12.103   6.164
 6191POPC   GL278014  15.078  12.143   6.164
 6191POPC   C1A78015  15.138  12.054   6.464
 6191POPC   D2A78016  15.138  12.081   6.764
 6191POPC   C3A78017  15.229  12.097   7.064
 6191POPC   C4A78018  15.148  12.119   7.364
 6191POPC   C1B78019  14.974  12.168   6.464
 6191POPC   C2B78020  14.935  12.173   6.764
 6191POPC   C3B78021  14.998  12.261   7.064
 6191POPC   C4B78022  14.938  12.195   7.364
 6192POPC   NC378023  18.325  33.757   5.564
 6192POPC   PO478024  18.261  33.785   5.864
 6192POPC   GL178025  18.305  33.788   6.164
 6192POPC   GL278026  18.382  33.755   6.164
 6192POPC   C1A78027  18.306  33.848   6.464
 6192POPC   D2A78028  18.327  33.782   6.764
 6192POPC   C3A78029  18.247  33.847   7.064
 6192POPC   C4A78030  18.237  33.764   7.364
 6192POPC   C1B78031  18.495  33.713   6.464
 6192POPC   C2B78032  18.500  33.709   6.764
 6192POPC   C3B78033  18.504  33.761   7.064
 6192POPC   C4B78034  18.490  33.664   7.364
 6193POPC   NC378035  44.629  19.863   5.564
 6193POPC   PO478036  44.689  19.800   5.864
 6193POPC   GL178037  44.683  19.789   6.164
 6193POPC   GL278038  44.636  19.961   6.164
 6193POPC   C1A78039  44.625  19.866   6.464
 6193POPC   D2A78040  44.625  19.863   6.764
 6193POPC   C3A78041  44.627  19.786   7.064
 6193POPC   C4A78042  44.628  19.821   7.364
 6193POPC   C1B78043  44.651  20.093   6.464
 6193POPC   C2B78044  44.642  20.131   6.764
 6193POPC   C3B78045  44.646  20.081   7.064
 6193POPC   C4B78046  44.627  20.062   7.364
 6194POPC   NC378047   9.769  43.116   5.564
 6194POPC   PO478048   9.769  43.138   5.864
 6194POPC   GL178049   9.702  43.068   6.164
 6194POPC   GL278050   9.727  43.264   6.164
 6194POPC   C1A78051   9.712  43.117   6.464
 6194POPC   D2A78052   9.789  43.075   6.764
 6194POPC   C3A78053   9.735  43.061   7.064
 6194POPC   C4A78054   9.755  43.104   7.364
 6194POPC   C1B78055   9.668  43.371   6.464
 6194POPC   C2B78056   9.654  43.307   6.764
 6194POPC   C3B78057   9.698  43.335   7.064
 6194POPC   C4B78058   9.660  43.361   7.364
 6195POPC   NC378059  19.845  28.372   5.564
 6195POPC   PO478060  19.801  28.342   5.864
 6195POPC   GL178061  19.848  28.405   6.164
 6195POPC   GL278062  19.977  28.355   6.164
 6195POPC   C1A78063  19.806  28.414   6.464
 6195POPC   D2A78064  19.856  28.368   6.764
 6195POPC   C3A78065  19.797  28.367   7.064
 6195POPC   C4A78066  19.797  28.369   7.364
 6195POPC   C1B78067  20.123  28.277   6.464
 6195POPC   C2B78068  20.120  28.287   6.764
 6195POPC   C3B78069  20.075  28.340   7.064
 6195POPC   C4B78070  20.030  28.301   7.364
 6196POPC   NC378071   8.947   6.686   5.564
 6196POPC   PO478072   8.973   6.610   5.864
 6196POPC   GL178073   8.985   6.660   6.164
 6196POPC   GL278074   8.990   6.484   6.164
 6196POPC   C1A78075   8.973   6.689   6.464
 6196POPC   D2A78076   8.958   6.689   6.764
 6196POPC   C3A78077   8.972   6.688   7.064
 6196POPC   C4A78078   8.999   6.691   7.364
 6196POPC   C1B78079   8.914   6.371   6.464
 6196POPC   C2B78080   8.925   6.357   6.764
 6196POPC   C3B78081   8.904   6.431   7.064
 6196POPC   C4B78082   8.942   6.426   7.364
 6197POPC   NC378083   7.439  13.595   5.564
 6197POPC   PO478084   7.407  13.654   5.864
 6197POPC   GL178085   7.413  13.658   6.164
 6197POPC   GL278086   7.371  13.554   6.164
 6197POPC   C1A78087   7.416  13.604   6.464
 6197POPC   D2A78088   7.452  13.654   6.764
 6197POPC   C3A78089   7.394  13.595   7.064
 6197POPC   C4A78090   7.389  13.662   7.364
 6197POPC   C1B78091   7.347  13.421   6.464
 6197POPC   C2B78092   7.308  13.378   6.764
 6197POPC   C3B78093   7.295  13.423   7.064
 6197POPC   C4B78094   7.326  13.431   7.364
 6198POPC   NC378095  33.828  14.363   5.564
 6198POPC   PO478096  33.804  14.440   5.864
 6198POPC   GL178097  33.837  14.370   6.164
 6198POPC   GL278098  33.774  14.274   6.164
 6198POPC   C1A78099  33.818  14.363   6.464
 6198POPC   D2A78100  33.802  14.408   6.764
 6198POPC   C3A78101  33.768  14.391   7.064
 6198POPC   C4A78102  33.761  14.380   7.364
 6198POPC   C1B78103  33.777  14.128   6.464
 6198POPC   C2B78104  33.692  14.127   6.764
 6198POPC   C3B78105  33.715  14.118   7.064
 6198POPC   C4B78106  33.744  14.128   7.364
 6199POPC   NC378107   7.463  29.916   5.564
 6199POPC   PO478108   7.419  29.959   5.864
 6199POPC   GL178109   7.417  29.955   6.164
 6199POPC   GL278110   7.435  29.811   6.164
 6199POPC   C1A78111   7.384  29.936   6.464
 6199POPC   D2A78112   7.410  29.885   6.764
 6199POPC   C3A78113   7.429  29.911   7.064
 6199POPC   C4A78114   7.457  29.968   7.364
 6199POPC   C1B78115   7.487  29.674   6.464
 6199POPC   C2B78116   7.534  29.701   6.764
 6199POPC   C3B78117   7.490  29.684   7.064
 6199POPC   C4B78118   7.522  29.647   7.364
 6200POPC   NC378119  44.649   5.844   5.564
 6200POPC   PO478120  44.680   5.884   5.864
 6200POPC   GL178121  44.674   5.908   6.164
 6200POPC   GL278122  44.733   5.783   6.164
 6200POPC   C1A78123  44.640   5.877   6.464
 6200POPC   D2A78124  44.635   5.842   6.764
 6200POPC   C3A78125  44.691   5.896   7.064
 6200POPC   C4A78126  44.652   5.871   7.364
 6200POPC   C1B78127  44.832   5.786   6.464
 6200POPC   C2B78128  44.915   5.700   6.764
 6200POPC   C3B78129  44.905   5.746   7.064
 6200POPC   C4B78130  44.885   5.764   7.364
 6201POPC   NC378131  12.892   7.413   5.564
 6201POPC   PO478132  12.816   7.427   5.864
 6201POPC   GL178133  12.869   7.386   6.164
 6201POPC   GL278134  12.736   7.331   6.164
 6201POPC   C1A78135  12.900   7.448   6.464
 6201POPC   D2A78136  12.863   7.400   6.764
 6201POPC   C3A78137  12.893   7.418   7.064
 6201POPC   C4A78138  12.898   7.413   7.364
 6201POPC   C1B78139  12.618   7.239   6.464
 6201POPC   C2B78140  12.646   7.227   6.764
 6201POPC   C3B78141  12.680   7.310   7.064
 6201POPC   C4B78142  12.634   7.296   7.364
 6202POPC   NC378143  33.770  37.649   5.564
 6202POPC   PO478144  33.779  37.682   5.864
 6202POPC   GL178145  33.844  37.723   6.164
 6202POPC   GL278146  33.759  37.544   6.164
 6202POPC   C1A78147  33.784  37.657   6.464
 6202POPC   D2A78148  33.818  37.648   6.764
 6202POPC   C3A78149  33.762  37.716   7.064
 6202POPC   C4A78150  33.768  37.728   7.364
 6202POPC   C1B78151  33.603  37.500   6.464
 6202POPC   C2B78152  33.697  37.429   6.764
 6202POPC   C3B78153  33.649  37.476   7.064
 6202POPC   C4B78154  33.618  37.484   7.364
 6203POPC   NC378155  12.069  23.744   5.564
 6203POPC   PO478156  12.076  23.730   5.864
 6203POPC   GL178157  12.118  23.678   6.164
 6203POPC   GL278158  11.903  23.677   6.164
 6203POPC   C1A78159  12.101  23.722   6.464
 6203POPC   D2A78160  12.086  23.730   6.764
 6203POPC   C3A78161  12.051  23.668   7.064
 6203POPC   C4A78162  12.068  23.666   7.364
 6203POPC   C1B78163  11.868  23.721   6.464
 6203POPC   C2B78164  11.819  23.725   6.764
 6203POPC   C3B78165  11.779  23.659   7.064
 6203POPC   C4B78166  11.854  23.634   7.364
 6204POPC   NC378167  18.330   0.485   5.564
 6204POPC   PO478168  18.281   0.482   5.864
 6204POPC   GL178169  18.331   0.434   6.164
 6204POPC   GL278170  18.298   0.607   6.164
 6204POPC   C1A78171  18.320   0.435   6.464
 6204POPC   D2A78172  18.295   0.475   6.764
 6204POPC   C3A78173  18.268   0.419   7.064
 6204POPC   C4A78174  18.238   0.438   7.364
 6204POPC   C1B78175  18.275   0.719   6.464
 6204POPC   C2B78176  18.213   0.705   6.764
 6204POPC   C3B78177  18.244   0.710   7.064
 6204POPC   C4B78178  18.178   0.656   7.364
 6205POPC   NC378179  37.676  41.544   5.564
 6205POPC   PO478180  37.688  41.562   5.864
 6205POPC   GL178181  37.708  41.516   6.164
 6205POPC   GL278182  37.827  41.489   6.164
 6205POPC   C1A78183  37.692  41.565   6.464
 6205POPC   D2A78184  37.710  41.560   6.764
 6205POPC   C3A78185  37.726  41.521   7.064
 6205POPC   C4A78186  37.678  41.549   7.364
 6205POPC   C1B78187  37.889  41.428   6.464
 6205POPC   C2B78188  37.868  41.457   6.764
 6205POPC   C3B78189  37.867  41.456   7.064
 6205POPC   C4B78190  37.887  41.384   7.364
 6206POPC   NC378191  39.273   8.966   5.564
 6206POPC   PO478192  39.232   9.017   5.864
 6206POPC   GL178193  39.255   9.010   6.164
 6206POPC   GL278194  39.136   9.018   6.164
 6206POPC   C1A78195  39.202   8.962   6.464
 6206POPC   D2A78196  39.206   8.924   6.764
 6206POPC   C3A78197  39.265   9.005   7.064
 6206POPC   C4A78198  39.211   9.013   7.364
 6206POPC   C1B78199  38.986   9.120   6.464
 6206POPC   C2B78200  39.040   9.135   6.764
 6206POPC   C3B78201  39.072   9.158   7.064
 6206POPC   C4B78202  39.071   9.150   7.364
 6207POPC   NC378203  21.429  34.550   5.564
 6207POPC   PO478204  21.398  34.591   5.864
 6207POPC   GL178205  21.412  34.614   6.164
 6207POPC   GL278206  21.489  34.528   6.164
 6207POPC   C1A78207  21.416  34.551   6.464
 6207POPC   D2A78208  21.401  34.549   6.764
 6207POPC   C3A78209  21.372  34.609   7.064
 6207POPC   C4A78210  21.355  34.624   7.364
 6207POPC   C1B78211  21.633  34.451   6.464
 6207POPC   C2B78212  21.599  34.409   6.764
 6207POPC   C3B78213  21.636  34.383   7.064
 6207POPC   C4B78214  21.632  34.412   7.364
 6208POPC   NC378215  41.548  39.238   5.564
 6208POPC   PO478216  41.556  39.252   5.864
 6208POPC   GL178217  41.524  39.262   6.164
 6208POPC   GL278218  41.661  39.112   6.164
 6208POPC   C1A78219  41.513  39.205   6.464
 6208POPC   D2A78220  41.555  39.252   6.764
 6208POPC   C3A78221  41.554  39.241   7.064
 6208POPC   C4A78222  41.514  39.247   7.364
 6208POPC   C1B78223  41.721  39.050   6.464
 6208POPC   C2B78224  41.749  39.045   6.764
 6208POPC   C3B78225  41.720  39.008   7.064
 6208POPC   C4B78226  41.762  39.046   7.364
 6209POPC   NC378227   8.977  42.352   5.564
 6209POPC   PO478228   8.953  42.292   5.864
 6209POPC   GL178229   8.970  42.373   6.164
 6209POPC   GL278230   8.946  42.224   6.164
 6209POPC   C1A78231   8.938  42.359   6.464
 6209POPC   D2A78232   9.016  42.312   6.764
 6209POPC   C3A78233   8.988  42.362   7.064
 6209POPC   C4A78234   8.931  42.352   7.364
 6209POPC   C1B78235   8.874  42.055   6.464
 6209POPC   C2B78236   8.855  42.128   6.764
 6209POPC   C3B78237   8.860  42.125   7.064
 6209POPC   C4B78238   8.929  42.127   7.364
 6210POPC   NC378239  29.954  42.370   5.564
 6210POPC   PO478240  29.906  42.344   5.864
 6210POPC   GL178241  29.924  42.333   6.164
 6210POPC   GL278242  29.890  42.191   6.164
 6210POPC   C1A78243  29.891  42.314   6.464
 6210POPC   D2A78244  29.905  42.362   6.764
 6210POPC   C3A78245  29.873  42.344   7.064
 6210POPC   C4A78246  29.966  42.370   7.364
 6210POPC   C1B78247  29.873  42.069   6.464
 6210POPC   C2B78248  29.875  42.137   6.764
 6210POPC   C3B78249  29.803  42.119   7.064
 6210POPC   C4B78250  29.839  42.110   7.364
 6211POPC   NC378251  39.186   8.210   5.564
 6211POPC   PO478252  39.210   8.193   5.864
 6211POPC   GL178253  39.183   8.211   6.164
 6211POPC   GL278254  39.219   8.054   6.164
 6211POPC   C1A78255  39.270   8.242   6.464
 6211POPC   D2A78256  39.257   8.222   6.764
 6211POPC   C3A78257  39.252   8.193   7.064
 6211POPC   C4A78258  39.190   8.218   7.364
 6211POPC   C1B78259  39.150   8.000   6.464
 6211POPC   C2B78260  39.184   7.943   6.764
 6211POPC   C3B78261  39.223   7.944   7.064
 6211POPC   C4B78262  39.178   7.922   7.364
 6212POPC   NC378263  24.440  29.914   5.564
 6212POPC   PO478264  24.472  29.900   5.864
 6212POPC   GL178265  24.483  29.944   6.164
 6212POPC   GL278266  24.369  29.871   6.164
 6212POPC   C1A78267  24.534  29.934   6.464
 6212POPC   D2A78268  24.514  29.964   6.764
 6212POPC   C3A78269  24.500  29.898   7.064
 6212POPC   C4A78270  24.471  29.926   7.364
 6212POPC   C1B78271  24.336  29.740   6.464
 6212POPC   C2B78272  24.261  29.774   6.764
 6212POPC   C3B78273  24.297  29.787   7.064
 6212POPC   C4B78274  24.276  29.811   7.364
 6213POPC   NC378275   6.683  29.097   5.564
 6213POPC   PO478276   6.662  29.168   5.864
 6213POPC   GL178277   6.632  29.157   6.164
 6213POPC   GL278278   6.527  29.059   6.164
 6213POPC   C1A78279   6.663  29.143   6.464
 6213POPC   D2A78280   6.629  29.124   6.764
 6213POPC   C3A78281   6.617  29.145   7.064
 6213POPC   C4A78282   6.637  29.134   7.364
 6213POPC   C1B78283   6.412  29.025   6.464
 6213POPC   C2B78284   6.437  29.011   6.764
 6213POPC   C3B78285   6.458  29.066   7.064
 6213POPC   C4B78286   6.429  29.011   7.364
 6214POPC   NC378287  11.271  37.722   5.564
 6214POPC   PO478288  11.321  37.722   5.864
 6214POPC   GL178289  11.320  37.653   6.164
 6214POPC   GL278290  11.307  37.814   6.164
 6214POPC   C1A78291  11.332  37.711   6.464
 6214POPC   D2A78292  11.338  37.727   6.764
 6214POPC   C3A78293  11.271  37.656   7.064
 6214POPC   C4A78294  11.298  37.630   7.364
 6214POPC   C1B78295  11.218  37.913   6.464
 6214POPC   C2B78296  11.253  37.916   6.764
 6214POPC   C3B78297  11.277  37.891   7.064
 6214POPC   C4B78298  11.284  37.881   7.364
 6215POPC   NC378299  26.000  25.283   5.564
 6215POPC   PO478300  26.044  25.253   5.864
 6215POPC   GL178301  26.076  25.248   6.164
 6215POPC   GL278302  26.004  25.356   6.164
 6215POPC   C1A78303  26.054  25.227   6.464
 6215POPC   D2A78304  26.061  25.266   6.764
 6215POPC   C3A78305  26.064  25.252   7.064
 6215POPC   C4A78306  26.030  25.258   7.364
 6215POPC   C1B78307  25.957  25.504   6.464
 6215POPC   C2B78308  25.910  25.442   6.764
 6215POPC   C3B78309  25.922  25.479   7.064
 6215POPC   C4B78310  25.932  25.498   7.364
 6216POPC   NC378311  43.159  15.199   5.564
 6216POPC   PO478312  43.080  15.149   5.864
 6216POPC   GL178313  43.118  15.203   6.164
 6216POPC   GL278314  43.032  15.275   6.164
 6216POPC   C1A78315  43.061  15.133   6.464
 6216POPC   D2A78316  43.109  15.189   6.764
 6216POPC   C3A78317  43.086  15.225   7.064
 6216POPC   C4A78318  43.117  15.153   7.364
 6216POPC   C1B78319  42.970  15.371   6.464
 6216POPC   C2B78320  42.942  15.353   6.764
 6216POPC   C3B78321  42.893  15.333   7.064
 6216POPC   C4B78322  42.909  15.381   7.364
 6217POPC   NC378323   7.377   8.989   5.564
 6217POPC   PO478324   7.401   8.985   5.864
 6217POPC   GL178325   7.374   9.006   6.164
 6217POPC   GL278326   7.363   8.825   6.164
 6217POPC   C1A78327   7.385   8.926   6.464
 6217POPC   D2A78328   7.387   8.999   6.764
 6217POPC   C3A78329   7.469   9.018   7.064
 6217POPC   C4A78330   7.378   8.934   7.364
 6217POPC   C1B78331   7.224   8.820   6.464
 6217POPC   C2B78332   7.295   8.725   6.764
 6217POPC   C3B78333   7.284   8.771   7.064
 6217POPC   C4B78334   7.281   8.733   7.364
 6218POPC   NC378335   2.754  28.335   5.564
 6218POPC   PO478336   2.727  28.392   5.864
 6218POPC   GL178337   2.717  28.400   6.164
 6218POPC   GL278338   2.675  28.343   6.164
 6218POPC   C1A78339   2.788  28.330   6.464
 6218POPC   D2A78340   2.762  28.380   6.764
 6218POPC   C3A78341   2.786  28.356   7.064
 6218POPC   C4A78342   2.813  28.383   7.364
 6218POPC   C1B78343   2.518  28.235   6.464
 6218POPC   C2B78344   2.491  28.240   6.764
 6218POPC   C3B78345   2.487  28.324   7.064
 6218POPC   C4B78346   2.504  28.319   7.364
 6219POPC   NC378347  29.897  28.381   5.564
 6219POPC   PO478348  29.964  28.419   5.864
 6219POPC   GL178349  29.943  28.408   6.164
 6219POPC   GL278350  29.817  28.250   6.164
 6219POPC   C1A78351  29.950  28.375   6.464
 6219POPC   D2A78352  29.948  28.401   6.764
 6219POPC   C3A78353  29.892  28.409   7.064
 6219POPC   C4A78354  29.896  28.414   7.364
 6219POPC   C1B78355  29.766  28.124   6.464
 6219POPC   C2B78356  29.780  28.179   6.764
 6219POPC   C3B78357  29.766  28.174   7.064
 6219POPC   C4B78358  29.784  28.129   7.364
 6220POPC   NC378359  18.278  23.717   5.564
 6220POPC   PO478360  18.277  23.666   5.864
 6220POPC   GL178361  18.311  23.759   6.164
 6220POPC   GL278362  18.322  23.819   6.164
 6220POPC   C1A78363  18.270  23.732   6.464
 6220POPC   D2A78364  18.242  23.666   6.764
 6220POPC   C3A78365  18.312  23.759   7.064
 6220POPC   C4A78366  18.305  23.736   7.364
 6220POPC   C1B78367  18.346  23.998   6.464
 6220POPC   C2B78368  18.375  23.913   6.764
 6220POPC   C3B78369  18.307  24.004   7.064
 6220POPC   C4B78370  18.374  23.991   7.364
 6221POPC   NC378371  28.335  16.773   5.564
 6221POPC   PO478372  28.364  16.758   5.864
 6221POPC   GL178373  28.328  16.704   6.164
 6221POPC   GL278374  28.459  16.817   6.164
 6221POPC   C1A78375  28.391  16.749   6.464
 6221POPC   D2A78376  28.331  16.743   6.764
 6221POPC   C3A78377  28.327  16.724   7.064
 6221POPC   C4A78378  28.396  16.751   7.364
 6221POPC   C1B78379  28.488  16.971   6.464
 6221POPC   C2B78380  28.471  16.993   6.764
 6221POPC   C3B78381  28.503  16.913   7.064
 6221POPC   C4B78382  28.516  16.924   7.364
 6222POPC   NC378383  36.889  25.249   5.564
 6222POPC   PO478384  36.902  25.313   5.864
 6222POPC   GL178385  36.930  25.292   6.164
 6222POPC   GL278386  37.012  25.318   6.164
 6222POPC   C1A78387  36.901  25.259   6.464
 6222POPC   D2A78388  36.910  25.257   6.764
 6222POPC   C3A78389  36.941  25.272   7.064
 6222POPC   C4A78390  36.890  25.258   7.364
 6222POPC   C1B78391  37.070  25.434   6.464
 6222POPC   C2B78392  37.080  25.429   6.764
 6222POPC   C3B78393  37.059  25.390   7.064
 6222POPC   C4B78394  37.116  25.398   7.364
 6223POPC   NC378395   5.079  21.413   5.564
 6223POPC   PO478396   5.099  21.433   5.864
 6223POPC   GL178397   5.132  21.352   6.164
 6223POPC   GL278398   5.235  21.383   6.164
 6223POPC   C1A78399   5.108  21.351   6.464
 6223POPC   D2A78400   5.133  21.380   6.764
 6223POPC   C3A78401   5.095  21.385   7.064
 6223POPC   C4A78402   5.058  21.426   7.364
 6223POPC   C1B78403   5.336  21.332   6.464
 6223POPC   C2B78404   5.295  21.266   6.764
 6223POPC   C3B78405   5.295  21.351   7.064
 6223POPC   C4B78406   5.366  21.312   7.364
 6224POPC   NC378407  34.590  26.076   5.564
 6224POPC   PO478408  34.590  26.041   5.864
 6224POPC   GL178409  34.581  26.067   6.164
 6224POPC   GL278410  34.661  25.960   6.164
 6224POPC   C1A78411  34.564  26.001   6.464
 6224POPC   D2A78412  34.533  26.076   6.764
 6224POPC   C3A78413  34.578  26.017   7.064
 6224POPC   C4A78414  34.610  25.994   7.364
 6224POPC   C1B78415  34.688  25.815   6.464
 6224POPC   C2B78416  34.681  25.772   6.764
 6224POPC   C3B78417  34.670  25.771   7.064
 6224POPC   C4B78418  34.673  25.851   7.364
 6225POPC   NC378419  40.793  31.478   5.564
 6225POPC   PO478420  40.764  31.474   5.864
 6225POPC   GL178421  40.739  31.473   6.164
 6225POPC   GL278422  40.660  31.391   6.164
 6225POPC   C1A78423  40.768  31.509   6.464
 6225POPC   D2A78424  40.768  31.475   6.764
 6225POPC   C3A78425  40.754  31.439   7.064
 6225POPC   C4A78426  40.743  31.496   7.364
 6225POPC   C1B78427  40.647  31.228   6.464
 6225POPC   C2B78428  40.638  31.314   6.764
 6225POPC   C3B78429  40.649  31.256   7.064
 6225POPC   C4B78430  40.642  31.282   7.364
 6226POPC   NC378431  43.065  29.889   5.564
 6226POPC   PO478432  43.064  29.919   5.864
 6226POPC   GL178433  43.131  29.962   6.164
 6226POPC   GL278434  43.116  29.752   6.164
 6226POPC   C1A78435  43.123  29.947   6.464
 6226POPC   D2A78436  43.134  29.952   6.764
 6226POPC   C3A78437  43.077  29.938   7.064
 6226POPC   C4A78438  43.091  29.969   7.364
 6226POPC   C1B78439  43.092  29.663   6.464
 6226POPC   C2B78440  43.137  29.624   6.764
 6226POPC   C3B78441  43.149  29.643   7.064
 6226POPC   C4B78442  43.108  29.632   7.364
 6227POPC   NC378443  41.591  13.633   5.564
 6227POPC   PO478444  41.590  13.659   5.864
 6227POPC   GL178445  41.581  13.639   6.164
 6227POPC   GL278446  41.503  13.730   6.164
 6227POPC   C1A78447  41.592  13.662   6.464
 6227POPC   D2A78448  41.524  13.585   6.764
 6227POPC   C3A78449  41.535  13.668   7.064
 6227POPC   C4A78450  41.607  13.666   7.364
 6227POPC   C1B78451  41.408  13.794   6.464
 6227POPC   C2B78452  41.428  13.820   6.764
 6227POPC   C3B78453  41.415  13.851   7.064
 6227POPC   C4B78454  41.482  13.828   7.364
 6228POPC   NC378455  29.879  19.078   5.564
 6228POPC   PO478456  29.875  19.072   5.864
 6228POPC   GL178457  29.970  19.083   6.164
 6228POPC   GL278458  29.845  19.070   6.164
 6228POPC   C1A78459  29.914  19.038   6.464
 6228POPC   D2A78460  29.970  19.058   6.764
 6228POPC   C3A78461  29.941  19.081   7.064
 6228POPC   C4A78462  29.874  19.070   7.364
 6228POPC   C1B78463  29.639  19.058   6.464
 6228POPC   C2B78464  29.696  19.078   6.764
 6228POPC   C3B78465  29.640  19.112   7.064
 6228POPC   C4B78466  29.629  19.085   7.364
 6229POPC   NC378467  40.755  34.611   5.564
 6229POPC   PO478468  40.786  34.612   5.864
 6229POPC   GL178469  40.746  34.566   6.164
 6229POPC   GL278470  40.735  34.411   6.164
 6229POPC   C1A78471  40.763  34.591   6.464
 6229POPC   D2A78472  40.816  34.577   6.764
 6229POPC   C3A78473  40.759  34.557   7.064
 6229POPC   C4A78474  40.818  34.538   7.364
 6229POPC   C1B78475  40.750  34.340   6.464
 6229POPC   C2B78476  40.716  34.339   6.764
 6229POPC   C3B78477  40.687  34.323   7.064
 6229POPC   C4B78478  40.732  34.363   7.364
 6230POPC   NC378479  33.832  12.880   5.564
 6230POPC   PO478480  33.798  12.849   5.864
 6230POPC   GL178481  33.782  12.876   6.164
 6230POPC   GL278482  33.740  12.732   6.164
 6230POPC   C1A78483  33.837  12.878   6.464
 6230POPC   D2A78484  33.754  12.849   6.764
 6230POPC   C3A78485  33.770  12.805   7.064
 6230POPC   C4A78486  33.833  12.820   7.364
 6230POPC   C1B78487  33.575  12.728   6.464
 6230POPC   C2B78488  33.565  12.703   6.764
 6230POPC   C3B78489  33.609  12.675   7.064
 6230POPC   C4B78490  33.619  12.694   7.364
 6231POPC   NC378491  19.868  25.246   5.564
 6231POPC   PO478492  19.846  25.293   5.864
 6231POPC   GL178493  19.820  25.230   6.164
 6231POPC   GL278494  19.812  25.185   6.164
 6231POPC   C1A78495  19.883  25.258   6.464
 6231POPC   D2A78496  19.804  25.271   6.764
 6231POPC   C3A78497  19.826  25.275   7.064
 6231POPC   C4A78498  19.798  25.275   7.364
 6231POPC   C1B78499  19.748  25.050   6.464
 6231POPC   C2B78500  19.727  25.083   6.764
 6231POPC   C3B78501  19.673  25.088   7.064
 6231POPC   C4B78502  19.744  25.013   7.364
 6232POPC   NC378503  23.701  14.431   5.564
 6232POPC   PO478504  23.673  14.360   5.864
 6232POPC   GL178505  23.694  14.377   6.164
 6232POPC   GL278506  23.553  14.405   6.164
 6232POPC   C1A78507  23.728  14.410   6.464
 6232POPC   D2A78508  23.754  14.394   6.764
 6232POPC   C3A78509  23.668  14.400   7.064
 6232POPC   C4A78510  23.721  14.411   7.364
 6232POPC   C1B78511  23.435  14.338   6.464
 6232POPC   C2B78512  23.500  14.333   6.764
 6232POPC   C3B78513  23.460  14.369   7.064
 6232POPC   C4B78514  23.495  14.411   7.364
 6233POPC   NC378515   6.685  18.236   5.564
 6233POPC   PO478516   6.676  18.275   5.864
 6233POPC   GL178517   6.682  18.269   6.164
 6233POPC   GL278518   6.718  18.329   6.164
 6233POPC   C1A78519   6.617  18.254   6.464
 6233POPC   D2A78520   6.619  18.281   6.764
 6233POPC   C3A78521   6.624  18.311   7.064
 6233POPC   C4A78522   6.646  18.306   7.364
 6233POPC   C1B78523   6.880  18.367   6.464
 6233POPC   C2B78524   6.882  18.324   6.764
 6233POPC   C3B78525   6.923  18.331   7.064
 6233POPC   C4B78526   6.935  18.314   7.364
 6234POPC   NC378527  13.587  12.102   5.564
 6234POPC   PO478528  13.640  12.070   5.864
 6234POPC   GL178529  13.645  12.107   6.164
 6234POPC   GL278530  13.562  11.965   6.164
 6234POPC   C1A78531  13.591  12.101   6.464
 6234POPC   D2A78532  13.634  12.029   6.764
 6234POPC   C3A78533  13.595  12.120   7.064
 6234POPC   C4A78534  13.658  12.080   7.364
 6234POPC   C1B78535  13.578  11.798   6.464
 6234POPC   C2B78536  13.599  11.832   6.764
 6234POPC   C3B78537  13.614  11.813   7.064
 6234POPC   C4B78538  13.550  11.824   7.364
 6235POPC   NC378539  33.773  42.347   5.564
 6235POPC   PO478540  33.794  42.329   5.864
 6235POPC   GL178541  33.773  42.300   6.164
 6235POPC   GL278542  33.926  42.245   6.164
 6235POPC   C1A78543  33.811  42.337   6.464
 6235POPC   D2A78544  33.802  42.369   6.764
 6235POPC   C3A78545  33.847  42.330   7.064
 6235POPC   C4A78546  33.783  42.294   7.364
 6235POPC   C1B78547  34.054  42.239   6.464
 6235POPC   C2B78548  34.008  42.245   6.764
 6235POPC   C3B78549  34.047  42.279   7.064
 6235POPC   C4B78550  34.033  42.277   7.364
 6236POPC   NC378551  30.723   1.941   5.564
 6236POPC   PO478552  30.713   2.008   5.864
 6236POPC   GL178553  30.693   1.985   6.164
 6236POPC   GL278554  30.835   2.045   6.164
 6236POPC   C1A78555  30.741   1.987   6.464
 6236POPC   D2A78556  30.730   1.989   6.764
 6236POPC   C3A78557  30.712   2.011   7.064
 6236POPC   C4A78558  30.703   1.968   7.364
 6236POPC   C1B78559  30.935   2.106   6.464
 6236POPC   C2B78560  30.933   2.101   6.764
 6236POPC   C3B78561  30.882   2.142   7.064
 6236POPC   C4B78562  30.924   2.141   7.364
 6237W        W78563  39.526  33.097  10.597
 6238W        W78564  30.632  33.441  11.010
 6239W        W78565  31.124   6.871   0.374
 6240W        W78566  25.179   9.787  10.961
 6241W        W78567  30.163  27.629   3.278
 6242W        W78568  44.908  26.978   1.243
 6243W        W78569  22.649  28.622   3.775
 6244W        W78570  43.989  37.527   4.289
 6245W        W78571  31.975  18.120   4.767
 6246W        W78572   2.843  15.322   4.221
 6247W        W78573   6.342  22.091  13.019
 6248W        W78574  17.675  10.174  11.937
 6249W        W78575  30.116  38.372  11.043
 6250W        W78576   0.811  10.689  10.470
 6251W        W78577   2.453   6.764  13.058
 6252W        W78578  10.828  31.560   4.332
 6253W        W78579  26.109  26.664  11.928
 6254W        W78580   8.792  18.751  11.480
 6255W        W78581   1.398   3.753  13.030
 6256W        W78582   4.383  22.520  10.910
 6257W        W78583  25.531  15.286   2.372
 6258W        W78584  19.063  33.039   3.271
 6259W        W78585  42.358   4.280  10.503
 6260W        W78586  31.106  43.368  14.990
 6261W        W78587  21.513  38.016  14.866
 6262W        W78588  34.063  12.196  13.053
 6263W        W78589  28.525  36.366   4.212
 6264W        W78590  20.057  38.534   3.689
 6265W        W78591  20.089   4.352  11.424
 6266W        W78592  42.843  29.163   0.775
 6267W        W78593  16.679  12.713   2.310
 6268W        W78594   1.912   7.770  12.460
 6269W        W78595   9.193  39.555   2.270
 6270W        W78596  32.481  10.235  12.077
 6271W        W78597  33.593  22.585   3.789
 6272W        W78598  42.791   1.287   2.887
 6273W        W78599  27.174   8.851   1.868
 6274W        W78600  17.750   3.421   3.286
 6275W        W78601  15.787  36.987   3.768
 6276W        W78602  28.962   2.827   0.290
 6277W        W78603   1.250  43.869   2.266
 6278W        W78604   2.757   2.396  13.515
 6279W        W78605  29.532  32.633   1.308
 6280W        W78606  24.488   0.366  11.409
 6281W        W78607   9.340  31.904  12.356
 6282W        W78608  28.618  21.609  11.094
 6283W        W78609   7.220  43.996   3.760
 6284W        W78610  18.232  37.962  13.984
 6285W        W78611  15.673   3.922   1.376
 6286W        W78612  37.907  27.062  11.431
 6287W        W78613  10.763   2.373   0.815
 6288W        W78614  33.494   8.207   2.351
 6289W        W78615  36.098  37.022  11.572
 6290W        W78616  43.489   7.707   4.124
 6291W        W78617  41.813  36.476   0.891
 6292W        W78618  28.121  23.134  12.977
 6293W        W78619  36.923  28.652   0.395
 6294W        W78620   9.722   7.412   4.347
 6295W        W78621  43.382  40.863   4.705
 6296W        W78622  23.045   4.450   2.797
 6297W        W78623  33.942  42.883  10.970
 6298W        W78624  28.514   5.197  13.849
 6299W        W78625  22.630  16.568  11.589
 6300W        W78626  31.523   9.735  13.402
 6301W        W78627  40.042  34.511   2.251
 6302W        W78628  21.227  38.464  14.336
 6303W        W78629  28.037  10.305   0.900
 6304W        W78630  29.011  15.205  13.412
 6305W        W78631  41.997  10.829  11.092
 6306W        W78632  43.464  28.974   4.631
 6307W        W78633  16.782  17.159  10.465
 6308W        W78634   1.955  17.240  13.409
 6309W        W78635   8.189  15.211   0.478
 6310W        W78636  14.736  42.518  12.513
 6311W        W78637  31.010  26.578  10.061
 6312W        W78638   8.802  23.042  13.793
 6313W        W78639  41.401   3.761  12.535
 6314W        W78640  13.270  23.602  12.951
 6315W        W78641   4.906  12.629  14.375
 6316W        W78642  15.177  22.246   3.321
 6317W        W78643  36.925  38.571  14.842
 6318W        W78644  31.585   4.839   4.719
 6319W        W78645  14.187  10.383   3.304
 6320W        W78646  27.662  27.124   3.155
 6321W        W78647  39.860  43.291  12.445
 6322W        W78648  33.001  13.172  14.508
 6323W        W78649  22.695  44.896   3.199
 6324W        W78650  26.198   3.313  10.957
 6325W        W78651   5.839  42.317  14.502
 6326W        W78652  16.168   8.199  12.937
 6327W        W78653   5.913  31.122   1.318
 6328W        W78654  41.355  15.586  14.313
 6329W        W78655  31.073  33.923   0.835
 6330W        W78656  38.454   9.328  13.480
 6331W        W78657   8.347  19.212   2.902
 6332W        W78658  24.041  19.151  12.422
 6333W        W78659   9.694  15.142   0.368
 6334W        W78660  37.357  12.691   2.769
 6335W        W78661   1.253   7.757   3.653
 6336W        W78662  31.581  36.409  14.971
 6337W        W78663  20.553  17.266   3.170
 6338W        W78664  17.765  34.555  12.365
 6339W        W78665  10.154  14.152   2.250
 6340W        W78666  14.271  29.485   5.200
 6341W        W78667   3.817   3.382  10.528
 6342W        W78668  12.138  24.600  14.972
 6343W        W78669  10.179  34.019   0.776
 6344W        W78670  17.728  43.399   2.829
 6345W        W78671  38.490  12.635   2.890
 6346W        W78672  40.837  12.648   0.813
 6347W        W78673  17.082   3.312  14.405
 6348W        W78674  25.653   9.848   4.655
 6349W        W78675  15.116  32.997  10.980
 6350W        W78676  28.542  39.385   0.422
 6351W        W78677  19.087  27.068  12.033
 6352W        W78678  27.545  13.714  12.994
 6353W        W78679  33.876  10.644   4.204
 6354W        W78680  29.144  28.176   3.383
 6355W        W78681  17.226   4.845  11.493
 6356W        W78682  42.934  30.982   3.842
 6357W        W78683  43.849  39.944  14.891
 6358W        W78684  42.323  11.332   2.208
 6359W        W78685  43.952  16.746   0.279
 6360W        W78686  32.917   1.755  14.851
 6361W        W78687  34.434  27.175  14.413
 6362W        W78688  43.499  44.766  12.836
 6363W        W78689  23.568  35.359  14.879
 6364W        W78690  10.689  31.002  12.558
 6365W        W78691  14.140  37.558   4.329
 6366W        W78692  10.830  38.518  12.980
 6367W        W78693  19.630  14.264  10.635
 6368W        W78694  23.231   2.472  11.880
 6369W        W78695  16.787  40.043   0.826
 6370W        W78696  28.032  42.826   0.839
 6371W        W78697   7.276   7.706   1.866
 6372W        W78698  13.643  17.752  12.041
 6373W        W78699  34.558  12.144  11.462
 6374W        W78700  25.127  38.540  12.082
 6375W        W78701  12.667   4.746  13.923
 6376W        W78702   6.316   3.304  14.818
 6377W        W78703  35.594  13.752   1.928
 6378W        W78704  17.727   8.177   0.332
 6379W        W78705  38.354  24.700   0.400
 6380W        W78706  30.961   2.260   0.783
 6381W        W78707   0.783  44.407   3.179
 6382W        W78708  10.332  28.437   1.280
 6383W        W78709  29.534   4.854   3.819
 6384W        W78710   1.956  17.737  10.608
 6385W        W78711  16.152  41.946  12.561
 6386W        W78712  41.485  24.521  11.029
 6387W        W78713  35.538   6.289   1.788
 6388W        W78714   2.955  25.153  10.992
 6389W        W78715  43.387  16.072  11.065
 6390W        W78716  44.328  42.808   0.939
 6391W        W78717  10.708  19.775   0.357
 6392W        W78718  26.158  34.511  12.951
 6393W        W78719   6.200  39.990   4.633
 6394W        W78720  31.546  23.586  11.408
 6395W        W78721  20.129  26.048  11.956
 6396W        W78722   7.907  23.016  11.476
 6397W        W78723   6.307   0.961   4.806
 6398W        W78724  21.123  10.339  11.028
 6399W        W78725   8.899  14.173  13.441
 6400W        W78726  15.643   7.846   3.184
 6401W        W78727  17.107  16.709  14.969
 6402W        W78728  17.091  19.267  11.535
 6403W        W78729  42.392  36.463  11.490
 6404W        W78730  26.626  15.695   2.788
 6405W        W78731  17.282  15.312   0.866
 6406W        W78732  30.098  41.480  12.009
 6407W        W78733  25.702  13.732  14.496
 6408W        W78734  29.594  18.210  14.869
 6409W        W78735   6.805  26.032  11.496
 6410W        W78736  34.411  29.031   4.775
 6411W        W78737  38.555   3.876  13.516
 6412W        W78738  38.564  11.341   4.219
 6413W        W78739  33.926  20.675   0.732
 6414W        W78740  26.602  17.638   3.838
 6415W        W78741   6.762  28.021  11.995
 6416W        W78742  22.231  26.985  10.542
 6417W        W78743  18.688  40.863   0.737
 6418W        W78744  36.054  28.088   0.329
 6419W        W78745   9.234  37.951   3.721
 6420W        W78746  18.125  34.462   3.804
 6421W        W78747  34.440  40.403  12.392
 6422W        W78748   7.746  11.316  11.101
 6423W        W78749  39.518   3.228  12.068
 6424W        W78750  35.416  12.853   1.362
 6425W        W78751  10.831  19.101   1.376
 6426W        W78752  35.386   4.742   0.426
 6427W        W78753  11.623  25.572  10.924
 6428W        W78754  26.648  38.060   0.243
 6429W        W78755  20.598  42.389  11.051
 6430W        W78756  39.009  43.510   2.746
 6431W        W78757  38.325   9.659   4.148
 6432W        W78758  30.115  29.594   3.782
 6433W        W78759   8.807  19.676  10.599
 6434W        W78760  19.714  14.696   1.379
 6435W        W78761   6.253   3.339   3.749
 6436W        W78762   7.360   4.781   1.920
 6437W        W78763  44.878  12.735   0.765
 6438W        W78764  36.911  15.653   0.820
 6439W        W78765  27.977  30.540   5.186
 6440W        W78766  44.329  10.650   2.372
 6441W        W78767  34.509  43.404  10.981
 6442W        W78768  12.232  43.427   2.763
 6443W        W78769  40.394  26.548  10.429
 6444W        W78770  30.563  20.121   5.270
 6445W        W78771  19.602  12.777   2.384
 6446W        W78772  20.262  13.682  11.599
 6447W        W78773  18.631  39.038   2.718
 6448W        W78774   1.755  30.112  11.444
 6449W        W78775  32.595  44.357   2.711
 6450W        W78776  44.975  30.934  10.907
 6451W        W78777  43.862  25.640  10.927
 6452W        W78778  40.479  29.089  10.558
 6453W        W78779  37.343  19.080  13.437
 6454W        W78780   4.942  16.785  13.502
 6455W        W78781   0.455  27.009   2.720
 6456W        W78782   9.354  23.593   4.700
 6457W        W78783  25.072  14.175   0.345
 6458W        W78784   0.349  11.248   1.355
 6459W        W78785  43.391  33.386   3.200
 6460W        W78786   0.748   5.852  10.975
 6461W        W78787  30.576  13.621   3.181
 6462W        W78788  14.696  25.530   4.779
 6463W        W78789   1.349   9.709  13.433
 6464W        W78790   2.434  32.471   4.789
 6465W        W78791   5.778  12.831   0.295
 6466W        W78792  34.927  21.703  12.367
 6467W        W78793  26.622  28.942   0.844
 6468W        W78794  37.485  40.875   4.177
 6469W        W78795  26.550  19.770   0.842
 6470W        W78796  10.156  31.920   0.447
 6471W        W78797  29.170   0.891  14.501
 6472W        W78798  12.697  14.607  12.445
 6473W        W78799  33.535  34.914   4.226
 6474W        W78800  18.116  20.620   2.866
 6475W        W78801  30.098  27.502  13.538
 6476W        W78802  11.212  16.178   3.793
 6477W        W78803  37.978  13.694   2.867
 6478W        W78804  16.762  30.091   0.334
 6479W        W78805   1.977  31.455  13.390
 6480W        W78806   8.240   2.771   3.653
 6481W        W78807   0.968   5.411  11.082
 6482W        W78808  34.386  42.794  12.994
 6483W        W78809  39.533   1.445   1.335
 6484W        W78810  11.173   9.224   3.303
 6485W        W78811  10.165  19.593   4.685
 6486W        W78812  25.056  14.677  14.380
 6487W        W78813   5.411  17.197   2.821
 6488W        W78814  12.175   5.716  14.956
 6489W        W78815  16.272  27.036  13.868
 6490W        W78816  29.426  24.085   4.120
 6491W        W78817   2.228  41.855   1.385
 6492W        W78818  15.312   9.678  14.403
 6493W        W78819   8.663  36.908  10.631
 6494W        W78820  39.885  34.570  13.975
 6495W        W78821  31.578  27.678   0.354
 6496W        W78822   3.399  35.579  13.843
 6497W        W78823   7.790  21.736  14.303
 6498W        W78824  15.290  27.017   3.751
 6499W        W78825  25.492   1.965  12.085
 6500W        W78826  30.045   7.385  11.093
 6501W        W78827  30.931  14.339   2.809
 6502W        W78828  42.338  44.303  12.470
 6503W        W78829  32.967  36.405   4.318
 6504W        W78830  28.931   9.151  12.356
 6505W        W78831  38.331  13.304  12.467
 6506W        W78832   7.186  33.542   1.327
 6507W        W78833  22.634  28.971  13.501
 6508W        W78834  44.502  11.852   0.844
 6509W        W78835  27.966  37.380   0.833
 6510W        W78836  25.128  19.779  13.397
 6511W        W78837  27.003  21.229   1.801
 6512W        W78838  36.538  27.196  11.857
 6513W        W78839  41.891  29.040   1.840
 6514W        W78840  23.569  41.394  13.918
 6515W        W78841  27.125   8.732   1.381
 6516W        W78842  35.376  11.786   3.779
 6517W        W78843  12.211  34.519  12.531
 6518W        W78844  39.053   7.214  13.510
 6519W        W78845   6.266   5.362   0.462
 6520W        W78846  40.043  26.183  12.003
 6521W        W78847  25.963  25.019   2.708
 6522W        W78848  37.875  12.647   2.251
 6523W        W78849  26.199  40.390  12.089
 6524W        W78850   2.822  42.991  14.799
 6525W        W78851  13.341  28.977   1.416
 6526W        W78852   5.405   5.886   3.371
 6527W        W78853  27.033  14.668  10.467
 6528W        W78854   1.825   2.846  11.375
 6529W        W78855  23.121  41.966  13.314
 6530W        W78856  24.578  16.614   1.265
 6531W        W78857  31.404  43.784   3.171
 6532W        W78858  24.567   0.396  10.633
 6533W        W78859  43.305  11.733  12.462
 6534W        W78860  13.764  25.105   3.373
 6535W        W78861  35.894  24.563  11.028
 6536W        W78862  17.623  39.437   4.285
 6537W        W78863   1.423  23.085  14.299
 6538W        W78864   3.740   8.765   2.818
 6539W        W78865  17.072  44.388  11.044
 6540W        W78866   2.308   5.343  11.488
 6541W        W78867  28.637  27.505  13.855
 6542W        W78868  23.665  39.810   5.677
 6543W        W78869  32.024  24.179  11.072
 6544W        W78870  28.529  20.174  11.887
 6545W        W78871  22.110   3.716  10.453
 6546W        W78872  30.537  29.522  10.577
 6547W        W78873  43.451   8.225   4.614
 6548W        W78874   6.799  30.570   3.808
 6549W        W78875  19.230   6.753  10.944
 6550W        W78876  12.205  17.245  10.527
 6551W        W78877  26.488   2.418   0.299
 6552W        W78878  31.467  33.556   3.724
 6553W        W78879  34.927  21.552  14.306
 6554W        W78880  37.451  17.213   2.340
 6555W        W78881  22.178   5.344  10.481
 6556W        W78882  13.262   4.406  12.395
 6557W        W78883  28.499  25.197   2.838
 6558W        W78884  39.911  15.304   1.809
 6559W        W78885  26.997  37.501   2.274
 6560W        W78886   1.366  40.006   0.412
 6561W        W78887  34.096  34.964   5.128
 6562W        W78888   5.336   6.367   1.767
 6563W        W78889   1.414  27.537   3.676
 6564W        W78890  38.437  42.367  11.969
 6565W        W78891   5.929  39.020  12.989
 6566W        W78892  41.918  24.167   0.854
 6567W        W78893  12.792  10.731   4.116
 6568W        W78894  28.133   4.884   2.198
 6569W        W78895  40.816  32.923  12.561
 6570W        W78896  13.145  33.946   1.868
 6571W        W78897  24.973  37.081   1.725
 6572W        W78898  39.873  43.974   3.282
 6573W        W78899  43.987  41.991   3.304
 6574W        W78900  42.484  16.079  10.433
 6575W        W78901  19.180  28.947   0.409
 6576W        W78902  42.775  13.333   4.774
 6577W        W78903   0.353   9.870   1.915
 6578W        W78904  15.580  38.372  10.553
 6579W        W78905  42.407  24.022   2.328
 6580W        W78906   2.864   2.407  13.996
 6581W        W78907  28.556  38.867  10.424
 6582W        W78908  22.126  39.547  12.996
 6583W        W78909   9.277   2.298   3.810
 6584W        W78910  38.989  41.533   2.776
 6585W        W78911   4.268  24.568   2.892
 6586W        W78912  11.812  13.194   1.825
 6587W        W78913   5.270  21.216   4.127
 6588W        W78914  18.284  31.925   2.754
 6589W        W78915  33.931   5.255  11.930
 6590W        W78916  16.567   8.322   3.854
 6591W        W78917  21.634  16.748  13.796
 6592W        W78918  22.637  25.577  13.529
 6593W        W78919  12.739  11.853   2.243
 6594W        W78920  27.465  10.811  10.954
 6595W        W78921  21.621  23.513   1.698
 6596W        W78922   6.804  34.545  13.039
 6597W        W78923  12.839  38.447   4.827
 6598W        W78924  38.368  12.693  12.529
 6599W        W78925  28.992  21.210   2.255
 6600W        W78926  19.091  24.555   3.731
 6601W        W78927  26.082  11.834   1.764
 6602W        W78928  28.495  43.823   1.818
 6603W        W78929  35.388  33.955   4.217
 6604W        W78930  43.005  41.400   4.831
 6605W        W78931  14.103  20.769   0.871
 6606W        W78932   1.925   3.226   3.219
 6607W        W78933  26.196  37.571   0.323
 6608W        W78934  31.604   7.275   0.749
 6609W        W78935  11.287  26.481   2.309
 6610W        W78936  22.740  29.942  14.871
 6611W        W78937  37.402  33.042   0.301
 6612W        W78938  39.966  29.076  11.984
 6613W        W78939  29.665  30.656  13.814
 6614W        W78940  28.166  35.017   1.695
 6615W        W78941  12.787  16.695   4.712
 6616W        W78942  11.845  10.642  11.438
 6617W        W78943  43.999  18.259   4.618
 6618W        W78944  15.244   1.429   1.843
 6619W        W78945  39.505  13.712  14.965
 6620W        W78946  43.512   3.280   4.750
 6621W        W78947   0.815  37.363   3.702
 6622W        W78948  44.910  16.146  12.860
 6623W        W78949  42.389  33.922   3.150
 6624W        W78950  40.440  14.730   0.262
 6625W        W78951  37.900  41.496  11.953
 6626W        W78952   4.327  40.864   4.256
 6627W        W78953   3.807   8.212   0.311
 6628W        W78954   0.823   8.839   1.717
 6629W        W78955  43.928  26.013  13.905
 6630W        W78956  18.778  39.497  11.536
 6631W        W78957  36.392  16.210  10.903
 6632W        W78958  37.371  15.229  11.970
 6633W        W78959  13.809  20.116   0.869
 6634W        W78960  34.503  44.913  11.014
 6635W        W78961  25.702  23.497  11.914
 6636W        W78962  36.911  16.613  10.405
 6637W        W78963  21.247   8.783   1.450
 6638W        W78964  14.121  30.101   3.869
 6639W        W78965  37.982  11.176   2.263
 6640W        W78966  24.072   0.492   1.793
 6641W        W78967  28.074  16.804   0.859
 6642W        W78968  18.637  37.913   1.241
 6643W        W78969  35.413  33.477  10.626
 6644W        W78970   4.339   1.435  11.030
 6645W        W78971  34.615  22.236   2.857
 6646W        W78972  37.998  38.514  12.072
 6647W        W78973   0.932  28.442   1.749
 6648W        W78974   0.982  19.275  13.309
 6649W        W78975  22.216  29.159   1.223
 6650W        W78976  40.810  14.275  13.864
 6651W        W78977  37.512  12.229  11.096
 6652W        W78978   5.725  15.132   0.461
 6653W        W78979  21.229  40.529  10.465
 6654W        W78980  21.135  13.175  12.553
 6655W        W78981   7.231  15.096   3.741
 6656W        W78982  29.627   2.463  13.985
 6657W        W78983  28.157  33.581   3.782
 6658W        W78984   7.891  38.820   5.295
 6659W        W78985  41.510  29.667   1.782
 6660W        W78986   7.358  38.898  14.962
 6661W        W78987   6.889  12.219  13.055
 6662W        W78988  24.045   9.717   3.833
 6663W        W78989   9.308   2.451  13.010
 6664W        W78990  44.279   4.749   5.303
 6665W        W78991  37.406  25.473  12.034
 6666W        W78992  35.932  33.886  12.413
 6667W        W78993   1.843  35.394   3.668
 6668W        W78994   8.815  10.687   1.725
 6669W        W78995   8.757  22.210   3.361
 6670W        W78996  17.103  10.348  14.837
 6671W        W78997  31.425  41.451   3.189
 6672W        W78998  38.921  11.697   4.811
 6673W        W78999  11.257  23.667   4.185
 6674W        W79000  29.105  27.133  10.613
 6675W        W79001  34.408  18.140   0.419
 6676W        W79002  35.458  18.680  14.923
 6677W        W79003  40.880  27.048  11.997
 6678W        W79004   6.334  15.705   5.213
 6679W        W79005   1.735   1.923   9.546
 6680W        W79006  14.181  11.273  14.369
 6681W        W79007  16.691  27.446   0.749
 6682W        W79008  35.924  14.640   0.910
 6683W        W79009  33.384  16.093   3.675
 6684W        W79010  11.800  24.217  10.502
 6685W        W79011  12.168   8.228   0.329
 6686W        W79012  13.693  35.550   1.367
 6687W        W79013   9.222   7.799   4.652
 6688W        W79014  35.918  14.220  11.441
 6689W        W79015  34.054  36.462  14.807
 6690W        W79016  15.766  33.101  14.913
 6691W        W79017  19.253  20.183  13.395
 6692W        W79018  40.372  24.171  11.088
 6693W        W79019  27.105  10.871  12.511
 6694W        W79020  43.430  26.657   4.609
 6695W        W79021  16.296  22.577  12.052
 6696W        W79022  15.795  42.840   1.901
 6697W        W79023  38.886  30.641  14.420
 6698W        W79024  15.107  10.164  11.436
 6699W        W79025  34.026  21.244   1.713
 6700W        W79026  21.101  35.971  12.839
 6701W        W79027  16.774  35.477   0.941
 6702W        W79028  18.603   3.253   2.310
 6703W        W79029   9.165  12.720  13.959
 6704W        W79030  10.379   3.886  12.460
 6705W        W79031  30.524  37.989  12.380
 6706W        W79032  11.654   3.430  14.440
 6707W        W79033   0.791  23.495   0.336
 6708W        W79034  14.148  10.682  13.940
 6709W        W79035  31.599  32.456   4.144
 6710W        W79036  42.887  43.921   3.275
 6711W        W79037  22.247  21.200  13.851
 6712W        W79038  34.441   0.871   2.234
 6713W        W79039  18.210  43.486   3.153
 6714W        W79040   7.290  36.377   0.260
 6715W        W79041  27.194  22.689   2.298
 6716W        W79042   4.329   3.458   9.920
 6717W        W79043   7.862   1.297   3.333
 6718W        W79044   4.886  22.661   0.429
 6719W        W79045  33.023  27.950  14.953
 6720W        W79046   7.200  35.430  13.056
 6721W        W79047   1.745  11.264   0.432
 6722W        W79048  40.862  10.337  13.545
 6723W        W79049  41.442  12.358  12.515
 6724W        W79050  14.115  27.094  12.872
 6725W        W79051  24.489  30.958  13.852
 6726W        W79052  34.377   3.755  12.086
 6727W        W79053   6.884   8.818   0.353
 6728W        W79054  22.740  32.921  12.060
 6729W        W79055  38.342  39.382   3.249
 6730W        W79056  42.930   5.795  11.552
 6731W        W79057  24.622  25.585  10.426
 6732W        W79058  43.482   4.902   2.221
 6733W        W79059   9.335  23.080  14.339
 6734W        W79060  11.633  27.957   4.157
 6735W        W79061  16.265  42.494  11.070
 6736W        W79062  34.389  31.941  14.884
 6737W        W79063  23.524   5.223   1.881
 6738W        W79064  44.790  36.949   3.366
 6739W        W79065  27.137  34.596  11.059
 6740W        W79066  44.802  10.740  12.947
 6741W        W79067  10.854  21.718   1.333
 6742W        W79068  22.234  35.996  13.959
 6743W        W79069  43.825   0.442  10.939
 6744W        W79070  17.140  41.337  13.509
 6745W        W79071  26.963  34.077  13.810
 6746W        W79072  23.021  43.944   3.148
 6747W        W79073  16.647   3.915   3.351
 6748W        W79074  10.704   9.239  12.947
 6749W        W79075  10.299  31.561   1.854
 6750W        W79076  25.687   2.932  13.542
 6751W        W79077  43.978  40.956   0.750
 6752W        W79078  28.435   7.720  11.400
 6753W        W79079  10.666  25.186  14.803
 6754W        W79080  40.853  29.112  13.521
 6755W        W79081  22.245  21.646  10.984
 6756W        W79082  37.996   6.331  14.828
 6757W        W79083  16.676  12.303   0.844
 6758W        W79084  36.028  12.207  10.054
 6759W        W79085  31.551   8.668   0.375
 6760W        W79086   1.416   5.916   4.127
 6761W        W79087   7.686  44.789   2.742
 6762W        W79088  17.275  29.920  14.425
 6763W        W79089  42.991  22.059   3.832
 6764W        W79090   0.831   3.829   4.691
 6765W        W79091  42.365  43.314   1.919
 6766W        W79092  15.207  33.486   1.811
 6767W        W79093  33.927  38.548  14.005
 6768W        W79094   4.756  39.486  11.903
 6769W        W79095  27.577  18.098   1.330
 6770W        W79096  11.674  44.940   2.415
 6771W        W79097   6.741  34.427   2.203
 6772W        W79098   2.765  31.510  14.298
 6773W        W79099  33.406   0.415   2.340
 6774W        W79100  21.025  19.114   3.849
 6775W        W79101  35.548  10.170   0.319
 6776W        W79102  28.100  33.567   0.314
 6777W        W79103  33.965  17.079  12.057
 6778W        W79104  42.414  33.577   3.264
 6779W        W79105  17.277  41.347   5.226
 6780W        W79106  40.913  16.109  12.984
 6781W        W79107  14.121  15.309  14.915
 6782W        W79108  44.502  18.719  11.561
 6783W        W79109  30.471  13.150  10.581
 6784W        W79110  10.172  13.719   4.782
 6785W        W79111  27.086  42.927  14.370
 6786W        W79112  28.489   1.891   0.933
 6787W        W79113  27.646  20.242   0.346
 6788W        W79114  16.645  10.345   1.280
 6789W        W79115   4.435  27.168  11.126
 6790W        W79116  33.103  20.559  11.112
 6791W        W79117  21.079   0.470   3.699
 6792W        W79118  24.646   9.821  14.462
 6793W        W79119  31.425  27.972   1.427
 6794W        W79120  25.014  37.386  11.536
 6795W        W79121  12.291  19.067  10.589
 6796W        W79122   4.715   1.898  13.444
 6797W        W79123  42.964  20.166  14.963
 6798W        W79124  43.313  42.885  11.373
 6799W        W79125  11.669  21.666   2.188
 6800W        W79126   7.876  13.743  10.628
 6801W        W79127   1.787  38.492   4.228
 6802W        W79128  28.472  29.149  11.437
 6803W        W79129  11.192   4.730  13.059
 6804W        W79130  24.973  33.050   2.891
 6805W        W79131  35.530  39.952  10.581
 6806W        W79132  23.687  33.067  13.841
 6807W        W79133  15.244  26.673  12.526
 6808W        W79134  14.132   4.430   3.176
 6809W        W79135   4.925  30.555  14.343
 6810W        W79136   6.323   5.237  14.444
 6811W        W79137  33.965   9.695   0.965
 6812W        W79138   6.411   5.829   4.681
 6813W        W79139   5.354  19.621  11.929
 6814W        W79140  39.357   3.727   1.908
 6815W        W79141   0.844  24.718   4.202
 6816W        W79142  32.940   7.381  14.798
 6817W        W79143  12.648  44.401   4.207
 6818W        W79144  29.166  15.786  11.997
 6819W        W79145  22.663   7.276   2.886
 6820W        W79146  31.598  19.225  14.403
 6821W        W79147  42.301  36.038  11.436
 6822W        W79148  19.656  21.131   1.213
 6823W        W79149  25.692   2.832  14.441
 6824W        W79150  27.033  14.830   3.368
 6825W        W79151   4.231  22.153  13.904
 6826W        W79152   4.343  13.292   2.715
 6827W        W79153  24.983   4.375   1.353
 6828W        W79154  11.334  26.044  11.442
 6829W        W79155  12.747  14.727   0.282
 6830W        W79156   4.311  42.323  14.374
 6831W        W79157  29.649  10.765  14.478
 6832W        W79158   7.847  25.136  13.543
 6833W        W79159  22.038  14.277  13.514
 6834W        W79160  39.969  31.564  11.392
 6835W        W79161   2.887  30.030  11.606
 6836W        W79162  18.155  43.280   0.750
 6837W        W79163  42.403  39.849  12.529
 6838W        W79164  25.470  42.486   3.721
 6839W        W79165  25.474  25.486   2.819
 6840W        W79166  24.696  23.573  14.841
 6841W        W79167   1.311  28.567   4.127
 6842W        W79168  44.296  36.476   3.174
 6843W        W79169  36.046   0.312   4.270
 6844W        W79170  22.613  16.607  13.836
 6845W        W79171  18.079  35.985   1.764
 6846W        W79172  10.248  17.204  10.481
 6847W        W79173  39.503  41.881  10.512
 6848W        W79174  41.330  18.159   3.792
 6849W        W79175  39.854  40.305  10.438
 6850W        W79176  29.029  25.658   4.299
 6851W        W79177  10.784   5.299  11.377
 6852W        W79178  31.914  28.485   3.848
 6853W        W79179  25.683  18.589  12.890
 6854W        W79180  18.723   6.690  12.406
 6855W        W79181   3.818   5.857   3.327
 6856W        W79182  36.945   6.884   4.212
 6857W        W79183  40.927   1.962   0.335
 6858W        W79184  18.577   6.873  14.347
 6859W        W79185  29.057  37.384  13.360
 6860W        W79186  22.126  23.212  14.364
 6861W        W79187  16.809  12.843   2.706
 6862W        W79188  42.781  22.649  11.373
 6863W        W79189  34.595  38.451   1.316
 6864W        W79190  35.369  39.515  12.870
 6865W        W79191  16.197  34.866  14.504
 6866W        W79192  26.646  27.197  10.947
 6867W        W79193  43.814  15.804  12.955
 6868W        W79194  40.893  11.742   2.215
 6869W        W79195   7.200  34.014   0.387
 6870W        W79196  21.534  34.015   3.791
 6871W        W79197  39.838   3.846  12.384
 6872W        W79198   7.414  26.997   4.833
 6873W        W79199  19.263  10.359  10.408
 6874W        W79200  12.362  40.047   1.222
 6875W        W79201  44.810  19.202   3.164
 6876W        W79202   7.891  15.786   2.315
 6877W        W79203  18.649  15.241   3.188
 6878W        W79204  23.108   5.759  14.801
 6879W        W79205  25.611   0.443  11.010
 6880W        W79206  21.198  39.922   2.319
 6881W        W79207  34.496   7.296  13.054
 6882W        W79208  25.978  17.668   4.175
 6883W        W79209  24.025  32.469   1.278
 6884W        W79210   8.311  27.079  10.888
 6885W        W79211  38.855   5.295   9.948
 6886W        W79212  22.607  42.496   2.715
 6887W        W79213   1.750  18.136   0.753
 6888W        W79214  23.489   5.810   1.705
 6889W        W79215   3.939   2.307   2.823
 6890W        W79216  41.324  19.106   1.837
 6891W        W79217   7.854  31.438   3.171
 6892W        W79218   4.748  12.718  11.901
 6893W        W79219  12.244  43.779  14.800
 6894W        W79220  13.626  26.578   5.211
 6895W        W79221   1.747   5.725   4.746
 6896W        W79222   4.852   1.481  12.870
 6897W        W79223  14.102  19.174   2.356
 6898W        W79224  30.147  26.524   3.352
 6899W        W79225   2.856  14.596  13.798
 6900W        W79226   5.250   3.901   1.695
 6901W        W79227  36.018  41.510   0.370
 6902W        W79228  16.266  12.248   4.603
 6903W        W79229  43.837  15.197  10.500
 6904W        W79230   1.864   1.940  13.980
 6905W        W79231   3.924   8.703  11.963
 6906W        W79232   8.721  36.053   3.763
 6907W        W79233  32.981  21.738   3.748
 6908W        W79234  24.215   4.766  11.482
 6909W        W79235  32.071  22.130   9.946
 6910W        W79236  28.553  34.917   3.730
 6911W        W79237  44.880  30.657  13.412
 6912W        W79238  42.465  13.787  10.973
 6913W        W79239  29.464  10.195  11.605
 6914W        W79240  25.205  13.323  13.859
 6915W        W79241  37.025  10.358   4.115
 6916W        W79242  41.417  26.956  12.447
 6917W        W79243  23.688  33.478   3.708
 6918W        W79244   1.903  44.773   1.785
 6919W        W79245   6.861  44.785  14.444
 6920W        W79246  22.537  43.272  10.030
 6921W        W79247  13.630  24.164   3.786
 6922W        W79248  17.099  24.574   2.680
 6923W        W79249  34.870  11.362  13.056
 6924W        W79250   3.271  30.452   1.308
 6925W        W79251  44.421  27.164   2.814
 6926W        W79252  23.027  21.646   1.746
 6927W        W79253  30.156  24.584  12.941
 6928W        W79254  44.010  18.672  13.510
 6929W        W79255  16.601  21.220   2.322
 6930W        W79256  36.380  34.413  13.409
 6931W        W79257   9.825  42.376   0.732
 6932W        W79258   2.829  28.588   1.434
 6933W        W79259  11.742  44.369  13.938
 6934W        W79260   8.680  31.539  13.860
 6935W        W79261  37.490  35.591   4.255
 6936W        W79262  13.727   6.825   2.745
 6937W        W79263  35.969  11.201   3.640
 6938W        W79264  13.164  39.454   3.359
 6939W        W79265  23.176  28.113  11.960
 6940W        W79266  36.992  34.007   2.684
 6941W        W79267  40.443  41.366  11.943
 6942W        W79268  27.614  29.089  12.483
 6943W        W79269  37.026  34.097   4.781
 6944W        W79270   2.254  16.296  13.376
 6945W        W79271  33.386  36.348  12.883
 6946W        W79272  24.089  32.468   3.334
 6947W        W79273   5.853  21.037  11.073
 6948W        W79274   5.337  42.001  12.862
 6949W        W79275  16.600  26.963   3.733
 6950W        W79276  38.490  10.795  14.511
 6951W        W79277  14.829  12.256  13.525
 6952W        W79278   9.364   3.269  11.899
 6953W        W79279  27.099  34.610   0.861
 6954W        W79280   2.923  37.004  12.398
 6955W        W79281  25.598  32.406   3.649
 6956W        W79282   1.312  18.202  11.876
 6957W        W79283  14.699  26.468  13.805
 6958W        W79284  23.708  20.102   0.773
 6959W        W79285  22.025  41.306  12.034
 6960W        W79286  29.651  11.622  11.518
 6961W        W79287  29.061  32.608  14.913
 6962W        W79288   0.924  39.832  13.493
 6963W        W79289  40.861  34.038   3.836
 6964W        W79290  11.194  22.124   4.800
 6965W        W79291  42.427  40.847  13.513
 6966W        W79292  19.747  16.170  10.989
 6967W        W79293   0.792  39.487  11.858
 6968W        W79294  16.631  15.083   4.783
 6969W        W79295  33.381  33.525  13.385
 6970W        W79296  16.101  29.619  14.009
 6971W        W79297   2.312  16.232   4.315
 6972W        W79298  40.047  27.050   4.822
 6973W        W79299  13.319  25.538  10.479
 6974W        W79300   8.779   2.803  10.630
 6975W        W79301   1.318   8.232  12.982
 6976W        W79302  12.700  44.910  12.371
 6977W        W79303   1.841  19.732   0.849
 6978W        W79304   0.462   2.736  10.927
 6979W        W79305  33.432  24.061  14.839
 6980W        W79306  20.139  40.382   2.409
 6981W        W79307  21.054   9.812   4.345
 6982W        W79308  24.169   8.854  10.108
 6983W        W79309  35.900  22.019  14.898
 6984W        W79310   0.489  38.537  12.353
 6985W        W79311  36.434   8.267  12.417
 6986W        W79312  40.469  33.921   2.662
 6987W        W79313  23.705  35.887   0.367
 6988W        W79314  17.233  36.054   0.409
 6989W        W79315   9.849  20.150   0.406
 6990W        W79316   3.314  21.543   3.660
 6991W        W79317  34.992  28.012   1.211
 6992W        W79318  29.142  33.422  14.766
 6993W        W79319  44.350  14.832   0.772
 6994W        W79320  17.261  12.260   3.182
 6995W        W79321  41.315   1.939   3.382
 6996W        W79322   8.272  17.694   1.343
 6997W        W79323   1.309  15.676   2.309
 6998W        W79324  33.876  23.183  12.028
 6999W        W79325  25.570   2.759   0.746
 7000W        W79326  44.408  12.793  12.948
 7001W        W79327  30.538   0.848   1.819
 7002W        W79328  18.131  12.145   1.306
 7003W        W79329  15.183  11.138   4.641
 7004W        W79330  44.883  33.399   4.635
 7005W        W79331  19.543  32.579  14.939
 7006W        W79332  26.006  30.647   1.447
 7007W        W79333  29.448  33.122  13.863
 7008W        W79334  33.950  12.653   3.199
 7009W        W79335  35.497  42.893  10.923
 7010W        W79336  31.503  38.469  13.404
 7011W        W79337   1.354  37.518   3.267
 7012W        W79338   8.399  27.156  12.980
 7013W        W79339  32.527  38.568   1.831
 7014W        W79340  22.015   4.866  10.923
 7015W        W79341   7.370  21.156  14.406
 7016W        W79342  40.003  17.605   1.891
 7017W        W79343  28.135  18.612  11.022
 7018W        W79344   3.949  35.474   2.285
 7019W        W79345  41.012  23.724  10.439
 7020W        W79346  27.053  18.272  11.511
 7021W        W79347  18.608  37.993  14.379
 7022W        W79348  25.608  30.913  13.327
 7023W        W79349  29.510  29.047   0.789
 7024W        W79350  36.446   9.752   3.721
 7025W        W79351  10.254   2.389  12.986
 7026W        W79352  39.357   6.776   4.823
 7027W        W79353  42.911  12.349   3.649
 7028W        W79354  32.947  16.679   4.265
 7029W        W79355  21.083  32.572   4.714
 7030W        W79356  25.628  27.967  12.518
 7031W        W79357  44.452  33.129   0.310
 7032W        W79358  40.335  26.606   4.218
 7033W        W79359  14.272  12.759   0.407
 7034W        W79360   4.348  20.624  10.536
 7035W        W79361  32.019  33.026  10.080
 7036W        W79362  19.759  43.408  13.430
 7037W        W79363  21.167  32.607   0.452
 7038W        W79364   3.846  35.932   4.159
 7039W        W79365  26.958   5.200   0.843
 7040W        W79366  34.456   6.355   1.440
 7041W        W79367   0.884  43.975  10.565
 7042W        W79368  12.639   9.285  13.387
 7043W        W79369  34.535  36.365  10.454
 7044W        W79370  13.828   9.304   3.257
 7045W        W79371  36.552   9.254   2.733
 7046W        W79372  22.527   0.890   9.963
 7047W        W79373   1.335  30.642  12.439
 7048W        W79374   8.824  35.579   0.410
 7049W        W79375  30.008   5.702   1.732
 7050W        W79376   6.791  15.669   2.817
 7051W        W79377   5.885  20.694  11.973
 7052W        W79378  18.115  41.031   4.695
 7053W        W79379  20.269  43.889   2.685
 7054W        W79380  18.547  35.392  12.030
 7055W        W79381   7.742  31.481  12.889
 7056W        W79382  35.579  41.337   1.727
 7057W        W79383  26.648  19.620   3.270
 7058W        W79384  29.991  28.030  11.528
 7059W        W79385  32.631   4.305   4.149
 7060W        W79386  22.076   7.176   1.831
 7061W        W79387  42.487  38.453  10.593
 7062W        W79388  34.114  28.623  13.467
 7063W        W79389  37.426  21.702   0.801
 7064W        W79390  22.218  20.588   1.312
 7065W        W79391   3.387  33.938  10.470
 7066W        W79392  27.017  16.307   1.398
 7067W        W79393  17.643  33.954   3.158
 7068W        W79394   8.223   2.440  14.861
 7069W        W79395  35.466   9.372  14.918
 7070W        W79396  13.692  16.751   4.171
 7071W        W79397  21.564  44.319   3.824
 7072W        W79398  14.792   3.319  14.902
 7073W        W79399  22.741  15.213   0.936
 7074W        W79400  12.660  39.531   1.823
 7075W        W79401  17.080  18.596  14.293
 7076W        W79402   7.765   0.275   3.235
 7077W        W79403   0.424  43.496   2.329
 7078W        W79404  37.432  31.958  10.042
 7079W        W79405  41.978   7.286   9.945
 7080W        W79406  18.676   0.944  10.493
 7081W        W79407  27.483  23.586  14.848
 7082W        W79408  16.072  24.094   0.777
 7083W        W79409  20.636  27.600  11.947
 7084W        W79410   3.441  24.990   1.840
 7085W        W79411  11.800  40.944   3.217
 7086W        W79412  19.741   5.777   0.247
 7087W        W79413   3.311  22.998  12.932
 7088W        W79414  24.125  11.676  13.421
 7089W        W79415   3.430  33.579   0.803
 7090W        W79416   5.427   7.180   1.708
 7091W        W79417  10.690   6.422   2.828
 7092W        W79418  18.053  11.831  10.563
 7093W        W79419  18.170  29.983   3.243
 7094W        W79420  16.179  10.277   2.687
 7095W        W79421  17.756   7.715   3.307
 7096W        W79422  27.482   6.869   2.318
 7097W        W79423   7.405  31.529  10.561
 7098W        W79424  43.801  25.699   0.243
 7099W        W79425  43.787  13.759   2.684
 7100W        W79426  16.092  31.125   2.227
 7101W        W79427  26.460   2.867  14.403
 7102W        W79428  39.846  13.779   1.715
 7103W        W79429  20.044  44.405   0.950
 7104W        W79430  29.967   4.305   2.747
 7105W        W79431  23.561   8.270  11.548
 7106W        W79432  26.689  25.546   3.773
 7107W        W79433  17.195  13.773  11.426
 7108W        W79434   3.424   3.916  14.431
 7109W        W79435  35.548  12.796   2.781
 7110W        W79436   7.697  22.152  12.362
 7111W        W79437  28.645  13.607  10.469
 7112W        W79438  20.071  33.025  14.401
 7113W        W79439  37.575  44.319  12.904
 7114W        W79440  44.457  29.612  14.011
 7115W        W79441  41.967  14.678  14.368
 7116W        W79442  16.790  34.894  14.833
 7117W        W79443  17.263   0.960   0.801
 7118W        W79444   8.813   1.790   1.395
 7119W        W79445  24.579  16.180  12.912
 7120W        W79446   5.913   8.386  12.391
 7121W        W79447  42.838  14.120  10.541
 7122W        W79448  32.478  38.379  13.511
 7123W        W79449  34.066   2.855   3.824
 7124W        W79450  19.594  27.599  11.424
 7125W        W79451  35.078   8.723   9.988
 7126W        W79452  34.966  30.534   1.805
 7127W        W79453   5.729   1.363  14.922
 7128W        W79454  12.743  42.791  11.856
 7129W        W79455  43.887  25.081   1.708
 7130W        W79456   2.884  27.591  11.975
 7131W        W79457  36.399  15.713   0.956
 7132W        W79458   4.327  42.282  10.957
 7133W        W79459  25.675  20.558  12.408
 7134W        W79460   7.196  25.140  10.532
 7135W        W79461  20.091  39.943  10.960
 7136W        W79462  11.211  12.662   1.272
 7137W        W79463  27.068  35.604  11.877
 7138W        W79464   0.774  15.681  14.455
 7139W        W79465  13.730   7.294   2.376
 7140W        W79466  15.249   3.757   0.369
 7141W        W79467  21.062   0.350   1.871
 7142W        W79468   8.286  12.121  13.490
 7143W        W79469  41.826  42.851  11.958
 7144W        W79470  18.606  26.007  13.797
 7145W        W79471  21.705  35.425  12.879
 7146W        W79472  42.796  31.985   4.654
 7147W        W79473  11.172  25.988  11.028
 7148W        W79474   8.259  28.949  14.000
 7149W        W79475  44.395  16.789   0.925
 7150W        W79476   3.879  14.646   1.306
 7151W        W79477   7.358  23.097  11.897
 7152W        W79478  34.512  27.112   1.766
 7153W        W79479  16.106   8.727   1.842
 7154W        W79480  10.148   1.776   5.277
 7155W        W79481  16.077  18.094   1.794
 7156W        W79482   0.372  41.941  13.004
 7157W        W79483   7.698   8.699  10.503
 7158W        W79484  16.098  25.980  13.936
 7159W        W79485  26.537  36.361  11.939
 7160W        W79486   1.392  24.123   2.201
 7161W        W79487  25.183  43.358   1.847
 7162W        W79488  30.115  36.551  12.511
 7163W        W79489  30.483  30.573  11.004
 7164W        W79490  23.984  31.648   3.319
 7165W        W79491   7.391  25.657  12.990
 7166W        W79492  36.089   4.390  12.575
 7167W        W79493  11.277  22.172   0.770
 7168W        W79494  18.789  30.573   1.915
 7169W        W79495   6.326  31.124   1.210
 7170W        W79496  42.824  42.483   0.733
 7171W        W79497  41.452  17.223  14.954
 7172W        W79498   7.221  39.336   3.637
 7173W        W79499  14.803  26.158   1.241
 7174W        W79500  41.995  13.243   0.255
 7175W        W79501   5.202  13.201  13.357
 7176W        W79502  44.324  14.792  10.586
 7177W        W79503   4.247  36.030   3.155
 7178W        W79504   8.240  30.430   4.670
 7179W        W79505  11.748   5.228  13.468
 7180W        W79506  26.458  24.711  12.518
 7181W        W79507   6.393  32.433  13.924
 7182W        W79508  37.383  13.735   5.145
 7183W        W79509  20.044  23.048   1.728
 7184W        W79510   9.245  39.021   1.715
 7185W        W79511   1.898  10.288   0.430
 7186W        W79512  14.678  21.579   3.371
 7187W        W79513  14.809  11.182   4.735
 7188W        W79514   7.261  41.412  12.961
 7189W        W79515   1.374   2.322  11.589
 7190W        W79516  31.072   2.844  12.894
 7191W        W79517  16.303  18.196   0.339
 7192W        W79518  13.137  32.458   4.622
 7193W        W79519   0.267  21.635   2.867
 7194W        W79520  18.084  36.005   1.330
 7195W        W79521   2.818  12.693  12.031
 7196W        W79522  13.140  15.132   2.183
 7197W        W79523  14.331  21.152  12.457
 7198W        W79524   0.861  37.028   4.725
 7199W        W79525  42.841  20.162   4.255
 7200W        W79526  40.411  22.192  12.388
 7201W        W79527  42.811  25.596  13.406
 7202W        W79528  22.019  41.990   1.256
 7203W        W79529  15.750   1.797  13.462
 7204W        W79530  26.958  14.761   2.841
 7205W        W79531  28.008  26.203   4.304
 7206W        W79532   9.265  34.890   2.209
 7207W        W79533  25.553  10.153  12.910
 7208W        W79534  13.830   2.419  11.930
 7209W        W79535  22.159  15.637  11.540
 7210W        W79536  10.730  12.633  11.583
 7211W        W79537  35.409  21.227  10.592
 7212W        W79538  41.940  21.212  14.923
 7213W        W79539  17.227  18.104   3.676
 7214W        W79540  19.771  32.444  12.428
 7215W        W79541   2.275  38.558   2.903
 7216W        W79542  16.627  42.305   3.362
 7217W        W79543  35.106  19.149   1.879
 7218W        W79544  36.966  30.040   3.206
 7219W        W79545  28.966  31.983   2.799
 7220W        W79546  32.936  34.590  10.554
 7221W        W79547  24.695  13.291   4.153
 7222W        W79548  28.171  36.940  11.509
 7223W        W79549  12.857   2.346   1.448
 7224W        W79550  38.996   8.400  14.984
 7225W        W79551  21.034  27.026   0.389
 7226W        W79552  17.652  38.440  13.842
 7227W        W79553   7.867  14.146   1.782
 7228W        W79554  22.124  10.249   2.890
 7229W        W79555  24.117  21.539  14.497
 7230W        W79556  31.434  22.594   4.757
 7231W        W79557  28.997  36.929  13.810
 7232W        W79558  31.027  14.595  14.413
 7233W        W79559  23.020  22.513   0.832
 7234W        W79560  21.599  16.258   3.695
 7235W        W79561  37.045  38.410  10.611
 7236W        W79562   7.855  39.493  12.945
 7237W        W79563  35.386  44.973   2.200
 7238W        W79564  12.856  28.958   3.823
 7239W        W79565  22.118  16.689   5.646
 7240W        W79566  16.104  43.893  14.337
 7241W        W79567  31.966  19.656   1.343
 7242W        W79568  17.304   7.734   1.286
 7243W        W79569   1.448  25.214   0.274
 7244W        W79570  32.619  35.028   1.364
 7245W        W79571   5.194  27.999   2.214
 7246W        W79572   3.387  18.688  12.542
 7247W        W79573  44.345  23.023   2.405
 7248W        W79574  15.731   1.885   0.336
 7249W        W79575  15.312  39.358  14.327
 7250W        W79576  35.500  32.140  12.830
 7251W        W79577  23.502  40.467  13.812
 7252W        W79578  28.613  14.816   0.821
 7253W        W79579  37.548  41.495   3.336
 7254W        W79580   3.316   3.385  11.873
 7255W        W79581  12.263  20.137  11.588
 7256W        W79582  36.054   6.202   2.393
 7257W        W79583   4.283  39.548  14.015
 7258W        W79584  41.922  30.603  12.406
 7259W        W79585  18.117  13.268  11.435
 7260W        W79586  20.765   9.836  13.012
 7261W        W79587  27.621  13.795   4.649
 7262W        W79588   4.256  37.048   1.236
 7263W        W79589  22.699  13.710   3.374
 7264W        W79590   1.797  12.192   2.369
 7265W        W79591  36.361  10.167   1.859
 7266W        W79592  29.493   0.820   5.314
 7267W        W79593   3.436   7.829  12.578
 7268W        W79594  11.823  41.392  14.779
 7269W        W79595  38.485  10.751   2.819
 7270W        W79596  16.730   6.841   1.434
 7271W        W79597  33.048  35.865  12.348
 7272W        W79598  44.834  43.878   1.335
 7273W        W79599  29.142  30.118   1.735
 7274W        W79600  18.281  34.096   4.653
 7275W        W79601  36.885  25.621   0.778
 7276W        W79602  27.453  42.893  11.968
 7277W        W79603  43.938   0.449  12.967
 7278W        W79604  12.788  33.876  11.927
 7279W        W79605   6.405  23.498   1.880
 7280W        W79606   6.785  31.011   4.191
 7281W        W79607  13.618   8.288   0.854
 7282W        W79608  28.607   0.263  14.975
 7283W        W79609   5.732  10.153  11.965
 7284W        W79610   6.287  37.358  14.415
 7285W        W79611  26.615  10.269   3.318
 7286W        W79612  15.688  29.615  13.389
 7287W        W79613   7.747   6.286  12.912
 7288W        W79614  33.428   9.390  10.437
 7289W        W79615   4.376  17.720  14.373
 7290W        W79616  27.146  14.167  14.314
 7291W        W79617  10.380   0.466  12.945
 7292W        W79618  26.681  27.162   5.744
 7293W        W79619  42.917  25.693  14.332
 7294W        W79620  24.671  27.092   4.221
 7295W        W79621  11.670   1.792  11.016
 7296W        W79622  35.563  36.497  11.955
 7297W        W79623   6.274  32.434   4.318
 7298W        W79624   6.861  13.303  12.919
 7299W        W79625   7.666   6.226   0.946
 7300W        W79626  15.755   3.233  13.434
 7301W        W79627   8.837  35.885   4.659
 7302W        W79628  13.641  34.613  12.553
 7303W        W79629  32.561   8.276  11.927
 7304W        W79630  10.282   9.883  11.571
 7305W        W79631   3.331  42.899  14.355
 7306W        W79632  32.069  26.682   2.681
 7307W        W79633  38.456   9.795   3.160
 7308W        W79634  33.931  19.099  10.583
 7309W        W79635  35.051  34.923  13.965
 7310W        W79636  42.965  38.453  14.826
 7311W        W79637  13.745  37.565   3.671
 7312W        W79638  19.673  20.199   0.836
 7313W        W79639  39.888  30.930   3.691
 7314W        W79640  44.915  31.452   0.463
 7315W        W79641  21.153  12.638   4.300
 7316W        W79642  11.327  26.514   3.690
 7317W        W79643  23.187  26.544   4.771
 7318W        W79644  30.484  24.143  11.371
 7319W        W79645  34.492  32.939  14.842
 7320W        W79646  12.623  23.071  13.494
 7321W        W79647  29.955   9.303   3.250
 7322W        W79648  40.472  28.479   0.375
 7323W        W79649  27.640  33.924   3.815
 7324W        W79650  40.509   4.894   0.318
 7325W        W79651  28.156  14.234   1.740
 7326W        W79652   0.365   2.396  13.843
 7327W        W79653  39.349  20.587   1.698
 7328W        W79654  18.166   3.845   0.306
 7329W        W79655   8.842  33.892   0.339
 7330W        W79656   3.864  22.139   9.605
 7331W        W79657  22.737  12.253  10.450
 7332W        W79658  29.009  32.023  12.568
 7333W        W79659   4.300  28.961   2.742
 7334W        W79660  15.136   1.351  11.479
 7335W        W79661  33.567  21.156   1.930
 7336W        W79662  16.680   1.743  12.402
 7337W        W79663  10.875  14.135  10.586
 7338W        W79664   9.160  17.074  13.040
 7339W        W79665   0.849  43.910  14.338
 7340W        W79666  35.078  37.055  10.926
 7341W        W79667   6.338  25.141  11.929
 7342W        W79668  29.471  20.555  10.609
 7343W        W79669  43.390  22.224   2.263
 7344W        W79670  19.181  11.840   3.718
 7345W        W79671  10.243  43.817   3.650
 7346W        W79672  25.545  42.985   1.809
 7347W        W79673  40.893  20.732   0.764
 7348W        W79674  23.021  42.820  14.421
 7349W        W79675  18.189  35.557  13.813
 7350W        W79676   2.948  39.392  13.043
 7351W        W79677   3.822   0.370   9.935
 7352W        W79678  27.169  35.450   1.900
 7353W        W79679  12.712   3.813   2.288
 7354W        W79680  42.859   3.406  12.460
 7355W        W79681   2.275  11.206   1.893
 7356W        W79682  20.270  26.006  14.375
 7357W        W79683  22.538  20.679   1.235
 7358W        W79684  26.034  35.469  12.553
 7359W        W79685  22.167  20.249  12.492
 7360W        W79686  27.950  35.480   1.236
 7361W        W79687  41.039  42.519  13.488
 7362W        W79688   0.259  22.640   9.611
 7363W        W79689  14.124  18.280  13.375
 7364W        W79690  15.719  39.032   3.338
 7365W        W79691  35.910  11.644   0.762
 7366W        W79692  15.636  42.877   2.298
 7367W        W79693  22.747  37.034  11.026
 7368W        W79694   2.832  16.256   3.696
 7369W        W79695  20.550  43.344  12.044
 7370W        W79696  13.808  39.057  11.495
 7371W        W79697  32.095   0.987  14.493
 7372W        W79698   7.371  24.664   1.270
 7373W        W79699  17.569  10.672  10.413
 7374W        W79700  44.372  24.555  12.834
 7375W        W79701  16.242  16.157   4.747
 7376W        W79702   5.225   8.333   3.201
 7377W        W79703  34.576   4.314  13.959
 7378W        W79704  28.562  24.074  14.342
 7379W        W79705  35.886  33.530   0.956
 7380W        W79706  31.063   1.796   2.191
 7381W        W79707  25.665  11.623  10.410
 7382W        W79708   3.443  36.421   0.821
 7383W        W79709  12.346  33.092   2.375
 7384W        W79710  21.519  34.605   2.812
 7385W        W79711  39.415  11.674  11.959
 7386W        W79712  34.997   6.399   1.718
 7387W        W79713   1.758   9.154   0.921
 7388W        W79714  14.749  34.607   9.590
 7389W        W79715   8.251  28.556  12.849
 7390W        W79716  29.009   0.982   0.335
 7391W        W79717   8.674  20.575  10.546
 7392W        W79718   2.422  22.079  11.375
 7393W        W79719  38.946  40.830   2.722
 7394W        W79720  21.656  41.431  14.923
 7395W        W79721  34.581  14.812  11.112
 7396W        W79722   2.863  33.900  14.361
 7397W        W79723   3.272  13.734  14.452
 7398W        W79724  35.416  28.453   0.904
 7399W        W79725  29.657  17.108  13.971
 7400W        W79726  15.697  36.483  11.497
 7401W        W79727  31.014  18.148  13.057
 7402W        W79728  16.613  29.061  10.995
 7403W        W79729   0.333   8.754  12.452
 7404W        W79730  25.638   2.240   0.746
 7405W        W79731   6.259  15.187  13.421
 7406W        W79732  11.153  23.672  10.598
 7407W        W79733   3.327  41.356  10.948
 7408W        W79734  17.156  43.399   4.834
 7409W        W79735  43.287  42.337   4.659
 7410W        W79736   7.228  18.668  13.454
 7411W        W79737  20.530  39.330  13.454
 7412W        W79738   3.349  34.575   4.127
 7413W        W79739  15.642  35.999   4.795
 7414W        W79740  32.113   0.406  10.121
 7415W        W79741  18.275  28.044   3.854
 7416W        W79742  24.225  29.036   4.815
 7417W        W79743   6.249  14.629   3.298
 7418W        W79744   6.352   2.402   4.639
 7419W        W79745   1.815   3.911  12.028
 7420W        W79746  37.476  35.405  14.461
 7421W        W79747   2.854  18.618  13.326
 7422W        W79748  21.232  24.544   4.145
 7423W        W79749   0.846  19.630  14.984
 7424W        W79750  44.840  43.949  10.582
 7425W        W79751  23.500  38.822  14.443
 7426W        W79752  29.019   5.408   3.860
 7427W        W79753  20.641  16.727  13.012
 7428W        W79754  15.750  17.585   3.154
 7429W        W79755   9.850  31.948   4.826
 7430W        W79756   3.870  42.851   1.294
 7431W        W79757  23.200  34.579  11.377
 7432W        W79758  34.908  35.044   2.832
 7433W        W79759  41.328   3.812   0.873
 7434W        W79760  16.755  37.402   3.663
 7435W        W79761  40.456  32.934   3.230
 7436W        W79762   3.952  13.681   3.241
 7437W        W79763  38.488  28.093  13.357
 7438W        W79764  43.349  34.602  11.600
 7439W        W79765  42.890  42.918  11.868
 7440W        W79766   1.465  25.055   4.777
 7441W        W79767  28.638  38.017  14.438
 7442W        W79768   7.294  29.960   0.820
 7443W        W79769  33.396  17.151   3.157
 7444W        W79770   2.774   5.309  11.612
 7445W        W79771  35.099  17.287   0.959
 7446W        W79772  35.056  43.011   2.806
 7447W        W79773  30.035   5.812  14.484
 7448W        W79774  13.269  43.415  13.819
 7449W        W79775  26.109  18.635  11.499
 7450W        W79776  35.067  41.318   4.621
 7451W        W79777  14.122  14.704   2.820
 7452W        W79778   2.881  43.859   1.407
 7453W        W79779  38.941  16.581  14.395
 7454W        W79780  12.660  29.045  11.873
 7455W        W79781  29.053   5.340   0.957
 7456W        W79782   9.162   0.941   1.372
 7457W        W79783  31.917  32.082  11.383
 7458W        W79784  33.467  19.616  10.587
 7459W        W79785  34.500  27.970   2.845
 7460W        W79786  40.527  30.640   2.285
 7461W        W79787  36.987   0.968  10.535
 7462W        W79788  32.405   0.976   4.791
 7463W        W79789  21.219   7.215  13.876
 7464W        W79790  10.282  34.988   1.884
 7465W        W79791  40.412  11.776  13.391
 7466W        W79792  18.250   1.269  12.365
 7467W        W79793  38.824  41.534   3.195
 7468W        W79794  29.949  37.887  11.456
 7469W        W79795  40.859  12.192   2.796
 7470W        W79796   5.719  19.139   2.397
 7471W        W79797   8.406  10.676   1.421
 7472W        W79798   6.250  29.070   2.846
 7473W        W79799  34.898   8.211   2.770
 7474W        W79800  11.666  40.537   4.153
 7475W        W79801  10.707  12.756   3.186
 7476W        W79802   5.732  30.919   4.171
 7477W        W79803   9.261  28.979  14.316
 7478W        W79804   5.337  39.886  12.499
 7479W        W79805  40.513   5.932  11.529
 7480W        W79806  44.286  22.186  11.453
 7481W        W79807  34.989   0.866  13.844
 7482W        W79808  22.606  43.786   3.151
 7483W        W79809  33.963  42.314  11.472
 7484W        W79810  11.685   0.965   5.271
 7485W        W79811  32.546  12.325  13.797
 7486W        W79812  20.072  21.724  10.493
 7487W        W79813  34.605  32.590  10.970
 7488W        W79814  12.298  38.566  10.546
 7489W        W79815   7.682  35.008  13.063
 7490W        W79816  18.756  23.674   2.259
 7491W        W79817  31.974  19.655   2.266
 7492W        W79818  18.270   5.381  11.977
 7493W        W79819   8.394  12.342  12.477
 7494W        W79820  25.521   4.291  12.574
 7495W        W79821  33.004  18.147   2.195
 7496W        W79822  42.294  20.745   3.868
 7497W        W79823  28.605  30.637  10.507
 7498W        W79824   6.221  25.038  11.452
 7499W        W79825  17.093   9.668  11.073
 7500W        W79826   0.275  10.274   0.955
 7501W        W79827   9.852  16.611  12.568
 7502W        W79828  42.914   0.988  12.342
 7503W        W79829  29.070  40.513  11.856
 7504W        W79830   7.874  35.456   1.446
 7505W        W79831  36.038  19.066  12.922
 7506W        W79832  30.634  35.404  13.311
 7507W        W79833  30.518  34.561  13.336
 7508W        W79834  16.141   4.262   2.819
 7509W        W79835  22.023  14.123   3.336
 7510W        W79836   2.403  29.449   0.273
 7511W        W79837  39.408  39.468   0.333
 7512W        W79838  21.716   3.461  11.909
 7513W        W79839  38.015   5.742   2.851
 7514W        W79840  10.309  27.160   5.194
 7515W        W79841  28.049  23.568  11.596
 7516W        W79842   9.176  41.932  12.942
 7517W        W79843  41.516  34.548  13.361
 7518W        W79844  29.471  26.567  14.286
 7519W        W79845  11.154  21.196  14.998
 7520W        W79846  19.185  35.587  13.360
 7521W        W79847  36.999  37.046   4.333
 7522W        W79848  27.634   5.341  10.538
 7523W        W79849  41.947  37.545  13.411
 7524W        W79850  21.587  28.095  10.918
 7525W        W79851  25.971  12.668   3.685
 7526W        W79852  33.002   5.290  13.830
 7527W        W79853  20.761  36.006  13.450
 7528W        W79854  44.446  18.725   4.121
 7529W        W79855  22.182   4.845   0.908
 7530W        W79856  31.001  38.883   0.739
 7531W        W79857  21.687  40.384  12.015
 7532W        W79858   1.363  43.817   1.844
 7533W        W79859  32.604   2.737  14.991
 7534W        W79860  15.721  32.933  11.421
 7535W        W79861   2.336  33.541  13.524
 7536W        W79862  41.806  32.914   4.719
 7537W        W79863  27.589   9.312  14.003
 7538W        W79864  17.582  16.240  13.047
 7539W        W79865  20.701  20.246  11.052
 7540W        W79866  26.106  15.301   9.985
 7541W        W79867  35.917  25.697  13.520
 7542W        W79868   4.210  38.029  10.522
 7543W        W79869   6.200   7.311   1.303
 7544W        W79870  43.371   7.333   3.283
 7545W        W79871  36.094   5.923  11.995
 7546W        W79872  41.514  24.094  11.961
 7547W        W79873   9.353  37.441  10.443
 7548W        W79874   4.759  21.621  10.918
 7549W        W79875  16.232   6.186  11.573
 7550W        W79876  18.221  30.930   4.242
 7551W        W79877  32.066   8.392  10.950
 7552W        W79878   3.412  38.455  13.982
 7553W        W79879   6.344  32.066   5.124
 7554W        W79880  37.893  43.856   1.892
 7555W        W79881  13.808  16.762  13.906
 7556W        W79882   3.832  24.212  10.026
 7557W        W79883  30.935  43.975  14.777
 7558W        W79884   9.750  31.590   1.217
 7559W        W79885   4.314  10.837   4.254
 7560W        W79886  33.421  10.696   2.313
 7561W        W79887  32.972   6.791  11.086
 7562W        W79888  38.926  10.714   1.912
 7563W        W79889  43.980  35.068  12.079
 7564W        W79890  21.651  26.524  12.390
 7565W        W79891  20.180  26.465  13.011
 7566W        W79892  44.469   8.710  11.073
 7567W        W79893  23.611  25.593   1.318
 7568W        W79894  37.559  28.460   1.290
 7569W        W79895  42.016  30.422   2.419
 7570W        W79896  40.942  22.136   1.751
 7571W        W79897  36.465  16.667   4.220
 7572W        W79898   0.848  19.703  13.923
 7573W        W79899  21.127  34.444  12.418
 7574W        W79900  42.323  33.977  13.914
 7575W        W79901  26.631  27.951  13.927
 7576W        W79902   1.284  22.575  12.908
 7577W        W79903   6.209  43.339   0.938
 7578W        W79904  30.521  24.569   4.219
 7579W        W79905  29.541  26.511   0.830
 7580W        W79906  35.558  44.299  13.018
 7581W        W79907  41.367   6.332  11.568
 7582W        W79908  36.488  19.220   1.696
 7583W        W79909  17.202  30.064  11.928
 7584W        W79910  23.581  13.151   0.298
 7585W        W79911   2.774  28.664  10.589
 7586W        W79912  26.540  26.108   9.952
 7587W        W79913  11.213   0.859   1.336
 7588W        W79914  44.410  17.595  11.040
 7589W        W79915  12.735  23.145  11.011
 7590W        W79916  23.634  29.581   2.763
 7591W        W79917   1.801  41.038   3.661
 7592W        W79918  37.973   9.760  12.829
 7593W        W79919  38.003  36.849  13.444
 7594W        W79920  42.401   5.838   1.270
 7595W        W79921  10.639  17.308   3.385
 7596W        W79922   7.820  18.235  10.439
 7597W        W79923  22.656  11.700   3.154
 7598W        W79924  41.892  36.525  12.506
 7599W        W79925  17.122  31.913   3.657
 7600W        W79926  15.761   5.763   2.692
 7601W        W79927  30.139  34.075   2.738
 7602W        W79928  39.388  33.530   3.335
 7603W        W79929   9.660  39.039  11.493
 7604W        W79930  33.437  16.745  13.009
 7605W        W79931  25.164  27.023  11.507
 7606W        W79932  11.230  32.987  10.557
 7607W        W79933  15.772  31.449  14.914
 7608W        W79934  41.472   5.394  11.516
 7609W        W79935  24.640  28.543   2.180
 7610W        W79936  23.571   4.739   3.342
 7611W        W79937  33.875  37.464   1.226
 7612W        W79938  29.558  11.777  14.936
 7613W        W79939  15.096   6.222   4.154
 7614W        W79940  31.970  22.025  14.994
 7615W        W79941  15.640  22.642   2.319
 7616W        W79942  17.292  33.091  12.972
 7617W        W79943  11.769   6.330  11.018
 7618W        W79944   7.849  26.177  14.466
 7619W        W79945  21.232  27.981   3.735
 7620W        W79946  17.793  32.568  11.602
 7621W        W79947  33.987  26.193  11.509
 7622W        W79948  39.822   2.331   0.758
 7623W        W79949   9.710   9.291  11.886
 7624W        W79950   8.787  12.225   4.614
 7625W        W79951  11.730   2.820   3.313
 7626W        W79952  34.487  16.189   0.802
 7627W        W79953  38.538  41.521  12.447
 7628W        W79954  31.605  38.398   2.355
 7629W        W79955   4.269  44.283   0.333
 7630W        W79956  10.851  32.520   4.335
 7631W        W79957   4.283  40.904  12.038
 7632W        W79958   7.684  35.515  14.844
 7633W        W79959   4.316  33.909  12.488
 7634W        W79960  41.361  37.451   3.851
 7635W        W79961  29.983  33.539  12.510
 7636W        W79962  18.184   1.953   1.233
 7637W        W79963  24.995  35.979   1.716
 7638W        W79964  38.984   5.248  13.822
 7639W        W79965  22.142  19.123  12.943
 7640W        W79966  32.010  39.011  13.958
 7641W        W79967  32.566   2.889   4.779
 7642W        W79968  33.999   2.946   1.438
 7643W        W79969  18.239  41.453  14.292
 7644W        W79970  37.517  28.527  13.894
 7645W        W79971  40.886  23.035  10.584
 7646W        W79972  33.563  42.493   1.383
 7647W        W79973  26.607  25.152  13.458
 7648W        W79974  18.150  37.054  12.395
 7649W        W79975  26.603  43.418  14.372
 7650W        W79976   6.847  11.729  11.535
 7651W        W79977  20.226  27.616  14.914
 7652W        W79978  24.560  31.998   1.819
 7653W        W79979  42.822  40.869  12.435
 7654W        W79980   2.958  11.769  11.998
 7655W        W79981  28.008  20.766  11.508
 7656W        W79982   6.389   5.365  13.482
 7657W        W79983   2.966  32.596  11.867
 7658W        W79984   9.654   5.362  12.551
 7659W        W79985  43.317  33.423   0.474
 7660W        W79986  34.934  42.398  13.931
 7661W        W79987   6.676  39.559   3.824
 7662W        W79988  28.605  25.170   4.122
 7663W        W79989   0.843  34.082   0.771
 7664W        W79990   9.755   1.790   3.682
 7665W        W79991  15.150  10.371  14.439
 7666W        W79992  29.115   2.765  11.394
 7667W        W79993  40.866  24.109  11.866
 7668W        W79994  36.415   6.757  10.498
 7669W        W79995   2.725   7.787   0.332
 7670W        W79996  37.400  42.842  14.929
 7671W        W79997  29.470   6.192  11.528
 7672W        W79998  10.838   2.434   1.770
 7673W        W79999  32.056   7.343   5.178
 7674W        W80000  44.843  43.930  11.516
 7675W        W80001  35.557  23.003   1.447
 7676W        W80002   2.963  35.913   0.475
 7677W        W80003  37.538   2.470  14.296
 7678W        W80004  23.554   5.264   0.842
 7679W        W80005  13.259  16.200   4.165
 7680W        W80006  31.502  14.805  13.307
 7681W        W80007  44.444   1.821   4.738
 7682W        W80008   5.876  18.260   1.281
 7683W        W80009  10.208   3.313  13.009
 7684W        W80010   4.247  27.133  13.963
 7685W        W80011  24.539   5.725   0.308
 7686W        W80012  10.634  31.096   3.162
 7687W        W80013   3.748  12.233   5.100
 7688W        W80014   3.857  39.478   1.880
 7689W        W80015  42.449  18.140  10.575
 7690W        W80016  31.153  12.669   4.635
 7691W        W80017  16.208   5.275   3.285
 7692W        W80018  16.803  20.045  14.006
 7693W        W80019  35.491   8.898  11.044
 7694W        W80020  14.811  20.144  12.477
 7695W        W80021  36.869  38.987   3.692
 7696W        W80022  29.091  10.819   1.811
 7697W        W80023  10.352  23.000  14.320
 7698W        W80024  15.729  22.076   3.351
 7699W        W80025  33.622  23.704  12.549
 7700W        W80026  30.515   2.855  13.851
 7701W        W80027  43.900  38.343  10.484
 7702W        W80028  27.977  29.520  12.500
 7703W        W80029  12.185  24.591   2.857
 7704W        W80030  10.699   5.233  14.869
 7705W        W80031  22.240  29.992   0.285
 7706W        W80032  34.937   0.942  13.448
 7707W        W80033  25.594  12.742  14.823
 7708W        W80034   3.323  36.564  14.438
 7709W        W80035  17.696  37.015   0.739
 7710W        W80036  27.046  23.613   4.160
 7711W        W80037  17.659  40.492  11.454
 7712W        W80038  42.972  38.456   0.796
 7713W        W80039  25.061   5.750   2.303
 7714W        W80040  13.229  26.139   9.927
 7715W        W80041  21.147  37.079  13.956
 7716W        W80042  42.830  35.426   1.868
 7717W        W80043   3.821   7.316   2.793
 7718W        W80044  28.985  19.284  12.511
 7719W        W80045   3.787  17.641   0.749
 7720W        W80046   1.300   9.325  14.460
 7721W        W80047  15.666  40.048   4.629
 7722W        W80048  26.511  26.520   9.970
 7723W        W80049   0.861   0.484   1.325
 7724W        W80050  43.851   0.277   4.753
 7725W        W80051   4.700  25.981  14.461
 7726W        W80052  36.048   7.830  11.439
 7727W        W80053   4.362  19.150  10.492
 7728W        W80054  28.500  34.093   3.826
 7729W        W80055  13.119  23.103   3.177
 7730W        W80056  23.134   6.860  10.951
 7731W        W80057  34.536  17.606   3.764
 7732W        W80058  44.373  34.512  12.497
 7733W        W80059   4.874  39.357   1.242
 7734W        W80060  13.306  23.508   0.405
 7735W        W80061  42.982   5.357  10.570
 7736W        W80062  36.579  10.742   5.239
 7737W        W80063   7.216   7.803   4.722
 7738W        W80064  40.827  35.374  13.856
 7739W        W80065  20.573  10.200   3.850
 7740W        W80066  18.675  42.895   4.298
 7741W        W80067  35.035  11.636  10.907
 7742W        W80068  37.890  30.544   4.177
 7743W        W80069  31.536  15.150   1.828
 7744W        W80070  40.934   5.406   0.932
 7745W        W80071  32.965  15.807  12.484
 7746W        W80072  41.869  41.325   1.329
 7747W        W80073   3.935  37.495  10.605
 7748W        W80074  39.054  17.647  13.316
 7749W        W80075  17.266  35.574   2.313
 7750W        W80076   5.849  41.933   3.369
 7751W        W80077  35.447   4.923   4.176
 7752W        W80078  40.500  15.259  14.853
 7753W        W80079   9.677  35.471  14.338
 7754W        W80080  17.220  20.739   4.731
 7755W        W80081  34.478   7.666   2.816
 7756W        W80082  23.087  26.168   0.773
 7757W        W80083  36.006   6.683   0.726
 7758W        W80084  37.494  14.774   1.343
 7759W        W80085  41.871  22.100   0.766
 7760W        W80086  40.860   5.736   4.827
 7761W        W80087  39.433   1.357   4.305
 7762W        W80088  14.713  43.306  12.036
 7763W        W80089  38.378  12.733  10.959
 7764W        W80090  34.543  32.448  12.466
 7765W        W80091  28.072   1.329   1.275
 7766W        W80092  12.143   6.345  12.908
 7767W        W80093  34.021  23.240   4.207
 7768W        W80094  13.147  43.398   1.776
 7769W        W80095  27.673  26.990  13.479
 7770W        W80096  38.486  19.143  10.440
 7771W        W80097  15.728   2.880  12.830
 7772W        W80098  20.727  25.467   2.780
 7773W        W80099  41.317  32.585  14.341
 7774W        W80100   6.720  12.216  11.597
 7775W        W80101  17.265  41.363   4.243
 7776W        W80102  43.515  11.861  10.974
 7777W        W80103   3.341   6.693   0.727
 7778W        W80104  41.309  27.690   2.181
 7779W        W80105  42.389  43.825   3.289
 7780W        W80106  29.461   3.242   0.392
 7781W        W80107  11.724   8.769  12.840
 7782W        W80108   2.765   6.900   2.406
 7783W        W80109  30.040  14.319   3.149
 7784W        W80110  28.100  13.832   2.201
 7785W        W80111   7.171  35.451  14.862
 7786W        W80112   1.292   4.793   1.316
 7787W        W80113  38.542  25.992   1.918
 7788W        W80114   7.756  40.351  13.873
 7789W        W80115  36.510  17.646   2.700
 7790W        W80116  33.068  19.701  11.460
 7791W        W80117  16.177  42.798   4.610
 7792W        W80118  38.896   0.368   3.767
 7793W        W80119  24.991  39.976   2.209
 7794W        W80120  22.044  14.612   2.270
 7795W        W80121   0.483  34.512   1.275
 7796W        W80122  30.555  30.999   0.416
 7797W        W80123  30.575   1.381  13.344
 7798W        W80124   3.220   5.418   1.438
 7799W        W80125   3.843  41.379  10.607
 7800W        W80126  18.061   3.915  12.082
 7801W        W80127  42.032  15.162   3.181
 7802W        W80128  13.289  23.241  13.443
 7803W        W80129   5.841   1.802   2.189
 7804W        W80130  42.481  15.263  14.981
 7805W        W80131  24.613  30.425   3.283
 7806W        W80132  44.299  11.702  13.370
 7807W        W80133   5.265  34.002  14.469
 7808W        W80134  32.583   3.415  14.780
 7809W        W80135  34.477  21.665  12.962
 7810W        W80136  16.178  27.157  14.766
 7811W        W80137  31.599  43.768  12.832
 7812W        W80138  38.821  26.124  13.388
 7813W        W80139   4.392   7.320   2.693
 7814W        W80140  18.164  31.148  12.917
 7815W        W80141  16.592  28.466  13.831
 7816W        W80142   6.756  32.096  12.560
 7817W        W80143  43.380  33.436  12.881
 7818W        W80144  29.611   8.763   4.151
 7819W        W80145  44.345   1.953  14.796
 7820W        W80146  19.150  44.476   0.854
 7821W        W80147  13.738  28.981  13.307
 7822W        W80148  40.549  12.737  13.434
 7823W        W80149  19.674  36.879   2.263
 7824W        W80150   8.320   6.903  14.477
 7825W        W80151  11.188   1.294  14.860
 7826W        W80152  39.324  42.451   4.190
 7827W        W80153  19.184   8.805   3.189
 7828W        W80154  33.930  40.828  14.816
 7829W        W80155   9.829   5.847  14.502
 7830W        W80156   0.480  44.315   0.850
 7831W        W80157  13.604  23.525   3.761
 7832W        W80158  36.069  15.782  13.936
 7833W        W80159  29.501  19.168   0.847
 7834W        W80160  10.799  39.837  14.393
 7835W        W80161  28.179  21.615  14.794
 7836W        W80162  32.078  25.588  14.924
 7837W        W80163   3.908   3.235   4.739
 7838W        W80164  24.051  24.559   2.891
 7839W        W80165  35.056  30.586  10.104
 7840W        W80166  20.590  19.776  14.818
 7841W        W80167  19.780  19.209   1.311
 7842W        W80168   5.915  35.581  11.517
 7843W        W80169  27.460  33.878  11.518
 7844W        W80170  13.338  41.963   1.379
 7845W        W80171   0.918  44.916  14.354
 7846W        W80172  40.996  16.612   1.928
 7847W        W80173  43.810  40.879   3.693
 7848W        W80174  36.553  31.463  12.980
 7849W        W80175   4.256   5.695   1.261
 7850W        W80176  43.324   9.810   1.744
 7851W        W80177  35.095  13.673  14.404
 7852W        W80178  27.949  26.170  14.787
 7853W        W80179  39.828  29.091   2.850
 7854W        W80180  27.496  18.776   0.339
 7855W        W80181  40.326  21.707  12.948
 7856W        W80182  36.946   0.451   1.824
 7857W        W80183  21.566  29.131   4.114
 7858W        W80184  42.848   7.284  12.436
 7859W        W80185  24.686  32.625   4.804
 7860W        W80186  39.407  34.613   1.828
 7861W        W80187  16.274   9.698   3.680
 7862W        W80188   1.380   9.208  13.369
 7863W        W80189  44.279  14.279  14.022
 7864W        W80190  24.659   4.306   2.851
 7865W        W80191  34.010  10.829   4.602
 7866W        W80192  11.372  27.637  13.360
 7867W        W80193  33.535   4.734  12.006
 7868W        W80194  25.003  31.933   0.384
 7869W        W80195  27.465  15.735   4.202
 7870W        W80196  17.625  16.294   3.311
 7871W        W80197  24.000   4.398   4.116
 7872W        W80198  16.726  44.903  11.039
 7873W        W80199  13.150  27.086   9.950
 7874W        W80200  11.844  32.114   5.206
 7875W        W80201  34.899  16.640   0.807
 7876W        W80202   3.836  18.651   4.275
 7877W        W80203  19.177  39.937  10.639
 7878W        W80204   6.725   9.865   4.338
 7879W        W80205  17.565  21.129   1.706
 7880W        W80206  20.238  41.393  13.812
 7881W        W80207  35.448   8.709  12.903
 7882W        W80208  12.622   3.306   4.200
 7883W        W80209  42.428  12.239  14.430
 7884W        W80210   8.677  39.458  13.980
 7885W        W80211   1.344  41.371  12.509
 7886W        W80212  17.177  35.863   5.269
 7887W        W80213  20.172   3.832  11.539
 7888W        W80214   2.431   0.334  11.920
 7889W        W80215  19.775   6.775  13.861
 7890W        W80216  38.475  17.303  10.535
 7891W        W80217  43.780  33.058   4.181
 7892W        W80218  43.970  17.168  12.898
 7893W        W80219   7.812  40.511  10.961
 7894W        W80220  32.058  16.108  14.024
 7895W        W80221   8.837  20.102  13.421
 7896W        W80222  15.706   8.350  14.018
 7897W        W80223  32.502  17.198   3.727
 7898W        W80224  15.298  28.628  10.640
 7899W        W80225  36.975  44.406  13.880
 7900W        W80226  44.300  39.962   2.197
 7901W        W80227  28.593  17.567  13.334
 7902W        W80228   8.319  33.014   4.269
 7903W        W80229   6.685  10.766  11.570
 7904W        W80230  17.704  35.077   3.829
 7905W        W80231  31.574  13.726   1.344
 7906W        W80232   2.783  15.632   0.851
 7907W        W80233  31.461   6.774  12.437
 7908W        W80234  21.540  41.948  11.564
 7909W        W80235  35.891  42.794  10.932
 7910W        W80236  29.982  42.297   0.261
 7911W        W80237  23.233   6.428   3.264
 7912W        W80238  13.264  36.026   0.482
 7913W        W80239   8.814  30.447   9.925
 7914W        W80240  27.639  20.175  11.891
 7915W        W80241  17.791   3.854  11.874
 7916W        W80242   7.670   8.829   5.285
 7917W        W80243  33.043  36.935   3.287
 7918W        W80244   1.974  22.243  12.408
 7919W        W80245  14.124   6.720  14.773
 7920W        W80246  36.992  33.383  12.888
 7921W        W80247  13.806  43.455   0.380
 7922W        W80248  13.659   0.462   4.793
 7923W        W80249  28.485  13.117  14.401
 7924W        W80250  12.725  22.550  10.483
 7925W        W80251   6.286  37.959   3.296
 7926W        W80252  35.065  42.339  14.390
 7927W        W80253  36.424  25.702   4.175
 7928W        W80254  20.079  41.365   0.315
 7929W        W80255  13.779  22.080   4.674
 7930W        W80256  42.406  34.867  11.569
 7931W        W80257  44.412  44.347  13.481
 7932W        W80258  13.197  37.012  13.520
 7933W        W80259  16.105  35.950  12.354
 7934W        W80260  15.115  44.914  11.948
 7935W        W80261   0.436  37.880  11.471
 7936W        W80262  17.160   3.774  10.906
 7937W        W80263   1.866  31.135  13.854
 7938W        W80264  34.971   8.244  10.621
 7939W        W80265  23.587  40.940   0.314
 7940W        W80266  11.705  28.614   2.850
 7941W        W80267   7.352  29.619  12.466
 7942W        W80268   8.791  31.126   5.280
 7943W        W80269  26.080  29.013  13.492
 7944W        W80270  23.636   1.419  14.320
 7945W        W80271   7.892  35.462   4.244
 7946W        W80272   0.307   9.303   0.294
 7947W        W80273  12.807  12.145  12.998
 7948W        W80274   2.743  31.058  14.887
 7949W        W80275  40.836   6.384   4.191
 7950W        W80276  34.420  23.514   1.741
 7951W        W80277   6.702  28.517   4.646
 7952W        W80278  38.455  20.074   4.711
 7953W        W80279  21.164   5.391   1.263
 7954W        W80280   1.829  39.449  12.435
 7955W        W80281  44.290  31.619   4.195
 7956W        W80282  22.176  11.307   0.321
 7957W        W80283  27.687  13.659  13.883
 7958W        W80284  25.687  16.262  10.138
 7959W        W80285  31.564  20.171  12.901
 7960W        W80286   8.815  35.970  10.612
 7961W        W80287  37.445  15.264  10.928
 7962W        W80288  12.803  42.426   0.818
 7963W        W80289  28.021   1.759  12.361
 7964W        W80290  15.112   6.906   4.689
 7965W        W80291  33.572  22.689  14.452
 7966W        W80292  30.000  23.593  10.468
 7967W        W80293  25.128  23.221  14.008
 7968W        W80294   9.158  34.006  10.890
 7969W        W80295  35.928  12.173   3.175
 7970W        W80296  24.555  37.474  12.890
 7971W        W80297  26.565   5.736  13.923
 7972W        W80298  13.742  34.965  13.520
 7973W        W80299   9.783   0.896   0.449
 7974W        W80300  17.577  11.760  10.973
 7975W        W80301   2.755  21.674   2.879
 7976W        W80302  12.818   7.898   0.963
 7977W        W80303  39.429  15.247  14.973
 7978W        W80304   5.305   5.711   0.318
 7979W        W80305  40.549  23.627  13.386
 7980W        W80306  33.081  34.421   0.814
 7981W        W80307  10.288  44.778   0.252
 7982W        W80308  24.520   6.215  12.545
 7983W        W80309  33.942  17.737   3.230
 7984W        W80310  25.539  21.560  14.968
 7985W        W80311  14.245  21.598  13.806
 7986W        W80312   9.382  28.581  10.588
 7987W        W80313  17.594  30.110   4.816
 7988W        W80314  18.195  37.524   1.880
 7989W        W80315   0.743   6.234  10.001
 7990W        W80316  32.531  17.145  10.123
 7991W        W80317  38.004  25.041   1.241
 7992W        W80318  40.401  26.539   2.891
 7993W        W80319  43.383  10.288  13.390
 7994W        W80320  33.554  25.507  12.982
 7995W        W80321   5.410  26.012   4.830
 7996W        W80322   2.373  23.086   2.210
 7997W        W80323  44.943  11.186   4.806
 7998W        W80324  35.490  11.670  14.476
 7999W        W80325  36.960  31.929  13.850
 8000W        W80326  36.005  22.130  12.435
 8001W        W80327   8.320  29.966   3.711
 8002W        W80328  13.141  36.574   4.682
 8003W        W80329   3.857  27.999   4.785
 8004W        W80330  12.737  26.480  14.853
 8005W        W80331   5.786  31.987  12.393
 8006W        W80332  26.995   2.332   2.840
 8007W        W80333  30.081   0.822  13.438
 8008W        W80334   1.263  38.944  10.465
 8009W        W80335  41.519  22.628   0.792
 8010W        W80336   4.424  22.542  11.998
 8011W        W80337  35.554  22.007   2.897
 8012W        W80338  40.820   4.759   3.769
 8013W        W80339  22.071   5.738   1.750
 8014W        W80340  44.391   1.477  14.458
 8015W        W80341   4.937  33.027  14.786
 8016W        W80342  16.663   7.228   2.375
 8017W        W80343  43.813  37.366  13.901
 8018W        W80344  20.227   0.919  13.846
 8019W        W80345  21.246   3.264  12.936
 8020W        W80346  35.014  22.734  10.068
 8021W        W80347   1.936   5.717  13.049
 8022W        W80348  24.560   4.308  11.535
 8023W        W80349   0.839  38.465   2.314
 8024W        W80350  22.654  36.908   3.652
 8025W        W80351  32.059   0.859   2.781
 8026W        W80352  16.209  26.069  12.879
 8027W        W80353   6.918   8.289   1.748
 8028W        W80354  30.953  14.155  10.551
 8029W        W80355  21.232   0.953  12.035
 8030W        W80356  37.045  25.564   1.872
 8031W        W80357  12.116  31.416  13.813
 8032W        W80358   8.771  25.619  14.966
 8033W        W80359   7.824   1.768  12.554
 8034W        W80360  44.892  16.131   0.420
 8035W        W80361  43.902   3.219   0.444
 8036W        W80362   7.872  14.811  10.617
 8037W        W80363   2.441   9.324  11.494
 8038W        W80364  24.170  43.491  12.005
 8039W        W80365  20.050  34.529  11.898
 8040W        W80366  44.908   4.826  14.026
 8041W        W80367   6.189   3.396  10.936
 8042W        W80368  18.189  21.210  13.426
 8043W        W80369   2.330   1.286   1.867
 8044W        W80370   3.388  42.928   0.439
 8045W        W80371  28.628  29.075   4.216
 8046W        W80372   2.472  26.690  12.077
 8047W        W80373   1.923  11.342  14.373
 8048W        W80374  40.870  37.992   2.389
 8049W        W80375  10.670   9.344   3.704
 8050W        W80376  27.094  38.846   4.284
 8051W        W80377  35.531  30.982  11.591
 8052W        W80378  13.753  24.165  13.343
 8053W        W80379  30.956  20.529   3.160
 8054W        W80380   2.798   7.733  13.363
 8055W        W80381  22.060  13.156   0.399
 8056W        W80382  33.625   6.202  13.355
 8057W        W80383  21.061  36.532  13.314
 8058W        W80384  35.388  18.150   4.724
 8059W        W80385  18.110  14.715   0.358
 8060W        W80386  10.821  44.323   4.114
 8061W        W80387  10.791  18.558  13.534
 8062W        W80388  10.758  40.318   3.222
 8063W        W80389   0.357   9.806   5.783
 8064W        W80390  38.439  41.296   4.816
 8065W        W80391  39.948  25.969   3.689
 8066W        W80392   5.687  21.684  13.870
 8067W        W80393  27.173  17.124   4.632
 8068W        W80394   9.365  26.667  10.075
 8069W        W80395  42.382  32.023  13.372
 8070W        W80396  26.657  29.072  11.607
 8071W        W80397  35.916  19.621  11.930
 8072W        W80398  26.570  42.489   3.699
 8073W        W80399  22.726  13.686   1.717
 8074W        W80400  13.681  38.545   4.191
 8075W        W80401   8.697  17.225  11.056
 8076W        W80402  34.955  23.195   2.779
 8077W        W80403  26.202  18.093   1.739
 8078W        W80404   1.263   2.910   1.729
 8079W        W80405  39.450  15.134  11.033
 8080W        W80406   8.405  37.391  13.528
 8081W        W80407  28.105  44.865  14.312
 8082W        W80408  20.044   4.761  10.141
 8083W        W80409  39.540  38.848  11.114
 8084W        W80410   5.891  22.612   2.748
 8085W        W80411  16.731  31.978   4.191
 8086W        W80412  25.001   3.771  14.002
 8087W        W80413  21.100  12.149  13.526
 8088W        W80414   4.898  37.078  10.026
 8089W        W80415  36.549  37.438  11.500
 8090W        W80416  35.998  23.693  11.469
 8091W        W80417  28.089  26.089  11.578
 8092W        W80418  15.311  20.083   2.763
 8093W        W80419  24.483   5.214   4.321
 8094W        W80420   4.943  32.589  13.419
 8095W        W80421   8.250  35.859   1.402
 8096W        W80422  19.090   9.858   4.754
 8097W        W80423  28.025  35.419   5.258
 8098W        W80424   5.254   6.389   0.957
 8099W        W80425  36.461   4.376   0.365
 8100W        W80426  23.565  14.198   4.233
 8101W        W80427  12.149  13.266  12.490
 8102W        W80428   8.182  16.179   2.212
 8103W        W80429  27.452  10.836  13.508
 8104W        W80430  42.409  12.813   1.287
 8105W        W80431  23.146  23.680  12.508
 8106W        W80432  31.902  35.018  13.487
 8107W        W80433  11.149  41.293  13.976
 8108W        W80434   8.765  38.907   5.197
 8109W        W80435  24.681  40.309   4.665
 8110W        W80436  30.956  27.496   3.151
 8111W        W80437  25.970   5.218  11.996
 8112W        W80438   6.351  33.118  12.415
 8113W        W80439  22.620   3.419  14.356
 8114W        W80440  31.450  44.463   2.187
 8115W        W80441  27.060   1.306  13.366
 8116W        W80442   9.841   0.930   3.171
 8117W        W80443  13.768  26.644  12.961
 8118W        W80444  31.515  13.741   4.230
 8119W        W80445  38.953   6.716  12.046
 8120W        W80446  17.123  29.970   1.753
 8121W        W80447  29.069  22.643  12.935
 8122W        W80448  12.657  39.047   1.849
 8123W        W80449   9.242   0.285   1.726
 8124W        W80450  25.965   3.948   3.802
 8125W        W80451  40.322   9.277  11.948
 8126W        W80452  27.194  36.860  11.904
 8127W        W80453   5.847  27.651   1.401
 8128W        W80454  17.142   3.451   2.862
 8129W        W80455   5.213   3.933   2.210
 8130W        W80456  15.657  28.110   0.378
 8131W        W80457   5.862  42.967  10.911
 8132W        W80458  24.519  38.955   4.622
 8133W        W80459  28.666  33.007   2.664
 8134W        W80460  33.002  44.904   1.727
 8135W        W80461  27.060  36.381  12.948
 8136W        W80462  29.609  11.355  11.575
 8137W        W80463  13.691  34.578  13.459
 8138W        W80464   3.903   5.326   4.795
 8139W        W80465  44.334  29.013   3.243
 8140W        W80466  44.294  23.507   3.210
 8141W        W80467  12.798  43.942  13.059
 8142W        W80468  20.593   0.873  12.826
 8143W        W80469  21.687  23.202   4.277
 8144W        W80470  18.171  40.376  13.459
 8145W        W80471  37.339  12.222  12.417
 8146W        W80472  24.082  35.928   9.928
 8147W        W80473  35.462   2.721   4.169
 8148W        W80474  25.071  16.304  14.882
 8149W        W80475  34.059  25.534  14.906
 8150W        W80476  39.391  34.867   3.199
 8151W        W80477  18.085  32.481  11.386
 8152W        W80478   1.339  24.632  11.089
 8153W        W80479   7.244   0.324  14.332
 8154W        W80480  42.960  16.193   2.746
 8155W        W80481  28.514  30.578   1.805
 8156W        W80482  11.842  10.216  12.359
 8157W        W80483   2.956  38.975  10.410
 8158W        W80484  39.944  37.893   1.283
 8159W        W80485  22.686  41.922  11.608
 8160W        W80486  28.151  39.359   4.610
 8161W        W80487  31.554  10.198  13.328
 8162W        W80488  20.242   2.341   1.919
 8163W        W80489  13.728  20.064  13.484
 8164W        W80490   0.788  23.526   5.257
 8165W        W80491  18.102   1.364  13.005
 8166W        W80492  12.261  41.305  12.537
 8167W        W80493  15.205  35.990   1.406
 8168W        W80494   3.403   7.832   2.766
 8169W        W80495   5.271  22.231   0.869
 8170W        W80496  17.555  25.664   1.706
 8171W        W80497  42.857  38.986  14.381
 8172W        W80498  33.922  29.569  14.275
 8173W        W80499  19.198   2.933  13.982
 8174W        W80500   8.883  14.258   0.773
 8175W        W80501  42.777   8.339  14.470
 8176W        W80502  23.698  40.401  12.541
 8177W        W80503  34.577  35.926   4.832
 8178W        W80504  16.115  10.272  13.489
 8179W        W80505   7.858  21.519  11.055
 8180W        W80506  12.267  24.714   3.355
 8181W        W80507  12.320  35.962   4.794
 8182W        W80508  31.491   5.201   4.147
 8183W        W80509   2.255  17.146  14.883
 8184W        W80510   8.872  25.071  10.958
 8185W        W80511  12.648  12.330  14.991
 8186W        W80512  39.413  42.358   2.713
 8187W        W80513  21.557  16.707   3.808
 8188W        W80514  30.478  44.906  14.759
 8189W        W80515  20.614  25.588  13.793
 8190W        W80516   5.819  35.890   3.716
 8191W        W80517   1.797  11.657   1.919
 8192W        W80518  20.226   4.311   4.169
 8193W        W80519  13.775  25.007  10.589
 8194W        W80520  35.521  23.502   4.160
 8195W        W80521  17.599  14.277   3.312
 8196W        W80522  36.423   0.911   0.470
 8197W        W80523  31.006  18.626  12.492
 8198W        W80524   3.334  37.400   2.741
 8199W        W80525  43.285   4.337  12.401
 8200W        W80526  41.492  41.014   2.708
 8201W        W80527  11.280  15.177  13.826
 8202W        W80528   5.391  32.078  12.549
 8203W        W80529  14.193  12.812  12.988
 8204W        W80530  23.179  11.168  13.363
 8205W        W80531  24.108   9.195  11.590
 8206W        W80532   0.951  12.704  13.820
 8207W        W80533  38.521  44.825   3.191
 8208W        W80534  21.199  12.765   3.735
 8209W        W80535  12.182   3.339   3.265
 8210W        W80536  17.758  38.927  11.871
 8211W        W80537   4.294  43.388  12.041
 8212W        W80538  25.008  15.781  12.904
 8213W        W80539   1.934  28.954   2.723
 8214W        W80540   1.876  14.592   4.305
 8215W        W80541  19.187  28.037  11.521
 8216W        W80542  13.830  14.597  12.473
 8217W        W80543  15.228  12.279   4.694
 8218W        W80544  31.133   1.769  12.435
 8219W        W80545   7.856  11.743  13.818
 8220W        W80546   2.873   5.205   4.820
 8221W        W80547  44.982  37.892  13.894
 8222W        W80548   9.840   8.254   3.194
 8223W        W80549  13.752  16.571   0.445
 8224W        W80550  10.769   3.817  13.325
 8225W        W80551  32.500  39.002  10.481
 8226W        W80552  18.203  42.902  14.803
 8227W        W80553  41.489   1.424  13.799
 8228W        W80554  27.451  26.643   0.847
 8229W        W80555  29.089  36.976   2.317
 8230W        W80556   1.328  34.497   4.171
 8231W        W80557  30.936  37.477   3.743
 8232W        W80558  42.858  24.480  13.005
 8233W        W80559  12.288   8.697   3.324
 8234W        W80560  10.381  42.407  13.507
 8235W        W80561  19.236   5.841   2.374
 8236W        W80562  41.320  43.503  12.579
 8237W        W80563  13.803   9.703   2.241
 8238W        W80564  32.396  31.500   2.351
 8239W        W80565  33.035  32.973  12.564
 8240W        W80566  11.234  16.598   3.255
 8241W        W80567  10.302  26.987   4.655
 8242W        W80568   6.759   4.865   0.366
 8243W        W80569   1.342   5.278   2.241
 8244W        W80570  25.578  10.242  14.455
 8245W        W80571  16.275  24.531  10.542
 8246W        W80572  20.135  27.005  13.318
 8247W        W80573  41.441  34.427  12.345
 8248W        W80574  36.541  33.953  10.412
 8249W        W80575  34.444   2.455   0.926
 8250W        W80576  29.935   6.822   4.323
 8251W        W80577   1.839  30.470  11.881
 8252W        W80578  37.842  29.142   0.268
 8253W        W80579  28.462  39.855   4.196
 8254W        W80580  37.487  41.006  10.602
 8255W        W80581  19.633  31.035   4.286
 8256W        W80582  29.630  20.552  11.990
 8257W        W80583  43.021  12.281   1.343
 8258W        W80584  15.100  26.589  13.335
 8259W        W80585  31.047  19.593  12.414
 8260W        W80586  38.895  36.524  13.416
 8261W        W80587  30.529   7.873   3.361
 8262W        W80588  26.582   4.262   3.375
 8263W        W80589   3.876  36.528   3.360
 8264W        W80590  44.965   5.248  12.529
 8265W        W80591  39.507   3.327   4.647
 8266W        W80592  15.731  26.546   4.289
 8267W        W80593  30.164   3.752   4.683
 8268W        W80594   5.423  35.977  11.104
 8269W        W80595  32.550   5.280   0.792
 8270W        W80596  17.185  29.008  12.564
 8271W        W80597   8.808  17.644  10.565
 8272W        W80598   8.835   3.215  12.095
 8273W        W80599  16.199  20.639  12.863
 8274W        W80600  20.769  24.536   2.265
 8275W        W80601  18.557  25.013   0.345
 8276W        W80602  35.057  18.203   2.213
 8277W        W80603  11.203  16.313  13.990
 8278W        W80604  20.647  44.502  11.398
 8279W        W80605  25.678  44.402   5.106
 8280W        W80606  13.274  17.290  11.390
 8281W        W80607  17.242   8.381   3.718
 8282W        W80608  41.945  17.560   4.603
 8283W        W80609  36.392  25.050  14.385
 8284W        W80610  10.192  37.382  11.472
 8285W        W80611  34.091  17.599  13.956
 8286W        W80612  42.001  40.953   2.187
 8287W        W80613  19.702  28.968  14.836
 8288W        W80614   1.370  30.479  12.835
 8289W        W80615  35.406  42.996  11.584
 8290W        W80616  23.606  42.409  12.350
 8291W        W80617  39.337  15.291  12.430
 8292W        W80618  29.614  39.357   4.113
 8293W        W80619  43.812  11.656  13.474
 8294W        W80620  33.465  29.618  10.908
 8295W        W80621  33.392  19.564  11.025
 8296W        W80622  28.593  39.000  12.949
 8297W        W80623   3.938  14.100   2.682
 8298W        W80624   5.829  24.633  10.620
 8299W        W80625  32.586   0.361   1.912
 8300W        W80626  28.173  21.211  14.938
 8301W        W80627  42.375  42.506  11.050
 8302W        W80628  38.540  36.586   4.204
 8303W        W80629  31.929  36.891   2.347
 8304W        W80630   0.337  34.982  11.598
 8305W        W80631  40.918  43.495   1.838
 8306W        W80632  22.236   1.286  13.368
 8307W        W80633   1.860  26.461  10.604
 8308W        W80634   8.233  24.545  11.921
 8309W        W80635   1.237  16.766   4.599
 8310W        W80636   4.796  41.810   3.744
 8311W        W80637   8.356  39.442  11.044
 8312W        W80638   0.321  29.632  12.925
 8313W        W80639  25.139  29.110   4.835
 8314W        W80640   1.763   6.318   0.421
 8315W        W80641  27.178   7.909  14.883
 8316W        W80642  35.109  13.348   0.827
 8317W        W80643  35.967  18.560  14.934
 8318W        W80644  43.959   9.168   2.220
 8319W        W80645  18.094  41.839   3.783
 8320W        W80646  31.441  31.089  11.512
 8321W        W80647  11.796  40.042  13.375
 8322W        W80648  19.233   6.265  11.115
 8323W        W80649  15.233  43.458  14.442
 8324W        W80650  25.177  17.619   3.175
 8325W        W80651  29.010  40.497   0.270
 8326W        W80652   1.419  13.836   1.326
 8327W        W80653  33.993   5.712  12.069
 8328W        W80654  27.125   5.806  13.422
 8329W        W80655   2.471  43.848   1.838
 8330W        W80656   2.963  20.701   5.593
 8331W        W80657   0.937  32.912   4.799
 8332W        W80658  41.517  16.077  11.477
 8333W        W80659  39.525   2.945   4.127
 8334W        W80660  33.889  12.227  12.483
 8335W        W80661  21.603   8.193   4.622
 8336W        W80662  27.029  17.759   2.682
 8337W        W80663  27.574  14.777  14.811
 8338W        W80664  18.737  18.651  14.977
 8339W        W80665   3.280  44.399   4.796
 8340W        W80666  27.529   0.775  12.915
 8341W        W80667  32.096   3.818   3.177
 8342W        W80668  25.185  42.828   1.410
 8343W        W80669  39.033  32.128  12.009
 8344W        W80670  19.235  30.656   1.331
 8345W        W80671  39.497  16.244  10.970
 8346W        W80672  41.814   7.182  13.981
 8347W        W80673  18.745  40.490   2.849
 8348W        W80674  18.746  28.155  12.344
 8349W        W80675  11.261  36.373  11.059
 8350W        W80676  24.510  17.774  13.793
 8351W        W80677  18.752   7.713  11.958
 8352W        W80678  34.990  22.184  14.874
 8353W        W80679  36.065  25.507   0.345
 8354W        W80680   7.772  26.025  12.869
 8355W        W80681  18.114  13.656  11.514
 8356W        W80682  40.363  40.535   4.778
 8357W        W80683  13.345  13.301  11.505
 8358W        W80684   6.787  13.691   1.414
 8359W        W80685   4.272  22.190  10.013
 8360W        W80686  33.501  23.037  11.059
 8361W        W80687  28.578  20.545  10.495
 8362W        W80688   4.712  21.622   0.849
 8363W        W80689   3.294  32.894  14.940
 8364W        W80690  35.942  42.833   2.408
 8365W        W80691  25.476  17.133   0.908
 8366W        W80692  43.837  20.145  12.440
 8367W        W80693  11.755  43.320   0.345
 8368W        W80694  25.124   6.715  13.362
 8369W        W80695  21.192  18.102   2.692
 8370W        W80696  17.153   9.204  11.028
 8371W        W80697  21.025  35.472  10.978
 8372W        W80698   8.229  35.537   4.315
 8373W        W80699   7.902   9.292  14.995
 8374W        W80700   6.823  17.216  12.826
 8375W        W80701  17.696  20.031   0.731
 8376W        W80702  11.814  42.427  13.047
 8377W        W80703  18.572  15.196   0.857
 8378W        W80704  32.142  17.668   5.124
 8379W        W80705   3.767  38.401  11.977
 8380W        W80706  34.023   5.254  10.541
 8381W        W80707  31.460   7.252   3.784
 8382W        W80708  15.790  30.087   3.386
 8383W        W80709  23.620  43.310  13.324
 8384W        W80710  14.730  11.787  11.869
 8385W        W80711  15.317  41.519   4.604
 8386W        W80712  33.105   1.948  13.490
 8387W        W80713  31.925  15.762   3.745
 8388W        W80714  27.119  10.737   4.174
 8389W        W80715  36.937   9.854  13.370
 8390W        W80716  10.728  31.468   1.343
 8391W        W80717   9.880  22.667   2.739
 8392W        W80718  41.016   8.866   5.308
 8393W        W80719  27.566   0.366   2.746
 8394W        W80720  15.163  18.554   3.335
 8395W        W80721  44.387  16.779  13.877
 8396W        W80722   7.214  42.371   2.264
 8397W        W80723  23.063  30.627  14.922
 8398W        W80724  44.478  41.973  13.447
 8399W        W80725  10.650   2.874  12.093
 8400W        W80726  12.242  28.640   0.321
 8401W        W80727   3.770  44.456   4.241
 8402W        W80728  36.551   9.308   0.378
 8403W        W80729   9.169  12.675  10.992
 8404W        W80730  36.476   4.415  14.479
 8405W        W80731  30.135  25.683  14.324
 8406W        W80732  26.025   0.376  11.555
 8407W        W80733  15.162  17.679   1.248
 8408W        W80734   0.478   9.289  13.406
 8409W        W80735  19.748   5.764   2.331
 8410W        W80736  30.080  20.555   1.261
 8411W        W80737  38.962  11.670  12.095
 8412W        W80738  21.112  31.974  10.491
 8413W        W80739  41.524  41.828  11.598
 8414W        W80740  36.960   9.738  12.574
 8415W        W80741   9.798  22.111  10.404
 8416W        W80742  24.097  38.381   4.835
 8417W        W80743  23.577  35.977   0.942
 8418W        W80744  12.839  26.522   1.268
 8419W        W80745  44.444  32.000   5.300
 8420W        W80746  34.875  14.301  14.814
 8421W        W80747  40.022  25.162   0.804
 8422W        W80748  36.552   8.275   2.283
 8423W        W80749  32.491  36.349  13.399
 8424W        W80750  14.832  41.841   3.848
 8425W        W80751  34.571  38.856   3.840
 8426W        W80752  41.481  42.807  12.852
 8427W        W80753  23.122  37.037  12.883
 8428W        W80754  27.675   8.657  12.859
 8429W        W80755  12.611  31.459  14.342
 8430W        W80756  32.525   0.465   1.323
 8431W        W80757  33.435  13.724   4.207
 8432W        W80758   4.295   1.249  10.556
 8433W        W80759  16.073  15.109   0.733
 8434W        W80760   1.779  10.681  12.387
 8435W        W80761  27.451   6.725  13.883
 8436W        W80762  17.073  30.100   0.393
 8437W        W80763  42.388  43.462  12.418
 8438W        W80764  20.733  44.455  10.923
 8439W        W80765   9.700  21.175   0.862
 8440W        W80766  37.957  39.917   3.721
 8441W        W80767   2.839  19.174   4.158
 8442W        W80768   1.790  38.535   4.778
 8443W        W80769   4.297  30.573   0.273
 8444W        W80770  22.560  37.066  10.511
 8445W        W80771  39.894  29.595   3.726
 8446W        W80772   8.263  12.852  10.537
 8447W        W80773  35.366  14.200  14.281
 8448W        W80774   9.877  28.975  14.803
 8449W        W80775  20.647  26.059  14.902
 8450W        W80776  31.511  35.026   3.147
 8451W        W80777  33.589  32.021  14.495
 8452W        W80778  17.798  14.779   0.733
 8453W        W80779  34.100  38.833  13.308
 8454W        W80780   1.972   4.743   4.718
 8455W        W80781  12.715   5.755  10.524
 8456W        W80782  44.503  19.559   4.795
 8457W        W80783  28.939  34.505  13.852
 8458W        W80784  26.551   0.419   3.657
 8459W        W80785  42.864  15.261   3.275
 8460W        W80786  30.476  33.131  13.857
 8461W        W80787  16.167  18.293   3.748
 8462W        W80788   7.904  41.821  12.014
 8463W        W80789   7.710  11.685   5.194
 8464W        W80790   4.711  36.907  10.489
 8465W        W80791  12.644  10.722   1.246
 8466W        W80792  39.468  11.666  11.488
 8467W        W80793  38.913   2.745   4.712
 8468W        W80794   1.743  16.755   0.343
 8469W        W80795  35.422  23.602  13.880
 8470W        W80796  39.839  42.344  10.968
 8471W        W80797  43.970  11.688   3.827
 8472W        W80798   4.208  14.758   0.383
 8473W        W80799  17.601  32.041  11.912
 8474W        W80800  42.290  42.807   2.261
 8475W        W80801  37.414  19.777   9.928
 8476W        W80802  27.040  15.776  12.537
 8477W        W80803   9.308  31.077  12.860
 8478W        W80804  11.301  34.371   5.210
 8479W        W80805  19.723  13.339   4.239
 8480W        W80806  12.826  18.096  11.497
 8481W        W80807  30.548  13.786   1.865
 8482W        W80808  44.400  29.103  11.995
 8483W        W80809   9.278  25.965  12.339
 8484W        W80810  17.258  25.468   0.795
 8485W        W80811   5.840  30.036   1.348
 8486W        W80812  39.911  17.150  13.029
 8487W        W80813   5.352  15.145   3.215
 8488W        W80814  24.173  13.291   0.766
 8489W        W80815  24.175  24.191   1.274
 8490W        W80816   5.779  34.893   0.837
 8491W        W80817  44.890  37.481   1.391
 8492W        W80818  12.231  16.073   4.254
 8493W        W80819  20.736  20.127   3.159
 8494W        W80820   2.824  18.771  12.533
 8495W        W80821  33.057  35.492   4.227
 8496W        W80822  27.560  27.088  14.463
 8497W        W80823  10.806  28.014  14.867
 8498W        W80824   4.433  11.648   0.478
 8499W        W80825  34.902  42.016  11.110
 8500W        W80826  17.116  43.916  14.435
 8501W        W80827  44.476  38.483  10.943
 8502W        W80828  25.665  30.035  13.876
 8503W        W80829   8.761  44.869  11.534
 8504W        W80830  41.976  27.606   0.293
 8505W        W80831  26.501  26.962  10.488
 8506W        W80832   3.843  22.242   5.702
 8507W        W80833  21.721   5.347   4.206
 8508W        W80834  34.371  24.185  11.569
 8509W        W80835  22.090  32.554  13.997
 8510W        W80836  25.606  27.992   0.780
 8511W        W80837  30.947   4.341   1.349
 8512W        W80838  44.307  22.557  12.342
 8513W        W80839  42.029  32.423   2.365
 8514W        W80840  28.673  31.411  11.491
 8515W        W80841  43.830  11.207  14.469
 8516W        W80842  32.097  22.055  12.378
 8517W        W80843  18.094  31.935  10.988
 8518W        W80844  14.716  15.100  11.509
 8519W        W80845  24.103  13.272   3.287
 8520W        W80846  19.099  27.096   4.152
 8521W        W80847   3.268  12.712  10.546
 8522W        W80848   3.751   1.762   5.100
 8523W        W80849  43.410  33.037   0.764
 8524W        W80850   4.381  28.649  10.464
 8525W        W80851  23.656  15.768  11.014
 8526W        W80852   3.302  39.337   2.414
 8527W        W80853  21.185  28.546  12.519
 8528W        W80854  33.887  14.238  13.994
 8529W        W80855  13.602  11.635  13.006
 8530W        W80856  36.376   9.227   3.266
 8531W        W80857  25.474  14.304  10.976
 8532W        W80858   1.818  31.989   4.742
 8533W        W80859   1.868  38.011  12.940
 8534W        W80860  38.978  16.230   0.414
 8535W        W80861  14.666  38.408  10.607
 8536W        W80862  31.499  28.621   3.784
 8537W        W80863  18.690  25.612  13.488
 8538W        W80864  22.177  26.672   4.277
 8539W        W80865  25.526  32.123   4.783
 8540W        W80866   6.756  18.107   4.699
 8541W        W80867  14.829  14.817   3.682
 8542W        W80868  43.324  27.971  11.944
 8543W        W80869  34.989  35.894  13.867
 8544W        W80870   0.434  31.022  11.525
 8545W        W80871   8.770   8.218   2.681
 8546W        W80872  31.540  30.618  11.109
 8547W        W80873  36.003   1.873  13.433
 8548W        W80874   9.160  34.018  11.567
 8549W        W80875   8.863  25.493   1.308
 8550W        W80876  24.607  40.307  10.473
 8551W        W80877  42.300   0.824  12.360
 8552W        W80878  14.652   0.953  11.371
 8553W        W80879   5.272   2.277   1.225
 8554W        W80880  27.192  40.406   0.253
 8555W        W80881  17.618  44.436   1.907
 8556W        W80882  17.619  15.127   1.273
 8557W        W80883  20.691   8.703   1.398
 8558W        W80884  28.550  36.874  13.969
 8559W        W80885  24.560   3.898   4.302
 8560W        W80886  30.918  37.444   2.179
 8561W        W80887  17.217  19.199   4.152
 8562W        W80888  35.898  26.578  10.462
 8563W        W80889  31.551  43.431   0.262
 8564W        W80890   1.868   3.744   2.804
 8565W        W80891   1.908  36.585   0.337
 8566W        W80892  44.335  16.084   0.744
 8567W        W80893  35.516  27.506  10.441
 8568W        W80894  33.390  24.225   4.140
 8569W        W80895   1.423   0.923  10.440
 8570W        W80896  31.127  44.847   2.201
 8571W        W80897  26.002  12.707  14.416
 8572W        W80898  27.951   2.374  13.432
 8573W        W80899   4.714   0.971  10.567
 8574W        W80900  13.670  20.084   0.403
 8575W        W80901  20.732   9.236  13.373
 8576W        W80902  40.360   9.849  11.471
 8577W        W80903  17.771  25.140   0.933
 8578W        W80904   6.709  20.645  12.036
 8579W        W80905  41.800   9.840  14.964
 8580W        W80906  40.841  10.178  13.896
 8581W        W80907   0.398  44.350   3.296
 8582W        W80908   9.879  28.444  14.011
 8583W        W80909  16.194  17.611  11.923
 8584W        W80910  11.256  32.047   4.609
 8585W        W80911  41.841  22.181   2.818
 8586W        W80912  21.119   8.394  11.926
 8587W        W80913   4.433  10.348  13.359
 8588W        W80914   3.947  32.562  11.464
 8589W        W80915  12.738   0.777   3.820
 8590W        W80916  44.262  18.099  10.006
 8591W        W80917   8.900  15.597  11.925
 8592W        W80918  25.210   9.309  13.043
 8593W        W80919  40.384  17.286   3.315
 8594W        W80920  22.646  43.354   4.153
 8595W        W80921  13.632  35.397   3.325
 8596W        W80922  44.452  35.087  13.003
 8597W        W80923  38.547   8.287  13.408
 8598W        W80924  30.543   7.270  13.929
 8599W        W80925   3.939  18.093  10.642
 8600W        W80926  38.870  32.942  13.473
 8601W        W80927  10.173   1.950   1.935
 8602W        W80928  36.397  20.758   0.252
 8603W        W80929   1.264  42.464  10.557
 8604W        W80930  39.826  17.603  11.873
 8605W        W80931  43.989  32.025  13.347
 8606W        W80932  27.120  27.113   1.259
 8607W        W80933  16.809  15.618  14.323
 8608W        W80934   6.422  14.639   0.428
 8609W        W80935   9.380  12.122   0.888
 8610W        W80936  38.901  28.583   1.398
 8611W        W80937  23.729   9.282   4.342
 8612W        W80938  31.031  31.906  10.480
 8613W        W80939  14.199   1.750  10.928
 8614W        W80940  22.235  43.957   2.673
 8615W        W80941  27.529  18.140  14.421
 8616W        W80942  34.415  24.166   3.363
 8617W        W80943   8.278  38.018   0.802
 8618W        W80944  13.260  14.734   0.795
 8619W        W80945   0.849  23.049   5.226
 8620W        W80946   6.357  18.740  13.944
 8621W        W80947  18.616  28.060  11.442
 8622W        W80948   0.921   9.652   1.749
 8623W        W80949   7.665  31.473  11.588
 8624W        W80950  41.989  39.874  13.900
 8625W        W80951  32.473  38.457  10.640
 8626W        W80952   9.759   6.372   0.480
 8627W        W80953  19.760  32.040  11.943
 8628W        W80954  37.901  42.446  11.432
 8629W        W80955  19.617  26.201  12.434
 8630W        W80956  34.540  11.834   0.341
 8631W        W80957  14.675  16.710   3.189
 8632W        W80958  35.900  14.190   1.396
 8633W        W80959  17.093  34.605   1.269
 8634W        W80960  35.917  42.935   3.660
 8635W        W80961  24.104  42.915   4.618
 8636W        W80962   4.378  21.614   1.303
 8637W        W80963  39.024   9.172   2.320
 8638W        W80964  10.722  14.764  12.948
 8639W        W80965  38.982  12.695  12.563
 8640W        W80966  33.548  20.212  12.953
 8641W        W80967  17.271   7.183  12.341
 8642W        W80968  14.112   8.871  10.567
 8643W        W80969   7.791   2.823   1.282
 8644W        W80970  25.669  17.591   4.790
 8645W        W80971   3.857  21.667  11.473
 8646W        W80972  20.682  19.776  12.513
 8647W        W80973  36.851  41.426  14.477
 8648W        W80974  12.178  19.751   3.663
 8649W        W80975   4.394  11.267   9.439
 8650W        W80976   6.360  22.636   0.248
 8651W        W80977  38.529   4.216  12.565
 8652W        W80978  25.697  18.715   1.350
 8653W        W80979  22.659  27.183  12.365
 8654W        W80980   5.370  35.553  11.474
 8655W        W80981   3.906  32.482   3.848
 8656W        W80982  35.029  12.145   3.250
 8657W        W80983  10.713  30.583   4.602
 8658W        W80984  28.156  27.979   9.930
 8659W        W80985   7.235  13.682   1.798
 8660W        W80986  30.960  17.798  10.474
 8661W        W80987  34.045  24.671   0.329
 8662W        W80988  15.626   3.731   2.198
 8663W        W80989   3.745  19.229  14.879
 8664W        W80990  13.838   8.853  13.343
 8665W        W80991  11.676  34.559   2.873
 8666W        W80992   1.738  23.525   5.707
 8667W        W80993  35.434  38.525  12.550
 8668W        W80994  10.344  17.237   3.691
 8669W        W80995  13.830  29.925   0.802
 8670W        W80996  39.814  44.765  12.971
 8671W        W80997  36.911  24.149  10.622
 8672W        W80998  21.672  26.122  11.416
 8673W        W80999  12.838   3.794   0.937
 8674W        W81000   8.790  10.301  11.460
 8675W        W81001   7.676  38.870   0.934
 8676W        W81002   9.846  33.935   3.216
 8677W        W81003  26.032  22.575   3.170
 8678W        W81004   1.743   7.249  14.031
 8679W        W81005  18.708  36.557  13.372
 8680W        W81006  22.712  18.660   0.266
 8681W        W81007  11.284  28.658   1.230
 8682W        W81008  10.718  14.717   0.874
 8683W        W81009  19.719   7.667  13.871
 8684W        W81010  32.574   8.729  10.988
 8685W        W81011  15.752   7.234   1.708
 8686W        W81012   0.776  15.192   3.312
 8687W        W81013  24.117  21.058   5.300
 8688W        W81014  14.746  12.339  10.614
 8689W        W81015  35.070  21.536   2.897
 8690W        W81016  16.299  20.588  13.858
 8691W        W81017  32.079  25.505   1.444
 8692W        W81018   5.206  43.778  11.045
 8693W        W81019  17.658  32.558  12.464
 8694W        W81020  37.535  27.664   0.403
 8695W        W81021  25.999  21.166  14.791
 8696W        W81022  20.063  40.882  14.317
 8697W        W81023  10.314  43.915   4.766
 8698W        W81024  25.476  18.693  12.349
 8699W        W81025   0.384  31.037  13.040
 8700W        W81026  41.889  35.855  14.013
 8701W        W81027   4.256  26.664  11.373
 8702W        W81028  41.938  33.566  14.501
 8703W        W81029  16.693   3.235  10.963
 8704W        W81030  10.730  28.967   2.675
 8705W        W81031  34.554  29.132   3.255
 8706W        W81032  15.708  37.897   4.261
 8707W        W81033  21.250  15.221   1.778
 8708W        W81034   6.293  31.984  11.556
 8709W        W81035  41.408  19.626   0.446
 8710W        W81036   5.726  35.085   1.768
 8711W        W81037  21.645  33.117  12.905
 8712W        W81038  31.564  43.974  14.367
 8713W        W81039  33.935  11.127   0.756
 8714W        W81040  21.096  36.362  12.986
 8715W        W81041  26.692  38.832   3.252
 8716W        W81042  30.501  22.667  12.061
 8717W        W81043  12.138  43.425  12.514
 8718W        W81044  37.518   1.742   0.308
 8719W        W81045  36.022  27.010  14.026
 8720W        W81046   1.954  34.984   0.933
 8721W        W81047   0.431  33.477  11.375
 8722W        W81048  44.405   3.766   5.107
 8723W        W81049  20.588  17.640   1.326
 8724W        W81050   6.782   3.406   4.246
 8725W        W81051  12.793  43.848   4.220
 8726W        W81052  17.723   0.897   1.234
 8727W        W81053  12.262   3.837   0.882
 8728W        W81054  24.055   7.810  14.502
 8729W        W81055   0.900  44.854   1.828
 8730W        W81056   1.445   2.412  13.907
 8731W        W81057   0.804  31.024  11.559
 8732W        W81058  35.369  26.551  12.980
 8733W        W81059  12.177  34.421  11.938
 8734W        W81060  19.745   6.733  14.323
 8735W        W81061   6.393  11.333  13.039
 8736W        W81062  15.225  27.062  13.035
 8737W        W81063  33.129  19.253   0.847
 8738W        W81064  12.774  40.444   3.634
 8739W        W81065  22.503  12.182   3.857
 8740W        W81066   8.665  19.181  10.616
 8741W        W81067  24.511  22.506   4.201
 8742W        W81068  27.633  12.668   3.827
 8743W        W81069  40.388  20.087   4.143
 8744W        W81070  40.019  33.875  14.450
 8745W        W81071  27.595  31.550  12.962
 8746W        W81072  37.880  28.435  11.081
 8747W        W81073  32.594   9.290  11.467
 8748W        W81074   0.982   2.934   1.929
 8749W        W81075  22.595  13.832   4.815
 8750W        W81076  36.858  13.225   5.156
 8751W        W81077  26.476  42.408   0.385
 8752W        W81078  19.226   2.310  14.383
 8753W        W81079  20.725  16.276   1.861
 8754W        W81080   4.783  28.473   0.915
 8755W        W81081  38.374  32.602   1.288
 8756W        W81082  19.663  20.618  11.942
 8757W        W81083  40.413  18.685   0.925
 8758W        W81084  18.289  41.484  12.093
 8759W        W81085   1.909  17.696  14.481
 8760W        W81086   5.794  10.638   4.141
 8761W        W81087  40.927  34.041   0.389
 8762W        W81088  22.568  22.078   1.759
 8763W        W81089  36.928   1.901  14.905
 8764W        W81090  37.562  14.132  11.126
 8765W        W81091  20.170  19.652   4.346
 8766W        W81092  38.404  25.709  13.372
 8767W        W81093  25.152  30.008  12.955
 8768W        W81094  36.886  21.607   2.804
 8769W        W81095   2.389  30.974  11.942
 8770W        W81096  31.500  37.062  13.799
 8771W        W81097  40.907   0.394  11.585
 8772W        W81098  15.237   3.894   3.151
 8773W        W81099  21.250  32.443  10.950
 8774W        W81100  11.645  39.895  10.143
 8775W        W81101  25.171   7.278  12.918
 8776W        W81102   0.474   3.826  14.026
 8777W        W81103  22.687  32.626   0.759
 8778W        W81104  12.755   3.236   2.280
 8779W        W81105  20.615   1.930   4.682
 8780W        W81106  10.363  12.268  11.072
 8781W        W81107  15.138  31.425   1.418
 8782W        W81108  30.998  18.177  10.440
 8783W        W81109   9.236  27.994   0.742
 8784W        W81110  31.958   8.736   3.261
 8785W        W81111  23.073   2.808  13.437
 8786W        W81112  44.842  15.748   9.942
 8787W        W81113   8.301  43.328   3.208
 8788W        W81114  30.947  18.745  10.614
 8789W        W81115  39.524   7.335   3.790
 8790W        W81116  40.537  15.297   2.719
 8791W        W81117  30.540   0.797  14.371
 8792W        W81118   4.254  38.562   2.271
 8793W        W81119  18.779  22.692   1.715
 8794W        W81120  26.625  41.482   2.760
 8795W        W81121  24.558  32.945  11.393
 8796W        W81122  31.476   9.880   3.355
 8797W        W81123  34.940  27.642  10.433
 8798W        W81124  19.091  23.067  13.492
 8799W        W81125  13.706  19.224  12.890
 8800W        W81126  35.587   8.899   3.365
 8801W        W81127  32.581  25.008   0.346
 8802W        W81128  43.924  31.456   0.846
 8803W        W81129  33.047  20.754   0.401
 8804W        W81130  31.936  43.911   3.305
 8805W        W81131  31.477  12.635   2.328
 8806W        W81132  13.722  44.406  10.643
 8807W        W81133  40.023  44.418  14.345
 8808W        W81134  10.384  28.562  13.423
 8809W        W81135  15.793  31.062   2.784
 8810W        W81136  44.917   1.882  12.058
 8811W        W81137  26.192   9.241   4.745
 8812W        W81138  34.958  34.610  13.835
 8813W        W81139  14.188  35.568  14.387
 8814W        W81140  11.705  20.564  10.567
 8815W        W81141  43.497   8.240   1.723
 8816W        W81142  24.551   9.370   2.762
 8817W        W81143   1.841  39.931   4.137
 8818W        W81144  27.516  32.998  11.882
 8819W        W81145  25.588   5.751   3.810
 8820W        W81146  43.396  40.888  14.443
 8821W        W81147   0.840   1.757  14.953
 8822W        W81148   6.782  30.929   4.777
 8823W        W81149  34.051   8.312  12.066
 8824W        W81150   7.784  19.153   2.295
 8825W        W81151  38.992  34.387   2.385
 8826W        W81152   4.408  12.783   2.360
 8827W        W81153   5.390  22.995  14.319
 8828W        W81154  24.206   5.412   2.203
 8829W        W81155  13.232  35.529   1.397
 8830W        W81156   0.470   4.701  12.498
 8831W        W81157  39.361  20.716   4.193
 8832W        W81158  36.446  28.167  11.895
 8833W        W81159  44.791  15.253   0.426
 8834W        W81160  39.361  28.609  10.562
 8835W        W81161  44.272  21.105  13.387
 8836W        W81162  18.701  41.844  11.031
 8837W        W81163  43.510  35.426  12.068
 8838W        W81164  37.482  24.102   5.215
 8839W        W81165  10.189  44.784   1.773
 8840W        W81166  11.660   7.262  13.498
 8841W        W81167  35.037   7.905  10.461
 8842W        W81168  43.861  38.351  12.875
 8843W        W81169   9.747   2.342   3.858
 8844W        W81170   6.776  12.247  10.626
 8845W        W81171  37.453  28.039  10.431
 8846W        W81172  14.273  27.057  14.960
 8847W        W81173  17.708   1.310  14.914
 8848W        W81174  42.016  26.123   1.803
 8849W        W81175  31.438  10.790   0.908
 8850W        W81176  35.961  36.367   4.613
 8851W        W81177   2.854  16.165  10.612
 8852W        W81178  15.719  31.134  13.319
 8853W        W81179  14.258  26.618   9.453
 8854W        W81180  23.029  13.179  13.843
 8855W        W81181  21.216  35.079   4.722
 8856W        W81182  37.839  29.599  10.923
 8857W        W81183  12.222  30.070   2.232
 8858W        W81184   2.927  27.136  11.895
 8859W        W81185  40.431  42.903  10.096
 8860W        W81186   7.741  13.153  10.644
 8861W        W81187  22.124  27.090  13.963
 8862W        W81188   8.309  22.501   1.426
 8863W        W81189  37.942   1.899  13.878
 8864W        W81190  22.998  18.767   0.964
 8865W        W81191  37.874  43.458  11.904
 8866W        W81192  27.072  41.400   4.222
 8867W        W81193  12.750   1.460   1.768
 8868W        W81194  41.524  33.422   2.852
 8869W        W81195  33.534   5.872  13.958
 8870W        W81196  44.405   0.965  14.397
 8871W        W81197  27.954  42.390   4.613
 8872W        W81198  15.590  23.036   4.765
 8873W        W81199  43.833  44.898   2.754
 8874W        W81200   6.296   9.339   2.366
 8875W        W81201  31.629  11.746  13.339
 8876W        W81202  14.309  23.177  14.500
 8877W        W81203  33.034  42.339  13.996
 8878W        W81204  21.594  38.526  14.439
 8879W        W81205  30.581  33.914   4.696
 8880W        W81206  39.976   8.250  13.021
 8881W        W81207  43.965  37.957  11.906
 8882W        W81208  40.841  18.733   1.757
 8883W        W81209  18.586  44.284   1.827
 8884W        W81210  28.522  10.844  13.823
 8885W        W81211  26.514  40.546   4.797
 8886W        W81212  12.218  24.697   2.297
 8887W        W81213  42.797  37.050   3.777
 8888W        W81214   3.252  28.154   5.231
 8889W        W81215  20.614   6.904  13.496
 8890W        W81216  23.553  29.664   0.812
 8891W        W81217  20.697  21.697  14.923
 8892W        W81218  23.142  41.524  13.853
 8893W        W81219  15.210  42.993   3.355
 8894W        W81220  41.980  29.535  10.525
 8895W        W81221   1.843   1.256  10.914
 8896W        W81222  27.564   4.899   2.701
 8897W        W81223  10.707  20.053  10.561
 8898W        W81224   9.838  30.444  11.380
 8899W        W81225  16.259  37.579   1.800
 8900W        W81226  29.987  20.048  12.899
 8901W        W81227  12.793  13.251  11.080
 8902W        W81228  29.119  23.178  14.455
 8903W        W81229  42.518  42.407   2.272
 8904W        W81230  12.692  36.574  12.392
 8905W        W81231  22.207   9.151  11.395
 8906W        W81232   3.285  28.520  11.941
 8907W        W81233  24.580  26.098   3.756
 8908W        W81234  15.662  41.002  12.829
 8909W        W81235  26.460  22.014   3.309
 8910W        W81236  23.581  32.474   2.327
 8911W        W81237   7.772  12.803   4.804
 8912W        W81238  29.483  12.163  13.519
 8913W        W81239  28.175  16.688   3.228
 8914W        W81240   8.200   4.342   3.703
 8915W        W81241  11.132  41.295   3.173
 8916W        W81242   6.818  23.241   4.678
 8917W        W81243   6.863  36.375   0.292
 8918W        W81244  27.479  18.172   2.760
 8919W        W81245  20.200  14.726   4.259
 8920W        W81246  30.462  17.209  13.058
 8921W        W81247   3.338  39.942  13.491
 8922W        W81248   9.807   0.453  11.082
 8923W        W81249  35.539  10.729   1.289
 8924W        W81250  30.658   7.840   3.791
 8925W        W81251  31.456   4.903   2.206
 8926W        W81252  38.528  22.511   4.750
 8927W        W81253   4.380  19.217  13.983
 8928W        W81254   7.287  24.002  10.504
 8929W        W81255   7.230  27.989   1.254
 8930W        W81256  38.962   3.850  13.830
 8931W        W81257   2.303  24.211  11.053
 8932W        W81258  11.194   3.751   4.207
 8933W        W81259   4.926  36.942   3.711
 8934W        W81260  31.588  26.027   0.357
 8935W        W81261   2.411  35.014   1.228
 8936W        W81262  37.877   2.804   3.292
 8937W        W81263  36.092  25.564  14.339
 8938W        W81264  27.171  28.122   9.649
 8939W        W81265  17.297  25.107   0.243
 8940W        W81266  34.103  22.197   4.210
 8941W        W81267  17.601   3.758   1.786
 8942W        W81268  24.124  15.648   5.308
 8943W        W81269   4.720  41.341   1.314
 8944W        W81270   3.228   0.908   1.876
 8945W        W81271  42.874  31.945   3.187
 8946W        W81272  44.281  39.007   4.327
 8947W        W81273  16.133  28.595   2.363
 8948W        W81274   8.367  44.409  12.458
 8949W        W81275   2.373  37.916  14.493
 8950W        W81276  26.488  30.650   2.342
 8951W        W81277  36.556   4.789   1.839
 8952W        W81278  38.009  31.141   4.268
 8953W        W81279  13.722  12.304   2.359
 8954W        W81280  26.086   6.883   4.299
 8955W        W81281   1.901  43.347  13.432
 8956W        W81282  13.614  26.058  14.909
 8957W        W81283  10.674  33.001  14.848
 8958W        W81284  34.441  25.491   1.934
 8959W        W81285  35.457  12.793   4.286
 8960W        W81286  15.199  34.421  11.546
 8961W        W81287  31.430  22.507   4.158
 8962W        W81288  43.927  11.129  12.016
 8963W        W81289  38.054  34.988   2.232
 8964W        W81290  32.558  28.518  12.952
 8965W        W81291  43.794   3.785  11.897
 8966W        W81292  34.944  15.271  13.040
 8967W        W81293  24.634  36.916   2.186
 8968W        W81294  38.837  12.823   2.396
 8969W        W81295  13.734  21.234   3.161
 8970W        W81296  12.792  28.593  13.312
 8971W        W81297  15.643   6.685  10.489
 8972W        W81298  24.496  31.417  11.120
 8973W        W81299  44.795   9.393   4.170
 8974W        W81300   4.933  33.594  12.448
 8975W        W81301  40.941   1.947   0.775
 8976W        W81302  35.855  23.556   2.340
 8977W        W81303  43.914  39.992  10.560
 8978W        W81304   3.901   9.158  13.976
 8979W        W81305  28.109  25.472  13.039
 8980W        W81306   7.225   1.414   0.804
 8981W        W81307  24.604  12.777   1.891
 8982W        W81308  36.519   0.842  10.900
 8983W        W81309  24.664  18.059   2.245
 8984W        W81310  20.695  42.281  12.547
 8985W        W81311  11.789  40.812   4.749
 8986W        W81312  38.018  42.935   0.343
 8987W        W81313  28.075  24.018   1.396
 8988W        W81314  16.621  33.412   3.369
 8989W        W81315  10.230  18.575  10.547
 8990W        W81316   8.785  12.210  12.064
 8991W        W81317   5.933   5.793   0.353
 8992W        W81318  22.686  43.776   1.897
 8993W        W81319  39.422   2.896   0.784
 8994W        W81320  24.633  27.487  13.925
 8995W        W81321  35.389  28.631   4.701
 8996W        W81322  13.695  25.115   2.778
 8997W        W81323  37.428  27.536  10.952
 8998W        W81324  14.140  19.133  13.897
 8999W        W81325  35.988  22.589   0.453
 9000W        W81326  13.258   9.889  12.369
 9001W        W81327  15.090  26.003   2.717
 9002W        W81328  27.015   3.294   2.276
 9003W        W81329  40.930  31.485  14.302
 9004W        W81330  34.069  29.175  13.800
 9005W        W81331  25.514  33.104  11.101
 9006W        W81332  19.253  15.253  14.966
 9007W        W81333   9.260  10.665  10.922
 9008W        W81334   5.759  25.685  12.979
 9009W        W81335  33.017  23.603  11.590
 9010W        W81336   3.767  28.533   3.814
 9011W        W81337   2.237  14.731   2.863
 9012W        W81338   7.899  13.669   3.363
 9013W        W81339  18.562  22.631  14.892
 9014W        W81340  21.706  25.995  13.465
 9015W        W81341  35.396  44.958  14.980
 9016W        W81342  37.858   4.945  12.853
 9017W        W81343  37.438  27.988  14.816
 9018W        W81344  32.483   1.761   4.747
 9019W        W81345  31.578   3.218   2.258
 9020W        W81346  36.033  23.984   5.083
 9021W        W81347  21.140  39.004  14.368
 9022W        W81348   3.922  22.562  10.474
 9023W        W81349  30.154  26.116  12.942
 9024W        W81350   8.785  19.271   2.684
 9025W        W81351  19.621  18.134   3.224
 9026W        W81352  42.491  39.484   3.750
 9027W        W81353   0.822  36.500   4.711
 9028W        W81354  32.471  31.641   4.699
 9029W        W81355  18.771   4.347   1.747
 9030W        W81356  36.464  20.098   2.885
 9031W        W81357  18.789  44.882   0.421
 9032W        W81358  26.508  34.003   0.316
 9033W        W81359  38.524  31.594   1.245
 9034W        W81360  21.257  42.979  13.351
 9035W        W81361   1.305   5.372  11.893
 9036W        W81362  14.171   2.268   3.815
 9037W        W81363  22.613   9.863  14.775
 9038W        W81364  24.624   5.434   3.321
 9039W        W81365  22.134  24.020  12.942
 9040W        W81366  26.472  26.992  10.135
 9041W        W81367   8.240  25.117  11.097
 9042W        W81368  28.498  23.124  14.440
 9043W        W81369  31.404  22.066   4.169
 9044W        W81370   3.288  21.643  14.785
 9045W        W81371   5.783  16.107  12.976
 9046W        W81372  26.676  40.430   0.787
 9047W        W81373  20.538  42.787   3.208
 9048W        W81374  37.838  16.713   4.130
 9049W        W81375   0.339  31.967   2.740
 9050W        W81376  26.957  43.791  12.349
 9051W        W81377  29.633   2.251   4.710
 9052W        W81378   1.378   1.891   1.320
 9053W        W81379   6.705  19.136  14.910
 9054W        W81380  13.638  11.302   3.771
 9055W        W81381   7.685  29.666   1.444
 9056W        W81382  34.057  41.816  12.367
 9057W        W81383   5.245  41.519  10.923
 9058W        W81384  22.527  38.841   4.127
 9059W        W81385  20.203  26.077  14.810
 9060W        W81386  24.725  29.106  12.080
 9061W        W81387   7.400  24.710   0.472
 9062W        W81388  40.031  44.272   0.317
 9063W        W81389   0.487  41.292   0.398
 9064W        W81390   4.257   5.229  12.508
 9065W        W81391  12.794  17.186   1.821
 9066W        W81392  39.017  39.999  14.289
 9067W        W81393  20.608   3.444   1.446
 9068W        W81394  40.467   5.247  10.602
 9069W        W81395   0.389  31.639   0.736
 9070W        W81396  39.837   8.271   0.859
 9071W        W81397  23.208  20.559   0.311
 9072W        W81398  22.632  35.577  11.491
 9073W        W81399  36.980  12.326  11.372
 9074W        W81400  42.396  22.999   0.302
 9075W        W81401  32.598  39.844  13.902
 9076W        W81402  43.835  43.837   3.266
 9077W        W81403  31.089  36.578  13.063
 9078W        W81404  31.918  18.174  13.483
 9079W        W81405  37.523  10.647  14.337
 9080W        W81406  15.256  21.573   4.307
 9081W        W81407  35.985  33.020  14.316
 9082W        W81408   1.800  43.927  11.940
 9083W        W81409  13.604  30.123  10.449
 9084W        W81410  15.197   1.742  10.510
 9085W        W81411  13.285  43.431   0.325
 9086W        W81412  25.979  11.318   2.743
 9087W        W81413  22.586  15.146  12.022
 9088W        W81414   5.259  10.341   4.830
 9089W        W81415  32.075   0.858  10.462
 9090W        W81416  26.623  34.027   3.849
 9091W        W81417  20.743  32.626   0.471
 9092W        W81418  13.730   4.343   0.903
 9093W        W81419   1.848  34.120   4.618
 9094W        W81420  21.611  15.320   0.426
 9095W        W81421  11.774  13.318   3.633
 9096W        W81422  37.906  38.022   2.332
 9097W        W81423  29.436   0.286   1.305
 9098W        W81424  15.176   1.961  14.516
 9099W        W81425  19.593  17.117  13.546
 9100W        W81426  23.100  16.131   2.394
 9101W        W81427  26.499   5.815  11.933
 9102W        W81428   3.402  17.300   3.750
 9103W        W81429  26.959   4.806  14.481
 9104W        W81430  15.154  32.590  11.554
 9105W        W81431  31.049   2.936   4.752
 9106W        W81432   8.866  29.572  12.354
 9107W        W81433   4.447  13.767   0.817
 9108W        W81434  31.071  15.698   0.287
 9109W        W81435  31.056  44.873   4.288
 9110W        W81436  34.553  28.553   0.418
 9111W        W81437   4.732  11.332   4.148
 9112W        W81438  37.063  22.107   3.314
 9113W        W81439  20.199  30.060  12.555
 9114W        W81440   3.294   9.256  14.301
 9115W        W81441   6.856   1.860  14.277
 9116W        W81442  27.567   5.722  12.946
 9117W        W81443  34.117  33.597   5.611
 9118W        W81444  18.119  33.467  13.994
 9119W        W81445  32.008  23.036  12.047
 9120W        W81446  23.037   3.878  13.466
 9121W        W81447   1.903   1.831   4.206
 9122W        W81448  26.081  34.582   4.283
 9123W        W81449  42.895  44.278  10.625
 9124W        W81450  15.274  29.578   1.775
 9125W        W81451  20.126  37.368  14.355
 9126W        W81452  23.077  31.452  11.939
 9127W        W81453  36.426  16.248   0.263
 9128W        W81454  44.441  29.123   1.423
 9129W        W81455  26.153  11.300   4.354
 9130W        W81456  20.182  43.485  14.967
 9131W        W81457   6.345   7.775  12.536
 9132W        W81458   2.234   1.441  14.463
 9133W        W81459  19.763   7.312   4.206
 9134W        W81460  30.952  17.625   1.770
 9135W        W81461  35.933  12.657  14.764
 9136W        W81462  15.126  24.224   3.812
 9137W        W81463   0.395  17.792   0.757
 9138W        W81464  22.119   3.882   2.840
 9139W        W81465  44.870  18.786   4.821
 9140W        W81466  18.066  34.926  12.916
 9141W        W81467   3.761  26.994  12.406
 9142W        W81468  24.550  17.679  14.382
 9143W        W81469  19.656  19.602  13.897
 9144W        W81470   4.227  29.540   3.726
 9145W        W81471   7.797  24.990  12.506
 9146W        W81472  42.844  21.214  11.970
 9147W        W81473  24.111  13.344   0.410
 9148W        W81474  40.524  43.291   4.779
 9149W        W81475  30.144  12.671   1.868
 9150W        W81476  35.879  37.882   4.707
 9151W        W81477  35.088  36.091   2.263
 9152W        W81478  36.588   3.226  13.987
 9153W        W81479  11.751  29.623  12.427
 9154W        W81480   7.881  43.498   3.845
 9155W        W81481  36.058  13.810  11.085
 9156W        W81482  34.876   8.266  11.426
 9157W        W81483  38.029   5.888  11.528
 9158W        W81484  22.687  20.620   0.728
 9159W        W81485  42.828   0.800  11.599
 9160W        W81486  15.652   6.733   2.836
 9161W        W81487  32.560  30.114  13.313
 9162W        W81488   2.800  23.988   1.240
 9163W        W81489  30.963  18.622  11.933
 9164W        W81490  44.395  19.174   5.207
 9165W        W81491  16.113   5.414   1.340
 9166W        W81492  32.555   9.163  12.524
 9167W        W81493  17.782  38.048   3.357
 9168W        W81494  20.063   7.759  14.779
 9169W        W81495  42.884  11.265   3.847
 9170W        W81496   4.705   8.279   3.640
 9171W        W81497  36.551  23.162  14.511
 9172W        W81498   8.826  30.625  14.827
 9173W        W81499  39.021  25.150   5.293
 9174W        W81500  36.426  29.118  13.365
 9175W        W81501  30.486  23.064  14.314
 9176W        W81502  29.000  23.023  12.963
 9177W        W81503  17.720  17.674   1.316
 9178W        W81504  13.654  20.061   4.226
 9179W        W81505   5.750  42.823  12.072
 9180W        W81506  20.714  22.713   1.445
 9181W        W81507   5.425   4.759  10.888
 9182W        W81508  27.011  24.118  11.966
 9183W        W81509  10.228  11.699  10.093
 9184W        W81510  29.485  27.065  11.600
 9185W        W81511  39.335   2.924  11.895
 9186W        W81512  36.442   6.308  11.553
 9187W        W81513   1.922  44.949   1.330
 9188W        W81514  23.558   6.878   4.318
 9189W        W81515  29.498  13.270   2.200
 9190W        W81516  30.028  26.138   1.372
 9191W        W81517  37.900  25.604  11.599
 9192W        W81518  11.715  19.083   4.816
 9193W        W81519  19.715  41.946  11.585
 9194W        W81520  32.028  30.559   4.728
 9195W        W81521  42.943  28.096  12.543
 9196W        W81522   2.370  44.354   2.225
 9197W        W81523  14.679  44.959   4.216
 9198W        W81524  39.466  40.859   3.695
 9199W        W81525  19.671  17.567  12.046
 9200W        W81526  42.824  18.782  13.025
 9201W        W81527   2.459  23.214  13.896
 9202W        W81528  42.478   0.842  10.612
 9203W        W81529  20.536  38.966   4.784
 9204W        W81530  32.142   1.820   4.648
 9205W        W81531   9.215  34.005   0.443
 9206W        W81532  42.004  10.215   1.249
 9207W        W81533  35.001  27.943   4.197
 9208W        W81534   2.329  20.581  12.917
 9209W        W81535   2.768   1.900  12.565
 9210W        W81536  33.615  25.705  13.311
 9211W        W81537  40.323  17.142  13.907
 9212W        W81538  38.396  21.025  14.443
 9213W        W81539  11.203  34.395   9.921
 9214W        W81540  24.018  26.596   2.194
 9215W        W81541   6.423  26.171  13.881
 9216W        W81542  43.407  31.114   0.270
 9217W        W81543  15.258  20.189  14.501
 9218W        W81544  37.940  27.157  14.973
 9219W        W81545  16.074  27.609   3.316
 9220W        W81546  21.734  38.489  11.005
 9221W        W81547  32.605  21.115  14.380
 9222W        W81548  25.016   9.279   2.770
 9223W        W81549  26.180  38.480  12.834
 9224W        W81550  29.477   8.693  14.453
 9225W        W81551  40.393  17.664   4.240
 9226W        W81552  21.584  43.887  11.547
 9227W        W81553  16.761  31.930  12.427
 9228W        W81554  11.710  28.637  10.948
 9229W        W81555   8.765   6.318   3.205
 9230W        W81556   3.356  10.714   1.743
 9231W        W81557  27.649  19.608   1.307
 9232W        W81558  31.053  19.555   4.328
 9233W        W81559  24.008  34.067  14.316
 9234W        W81560  26.611  33.530  11.576
 9235W        W81561   5.387  20.647   4.810
 9236W        W81562  22.035   3.853   2.380
 9237W        W81563  27.041   7.196  11.476
 9238W        W81564  33.098  17.583  14.304
 9239W        W81565   7.799  27.617  12.365
 9240W        W81566   2.856  38.918  11.050
 9241W        W81567  21.064  13.633  12.580
 9242W        W81568   4.254  33.066   0.418
 9243W        W81569   2.330  22.019  13.871
 9244W        W81570  15.745  38.374  10.124
 9245W        W81571  26.207  29.537   2.738
 9246W        W81572  19.556  15.586   2.872
 9247W        W81573  35.918  18.668   3.704
 9248W        W81574  36.416  29.592  13.945
 9249W        W81575  26.996   2.935  14.013
 9250W        W81576  14.206  30.445   3.800
 9251W        W81577  36.543  16.792  11.044
 9252W        W81578  34.101  31.512   0.461
 9253W        W81579   5.432  23.089   1.752
 9254W        W81580  35.998  20.130  11.490
 9255W        W81581   8.671  27.551   3.353
 9256W        W81582   8.243  32.134   1.837
 9257W        W81583  39.056  28.590  14.470
 9258W        W81584  34.519  12.657   3.174
 9259W        W81585   4.944  17.106  14.356
 9260W        W81586  15.324  17.144   4.690
 9261W        W81587  20.222  27.524  12.077
 9262W        W81588  21.136  44.391   2.378
 9263W        W81589  12.302  34.972  14.991
 9264W        W81590   5.864  35.428  11.863
 9265W        W81591  36.022  40.451  11.082
 9266W        W81592  24.674  13.810  13.904
 9267W        W81593   5.430  32.474   4.290
 9268W        W81594   5.238  22.715   1.241
 9269W        W81595  15.805  44.812   0.955
 9270W        W81596  39.369  15.590  10.525
 9271W        W81597   6.249  24.994   0.271
 9272W        W81598  26.130   6.869   2.728
 9273W        W81599  40.902  15.242   0.874
 9274W        W81600   8.366  32.543  12.057
 9275W        W81601  32.109  27.626  12.342
 9276W        W81602   1.768   5.424   4.134
 9277W        W81603  25.026  30.949  10.416
 9278W        W81604   7.905  32.593   3.268
 9279W        W81605  18.674  43.395  12.357
 9280W        W81606  16.190  39.383  11.476
 9281W        W81607   1.859  23.035  14.436
 9282W        W81608  43.513  40.803  13.483
 9283W        W81609  10.383   0.785  11.059
 9284W        W81610  19.733  43.482  14.326
 9285W        W81611  41.004   8.231   0.455
 9286W        W81612  40.882  37.579  11.923
 9287W        W81613  12.305   4.747   9.995
 9288W        W81614  14.816  32.013  10.915
 9289W        W81615  28.017  10.300  10.540
 9290W        W81616   3.455   2.913   4.783
 9291W        W81617   7.415  32.025  10.552
 9292W        W81618  16.273  26.183  10.454
 9293W        W81619  25.526  41.864   3.376
 9294W        W81620  28.585   5.771  11.434
 9295W        W81621  41.892  21.177  11.095
 9296W        W81622  14.144   2.858   0.940
 9297W        W81623  21.544  33.568   0.843
 9298W        W81624  23.097  11.262   2.717
 9299W        W81625  24.706  13.251  12.094
 9300W        W81626  27.143   5.199   4.353
 9301W        W81627  20.680  10.806  12.076
 9302W        W81628  26.179  30.098  14.950
 9303W        W81629  27.962   2.869   2.211
 9304W        W81630  30.109   2.792  11.921
 9305W        W81631  35.418  35.421  13.856
 9306W        W81632  40.530  22.668   3.645
 9307W        W81633  33.554   7.358   1.882
 9308W        W81634  18.196  26.204  10.979
 9309W        W81635  34.533  27.107   2.293
 9310W        W81636  16.759  38.872   4.150
 9311W        W81637  39.808  22.036   2.708
 9312W        W81638   2.399  16.592   3.742
 9313W        W81639  25.175  19.251   0.899
 9314W        W81640  41.976   9.210   0.329
 9315W        W81641  22.092  15.090   3.769
 9316W        W81642  42.511  18.072   4.302
 9317W        W81643  19.234  32.009  12.976
 9318W        W81644  21.670  37.553   5.755
 9319W        W81645  34.444   8.721  14.427
 9320W        W81646  13.796   5.231  10.928
 9321W        W81647  15.649   4.397  12.061
 9322W        W81648  10.347   7.176  12.368
 9323W        W81649  39.815   2.290  11.024
 9324W        W81650  39.449  43.821   4.824
 9325W        W81651  33.521  29.130  14.781
 9326W        W81652  18.147  25.564  11.113
 9327W        W81653  33.029   3.252   3.816
 9328W        W81654  33.386  31.938  14.774
 9329W        W81655  28.981   4.264   3.825
 9330W        W81656  16.637  12.178   3.731
 9331W        W81657  18.774  40.528   1.866
 9332W        W81658  30.412   6.322   4.824
 9333W        W81659  40.504  17.287  14.431
 9334W        W81660  14.306   0.317  13.527
 9335W        W81661  32.585  31.497  11.014
 9336W        W81662  26.199  10.367  13.004
 9337W        W81663  44.311  14.675  11.890
 9338W        W81664  25.189  13.673   2.844
 9339W        W81665   5.850   8.289   0.365
 9340W        W81666   9.715  26.474  12.567
 9341W        W81667  19.573  31.055  13.406
 9342W        W81668   3.900   1.328  12.869
 9343W        W81669  41.340  41.425  12.420
 9344W        W81670  23.118  19.250   0.470
 9345W        W81671   0.299  22.703  10.459
 9346W        W81672   3.400   3.411  14.309
 9347W        W81673  23.092  34.041  13.391
 9348W        W81674  16.266  28.551   1.304
 9349W        W81675  35.925  21.018  11.973
 9350W        W81676  20.170  27.169   3.234
 9351W        W81677  41.487  39.008   0.932
 9352W        W81678   5.383  33.064   2.730
 9353W        W81679  41.487  24.586   2.726
 9354W        W81680  28.634  25.061  12.833
 9355W        W81681  34.967   1.373   4.283
 9356W        W81682  13.724  40.341   1.268
 9357W        W81683  25.103   7.894   4.725
 9358W        W81684  40.856  33.086  12.870
 9359W        W81685  29.060   2.331   3.791
 9360W        W81686  40.915  22.532  12.400
 9361W        W81687  26.618   8.349   4.278
 9362W        W81688  19.106  34.075   0.770
 9363W        W81689  28.152  28.453  10.139
 9364W        W81690  19.198  26.011  10.413
 9365W        W81691   7.825  31.549  13.848
 9366W        W81692  38.477  31.463  12.525
 9367W        W81693  40.981  29.441  12.976
 9368W        W81694  37.982  31.083   4.733
 9369W        W81695   7.911   8.213  10.455
 9370W        W81696  43.963   1.452  14.305
 9371W        W81697  44.894  42.955   3.260
 9372W        W81698  37.982   7.676   0.436
 9373W        W81699  43.771   9.664  10.909
 9374W        W81700  10.737  44.324  13.061
 9375W        W81701  30.009  32.617   3.702
 9376W        W81702   0.887  32.140   0.454
 9377W        W81703  28.532  14.185  12.049
 9378W        W81704   7.367  25.206  14.454
 9379W        W81705   4.845  36.890   2.397
 9380W        W81706  19.557  14.314   3.683
 9381W        W81707  44.865   1.832   2.822
 9382W        W81708  36.575  31.498   0.926
 9383W        W81709  12.209  27.692  11.080
 9384W        W81710  37.072  26.513  11.995
 9385W        W81711  23.999  41.521  11.467
 9386W        W81712  21.155  27.605  12.376
 9387W        W81713  23.086   0.262   4.213
 9388W        W81714  17.632   2.384  14.397
 9389W        W81715  32.416  22.677  13.906
 9390W        W81716  25.199  15.095  14.909
 9391W        W81717  22.682  12.227   2.819
 9392W        W81718   3.927   5.812  12.070
 9393W        W81719  16.773  23.547  14.292
 9394W        W81720  32.983  10.868  12.083
 9395W        W81721   0.402  13.305   2.861
 9396W        W81722  38.823  20.106  11.373
 9397W        W81723   5.722  34.019   4.180
 9398W        W81724  33.466   5.924   2.669
 9399W        W81725  32.545  29.603  14.797
 9400W        W81726  31.091  22.639   2.776
 9401W        W81727  16.644  30.012   0.838
 9402W        W81728  16.756  40.520   4.724
 9403W        W81729  43.951   8.288  10.978
 9404W        W81730  23.175   1.276   0.259
 9405W        W81731  18.173   3.828  14.487
 9406W        W81732  23.024  13.687  12.845
 9407W        W81733   9.163   2.466   4.308
 9408W        W81734  30.469  20.047  14.443
 9409W        W81735  44.335  37.403   4.780
 9410W        W81736  40.895  13.808   0.406
 9411W        W81737  35.466  20.717  14.931
 9412W        W81738   2.230  28.594   1.399
 9413W        W81739  39.916  31.568  13.808
 9414W        W81740  37.495  34.895  14.884
 9415W        W81741  15.823  36.891  11.096
 9416W        W81742  35.031  19.238   3.650
 9417W        W81743  20.209  22.730  13.894
 9418W        W81744  24.716  35.018   0.874
 9419W        W81745  28.173   5.716   0.862
 9420W        W81746  20.749  33.431   1.378
 9421W        W81747  14.741  19.557   0.747
 9422W        W81748  30.559  34.446  12.401
 9423W        W81749  30.940  36.451   2.768
 9424W        W81750  43.885  35.552   3.807
 9425W        W81751  37.869  20.675   4.635
 9426W        W81752  32.478  20.163  11.984
 9427W        W81753  10.269  32.552   2.243
 9428W        W81754  26.507  18.065   5.154
 9429W        W81755  34.505  32.403   3.815
 9430W        W81756  25.648  42.321  12.527
 9431W        W81757  17.630   6.351   4.626
 9432W        W81758  16.581  38.436  14.789
 9433W        W81759  25.994   9.839  14.023
 9434W        W81760   1.968   3.932   2.406
 9435W        W81761  28.015  15.105   1.211
 9436W        W81762  13.614   8.740  12.869
 9437W        W81763  42.281  29.097   0.881
 9438W        W81764  22.538  16.604  10.147
 9439W        W81765  10.191   6.370   4.641
 9440W        W81766  27.988  29.961  14.424
 9441W        W81767  32.994  11.172   0.482
 9442W        W81768  12.831  22.523   3.778
 9443W        W81769   5.194  26.683   3.691
 9444W        W81770  42.345   3.243   1.300
 9445W        W81771  33.417  30.457   1.327
 9446W        W81772  20.218  33.085  12.060
 9447W        W81773  40.048  16.623   0.441
 9448W        W81774  33.606  18.672   3.822
 9449W        W81775  22.189   1.391  14.886
 9450W        W81776  21.036  34.430  14.513
 9451W        W81777  33.608  28.017  13.520
 9452W        W81778  10.728   5.731   2.185
 9453W        W81779  15.208  33.561  10.534
 9454W        W81780  38.952  29.154   0.806
 9455W        W81781  18.783   2.890   2.883
 9456W        W81782  39.386  10.265   0.243
 9457W        W81783  40.968  25.096   4.295
 9458W        W81784   4.245   8.707   2.394
 9459W        W81785  44.983  17.577  12.842
 9460W        W81786   5.702  37.061   0.734
 9461W        W81787   1.974  14.750   1.372
 9462W        W81788   2.778  30.541  14.401
 9463W        W81789   6.914  32.109  14.443
 9464W        W81790  37.560   6.213   3.157
 9465W        W81791  13.179  26.603  14.430
 9466W        W81792   7.331  10.194   3.258
 9467W        W81793  43.921  33.875   3.310
 9468W        W81794  13.281  40.364   4.242
 9469W        W81795  42.296  34.887   4.129
 9470W        W81796   0.921  41.934  13.424
 9471W        W81797  35.405  12.837   3.770
 9472W        W81798  19.718  28.165  13.332
 9473W        W81799  31.143  25.517   0.309
 9474W        W81800   8.659  33.500   3.212
 9475W        W81801  16.650  17.659   3.216
 9476W        W81802  43.883  35.573  11.046
 9477W        W81803  15.593   9.758   3.335
 9478W        W81804  24.552  26.057   1.423
 9479W        W81805  33.618  41.412   4.130
 9480W        W81806  31.998   8.231  14.395
 9481W        W81807  40.480   6.339  12.437
 9482W        W81808  11.217  19.198  10.927
 9483W        W81809  31.504  34.559  11.873
 9484W        W81810   1.266  20.654   0.284
 9485W        W81811  20.060  43.455  13.338
 9486W        W81812  25.687  10.334   3.746
 9487W        W81813   2.874  12.668  10.070
 9488W        W81814  29.066  35.580  14.946
 9489W        W81815  29.123   5.721   0.408
 9490W        W81816  23.989  14.659  11.877
 9491W        W81817  15.677  34.101  14.412
 9492W        W81818   3.260  18.670  14.305
 9493W        W81819  29.044  32.569  13.411
 9494W        W81820  37.048   9.824   5.697
 9495W        W81821  37.898  11.206   4.309
 9496W        W81822  11.162  12.297   1.863
 9497W        W81823  24.598  16.137  14.469
 9498W        W81824  41.483  31.449   0.372
 9499W        W81825  24.562  42.919   3.244
 9500W        W81826  14.616  31.086   4.189
 9501W        W81827  15.305   8.325  13.313
 9502W        W81828  35.878  36.480   9.677
 9503W        W81829  15.607   2.248   4.720
 9504W        W81830  33.419   6.259   3.850
 9505W        W81831  25.187  39.839   3.217
 9506W        W81832  31.476   3.348  14.463
 9507W        W81833   1.801  23.032  10.426
 9508W        W81834  31.124  41.025   1.788
 9509W        W81835  31.539  17.153   4.221
 9510W        W81836  12.834  24.052   2.755
 9511W        W81837  16.570   3.794  14.446
 9512W        W81838  35.029   7.302  14.961
 9513W        W81839  39.002  31.114   1.273
 9514W        W81840  18.075  40.366   4.686
 9515W        W81841  14.676  27.614  10.969
 9516W        W81842   1.940  24.638   2.901
 9517W        W81843   4.924  15.286  12.827
 9518W        W81844   9.706  33.610   3.777
 9519W        W81845  13.302   7.692   2.813
 9520W        W81846  22.629  37.915  14.513
 9521W        W81847  31.465   4.363  12.843
 9522W        W81848  15.185  31.056   4.668
 9523W        W81849  41.897   7.746  14.796
 9524W        W81850   0.372  24.036   2.224
 9525W        W81851   1.292   3.395   0.275
 9526W        W81852  18.581  15.717   2.715
 9527W        W81853  22.184  40.344  13.310
 9528W        W81854  38.840  26.017   1.354
 9529W        W81855  26.036   4.748   1.926
 9530W        W81856   6.812  22.194  14.437
 9531W        W81857   8.695   0.465   2.747
 9532W        W81858  30.472  16.603   2.319
 9533W        W81859   9.272  11.687   3.167
 9534W        W81860   4.840   6.776  11.921
 9535W        W81861  15.313  15.812   0.448
 9536W        W81862  12.816  44.895   0.783
 9537W        W81863   3.319  44.298  12.348
 9538W        W81864  21.234  29.006   2.732
 9539W        W81865  22.557  27.677   3.371
 9540W        W81866  10.348  24.045  10.487
 9541W        W81867  29.663  29.585   2.689
 9542W        W81868   5.718  22.048   3.331
 9543W        W81869  20.273   3.219  11.512
 9544W        W81870  40.403  37.058  10.935
 9545W        W81871   5.850  33.112   0.400
 9546W        W81872  26.524  36.346  14.899
 9547W        W81873   6.781  12.344  14.768
 9548W        W81874  32.065  17.717  13.428
 9549W        W81875   9.261  14.617   0.405
 9550W        W81876  23.601  39.424  10.077
 9551W        W81877  31.006  37.076  12.839
 9552W        W81878  34.041  13.789  11.083
 9553W        W81879   6.305  12.360   3.224
 9554W        W81880   1.972   5.782   0.955
 9555W        W81881  39.371  44.760  11.489
 9556W        W81882  43.346  12.688   4.705
 9557W        W81883  24.620  22.014   0.435
 9558W        W81884  20.561  32.632   4.123
 9559W        W81885  11.130   5.829  12.994
 9560W        W81886  25.165  36.955  11.041
 9561W        W81887   0.469  15.241   4.145
 9562W        W81888  18.191   4.273  12.389
 9563W        W81889  23.720   9.373   1.417
 9564W        W81890  16.217  38.865   1.707
 9565W        W81891  12.130  14.743  10.416
 9566W        W81892  19.222  42.780   4.746
 9567W        W81893  40.415  38.076  13.061
 9568W        W81894  32.485  20.031  13.899
 9569W        W81895  31.065   0.484   4.334
 9570W        W81896  15.675  28.962  13.420
 9571W        W81897  22.551  27.540   4.125
 9572W        W81898  39.332   5.300  10.581
 9573W        W81899  35.947   2.281  10.501
 9574W        W81900  44.801  21.658  11.473
 9575W        W81901  37.544  24.723   3.748
 9576W        W81902  25.647  29.063  13.837
 9577W        W81903  16.259  14.662   2.671
 9578W        W81904   7.284  15.264   1.424
 9579W        W81905  25.520   0.899   0.329
 9580W        W81906  42.474  42.350  14.994
 9581W        W81907  41.432   8.356  14.284
 9582W        W81908   2.263   4.216  12.471
 9583W        W81909  24.049  37.066   1.382
 9584W        W81910  21.144  35.585  12.507
 9585W        W81911   1.915  17.172  13.056
 9586W        W81912  24.219  30.087   4.144
 9587W        W81913  19.547  31.014  13.050
 9588W        W81914  15.790  43.792   3.315
 9589W        W81915  29.964  26.635  12.485
 9590W        W81916   2.438   5.224   0.845
 9591W        W81917  42.451  15.714  12.429
 9592W        W81918   5.259  11.851   3.748
 9593W        W81919  23.187  35.545  12.381
 9594W        W81920  41.807  24.528   1.794
 9595W        W81921   6.360  24.648   1.294
 9596W        W81922  31.561  35.592   4.183
 9597W        W81923  16.808   9.708  14.902
 9598W        W81924  35.446   0.813   2.717
 9599W        W81925  41.943  23.023  11.092
 9600W        W81926  33.958  21.596   2.317
 9601W        W81927  35.955  30.515  11.489
 9602W        W81928  13.126  36.550   2.259
 9603W        W81929  43.971  36.017  13.428
 9604W        W81930  14.635  20.594  13.452
 9605W        W81931  34.534  37.465  13.929
 9606W        W81932  15.732  14.765   4.187
 9607W        W81933  41.793  16.207  14.311
 9608W        W81934  19.186  16.713  12.457
 9609W        W81935  11.238  37.050   2.242
 9610W        W81936  21.530   1.254   3.207
 9611W        W81937  32.987  35.873  14.767
 9612W        W81938  18.295  27.572  13.979
 9613W        W81939  25.994   3.766  14.308
 9614W        W81940  19.780  31.623   0.310
 9615W        W81941  35.516  26.673   4.610
 9616W        W81942  15.263  21.540  13.929
 9617W        W81943  15.789  29.041   2.204
 9618W        W81944  43.956  22.672   0.818
 9619W        W81945  14.742  31.526   0.366
 9620W        W81946   8.374  13.785   4.663
 9621W        W81947  31.037  44.970   1.898
 9622W        W81948  30.043   6.774   1.288
 9623W        W81949  43.959  34.550   3.833
 9624W        W81950   7.775  25.539  12.366
 9625W        W81951   3.312  23.094   0.255
 9626W        W81952  30.458  22.237  14.371
 9627W        W81953  35.532   6.826   1.729
 9628W        W81954  21.610  24.138   1.316
 9629W        W81955  10.174  33.119   4.116
 9630W        W81956   3.827  25.081   5.118
 9631W        W81957  36.940  40.412  13.350
 9632W        W81958  16.105  32.025   4.773
 9633W        W81959  22.152  26.208   0.416
 9634W        W81960  31.457  32.434  13.361
 9635W        W81961  36.416  35.891  10.623
 9636W        W81962  11.276  20.246  13.407
 9637W        W81963  23.140  42.385   4.736
 9638W        W81964  16.813  41.917  12.490
 9639W        W81965  43.479  16.317   3.809
 9640W        W81966  41.451   8.897  12.045
 9641W        W81967  41.533  12.631  14.869
 9642W        W81968  31.427  29.036   0.283
 9643W        W81969  14.096  25.611   1.932
 9644W        W81970  35.453   7.878   2.388
 9645W        W81971  21.041  18.286  11.401
 9646W        W81972  28.991  14.163  13.321
 9647W        W81973  34.458   2.442   2.417
 9648W        W81974  41.304  20.550   2.303
 9649W        W81975   5.719  32.124   1.704
 9650W        W81976  22.517  43.950   4.252
 9651W        W81977  31.084  16.688  11.472
 9652W        W81978  20.132  31.065   2.319
 9653W        W81979  33.929  22.725  10.451
 9654W        W81980  41.314  30.130  13.045
 9655W        W81981  24.563   4.940   1.704
 9656W        W81982   2.863  17.145   2.309
 9657W        W81983  27.558  18.079   3.674
 9658W        W81984  39.389  28.953   2.347
 9659W        W81985  31.481  35.433  12.989
 9660W        W81986  23.631  15.639  13.883
 9661W        W81987  35.008  23.490   1.382
 9662W        W81988  27.134  33.035  11.403
 9663W        W81989  43.858  28.168  14.967
 9664W        W81990   4.217  12.164   2.199
 9665W        W81991   9.796  31.048  10.947
 9666W        W81992  10.670  22.086   0.355
 9667W        W81993  38.474  15.305  13.444
 9668W        W81994   4.884   7.294   9.991
 9669W        W81995  37.527  28.609   1.907
 9670W        W81996  34.079  16.283  11.556
 9671W        W81997  22.651  24.974   0.941
 9672W        W81998  24.522  38.001  14.393
 9673W        W81999  39.018  40.543  10.945
 9674W        W82000  33.466   9.178  13.880
 9675W        W82001  25.563  24.053   0.459
 9676W        W82002   1.855  14.822   1.710
 9677W        W82003  21.018  18.219  14.328
 9678W        W82004   3.934  28.977  14.321
 9679W        W82005  30.989  28.135  14.777
 9680W        W82006  27.593  32.004  11.107
 9681W        W82007   0.972   8.666  13.999
 9682W        W82008  38.903   2.453  14.275
 9683W        W82009  10.785   5.726  11.867
 9684W        W82010  25.965  20.248  11.517
 9685W        W82011   3.435  27.689   0.885
 9686W        W82012  16.076   1.960   2.720
 9687W        W82013  20.611   9.858   4.717
 9688W        W82014  34.464  17.594  10.544
 9689W        W82015  19.667   2.400  12.384
 9690W        W82016   9.347  13.683   3.704
 9691W        W82017  11.246  22.518   2.410
 9692W        W82018  26.565   5.792  10.003
 9693W        W82019  25.180  40.317   3.336
 9694W        W82020   2.738  38.515   3.684
 9695W        W82021  35.559  20.553  14.515
 9696W        W82022  44.795   2.397   4.608
 9697W        W82023  39.842   5.419   3.305
 9698W        W82024  44.005   2.227  12.070
 9699W        W82025  19.208  17.124  11.113
 9700W        W82026  28.630  37.047   2.806
 9701W        W82027  41.370  20.162   0.796
 9702W        W82028  26.135   9.269   1.920
 9703W        W82029   3.373  42.355   1.324
 9704W        W82030  36.888  32.101   1.370
 9705W        W82031   2.369  13.677  12.385
 9706W        W82032   5.432  11.725   1.353
 9707W        W82033  42.323  41.315  11.410
 9708W        W82034  12.356  15.682   3.153
 9709W        W82035  34.896  43.001   5.171
 9710W        W82036  11.145   6.257  10.521
 9711W        W82037  14.662  10.733  14.951
 9712W        W82038  41.538  44.817   3.211
 9713W        W82039  33.417  44.845  14.874
 9714W        W82040   8.697  24.982   2.846
 9715W        W82041  16.220  40.025  12.033
 9716W        W82042  17.748  29.015   1.744
 9717W        W82043  36.493  39.505  14.843
 9718W        W82044  44.375  32.432   1.889
 9719W        W82045  21.062  19.610   4.698
 9720W        W82046   6.810  17.117   3.786
 9721W        W82047  43.508  35.967  14.494
 9722W        W82048  13.173  28.522   2.353
 9723W        W82049  18.601  19.631  12.070
 9724W        W82050  15.809   6.410   5.090
 9725W        W82051  20.544  25.695  11.085
 9726W        W82052  35.008  20.523  11.924
 9727W        W82053  10.828   4.387  13.378
 9728W        W82054  23.652  22.737   2.235
 9729W        W82055   4.859   2.812   3.256
 9730W        W82056  33.107  36.951  11.563
 9731W        W82057  35.365   2.828   0.840
 9732W        W82058  35.380  15.624  12.877
 9733W        W82059  28.089  31.921  13.886
 9734W        W82060   6.853  44.294   1.868
 9735W        W82061   4.211  24.560   4.621
 9736W        W82062  24.193   0.943   3.279
 9737W        W82063  41.408  38.482  14.290
 9738W        W82064   0.401  16.587   4.701
 9739W        W82065  35.419  36.585   0.782
 9740W        W82066  31.550  11.178  11.412
 9741W        W82067  28.076  21.550   3.373
 9742W        W82068   6.726  38.541  10.594
 9743W        W82069  17.246  15.252  10.034
 9744W        W82070  32.548  30.451  12.365
 9745W        W82071  28.081   3.868   4.696
 9746W        W82072   5.349  44.450  10.915
 9747W        W82073   6.888  42.875  12.901
 9748W        W82074  16.141  18.641   3.838
 9749W        W82075  34.554   1.923  11.512
 9750W        W82076  24.507  29.461   4.720
 9751W        W82077  33.060  11.845  13.412
 9752W        W82078  27.145  41.039   3.348
 9753W        W82079   3.752   4.438   4.335
 9754W        W82080  15.670  44.290  10.602
 9755W        W82081   5.352  42.356   3.263
 9756W        W82082  17.216  27.962  14.447
 9757W        W82083  25.684  34.456  14.865
 9758W        W82084  44.949  21.106  11.535
 9759W        W82085  18.667  24.153   1.704
 9760W        W82086   4.287   1.418   0.294
 9761W        W82087  36.355   6.686   0.277
 9762W        W82088  42.800  44.794  12.492
 9763W        W82089   7.267   6.830  14.032
 9764W        W82090  32.429  17.186  14.942
 9765W        W82091  40.357  15.586  11.041
 9766W        W82092  27.558  23.991   2.279
 9767W        W82093  27.629   4.431  13.819
 9768W        W82094  35.533  10.679  12.452
 9769W        W82095  29.470  11.764  10.917
 9770W        W82096  39.421  18.594  10.523
 9771W        W82097  13.122  23.158  14.827
 9772W        W82098  36.879   1.455  12.881
 9773W        W82099  21.523   4.425  14.011
 9774W        W82100  36.075  12.126  11.033
 9775W        W82101  25.665  39.929  12.393
 9776W        W82102  24.100  17.173  14.942
 9777W        W82103  23.233   3.901   2.378
 9778W        W82104   8.174  38.060   4.117
 9779W        W82105  38.988  26.002   2.362
 9780W        W82106  40.047  24.602  12.038
 9781W        W82107  36.495   7.755   2.300
 9782W        W82108   4.906  44.827  10.992
 9783W        W82109  27.023  25.675  14.876
 9784W        W82110  15.111  28.017   3.364
 9785W        W82111  18.544  33.413   2.414
 9786W        W82112  34.876   9.259   4.166
 9787W        W82113  38.042  32.896   4.169
 9788W        W82114  29.467   2.738  11.929
 9789W        W82115  13.625  21.525   4.180
 9790W        W82116   9.728  35.364   4.150
 9791W        W82117   2.835  21.602  13.373
 9792W        W82118  20.613  19.597   2.318
 9793W        W82119  38.856  28.094   1.422
 9794W        W82120  31.060  43.401  12.491
 9795W        W82121   1.283  11.708   3.212
 9796W        W82122   3.309  18.134  10.406
 9797W        W82123  10.265  37.069   1.775
 9798W        W82124  22.143  24.129   3.782
 9799W        W82125   5.872  12.128   2.295
 9800W        W82126  25.511  16.599   1.922
 9801W        W82127  42.988  24.723   1.407
 9802W        W82128  10.782  16.115  12.911
 9803W        W82129   8.322   8.701  11.991
 9804W        W82130  12.131  17.188  14.380
 9805W        W82131  34.951  17.259   5.257
 9806W        W82132  10.145  43.426  11.042
 9807W        W82133  25.983  22.536   4.283
 9808W        W82134  24.024  10.636   0.751
 9809W        W82135   3.820  23.044   9.666
 9810W        W82136  44.978  25.970  12.374
 9811W        W82137  37.481  10.769   5.214
 9812W        W82138  18.228  33.484   0.813
 9813W        W82139  15.584   5.308   3.739
 9814W        W82140  41.296  39.974   0.472
 9815W        W82141  26.602  13.219   4.610
 9816W        W82142  39.441  15.322   3.300
 9817W        W82143  20.091  39.542  12.988
 9818W        W82144  21.528  12.798   1.376
 9819W        W82145  43.932  20.256  11.860
 9820W        W82146  29.918  37.438   2.395
 9821W        W82147  36.016   1.899   3.680
 9822W        W82148   8.296  37.840  11.392
 9823W        W82149  34.039  41.441   4.806
 9824W        W82150  30.161  13.749  10.985
 9825W        W82151  11.160   1.444   4.745
 9826W        W82152  11.655  41.866   1.412
 9827W        W82153   6.859  42.917  12.087
 9828W        W82154  25.054  26.542  11.587
 9829W        W82155  38.858  20.244  14.332
 9830W        W82156  18.721  23.137  13.844
 9831W        W82157  12.642  28.953   2.709
 9832W        W82158  43.474  35.511  13.865
 9833W        W82159  40.967  40.885  12.571
 9834W        W82160  12.194  37.472  10.464
 9835W        W82161  13.318   6.257  13.507
 9836W        W82162  43.433  15.662  11.875
 9837W        W82163  18.104  31.630   1.804
 9838W        W82164  18.670  31.019   3.214
 9839W        W82165  11.276   1.942   0.345
 9840W        W82166  34.465  10.272  11.042
 9841W        W82167  17.306   5.696  12.953
 9842W        W82168  44.341  13.282   0.245
 9843W        W82169  43.978   3.445  12.415
 9844W        W82170  34.533  26.644   3.706
 9845W        W82171  36.927  34.588   1.891
 9846W        W82172   1.242   5.428  13.311
 9847W        W82173  14.146  20.057   1.355
 9848W        W82174  28.480   8.217  14.773
 9849W        W82175  17.266  42.861  14.797
 9850W        W82176   6.839   2.272   0.316
 9851W        W82177   8.240  14.278  12.438
 9852W        W82178  34.536  22.163   4.825
 9853W        W82179   9.727   5.347   2.698
 9854W        W82180   9.187  13.153   4.694
 9855W        W82181  31.626  23.122  11.378
 9856W        W82182   3.810  11.637   3.190
 9857W        W82183   9.741  15.721   0.849
 9858W        W82184  22.042   5.305  14.340
 9859W        W82185  15.161  26.163  12.003
 9860W        W82186  11.625  17.241   1.909
 9861W        W82187  43.904  26.064  10.971
 9862W        W82188  43.000  32.623   3.170
 9863W        W82189  40.371  18.085  12.490
 9864W        W82190  43.007  11.356  14.429
 9865W        W82191  28.169  41.410  10.587
 9866W        W82192  41.897  30.966  13.508
 9867W        W82193   6.235  16.643  14.812
 9868W        W82194  32.560  43.936  10.992
 9869W        W82195  14.185  22.086   0.295
 9870W        W82196  37.086  13.617   1.406
 9871W        W82197  18.677  10.342   0.802
 9872W        W82198  20.659  41.836   1.896
 9873W        W82199  34.482  13.761  14.378
 9874W        W82200  20.539  37.467   0.821
 9875W        W82201  36.408  30.128  12.519
 9876W        W82202  30.044  28.934   2.241
 9877W        W82203   6.271  28.553  13.939
 9878W        W82204  37.005  38.504   1.834
 9879W        W82205   5.376  31.146   1.371
 9880W        W82206  10.298  21.642  10.156
 9881W        W82207  27.190  17.228  10.122
 9882W        W82208  26.167  21.516   2.282
 9883W        W82209  18.212  16.172   2.364
 9884W        W82210  10.140  31.419  11.969
 9885W        W82211  34.416  42.407  10.938
 9886W        W82212  26.509   3.241  10.476
 9887W        W82213   4.234  19.734  12.557
 9888W        W82214  32.098  26.165   1.443
 9889W        W82215  25.998  29.040   3.342
 9890W        W82216  35.079  18.051   4.599
 9891W        W82217  15.174  28.474   3.735
 9892W        W82218  44.347  35.513   4.187
 9893W        W82219  43.885   0.388   2.203
 9894W        W82220   8.393  40.302  10.460
 9895W        W82221  15.716  25.057   1.861
 9896W        W82222  29.944  25.048  13.460
 9897W        W82223  31.646  39.878   4.744
 9898W        W82224  34.517   9.888   4.128
 9899W        W82225  20.644   7.789  12.502
 9900W        W82226  35.530  39.433  11.450
 9901W        W82227  42.294   8.163  11.567
 9902W        W82228   9.273  35.926   4.222
 9903W        W82229   2.294   1.899   4.134
 9904W        W82230  28.453  41.819   0.775
 9905W        W82231  38.351  44.484   2.331
 9906W        W82232  10.209  32.450  12.832
 9907W        W82233  37.391  24.481   1.777
 9908W        W82234  17.165  23.240  11.025
 9909W        W82235  40.901  35.968   2.668
 9910W        W82236   4.285  24.170  13.899
 9911W        W82237  33.451  27.159   3.645
 9912W        W82238  34.432  20.640  10.553
 9913W        W82239  42.875  39.863   1.254
 9914W        W82240  37.395   8.764   0.456
 9915W        W82241  12.330  26.504   5.166
 9916W        W82242  26.588  15.254   0.383
 9917W        W82243  39.981   8.259   3.197
 9918W        W82244  36.947  44.857   3.645
 9919W        W82245   1.322  36.089   4.296
 9920W        W82246  41.989  22.534  11.473
 9921W        W82247  44.923  25.112   2.707
 9922W        W82248  40.349  13.680  11.062
 9923W        W82249  38.545  32.886   1.816
 9924W        W82250  17.728  37.022  13.432
 9925W        W82251  20.745  21.158  13.337
 9926W        W82252  25.618   0.420   3.339
 9927W        W82253  42.303  18.557  14.475
 9928W        W82254  41.035  19.119   4.189
 9929W        W82255   7.247  29.167   3.770
 9930W        W82256  38.549  27.642   4.166
 9931W        W82257   5.735  10.140   4.625
 9932W        W82258  34.103  40.900  11.052
 9933W        W82259  30.658  35.585  10.929
 9934W        W82260  21.182  35.401   2.352
 9935W        W82261  16.703  32.554  14.998
 9936W        W82262   1.851  19.119   4.316
 9937W        W82263  22.152  27.991  13.307
 9938W        W82264  22.605  33.104  11.548
 9939W        W82265  33.896  34.455   2.862
 9940W        W82266  35.039  38.022   1.431
 9941W        W82267  16.245  15.269   2.366
 9942W        W82268  14.591  36.392  10.476
 9943W        W82269  18.260  44.406  12.071
 9944W        W82270  14.746  40.915  11.497
 9945W        W82271   1.776  30.482  13.949
 9946W        W82272  17.631  33.104  14.893
 9947W        W82273  12.788   3.850   2.795
 9948W        W82274  27.526  15.737   0.798
 9949W        W82275  41.039   2.887   3.729
 9950W        W82276  12.656   8.770   2.263
 9951W        W82277  39.450  23.095  14.334
 9952W        W82278  32.103  42.286  14.835
 9953W        W82279  18.587   7.225  12.443
 9954W        W82280  28.139   3.448   0.826
 9955W        W82281  38.847  30.658  10.541
 9956W        W82282  18.775  15.677  14.782
 9957W        W82283  20.102   8.169   1.364
 9958W        W82284  40.001  24.166   2.253
 9959W        W82285  39.486  41.010   0.812
 9960W        W82286  14.179   3.951   0.949
 9961W        W82287  10.204  38.394   1.324
 9962W        W82288  39.462  21.663   2.664
 9963W        W82289  19.155  34.585   2.837
 9964W        W82290   8.825  21.740   1.432
 9965W        W82291  34.919   6.348   1.319
 9966W        W82292  14.262  36.889  13.060
 9967W        W82293  25.533  24.625   3.346
 9968W        W82294   1.338  34.087  11.595
 9969W        W82295  37.086  34.494  13.012
 9970W        W82296  41.383  19.645  11.549
 9971W        W82297  36.491  29.073   4.320
 9972W        W82298  21.249   9.745  11.934
 9973W        W82299  37.464  40.336   4.803
 9974W        W82300  14.653   6.312  12.063
 9975W        W82301  40.518  20.678   2.268
 9976W        W82302  28.964  21.674   4.727
 9977W        W82303  35.064  15.178   1.210
 9978W        W82304  21.534  35.399  11.950
 9979W        W82305  17.262  39.376   3.342
 9980W        W82306  12.151  43.894  11.970
 9981W        W82307  40.998  43.486   1.293
 9982W        W82308   0.300  34.929  12.916
 9983W        W82309   7.314  26.991   4.209
 9984W        W82310   1.747   6.275  12.898
 9985W        W82311  14.703  33.622  14.964
 9986W        W82312   9.728  43.841  11.085
 9987W        W82313  28.991  27.623  10.578
 9988W        W82314   1.804  36.988   3.678
 9989W        W82315  30.133   3.745   3.302
 9990W        W82316   0.453  14.283   2.194
 9991W        W82317  31.099   4.300  11.106
 9992W        W82318  37.022  35.935  10.990
 9993W        W82319  13.284   4.235  13.499
 9994W        W82320  10.373  15.196   0.758
 9995W        W82321   9.347  16.219  12.990
 9996W        W82322  17.223  44.473   0.913
 9997W        W82323  17.772  35.365  14.984
 9998W        W82324  11.769  31.981   4.835
 9999W        W82325  23.230  30.935  14.763
10000W        W82326  10.816  44.000  13.918
10001W        W82327   9.682  29.950  11.004
10002W        W82328  40.037   9.673   3.309
10003W        W82329  30.531  35.394   0.355
10004W        W82330  36.042  31.100  12.927
10005W        W82331  13.277  14.781  12.348
10006W        W82332  12.627  26.541   3.158
10007W        W82333   3.322  29.966  13.377
10008W        W82334  22.251  30.440   2.767
10009W        W82335   1.259  24.164   3.768
10010W        W82336  21.681  36.994  14.939
10011W        W82337  41.934  14.308   3.186
10012W        W82338  13.149  17.740   2.272
10013W        W82339  38.528  22.139   2.722
10014W        W82340  34.027   5.334   2.194
10015W        W82341  25.705  13.830   3.241
10016W        W82342  42.888  24.200  11.579
10017W        W82343  11.342  36.424  11.463
10018W        W82344   7.783  15.223   4.728
10019W        W82345   9.676  13.820  11.865
10020W        W82346  39.892  23.504   2.712
10021W        W82347  28.603   2.441  10.611
10022W        W82348   3.308  31.563   4.262
10023W        W82349   8.739   3.301   4.786
10024W        W82350   4.364  11.815  12.503
10025W        W82351  43.271  29.153  10.577
10026W        W82352  36.505   4.711  13.918
10027W        W82353   6.836  40.526  12.036
10028W        W82354  18.739  23.062  12.383
10029W        W82355  44.493  22.615   5.122
10030W        W82356  22.743  22.575   3.655
10031W        W82357  13.216  32.485   3.629
10032W        W82358  38.554  19.579  14.944
10033W        W82359  12.774  32.885   3.720
10034W        W82360   4.407  17.205   3.768
10035W        W82361  42.900   4.350  11.872
10036W        W82362  36.028  29.615  14.932
10037W        W82363   5.305  38.915   1.766
10038W        W82364  37.563  33.390  10.467
10039W        W82365  28.146  13.831   4.260
10040W        W82366   4.229  35.053   3.229
10041W        W82367  13.745   4.943  12.515
10042W        W82368  37.565  34.929   0.352
10043W        W82369  37.063  14.799   4.144
10044W        W82370   3.409  13.186   2.740
10045W        W82371  37.901  19.742  11.425
10046W        W82372  33.609  32.474  11.462
10047W        W82373  35.535  14.638  12.450
10048W        W82374  21.216  27.125  14.779
10049W        W82375  39.971   9.234  11.080
10050W        W82376  26.678   0.967   1.227
10051W        W82377   4.914  40.408  10.896
10052W        W82378  21.692  42.408  12.516
10053W        W82379   2.773   7.405   0.305
10054W        W82380   9.751  40.029   1.768
10055W        W82381  23.054  31.923   5.083
10056W        W82382  32.006  43.837   2.371
10057W        W82383  25.690  19.234   1.424
10058W        W82384   6.780   8.305   0.314
10059W        W82385  16.312   1.453  14.003
10060W        W82386  24.056  40.499  14.464
10061W        W82387   0.269   6.827   4.300
10062W        W82388  17.171  20.627  14.352
10063W        W82389   3.713  27.103   0.406
10064W        W82390   9.258  15.687   4.155
10065W        W82391  39.011  34.092  12.849
10066W        W82392  42.996  12.815   4.207
10067W        W82393  10.153  18.155   4.242
10068W        W82394  30.415  37.534  11.528
10069W        W82395  18.785  39.523   4.740
10070W        W82396   9.793   9.184  12.418
10071W        W82397  18.123  36.442   5.286
10072W        W82398  43.494  13.195  11.603
10073W        W82399  32.912  23.675   1.770
10074W        W82400  44.771  26.527   3.739
10075W        W82401  17.212  29.526   3.158
10076W        W82402  18.702  38.866  11.927
10077W        W82403  38.052  32.400   4.268
10078W        W82404  24.176  30.524  14.421
10079W        W82405   5.826  12.216   3.825
10080W        W82406  12.677  19.547   2.695
10081W        W82407   6.200  19.265   2.686
10082W        W82408  18.599  44.786  13.501
10083W        W82409  20.028   7.779   1.833
10084W        W82410  41.923   1.474   2.881
10085W        W82411  38.995   3.227   0.945
10086W        W82412  11.170   4.847   0.864
10087W        W82413  43.997  23.097  14.830
10088W        W82414  18.650  14.265   3.685
10089W        W82415  26.073  44.265   1.262
10090W        W82416  25.090  41.827   1.387
10091W        W82417  39.515   0.856   0.809
10092W        W82418  44.296  27.573   2.298
10093W        W82419  28.082   7.748   2.771
10094W        W82420   9.872  12.174   2.679
10095W        W82421  28.638  23.622  13.414
10096W        W82422  42.500  44.364  13.348
10097W        W82423  28.014  37.555  11.069
10098W        W82424  38.000   8.376   1.703
10099W        W82425   3.922   6.281   4.269
10100W        W82426  43.011  24.601   4.666
10101W        W82427  24.995  42.408  11.374
10102W        W82428   1.851   3.356  12.523
10103W        W82429  35.534  22.063  12.494
10104W        W82430  37.567  21.118   3.195
10105W        W82431  12.291  24.605  11.107
10106W        W82432  37.446  30.975   1.800
10107W        W82433   6.407  42.284  13.420
10108W        W82434  43.419  19.633   3.844
10109W        W82435  32.443   0.883   1.695
10110W        W82436  20.122  34.570  14.447
10111W        W82437  40.906  40.012  13.307
10112W        W82438  12.218  11.629  14.957
10113W        W82439  18.765  13.714   1.392
10114W        W82440  21.741  33.430  10.012
10115W        W82441  23.024  11.643   4.247
10116W        W82442  39.504   0.463  14.374
10117W        W82443   1.240   9.313   4.727
10118W        W82444  34.495   3.301  10.926
10119W        W82445  10.855  31.503  13.847
10120W        W82446  34.521  30.045  13.342
10121W        W82447   0.314  32.407  10.605
10122W        W82448  30.983  36.047   5.147
10123W        W82449  41.335  16.684  11.051
10124W        W82450   8.680  28.097   2.691
10125W        W82451   1.795  37.534  13.028
10126W        W82452  14.788  17.746   3.817
10127W        W82453  28.525   2.891   1.704
10128W        W82454  43.512  32.004   4.747
10129W        W82455  21.157  23.040   3.712
10130W        W82456  37.448  25.205   4.163
10131W        W82457  28.046  34.415  13.960
10132W        W82458  25.528  24.497  13.042
10133W        W82459  32.468   2.258  10.611
10134W        W82460  20.676   6.284   0.315
10135W        W82461  12.149  32.503   0.762
10136W        W82462  30.496  32.618  13.333
10137W        W82463  40.992  37.494   4.779
10138W        W82464  18.121  33.911   1.872
10139W        W82465  39.462  25.065   0.410
10140W        W82466  44.944  22.209  14.791
10141W        W82467  33.516  10.843  11.011
10142W        W82468  19.737  36.891   4.143
10143W        W82469  37.572  38.539   1.373
10144W        W82470  21.659  35.974   1.275
10145W        W82471  24.617  21.726  14.885
10146W        W82472  31.058  37.372   1.894
10147W        W82473  26.638  18.674   5.203
10148W        W82474   5.922   4.387   4.227
10149W        W82475  13.284  41.446  14.311
10150W        W82476   7.775  21.061  11.028
10151W        W82477   0.346  25.585   1.449
10152W        W82478   4.772  40.798  12.393
10153W        W82479  15.114  33.059   1.420
10154W        W82480  30.538   4.766   0.841
10155W        W82481  25.682  43.317   4.196
10156W        W82482   6.911  36.079  11.927
10157W        W82483  37.344  40.317  11.575
10158W        W82484  14.297   2.752   3.380
10159W        W82485  31.578   6.294   3.329
10160W        W82486  20.768  14.228   3.246
10161W        W82487  38.016  42.337   0.794
10162W        W82488   5.755  12.707  13.960
10163W        W82489   0.284  43.889  11.038
10164W        W82490   1.394  38.867   4.726
10165W        W82491  30.644  41.482   4.324
10166W        W82492  29.160  36.849  10.481
10167W        W82493  35.066  12.630  12.482
10168W        W82494   9.853  12.147   3.310
10169W        W82495   1.834   7.318   2.377
10170W        W82496  36.359  37.578  12.854
10171W        W82497  13.747  15.214  11.917
10172W        W82498  14.687   2.777   2.233
10173W        W82499  14.149  39.826  11.990
10174W        W82500  23.129   4.823   3.794
10175W        W82501   4.730  24.012  10.534
10176W        W82502   2.856  23.227  12.959
10177W        W82503  14.635   9.156  14.444
10178W        W82504  29.447  20.593   0.921
10179W        W82505  35.463  42.796  10.497
10180W        W82506  29.102   0.825   3.759
10181W        W82507  25.611  24.593   1.351
10182W        W82508  43.335   4.309   1.424
10183W        W82509  35.001  31.475   0.903
10184W        W82510  18.106  29.131  11.609
10185W        W82511  14.687  33.524  13.792
10186W        W82512  24.681  37.028  13.497
10187W        W82513  40.442  13.713   2.894
10188W        W82514  38.978   9.666  12.943
10189W        W82515  21.554  43.403   3.269
10190W        W82516  21.548  37.945   9.663
10191W        W82517  20.690  41.975  11.483
10192W        W82518  15.776  25.597   4.788
10193W        W82519  23.092  32.060  11.882
10194W        W82520  26.185  32.963  11.996
10195W        W82521  22.087  23.525   4.727
10196W        W82522  43.968   0.910  10.482
10197W        W82523  33.087  30.047  11.378
10198W        W82524  32.459  25.191  14.409
10199W        W82525  23.204  11.839  13.055
10200W        W82526  37.021  39.384  13.351
10201W        W82527   6.294  17.201  10.535
10202W        W82528  27.547  14.716  13.921
10203W        W82529  30.634  13.213  12.400
10204W        W82530  22.580  13.640   0.863
10205W        W82531  36.376  11.193   2.306
10206W        W82532  28.037  37.887  11.453
10207W        W82533  28.935  13.157  12.447
10208W        W82534  25.039  40.312   3.756
10209W        W82535  26.572  19.542  11.983
10210W        W82536  28.943  19.280   1.381
10211W        W82537  41.321  30.421   3.353
10212W        W82538   4.439  34.472   1.745
10213W        W82539  22.706  28.993   0.260
10214W        W82540  24.104  25.133   2.838
10215W        W82541  35.541   0.903   0.848
10216W        W82542  22.249   2.810   4.737
10217W        W82543  43.865  10.220  14.889
10218W        W82544  44.987  10.155   3.158
10219W        W82545  31.496  16.656   2.793
10220W        W82546  11.150  20.585  10.936
10221W        W82547  26.613  32.897   3.332
10222W        W82548  32.940  12.225   0.732
10223W        W82549  23.678  20.613   2.394
10224W        W82550  15.254  23.636  14.928
10225W        W82551   1.404  14.277  12.414
10226W        W82552  31.538   1.863   3.220
10227W        W82553   4.370  30.478  14.868
10228W        W82554  11.786  22.690  13.044
10229W        W82555   6.902  29.090   4.769
10230W        W82556  43.505  11.321   0.962
10231W        W82557  25.528  16.713  12.013
10232W        W82558   3.306  32.927   1.334
10233W        W82559   7.210  44.270  12.965
10234W        W82560  20.079  10.256   4.209
10235W        W82561  24.164  23.173  13.051
10236W        W82562  31.646  37.974   3.374
10237W        W82563  11.632  18.062  14.776
10238W        W82564  40.331  30.009   3.759
10239W        W82565  12.153  23.688   0.335
10240W        W82566  34.481  43.392  12.081
10241W        W82567  39.854  12.181  14.338
10242W        W82568  40.039  41.462   2.762
10243W        W82569  21.035  43.483   4.260
10244W        W82570  40.913   0.892  10.934
10245W        W82571  31.982  37.415  14.803
10246W        W82572   5.822   4.228  10.481
10247W        W82573  33.437  33.921   3.680
10248W        W82574   9.766  44.007  13.533
10249W        W82575  23.497  19.569  12.944
10250W        W82576  31.538   0.909  11.918
10251W        W82577  33.014  18.202  10.906
10252W        W82578  18.253  29.126   3.250
10253W        W82579  12.198  14.619  12.961
10254W        W82580   7.825  27.953  13.375
10255W        W82581  43.019   4.242  11.580
10256W        W82582  19.240  35.430   3.632
10257W        W82583  33.128   4.361   4.782
10258W        W82584  27.617  31.905   0.899
10259W        W82585  25.678  11.166   1.281
10260W        W82586  14.625  18.064   1.861
10261W        W82587   9.379   8.310   3.765
10262W        W82588  38.916  44.432   3.313
10263W        W82589  37.860  38.356   0.784
10264W        W82590  15.794   6.185  14.864
10265W        W82591   3.378  25.979  11.961
10266W        W82592  41.024  40.885   1.719
10267W        W82593  43.382  41.915   4.805
10268W        W82594  25.971  43.271   3.298
10269W        W82595  22.625  24.066   4.297
10270W        W82596  31.024  41.020   3.347
10271W        W82597  29.469  11.752   1.862
10272W        W82598   7.866  39.045  14.308
10273W        W82599   8.163   6.285  13.813
10274W        W82600  21.732  15.125  12.510
10275W        W82601  16.732  21.109  10.953
10276W        W82602  22.033  38.424  11.606
10277W        W82603  22.128   4.763   4.763
10278W        W82604  28.534  27.673  13.364
10279W        W82605  28.654  25.028   0.758
10280W        W82606  36.528  39.918  13.930
10281W        W82607  22.560  21.606   4.199
10282W        W82608  35.875  11.665  10.413
10283W        W82609  32.527   3.902   0.948
10284W        W82610   7.379  12.257   2.748
10285W        W82611  28.162  31.152   3.190
10286W        W82612   8.688  16.205  10.989
10287W        W82613  12.321   6.814  14.959
10288W        W82614  28.617  26.554   4.650
10289W        W82615   2.808  41.989  14.999
10290W        W82616  36.357   0.863  13.014
10291W        W82617  35.397  37.931   4.320
10292W        W82618  20.741  41.428  10.606
10293W        W82619   3.397  34.982   0.387
10294W        W82620   5.881  28.075   0.463
10295W        W82621  28.998  23.131   0.903
10296W        W82622  11.348  15.242  14.776
10297W        W82623  20.149   9.811   3.669
10298W        W82624  34.893  38.386   3.188
10299W        W82625  40.471   7.845  14.449
10300W        W82626  19.268  12.336  13.894
10301W        W82627  24.989   3.254   1.426
10302W        W82628  30.065  27.957   0.957
10303W        W82629   2.791   2.837   2.398
10304W        W82630  14.253  13.144   0.918
10305W        W82631   8.306  21.628   0.918
10306W        W82632   9.290   7.221   0.366
10307W        W82633  37.511  42.967  13.507
10308W        W82634  42.308  15.125   1.700
10309W        W82635  24.502  11.361   1.862
10310W        W82636  41.952  10.829   3.305
10311W        W82637  33.955  35.481  11.063
10312W        W82638  44.351  30.056  14.496
10313W        W82639  38.998   4.848   0.810
10314W        W82640  30.022  10.744  11.089
10315W        W82641  29.451   4.438  13.533
10316W        W82642  30.542  26.679  12.405
10317W        W82643  37.382   1.460   0.244
10318W        W82644  27.491  41.297  14.843
10319W        W82645  10.766  43.432   2.374
10320W        W82646   8.345  39.410   2.890
10321W        W82647  17.588  38.921   3.371
10322W        W82648  32.607   2.413   0.815
10323W        W82649  19.256  43.429   0.469
10324W        W82650  23.176  16.266   4.823
10325W        W82651  11.213   6.728  14.948
10326W        W82652  13.682  11.650   3.764
10327W        W82653  37.837  44.421  12.532
10328W        W82654  26.983  25.510  11.392
10329W        W82655   6.194  11.717  11.069
10330W        W82656   6.406  27.621  11.908
10331W        W82657  31.573  28.146   0.912
10332W        W82658  30.142  38.333  10.417
10333W        W82659  29.951  32.595  12.836
10334W        W82660  18.635   2.778  10.635
10335W        W82661   6.681   6.701   0.313
10336W        W82662  29.963  33.475   3.308
10337W        W82663  25.987  32.958   3.146
10338W        W82664   6.333   1.878   2.714
10339W        W82665  17.221  23.237  13.011
10340W        W82666   2.871  10.661  10.894
10341W        W82667  36.552   4.401   1.935
10342W        W82668  37.065  16.715   4.211
10343W        W82669  41.916  18.630   2.317
10344W        W82670  19.750  23.649  12.921
10345W        W82671   0.768  31.020  10.597
10346W        W82672   3.283  37.989  11.494
10347W        W82673  23.559  10.635   3.375
10348W        W82674  13.208  18.216   1.787
10349W        W82675   9.390   7.713  11.491
10350W        W82676  13.795  36.078  11.017
10351W        W82677  29.982  26.114   2.759
10352W        W82678  30.074  30.128   3.776
10353W        W82679  35.033   0.413  11.425
10354W        W82680  31.594  38.063  13.980
10355W        W82681  18.201  18.687   0.761
10356W        W82682   3.758  30.094   1.292
10357W        W82683  15.784   8.170   4.349
10358W        W82684  42.500  22.653  10.559
10359W        W82685  16.091  22.674   2.269
10360W        W82686  27.451  11.355  10.457
10361W        W82687  25.205  30.472  14.346
10362W        W82688  32.123  20.582   1.241
10363W        W82689   2.406  22.020  10.011
10364W        W82690  40.975  19.174  13.957
10365W        W82691  12.794  32.936   0.388
10366W        W82692   5.762  43.777   0.325
10367W        W82693  40.889  41.507   4.666
10368W        W82694   0.885  24.004   0.368
10369W        W82695   7.815   4.276   2.801
10370W        W82696  42.976  39.490   2.244
10371W        W82697  14.223  19.044   4.177
10372W        W82698   7.245   9.853  11.557
10373W        W82699   1.336  26.603   4.212
10374W        W82700  31.452  19.546  12.441
10375W        W82701  21.229  17.065   0.792
10376W        W82702  27.129  26.958  13.891
10377W        W82703  39.352   0.320   1.881
10378W        W82704  17.564  12.641  14.996
10379W        W82705  26.493  42.398   1.334
10380W        W82706  28.012  43.825   0.272
10381W        W82707  43.392  10.648  14.347
10382W        W82708  39.904   5.303   0.860
10383W        W82709  37.834  24.618   2.187
10384W        W82710  24.668  33.520  12.538
10385W        W82711  30.588  26.071  13.828
10386W        W82712   4.212  38.930  12.344
10387W        W82713  13.843  42.026   1.840
10388W        W82714  19.630  41.867  12.517
10389W        W82715  17.697  15.642   2.364
10390W        W82716  36.057  18.557   2.205
10391W        W82717  41.819  38.047   4.827
10392W        W82718  12.193   1.975  12.558
10393W        W82719  22.734  24.573   2.748
10394W        W82720  11.290  14.797   0.260
10395W        W82721   5.920  25.712  11.572
10396W        W82722  43.353  41.921  11.432
10397W        W82723   5.926  11.754   4.670
10398W        W82724   9.265  44.859   2.761
10399W        W82725   1.846  27.496   0.340
10400W        W82726  43.507  41.322  13.438
10401W        W82727  22.605   8.281  11.587
10402W        W82728  12.740  15.160  14.405
10403W        W82729  33.448  43.936  14.794
10404W        W82730  24.203  41.406   1.412
10405W        W82731  37.831  30.532   5.314
10406W        W82732  26.098  42.923   2.664
10407W        W82733  44.358  22.742   4.176
10408W        W82734   7.714  29.154   1.447
10409W        W82735  42.289  28.030  13.518
10410W        W82736   6.274   4.895   3.763
10411W        W82737   1.914  32.635   4.329
10412W        W82738  24.142  26.533  14.991
10413W        W82739  40.970  39.830   3.842
10414W        W82740  16.316  32.894   0.454
10415W        W82741  25.107  43.792  12.415
10416W        W82742   0.791  35.866   3.767
10417W        W82743  32.441  27.091  14.314
10418W        W82744  29.638  28.165  14.371
10419W        W82745   3.309  33.983  12.868
10420W        W82746  10.708  21.263  11.557
10421W        W82747  30.027  16.741   4.725
10422W        W82748  40.456  16.678   4.614
10423W        W82749  34.501  42.346   2.851
10424W        W82750  26.190  36.361   3.713
10425W        W82751   3.344  22.657  11.412
10426W        W82752  31.550  23.043  13.449
10427W        W82753  22.614   4.296  13.050
10428W        W82754   7.383  30.559   4.606
10429W        W82755  10.194  13.624  13.883
10430W        W82756   2.830  13.674  13.539
10431W        W82757   7.823  35.576   1.778
10432W        W82758  22.117  43.800   4.291
10433W        W82759  18.661   1.955  10.544
10434W        W82760  32.619  19.693  10.467
10435W        W82761   7.185   0.786   0.265
10436W        W82762  33.915  38.867  14.425
10437W        W82763  35.568   1.925   1.306
10438W        W82764  26.684   8.279  14.976
10439W        W82765  24.672   8.706  12.414
10440W        W82766  35.966  16.602   2.276
10441W        W82767  16.200  12.704  14.422
10442W        W82768   2.730  33.029  12.843
10443W        W82769  39.875  35.464   1.249
10444W        W82770  25.599  30.518  11.113
10445W        W82771   3.328  28.113   0.888
10446W        W82772  44.886  40.459   2.182
10447W        W82773   4.281  18.708  10.923
10448W        W82774  23.194  14.256  12.437
10449W        W82775  11.680  18.111  12.526
10450W        W82776  27.001  10.178  12.951
10451W        W82777  42.953  41.452  10.491
10452W        W82778  17.069  13.627  14.848
10453W        W82779   8.335  14.701   1.720
10454W        W82780  42.818  14.286   3.343
10455W        W82781  32.487  31.917  13.883
10456W        W82782   9.856  10.784  11.036
10457W        W82783  32.635  26.001   1.310
10458W        W82784  41.794   7.233   1.266
10459W        W82785  31.941  38.428  11.533
10460W        W82786  23.506  23.084  11.590
10461W        W82787  16.188  39.535   1.349
10462W        W82788  41.520  23.695  14.953
10463W        W82789  14.100  13.696   4.171
10464W        W82790  18.777  22.167  10.568
10465W        W82791  29.423  23.734   4.259
10466W        W82792  26.641  35.483   2.737
10467W        W82793   0.305  31.038  12.447
10468W        W82794  16.771  37.950  11.593
10469W        W82795  43.021  27.595  13.422
10470W        W82796  10.335  21.556   3.823
10471W        W82797  39.938  29.513  11.585
10472W        W82798  23.050  41.020  12.447
10473W        W82799  12.236  36.563   1.764
10474W        W82800  13.800  43.989  10.570
10475W        W82801  36.386  25.118  12.385
10476W        W82802  16.799   9.384   3.151
10477W        W82803   2.360  21.197   9.476
10478W        W82804  16.231  30.938  13.309
10479W        W82805  38.959   5.250  10.531
10480W        W82806  37.851  37.553  13.052
10481W        W82807  42.419  33.129  12.531
10482W        W82808  39.370  17.763  14.479
10483W        W82809   9.219  31.998  13.800
10484W        W82810  22.097  32.906  12.862
10485W        W82811  19.188  18.279  12.936
10486W        W82812  33.884  40.860   0.398
10487W        W82813  39.359  37.025  11.486
10488W        W82814   4.344  36.086   4.726
10489W        W82815  26.595  18.195   1.446
10490W        W82816  12.237  35.018  13.961
10491W        W82817  41.343  27.006   3.859
10492W        W82818   7.875   8.770  14.501
10493W        W82819  36.415   3.258  14.357
10494W        W82820   5.328   2.809   2.268
10495W        W82821  38.995  12.340   0.475
10496W        W82822  40.018  42.332  13.908
10497W        W82823  38.415  44.264  10.112
10498W        W82824  35.449  38.842  14.458
10499W        W82825  29.662  39.509  11.901
10500W        W82826  35.981  32.529  14.360
10501W        W82827   7.330  43.010   4.807
10502W        W82828  28.116  22.611   2.700
10503W        W82829   3.820  33.552   2.691
10504W        W82830  17.166   4.774   0.395
10505W        W82831  22.071  32.600   4.238
10506W        W82832  31.633  44.496  10.475
10507W        W82833  36.074  40.502  13.025
10508W        W82834  32.620  28.496   2.678
10509W        W82835   0.418  18.177   2.378
10510W        W82836  41.043  10.873  12.435
10511W        W82837  10.209  15.283  13.508
10512W        W82838  17.114  17.168   3.689
10513W        W82839  15.753  32.402  13.468
10514W        W82840  29.485  27.666   3.848
10515W        W82841   8.892  16.249   3.678
10516W        W82842  13.105  18.761   1.934
10517W        W82843  29.935  22.628  13.793
10518W        W82844  30.984   9.369   0.955
10519W        W82845  20.718  13.710   3.835
10520W        W82846   5.908  38.443  14.438
10521W        W82847  31.486  15.246  13.929
10522W        W82848  14.806  29.657  12.519
10523W        W82849  33.484   9.784  11.127
10524W        W82850  36.880  19.114  14.349
10525W        W82851  30.019   8.730   2.323
10526W        W82852  18.147  13.772  14.350
10527W        W82853  29.568   7.216   4.825
10528W        W82854  42.788  38.493   2.316
10529W        W82855  22.601  36.846   2.791
10530W        W82856   6.850   8.345   4.350
10531W        W82857  10.673  40.937  14.004
10532W        W82858  30.013  38.518  13.012
10533W        W82859  36.999  26.100   0.481
10534W        W82860  29.025  33.022   3.639
10535W        W82861  44.479  36.557   1.229
10536W        W82862  34.461   0.861   4.216
10537W        W82863  27.086  16.194  10.544
10538W        W82864  18.210  35.543   2.780
10539W        W82865  17.613  40.436   0.384
10540W        W82866  12.676  30.543   1.868
10541W        W82867   2.253  38.452  10.645
10542W        W82868  28.017   4.296   3.721
10543W        W82869  35.416   6.285  14.865
10544W        W82870  41.797  41.341   4.328
10545W        W82871   6.779  30.579  11.857
10546W        W82872  25.159   2.311  11.095
10547W        W82873  41.386  41.027  11.935
10548W        W82874  15.206  40.959   1.777
10549W        W82875  28.576  24.014   2.363
10550W        W82876  41.977  13.121  10.602
10551W        W82877  18.768  33.431   4.262
10552W        W82878  10.775  37.492   1.388
10553W        W82879  44.873  35.959   0.331
10554W        W82880  33.914  24.113  12.570
10555W        W82881  36.544  42.470  13.027
10556W        W82882  21.117  27.659  14.438
10557W        W82883  33.111  38.073   0.840
10558W        W82884  13.738  31.953  13.316
10559W        W82885   3.337  37.401  11.056
10560W        W82886  31.603  34.055  13.024
10561W        W82887  39.887  32.935  13.451
10562W        W82888  37.543  21.262  12.065
10563W        W82889  15.692  39.814   2.782
10564W        W82890  38.383  31.138  13.043
10565W        W82891  10.365   6.783   3.194
10566W        W82892  22.679   9.262  10.927
10567W        W82893  21.224  35.421   2.734
10568W        W82894   1.838   3.873  13.953
10569W        W82895  24.128  18.091  13.891
10570W        W82896  15.262  34.556   0.381
10571W        W82897  15.226   9.305   0.828
10572W        W82898   0.778  22.197   9.936
10573W        W82899  36.971  14.826   3.828
10574W        W82900   7.304  20.681  10.569
10575W        W82901  23.199  37.023   3.668
10576W        W82902  30.946  23.215  14.023
10577W        W82903   6.182  29.101  12.346
10578W        W82904  36.939  26.190  14.305
10579W        W82905   8.169  23.555   3.265
10580W        W82906   4.424  17.592  11.999
10581W        W82907  18.270  15.723  14.308
10582W        W82908  15.578  43.974  10.908
10583W        W82909  41.318  13.185  13.467
10584W        W82910  43.420  41.040  13.903
10585W        W82911  19.563   4.822   2.838
10586W        W82912  18.555  40.319   2.328
10587W        W82913  25.567  10.313  10.970
10588W        W82914  18.240   4.874  12.495
10589W        W82915  37.386  27.507   1.406
10590W        W82916   9.292  37.494   0.419
10591W        W82917  27.538  39.055   0.347
10592W        W82918  40.442   6.378  12.894
10593W        W82919  23.615  25.186  13.396
10594W        W82920  33.610  17.795   5.314
10595W        W82921  14.236   6.907   1.426
10596W        W82922  27.640  26.207   5.123
10597W        W82923  20.240   7.852   4.245
10598W        W82924  18.771  43.871  13.903
10599W        W82925  39.462  26.479   4.738
10600W        W82926  14.605  28.538   2.251
10601W        W82927  21.628   7.180   0.314
10602W        W82928  31.124  35.566   0.474
10603W        W82929  23.551  24.529  12.884
10604W        W82930  34.396  35.012  12.875
10605W        W82931  39.454  24.214  13.039
10606W        W82932  35.571  20.700  10.564
10607W        W82933  36.952   8.292  11.074
10608W        W82934  35.878  17.655   0.273
10609W        W82935  42.014  12.218  10.599
10610W        W82936  39.358  19.775  13.405
10611W        W82937  40.896   9.388  10.636
10612W        W82938  25.515   2.932   1.739
10613W        W82939  41.814   1.962  13.522
10614W        W82940  38.551   5.835  11.901
10615W        W82941  36.558   0.414   0.740
10616W        W82942  25.479  38.898  12.473
10617W        W82943   2.437  15.668  14.477
10618W        W82944  30.080   5.405  14.392
10619W        W82945  10.687  13.294  11.943
10620W        W82946   8.781   3.853  10.889
10621W        W82947  24.583  39.518  14.474
10622W        W82948  27.556  13.189  14.857
10623W        W82949  33.599  30.498  13.532
10624W        W82950  20.556  14.742  11.982
10625W        W82951  21.653  40.355   1.261
10626W        W82952  29.077   9.249   0.246
10627W        W82953  12.195  10.363   4.812
10628W        W82954  26.472  12.628  10.566
10629W        W82955  35.987  12.225  12.564
10630W        W82956  36.900  22.732   1.379
10631W        W82957  10.321  13.253   1.702
10632W        W82958  22.032  30.139  13.407
10633W        W82959  44.895   6.219   1.724
10634W        W82960   5.272  34.495   2.372
10635W        W82961   5.408  15.661  12.055
10636W        W82962  23.995   3.343  10.425
10637W        W82963  34.593   5.197   2.247
10638W        W82964   1.944   1.262   3.785
10639W        W82965  30.022  24.508   3.700
10640W        W82966  42.921  38.989  11.608
10641W        W82967  33.107  39.958  13.801
10642W        W82968  16.134  41.001  10.922
10643W        W82969  39.917   5.410   2.357
10644W        W82970  21.103   8.676   0.408
10645W        W82971  41.955  11.853  12.568
10646W        W82972  32.906   0.272   3.357
10647W        W82973   7.349  25.696   4.828
10648W        W82974  28.038  27.549   2.354
10649W        W82975  30.447  38.845   3.631
10650W        W82976  18.722  22.196   1.271
10651W        W82977  41.883  40.351  12.914
10652W        W82978  42.469  34.397   2.380
10653W        W82979  21.675  43.357   0.891
10654W        W82980  24.020   9.783  14.281
10655W        W82981  32.096  36.882  11.893
10656W        W82982  28.443  33.562   0.246
10657W        W82983  34.989  10.263  14.016
10658W        W82984   8.201   9.806  14.937
10659W        W82985  10.703  36.369   4.751
10660W        W82986  18.719   3.435   4.203
10661W        W82987  21.195  40.948   0.936
10662W        W82988   1.821  15.748   1.934
10663W        W82989  11.838   7.237   4.684
10664W        W82990  27.569  39.389   1.258
10665W        W82991  22.154  22.037   3.201
10666W        W82992  28.456   5.331   4.699
10667W        W82993   6.310  41.006   2.827
10668W        W82994  44.418  16.792   1.849
10669W        W82995  30.570  33.485  13.894
10670W        W82996  24.710  12.615  13.060
10671W        W82997  25.476   5.893   4.782
10672W        W82998  44.334  26.012  12.082
10673W        W82999  16.251   0.485   1.212
10674W        W83000  15.232  30.425  13.537
10675W        W83001   9.684  12.689  13.790
10676W        W83002  30.623   5.796  12.889
10677W        W83003  34.876   4.787   2.369
10678W        W83004  39.811  24.043  13.968
10679W        W83005  30.497  42.426  13.349
10680W        W83006  19.169  22.247  10.980
10681W        W83007  39.406  35.026   0.903
10682W        W83008  20.192  24.585  14.298
10683W        W83009  34.084   9.370  11.440
10684W        W83010  38.467  25.052  12.053
10685W        W83011  18.638  33.917  13.377
10686W        W83012  43.841   3.268   3.178
10687W        W83013  18.161  28.115  13.018
10688W        W83014   0.856   9.725   5.679
10689W        W83015  36.980   0.744   4.141
10690W        W83016  34.438  13.221  10.554
10691W        W83017  36.367  18.686  11.879
10692W        W83018  32.631   1.240  14.406
10693W        W83019  38.390  23.207   1.324
10694W        W83020  20.224  42.322   0.928
10695W        W83021  34.453  10.226  10.495
10696W        W83022  19.768  36.501  12.878
10697W        W83023  20.272   3.422  12.391
10698W        W83024  40.302  30.160  13.900
10699W        W83025  23.660   1.888   0.905
10700W        W83026  34.916   0.903  14.869
10701W        W83027   3.238  10.375   0.763
10702W        W83028  19.543   3.218  13.827
10703W        W83029  12.151  34.052  12.435
10704W        W83030  27.602   8.351   0.899
10705W        W83031  36.995  16.167  10.493
10706W        W83032   9.832   4.767  10.460
10707W        W83033   6.907  22.578  13.036
10708W        W83034  18.702   2.910  11.579
10709W        W83035   6.258  15.793   0.342
10710W        W83036  26.617  36.088  13.444
10711W        W83037  41.907   0.918   0.858
10712W        W83038   8.393   5.352  12.980
10713W        W83039  39.535  21.649  14.484
10714W        W83040  36.406  21.052  11.451
10715W        W83041   2.457  25.482  10.478
10716W        W83042  25.981  29.937  10.459
10717W        W83043  31.054  11.657   2.383
10718W        W83044  22.215  26.626  11.855
10719W        W83045  18.145  34.393  12.384
10720W        W83046  27.586  27.595   5.123
10721W        W83047  24.660  29.625   0.739
10722W        W83048  18.084   7.679   4.647
10723W        W83049  11.712  42.975  13.932
10724W        W83050  38.381  26.965  11.871
10725W        W83051  16.221  41.006  10.552
10726W        W83052  13.168  26.110   2.687
10727W        W83053  36.914   2.857  14.999
10728W        W83054  31.924  27.073  10.426
10729W        W83055  35.457  42.407  13.532
10730W        W83056   5.205  21.225  12.880
10731W        W83057  14.804  44.324   9.987
10732W        W83058   7.237  32.010   2.407
10733W        W83059  34.466  17.595  13.545
10734W        W83060   7.181  23.511  14.029
10735W        W83061  19.670  24.563  11.527
10736W        W83062  17.799  43.336   1.783
10737W        W83063  22.512  40.416  13.344
10738W        W83064  39.559   4.438   4.285
10739W        W83065  23.180  36.036   0.362
10740W        W83066  44.815  16.716  12.005
10741W        W83067   9.644  14.125   3.239
10742W        W83068  13.222  23.708  13.896
10743W        W83069  10.377  19.729  11.604
10744W        W83070   6.920  22.210   4.167
10745W        W83071  14.823   7.301  14.930
10746W        W83072   3.227  14.127  14.896
10747W        W83073  13.337  13.306   4.259
10748W        W83074  18.726  19.558  12.376
10749W        W83075  29.140  33.876  11.555
10750W        W83076  35.547  11.342   3.666
10751W        W83077   2.829   9.207  12.092
10752W        W83078  12.825  22.233   0.457
10753W        W83079  10.835  11.868  12.563
10754W        W83080  14.206  30.005  13.008
10755W        W83081  32.580  34.536  12.568
10756W        W83082  23.124  25.714  14.968
10757W        W83083   6.856  11.206  14.846
10758W        W83084  19.121  28.026  11.877
10759W        W83085   7.714  13.800  12.504
10760W        W83086  27.592  15.198  13.330
10761W        W83087  44.308   9.678   1.866
10762W        W83088  42.874  38.014  10.623
10763W        W83089   4.296  43.009  13.963
10764W        W83090  36.559  13.309   2.724
10765W        W83091  25.090  32.990  11.582
10766W        W83092  28.997   6.839   2.901
10767W        W83093  26.039   8.843   3.273
10768W        W83094   0.965   3.746   5.165
10769W        W83095  22.592  12.276   1.842
10770W        W83096  33.891  31.050   1.219
10771W        W83097   4.744  16.774   4.616
10772W        W83098  38.385  41.962  14.427
10773W        W83099  34.987  21.613   0.330
10774W        W83100  32.564  18.771   2.329
10775W        W83101  12.317  42.878  10.461
10776W        W83102   1.938  42.498  14.761
10777W        W83103  41.530  43.275   2.338
10778W        W83104   2.847  43.803  13.314
10779W        W83105   4.905   8.770  11.947
10780W        W83106  26.203  36.401  14.321
10781W        W83107  31.057  34.005  14.006
10782W        W83108  22.747  10.728  11.981
10783W        W83109  26.979   3.263  10.988
10784W        W83110   3.784   9.338   4.828
10785W        W83111  19.734  20.665  10.927
10786W        W83112  40.512   0.803  10.160
10787W        W83113  29.539  40.547   1.385
10788W        W83114   6.803  21.212  11.440
10789W        W83115  34.029   3.871   0.246
10790W        W83116  12.711   6.217   2.235
10791W        W83117  12.247  42.416   0.299
10792W        W83118   2.435  33.387  10.086
10793W        W83119  40.039  37.573   2.196
10794W        W83120  32.449  23.161  12.356
10795W        W83121  44.896  42.295   0.246
10796W        W83122  30.086  30.442   3.362
10797W        W83123  42.486  36.424  12.507
10798W        W83124  11.707  44.325   0.410
10799W        W83125  15.648   7.729  10.540
10800W        W83126  26.195  13.666   3.672
10801W        W83127  40.012   2.346   3.269
10802W        W83128   3.260  15.735   3.354
10803W        W83129  10.203   8.379   1.303
10804W        W83130  40.964  19.043  10.497
10805W        W83131  28.644   7.881  14.805
10806W        W83132  41.916  26.624   5.236
10807W        W83133   3.849   0.901  13.880
10808W        W83134   3.329  14.131  11.022
10809W        W83135   5.348  34.985   1.447
10810W        W83136  14.198  28.604  12.034
10811W        W83137  11.735   3.842   4.180
10812W        W83138  26.953  33.899   2.743
10813W        W83139  19.651  25.703   1.920
10814W        W83140  17.125  44.452   1.901
10815W        W83141   5.306  30.954   1.769
10816W        W83142  34.961   0.843   4.625
10817W        W83143  28.008  23.721   3.353
10818W        W83144  27.484  19.066  12.429
10819W        W83145  21.217  27.522  10.000
10820W        W83146  42.861  40.329   4.605
10821W        W83147  28.100   9.878  13.949
10822W        W83148   8.266  44.325  12.079
10823W        W83149  23.172  16.642   0.449
10824W        W83150  12.311  25.552  11.427
10825W        W83151  34.013  31.422  12.980
10826W        W83152  23.492  26.185  13.465
10827W        W83153  14.311   1.863   4.722
10828W        W83154  32.107  22.203  12.960
10829W        W83155  12.730  31.999   9.969
10830W        W83156  28.143  34.586  12.920
10831W        W83157  14.205  14.280   1.905
10832W        W83158  11.343   3.850   4.794
10833W        W83159   1.802  18.087   0.421
10834W        W83160  36.914  43.460   3.348
10835W        W83161  41.463  38.011   2.696
10836W        W83162  15.650  19.593  10.128
10837W        W83163   8.374  43.381  12.984
10838W        W83164   2.797  34.107  12.457
10839W        W83165  34.511  24.008  14.343
10840W        W83166  11.768  44.754  12.389
10841W        W83167  38.034   3.754   4.607
10842W        W83168  22.572  19.149  14.315
10843W        W83169   9.332  13.640  11.857
10844W        W83170   6.301  25.183  12.522
10845W        W83171  13.179  17.728  12.539
10846W        W83172   6.771  25.014   1.700
10847W        W83173  21.126  35.572   4.630
10848W        W83174  37.459   0.898  13.335
10849W        W83175  30.587   4.765  13.856
10850W        W83176   2.728   5.231   0.922
10851W        W83177  20.263   7.185   0.863
10852W        W83178   2.282  36.380   2.318
10853W        W83179  10.789  24.058   1.365
10854W        W83180  20.660  15.271  14.995
10855W        W83181  21.663   2.778   4.201
10856W        W83182  20.122  21.725   3.855
10857W        W83183  40.459   0.783   0.327
10858W        W83184  14.762  34.541  13.862
10859W        W83185  25.675  25.469   0.784
10860W        W83186  11.825  19.041   1.705
10861W        W83187  23.136   1.872   3.345
10862W        W83188  21.624  36.418   2.322
10863W        W83189   3.770   6.203  14.364
10864W        W83190  39.406  17.190  11.040
10865W        W83191   6.341   7.267  10.522
10866W        W83192  32.547  26.975  12.076
10867W        W83193  18.073  17.102   0.297
10868W        W83194  32.561  38.009   2.393
10869W        W83195  34.584  10.315  11.539
10870W        W83196  30.992  16.633  11.009
10871W        W83197  11.365  17.095   4.631
10872W        W83198  30.553  14.162   1.881
10873W        W83199   5.336  44.992  10.964
10874W        W83200  18.170  40.308  12.355
10875W        W83201  36.931  42.022   3.218
10876W        W83202  19.155  40.994  14.006
10877W        W83203  36.848  16.799  14.019
10878W        W83204   6.877  41.835   1.350
10879W        W83205  24.021  40.332  11.863
10880W        W83206  27.014  42.871  12.352
10881W        W83207  41.795  39.982   3.283
10882W        W83208   3.737   1.975  10.114
10883W        W83209   7.344   7.897   3.167
10884W        W83210  25.118  10.642  13.424
10885W        W83211  36.434  18.788  11.503
10886W        W83212   4.209  44.378  13.506
10887W        W83213  40.863  37.072  11.475
10888W        W83214  39.504  15.595   4.723
10889W        W83215  29.499  21.119   0.746
10890W        W83216  25.639  17.637   9.658
10891W        W83217  29.086  14.311   2.714
10892W        W83218  40.820  40.335   0.357
10893W        W83219   0.964  20.087   4.800
10894W        W83220  36.405  19.260   1.339
10895W        W83221  30.542  38.846   1.814
10896W        W83222  44.917   8.331   0.831
10897W        W83223  18.254  21.570  14.969
10898W        W83224  21.676  27.602  13.898
10899W        W83225  42.345  22.613  10.899
10900W        W83226  41.967  25.665   2.385
10901W        W83227   4.918  13.685  12.456
10902W        W83228  17.735  39.461  12.549
10903W        W83229  22.742   3.815  13.380
10904W        W83230  43.909  21.574  13.343
10905W        W83231  36.846  36.911   2.823
10906W        W83232  36.365  41.896   3.847
10907W        W83233   6.807  42.928   3.212
10908W        W83234  24.692  17.727   5.626
10909W        W83235   2.801   7.835  11.555
10910W        W83236  14.320  39.834   3.791
10911W        W83237   3.856  16.777  11.469
10912W        W83238   7.296  22.673  13.976
10913W        W83239  30.118  20.117  12.089
10914W        W83240  35.430  35.393   0.365
10915W        W83241  44.770   3.732  14.323
10916W        W83242   6.746   7.843   4.191
10917W        W83243  36.982  41.808   1.729
10918W        W83244  18.741   2.306  13.827
10919W        W83245  30.448  18.765  13.016
10920W        W83246  35.555   7.847   2.859
10921W        W83247  24.191  11.769   4.256
10922W        W83248   1.270  36.027  14.445
10923W        W83249   4.336  17.603   2.185
10924W        W83250  12.333  33.397  10.442
10925W        W83251   7.738   7.215   3.235
10926W        W83252  16.247  11.220  10.573
10927W        W83253  34.960  33.985   2.317
10928W        W83254  26.186  40.464  14.008
10929W        W83255  15.791  34.519   1.849
10930W        W83256   1.777  24.078  12.414
10931W        W83257  44.907  23.564   1.366
10932W        W83258  19.276  23.593   0.329
10933W        W83259   1.840  29.076  10.491
10934W        W83260  42.987  44.500   3.687
10935W        W83261   7.856   4.799  12.423
10936W        W83262   2.866   3.786   3.232
10937W        W83263  13.283  29.440   4.599
10938W        W83264  18.089   7.673   1.312
10939W        W83265  18.581  10.802  13.993
10940W        W83266   2.791  30.960  12.526
10941W        W83267  13.213  11.323   3.277
10942W        W83268  15.307  27.046  14.317
10943W        W83269  13.346  25.614  14.496
10944W        W83270  13.268  44.011   2.703
10945W        W83271  39.954   1.978  13.880
10946W        W83272  29.551   0.361   3.201
10947W        W83273   7.675  32.103  10.952
10948W        W83274  20.734  16.270  12.920
10949W        W83275  38.984  16.571   1.350
10950W        W83276  23.629  23.549  12.843
10951W        W83277  38.030  42.995  14.504
10952W        W83278  27.977  12.233   9.961
10953W        W83279   3.722  41.471   3.640
10954W        W83280  21.757  41.360  13.344
10955W        W83281  27.137  31.544   3.793
10956W        W83282   5.853  33.618  12.561
10957W        W83283  29.621   9.368  14.392
10958W        W83284  11.667   6.761  11.511
10959W        W83285  14.323  14.175  11.875
10960W        W83286  16.708  26.080   3.701
10961W        W83287   0.862  41.314  11.080
10962W        W83288   2.942  34.544  13.419
10963W        W83289  31.093  34.106   4.788
10964W        W83290   2.369  34.113  13.385
10965W        W83291  31.031  42.973  12.941
10966W        W83292  41.519  11.797   3.719
10967W        W83293   6.860  43.905   1.837
10968W        W83294  44.294   1.906  13.844
10969W        W83295  27.652  28.450   5.216
10970W        W83296   0.478  31.427  14.808
10971W        W83297   4.379  24.561   4.209
10972W        W83298  44.388   7.378   4.280
10973W        W83299   1.764  18.235   2.864
10974W        W83300  17.084  30.041   3.206
10975W        W83301   1.741  12.693  10.486
10976W        W83302  10.766   8.164  11.449
10977W        W83303  40.521  40.919  12.395
10978W        W83304  32.985  34.502   1.749
10979W        W83305  28.643  43.892  14.962
10980W        W83306  15.283  20.574   2.385
10981W        W83307  14.762  17.740  11.598
10982W        W83308  41.481   6.853  13.451
10983W        W83309  27.678  31.987  14.940
10984W        W83310  24.208  11.647  11.592
10985W        W83311   6.247  42.880   2.324
10986W        W83312  41.951  24.216  11.938
10987W        W83313   0.278  27.447   4.311
10988W        W83314  37.506  10.206   3.691
10989W        W83315  18.267  20.224  11.956
10990W        W83316  12.845   1.825  10.888
10991W        W83317  24.123  18.125  10.014
10992W        W83318  27.598  27.455  13.816
10993W        W83319  42.817  10.140   1.934
10994W        W83320  20.268  31.982   2.220
10995W        W83321  43.787  42.338   0.255
10996W        W83322  19.097  19.165  13.798
10997W        W83323   1.877  42.892   1.821
10998W        W83324   0.395  31.993   0.304
10999W        W83325  38.943  23.576   5.173
11000W        W83326  34.478  34.406   1.235
11001W        W83327  37.954   1.293   4.821
11002W        W83328  22.516  35.004  12.398
11003W        W83329  27.026  26.990  13.524
11004W        W83330  44.757  14.805  14.032
11005W        W83331  33.959  15.238   2.188
11006W        W83332   5.789  33.585  14.975
11007W        W83333  14.322   6.775  11.465
11008W        W83334  44.782  42.940   0.352
11009W        W83335   5.338  13.351  12.413
11010W        W83336  35.056  39.468  13.918
11011W        W83337  38.892  40.901  14.304
11012W        W83338  14.327  30.978   2.718
11013W        W83339   0.341  11.767  13.012
11014W        W83340   6.225  20.062  14.472
11015W        W83341  32.622  21.093   1.442
11016W        W83342  30.030  18.733   0.389
11017W        W83343  18.725  11.373   1.794
11018W        W83344  27.616  13.207   3.690
11019W        W83345  27.671  26.005  10.999
11020W        W83346  38.000  38.883  10.496
11021W        W83347   2.900  43.935  11.929
11022W        W83348  40.500  42.440   0.908
11023W        W83349   4.704   6.684   3.724
11024W        W83350  16.812  44.480  13.345
11025W        W83351   6.844  12.231   0.783
11026W        W83352  12.807  43.917   1.825
11027W        W83353  13.252   6.919  12.090
11028W        W83354   5.818   3.746   1.738
11029W        W83355  36.458  25.601  11.943
11030W        W83356   6.274  14.791   3.868
11031W        W83357  12.796   3.460   3.750
11032W        W83358   9.678  14.335   1.365
11033W        W83359  31.496  17.734  13.388
11034W        W83360  41.371  16.301  13.873
11035W        W83361  19.722   1.312   0.337
11036W        W83362  13.151   0.367  14.374
11037W        W83363  34.548  19.271   4.284
11038W        W83364  21.031  34.600   4.812
11039W        W83365  14.316  35.501  12.345
11040W        W83366  21.738  20.163  14.432
11041W        W83367  35.587   6.376   4.720
11042W        W83368   2.790   6.870  12.577
11043W        W83369  11.623  41.002  12.501
11044W        W83370  16.084  29.923   4.799
11045W        W83371  13.641  35.528   4.708
11046W        W83372   0.344   8.377   2.259
11047W        W83373  29.121  22.557   0.452
11048W        W83374  29.426  31.088   2.745
11049W        W83375  12.207  36.518   0.270
11050W        W83376  33.967  29.962  14.369
11051W        W83377  13.634  23.190  10.479
11052W        W83378  15.752  36.521   0.837
11053W        W83379  35.046  15.238   2.785
11054W        W83380   9.690  34.519   1.915
11055W        W83381  25.997  11.162   0.960
11056W        W83382  24.007  29.976   2.869
11057W        W83383  16.290  41.946   4.618
11058W        W83384  32.637  21.667   0.271
11059W        W83385   3.813  31.929   0.340
11060W        W83386   8.657   2.434   3.337
11061W        W83387  22.657  27.052   2.380
11062W        W83388  16.241  30.458  12.087
11063W        W83389  12.229  23.622   1.698
11064W        W83390  39.486  17.261   3.257
11065W        W83391  30.970   6.288   4.309
11066W        W83392  18.631  12.313   4.214
11067W        W83393  23.182  37.073  14.433
11068W        W83394  14.197  37.923   3.274
11069W        W83395  18.628  20.763  14.324
11070W        W83396  22.239  14.758   0.286
11071W        W83397  31.507  26.186   3.171
11072W        W83398  19.079  25.973   3.337
11073W        W83399  41.840  39.449  11.489
11074W        W83400   0.893  44.976  11.999
11075W        W83401  38.919   4.715   2.281
11076W        W83402  14.754  28.637   3.634
11077W        W83403  19.158  36.571   0.889
11078W        W83404  36.069  40.303   1.912
11079W        W83405  18.771  33.550  14.011
11080W        W83406   7.397  41.309   1.310
11081W        W83407  27.137  19.765  12.550
11082W        W83408  42.865  12.694  13.440
11083W        W83409  31.963   6.252  14.875
11084W        W83410   3.894  11.159   2.192
11085W        W83411  21.178  27.028   2.329
11086W        W83412  39.834  30.036   0.256
11087W        W83413   6.357  40.319  10.100
11088W        W83414  30.114  27.450   4.249
11089W        W83415  42.285  14.284  10.963
11090W        W83416  23.228  13.245  11.540
11091W        W83417  24.108   1.362  14.787
11092W        W83418  12.201  12.716   2.272
11093W        W83419  42.408  21.680  13.521
11094W        W83420  34.061  26.518  12.439
11095W        W83421  19.759  29.648  12.370
11096W        W83422  41.323  18.680  14.794
11097W        W83423   2.264  32.008   0.260
11098W        W83424  19.663  35.951  11.411
11099W        W83425  33.036   4.808  13.470
11100W        W83426  31.985  15.634   0.742
11101W        W83427  39.515  14.102   5.166
11102W        W83428   8.836  44.849   2.214
11103W        W83429  32.138  25.117  14.352
11104W        W83430   1.444   2.956   4.685
11105W        W83431  36.028   1.332   1.862
11106W        W83432  16.161  10.316  10.948
11107W        W83433   3.266   3.816  11.027
11108W        W83434  36.074   3.774  11.991
11109W        W83435  32.491   6.362   0.277
11110W        W83436  41.421   7.911  13.537
11111W        W83437  34.908  37.989   0.901
11112W        W83438  34.393   3.340   0.840
11113W        W83439  26.563  27.992   1.288
11114W        W83440  33.549  44.798   3.806
11115W        W83441  12.182   7.772  14.960
11116W        W83442  43.962  26.981   1.834
11117W        W83443   1.813  25.177   0.260
11118W        W83444  36.872  21.230   1.864
11119W        W83445  35.105  29.065   2.362
11120W        W83446  42.793  39.998  11.423
11121W        W83447  28.670  11.804   1.714
11122W        W83448  28.590   8.194   0.799
11123W        W83449  18.640  19.612   3.184
11124W        W83450   8.257  32.409   0.469
11125W        W83451  27.166  16.263   2.787
11126W        W83452  16.646  12.199   4.158
11127W        W83453  31.441  28.173  11.941
11128W        W83454  14.749  26.576  14.416
11129W        W83455  14.255  29.610   3.356
11130W        W83456   7.180  21.028  10.573
11131W        W83457  32.621   4.739  12.912
11132W        W83458  30.969  28.630  12.452
11133W        W83459  23.076  30.111  10.999
11134W        W83460  35.074  16.570  13.795
11135W        W83461  29.480  26.134  12.842
11136W        W83462  25.976  15.132   2.868
11137W        W83463  33.973  37.437   1.934
11138W        W83464  22.548  40.332  10.139
11139W        W83465  22.164  30.134   2.806
11140W        W83466  25.091  11.691   4.656
11141W        W83467  41.334  36.586   5.201
11142W        W83468  33.591   3.880  11.012
11143W        W83469   3.710  36.866   2.207
11144W        W83470   4.327  35.070  14.934
11145W        W83471  16.622  12.627   3.718
11146W        W83472   7.753  42.472  11.387
11147W        W83473  32.044  19.635  14.944
11148W        W83474   0.874  32.093   3.676
11149W        W83475  38.987  14.121  10.484
11150W        W83476  30.157  17.236  10.645
11151W        W83477  36.559  33.086   0.742
11152W        W83478  15.234  22.595   2.882
11153W        W83479  28.594  20.234  10.968
11154W        W83480  40.004  34.516   2.879
11155W        W83481  22.095  16.198   1.391
11156W        W83482  21.112  40.906   1.859
11157W        W83483   2.813  35.429  11.412
11158W        W83484  40.049  20.567  13.938
11159W        W83485  23.179   4.940   2.304
11160W        W83486   7.235   8.725   5.181
11161W        W83487   8.265  44.290   0.293
11162W        W83488  21.242  18.158   0.291
11163W        W83489   8.727  40.447   1.811
11164W        W83490  31.542  37.941  12.394
11165W        W83491  21.708   4.368   4.263
11166W        W83492  33.887   2.895   0.961
11167W        W83493  32.073  21.526   2.893
11168W        W83494  33.112  29.568  14.980
11169W        W83495   2.907  19.553   2.408
11170W        W83496  15.623   9.730  11.553
11171W        W83497  27.122  43.998   1.317
11172W        W83498  17.165  17.690  10.537
11173W        W83499  41.416   1.972   3.834
11174W        W83500  24.183  20.142   2.371
11175W        W83501  14.763  23.528  13.036
11176W        W83502  36.362  25.010   1.870
11177W        W83503  36.863   6.421  11.588
11178W        W83504  37.575   1.891   1.279
11179W        W83505  18.159  37.069  10.511
11180W        W83506  29.471  21.729  10.603
11181W        W83507  18.711  26.086  12.965
11182W        W83508  31.620  20.722   4.677
11183W        W83509  15.633   2.259   0.465
11184W        W83510  38.440   4.243   1.348
11185W        W83511  26.512  31.912   3.156
11186W        W83512  27.485  39.539   3.230
11187W        W83513  28.997  20.189   4.813
11188W        W83514  14.629  16.191   2.311
11189W        W83515  40.986  35.940  11.513
11190W        W83516  18.715   9.832   3.172
11191W        W83517  10.699  31.429  10.937
11192W        W83518  23.661   3.442   3.809
11193W        W83519  42.394  33.599   2.369
11194W        W83520  32.595  13.725   3.851
11195W        W83521  26.606  18.199   0.365
11196W        W83522  34.865   6.711  10.509
11197W        W83523  20.604   7.217   1.876
11198W        W83524   3.392  26.502  12.452
11199W        W83525  13.296  14.651   3.824
11200W        W83526   5.728  40.376   1.700
11201W        W83527  30.998  22.640  11.004
11202W        W83528  31.970  44.776  13.979
11203W        W83529  12.297  10.227   0.454
11204W        W83530   2.838  15.728   1.756
11205W        W83531   7.192  12.762  13.533
11206W        W83532  44.811  10.264  14.486
11207W        W83533   7.395  26.112   3.346
11208W        W83534   8.298  23.699  10.628
11209W        W83535   3.297  44.763  12.067
11210W        W83536  14.706  24.115  11.857
11211W        W83537  18.066   9.360  11.912
11212W        W83538  31.900  41.004   3.171
11213W        W83539  13.270  20.633  11.440
11214W        W83540   1.848   0.775  13.954
11215W        W83541  31.503   7.410  13.399
11216W        W83542  40.476  21.078  12.514
11217W        W83543  31.639  27.489   2.826
11218W        W83544  29.588  35.957  11.433
11219W        W83545  20.639  17.139   1.415
11220W        W83546  42.296  19.760   4.695
11221W        W83547  20.554  12.180  11.389
11222W        W83548  22.116  24.042   4.781
11223W        W83549  16.196  38.435   2.348
11224W        W83550  32.442  42.793  10.944
11225W        W83551  21.262  42.434   4.672
11226W        W83552  29.141  30.555   2.725
11227W        W83553  17.129   7.718   2.200
11228W        W83554  13.148  44.810   3.359
11229W        W83555  39.406  12.169  12.068
11230W        W83556  36.370  23.020   2.397
11231W        W83557  44.935  42.902   2.397
11232W        W83558  28.144  12.621   4.171
11233W        W83559  29.483  29.981   4.821
11234W        W83560  25.677   1.315  13.326
11235W        W83561   2.800  44.275   0.262
11236W        W83562  25.576  18.074   1.378
11237W        W83563   9.660  43.271  13.510
11238W        W83564   8.199  31.478  12.958
11239W        W83565  24.555  34.554  11.957
11240W        W83566  27.981  28.047  12.508
11241W        W83567  12.321  14.166   2.896
11242W        W83568  28.010  13.243   3.250
11243W        W83569  14.339  36.458   2.713
11244W        W83570  41.313   9.184  10.462
11245W        W83571  27.666  28.119  12.540
11246W        W83572  21.558   2.920   0.423
11247W        W83573  17.099  40.960  10.501
11248W        W83574  35.577  34.425  12.082
11249W        W83575  42.962  25.128  14.024
11250W        W83576  38.837   2.367   3.839
11251W        W83577  36.367   3.725   3.675
11252W        W83578   2.386  29.659  12.968
11253W        W83579   1.276   9.720   0.877
11254W        W83580  41.036  40.867  11.601
11255W        W83581  36.468   2.462  11.588
11256W        W83582  24.081  33.393  14.959
11257W        W83583  33.109  30.606   3.799
11258W        W83584  30.646  18.275  10.921
11259W        W83585  17.209  30.609  11.875
11260W        W83586  21.722  22.192   3.187
11261W        W83587  24.723  34.966   1.358
11262W        W83588  33.418  37.020   1.390
11263W        W83589  38.514  19.158  13.860
11264W        W83590  10.257  30.137  14.009
11265W        W83591   8.856  40.367  11.483
11266W        W83592  31.559   5.740   3.374
11267W        W83593  12.246  14.307  10.574
11268W        W83594   5.323  35.531   2.855
11269W        W83595  12.744  41.955  11.101
11270W        W83596   9.245  19.630  10.976
11271W        W83597  19.052  11.316   3.342
11272W        W83598  42.018   4.862   0.262
11273W        W83599  14.767  33.025   4.637
11274W        W83600   6.229   1.330   1.260
11275W        W83601  13.817   0.255  14.342
11276W        W83602  30.414  17.697   3.683
11277W        W83603  22.220  41.008   1.776
11278W        W83604  28.032  27.069   2.393
11279W        W83605  16.689  10.664   0.910
11280W        W83606  25.093   2.958  12.527
11281W        W83607   1.835   9.161  10.928
11282W        W83608   9.728  17.638   0.872
11283W        W83609   7.779  16.599   0.464
11284W        W83610  34.541  40.472  11.455
11285W        W83611  12.852  14.152  11.936
11286W        W83612   3.728  10.346  12.422
11287W        W83613  11.261   5.344  14.375
11288W        W83614  21.051  13.235   2.716
11289W        W83615   8.808  21.691  14.374
11290W        W83616  29.002  27.478  14.998
11291W        W83617  25.557  37.560   1.440
11292W        W83618  27.585  42.303   0.942
11293W        W83619   2.397  20.749   3.754
11294W        W83620  20.041  39.444  14.882
11295W        W83621   2.337  43.956   2.286
11296W        W83622  42.311   1.742  11.529
11297W        W83623  21.755  25.021  13.487
11298W        W83624   4.872  11.754   2.322
11299W        W83625  19.112  10.636  11.413
11300W        W83626  29.160  14.643   3.314
11301W        W83627  28.467  42.428  13.012
11302W        W83628   3.885  44.918   2.775
11303W        W83629   2.407   4.743   2.387
11304W        W83630  18.122  44.498  14.427
11305W        W83631   3.328  17.090  11.066
11306W        W83632  11.321  26.623  11.954
11307W        W83633  14.323  27.582   3.677
11308W        W83634  43.799  25.477  13.049
11309W        W83635  23.148  20.028   0.261
11310W        W83636  29.971   8.888  12.544
11311W        W83637  15.761   8.758  10.118
11312W        W83638  18.657  29.428  11.404
11313W        W83639  41.868  15.086   4.603
11314W        W83640  31.507  24.017   4.604
11315W        W83641  17.287  39.495  13.024
11316W        W83642  38.821   1.245  11.021
11317W        W83643  12.832  15.582   1.925
11318W        W83644  14.766  33.458   0.925
11319W        W83645  38.389  26.993  10.621
11320W        W83646  29.434   4.393   4.688
11321W        W83647  33.902  17.650   0.866
11322W        W83648  43.849  21.071  14.918
11323W        W83649   4.894  39.904   0.855
11324W        W83650  35.067  15.177  13.854
11325W        W83651  26.153   8.722  11.987
11326W        W83652   0.352  30.929   4.306
11327W        W83653   9.204  27.609   0.914
11328W        W83654  28.958  43.977  14.769
11329W        W83655  10.731  13.303  10.553
11330W        W83656  11.171  22.578  12.491
11331W        W83657   6.351  29.037  13.522
11332W        W83658  41.350  24.550  13.331
11333W        W83659  15.737   3.391   1.389
11334W        W83660  15.680  31.012  10.992
11335W        W83661  24.701   9.668   3.777
11336W        W83662  32.392  32.520   1.827
11337W        W83663   4.207  39.934   1.851
11338W        W83664  11.129  29.010  10.903
11339W        W83665  25.097   4.229   3.174
11340W        W83666   4.410  26.195  11.375
11341W        W83667  21.532  12.829   0.386
11342W        W83668   1.473  16.080  11.064
11343W        W83669  37.893  13.121   5.151
11344W        W83670  25.568  18.548  11.482
11345W        W83671   0.774  20.739   3.739
11346W        W83672  13.722  36.036   3.727
11347W        W83673  19.665  36.457   5.306
11348W        W83674  28.626  22.724  11.523
11349W        W83675  12.295  41.035   1.804
11350W        W83676  41.032  33.882   4.615
11351W        W83677  39.979  41.308   2.387
11352W        W83678  30.076  43.879   3.360
11353W        W83679  22.529  27.646  11.887
11354W        W83680  18.288  16.267  11.485
11355W        W83681  12.846  41.449  12.560
11356W        W83682  39.915  18.587   0.866
11357W        W83683  39.459  35.899  14.836
11358W        W83684  27.185   5.731  13.946
11359W        W83685  19.754  41.905   3.337
11360W        W83686  32.462  10.791   3.741
11361W        W83687  35.042  28.941   3.385
11362W        W83688  20.714   3.902  12.532
11363W        W83689   2.268  20.082   3.853
11364W        W83690   7.850  21.520  12.531
11365W        W83691  24.173  35.373   1.246
11366W        W83692   5.712  12.350  11.510
11367W        W83693  21.753  33.060  12.465
11368W        W83694  11.848   3.267   1.893
11369W        W83695  13.159  34.993   0.838
11370W        W83696  41.015  25.576  10.593
11371W        W83697  26.693  36.551  11.525
11372W        W83698  39.003   3.841   4.625
11373W        W83699  22.645  28.470   4.203
11374W        W83700  11.229   5.772   4.750
11375W        W83701  31.060  29.066  10.551
11376W        W83702  44.460  18.203   2.293
11377W        W83703  27.181  12.771  13.986
11378W        W83704  19.080  26.536   0.274
11379W        W83705  10.170  25.472   4.255
11380W        W83706  27.006  20.248   2.411
11381W        W83707  14.255  17.097   2.213
11382W        W83708  18.072   7.407  14.997
11383W        W83709   9.644   7.384  11.418
11384W        W83710  30.921  24.181   4.752
11385W        W83711  29.638   2.762   4.237
11386W        W83712  27.058  38.898   1.802
11387W        W83713  26.995  33.893  10.571
11388W        W83714   0.953  17.202  10.945
11389W        W83715  31.039  12.276   0.954
11390W        W83716  11.809  17.134  12.932
11391W        W83717  38.400  37.072  12.048
11392W        W83718  33.935   0.447  14.885
11393W        W83719  22.746   1.386  10.993
11394W        W83720  21.213  26.113  11.377
11395W        W83721  24.517   0.840   2.731
11396W        W83722  31.000  37.414   1.299
11397W        W83723  11.842  27.625   9.963
11398W        W83724   8.397  33.952   1.772
11399W        W83725  38.478  37.065   3.712
11400W        W83726  13.351  41.443   5.183
11401W        W83727  35.480  26.986  12.834
11402W        W83728  17.681  19.228  14.027
11403W        W83729   8.164  43.862   3.320
11404W        W83730  44.896  39.851  12.567
11405W        W83731   6.869  10.351   0.950
11406W        W83732  25.516  29.519   5.163
11407W        W83733  12.177  37.005   4.326
11408W        W83734   8.896  36.908   0.800
11409W        W83735   2.942  27.458  14.908
11410W        W83736  34.045  29.921  14.874
11411W        W83737   3.375  13.661  11.034
11412W        W83738  39.972  32.050  14.018
11413W        W83739  32.501  30.013   0.254
11414W        W83740  40.936  15.586   2.715
11415W        W83741  13.300  41.989   0.360
11416W        W83742  11.683  34.550  13.797
11417W        W83743   2.728   1.774  10.126
11418W        W83744  24.036  22.632   4.706
11419W        W83745  32.505  15.622   2.818
11420W        W83746  34.539  40.946   2.199
11421W        W83747  33.450  19.592   3.301
11422W        W83748  36.580  34.401   3.336
11423W        W83749   2.728  38.508   1.852
11424W        W83750   9.229  39.321  14.279
11425W        W83751  38.950   7.881  12.006
11426W        W83752  34.559  18.690   0.252
11427W        W83753  15.716  17.592  14.448
11428W        W83754  23.030  20.636   2.180
11429W        W83755  37.024  13.832   0.894
11430W        W83756   2.456   4.841   5.221
11431W        W83757  37.899   3.720  13.889
11432W        W83758  10.725  13.714   3.769
11433W        W83759   8.898  44.973  10.991
11434W        W83760   0.952   7.669  13.026
11435W        W83761   7.748  11.341  14.296
11436W        W83762  26.109  16.611  13.443
11437W        W83763   0.839  40.315  14.479
11438W        W83764  10.152  22.202   0.917
11439W        W83765  40.964  43.900  12.388
11440W        W83766  17.115  28.454  12.485
11441W        W83767  12.200   5.739   1.934
11442W        W83768   4.254   6.181   1.420
11443W        W83769  13.616  10.822  11.389
11444W        W83770  23.612  19.590   4.797
11445W        W83771  37.489   2.266   4.707
11446W        W83772  24.123  23.994   3.673
11447W        W83773  11.359   1.817   2.838
11448W        W83774  28.592   7.697   0.817
11449W        W83775   3.421   2.455  12.463
11450W        W83776  35.956  45.000   3.153
11451W        W83777  20.537  26.114   0.408
11452W        W83778  27.518   5.343  11.961
11453W        W83779   3.859  38.908  13.464
11454W        W83780  20.077  33.437   4.749
11455W        W83781  39.383   7.273   1.744
11456W        W83782   1.758  29.568   0.770
11457W        W83783  23.589   6.344   2.697
11458W        W83784  20.169  29.427   0.323
11459W        W83785  44.794   2.722  11.056
11460W        W83786  36.488  33.967   4.351
11461W        W83787   0.322  14.181  14.332
11462W        W83788  31.078  39.910  10.968
11463W        W83789   0.746   3.943  11.594
11464W        W83790  15.746   1.769   9.970
11465W        W83791   6.369   8.356  12.023
11466W        W83792  40.016  21.142  13.894
11467W        W83793  31.521  42.973   2.363
11468W        W83794  18.101  15.745   2.817
11469W        W83795  21.163  37.077   4.741
11470W        W83796  30.595  22.593  10.444
11471W        W83797  17.569   9.210  11.093
11472W        W83798   6.208  32.905   1.888
11473W        W83799  11.797  33.118   1.330
11474W        W83800  13.662  10.654  14.825
11475W        W83801   1.330  44.462  10.518
11476W        W83802  38.520   4.744   2.876
11477W        W83803   8.213  42.030   0.412
11478W        W83804  15.311   3.291  11.550
11479W        W83805  32.503  33.111  13.035
11480W        W83806  32.099   7.278   9.937
11481W        W83807  32.031  23.521  10.427
11482W        W83808  22.702  12.821   2.747
11483W        W83809  19.193  10.320  14.779
11484W        W83810   4.279  19.181   3.245
11485W        W83811  28.677  31.491  14.830
11486W        W83812  41.494  20.615  10.974
11487W        W83813  24.063  12.351  13.424
11488W        W83814  15.218  19.569  13.344
11489W        W83815  34.942  33.001   9.449
11490W        W83816  38.460  36.406  14.846
11491W        W83817  31.566  22.603   2.342
11492W        W83818  44.011  31.417  10.528
11493W        W83819  11.844  16.238  13.932
11494W        W83820   3.853  33.026   0.762
11495W        W83821   8.222   8.820   4.622
11496W        W83822  15.301  17.096  11.428
11497W        W83823  17.679  19.555  12.847
11498W        W83824  36.997  28.039   0.368
11499W        W83825  38.430  26.533  14.312
11500W        W83826  17.560  19.772   1.928
11501W        W83827   1.425  39.381   3.205
11502W        W83828  11.197  17.615  11.373
11503W        W83829  37.011  33.989   3.746
11504W        W83830   8.890  25.964  12.412
11505W        W83831  22.594   2.950   3.359
11506W        W83832  11.829  14.745   3.313
11507W        W83833  23.101   7.872  12.504
11508W        W83834  26.133  16.703  13.862
11509W        W83835  19.758  40.984  13.442
11510W        W83836   2.944  29.441   4.133
11511W        W83837  18.790  33.570   0.319
11512W        W83838  28.962  14.269   4.653
11513W        W83839  39.946  44.503   1.929
11514W        W83840   2.436  22.529   9.968
11515W        W83841  24.102  41.448   0.243
11516W        W83842  40.802   0.773   4.623
11517W        W83843   5.708  13.253   2.276
11518W        W83844   2.919  24.219  13.900
11519W        W83845  36.565  10.384  12.463
11520W        W83846  22.600  17.077  13.381
11521W        W83847  38.918  23.038  14.386
11522W        W83848   5.251  41.463   2.358
11523W        W83849  23.002  20.767  12.462
11524W        W83850   0.271  41.434   2.256
11525W        W83851  36.583  14.591  14.396
11526W        W83852  38.984   6.730   2.843
11527W        W83853  40.470  37.398   1.386
11528W        W83854  39.430  40.799   3.224
11529W        W83855   9.290  38.483   4.174
11530W        W83856  35.028  43.332   1.271
11531W        W83857  31.064  18.769  14.785
11532W        W83858  40.027  19.757  12.965
11533W        W83859  40.873  20.644  14.856
11534W        W83860  26.496   9.282  12.475
11535W        W83861  21.247  43.431  13.372
11536W        W83862  15.187   6.346  13.434
11537W        W83863  41.835   4.833   3.811
11538W        W83864  39.910   0.422  11.016
11539W        W83865  13.140  40.497   0.755
11540W        W83866   4.774  31.996   0.818
11541W        W83867  26.052   3.307   2.329
11542W        W83868  39.945  10.788  13.939
11543W        W83869   0.951  26.649  13.992
11544W        W83870  44.876  35.453   0.821
11545W        W83871  38.344  23.141   2.298
11546W        W83872  37.033   8.725   1.270
11547W        W83873  13.171  26.027   2.384
11548W        W83874  19.534  26.999   0.448
11549W        W83875   6.919   2.930  10.578
11550W        W83876  12.242  32.590   3.301
11551W        W83877   6.353  30.111   3.219
11552W        W83878   8.882   5.405   0.939
11553W        W83879  30.933  16.176  11.989
11554W        W83880  27.692   1.462   0.924
11555W        W83881  11.857   5.291  13.034
11556W        W83882  39.403  21.051  10.606
11557W        W83883  13.215   3.905  10.593
11558W        W83884  27.949  28.470  11.099
11559W        W83885  43.378   3.329   1.445
11560W        W83886  10.301  16.082   0.478
11561W        W83887  44.884  16.083   1.221
11562W        W83888  18.578  37.084   0.871
11563W        W83889  11.693  44.389   1.932
11564W        W83890  17.252  41.934  10.007
11565W        W83891  21.582  44.933  11.513
11566W        W83892  43.386  43.850  12.501
11567W        W83893  44.417   8.366   1.283
11568W        W83894   7.806  12.805  11.446
11569W        W83895  14.824  31.044  10.519
11570W        W83896  13.777   6.263   2.798
11571W        W83897   8.677  10.685   4.327
11572W        W83898  39.321  25.654  10.615
11573W        W83899  27.480   9.677  12.957
11574W        W83900  43.442   9.786  10.504
11575W        W83901  38.939   6.896   0.856
11576W        W83902  34.373  33.512  11.447
11577W        W83903   9.657  32.429   4.164
11578W        W83904   9.771   0.434  11.446
11579W        W83905  32.484  17.799   1.807
11580W        W83906  43.398   8.347   4.235
11581W        W83907  31.459  30.956  12.030
11582W        W83908  43.845  26.136   0.846
11583W        W83909   9.169  27.643  11.921
11584W        W83910   5.757  16.132  14.398
11585W        W83911  38.507  43.787   2.748
11586W        W83912  36.359  22.040   1.268
11587W        W83913  31.098   6.391   5.291
11588W        W83914  29.644   3.807   2.790
11589W        W83915  40.953   6.311  12.504
11590W        W83916  22.190  23.509  13.965
11591W        W83917  17.210   9.715   4.689
11592W        W83918  23.563  24.101   2.326
11593W        W83919  20.604   4.929   3.865
11594W        W83920  15.123   3.288   2.276
11595W        W83921  29.919  20.665  10.631
11596W        W83922   7.876  43.431  11.509
11597W        W83923   6.677  24.107  14.354
11598W        W83924  33.432  23.495   1.349
11599W        W83925   8.173  11.807  14.003
11600W        W83926  40.973  21.683  14.489
11601W        W83927  34.068   3.287   3.254
11602W        W83928   3.810   7.359  12.356
11603W        W83929  28.620  26.171   5.780
11604W        W83930  18.142  43.379  14.380
11605W        W83931   1.776   9.776   4.683
11606W        W83932  22.122  33.548  11.408
11607W        W83933   1.883  38.076   1.367
11608W        W83934   4.779  39.992   2.720
11609W        W83935  33.131  24.504   2.263
11610W        W83936  38.553  16.276  14.985
11611W        W83937  19.093  12.639   4.725
11612W        W83938  39.889  41.339  10.464
11613W        W83939  12.128   2.903   3.680
11614W        W83940  28.161  23.168  12.497
11615W        W83941   1.739  38.062  11.864
11616W        W83942   5.307  32.064   3.336
11617W        W83943  14.832  28.670   0.929
11618W        W83944   2.236  21.538   2.185
11619W        W83945   7.394  40.302   1.442
11620W        W83946   7.781  18.739   3.671
11621W        W83947  29.056  40.521   4.342
11622W        W83948  37.396   7.374   3.196
11623W        W83949  21.672  44.991  14.980
11624W        W83950  17.205   6.269   1.806
11625W        W83951  43.781   8.724   4.816
11626W        W83952  10.297  30.499   1.244
11627W        W83953   5.399  36.562   0.252
11628W        W83954  38.528  26.976  12.512
11629W        W83955  24.619   1.840  12.464
11630W        W83956  27.193  35.421   1.338
11631W        W83957  22.585  10.667   1.802
11632W        W83958  39.892  31.986   1.815
11633W        W83959  40.360  17.783  12.370
11634W        W83960   4.284  30.108   2.237
11635W        W83961  19.732   7.790   3.297
11636W        W83962  37.910   7.833   3.174
11637W        W83963  17.147   2.805   1.395
11638W        W83964   1.256  26.463   2.250
11639W        W83965  10.729  33.518   4.327
11640W        W83966  10.348  36.022  10.937
11641W        W83967  34.105  12.842   0.356
11642W        W83968  27.575  34.528   3.681
11643W        W83969  13.186  23.514   1.715
11644W        W83970  22.224  44.338   3.264
11645W        W83971  24.205   7.324   2.864
11646W        W83972  35.869   8.867   1.270
11647W        W83973   6.684   9.703   2.841
11648W        W83974   3.445  38.449  11.432
11649W        W83975  31.480  13.750  11.975
11650W        W83976  32.393   5.705  12.374
11651W        W83977  26.089  43.432  14.781
11652W        W83978  13.727  23.005  11.904
11653W        W83979  11.794  23.214   0.788
11654W        W83980  22.126  27.165   1.886
11655W        W83981  30.913  37.836   2.794
11656W        W83982  42.781  33.419   0.288
11657W        W83983   0.821   1.819   4.333
11658W        W83984  13.347  36.424   0.296
11659W        W83985  11.646  28.931  10.931
11660W        W83986   0.362   5.889   0.395
11661W        W83987  31.637  36.558   3.755
11662W        W83988  19.617  37.979   3.366
11663W        W83989  39.037  30.429   1.757
11664W        W83990  15.790  29.047  12.466
11665W        W83991  16.574   2.352  12.498
11666W        W83992  20.686  38.379  12.853
11667W        W83993  32.134  13.267  12.853
11668W        W83994  42.943  24.646  14.859
11669W        W83995  39.966  28.090   3.729
11670W        W83996  20.703  14.148  11.580
11671W        W83997   3.410  44.306   2.719
11672W        W83998   4.819  13.241  14.917
11673W        W83999  24.575  41.322  14.512
11674W        W84000  16.141  34.030  13.919
11675W        W84001   8.165  21.598   1.406
11676W        W84002  41.016   9.692  10.422
11677W        W84003   8.779  33.990   4.834
11678W        W84004  42.525  29.973   2.747
11679W        W84005  27.111  39.834   0.855
11680W        W84006  30.647  38.059   5.133
11681W        W84007  11.220  41.344   3.810
11682W        W84008  34.121  12.197  13.516
11683W        W84009  41.486  15.786  13.945
11684W        W84010  18.629  34.560   0.257
11685W        W84011  22.703  39.894  10.531
11686W        W84012  38.902  31.509  11.532
11687W        W84013   8.856  26.015   2.416
11688W        W84014  42.929   0.387  12.084
11689W        W84015  44.859   8.331  12.087
11690W        W84016  42.499  17.563  10.582
11691W        W84017  14.822   3.340   2.805
11692W        W84018   9.657  42.402   1.297
11693W        W84019  35.599  39.438   1.879
11694W        W84020  38.491  17.672  13.493
11695W        W84021  19.672  26.001  14.290
11696W        W84022  27.688  19.595  14.293
11697W        W84023  44.389  20.626   4.736
11698W        W84024  38.923  40.992   4.622
11699W        W84025  17.577  28.123  14.780
11700W        W84026  31.529  11.132  10.623
11701W        W84027  34.396  33.049   4.176
11702W        W84028  10.681  43.506  13.488
11703W        W84029   8.810   4.853  14.761
11704W        W84030  44.379  16.293  10.515
11705W        W84031   4.941   6.908  13.400
11706W        W84032  34.473  35.023   3.635
11707W        W84033   9.154  16.227   2.264
11708W        W84034   2.842   2.233  12.022
11709W        W84035  29.066  33.583  10.430
11710W        W84036  15.823  14.300  14.483
11711W        W84037  31.919  31.028  11.949
11712W        W84038  34.451  36.584  10.983
11713W        W84039   5.926  23.637   0.921
11714W        W84040  39.358  43.350   0.916
11715W        W84041  35.469  42.797  12.031
11716W        W84042  26.168  24.481  11.001
11717W        W84043  20.183  39.809  14.027
11718W        W84044  24.205  10.765   2.744
11719W        W84045  11.329  20.619   4.271
11720W        W84046   5.774  25.502  13.544
11721W        W84047  30.448  34.391   4.639
11722W        W84048   2.855  14.196   5.315
11723W        W84049   3.750  16.226   0.325
11724W        W84050  30.073   1.922  13.331
11725W        W84051  33.539  10.275   0.944
11726W        W84052  21.687  36.438   3.292
11727W        W84053   6.207  18.061  14.442
11728W        W84054  10.249  41.991  12.866
11729W        W84055   6.730  23.006  11.972
11730W        W84056   0.361  28.054  12.405
11731W        W84057  27.603   2.737   3.683
11732W        W84058  31.073   1.305  13.355
11733W        W84059  26.631   0.751   0.391
11734W        W84060  39.947  18.224   4.765
11735W        W84061   5.219  10.327   1.738
11736W        W84062   9.253  19.194   1.820
11737W        W84063  42.988  43.015  12.982
11738W        W84064   8.227   7.910   2.309
11739W        W84065  27.025  20.714  14.331
11740W        W84066  16.689  21.587  12.925
11741W        W84067   7.253  10.265  10.513
11742W        W84068   4.811  38.429  13.009
11743W        W84069  44.866  33.874  12.573
11744W        W84070  43.937  35.445  13.351
11745W        W84071  16.714  38.861   3.241
11746W        W84072   3.778  12.789  12.371
11747W        W84073  43.981  30.659  10.532
11748W        W84074  11.223  17.253  12.056
11749W        W84075  19.554  33.926  13.062
11750W        W84076   8.805  41.897   4.610
11751W        W84077  28.603   6.381  12.573
11752W        W84078  23.540  12.832  11.988
11753W        W84079  19.596  22.087  14.965
11754W        W84080  19.669  28.670  14.983
11755W        W84081  10.875  20.087   4.645
11756W        W84082  16.093  17.263  14.491
11757W        W84083  31.110   1.345  11.093
11758W        W84084  11.129  36.029   4.177
11759W        W84085  37.456  36.922  10.596
11760W        W84086   7.241  42.437  14.853
11761W        W84087  16.678  18.654  12.934
11762W        W84088  18.604  43.814  11.864
11763W        W84089  28.636  14.645  13.437
11764W        W84090  27.114  22.727  14.449
11765W        W84091  13.616  38.357  14.467
11766W        W84092  23.116   2.227  11.372
11767W        W84093  14.126   9.659   3.700
11768W        W84094  39.467  18.714   4.819
11769W        W84095  43.884  32.892   1.212
11770W        W84096  19.596  29.439   2.267
11771W        W84097  34.517  12.841   3.674
11772W        W84098  32.565  21.021   2.207
11773W        W84099  21.582  43.313   3.654
11774W        W84100  14.630   9.877  12.847
11775W        W84101  26.009  16.164   9.926
11776W        W84102  38.999  16.633  10.449
11777W        W84103   5.333  11.839   4.696
11778W        W84104  29.118  26.004   3.778
11779W        W84105  30.586  39.445   0.327
11780W        W84106  31.032  29.508  13.905
11781W        W84107  39.495   7.377   2.795
11782W        W84108  27.484  37.408  13.484
11783W        W84109   3.909  24.995  10.441
11784W        W84110  32.594  22.504  14.427
11785W        W84111   7.852   5.714  11.077
11786W        W84112  15.132   1.960   0.928
11787W        W84113   0.776  25.160  10.997
11788W        W84114  27.153  33.623  11.116
11789W        W84115  30.492  26.127   2.707
11790W        W84116   7.761   3.383  12.040
11791W        W84117  12.286  28.032  14.450
11792W        W84118  28.022  36.502  12.464
11793W        W84119  15.130  24.496  11.386
11794W        W84120  20.605  34.539   3.205
11795W        W84121  11.251  21.521   3.345
11796W        W84122  37.387  41.404  11.036
11797W        W84123  14.725  43.273  14.359
11798W        W84124   0.341   4.209   2.772
11799W        W84125  25.682  17.139   2.865
11800W        W84126  16.603  21.653  11.435
11801W        W84127   2.818  35.587  12.935
11802W        W84128  11.146  43.955   4.631
11803W        W84129  34.957  20.586  12.533
11804W        W84130   6.330  11.351  10.513
11805W        W84131  27.166  30.124  13.426
11806W        W84132  38.955  42.006   4.133
11807W        W84133  28.932  25.128  13.927
11808W        W84134   3.719  41.526  12.848
11809W        W84135  38.017  31.990   1.311
11810W        W84136  30.971  43.788   4.611
11811W        W84137  32.119  12.636  10.484
11812W        W84138  42.313  10.710  11.005
11813W        W84139  10.305   3.732  13.457
11814W        W84140  44.475  17.710   0.415
11815W        W84141   4.791  37.993   5.197
11816W        W84142  13.599  30.534  10.936
11817W        W84143  33.885  13.673   4.771
11818W        W84144  28.182  38.373   2.370
11819W        W84145   3.391   0.334   3.150
11820W        W84146  19.651   2.846  10.589
11821W        W84147  31.558  41.026   4.689
11822W        W84148  40.457  42.415  10.950
11823W        W84149  24.982   0.832   1.358
11824W        W84150  23.522  41.916  11.986
11825W        W84151  40.995  38.996  14.415
11826W        W84152  10.321   2.296  10.561
11827W        W84153  24.053  43.996  13.457
11828W        W84154  44.896   4.748  13.516
11829W        W84155  36.033  27.128  13.396
11830W        W84156   0.870  32.988  10.907
11831W        W84157   8.829  17.615   3.244
11832W        W84158  41.313   7.720  11.496
11833W        W84159  11.675   9.230  10.930
11834W        W84160  39.808  37.338   1.853
11835W        W84161   8.734  44.270  14.968
11836W        W84162  22.604  26.690   2.412
11837W        W84163  42.976  10.840  12.435
11838W        W84164  34.925  30.574   2.308
11839W        W84165  17.694  32.617   3.640
11840W        W84166   5.723  29.531   2.674
11841W        W84167  13.823  22.070   1.395
11842W        W84168  43.925  16.094   1.724
11843W        W84169  29.483  21.158  13.452
11844W        W84170  17.117  28.602  14.332
11845W        W84171  26.975   9.366  10.407
11846W        W84172  25.530  31.402   0.287
11847W        W84173  41.971   6.271  10.943
11848W        W84174   2.724   9.266  11.462
11849W        W84175  14.332  30.481  11.507
11850W        W84176  43.918  27.562  10.510
11851W        W84177  16.122  31.148   1.214
11852W        W84178  19.040  42.296   2.200
11853W        W84179  18.296  20.208   3.747
11854W        W84180  40.917  30.159   2.373
11855W        W84181  19.699  31.466  13.899
11856W        W84182  13.810  29.976  13.987
11857W        W84183  41.443  34.933  10.422
11858W        W84184  13.233   4.708   1.838
11859W        W84185  35.894  40.837  13.056
11860W        W84186  34.874  33.513  14.904
11861W        W84187  40.980  21.679   1.399
11862W        W84188  12.295  30.092   3.639
11863W        W84189  20.104  15.170   1.281
11864W        W84190  20.585  25.551   4.327
11865W        W84191   4.219  24.168   4.646
11866W        W84192   1.782   5.402  14.318
11867W        W84193  42.913  11.715   3.207
11868W        W84194   2.334  43.872  14.497
11869W        W84195   1.358  12.260  11.085
11870W        W84196   8.705  25.652   2.181
11871W        W84197  38.325   3.282  14.366
11872W        W84198  29.015   8.340  14.872
11873W        W84199   4.919   9.810   0.394
11874W        W84200  23.047   5.888  11.986
11875W        W84201  20.595  19.250  14.426
11876W        W84202  31.481   8.169  10.572
11877W        W84203  12.201  38.460  12.835
11878W        W84204  39.358   1.245  11.043
11879W        W84205  12.628  30.548  14.362
11880W        W84206   0.776   2.904   0.877
11881W        W84207  43.493  38.915   3.653
11882W        W84208  24.983  35.554   2.419
11883W        W84209  33.929   9.370  14.358
11884W        W84210  31.057  24.120  14.441
11885W        W84211   7.868   6.748   2.855
11886W        W84212   6.310  38.869  10.512
11887W        W84213  31.930   3.814   1.713
11888W        W84214  42.941  32.626   4.258
11889W        W84215  19.144   3.389  12.050
11890W        W84216  14.164  32.430   3.793
11891W        W84217  23.571   2.926  12.914
11892W        W84218  26.092   2.232  11.006
11893W        W84219  20.191  19.284  12.450
11894W        W84220  11.790  40.304  12.541
11895W        W84221  41.424  24.976   3.679
11896W        W84222  16.236  25.216  11.496
11897W        W84223  12.246  43.952   2.294
11898W        W84224  29.150   5.271   1.716
11899W        W84225  35.399  38.043   3.247
11900W        W84226  11.223  36.938  10.996
11901W        W84227  12.290   6.185   4.682
11902W        W84228  18.254  35.581  11.433
11903W        W84229  36.523   5.417   1.230
11904W        W84230  30.625  25.495   4.130
11905W        W84231  23.219  15.665   0.748
11906W        W84232  30.426  14.292  11.868
11907W        W84233  40.935  41.810  11.047
11908W        W84234   2.386  28.137  10.421
11909W        W84235  32.967  35.988  14.410
11910W        W84236  18.080  24.577   4.302
11911W        W84237  39.473  42.802   2.181
11912W        W84238  31.012  33.927   3.848
11913W        W84239  22.678   8.168   3.345
11914W        W84240  39.809   2.958   0.313
11915W        W84241   2.318   6.192  14.509
11916W        W84242  24.619  24.220   2.843
11917W        W84243  39.512  14.805   3.380
11918W        W84244  15.168  42.404   2.753
11919W        W84245  43.849  16.143  13.848
11920W        W84246  11.302  24.558  10.547
11921W        W84247  32.020   1.952   1.835
11922W        W84248   0.926  32.508  13.817
11923W        W84249  41.997   7.838  11.471
11924W        W84250  19.578  43.813  13.427
11925W        W84251  41.345  14.337  12.048
11926W        W84252   1.804  25.658  13.796
11927W        W84253  34.587   9.210   0.298
11928W        W84254  14.098  16.604   1.306
11929W        W84255  39.388   3.943  13.448
11930W        W84256  22.112  18.713  11.984
11931W        W84257  33.518  31.952  13.947
11932W        W84258  20.056   2.948   3.671
11933W        W84259   5.283  38.010   4.831
11934W        W84260   0.422  30.137   1.386
11935W        W84261  26.976  32.545  14.968
11936W        W84262   1.344  43.988   2.774
11937W        W84263  12.768   6.238  14.438
11938W        W84264   3.332  12.755   2.225
11939W        W84265  17.235  32.998  10.958
11940W        W84266  34.468  40.986  14.898
11941W        W84267  36.522  34.968  11.516
11942W        W84268  43.859  42.520  14.850
11943W        W84269  10.142   9.394   5.262
11944W        W84270  23.101  16.176   5.300
11945W        W84271  30.159  14.611  10.949
11946W        W84272  33.516  36.904  11.596
11947W        W84273  32.078  14.659   1.409
11948W        W84274   0.346  44.837   1.234
11949W        W84275  35.358  27.488   0.320
11950W        W84276  12.690  11.717   4.771
11951W        W84277  12.144  30.567   1.736
11952W        W84278   6.765  36.527  10.599
11953W        W84279  43.429   5.296   3.195
11954W        W84280  31.525   3.437  11.395
11955W        W84281  29.025  11.686   3.824
11956W        W84282   0.362  28.447   4.806
11957W        W84283   3.953  29.516  13.041
11958W        W84284  23.705   9.761   4.136
11959W        W84285  14.217  12.830   1.324
11960W        W84286  11.352  24.081  12.853
11961W        W84287   5.797   8.660  11.042
11962W        W84288  19.254  40.916   1.411
11963W        W84289  19.169  34.956  12.411
11964W        W84290  29.001  35.918   0.479
11965W        W84291  16.784  32.919  12.436
11966W        W84292  26.986  39.837  12.881
11967W        W84293  39.554  44.403   1.430
11968W        W84294   4.856  34.562   4.271
11969W        W84295  21.665   6.727  11.544
11970W        W84296  10.669  35.545   1.739
11971W        W84297  12.803   1.482  13.464
11972W        W84298   8.376  42.938  11.069
11973W        W84299  15.640  35.855  14.795
11974W        W84300  39.017  36.888   1.259
11975W        W84301   1.363   6.678  11.396
11976W        W84302  21.081  18.056  11.985
11977W        W84303   3.882  40.535   1.342
11978W        W84304  25.626   2.839   1.211
11979W        W84305  25.155  26.531   3.323
11980W        W84306  41.344  23.010  12.975
11981W        W84307  29.931  35.909   4.113
11982W        W84308  20.252  16.692  12.050
11983W        W84309  14.592  41.860   4.723
11984W        W84310  16.786  37.550   4.225
11985W        W84311   0.347   0.430   2.812
11986W        W84312  42.842  16.795   2.710
11987W        W84313  20.031  34.057  12.066
11988W        W84314  33.053  21.084  11.113
11989W        W84315   0.387  28.607  11.065
11990W        W84316  28.647  13.756  12.957
11991W        W84317  10.317  33.607   2.419
11992W        W84318  21.719  37.526   1.838
11993W        W84319  23.237  14.768  12.898
11994W        W84320  32.583   8.395   0.260
11995W        W84321  28.465  36.851   2.308
11996W        W84322  11.831  19.657  12.981
11997W        W84323  31.590  26.149  13.414
11998W        W84324  23.501  16.808  11.920
11999W        W84325  35.884  16.771   3.736
12000W        W84326   5.933  20.766   4.269
12001W        W84327  20.101  34.377   3.790
12002W        W84328  16.729   3.814  13.428
12003W        W84329  34.506  20.613  13.325
12004W        W84330  15.160   6.274   3.733
12005W        W84331  15.145  33.437  14.391
12006W        W84332  15.693  30.160  13.534
12007W        W84333   4.908  42.385   3.377
12008W        W84334   7.332  35.484  13.339
12009W        W84335  41.884   2.338   3.353
12010W        W84336  27.548  40.907  12.537
12011W        W84337   4.760  33.096   9.970
12012W        W84338  21.080  23.024  13.416
12013W        W84339  23.682  15.103   4.729
12014W        W84340  11.324   2.949  13.904
12015W        W84341  43.015   3.841  13.802
12016W        W84342   0.434  12.705  12.931
12017W        W84343   7.806  31.438   0.901
12018W        W84344  19.753  12.326  12.484
12019W        W84345  13.605  40.353  11.892
12020W        W84346  13.265   5.254  12.555
12021W        W84347  17.211  21.154   4.829
12022W        W84348  25.493  36.422  12.918
12023W        W84349  32.516  16.584   3.701
12024W        W84350  37.416  25.080  10.949
12025W        W84351  43.841   8.825  10.433
12026W        W84352  35.586  13.802   2.285
12027W        W84353  42.913  32.972  13.889
12028W        W84354  39.540  27.964   2.182
12029W        W84355  41.369  28.662  11.033
12030W        W84356  12.193  27.655   3.690
12031W        W84357  43.815  11.705  14.997
12032W        W84358  26.992  19.666   4.654
12033W        W84359  44.496  18.147   4.761
12034W        W84360  11.769  17.215   4.604
12035W        W84361  24.634  10.805  14.371
12036W        W84362  11.649  35.584  14.513
12037W        W84363  40.518   4.241   0.884
12038W        W84364  16.307  42.939   0.923
12039W        W84365  42.800  34.021   1.694
12040W        W84366  27.619   2.930  14.499
12041W        W84367  43.852  17.795  11.453
12042W        W84368  28.180   6.252  12.920
12043W        W84369  41.871   2.809   4.630
12044W        W84370   5.422  42.526   0.744
12045W        W84371  43.913  27.120  10.454
12046W        W84372  43.452   9.699   1.380
12047W        W84373  10.323  13.724   3.812
12048W        W84374  41.989  29.534   5.244
12049W        W84375  20.601   6.415   4.610
12050W        W84376  39.524  11.314   4.332
12051W        W84377  19.084  23.097  12.931
12052W        W84378  17.285   2.376  14.414
12053W        W84379  15.228  11.832   4.606
12054W        W84380  35.945  31.421   4.148
12055W        W84381  17.635  18.125  12.033
12056W        W84382  33.027   3.300  10.960
12057W        W84383  33.016  13.258   3.785
12058W        W84384   9.182   9.323   1.303
12059W        W84385   8.204   2.346  11.075
12060W        W84386  43.931   5.279   0.429
12061W        W84387  28.496  30.498   1.445
12062W        W84388  25.550  42.812   3.662
12063W        W84389  26.492  17.271   1.837
12064W        W84390  30.091  43.428   4.327
12065W        W84391  10.670  28.602   4.620
12066W        W84392  33.533  33.602  10.960
12067W        W84393  41.300  39.945  13.929
12068W        W84394  19.629  41.387   4.674
12069W        W84395  15.747   4.702   4.695
12070W        W84396  27.639  28.160  11.464
12071W        W84397   4.752   1.751   2.291
12072W        W84398  37.573  37.382   1.380
12073W        W84399  19.186  24.624  12.882
12074W        W84400  17.113  34.506  14.348
12075W        W84401  15.104   7.779  12.551
12076W        W84402   9.269  34.878  14.324
12077W        W84403  44.266  10.316  14.009
12078W        W84404  16.122  35.933  14.813
12079W        W84405  16.240  39.394  10.945
12080W        W84406  31.525   0.293   2.295
12081W        W84407  25.502  15.643  11.471
12082W        W84408   1.916  16.770   2.188
12083W        W84409  42.813  36.956   0.456
12084W        W84410  35.451   9.348   4.302
12085W        W84411  13.346  35.379  13.022
12086W        W84412  10.178   5.827   2.205
12087W        W84413  44.327  10.722  11.098
12088W        W84414  25.177   5.927  11.379
12089W        W84415  37.555  44.305   2.849
12090W        W84416  11.854  14.325  12.420
12091W        W84417  35.997  44.796  11.969
12092W        W84418  40.947  38.849  11.007
12093W        W84419  17.292   1.839  13.030
12094W        W84420  13.301   8.764   4.810
12095W        W84421  28.115  16.645  10.624
12096W        W84422  37.353  11.651   0.846
12097W        W84423  38.922  32.608   1.220
12098W        W84424  26.101  43.892   4.314
12099W        W84425  32.077  34.492  12.048
12100W        W84426  17.286   3.293   1.357
12101W        W84427  34.487  25.969   1.434
12102W        W84428   8.206  17.164  12.382
12103W        W84429  28.645  39.914   3.261
12104W        W84430   4.384  26.598   4.754
12105W        W84431  13.228  14.121   3.652
12106W        W84432  34.907  27.151  12.457
12107W        W84433  27.605   3.264   2.759
12108W        W84434  26.108  18.590  10.466
12109W        W84435  30.588  21.690   3.636
12110W        W84436  14.649  12.685   2.220
12111W        W84437  36.871   5.823  11.520
12112W        W84438  41.013  11.310   4.625
12113W        W84439  36.462   4.224  14.778
12114W        W84440  14.202  10.314  13.944
12115W        W84441  22.729  22.747   5.196
12116W        W84442  37.013  33.088   1.238
12117W        W84443  12.824  34.409   3.193
12118W        W84444  10.654  37.978  13.886
12119W        W84445  21.564   8.730   1.348
12120W        W84446   8.283  42.464  12.904
12121W        W84447  40.975  10.764  13.890
12122W        W84448  15.192  40.997   0.817
12123W        W84449   2.897  21.037  13.046
12124W        W84450  12.282  13.617  12.539
12125W        W84451  28.452  44.997  13.352
12126W        W84452  39.408  43.810   1.451
12127W        W84453  30.157  41.035  12.405
12128W        W84454  31.013  38.000  13.911
12129W        W84455  33.422  15.095   3.265
12130W        W84456   9.763  18.110   1.315
12131W        W84457   1.758  36.379   1.755
12132W        W84458   0.295  34.570  13.864
12133W        W84459  43.273  19.633   2.754
12134W        W84460  41.476   4.442   3.869
12135W        W84461  27.566  38.913  11.598
12136W        W84462  28.097  15.720   3.710
12137W        W84463   8.870  11.783   0.288
12138W        W84464  15.816  13.600   4.615
12139W        W84465  28.452  31.941   0.887
12140W        W84466  23.725  39.846  14.847
12141W        W84467  24.205  40.869   1.898
12142W        W84468   2.819  38.073  11.594
12143W        W84469  31.039  23.235  10.434
12144W        W84470  42.363  28.579  12.434
12145W        W84471  23.653  25.704   0.288
12146W        W84472  36.519  32.411   4.141
12147W        W84473  30.475  21.517   2.672
12148W        W84474  28.982  14.295   2.371
12149W        W84475   0.877  28.439  12.534
12150W        W84476  19.546  37.357   1.775
12151W        W84477  35.373  34.104   2.804
12152W        W84478   6.878  14.160   0.322
12153W        W84479  20.761  35.937  14.405
12154W        W84480  34.044  11.319  13.346
12155W        W84481  35.880   3.862  10.570
12156W        W84482  18.224  37.851  13.475
12157W        W84483  35.968  13.144  11.376
12158W        W84484  20.745  18.244   2.836
12159W        W84485  12.219  21.701   1.409
12160W        W84486   8.167   0.356   3.187
12161W        W84487  27.488   0.955  12.473
12162W        W84488  29.158  20.717  13.519
12163W        W84489  16.708  42.508   4.162
12164W        W84490  18.212  20.062  13.806
12165W        W84491  35.454  30.571  10.924
12166W        W84492  18.673   5.339   1.292
12167W        W84493  33.115   8.877  12.466
12168W        W84494  39.428  16.298  14.782
12169W        W84495  23.099  28.473   1.240
12170W        W84496  23.038   0.931   2.865
12171W        W84497   5.845  38.831   9.936
12172W        W84498  23.644   7.182  11.933
12173W        W84499  43.936  21.606   0.359
12174W        W84500   1.920   5.232   0.308
12175W        W84501   6.822   3.720   2.396
12176W        W84502   0.833  29.139   0.827
12177W        W84503  21.213  40.971  12.453
12178W        W84504  17.141   7.691   3.361
12179W        W84505  38.376  44.859  10.956
12180W        W84506   9.787  37.444   4.239
12181W        W84507  29.463  28.101  11.008
12182W        W84508  13.117  19.761   1.907
12183W        W84509   2.324  35.030  11.441
12184W        W84510   9.204  43.889  13.435
12185W        W84511   3.815  43.478   3.731
12186W        W84512  13.774  40.855  14.898
12187W        W84513  24.480  20.124   0.427
12188W        W84514  17.293   5.848   2.383
12189W        W84515  10.214  23.202  14.996
12190W        W84516  44.392  35.385   2.807
12191W        W84517  30.032   7.182   3.645
12192W        W84518  44.336  14.790  11.545
12193W        W84519  18.156  25.138  14.820
12194W        W84520  34.411  13.189  10.916
12195W        W84521  30.921  15.176   3.173
12196W        W84522  24.086  39.522   4.653
12197W        W84523  35.524  35.886  10.080
12198W        W84524   6.259  31.642  10.921
12199W        W84525  19.042  35.885   3.291
12200W        W84526  41.010  27.980   4.309
12201W        W84527  37.067  19.767   3.769
12202W        W84528   0.381  39.483  13.012
12203W        W84529  24.620  17.667  10.913
12204W        W84530  33.900  38.416   1.934
12205W        W84531  28.537  41.846  12.029
12206W        W84532  31.144  22.554  12.389
12207W        W84533  43.011  28.646   3.810
12208W        W84534  28.617  29.011  11.871
12209W        W84535   7.885  36.993   0.346
12210W        W84536   9.695   1.448   2.278
12211W        W84537  15.580  22.109  11.054
12212W        W84538  25.602  17.099   1.307
12213W        W84539  15.679  25.688   0.392
12214W        W84540  27.034   5.250   3.247
12215W        W84541   8.254  42.382   4.732
12216W        W84542  31.007   4.335   1.930
12217W        W84543  14.318  31.610  13.055
12218W        W84544  44.845  33.122   1.261
12219W        W84545  23.697   2.447  12.972
12220W        W84546  33.599   2.821  13.530
12221W        W84547  44.759   0.851  14.417
12222W        W84548   0.290  38.051   2.178
12223W        W84549  42.023   4.291  10.957
12224W        W84550  29.015  43.495  12.388
12225W        W84551  42.014  16.578  12.048
12226W        W84552   4.854  35.464  11.015
12227W        W84553  16.270  16.196   1.346
12228W        W84554  24.172  14.238   0.410
12229W        W84555  42.841  25.031  11.515
12230W        W84556   2.747  17.253   2.799
12231W        W84557  12.676  12.657  10.967
12232W        W84558   2.732  35.576  10.477
12233W        W84559  11.860  25.477  11.972
12234W        W84560  23.521  43.778   1.854
12235W        W84561  13.145  29.551   3.297
12236W        W84562  22.149  31.903  10.586
12237W        W84563  28.097   7.248   2.777
12238W        W84564  14.769  29.084  13.936
12239W        W84565   3.925  15.243  14.822
12240W        W84566   0.785  20.091  14.774
12241W        W84567  38.427   6.193  12.494
12242W        W84568  10.303  35.895   1.712
12243W        W84569  37.389  16.247   0.812
12244W        W84570  15.327   7.231  11.575
12245W        W84571   5.303  25.131   1.834
12246W        W84572  27.038  31.553   3.276
12247W        W84573  33.600  18.115  11.555
12248W        W84574  28.606  30.054   1.266
12249W        W84575  34.868  27.593   0.371
12250W        W84576  18.262   0.799  11.963
12251W        W84577  24.045  36.030   2.810
12252W        W84578  19.072  37.397  10.454
12253W        W84579  10.375  29.153  11.110
12254W        W84580  33.991   2.264  10.908
12255W        W84581   3.236  32.056   2.798
12256W        W84582  24.993   3.928  10.418
12257W        W84583  39.057  11.355  12.833
12258W        W84584  19.547  10.651  10.978
12259W        W84585  18.080  26.143  14.316
12260W        W84586  12.210  26.955  13.401
12261W        W84587  33.612  37.992   1.867
12262W        W84588  21.161   1.921  11.074
12263W        W84589   9.374  24.136   3.225
12264W        W84590  24.137  33.018   1.221
12265W        W84591   8.375  18.584   1.410
12266W        W84592  33.937  22.234  10.638
12267W        W84593  36.996   6.741  13.990
12268W        W84594   1.301   3.752   3.737
12269W        W84595   0.771  38.492  14.339
12270W        W84596  23.586  32.609  14.478
12271W        W84597  13.714  26.196  11.076
12272W        W84598  33.920  32.133   3.358
12273W        W84599  20.058  27.586  14.469
12274W        W84600  23.172  41.365  14.506
12275W        W84601  41.827   3.336  12.489
12276W        W84602  31.546  16.121  10.577
12277W        W84603  27.965  28.660  12.456
12278W        W84604  15.311   4.843  11.962
12279W        W84605  19.064  12.155  12.516
12280W        W84606  28.048  29.006  13.930
12281W        W84607  19.692  25.147   3.262
12282W        W84608   2.326  32.637   0.917
12283W        W84609  11.330   2.448  11.039
12284W        W84610  22.512   4.438  11.411
12285W        W84611  17.224  13.625   2.881
12286W        W84612  14.702  10.832   2.271
12287W        W84613   9.177  30.571  11.953
12288W        W84614  25.707   4.884   5.149
12289W        W84615  12.764  38.971   2.182
12290W        W84616  30.157   8.238   1.418
12291W        W84617   1.815   8.895   0.387
12292W        W84618  15.672  14.153   0.440
12293W        W84619   3.294  16.291  10.459
12294W        W84620  18.736  39.894   0.259
12295W        W84621  18.694  40.423  11.525
12296W        W84622  32.492  27.018   4.824
12297W        W84623  17.078   7.708  14.942
12298W        W84624   0.778  25.995  13.029
12299W        W84625  35.581   6.768  10.610
12300W        W84626   9.292  27.499   2.183
12301W        W84627  18.216   5.851  12.403
12302W        W84628  15.621  22.600   1.930
12303W        W84629  23.098   2.818   0.356
12304W        W84630   8.784   2.386  13.431
12305W        W84631  31.484  12.228  10.942
12306W        W84632  25.577  36.487   2.393
12307W        W84633  37.435  10.863  10.492
12308W        W84634   4.403  17.556  13.404
12309W        W84635  22.174  37.860   0.880
12310W        W84636  25.192   3.724  13.036
12311W        W84637  44.888   7.251  13.461
12312W        W84638   7.385  12.191  12.882
12313W        W84639  21.675  33.561  14.446
12314W        W84640  43.773  24.483   3.306
12315W        W84641  33.998   4.879  11.864
12316W        W84642  29.447  29.017   4.800
12317W        W84643  19.266  31.571   1.705
12318W        W84644  37.362   8.385   1.808
12319W        W84645   2.737  30.980  14.356
12320W        W84646  44.446  39.065   2.741
12321W        W84647  27.460  32.028   0.414
12322W        W84648  12.612  22.018   2.787
12323W        W84649  13.134   9.744   4.241
12324W        W84650  11.165   9.824  10.566
12325W        W84651  41.476  35.978  11.551
12326W        W84652  19.743   8.866   1.359
12327W        W84653   9.153   9.770   3.727
12328W        W84654   1.740   2.388  13.330
12329W        W84655  17.732  24.985  13.928
12330W        W84656   0.801  26.045  14.894
12331W        W84657  35.379  35.867  10.604
12332W        W84658  39.986  13.783   0.804
12333W        W84659  32.598  31.532   3.274
12334W        W84660  35.421  35.089   2.774
12335W        W84661  19.739  39.050  11.432
12336W        W84662  29.974   9.267  13.980
12337W        W84663   7.910  33.396  10.071
12338W        W84664  23.117  35.551   3.768
12339W        W84665  38.483  32.574  12.344
12340W        W84666  19.695   5.901   0.764
12341W        W84667  38.396  37.394   1.390
12342W        W84668  26.654   4.279   3.688
12343W        W84669   1.320  20.192  14.949
12344W        W84670   4.356  17.129  13.509
12345W        W84671  22.538  29.122  11.948
12346W        W84672  29.443  30.532  11.958
12347W        W84673   3.282  30.600   1.888
12348W        W84674  34.456  23.082   4.159
12349W        W84675  41.322  30.058   1.890
12350W        W84676  17.770   9.342   3.766
12351W        W84677  18.209  23.491  14.786
12352W        W84678  21.258  40.904   0.382
12353W        W84679  40.923  35.565  11.561
12354W        W84680   4.425  30.614  13.379
12355W        W84681  31.938  12.314   1.912
12356W        W84682  19.172  37.898   4.227
12357W        W84683  31.076  40.411  14.931
12358W        W84684  43.370  10.244   0.933
12359W        W84685  40.363  15.276  11.005
12360W        W84686   6.387  14.206   1.927
12361W        W84687  32.470  27.003  14.911
12362W        W84688  23.503  19.639   2.180
12363W        W84689   7.911   6.912  12.051
12364W        W84690  12.356  31.533   4.286
12365W        W84691  43.778   7.727  10.623
12366W        W84692  11.161  25.513   0.368
12367W        W84693  22.011  20.667  12.012
12368W        W84694  19.711  18.743  10.520
12369W        W84695  36.990  12.357   0.273
12370W        W84696  40.460   9.358  12.538
12371W        W84697  23.087   5.328   0.803
12372W        W84698  25.968   3.420  11.941
12373W        W84699  27.623  35.592   1.703
12374W        W84700  26.987  31.404   0.932
12375W        W84701  19.592   6.686  13.525
12376W        W84702   8.787  19.698   3.633
12377W        W84703   6.803  25.601   3.258
12378W        W84704  37.930  30.569   0.291
12379W        W84705   1.917  17.731   4.772
12380W        W84706   5.893  31.009  12.965
12381W        W84707  27.628   7.238  14.962
12382W        W84708  41.330  36.550  13.346
12383W        W84709   2.843   5.905  10.477
12384W        W84710  23.648  33.468   2.192
12385W        W84711  29.034   3.431  11.117
12386W        W84712  38.956  42.820  14.297
12387W        W84713  35.470   2.890  13.517
12388W        W84714  28.138  14.700  12.461
12389W        W84715  37.559  42.925   3.263
12390W        W84716  38.845  16.710   0.411
12391W        W84717  33.909   6.858  13.049
12392W        W84718  11.360  21.145  12.525
12393W        W84719  23.645  13.224   1.267
12394W        W84720  28.126  43.350   4.617
12395W        W84721  33.538  40.834  10.462
12396W        W84722  32.941  17.647   2.752
12397W        W84723   6.252   7.312   9.969
12398W        W84724  27.531  36.013  11.906
12399W        W84725  40.007   2.935   4.330
12400W        W84726  23.021  34.976   1.754
12401W        W84727  38.541  26.622  13.503
12402W        W84728  37.412  18.583  13.037
12403W        W84729  31.433  18.548  12.452
12404W        W84730  34.990  36.445  14.479
12405W        W84731  24.524  38.887  12.414
12406W        W84732  19.216  25.601   4.334
12407W        W84733  12.175   1.976  13.024
12408W        W84734   5.767  11.705   1.698
12409W        W84735  42.488   9.661   4.789
12410W        W84736  42.965  30.115  14.344
12411W        W84737   6.915  11.175  14.306
12412W        W84738   2.774  31.902  11.592
12413W        W84739  26.618  10.695   4.795
12414W        W84740  35.108  26.511  13.484
12415W        W84741  42.921   4.255   0.944
12416W        W84742   5.879  12.246  12.396
12417W        W84743  17.136  13.808  11.935
12418W        W84744  16.249  32.624   3.146
12419W        W84745  16.302  10.644  14.408
12420W        W84746   4.878  31.619  14.514
12421W        W84747  21.123   1.893  10.414
12422W        W84748  38.330   4.801   2.291
12423W        W84749  19.676  37.387  10.912
12424W        W84750   3.339   1.247   3.344
12425W        W84751  34.585  19.733  10.983
12426W        W84752  15.609  11.349  11.569
12427W        W84753  14.312  10.856  14.758
12428W        W84754  32.118   0.835  13.901
12429W        W84755  34.607  29.564  13.891
12430W        W84756  23.664  31.145  11.430
12431W        W84757  33.523  38.468  10.565
12432W        W84758  35.426  36.084   4.810
12433W        W84759  20.134  42.931   9.993
12434W        W84760  35.024   8.275   0.466
12435W        W84761  22.075  41.404  14.815
12436W        W84762  19.069  17.164   3.705
12437W        W84763  10.312  16.086   4.326
12438W        W84764  42.913   7.288  14.025
12439W        W84765   6.326  21.119  10.091
12440W        W84766  44.384  21.081  11.123
12441W        W84767  36.446  17.720   1.379
12442W        W84768   0.385  38.559   0.366
12443W        W84769  26.147  31.408  14.353
12444W        W84770   1.961  37.024   2.192
12445W        W84771  11.317  40.935   2.725
12446W        W84772   3.789  17.195  11.105
12447W        W84773  28.120  40.981  11.382
12448W        W84774  28.626  18.697   2.343
12449W        W84775  17.763  33.010   1.824
12450W        W84776   3.758  39.514   3.833
12451W        W84777  35.390  15.733  11.572
12452W        W84778  10.235  16.108   1.377
12453W        W84779  25.642  10.382   2.347
12454W        W84780   5.343  32.981   3.698
12455W        W84781  33.511   6.734  12.086
12456W        W84782  27.171  19.618   1.220
12457W        W84783  13.648  11.688   0.870
12458W        W84784  19.275  24.130  14.353
12459W        W84785  41.815  42.810  14.303
12460W        W84786   0.805   3.273   3.219
12461W        W84787  29.024  34.064   2.733
12462W        W84788   9.342   9.361   4.666
12463W        W84789  23.109  26.191  14.919
12464W        W84790  29.590   5.725  11.881
12465W        W84791  22.588   9.886  10.903
12466W        W84792  15.118   6.879  10.466
12467W        W84793  44.910  31.152  13.315
12468W        W84794  20.238  11.789  11.978
12469W        W84795  43.831  34.560   4.802
12470W        W84796  17.741  39.009  10.529
12471W        W84797   2.337  22.053  10.623
12472W        W84798  36.491  20.660   2.231
12473W        W84799   2.761   3.912  14.962
12474W        W84800   2.759  17.172  11.985
12475W        W84801  24.535  39.873   2.868
12476W        W84802  10.381  33.390   2.741
12477W        W84803  37.851  27.493  14.457
12478W        W84804  14.648   2.879   4.157
12479W        W84805   2.889  37.839  12.883
12480W        W84806  24.545  36.565  13.953
12481W        W84807   4.882  42.840  14.386
12482W        W84808   8.656   2.841  13.409
12483W        W84809   5.417  36.373   2.199
12484W        W84810  23.532   9.318  12.351
12485W        W84811  26.557   4.869   0.898
12486W        W84812  36.561  35.873   1.303
12487W        W84813  29.636  32.069  12.086
12488W        W84814  11.220  43.269  14.918
12489W        W84815  33.030  29.427   0.829
12490W        W84816  27.110  29.634   0.821
12491W        W84817   8.365  14.594   3.176
12492W        W84818  13.689  13.666   0.279
12493W        W84819  33.443   8.751   3.344
12494W        W84820  29.475  32.472   2.286
12495W        W84821  25.181   2.863   2.287
12496W        W84822  23.642  44.760  11.490
12497W        W84823  28.080  44.459   0.868
12498W        W84824  15.281  39.396   3.274
12499W        W84825   7.259  20.162   3.838
12500W        W84826  20.109  34.028   4.780
12501W        W84827  34.493  22.024  13.862
12502W        W84828  26.679   0.812   1.844
12503W        W84829  24.601  15.272   5.768
12504W        W84830  15.605  16.689  11.900
12505W        W84831  40.027  44.894  12.466
12506W        W84832  32.899  14.665   1.363
12507W        W84833  22.140   8.323  12.886
12508W        W84834  44.944  36.922  13.404
12509W        W84835  31.092   6.830  10.537
12510W        W84836  34.984  41.313   5.126
12511W        W84837  43.372   0.460  12.498
12512W        W84838  33.396   8.670  14.477
12513W        W84839  34.071  29.667   3.752
12514W        W84840  19.073  25.168   1.436
12515W        W84841  39.933  19.277  10.502
12516W        W84842  14.652  17.733   0.405
12517W        W84843  33.105  39.061  12.926
12518W        W84844  42.984   8.249   4.277
12519W        W84845  22.034  20.537   2.724
12520W        W84846  36.436  31.579  10.920
12521W        W84847  34.055  35.382   2.708
12522W        W84848  37.052   4.717   3.278
12523W        W84849  29.462  29.484  13.842
12524W        W84850   1.347  37.402  12.440
12525W        W84851  10.864  42.013   1.804
12526W        W84852  10.320  34.589   9.970
12527W        W84853  19.073  24.141   1.777
12528W        W84854  16.708  27.187   0.403
12529W        W84855  16.775  35.991  10.591
12530W        W84856   6.920  26.109  12.379
12531W        W84857  38.965   6.194  12.422
12532W        W84858  31.114   8.694   0.265
12533W        W84859   5.429  40.412  13.492
12534W        W84860  34.535  43.496  14.921
12535W        W84861  18.606  21.256   3.786
12536W        W84862  13.129  41.376  13.805
12537W        W84863  12.797  14.181  10.509
12538W        W84864  26.038  38.517   4.218
12539W        W84865   8.671   4.331  14.892
12540W        W84866  34.946  33.919  14.370
12541W        W84867  14.292  13.774   3.314
12542W        W84868  20.220  28.980   1.240
12543W        W84869  35.927  33.067   2.770
12544W        W84870  16.685   2.902  12.483
12545W        W84871  41.373   8.259   4.808
12546W        W84872  35.882  13.753  14.513
12547W        W84873  17.676  38.850  12.985
12548W        W84874  29.456   2.329  12.027
12549W        W84875   7.782  42.811   2.775
12550W        W84876   8.871  31.061   4.336
12551W        W84877   7.276  25.085  13.344
12552W        W84878   5.777  13.814   2.338
12553W        W84879  36.869  44.465   1.839
12554W        W84880  28.027  10.313  11.541
12555W        W84881  26.971  11.703   0.242
12556W        W84882  35.393  12.171   3.225
12557W        W84883  27.493  37.486   1.773
12558W        W84884  19.232   2.391   4.651
12559W        W84885  43.384  12.158  13.500
12560W        W84886  12.243  36.404  12.352
12561W        W84887   9.206   6.342   4.706
12562W        W84888  28.654  35.480   4.299
12563W        W84889  13.807  36.479   3.776
12564W        W84890  28.981   1.444  12.942
12565W        W84891  24.093  39.916   5.173
12566W        W84892  25.479  40.408   2.279
12567W        W84893  39.386   0.978   1.268
12568W        W84894  21.108  34.569   3.264
12569W        W84895   1.337  40.492   1.230
12570W        W84896  44.817  19.075  13.364
12571W        W84897  43.493  29.463  10.413
12572W        W84898   3.356   7.182   4.810
12573W        W84899  18.647  26.461   5.278
12574W        W84900   8.883  12.175  11.392
12575W        W84901  24.021  21.118   2.672
12576W        W84902  26.097  20.159  11.860
12577W        W84903  43.017  23.064   0.441
12578W        W84904  37.535   7.405  12.429
12579W        W84905  39.873  19.738  11.955
12580W        W84906   0.924  23.713  14.942
12581W        W84907  40.964  12.248   4.283
12582W        W84908   9.881  36.451  10.626
12583W        W84909  30.149   0.804  10.536
12584W        W84910  24.040  38.502   3.661
12585W        W84911   6.418  40.839   0.852
12586W        W84912  32.111  28.055   2.193
12587W        W84913  43.017   3.363  13.902
12588W        W84914   8.867  33.053   4.259
12589W        W84915  39.324   3.415  12.543
12590W        W84916  35.510  17.762  10.524
12591W        W84917  32.918  20.191   1.698
12592W        W84918  40.431  34.872  10.925
12593W        W84919  27.500  39.431  11.382
12594W        W84920   2.843  25.109  10.559
12595W        W84921  18.545  27.182   1.915
12596W        W84922  36.371  15.209  10.944
12597W        W84923  11.280   0.899   4.121
12598W        W84924  43.818  12.735  14.456
12599W        W84925  40.309  34.104   2.361
12600W        W84926  16.698  16.643   3.205
12601W        W84927  36.578  43.975   3.731
12602W        W84928  20.739  17.101   1.786
12603W        W84929  31.138  13.182   0.261
12604W        W84930   7.847  44.388  14.921
12605W        W84931  10.771  24.521   1.233
12606W        W84932   1.737  12.815  13.977
12607W        W84933   6.219   6.879  13.018
12608W        W84934  23.552   1.328  13.382
12609W        W84935  34.101  36.571  10.583
12610W        W84936  28.016  40.409   0.950
12611W        W84937  29.099  11.229   3.698
12612W        W84938  34.875  22.091   2.257
12613W        W84939  29.161   1.417   0.770
12614W        W84940   0.311  36.349  10.452
12615W        W84941  12.297  20.065   0.299
12616W        W84942  23.146  39.455   0.258
12617W        W84943   5.741  19.285  14.018
12618W        W84944   8.829  44.287   0.814
12619W        W84945  18.731   2.854   4.817
12620W        W84946   2.744  39.459  10.403
12621W        W84947  34.909  30.586  14.332
12622W        W84948  13.750  41.033   2.875
12623W        W84949   5.889  14.100   4.688
12624W        W84950   6.798  19.138   3.832
12625W        W84951  17.062   9.373   0.272
12626W        W84952  36.942   0.402  14.776
12627W        W84953   1.335  28.162   2.194
12628W        W84954  13.736  12.801  11.521
12629W        W84955  19.698   0.279  10.891
12630W        W84956  17.187   2.282  12.462
12631W        W84957   6.881   5.704  14.410
12632W        W84958  36.975  25.114  10.950
12633W        W84959  38.023  22.572   2.315
12634W        W84960   6.409  18.669  11.900
12635W        W84961   1.840  25.962   3.643
12636W        W84962  18.569  35.875  12.506
12637W        W84963  42.424  21.226   1.845
12638W        W84964   3.263   1.878  10.946
12639W        W84965  25.192   7.391  13.336
12640W        W84966  43.281   4.809  11.945
12641W        W84967  28.168   0.404   2.320
12642W        W84968  40.988   7.205   0.312
12643W        W84969  25.059   4.265   2.742
12644W        W84970   5.416  33.968  12.915
12645W        W84971  33.053  20.688  10.451
12646W        W84972  16.073  31.134   1.867
12647W        W84973  16.660  21.179  10.537
12648W        W84974  12.685  27.095  14.411
12649W        W84975  17.784  20.562  11.900
12650W        W84976  43.005  27.606  12.557
12651W        W84977  33.613  23.705  11.086
12652W        W84978  37.968  13.218   9.569
12653W        W84979  10.673  26.018   3.690
12654W        W84980  29.011  26.059   1.392
12655W        W84981  25.503   5.339   2.377
12656W        W84982   6.320  10.362  12.389
12657W        W84983  40.984  30.508  12.438
12658W        W84984  29.145  12.148   4.701
12659W        W84985  12.199  32.082   1.211
12660W        W84986  44.451  27.454  14.905
12661W        W84987  31.552  24.631   1.870
12662W        W84988  12.676  24.638   1.829
12663W        W84989  38.485  10.144  10.017
12664W        W84990  25.159   3.419   3.754
12665W        W84991   6.826   1.970  11.863
12666W        W84992  30.459  22.589   0.417
12667W        W84993   6.912   5.857  12.083
12668W        W84994  35.903  36.061  12.345
12669W        W84995   0.931   3.917   2.264
12670W        W84996  37.895  13.289   3.235
12671W        W84997  10.279  26.670  11.413
12672W        W84998  23.533  18.604  12.010
12673W        W84999  29.514  40.480   2.670
12674W        W85000  29.598  10.728  10.945
12675W        W85001  43.494  35.585  12.834
12676W        W85002  23.029  40.401  12.010
12677W        W85003   9.228  36.488  10.511
12678W        W85004   5.333   3.734   1.286
12679W        W85005  30.607   3.940   0.931
12680W        W85006  38.834   5.854  13.834
12681W        W85007  43.392  42.915  14.340
12682W        W85008  38.971  16.178   3.765
12683W        W85009  44.291  44.334  10.586
12684W        W85010  38.477  30.040   1.725
12685W        W85011   4.327  12.691  14.322
12686W        W85012  43.938  13.225  13.398
12687W        W85013  32.482  15.149   0.301
12688W        W85014  15.132  20.669  10.643
12689W        W85015   8.897  29.500   2.818
12690W        W85016   4.814  37.953  13.056
12691W        W85017  33.431  29.011  13.418
12692W        W85018  26.106   9.212  11.414
12693W        W85019  17.084  14.799  11.467
12694W        W85020  27.115  29.050  13.536
12695W        W85021  22.698  41.529  14.763
12696W        W85022  41.417  31.976  10.607
12697W        W85023  27.092   9.208   2.774
12698W        W85024  34.478  25.038  10.531
12699W        W85025  29.467  33.382  13.025
12700W        W85026  10.857  37.353  14.365
12701W        W85027  14.317  37.924   3.782
12702W        W85028   0.484  30.081  10.441
12703W        W85029  43.811  21.042  12.002
12704W        W85030   8.406  42.781   2.703
12705W        W85031   9.680  19.212  13.874
12706W        W85032  41.825   1.782   4.284
12707W        W85033  43.914  40.036   4.734
12708W        W85034  20.183  32.901  10.494
12709W        W85035  22.553   5.737  10.638
12710W        W85036  11.784   3.270   4.803
12711W        W85037  42.817  37.879  11.433
12712W        W85038  25.659  40.968   3.272
12713W        W85039  36.871  18.558  14.009
12714W        W85040   2.231  29.092   3.178
12715W        W85041  13.174   8.206  13.935
12716W        W85042  41.360  38.891   4.613
12717W        W85043  44.328   3.790   1.341
12718W        W85044   6.374  25.538  10.549
12719W        W85045  27.629  15.721  14.991
12720W        W85046   5.776  15.676  12.401
12721W        W85047  23.198  37.945  14.294
12722W        W85048   4.806  38.867  14.298
12723W        W85049   4.398  14.636   3.268
12724W        W85050  12.336  11.790  11.430
12725W        W85051  20.581  42.848  13.416
12726W        W85052  34.400  13.291   4.181
12727W        W85053   9.278  34.553  11.980
12728W        W85054  15.755  37.865   1.364
12729W        W85055  37.986   2.357   4.777
12730W        W85056  13.158  16.605   0.250
12731W        W85057   8.898  28.944  13.317
12732W        W85058  31.936  31.610   1.271
12733W        W85059  23.156   7.333   0.318
12734W        W85060  18.225   0.928   0.951
12735W        W85061  12.801   7.178  10.977
12736W        W85062  24.660  24.198   0.383
12737W        W85063   5.816  19.690  14.764
12738W        W85064  41.440  13.648   2.283
12739W        W85065  32.137  36.925   3.631
12740W        W85066  44.416  28.603  11.056
12741W        W85067   0.956  13.211   3.213
12742W        W85068  14.741   5.331   0.783
12743W        W85069  20.735  11.676  12.402
12744W        W85070  32.612  15.177  11.098
12745W        W85071  17.579   2.249  14.940
12746W        W85072   3.799   9.162  14.874
12747W        W85073  32.607  42.799   0.726
12748W        W85074  30.099  43.018  10.942
12749W        W85075  34.516   9.226  10.413
12750W        W85076   7.700   8.810   0.763
12751W        W85077  31.967  30.523  11.452
12752W        W85078  34.984  42.328   3.823
12753W        W85079  31.927   1.940  14.957
12754W        W85080   6.415   0.353   4.195
12755W        W85081  42.929  42.785   2.382
12756W        W85082  42.838  30.648  10.484
12757W        W85083   9.190  38.939  11.022
12758W        W85084  22.231  25.091   5.256
12759W        W85085  43.967  42.814  11.126
12760W        W85086  25.151  13.325   4.743
12761W        W85087   4.878  29.983  12.406
12762W        W85088  24.640  26.201  12.470
12763W        W85089  13.292   7.387   4.237
12764W        W85090  21.713  20.617  11.595
12765W        W85091  17.748  35.555   0.873
12766W        W85092   1.825  42.941  12.562
12767W        W85093  27.009   3.410   4.234
12768W        W85094  40.797   8.823  13.451
12769W        W85095  15.819  27.001  14.931
12770W        W85096  24.511  30.446  12.995
12771W        W85097  35.024   7.381   2.744
12772W        W85098  41.879  17.761   2.822
12773W        W85099  29.979  17.194   4.209
12774W        W85100  19.682  25.188  12.913
12775W        W85101  32.502  23.002  13.425
12776W        W85102  25.538   2.762  13.988
12777W        W85103  29.535   2.826  14.356
12778W        W85104  37.911  33.423   2.402
12779W        W85105  33.558  29.923  13.358
12780W        W85106   5.224  39.971  13.405
12781W        W85107   6.196   9.765   3.232
12782W        W85108  22.559  41.879   0.433
12783W        W85109  21.728  37.036  11.095
12784W        W85110  33.515  14.322  12.058
12785W        W85111  38.877  36.473  14.456
12786W        W85112   3.905   9.751  11.080
12787W        W85113  10.646  12.350   1.794
12788W        W85114  19.605   6.215  11.521
12789W        W85115   8.335   6.386  11.934
12790W        W85116  17.101  26.109   0.801
12791W        W85117  24.508   6.356  14.990
12792W        W85118  11.691   0.313  13.348
12793W        W85119  36.932  22.145   0.836
12794W        W85120  40.012  14.679  13.019
12795W        W85121   7.195  22.179  10.929
12796W        W85122  10.139  28.672   5.167
12797W        W85123  27.454   4.932   1.345
12798W        W85124  19.123  28.062   3.812
12799W        W85125  27.169  40.338  10.124
12800W        W85126   1.406  12.269   2.784
12801W        W85127  14.591  38.876   3.658
12802W        W85128  21.570   3.889   1.301
12803W        W85129  43.002  39.473   0.310
12804W        W85130   0.449  24.668  12.367
12805W        W85131  44.907  39.057  10.476
12806W        W85132  34.492  39.360  10.433
12807W        W85133   7.406  20.050  14.766
12808W        W85134   5.419  33.563   4.231
12809W        W85135  17.087  36.049   3.784
12810W        W85136   6.264  20.545  12.894
12811W        W85137  20.119  27.542  12.875
12812W        W85138   6.373  27.029   3.187
12813W        W85139   8.882  22.150   2.699
12814W        W85140  33.424   8.165   5.249
12815W        W85141  27.085  21.042  10.640
12816W        W85142  18.718  20.653  10.541
12817W        W85143  16.286   5.288  14.984
12818W        W85144  33.875  33.026   1.900
12819W        W85145  10.756  42.356  10.967
12820W        W85146  23.625  30.160  10.532
12821W        W85147  38.927  12.215  13.492
12822W        W85148  23.169   6.287   1.760
12823W        W85149  14.260  19.189   0.815
12824W        W85150   6.259  40.403   3.251
12825W        W85151  39.388  23.048   3.805
12826W        W85152  23.095   0.259  14.506
12827W        W85153   3.397  15.774   0.431
12828W        W85154   6.870  34.433   4.762
12829W        W85155  19.742   8.677  10.438
12830W        W85156  42.827  18.186   0.741
12831W        W85157  24.584  31.576   2.666
12832W        W85158   2.317  37.380  13.891
12833W        W85159  14.643  19.039   0.824
12834W        W85160  21.746  39.387  11.963
12835W        W85161  18.674  18.089   2.877
12836W        W85162  21.539   7.278  14.790
12837W        W85163   4.736  16.802  12.971
12838W        W85164   6.292   1.419   4.350
12839W        W85165  22.641   6.785   4.264
12840W        W85166  40.928  40.452  11.498
12841W        W85167  44.913  32.980   0.894
12842W        W85168  14.212  12.801   4.682
12843W        W85169  27.670   1.741  13.807
12844W        W85170  25.477  27.680   0.956
12845W        W85171   8.727  10.301   2.721
12846W        W85172  23.094  19.544  10.992
12847W        W85173   6.264  26.659   5.163
12848W        W85174  44.997  33.531  11.376
12849W        W85175  16.125  33.553  13.026
12850W        W85176  26.525  28.126   5.166
12851W        W85177  38.908   2.455   3.237
12852W        W85178  10.275   5.814   4.660
12853W        W85179  22.727  32.937  10.533
12854W        W85180   8.383  29.503  14.445
12855W        W85181   1.947  43.976  11.088
12856W        W85182  33.919  18.097  12.007
12857W        W85183  44.471  22.018  12.561
12858W        W85184  31.518   5.354   3.690
12859W        W85185  40.876  42.931   0.753
12860W        W85186  38.390   1.240   0.915
12861W        W85187  15.735  34.514  14.443
12862W        W85188  33.003  44.384   1.352
12863W        W85189  33.532   0.970   0.479
12864W        W85190  11.674  41.411  10.448
12865W        W85191  12.349  36.063  10.450
12866W        W85192  10.321  24.991   0.366
12867W        W85193  20.589  10.346  11.385
12868W        W85194  33.458  11.661   1.433
12869W        W85195  17.675  42.860   1.865
12870W        W85196  29.064  25.601   2.784
12871W        W85197   5.199  41.994  14.347
12872W        W85198  26.627   4.360  11.051
12873W        W85199  23.094  17.786  12.373
12874W        W85200  36.883  27.170   3.352
12875W        W85201   0.780  18.711  12.052
12876W        W85202   5.773  41.890   1.334
12877W        W85203   7.215  20.260  11.457
12878W        W85204  22.044  38.567  11.886
12879W        W85205  36.025  17.064  10.966
12880W        W85206   1.877  34.412   3.172
12881W        W85207  31.956  41.479   3.744
12882W        W85208  38.333  17.187   4.273
12883W        W85209   4.868  33.587   1.783
12884W        W85210  17.697  28.139   4.254
12885W        W85211  22.516   8.706  13.963
12886W        W85212  42.801  15.086   1.299
12887W        W85213  42.967   7.788   0.758
12888W        W85214  29.949  23.532  14.411
12889W        W85215  13.277   9.649  10.602
12890W        W85216  36.044   4.923  11.498
12891W        W85217  28.554  17.605  11.878
12892W        W85218  10.689  27.045   1.746
12893W        W85219   9.270  42.386  14.861
12894W        W85220   2.356  26.960  12.381
12895W        W85221  35.571  44.848  12.534
12896W        W85222  18.081  26.674   2.756
12897W        W85223  28.582  26.650   0.933
12898W        W85224  15.209  29.063   0.252
12899W        W85225  31.534  30.985   0.277
12900W        W85226  24.137  38.062   9.931
12901W        W85227  11.654  38.830  13.526
12902W        W85228   5.727  32.396   2.311
12903W        W85229  28.106   0.343  11.039
12904W        W85230   2.912   8.801  12.016
12905W        W85231   5.815  43.898  13.823
12906W        W85232  11.286   6.394  11.068
12907W        W85233  25.467  28.109   1.436
12908W        W85234  24.189   8.878   0.934
12909W        W85235  14.811  34.551   3.382
12910W        W85236  43.847  30.052   0.735
12911W        W85237  44.940   5.410   1.248
12912W        W85238  10.734  31.636   0.425
12913W        W85239  26.977  26.003   1.893
12914W        W85240   0.905   6.711   0.758
12915W        W85241  23.576  30.527  14.961
12916W        W85242  40.931  14.205   1.371
12917W        W85243  35.917   4.739  14.827
12918W        W85244  20.197   9.867  11.375
12919W        W85245  35.968  20.615  13.373
12920W        W85246   6.322   6.207   2.390
12921W        W85247   7.721   7.345  14.421
12922W        W85248   9.333  38.990  11.384
12923W        W85249  23.022  38.397   0.779
12924W        W85250   3.880  23.647  10.018
12925W        W85251   6.714  25.031   2.760
12926W        W85252  43.471   9.207  14.832
12927W        W85253  10.739  15.716   1.368
12928W        W85254  26.637  35.989  14.427
12929W        W85255   1.374  19.571  13.357
12930W        W85256  28.457   9.736  14.373
12931W        W85257  44.000  35.489   3.192
12932W        W85258  37.985  27.106  12.475
12933W        W85259  31.149   5.229  14.973
12934W        W85260  11.637  38.874  14.440
12935W        W85261  23.657  24.095   2.796
12936W        W85262  26.110  26.515   1.713
12937W        W85263  28.024  32.040  14.786
12938W        W85264  29.572  18.750   2.411
12939W        W85265   2.838  26.952  14.380
12940W        W85266  43.807  21.643   1.860
12941W        W85267  42.518   4.315   0.420
12942W        W85268  24.710   0.378   2.352
12943W        W85269  20.731  25.995   3.190
12944W        W85270  12.143  11.629   1.415
12945W        W85271  36.496  33.476   0.773
12946W        W85272  29.049  43.402   1.825
12947W        W85273   8.197  43.014  13.372
12948W        W85274  38.467   6.354   3.219
12949W        W85275  25.984   1.272  13.365
12950W        W85276   5.222  14.638   3.200
12951W        W85277  36.478  36.575  10.084
12952W        W85278   7.238  12.285   4.185
12953W        W85279  17.754   0.413   2.872
12954W        W85280  38.907  27.576   1.421
12955W        W85281  24.694  17.092  11.493
12956W        W85282  40.447  42.901   0.765
12957W        W85283  16.292  40.046  10.488
12958W        W85284  42.499  21.263  14.383
12959W        W85285  13.206   6.227  12.089
12960W        W85286   8.263  20.547  10.943
12961W        W85287  24.637   6.421   4.630
12962W        W85288   5.786  36.868   4.811
12963W        W85289   1.819  31.122  12.834
12964W        W85290  21.157  34.082  11.120
12965W        W85291  19.608  31.027  14.493
12966W        W85292  32.008  35.455  13.478
12967W        W85293  11.627   4.854  12.894
12968W        W85294   3.333  23.636   2.823
12969W        W85295  19.080  37.391  12.938
12970W        W85296  13.623  14.144  14.838
12971W        W85297  28.531  41.439   1.798
12972W        W85298  24.571  30.986   1.226
12973W        W85299  21.565  36.456   1.247
12974W        W85300  10.268  38.907  11.041
12975W        W85301  29.540  11.277   0.287
12976W        W85302  28.485   5.837   3.675
12977W        W85303   4.817  29.437  11.934
12978W        W85304  33.110   6.841  12.942
12979W        W85305   0.972  43.869   2.887
12980W        W85306  18.148  37.080  13.943
12981W        W85307   8.320   3.881  13.503
12982W        W85308  10.672   7.306  12.509
12983W        W85309  41.944  11.256  14.352
12984W        W85310  31.075  37.436   0.420
12985W        W85311   7.818   5.690   3.261
12986W        W85312   3.275   8.233  13.016
12987W        W85313  25.581  29.105   4.197
12988W        W85314   0.965   4.303  10.578
12989W        W85315   3.392   9.651  10.126
12990W        W85316  29.456  17.305  14.358
12991W        W85317  28.124  31.966   1.237
12992W        W85318  17.586  43.418  10.629
12993W        W85319   3.439  15.197   1.710
12994W        W85320   2.794  27.960  13.488
12995W        W85321  22.202  40.874   2.272
12996W        W85322  26.676  10.707  11.436
12997W        W85323  35.464   0.386  10.601
12998W        W85324  22.633   3.294  12.357
12999W        W85325  44.398  24.064  11.109
13000W        W85326  32.399  19.730   0.729
13001W        W85327  42.422  36.930  10.950
13002W        W85328   5.816  37.893   3.216
13003W        W85329   8.221  12.154  11.491
13004W        W85330   1.776  22.126   4.628
13005W        W85331  21.028  30.019  14.347
13006W        W85332  22.150  23.617  12.874
13007W        W85333  40.409   4.707   4.804
13008W        W85334  12.823  29.151   1.292
13009W        W85335  25.547  13.305   1.823
13010W        W85336  20.211  19.212   0.776
13011W        W85337  20.623   2.373   3.386
13012W        W85338   9.243  36.020  12.541
13013W        W85339  22.239   0.889  10.499
13014W        W85340  40.881  15.283   4.813
13015W        W85341  43.813  18.716   2.352
13016W        W85342  39.029  37.879  14.784
13017W        W85343   6.735  35.085   3.822
13018W        W85344   0.351  42.462   1.264
13019W        W85345  18.786   2.418   3.731
13020W        W85346  23.061  16.147   1.230
13021W        W85347  30.950  24.219  14.782
13022W        W85348  29.002  36.854   3.240
13023W        W85349   1.375  40.439   2.682
13024W        W85350   3.911  42.927  12.438
13025W        W85351   6.717  17.584  11.432
13026W        W85352  38.411  27.598   3.249
13027W        W85353  41.371  24.513  11.945
13028W        W85354   4.782  13.167   3.849
13029W        W85355  27.042  20.236  14.455
13030W        W85356  22.533  15.615  11.868
13031W        W85357  43.925  31.932  12.401
13032W        W85358  29.427  17.656   3.708
13033W        W85359  44.986  41.976   4.174
13034W        W85360  10.278  22.709   4.740
13035W        W85361  35.969  31.061  14.793
13036W        W85362  26.678  38.389  13.522
13037W        W85363  35.389  26.655  11.532
13038W        W85364  37.871  31.145  12.963
13039W        W85365  22.152  42.822  14.026
13040W        W85366  12.735   4.820   0.420
13041W        W85367  14.715  29.099  11.055
13042W        W85368  19.090   6.854  12.434
13043W        W85369   5.216   7.904  14.832
13044W        W85370  43.953  42.809   3.229
13045W        W85371  37.435  12.681   0.963
13046W        W85372  43.828  44.445  10.419
13047W        W85373  18.273  39.837   3.639
13048W        W85374   2.337  11.756   4.660
13049W        W85375   6.777  43.348   3.766
13050W        W85376  22.661  26.164   2.881
13051W        W85377  32.459  39.330  12.077
13052W        W85378  41.927  25.044   1.257
13053W        W85379  42.400  14.649  10.920
13054W        W85380   2.299   7.809   1.894
13055W        W85381  17.103  41.297   3.384
13056W        W85382  36.935  43.388  14.355
13057W        W85383  43.330  37.040   4.820
13058W        W85384  11.175  13.252  12.446
13059W        W85385  24.510   4.318  14.480
13060W        W85386  14.297  10.652   4.296
13061W        W85387   5.690  44.995  13.356
13062W        W85388   8.752   9.346   3.379
13063W        W85389  22.709  34.934  13.426
13064W        W85390   3.238  39.950  11.927
13065W        W85391  28.634  22.132   2.752
13066W        W85392  22.138  31.551  10.444
13067W        W85393  16.722   0.743   1.792
13068W        W85394  29.649  40.823  12.858
13069W        W85395  23.636  27.678  12.067
13070W        W85396  14.778  30.613   1.352
13071W        W85397  42.987  15.710   5.186
13072W        W85398   8.703  15.143  12.560
13073W        W85399  28.112  30.551  13.355
13074W        W85400  35.945   5.708  10.539
13075W        W85401   7.877  35.492   2.716
13076W        W85402  27.963  39.445  14.304
13077W        W85403   0.986  24.144  14.993
13078W        W85404  15.235  31.041   0.907
13079W        W85405  42.935   5.702  13.531
13080W        W85406   6.221  32.951   3.634
13081W        W85407  38.029   2.821  13.926
13082W        W85408  34.963  33.459   5.603
13083W        W85409   6.694  39.894  10.988
13084W        W85410  17.787  41.395   3.238
13085W        W85411  37.991  21.548  10.472
13086W        W85412  34.436  17.141   1.396
13087W        W85413   4.379  43.815  10.569
13088W        W85414  36.583  13.798   0.261
13089W        W85415  14.626   0.487  14.419
13090W        W85416  43.347  12.218   4.787
13091W        W85417  12.758  13.345   1.911
13092W        W85418  42.924  29.938   4.714
13093W        W85419  11.187  15.728   3.349
13094W        W85420  20.176  38.422  13.022
13095W        W85421  35.082  28.483  14.455
13096W        W85422   7.316  29.080  14.795
13097W        W85423  13.303  19.688   5.163
13098W        W85424  12.280   6.852  13.516
13099W        W85425   3.245  28.940   4.707
13100W        W85426  40.025   6.392  14.929
13101W        W85427   0.845  16.207  10.622
13102W        W85428   3.852   4.766  12.410
13103W        W85429   3.814  23.588   2.839
13104W        W85430  22.250  15.644   3.666
13105W        W85431  15.815  33.040  14.409
13106W        W85432  29.528  24.065   0.243
13107W        W85433  11.304   8.799   4.726
13108W        W85434   7.199  25.639   2.745
13109W        W85435   1.925  14.298   1.421
13110W        W85436  21.204  20.736   1.706
13111W        W85437   6.794  18.591   3.778
13112W        W85438  44.905   7.221  13.046
13113W        W85439  42.026  26.967   4.122
13114W        W85440  41.450  44.887  10.518
13115W        W85441  22.147   5.430   4.783
13116W        W85442  25.692   5.372  12.393
13117W        W85443  43.333  42.419  13.986
13118W        W85444   6.350  20.249   0.906
13119W        W85445  22.619  21.128  12.559
13120W        W85446  14.652   9.832  11.128
13121W        W85447  16.738  15.778   4.716
13122W        W85448  43.348  12.760  10.915
13123W        W85449  22.735   2.226  14.966
13124W        W85450  27.636  15.271  14.836
13125W        W85451  42.407  23.641  10.486
13126W        W85452  10.320  44.370  11.864
13127W        W85453  29.495  15.313   1.449
13128W        W85454  25.520   8.678   4.162
13129W        W85455  14.276  22.201   4.831
13130W        W85456  30.988  11.736  13.793
13131W        W85457  25.159  43.929  13.913
13132W        W85458  26.592   7.895   1.280
13133W        W85459  25.626  28.582   0.886
13134W        W85460  17.254  32.492  10.440
13135W        W85461  22.205   5.846  10.612
13136W        W85462   2.372  13.779   2.695
13137W        W85463  39.867  27.122  11.922
13138W        W85464  27.595   4.237   3.841
13139W        W85465  11.208  31.124   2.699
13140W        W85466  41.370  15.229  14.979
13141W        W85467   4.801  13.631  13.547
13142W        W85468   4.330  23.215  11.932
13143W        W85469  14.208  16.732  10.520
13144W        W85470  22.227  34.039   1.347
13145W        W85471  40.446  40.799  11.561
13146W        W85472  28.128  16.570   2.369
13147W        W85473  13.267  42.919  10.474
13148W        W85474   9.258  21.612   4.632
13149W        W85475  40.464  33.049   0.449
13150W        W85476  10.217  19.564  10.411
13151W        W85477  34.037  44.391  14.366
13152W        W85478  25.700  26.459   0.749
13153W        W85479  26.465  15.804   1.371
13154W        W85480  19.721  31.462   2.406
13155W        W85481  37.409  10.639  12.012
13156W        W85482  39.404  34.555   3.294
13157W        W85483  37.434  29.660   0.919
13158W        W85484   7.206  31.098  10.900
13159W        W85485   2.470   8.359  12.472
13160W        W85486   7.824  39.492  12.354
13161W        W85487   7.394  21.165   3.374
13162W        W85488  33.025  22.253  11.397
13163W        W85489  11.817  26.645   0.447
13164W        W85490  16.787  17.087  12.552
13165W        W85491  30.064  18.183  11.579
13166W        W85492   7.820  12.123  13.404
13167W        W85493  19.052  28.626   3.850
13168W        W85494  12.319   0.450  12.498
13169W        W85495   7.259  20.677   4.665
13170W        W85496  20.271  43.938  14.497
13171W        W85497  16.127  29.008  12.531
13172W        W85498  20.043  33.065  14.009
13173W        W85499  37.410  32.597   2.228
13174W        W85500  38.487  12.222   9.605
13175W        W85501  37.913   2.403   2.680
13176W        W85502  26.204  12.799   3.262
13177W        W85503  10.359  38.540  14.022
13178W        W85504  38.363  34.082   1.228
13179W        W85505  24.496   0.318   2.751
13180W        W85506  18.703  31.641  12.515
13181W        W85507  25.101  10.279  14.403
13182W        W85508   0.372   5.923  12.369
13183W        W85509  26.122  33.886   2.373
13184W        W85510  44.006  13.186  14.810
13185W        W85511   6.794  10.301  11.427
13186W        W85512  25.596  23.160   2.283
13187W        W85513   8.685   7.718  14.794
13188W        W85514   6.816  16.760   2.846
13189W        W85515   3.383  17.644  11.963
13190W        W85516  10.821  24.141   3.340
13191W        W85517  24.616  25.626  11.395
13192W        W85518  29.494  17.228  13.389
13193W        W85519  43.995  31.591  12.407
13194W        W85520  39.497  37.437   3.835
13195W        W85521  35.572   9.783  10.575
13196W        W85522  28.176  22.662  11.966
13197W        W85523  27.487  31.055  14.022
13198W        W85524  23.125  14.736  12.067
13199W        W85525  39.993   6.807  14.824
13200W        W85526  25.986  39.316  13.026
13201W        W85527   5.207   4.254  10.524
13202W        W85528  33.025  33.959  14.496
13203W        W85529  32.902  21.219  11.574
13204W        W85530  39.062   7.879   0.459
13205W        W85531  34.047   8.255  12.829
13206W        W85532  14.178  31.497  10.612
13207W        W85533  31.036  12.815  13.466
13208W        W85534  13.695  19.640   1.379
13209W        W85535  26.022  18.767   1.289
13210W        W85536   2.307  23.232  10.929
13211W        W85537  11.246  15.324  14.509
13212W        W85538   0.278  42.849   0.465
13213W        W85539  44.268  23.592  10.643
13214W        W85540  33.016  13.845  11.569
13215W        W85541  34.008  26.655  10.030
13216W        W85542  12.622   6.721  14.889
13217W        W85543  44.770  38.932  11.118
13218W        W85544  18.557  17.797   4.151
13219W        W85545   2.283  42.027   0.276
13220W        W85546  44.005  32.579   4.303
13221W        W85547  13.262  27.016   1.835
13222W        W85548   5.439  32.956  10.924
13223W        W85549  11.632  23.645  10.565
13224W        W85550  29.151  26.628  12.539
13225W        W85551   3.447  44.308  14.434
13226W        W85552   1.460  31.512  14.977
13227W        W85553  29.963  20.620   1.697
13228W        W85554  27.082  12.150  12.851
13229W        W85555  16.215  31.561  12.379
13230W        W85556  27.617  32.974   0.928
13231W        W85557  12.736  37.982  10.411
13232W        W85558  25.625  13.105   0.482
13233W        W85559   4.266   9.852  11.589
13234W        W85560  11.254  32.611   3.682
13235W        W85561  20.057  29.065   3.849
13236W        W85562  34.903  38.843  14.873
13237W        W85563  34.380   1.895   3.639
13238W        W85564  17.166  41.417   9.973
13239W        W85565   6.260  41.410  14.806
13240W        W85566  42.827  23.670  14.453
13241W        W85567  35.085  37.523   4.208
13242W        W85568  35.537  37.540  12.482
13243W        W85569  26.544  31.995   2.847
13244W        W85570  34.941  14.247  13.373
13245W        W85571  28.956  16.246   1.293
13246W        W85572  34.510  41.373   0.918
13247W        W85573  44.773  28.065   0.956
13248W        W85574   5.884   8.166   1.787
13249W        W85575  35.056  30.657  13.993
13250W        W85576   8.257  41.977   1.798
13251W        W85577  22.137   4.851  14.004
13252W        W85578  22.220  15.294  12.436
13253W        W85579  35.575   9.671   4.608
13254W        W85580  42.509  29.090   2.760
13255W        W85581  18.258  31.614  12.488
13256W        W85582  41.336  17.063   3.832
13257W        W85583  43.464  33.948  10.966
13258W        W85584  38.325   2.925  12.357
13259W        W85585  14.305  28.988  11.022
13260W        W85586  41.352  22.078   4.145
13261W        W85587  14.116  37.434   1.732
13262W        W85588  43.446  26.568  13.962
13263W        W85589  28.595  22.548   4.177
13264W        W85590  14.223  39.544   2.768
13265W        W85591  18.245   1.347  10.598
13266W        W85592  33.539   3.274  10.048
13267W        W85593  20.169  42.987   0.905
13268W        W85594  39.910  29.653   3.242
13269W        W85595  44.788  29.089  14.811
13270W        W85596  29.930  14.094  13.474
13271W        W85597  33.571  24.175  11.906
13272W        W85598  29.994   2.830   2.864
13273W        W85599  20.598  44.849  11.500
13274W        W85600  30.941  39.493   1.308
13275W        W85601   2.797  22.673   0.748
13276W        W85602   2.786  37.554  14.315
13277W        W85603  10.788   2.919  13.520
13278W        W85604  17.634  41.928   2.889
13279W        W85605  43.837  24.543  10.643
13280W        W85606  12.772  21.244  10.535
13281W        W85607  26.998  27.073   0.894
13282W        W85608   2.459  15.180  12.946
13283W        W85609  41.301  14.237  13.421
13284W        W85610   4.832  23.657  14.431
13285W        W85611  24.712  26.624   5.322
13286W        W85612  36.406  41.334  12.041
13287W        W85613  38.883  29.457   5.173
13288W        W85614  27.183   7.199   2.243
13289W        W85615  24.541  35.559  11.892
13290W        W85616  12.719  31.461   1.435
13291W        W85617   5.219  25.502   0.841
13292W        W85618   8.166  14.287   0.462
13293W        W85619  34.969  29.171  14.292
13294W        W85620  39.530  25.558   0.310
13295W        W85621   7.358  26.136   2.814
13296W        W85622  26.014  23.499   4.331
13297W        W85623  37.867  19.060   4.766
13298W        W85624  17.719   8.219   0.889
13299W        W85625   4.333  20.743   2.728
13300W        W85626   8.209  40.351  10.994
13301W        W85627  14.663  43.327   1.441
13302W        W85628  10.189  41.401  13.539
13303W        W85629   7.312  38.452  11.042
13304W        W85630  23.072  41.897   0.842
13305W        W85631  14.665   0.942  10.485
13306W        W85632  30.447  44.322   4.277
13307W        W85633   2.739   8.180  13.997
13308W        W85634  32.435   6.818   3.185
13309W        W85635  15.145  40.950   2.768
13310W        W85636  27.539  26.627   5.318
13311W        W85637  29.964  21.055   3.197
13312W        W85638   7.269  34.491  11.033
13313W        W85639  38.412   0.941   0.406
13314W        W85640  14.289  23.104  11.389
13315W        W85641  36.446  38.511   1.784
13316W        W85642  27.189  16.161   0.953
13317W        W85643  12.154  10.832   3.785
13318W        W85644  13.690  34.019  11.862
13319W        W85645  27.992  41.448   3.212
13320W        W85646  16.191   7.199  13.843
13321W        W85647  39.861  18.713  12.083
13322W        W85648  13.770   7.215   1.327
13323W        W85649  41.827  36.855  14.883
13324W        W85650  11.177   3.758  11.485
13325W        W85651  28.054  26.592   0.777
13326W        W85652  16.312  10.830  13.011
13327W        W85653  38.341  21.702   2.236
13328W        W85654  38.460   9.889  14.016
13329W        W85655  19.188  33.577   2.332
13330W        W85656  26.697   5.790   4.681
13331W        W85657  13.108  20.756   3.228
13332W        W85658  40.946  29.016   1.386
13333W        W85659  35.974  18.227   2.218
13334W        W85660  26.176  44.403  13.891
13335W        W85661  12.637   1.956  13.063
13336W        W85662  22.619  25.665   0.805
13337W        W85663   2.954  28.151   1.405
13338W        W85664  17.565  32.502   2.283
13339W        W85665  22.630  29.595  12.991
13340W        W85666  44.785  39.980  11.868
13341W        W85667  17.689   3.263  14.475
13342W        W85668  30.114  11.194   4.803
13343W        W85669  23.554  23.083   1.359
13344W        W85670  40.910  34.960  10.909
13345W        W85671   8.797  39.552   2.292
13346W        W85672  22.549  16.256   3.863
13347W        W85673  11.628  13.766   0.827
13348W        W85674  34.982  18.600   1.889
13349W        W85675  23.214  31.059  10.535
13350W        W85676  26.086  19.702  12.890
13351W        W85677  21.025  41.894  12.920
13352W        W85678  26.113  23.186  12.440
13353W        W85679  14.697   4.233   4.642
13354W        W85680  40.987  38.840   1.697
13355W        W85681  33.061  44.938   0.366
13356W        W85682  17.680   3.898  12.529
13357W        W85683  18.574   0.430  13.804
13358W        W85684  19.144  31.453  11.016
13359W        W85685  33.129  33.929  11.105
13360W        W85686   4.327   4.767   4.752
13361W        W85687  38.414   2.308   3.313
13362W        W85688  43.321  37.906   2.770
13363W        W85689  23.992   6.349   0.871
13364W        W85690  28.171   9.366  14.280
13365W        W85691  17.560   3.444  10.431
13366W        W85692  33.573   3.871  11.983
13367W        W85693  44.297  33.923  10.409
13368W        W85694  42.391  17.634   2.194
13369W        W85695  15.094  35.955   4.778
13370W        W85696  15.327   2.430  14.865
13371W        W85697   2.375  10.257   4.264
13372W        W85698  30.038  15.280  13.525
13373W        W85699   2.854   5.264  14.982
13374W        W85700  23.566  15.727   2.860
13375W        W85701  25.195  12.289   2.390
13376W        W85702   3.919  42.901  13.963
13377W        W85703  20.095  33.985   0.359
13378W        W85704  25.071  20.711   0.375
13379W        W85705  13.326  18.613  11.392
13380W        W85706  18.760  29.121  11.523
13381W        W85707  39.032  13.153   2.767
13382W        W85708   2.892   3.866   1.387
13383W        W85709  23.184   1.816  12.077
13384W        W85710  27.073  36.525  11.986
13385W        W85711  15.254  29.144   1.401
13386W        W85712  21.154   5.883  13.957
13387W        W85713   3.722  31.962   3.705
13388W        W85714   8.879   1.394   1.712
13389W        W85715  35.494  21.581  14.962
13390W        W85716   6.879  26.696   4.250
13391W        W85717   4.329   6.771  11.494
13392W        W85718  19.695  27.572   2.408
13393W        W85719   5.214  37.933   3.650
13394W        W85720  38.905   0.277  11.041
13395W        W85721  14.317   4.889  10.467
13396W        W85722   7.316   2.876   1.858
13397W        W85723  24.624  14.321  14.293
13398W        W85724  22.633  36.369  11.909
13399W        W85725  17.157   4.826   1.925
13400W        W85726  29.456   8.780  12.974
13401W        W85727   7.213  32.632   1.695
13402W        W85728  41.816  30.918  11.375
13403W        W85729   8.856  35.005   0.390
13404W        W85730  15.578  10.649  12.483
13405W        W85731  31.978  44.434   5.266
13406W        W85732   5.296  26.072   1.353
13407W        W85733  31.022  21.175  10.082
13408W        W85734   4.902  27.023   2.816
13409W        W85735   5.208   4.401  13.037
13410W        W85736   9.242  38.994   2.208
13411W        W85737  26.112  21.543  14.794
13412W        W85738   0.357   6.347  12.348
13413W        W85739  23.100  39.509  11.902
13414W        W85740   1.965   2.421   0.265
13415W        W85741  33.549  24.043   1.896
13416W        W85742  12.822  13.107   1.294
13417W        W85743  42.784  14.796   2.212
13418W        W85744   8.168  34.948  13.031
13419W        W85745   9.798  18.620  10.587
13420W        W85746  14.237  32.572  14.434
13421W        W85747   2.438  14.297   4.211
13422W        W85748  10.312   3.431   3.352
13423W        W85749  17.102  27.543  11.394
13424W        W85750   1.469  37.957   2.405
13425W        W85751  40.415  43.470   3.321
13426W        W85752  18.071   0.291  12.563
13427W        W85753   3.330  29.477  11.863
13428W        W85754   7.249  33.017   4.115
13429W        W85755  42.848   3.433   0.368
13430W        W85756  27.467  12.321  14.943
13431W        W85757  22.524  36.478   0.263
13432W        W85758  28.038  38.391   2.661
13433W        W85759   2.874  19.551  11.083
13434W        W85760  21.617  23.708  14.497
13435W        W85761  44.496   0.257   1.781
13436W        W85762   5.372  29.942   0.430
13437W        W85763  29.029   8.810   0.343
13438W        W85764  41.503   8.854   1.222
13439W        W85765   1.273  17.076  12.481
13440W        W85766  32.020  44.947  14.437
13441W        W85767  34.881  10.677  14.943
13442W        W85768  17.625  39.860  13.804
13443W        W85769   9.675  24.111   4.207
13444W        W85770  12.684  35.053  13.341
13445W        W85771  16.772  26.541  11.604
13446W        W85772  28.058  40.016  10.485
13447W        W85773   5.339   0.753  10.978
13448W        W85774  27.041   1.873  12.571
13449W        W85775  11.806  36.023  13.491
13450W        W85776  19.121   3.933   4.784
13451W        W85777   1.286  29.424   1.757
13452W        W85778   7.665  11.746  12.848
13453W        W85779  19.286  23.710   2.373
13454W        W85780  38.982  36.087  13.999
13455W        W85781  31.052  36.038  13.488
13456W        W85782  40.480  36.507   1.416
13457W        W85783  26.176  15.755  11.958
13458W        W85784  44.501  16.739   2.820
13459W        W85785   8.844  28.661   1.712
13460W        W85786  34.039  43.381  14.918
13461W        W85787  27.072  35.593  11.025
13462W        W85788   0.828  29.044   3.319
13463W        W85789  38.508  41.473   3.373
13464W        W85790  20.613  17.678   2.777
13465W        W85791  42.527  15.697   4.163
13466W        W85792  18.758  43.423   0.362
13467W        W85793   3.864  39.532  14.985
13468W        W85794  19.196  22.231   2.232
13469W        W85795   5.429  31.421   3.374
13470W        W85796  22.673  30.997  12.399
13471W        W85797  27.173  23.073  10.596
13472W        W85798  36.507  35.864  13.967
13473W        W85799  34.082  39.965  13.512
13474W        W85800  14.652  15.609  11.512
13475W        W85801  31.495   0.295   1.219
13476W        W85802  23.192  44.759   4.766
13477W        W85803  35.055  36.432  13.952
13478W        W85804   6.396  14.832   1.218
13479W        W85805   2.367  36.082   3.250
13480W        W85806  25.709  26.201  11.391
13481W        W85807  11.708  36.469  10.587
13482W        W85808  34.531   8.335   3.155
13483W        W85809  42.004  44.491   2.887
13484W        W85810   0.361  36.582  11.562
13485W        W85811  25.141  17.583   0.824
13486W        W85812  43.335  14.186  10.120
13487W        W85813  35.024  38.571  12.848
13488W        W85814  30.139  44.352   1.731
13489W        W85815  28.512   6.281  14.430
13490W        W85816  35.393  32.537   1.912
13491W        W85817  19.210  23.022   1.249
13492W        W85818  27.642   2.766   1.756
13493W        W85819  21.115  34.881   0.815
13494W        W85820  32.968  28.587   4.284
13495W        W85821   6.693  21.537   2.848
13496W        W85822  19.664   9.339  14.873
13497W        W85823   7.836  28.024   3.752
13498W        W85824  24.166  39.323   2.196
13499W        W85825  14.316   7.903   2.380
13500W        W85826  24.674   6.806   4.609
13501W        W85827  12.747   1.306  13.058
13502W        W85828   3.333  21.722  14.029
13503W        W85829  25.993  34.993  13.927
13504W        W85830   9.294  29.934   2.210
13505W        W85831  25.664   6.811  10.922
13506W        W85832   0.888  14.202  10.520
13507W        W85833  38.825  23.682   3.860
13508W        W85834  17.563  15.786   4.133
13509W        W85835   3.868  42.809  11.921
13510W        W85836  12.719  38.554   2.856
13511W        W85837  15.314  34.390   0.825
13512W        W85838  19.272  16.106  13.404
13513W        W85839  14.672   7.804   2.413
13514W        W85840  16.092   2.467  10.626
13515W        W85841   1.437  23.683  14.904
13516W        W85842  35.976  40.904  11.546
13517W        W85843  39.905  23.061  11.935
13518W        W85844  25.540  17.271   4.767
13519W        W85845  24.542  22.670   0.365
13520W        W85846  32.521  44.772  14.898
13521W        W85847   9.220   7.388  10.636
13522W        W85848  43.990  14.698  13.462
13523W        W85849  44.889  13.338   3.210
13524W        W85850  30.500  24.556  11.477
13525W        W85851   1.348  19.101  12.871
13526W        W85852   2.946  33.926   2.743
13527W        W85853  24.584  32.089   2.759
13528W        W85854  13.806   8.893   0.285
13529W        W85855  15.585  36.494  10.926
13530W        W85856  32.394  27.658  12.429
13531W        W85857  25.667  16.748   2.258
13532W        W85858   2.392  28.527   3.711
13533W        W85859   8.195   7.754   1.861
13534W        W85860  33.388   0.322  10.477
13535W        W85861  13.303  10.738   2.772
13536W        W85862  13.261  22.731  14.950
13537W        W85863  32.057  35.593  13.932
13538W        W85864  23.010  35.988  11.489
13539W        W85865  24.151  34.873   4.129
13540W        W85866  11.676  19.280   3.181
13541W        W85867  32.420  15.789   4.775
13542W        W85868  38.827  23.165  11.916
13543W        W85869  32.992  22.117   4.680
13544W        W85870  23.197  12.652   2.386
13545W        W85871   9.163  20.678   0.425
13546W        W85872  22.611  22.660  13.459
13547W        W85873  18.697   7.246  14.776
13548W        W85874  12.179  42.402   1.280
13549W        W85875  38.431  10.330  13.922
13550W        W85876  27.985   0.775   2.185
13551W        W85877  27.671  28.611   0.827
13552W        W85878  36.524  15.204  11.462
13553W        W85879   6.779  24.613  14.932
13554W        W85880  28.941  25.105  11.970
13555W        W85881  17.222   4.339  12.378
13556W        W85882  35.451  27.574  14.496
13557W        W85883  17.710  31.080  13.004
13558W        W85884  44.391  23.188   1.826
13559W        W85885  26.960  11.658   3.853
13560W        W85886   6.890   5.282  11.448
13561W        W85887   0.983  20.246  11.032
13562W        W85888  23.632   3.795   4.208
13563W        W85889  43.507  34.106  10.407
13564W        W85890   0.818  28.538   2.188
13565W        W85891   4.883   9.222   0.420
13566W        W85892  41.427  16.808  10.454
13567W        W85893  12.784  21.238  14.789
13568W        W85894  29.997  24.572   4.231
13569W        W85895  28.151  26.515  13.369
13570W        W85896   2.348  35.515   0.882
13571W        W85897   9.685  37.502   1.319
13572W        W85898  37.843  30.591   1.310
13573W        W85899  16.599  18.719   0.913
13574W        W85900   3.396   3.218   2.855
13575W        W85901  43.896  25.608   1.842
13576W        W85902  10.258  22.689   1.759
13577W        W85903  34.564  35.380   3.278
13578W        W85904  12.123   0.790   2.742
13579W        W85905  12.752  35.453  14.514
13580W        W85906  22.025  38.018  10.927
13581W        W85907  25.575  20.622  13.376
13582W        W85908   5.283   9.162   2.875
13583W        W85909   4.735  23.159   3.270
13584W        W85910   4.771   7.219  14.352
13585W        W85911  35.983  13.679   0.360
13586W        W85912  15.692  30.445  12.438
13587W        W85913  29.592   1.812   0.788
13588W        W85914  42.448  43.391   4.203
13589W        W85915  27.453  20.538  13.901
13590W        W85916  27.983  39.843  14.799
13591W        W85917  31.935  39.063  12.047
13592W        W85918   2.725  10.698  13.863
13593W        W85919   1.765  39.856  10.448
13594W        W85920  37.520  36.511  10.975
13595W        W85921  10.333  20.038   3.340
13596W        W85922  34.004  28.984  11.509
13597W        W85923  33.587  40.840  14.950
13598W        W85924  16.800  29.145  13.419
13599W        W85925  22.721  18.107   5.111
13600W        W85926  34.049   9.382  12.401
13601W        W85927  10.876   9.295  14.418
13602W        W85928  37.916  23.222  12.419
13603W        W85929  33.003  33.623   3.721
13604W        W85930   4.906  17.203   2.862
13605W        W85931  38.052  28.123   1.441
13606W        W85932  11.297  24.228  13.971
13607W        W85933  21.117  13.171  13.494
13608W        W85934  40.980   5.910  11.094
13609W        W85935   1.917  27.509   2.874
13610W        W85936  33.424  34.554  13.444
13611W        W85937  13.798  16.213  12.574
13612W        W85938  40.015  44.276  12.858
13613W        W85939  39.969  43.392   0.348
13614W        W85940  24.524  31.127  13.383
13615W        W85941   0.750  41.473  10.142
13616W        W85942  40.356  25.016  14.401
13617W        W85943  33.936  42.460  12.575
13618W        W85944  31.948  12.345   0.907
13619W        W85945  29.451  41.412   0.886
13620W        W85946  34.112  31.974   2.851
13621W        W85947  12.184  12.688   4.195
13622W        W85948   7.737  27.034   4.765
13623W        W85949   6.884  31.123   1.414
13624W        W85950  12.235   9.316  14.942
13625W        W85951  43.781  19.780  14.819
13626W        W85952  17.689  38.534   2.306
13627W        W85953   5.419  17.142   4.611
13628W        W85954  25.570   3.735   4.721
13629W        W85955  39.500  20.619   2.746
13630W        W85956  32.135   0.267   1.812
13631W        W85957   2.324  24.208  12.865
13632W        W85958  12.821  14.126   1.390
13633W        W85959  10.246   6.224  12.915
13634W        W85960  18.128   5.760  10.490
13635W        W85961  17.105   5.276  12.905
13636W        W85962  37.450  20.669   1.915
13637W        W85963  21.644  31.565   0.434
13638W        W85964  37.384  20.205  12.031
13639W        W85965  19.723  38.073   0.271
13640W        W85966   2.373   9.802   9.994
13641W        W85967  35.566   5.881  13.046
13642W        W85968  41.824  22.242  14.491
13643W        W85969   6.376  12.250  14.812
13644W        W85970   5.399  40.343   4.294
13645W        W85971   8.308  18.101  12.021
13646W        W85972  25.021  37.858   2.180
13647W        W85973  36.446  11.262   2.718
13648W        W85974   3.418  25.629   3.344
13649W        W85975  44.932  44.289   1.310
13650W        W85976  32.497  23.119   0.965
13651W        W85977  11.749  34.904   9.933
13652W        W85978  26.019   5.272  11.071
13653W        W85979  32.982   7.231  13.511
13654W        W85980  29.059  10.384  13.456
13655W        W85981  12.328  26.630   9.537
13656W        W85982   5.903   5.241  11.008
13657W        W85983  30.102  30.564   2.284
13658W        W85984  30.596  35.930  12.398
13659W        W85985  28.090   1.253   3.755
13660W        W85986  25.546  26.170   2.188
13661W        W85987  32.572   8.683   0.327
13662W        W85988  24.061  26.011  11.464
13663W        W85989   1.262   7.865  11.473
13664W        W85990   9.202  35.534   3.751
13665W        W85991   7.723  35.901   1.376
13666W        W85992  10.776  23.557   3.836
13667W        W85993  25.998  44.832  14.378
13668W        W85994  43.799  22.096  14.392
13669W        W85995  28.128  22.056  11.381
13670W        W85996  30.503  38.337   1.716
13671W        W85997  14.332   9.693   9.922
13672W        W85998  11.638   8.748   2.286
13673W        W85999  44.978  28.003   1.884
13674W        W86000  17.096   3.746  14.458
13675W        W86001  12.162  10.326  12.495
13676W        W86002  11.782  15.267  12.938
13677W        W86003  42.358  33.024   4.174
13678W        W86004  21.647  15.328  14.283
13679W        W86005   6.366  38.333   4.224
13680W        W86006  35.089   6.269  13.826
13681W        W86007  36.359   5.272  10.936
13682W        W86008  28.634  27.642  10.120
13683W        W86009   8.722  32.017  11.024
13684W        W86010  31.145  11.766   1.350
13685W        W86011  39.832  24.572   0.288
13686W        W86012  24.019   6.225   2.867
13687W        W86013  24.703   4.932  13.321
13688W        W86014  28.592  32.086  12.975
13689W        W86015  35.587  26.692   2.185
13690W        W86016  21.739  36.420  11.384
13691W        W86017  22.220  12.178  14.458
13692W        W86018  43.405  18.777   3.150
13693W        W86019   5.730  26.498   3.651
13694W        W86020   3.295  26.119  12.433
13695W        W86021  11.362  15.688  11.427
13696W        W86022  31.634  25.606  11.025
13697W        W86023  18.262  31.572  12.028
13698W        W86024  12.216  21.099   2.739
13699W        W86025  27.044   4.209   2.355
13700W        W86026  34.888  39.060   0.765
13701W        W86027  40.032  20.105   1.449
13702W        W86028   0.411  11.831   3.713
13703W        W86029   2.344  14.713   1.875
13704W        W86030  16.181  29.999  11.111
13705W        W86031  24.602  33.571  10.630
13706W        W86032  10.777  41.397  10.906
13707W        W86033  27.684  36.542  12.508
13708W        W86034  41.791   9.202   0.942
13709W        W86035  27.471  16.611  11.477
13710W        W86036  24.655  29.969  14.983
13711W        W86037  28.566   9.703   4.331
13712W        W86038  32.892  14.120   1.287
13713W        W86039  22.617  21.064   0.415
13714W        W86040  14.698  18.765   1.451
13715W        W86041  35.869  34.575  11.868
13716W        W86042  27.504  21.728  13.878
13717W        W86043  17.643  29.011  14.467
13718W        W86044  43.383  25.983   2.785
13719W        W86045  42.003  25.645  10.645
13720W        W86046  19.555   7.843   1.402
13721W        W86047  28.640  33.100  10.913
13722W        W86048  33.125  13.242  14.774
13723W        W86049  40.811   9.822   3.833
13724W        W86050  29.521  11.793  13.329
13725W        W86051  24.494  22.152  12.551
13726W        W86052  11.326  26.702  13.514
13727W        W86053  24.582  43.824   2.367
13728W        W86054  10.184  33.119   2.715
13729W        W86055  11.796  15.729  11.974
13730W        W86056  18.669  16.812   3.797
13731W        W86057  14.246  23.595   3.213
13732W        W86058   8.851   2.740  14.420
13733W        W86059  37.426  11.800   2.831
13734W        W86060  15.578   1.313   4.306
13735W        W86061  44.485   1.947   1.899
13736W        W86062   3.789  38.850  13.927
13737W        W86063  30.071  40.926   3.860
13738W        W86064   0.935  16.662  13.419
13739W        W86065  37.894  15.258   1.728
13740W        W86066  11.699  32.436  12.340
13741W        W86067  18.578  25.177   5.151
13742W        W86068  17.576  41.506   4.830
13743W        W86069  15.682  24.715   4.156
13744W        W86070  33.591  19.689  11.981
13745W        W86071  43.349  30.645  11.491
13746W        W86072  35.952  40.457  12.565
13747W        W86073  28.522  22.088  14.283
13748W        W86074   6.205  20.205   3.205
13749W        W86075   6.226  36.918  13.814
13750W        W86076  18.686  14.285  14.914
13751W        W86077  11.255  39.544  12.003
13752W        W86078  12.347  12.149   3.835
13753W        W86079  41.358  33.087  12.489
13754W        W86080  20.624  43.878   3.156
13755W        W86081  12.732  33.459   3.387
13756W        W86082  28.957  25.602  11.862
13757W        W86083  44.884  14.196   1.714
13758W        W86084  22.244  10.671  14.948
13759W        W86085  26.535   8.754   2.344
13760W        W86086  37.537   7.739   1.355
13761W        W86087  22.171  30.026   1.269
13762W        W86088  23.987  35.018  10.972
13763W        W86089  12.685  17.290   0.946
13764W        W86090  27.550  21.728   1.446
13765W        W86091   1.384  18.082  13.476
13766W        W86092  37.849  13.615   5.185
13767W        W86093  31.011  43.791  13.849
13768W        W86094  34.008  19.715  12.890
13769W        W86095  35.101  31.937   9.998
13770W        W86096  23.717  44.394   1.226
13771W        W86097   0.883  34.481  14.511
13772W        W86098  26.097   0.858  13.993
13773W        W86099  24.610   3.853  13.008
13774W        W86100  27.549  28.454  13.363
13775W        W86101  42.289   6.256   0.944
13776W        W86102  14.805  43.407   3.315
13777W        W86103  24.124  22.108   1.371
13778W        W86104   1.798  13.668  11.963
13779W        W86105  42.283  37.558  12.385
13780W        W86106  37.896  14.829   1.749
13781W        W86107  34.941  17.229   2.880
13782W        W86108  43.422  37.848  14.306
13783W        W86109  20.029  10.265   4.819
13784W        W86110   1.319  39.813  14.378
13785W        W86111  44.766  38.350   4.762
13786W        W86112   6.701  16.317   2.374
13787W        W86113  26.103  16.296  13.012
13788W        W86114   1.732   0.881   0.810
13789W        W86115  11.642  13.746  13.914
13790W        W86116   8.397  17.605  12.921
13791W        W86117  35.375  14.773  11.037
13792W        W86118   3.762   4.728   3.343
13793W        W86119   7.728  22.630   1.334
13794W        W86120   5.758   2.288  11.416
13795W        W86121  22.037  41.524   3.294
13796W        W86122  42.472  34.914   3.660
13797W        W86123  14.769  10.286  14.008
13798W        W86124   9.243  37.496  12.580
13799W        W86125  10.380   2.786   3.851
13800W        W86126  18.134  41.026   0.862
13801W        W86127  32.025  19.143   3.336
13802W        W86128   7.364  29.107   1.339
13803W        W86129  28.120  20.576  10.940
13804W        W86130  42.784  13.782  12.872
13805W        W86131   1.920   2.814   4.345
13806W        W86132  28.534   5.279  12.064
13807W        W86133  44.312  30.526  13.383
13808W        W86134  37.497   7.327  12.864
13809W        W86135  13.622  21.150   0.866
13810W        W86136  13.140  13.140  14.382
13811W        W86137  22.678   6.195  12.073
13812W        W86138  35.393  12.848  10.642
13813W        W86139   1.849  27.593  10.506
13814W        W86140   8.254  26.089   4.618
13815W        W86141   6.353  26.686  13.873
13816W        W86142   4.288  11.720  10.583
13817W        W86143   1.295   9.665   4.135
13818W        W86144   7.279  24.610   2.355
13819W        W86145  36.908   7.743  14.775
13820W        W86146   2.929  24.595  10.053
13821W        W86147  38.916  38.883  12.847
13822W        W86148   6.912  31.916   4.231
13823W        W86149  43.422  24.122   3.224
13824W        W86150  16.137  37.337  10.432
13825W        W86151   9.383  14.657   2.351
13826W        W86152   2.245  42.802   5.125
13827W        W86153  11.637  23.551   1.297
13828W        W86154   9.884   8.316  11.076
13829W        W86155  18.077  42.358   4.126
13830W        W86156  37.977  15.773  10.938
13831W        W86157   9.327  43.020   3.784
13832W        W86158  22.016  19.080   1.721
13833W        W86159  10.258  37.045  12.341
13834W        W86160  11.363  37.033  14.781
13835W        W86161  22.654  26.994  11.895
13836W        W86162  24.724  26.687   3.771
13837W        W86163   8.736   2.846   4.339
13838W        W86164  37.074  34.539  11.519
13839W        W86165  24.626   9.302   0.295
13840W        W86166   3.447  16.788  13.815
13841W        W86167  42.794   6.858   4.737
13842W        W86168  40.892  13.197   1.856
13843W        W86169  14.766   1.865  14.947
13844W        W86170  29.074  24.998  11.518
13845W        W86171  39.379   8.860  14.502
13846W        W86172  37.501   9.789  10.988
13847W        W86173  39.899   3.766   3.808
13848W        W86174  16.231  21.081  13.419
13849W        W86175  23.559  26.629   3.291
13850W        W86176  43.297   7.906  12.578
13851W        W86177   2.453   5.865  14.956
13852W        W86178  10.289  30.994   2.398
13853W        W86179  17.129  17.244  14.314
13854W        W86180  32.491  14.638  12.904
13855W        W86181  27.075  32.123  10.431
13856W        W86182  43.366  20.534   0.798
13857W        W86183   7.676  30.463   2.835
13858W        W86184  10.146  19.758   2.311
13859W        W86185   3.261  17.242   1.442
13860W        W86186  29.610  12.620   0.345
13861W        W86187  33.534  42.940  10.891
13862W        W86188  10.342  15.809  12.046
13863W        W86189  23.697   7.858   4.142
13864W        W86190   7.378   0.409  14.938
13865W        W86191   1.955  41.996   2.870
13866W        W86192  19.679  37.007   4.784
13867W        W86193   7.779  44.308   1.375
13868W        W86194  25.550  29.590   3.216
13869W        W86195   5.923  28.533   1.273
13870W        W86196  41.390  36.022   1.836
13871W        W86197  36.538  13.266  10.545
13872W        W86198   2.856  44.982  14.464
13873W        W86199   1.463  13.743  10.413
13874W        W86200  22.520  41.400   3.245
13875W        W86201  14.250  25.611  12.960
13876W        W86202  37.043  25.616   3.284
13877W        W86203  23.139  31.422  12.385
13878W        W86204  36.955  28.137   1.245
13879W        W86205   2.328  42.339  11.939
13880W        W86206   7.262  17.638  11.470
13881W        W86207  30.999  29.586   3.219
13882W        W86208  10.283   8.407   1.836
13883W        W86209  32.526   5.204  10.461
13884W        W86210  18.108  23.090  11.540
13885W        W86211   7.258  37.914   3.216
13886W        W86212   3.911  38.556   3.692
13887W        W86213   1.870  23.012  11.000
13888W        W86214  34.081  16.273  14.821
13889W        W86215  34.495  18.065   2.729
13890W        W86216  39.443  29.122   0.882
13891W        W86217  19.696  19.598  11.024
13892W        W86218  41.827  41.900   4.146
13893W        W86219  17.249  19.157   0.857
13894W        W86220  39.444   6.313   2.878
13895W        W86221  30.559  13.731   1.338
13896W        W86222  41.479  27.598   3.274
13897W        W86223  28.495  32.107   3.200
13898W        W86224  37.896   5.236   2.844
13899W        W86225  14.726  41.373   4.115
13900W        W86226  30.511  39.559  12.485
13901W        W86227  25.603  31.599  11.569
13902W        W86228  31.477  13.264  12.005
13903W        W86229  20.589  24.497   1.228
13904W        W86230  32.636  38.954   2.356
13905W        W86231  19.042  30.946   0.416
13906W        W86232  44.940  19.226  12.861
13907W        W86233  18.704   8.845  14.315
13908W        W86234  13.688  36.933  14.760
13909W        W86235  29.609  22.689   3.161
13910W        W86236  13.330  33.549   4.175
13911W        W86237  12.777  10.275   2.690
13912W        W86238  27.602  14.817   3.257
13913W        W86239  19.227  30.561   3.642
13914W        W86240  44.269  16.246  13.433
13915W        W86241  40.529  21.184   4.191
13916W        W86242   3.940  12.118  13.897
13917W        W86243  44.386  33.075  11.007
13918W        W86244  18.647  24.030  12.865
13919W        W86245  42.282  32.420  13.824
13920W        W86246  28.544  19.230  13.478
13921W        W86247  10.212  28.069   2.237
13922W        W86248  32.433  24.979   0.873
13923W        W86249  20.134  22.500  14.882
13924W        W86250  22.540  13.736  10.001
13925W        W86251   2.371  13.613   1.879
13926W        W86252  30.485  17.683  14.928
13927W        W86253  12.212  14.683   0.348
13928W        W86254  14.808  35.564  10.506
13929W        W86255  38.052  37.876  13.960
13930W        W86256  20.110  33.994  14.313
13931W        W86257   4.301  14.315   0.434
13932W        W86258   0.795  36.426   0.401
13933W        W86259  22.242  20.047   0.338
13934W        W86260  43.362  25.081   1.774
13935W        W86261  41.897  44.292   0.434
13936W        W86262  31.454   4.383   3.199
13937W        W86263  32.128   7.326  12.446
13938W        W86264   0.321  21.581  12.454
13939W        W86265   4.224  15.094   4.291
13940W        W86266   2.353  39.993  12.517
13941W        W86267  22.036  42.002  10.941
13942W        W86268   6.339  27.127  11.595
13943W        W86269  42.827  29.955  11.973
13944W        W86270  19.689   8.833  14.924
13945W        W86271  36.050  44.782  14.318
13946W        W86272  35.582  29.541   2.351
13947W        W86273  31.598  32.028  13.056
13948W        W86274   3.717  35.547  14.811
13949W        W86275  22.521  23.148   3.287
13950W        W86276  11.332  20.645  12.014
13951W        W86277  42.891   5.223  12.413
13952W        W86278  37.573   2.955   0.467
13953W        W86279  32.439  39.954   2.367
13954W        W86280   4.716  27.137   3.751
13955W        W86281  31.556  35.977   0.320
13956W        W86282  22.145  10.213  10.953
13957W        W86283  18.547  11.796   4.274
13958W        W86284  27.155   4.304  13.419
13959W        W86285  13.627  32.010   2.382
13960W        W86286   9.784  10.261   3.321
13961W        W86287  25.065  36.366   3.242
13962W        W86288   4.285  44.846  10.487
13963W        W86289  13.154  20.707   4.653
13964W        W86290  17.798  39.551  13.812
13965W        W86291  32.557  15.606   0.836
13966W        W86292  41.440  12.233  11.029
13967W        W86293  11.745  29.652   3.203
13968W        W86294   5.259   5.277   0.905
13969W        W86295   9.644  24.979  12.476
13970W        W86296  34.595  12.184  12.414
13971W        W86297  24.098  22.716  14.411
13972W        W86298  20.603  12.330   2.232
13973W        W86299  13.798  10.175  11.056
13974W        W86300  30.117  10.644   1.718
13975W        W86301  16.130  17.273  12.390
13976W        W86302  15.107  40.007   1.929
13977W        W86303  31.954  36.581   4.242
13978W        W86304   2.899  27.193   2.203
13979W        W86305  33.567   4.381   1.877
13980W        W86306  37.498  34.573   1.928
13981W        W86307   9.801  20.143  11.956
13982W        W86308  23.500  10.153  14.021
13983W        W86309  18.267  44.392   3.225
13984W        W86310  33.111  23.732  12.908
13985W        W86311  43.444   1.241   1.246
13986W        W86312  17.270  29.146  11.984
13987W        W86313  38.018  36.559   3.733
13988W        W86314  34.462   3.796   0.296
13989W        W86315  11.187  25.699   4.623
13990W        W86316  18.256  22.028  10.949
13991W        W86317   3.384  31.960   4.685
13992W        W86318  12.352  14.113   4.174
13993W        W86319  11.158  39.998   4.659
13994W        W86320  19.155  43.894  12.962
13995W        W86321  31.538  11.340  12.401
13996W        W86322  31.041  26.632  14.810
13997W        W86323  41.533  37.859   3.219
13998W        W86324  13.624   9.388  10.543
13999W        W86325  23.735  20.098   2.749
14000W        W86326   0.424  33.615   1.337
14001W        W86327   2.953   0.744  14.489
14002W        W86328   0.318  23.219   0.901
14003W        W86329  20.234  26.081  11.381
14004W        W86330  26.166  17.210  10.535
14005W        W86331  11.144  38.521   4.655
14006W        W86332   8.787  39.056   0.478
14007W        W86333  21.602  25.169   2.282
14008W        W86334  29.512  35.037  13.909
14009W        W86335  29.979   9.315   0.912
14010W        W86336  27.184  13.316   4.249
14011W        W86337  16.776  17.078   0.776
14012W        W86338   1.349  21.138  10.545
14013W        W86339  30.619  11.750  11.532
14014W        W86340  32.123  22.624   4.244
14015W        W86341   3.833   4.267   4.658
14016W        W86342   0.442   7.410   3.721
14017W        W86343  36.425   7.795  11.886
14018W        W86344   1.894  27.963  13.833
14019W        W86345  39.909  40.354  12.045
14020W        W86346  35.994  27.686  14.823
14021W        W86347   3.228  40.040   1.335
14022W        W86348  44.891  15.249   4.312
14023W        W86349  36.846   4.831  13.953
14024W        W86350  25.531   2.389   2.212
14025W        W86351  17.252   6.396   2.399
14026W        W86352  26.569  24.556   1.390
14027W        W86353   3.928  30.910   3.739
14028W        W86354   0.436  15.272  12.841
14029W        W86355  27.064  26.008   4.718
14030W        W86356   7.319   6.922  13.542
14031W        W86357  36.005   3.240  13.897
14032W        W86358   3.420  21.066  14.426
14033W        W86359  35.009  11.320   1.221
14034W        W86360  26.133  14.726  11.574
14035W        W86361  34.020  24.014  13.545
14036W        W86362  31.458  39.843  13.901
14037W        W86363   6.402  25.989   4.611
14038W        W86364  24.102  17.647   3.853
14039W        W86365  30.451  21.118  13.031
14040W        W86366  22.685  35.550   1.232
14041W        W86367  31.151  14.591  11.470
14042W        W86368  43.937  10.230   1.856
14043W        W86369   9.857  25.095  13.809
14044W        W86370  30.018  13.681  10.428
14045W        W86371  20.049  10.728   0.250
14046W        W86372  34.047  16.078   4.814
14047W        W86373  24.510  15.256   4.119
14048W        W86374  34.582  44.853  13.979
14049W        W86375  12.799   4.926  10.931
14050W        W86376  25.616  33.024  14.018
14051W        W86377  12.844  28.620   0.275
14052W        W86378  33.915  15.699   0.891
14053W        W86379  17.633  36.503   0.318
14054W        W86380   0.378  40.051  13.406
14055W        W86381  24.570  41.875  13.431
14056W        W86382  18.768  41.034  12.570
14057W        W86383  41.929   9.334   1.334
14058W        W86384  16.099  14.751  13.455
14059W        W86385   3.894   5.926   0.477
14060W        W86386  27.132   5.317  11.120
14061W        W86387  29.008  18.700   3.718
14062W        W86388   5.876  32.510  12.956
14063W        W86389  26.099  20.759  10.457
14064W        W86390  39.475  27.562  10.996
14065W        W86391  40.353   7.338  10.491
14066W        W86392  43.398  17.286  14.514
14067W        W86393  15.670  21.616   0.898
14068W        W86394   8.383  32.580  14.766
14069W        W86395  42.815  34.093  13.408
14070W        W86396  22.645  37.567   3.312
14071W        W86397  19.653  39.013  13.916
14072W        W86398  43.387  18.233   3.638
14073W        W86399  18.704  20.139  14.926
14074W        W86400  17.665  41.444  14.334
14075W        W86401  31.561  37.533   4.191
14076W        W86402   5.855  14.291  10.463
14077W        W86403  27.499  33.620  13.384
14078W        W86404  28.591  13.258   1.720
14079W        W86405  27.592   1.769  14.969
14080W        W86406  17.706  11.221   2.775
14081W        W86407  20.727  26.011  11.472
14082W        W86408  41.501  40.958   1.220
14083W        W86409  31.073  26.549   5.251
14084W        W86410  24.226  42.424   4.189
14085W        W86411  30.477  40.811  13.852
14086W        W86412  42.404  37.885  14.357
14087W        W86413  28.674   9.381   0.936
14088W        W86414   0.265  37.881  14.434
14089W        W86415  10.299  40.394  13.834
14090W        W86416  29.667   3.312  14.825
14091W        W86417  42.444  35.422  14.926
14092W        W86418  34.545  10.744   3.784
14093W        W86419  13.626   5.225  14.764
14094W        W86420  11.843  16.567   1.922
14095W        W86421  32.079  42.886  10.520
14096W        W86422  31.420  36.033   2.837
14097W        W86423   2.334  40.527  12.846
14098W        W86424   9.877  38.970   4.712
14099W        W86425  42.333  25.075  11.453
14100W        W86426   2.250   1.418   2.830
14101W        W86427  12.298  13.828  14.499
14102W        W86428  21.097  37.492  14.304
14103W        W86429  42.004  43.020  11.471
14104W        W86430  16.083  32.952   0.849
14105W        W86431  15.150   9.677  12.978
14106W        W86432  30.572  11.228   1.750
14107W        W86433  38.544  26.024   4.334
14108W        W86434   9.766  10.273   4.215
14109W        W86435  11.128  35.938  10.589
14110W        W86436  16.747   1.846  14.456
14111W        W86437  32.610  21.055   4.262
14112W        W86438   1.403  27.461   3.158
14113W        W86439  33.879  44.390   4.758
14114W        W86440   8.196  12.725  14.759
14115W        W86441  18.210  27.090  10.567
14116W        W86442  18.696   7.395   0.878
14117W        W86443  24.511   1.301  13.435
14118W        W86444  41.022  43.988   0.960
14119W        W86445  14.229  36.419  11.050
14120W        W86446  12.806  26.630   2.415
14121W        W86447  20.085  11.740  13.885
14122W        W86448  40.487  35.991   9.934
14123W        W86449   5.422   0.447   3.699
14124W        W86450   8.724  10.225   3.845
14125W        W86451  28.119  20.687  14.786
14126W        W86452   3.917  20.171   3.652
14127W        W86453  18.203  28.636  14.803
14128W        W86454  37.519  34.904   4.343
14129W        W86455  25.501  38.014   0.947
14130W        W86456  37.005  17.776   2.750
14131W        W86457   7.803  14.611  13.833
14132W        W86458   6.285  14.169   3.770
14133W        W86459  36.349   8.193   0.471
14134W        W86460  10.645  21.615  11.876
14135W        W86461  32.405  26.130   3.260
14136W        W86462  38.335  15.728   1.782
14137W        W86463  17.169  16.181   1.257
14138W        W86464   5.336  10.305   0.743
14139W        W86465  11.192  21.535   1.246
14140W        W86466  44.471  17.166   5.180
14141W        W86467  23.988  17.115  12.427
14142W        W86468  11.321   2.325  11.988
14143W        W86469  32.394  21.147  10.136
14144W        W86470  36.004  37.985   1.906
14145W        W86471  38.367  10.161   2.768
14146W        W86472  38.941  41.033  13.923
14147W        W86473  42.869  36.870  10.484
14148W        W86474  23.658  23.077  14.850
14149W        W86475   7.763   7.318  13.507
14150W        W86476  28.972  29.093  13.998
14151W        W86477  34.016  35.521  11.967
14152W        W86478  32.123  34.589   2.822
14153W        W86479   5.834  17.604   3.224
14154W        W86480  14.231  10.733   2.854
14155W        W86481  18.637   1.385  11.014
14156W        W86482  17.779  30.089  12.427
14157W        W86483  11.818  37.520   2.717
14158W        W86484  41.926  18.124   3.767
14159W        W86485  23.098   8.783   3.747
14160W        W86486   3.426  44.862   3.266
14161W        W86487  31.573  24.113   4.134
14162W        W86488  41.003   9.293   0.360
14163W        W86489  21.085  43.443   0.817
14164W        W86490  10.247  22.065   4.144
14165W        W86491  41.898  10.819  12.836
14166W        W86492  15.256  21.704  12.034
14167W        W86493  18.664   9.831   2.834
14168W        W86494   1.860  36.420  12.457
14169W        W86495  40.937  35.106   2.219
14170W        W86496  25.599   6.692  11.526
14171W        W86497   4.882  27.467  11.039
14172W        W86498  25.484  25.618   4.326
14173W        W86499  37.832  32.633  14.940
14174W        W86500  29.589  40.493   4.200
14175W        W86501  31.954  17.572  13.892
14176W        W86502  37.543  33.595   2.274
14177W        W86503   2.831  40.358   4.351
14178W        W86504  23.730  12.143  13.916
14179W        W86505  17.140   0.483   4.765
14180W        W86506  17.293  38.848  12.459
14181W        W86507   5.856  15.148  13.843
14182W        W86508  34.557   1.267  12.051
14183W        W86509  19.699  22.098  13.501
14184W        W86510  42.938  30.550  13.463
14185W        W86511  11.276   7.694   2.418
14186W        W86512  31.115   4.409   0.326
14187W        W86513   2.928  29.531  14.485
14188W        W86514  15.745  11.328  10.082
14189W        W86515   7.723  31.079  13.827
14190W        W86516  12.826  19.189  14.936
14191W        W86517   1.881  18.060   3.278
14192W        W86518  40.419   4.303   2.761
14193W        W86519   2.922  36.936  11.024
14194W        W86520  42.887  17.168   3.677
14195W        W86521  35.069  22.220  14.363
14196W        W86522  31.475  22.132   3.737
14197W        W86523  16.260  26.531  11.962
14198W        W86524   5.842   5.201   0.330
14199W        W86525   2.875  10.215   0.408
14200W        W86526   9.261   2.425  14.818
14201W        W86527  39.982  23.521  11.103
14202W        W86528  21.611  43.952   1.701
14203W        W86529  39.996  16.202  12.830
14204W        W86530  23.549  37.013  10.464
14205W        W86531  29.119  30.012   3.147
14206W        W86532   7.859  17.152  13.808
14207W        W86533   2.724  43.010  10.937
14208W        W86534  29.136  18.556  14.914
14209W        W86535   1.308  13.315  14.869
14210W        W86536  17.258  26.098  13.891
14211W        W86537  33.429   5.240  12.523
14212W        W86538  25.502  42.823  10.969
14213W        W86539  38.853   4.851   1.794
14214W        W86540  19.759  41.408  11.003
14215W        W86541   4.699  40.885   3.712
14216W        W86542   1.413  24.635  14.972
14217W        W86543  20.118   1.294   1.345
14218W        W86544   0.256  34.609  14.403
14219W        W86545  27.154   9.227   4.751
14220W        W86546  44.298  42.498  10.485
14221W        W86547  40.419  36.395  13.478
14222W        W86548  13.617  43.013   2.196
14223W        W86549  23.000  12.151   4.747
14224W        W86550  21.517  20.213  13.912
14225W        W86551  27.520  44.917  13.029
14226W        W86552  27.182  17.220   2.743
14227W        W86553  15.246  16.768  12.897
14228W        W86554  10.220   2.423   1.243
14229W        W86555  28.503  14.728  14.887
14230W        W86556  37.915  13.216   4.786
14231W        W86557  37.436  26.956  12.578
14232W        W86558  24.530   3.774  12.003
14233W        W86559   2.849   5.274   2.209
14234W        W86560  10.380   0.784   4.267
14235W        W86561   2.912   6.283   3.160
14236W        W86562  33.444   8.668   0.916
14237W        W86563  35.415  26.071  12.430
14238W        W86564  20.741  36.995   4.798
14239W        W86565   4.861  36.942  11.507
14240W        W86566   6.902   4.775   4.744
14241W        W86567   2.798  41.905  11.373
14242W        W86568   2.747  17.271  13.496
14243W        W86569  20.540   5.300   1.443
14244W        W86570   2.349   1.476  12.577
14245W        W86571   9.745  40.340  14.865
14246W        W86572  24.164  31.913  11.052
14247W        W86573   9.253   5.439   2.205
14248W        W86574  14.764  18.716  11.013
14249W        W86575  36.400  36.976   3.751
14250W        W86576  18.180  21.176  11.489
14251W        W86577  36.380  32.558  13.490
14252W        W86578   7.173  11.635   1.711
14253W        W86579  37.582  29.157   0.399
14254W        W86580  33.480  40.513   4.242
14255W        W86581  31.582  31.409  10.556
14256W        W86582  44.434  29.959  11.883
14257W        W86583  34.001  23.732   2.287
14258W        W86584  15.620  11.806   4.193
14259W        W86585   1.845  20.245   4.751
14260W        W86586   7.307  22.174  13.941
14261W        W86587   9.212  37.034   0.385
14262W        W86588   0.302  26.958  12.351
14263W        W86589  21.053  31.101  10.947
14264W        W86590  41.019  18.652  14.934
14265W        W86591  14.678  34.416  14.887
14266W        W86592  38.955  39.049   0.817
14267W        W86593   6.716  23.670  14.513
14268W        W86594  37.460  36.964   4.809
14269W        W86595  24.534  14.164   2.818
14270W        W86596  16.640  24.680   3.196
14271W        W86597   6.330  10.244  11.464
14272W        W86598  28.610  12.755   2.738
14273W        W86599  16.677  33.004  10.548
14274W        W86600  26.640   4.388   4.120
14275W        W86601   7.849  42.315   2.378
14276W        W86602  32.977  39.973  10.492
14277W        W86603  41.465  38.504  12.538
14278W        W86604  22.225  25.707   3.646
14279W        W86605   0.262  26.630  14.514
14280W        W86606  22.681  36.556  13.791
14281W        W86607  13.844  33.411   1.297
14282W        W86608   0.949   6.230   3.819
14283W        W86609  16.616  32.573  11.482
14284W        W86610  24.061  43.401   2.296
14285W        W86611   6.324  36.978  12.364
14286W        W86612  32.108  33.622   0.920
14287W        W86613  25.692  19.076   4.187
14288W        W86614   1.302   1.327   1.254
14289W        W86615  39.489   3.215  10.592
14290W        W86616   2.318   9.164   4.798
14291W        W86617  26.158  44.807  13.846
14292W        W86618  34.456   5.405   3.798
14293W        W86619   7.765   9.211  11.953
14294W        W86620  35.077  34.506   2.730
14295W        W86621  21.625  22.634   3.637
14296W        W86622  44.869  26.465  13.532
14297W        W86623  33.099  12.332  12.480
14298W        W86624   5.796  10.789  12.556
14299W        W86625  36.909  27.512  13.797
14300W        W86626   7.289   9.799   4.341
14301W        W86627  17.276  37.866   0.251
14302W        W86628  13.281   8.189  14.975
14303W        W86629  43.872  15.272   4.692
14304W        W86630  44.392  42.411   2.678
14305W        W86631  44.496  16.128  12.032
14306W        W86632   2.275  32.554   1.795
14307W        W86633  30.496  28.593  10.964
14308W        W86634  31.118  39.039  11.103
14309W        W86635   7.784  40.430   0.452
14310W        W86636  18.116  28.544   4.284
14311W        W86637  16.103  25.556  12.895
14312W        W86638   5.390   0.778   4.667
14313W        W86639  34.517   6.267  10.453
14314W        W86640  25.571   2.360  10.931
14315W        W86641  15.816  12.193  13.325
14316W        W86642  28.086   9.695  12.997
14317W        W86643   1.763  37.011   2.766
14318W        W86644  40.889  17.785   0.789
14319W        W86645  25.194   0.815  12.419
14320W        W86646  35.510  11.679   5.091
14321W        W86647  17.699  19.169   2.340
14322W        W86648  24.481  38.910  14.025
14323W        W86649  32.529   7.241  13.332
14324W        W86650   6.427   4.402  14.879
14325W        W86651  40.849  25.528  11.422
14326W        W86652  37.860  21.093   3.686
14327W        W86653  16.648  27.550   1.879
14328W        W86654  44.995  40.398   0.471
14329W        W86655  40.905  32.577  13.548
14330W        W86656  35.447   1.851  14.497
14331W        W86657   0.315  16.689  12.969
14332W        W86658  22.661  17.147  12.912
14333W        W86659  12.621   9.341  14.375
14334W        W86660  42.527  33.525   3.838
14335W        W86661  41.934  36.044  14.791
14336W        W86662  41.960  18.122  10.925
14337W        W86663  35.509  13.256   0.390
14338W        W86664  42.503  31.457   4.638
14339W        W86665   8.238  10.276  11.415
14340W        W86666  10.327   0.879  14.441
14341W        W86667  32.001   3.863  13.452
14342W        W86668  28.172  28.451   4.640
14343W        W86669  21.153  36.079   3.741
14344W        W86670  18.173  14.225   3.332
14345W        W86671  20.076  15.737  14.398
14346W        W86672  12.308  19.609  11.077
14347W        W86673   0.837  33.508  14.000
14348W        W86674  10.742  30.962  14.911
14349W        W86675  19.553   6.352   1.720
14350W        W86676   3.881  28.617   1.256
14351W        W86677  14.808  35.970  13.324
14352W        W86678  39.492  44.794  12.864
14353W        W86679  25.620  35.094  12.070
14354W        W86680  38.010  20.214   3.850
14355W        W86681   7.303  11.791   0.761
14356W        W86682  11.758  39.482  13.402
14357W        W86683  34.435  44.441  13.470
14358W        W86684   8.898  23.555   4.762
14359W        W86685   3.750  28.117   0.309
14360W        W86686  11.346  29.524   2.307
14361W        W86687  36.364  29.940   1.925
14362W        W86688  36.076   4.231  13.343
14363W        W86689  21.149  16.202   4.143
14364W        W86690  33.443  21.612  12.964
14365W        W86691   3.891  43.482  11.877
14366W        W86692   9.234  36.066  13.511
14367W        W86693   3.445  26.969   4.134
14368W        W86694  14.689  30.082   3.637
14369W        W86695   0.937  31.506  14.393
14370W        W86696  35.989  28.068  10.986
14371W        W86697   5.912  43.852  14.968
14372W        W86698  13.674   6.681   0.370
14373W        W86699   6.298  18.591  10.978
14374W        W86700  27.043  24.588   2.896
14375W        W86701  25.620   5.754   2.781
14376W        W86702  19.774  17.097  10.405
14377W        W86703  21.033  16.207  12.432
14378W        W86704  42.418  14.623  10.511
14379W        W86705   7.824   8.399  13.866
14380W        W86706  32.957   9.728  11.500
14381W        W86707  30.911  21.611   1.884
14382W        W86708  32.604  17.172   1.846
14383W        W86709  37.899  17.276  13.050
14384W        W86710  43.933  27.143   4.294
14385W        W86711  12.118  31.104  14.462
14386W        W86712  41.349  20.235   0.353
14387W        W86713   7.302  31.619  13.466
14388W        W86714  18.168   0.279  14.402
14389W        W86715   1.890  22.208   1.749
14390W        W86716  12.283  21.139   3.718
14391W        W86717  33.981  40.306   4.712
14392W        W86718  22.177  37.010  13.029
14393W        W86719   0.433  11.210  13.808
14394W        W86720  20.585  40.912  10.480
14395W        W86721  18.605  16.108   4.230
14396W        W86722  26.493  42.436  14.777
14397W        W86723  40.488  28.040  12.455
14398W        W86724  41.913  18.640  10.514
14399W        W86725  23.619  16.769   1.424
14400W        W86726  27.967  32.574  14.439
14401W        W86727  22.728  21.638   3.673
14402W        W86728  36.502  38.894  14.857
14403W        W86729  18.544  29.617  13.518
14404W        W86730   6.223  19.283   0.916
14405W        W86731   2.385  36.355  14.789
14406W        W86732  26.997  20.591  14.816
14407W        W86733  32.499  18.079   2.220
14408W        W86734   4.702   8.687   0.795
14409W        W86735  36.917  38.908   1.288
14410W        W86736   3.331  41.867  12.038
14411W        W86737  17.631  13.284   0.450
14412W        W86738  17.130  24.094   3.726
14413W        W86739   4.445  15.267   4.749
14414W        W86740  37.914  18.702   3.384
14415W        W86741   4.732  32.031   3.800
14416W        W86742  40.402  31.573   3.340
14417W        W86743  42.910  22.520  14.012
14418W        W86744  39.514  13.785   3.638
14419W        W86745  20.594  17.708   3.266
14420W        W86746   7.772  37.895   0.429
14421W        W86747  13.162  22.594   1.430
14422W        W86748  24.113  17.133   5.684
14423W        W86749  30.618  35.949  10.610
14424W        W86750  15.767  23.182  11.487
14425W        W86751   5.359   0.849   4.229
14426W        W86752  15.309  40.353   3.203
14427W        W86753  25.476  16.626  12.897
14428W        W86754  29.440   2.919   0.253
14429W        W86755   2.372  15.089  14.826
14430W        W86756   4.785  18.611  14.807
14431W        W86757  19.659  31.925   2.395
14432W        W86758  15.266  43.276   4.173
14433W        W86759  42.520  21.099   2.706
14434W        W86760  44.968   4.315  11.995
14435W        W86761   5.255   5.384  11.930
14436W        W86762  19.272  12.246   2.879
14437W        W86763  42.895  12.727  11.944
14438W        W86764  12.716  17.204  11.607
14439W        W86765  12.241  22.639   1.701
14440W        W86766  15.177  18.578   1.396
14441W        W86767  16.103  28.957   4.692
14442W        W86768  10.698  10.270  11.459
14443W        W86769  15.189  40.472  11.393
14444W        W86770  36.017  33.550   5.106
14445W        W86771  26.190   0.482   1.874
14446W        W86772  22.680  11.179   3.858
14447W        W86773  31.093  24.598   2.309
14448W        W86774  43.949  31.999   0.471
14449W        W86775  43.000  16.258   4.127
14450W        W86776   6.805  34.948  14.494
14451W        W86777  32.412  39.356  14.366
14452W        W86778  18.190  44.832   2.780
14453W        W86779  41.480   9.741  10.993
14454W        W86780  35.457  11.279   4.328
14455W        W86781  42.014  16.643  14.802
14456W        W86782  24.159  36.367  14.877
14457W        W86783   4.720  24.572   2.376
14458W        W86784   6.418  42.438  14.291
14459W        W86785  33.614  17.264  11.079
14460W        W86786   5.401  35.537   3.242
14461W        W86787  40.963  33.111   1.396
14462W        W86788  31.430  27.173  11.894
14463W        W86789  21.153  34.501   2.698
14464W        W86790  10.342  25.555  14.432
14465W        W86791  24.226  39.844   5.612
14466W        W86792  30.466  22.520  14.318
14467W        W86793  44.814  34.073  14.977
14468W        W86794  18.162   3.238   2.898
14469W        W86795  43.865  13.318   0.773
14470W        W86796  32.549  12.698   5.105
14471W        W86797  12.334   5.904  11.547
14472W        W86798  38.549  29.584   2.192
14473W        W86799  19.758   4.938   4.355
14474W        W86800  37.357  12.226   4.195
14475W        W86801  15.707  30.989  12.962
14476W        W86802  25.106  40.036   0.280
14477W        W86803  17.143  43.427   2.722
14478W        W86804  15.258  35.912   9.503
14479W        W86805  42.957  42.525  11.094
14480W        W86806  23.157   0.865   0.777
14481W        W86807  10.736  41.341   1.246
14482W        W86808  43.790  35.081   0.922
14483W        W86809   2.745  37.552   2.414
14484W        W86810  20.266  22.550   2.191
14485W        W86811  33.891   4.371  12.049
14486W        W86812  15.674  24.194  14.956
14487W        W86813  38.509   1.344  14.299
14488W        W86814  10.672  42.427  12.885
14489W        W86815  27.628  17.614   3.666
14490W        W86816   9.375  16.096  11.952
14491W        W86817   9.161   8.675  13.977
14492W        W86818   9.815  23.492  13.968
14493W        W86819  20.031  32.886   1.245
14494W        W86820  14.683   6.268   1.699
14495W        W86821  41.035  11.688  13.310
14496W        W86822  41.292  35.404   0.255
14497W        W86823   9.754  16.314   4.350
14498W        W86824  36.451  37.342   4.779
14499W        W86825  32.972  28.128   4.624
14500W        W86826  14.289  18.650   1.743
14501W        W86827  26.994  20.543   1.766
14502W        W86828  19.095   6.349   4.206
14503W        W86829  19.224  31.152   3.714
14504W        W86830  22.686   6.781  14.896
14505W        W86831  43.356  19.646  13.315
14506W        W86832  18.200  37.566   4.661
14507W        W86833  31.092   4.784  10.612
14508W        W86834   1.475   3.341   1.784
14509W        W86835  44.369  15.086   5.189
14510W        W86836  32.105   6.350   4.688
14511W        W86837  40.002  31.642   3.193
14512W        W86838   5.898   4.276  12.880
14513W        W86839  35.953  15.205  13.049
14514W        W86840  34.573  13.221   2.332
14515W        W86841  13.741  23.218  13.807
14516W        W86842  26.093  28.534  10.958
14517W        W86843  26.702  32.433   3.848
14518W        W86844  31.132  31.443   1.232
14519W        W86845  26.133   0.355   2.761
14520W        W86846  42.516  31.483  11.012
14521W        W86847   6.387  31.477   0.319
14522W        W86848   4.375  17.195  12.984
14523W        W86849   7.883  18.602  10.929
14524W        W86850  16.293   2.339  11.901
14525W        W86851  36.960  21.256  13.547
14526W        W86852  43.430   4.428  11.867
14527W        W86853  23.006   6.922   4.697
14528W        W86854  14.602  42.435   0.758
14529W        W86855  23.520   8.837  12.990
14530W        W86856  11.738  11.179   1.738
14531W        W86857  36.866  26.462  13.433
14532W        W86858  26.692  32.527   1.866
14533W        W86859   5.795  40.945   4.190
14534W        W86860   5.277  26.459   2.855
14535W        W86861  39.383  11.268  13.455
14536W        W86862   3.299   5.697  11.388
14537W        W86863  43.805  27.453   0.474
14538W        W86864  35.984  19.116  14.890
14539W        W86865  13.783   8.310  11.112
14540W        W86866   6.238   0.819   0.258
14541W        W86867  39.468  43.931  10.580
14542W        W86868  31.102  40.903  10.576
14543W        W86869  16.239   4.917   3.860
14544W        W86870  39.909  28.459  14.886
14545W        W86871   5.316  22.999  11.964
14546W        W86872  30.914   1.335   2.182
14547W        W86873  18.257   6.400   2.800
14548W        W86874  14.268  24.623   1.867
14549W        W86875   8.268   4.863  10.481
14550W        W86876  11.280   7.898  14.338
14551W        W86877   9.736   7.872   0.780
14552W        W86878   0.426  30.001  14.468
14553W        W86879  26.615   3.721   3.355
14554W        W86880  11.688  27.023   9.664
14555W        W86881  23.044  14.632  11.419
14556W        W86882   3.414  35.902   4.129
14557W        W86883  14.271   4.740   2.417
14558W        W86884  23.073   1.825   0.419
14559W        W86885  43.840  23.135   0.798
14560W        W86886   1.807  39.871  13.795
14561W        W86887   3.792  31.486  10.411
14562W        W86888   3.356  33.052  10.492
14563W        W86889  12.182   8.327   1.714
14564W        W86890  10.267  40.473   5.245
14565W        W86891   4.384  38.524   4.780
14566W        W86892  36.965  13.841   0.273
14567W        W86893  43.318  28.969   3.780
14568W        W86894  30.518  31.975  13.985
14569W        W86895  13.181  34.593   9.939
14570W        W86896  11.663  17.076  11.861
14571W        W86897  32.916   0.793   2.791
14572W        W86898  11.364   0.842  12.497
14573W        W86899  28.934  11.228  14.459
14574W        W86900  18.666   0.846   1.331
14575W        W86901  16.709   7.209   3.711
14576W        W86902  20.556   1.818  12.342
14577W        W86903  23.986  27.139   3.367
14578W        W86904  26.679  24.512   0.369
14579W        W86905  36.846  40.862  11.556
14580W        W86906  23.696  11.229  13.025
14581W        W86907  30.010  19.151  11.549
14582W        W86908   3.790   8.710   5.128
14583W        W86909  26.131  44.333   1.742
14584W        W86910  34.013  15.309   4.805
14585W        W86911  41.850  42.311   2.732
14586W        W86912   1.399  26.990   0.755
14587W        W86913  37.562  27.162  13.436
14588W        W86914  10.335  35.603  10.513
14589W        W86915  13.164  40.537  11.502
14590W        W86916  38.398  42.412  12.341
14591W        W86917  42.780  18.650   3.810
14592W        W86918  44.488  38.404   2.214
14593W        W86919  42.876  29.520  11.992
14594W        W86920  25.642  41.389  13.941
14595W        W86921  43.271  14.253  11.488
14596W        W86922  27.680  26.461  12.437
14597W        W86923  16.111   4.278   1.404
14598W        W86924  26.590  38.996   0.937
14599W        W86925  28.116  25.568  14.023
14600W        W86926  29.120  21.660  11.447
14601W        W86927  29.540  38.904   3.788
14602W        W86928  44.935  40.463  11.910
14603W        W86929   9.380  23.719  14.502
14604W        W86930   3.454  38.035  13.511
14605W        W86931  31.498  20.228  11.048
14606W        W86932  16.694  38.398  13.954
14607W        W86933  40.951  20.228   0.454
14608W        W86934  29.446  15.260  11.508
14609W        W86935  38.872  43.363  14.424
14610W        W86936  18.104  38.420  10.508
14611W        W86937  40.844  12.159  14.405
14612W        W86938  40.992   6.825  14.848
14613W        W86939  30.095  34.086  11.054
14614W        W86940  39.539  12.287   4.200
14615W        W86941  12.353  39.328   0.922
14616W        W86942   4.256   3.261  14.415
14617W        W86943  39.401  40.921  10.615
14618W        W86944  20.174  12.726  10.638
14619W        W86945   5.395  17.115  10.966
14620W        W86946   3.418  33.512  12.379
14621W        W86947  16.652  25.686  14.330
14622W        W86948  28.169  31.905  11.437
14623W        W86949  40.055  29.482  14.000
14624W        W86950  41.881   1.810  14.465
14625W        W86951  19.101  15.806   1.449
14626W        W86952  13.707  27.172   1.317
14627W        W86953   7.894  25.100   3.782
14628W        W86954   4.800   3.910   3.154
14629W        W86955   2.913  25.560   2.419
14630W        W86956  24.597  14.303  13.501
14631W        W86957  37.895   6.862   3.348
14632W        W86958  32.141  29.648  14.941
14633W        W86959  30.048  25.058  14.925
14634W        W86960  29.612  27.660   5.631
14635W        W86961   2.877  25.034  13.890
14636W        W86962  12.653   3.759   1.365
14637W        W86963   8.858  11.209  10.034
14638W        W86964   2.227   1.737   2.221
14639W        W86965  30.935  20.525   1.793
14640W        W86966   4.372  19.270   1.226
14641W        W86967  22.132  35.089   0.954
14642W        W86968   2.337  17.250  11.090
14643W        W86969  40.939  29.969  12.826
14644W        W86970  31.041   6.918  14.415
14645W        W86971   0.902   3.873  13.863
14646W        W86972   2.445   4.834   4.832
14647W        W86973   8.869  14.336  11.881
14648W        W86974  28.509  28.679   1.908
14649W        W86975  23.067  35.535  11.433
14650W        W86976  12.139  37.553   0.760
14651W        W86977  36.851  43.841  14.403
14652W        W86978   3.459  23.989   4.655
14653W        W86979  36.451  42.870  10.918
14654W        W86980  15.724  26.957   0.244
14655W        W86981  34.094  12.843  12.963
14656W        W86982   4.342   7.330  13.320
14657W        W86983  36.538  14.658   2.254
14658W        W86984  28.482  17.242  14.368
14659W        W86985  43.387  35.517  14.406
14660W        W86986  21.175   7.390   2.762
14661W        W86987   6.847  44.283  12.855
14662W        W86988  24.167  26.461  11.417
14663W        W86989  34.980  34.069  11.076
14664W        W86990   7.173  41.818   2.891
14665W        W86991  25.542  39.391   2.819
14666W        W86992  20.155  35.587   2.824
14667W        W86993  26.197  33.001  12.990
14668W        W86994   0.319  20.237  14.899
14669W        W86995   3.238  18.061   0.431
14670W        W86996  40.864   0.872  13.879
14671W        W86997  36.385  15.319  12.911
14672W        W86998  40.019  25.122  14.006
14673W        W86999   1.406  18.161  11.081
14674W        W87000  38.474  15.714  12.489
14675W        W87001  18.671  25.512  12.937
14676W        W87002  20.111  17.278  12.021
14677W        W87003  17.693  35.530   1.373
14678W        W87004  10.338  30.553   4.220
14679W        W87005   6.284  31.993  14.440
14680W        W87006  37.366  44.471   5.316
14681W        W87007   0.319  33.081  14.497
14682W        W87008   3.379   7.713  11.069
14683W        W87009   8.258  37.852   1.253
14684W        W87010  40.362  32.120  10.126
14685W        W87011   9.853  17.195  11.087
14686W        W87012  36.879  35.520   5.162
14687W        W87013  39.342  17.750  11.449
14688W        W87014  33.561  18.205  10.568
14689W        W87015  19.688   6.425  10.475
14690W        W87016  12.177  17.186  11.434
14691W        W87017  41.490  29.952  11.565
14692W        W87018  33.112  35.876  12.862
14693W        W87019  43.344  18.236  13.475
14694W        W87020   2.278   1.900   3.674
14695W        W87021  25.683  13.760   0.318
14696W        W87022  30.512  35.001   4.800
14697W        W87023  30.084  44.829  10.514
14698W        W87024  17.152  43.278  14.763
14699W        W87025  29.004   3.714   2.799
14700W        W87026  18.262  15.289  14.773
14701W        W87027  38.005  33.110   0.868
14702W        W87028  39.336  22.128   3.194
14703W        W87029  19.245  43.009   1.307
14704W        W87030  22.595  23.093  11.449
14705W        W87031   8.326  25.995   1.748
14706W        W87032  36.440   7.235   1.258
14707W        W87033  15.263  34.588  11.003
14708W        W87034  36.570  14.133  14.931
14709W        W87035  18.651  14.236   4.739
14710W        W87036  33.535   6.333  12.546
14711W        W87037   7.253  27.963  12.421
14712W        W87038  22.235  40.970  10.472
14713W        W87039  20.166  25.561  12.496
14714W        W87040  33.446  13.702   0.413
14715W        W87041  43.363  14.651   2.670
14716W        W87042  39.882  25.707   2.231
14717W        W87043  36.892  37.857  13.887
14718W        W87044  35.902  27.004  14.463
14719W        W87045   6.332   7.755   4.148
14720W        W87046  34.009  43.374  11.557
14721W        W87047  21.524  32.134   0.383
14722W        W87048   8.835  25.130   0.459
14723W        W87049  37.915  33.885  12.894
14724W        W87050  14.103  38.424  13.537
14725W        W87051   4.426  42.001   4.763
14726W        W87052  43.967  24.143  10.488
14727W        W87053  15.158  43.972   0.377
14728W        W87054   3.243  33.944  11.526
14729W        W87055  22.212  43.382   2.340
14730W        W87056  34.059  20.610   1.839
14731W        W87057  39.330   3.935  10.474
14732W        W87058   7.207  19.046  13.332
14733W        W87059   8.846  20.180  14.285
14734W        W87060  15.250  36.550   2.873
14735W        W87061   9.184  28.576   3.300
14736W        W87062  39.445  32.890  11.028
14737W        W87063  23.496  28.563  11.966
14738W        W87064  10.227  12.767   3.342
14739W        W87065  26.459  24.724  11.418
14740W        W87066  13.833  18.137  13.878
14741W        W87067  44.326  13.197  11.013
14742W        W87068  42.321   4.273  11.502
14743W        W87069  34.915  43.991  11.989
14744W        W87070  18.703  11.699  10.987
14745W        W87071  13.173   4.708   2.887
14746W        W87072  27.548   4.792  14.814
14747W        W87073   7.253   7.351   4.665
14748W        W87074  39.886  36.518  14.510
14749W        W87075  44.415  24.080   2.880
14750W        W87076  25.633  29.590  12.075
14751W        W87077  44.461  23.696   1.363
14752W        W87078  35.480  27.612   3.733
14753W        W87079  24.600  20.161  12.567
14754W        W87080  22.135  28.478  10.558
14755W        W87081  11.848   0.857   4.640
14756W        W87082   9.277  44.828   1.795
14757W        W87083  40.547  38.445   1.913
14758W        W87084   9.781  28.626   4.678
14759W        W87085   7.760   5.777   0.343
14760W        W87086  22.132  39.416   0.775
14761W        W87087  34.082  17.747  12.074
14762W        W87088  28.621  12.297  10.590
14763W        W87089   7.687  33.880  13.797
14764W        W87090  15.807  24.540   3.273
14765W        W87091  17.232  20.260  11.524
14766W        W87092   4.797  33.073   3.296
14767W        W87093  32.416  41.505   0.433
14768W        W87094   9.785  42.964  10.640
14769W        W87095   4.227   5.429   3.746
14770W        W87096  29.584   8.204  11.435
14771W        W87097  20.118  42.858  11.893
14772W        W87098  24.650  17.568   0.455
14773W        W87099   5.348  13.165   3.803
14774W        W87100  41.326  44.337   0.302
14775W        W87101  36.933  22.608  12.051
14776W        W87102  10.143   8.776   4.300
14777W        W87103  16.228  36.059   3.849
14778W        W87104   1.449  35.989   4.805
14779W        W87105  32.089  18.716   4.686
14780W        W87106   2.841   1.457   0.933
14781W        W87107  39.953  27.980   1.817
14782W        W87108  26.043  35.971  14.427
14783W        W87109  41.482  14.329   1.316
14784W        W87110  43.382  40.464   2.683
14785W        W87111  44.337   3.309   0.786
14786W        W87112  43.340  22.514  10.932
14787W        W87113  27.497  10.672   3.751
14788W        W87114  27.087  14.304   3.202
14789W        W87115  20.179  32.082   0.447
14790W        W87116  38.432  39.029   4.153
14791W        W87117   1.924  15.780   2.340
14792W        W87118   0.877   6.253  11.489
14793W        W87119   3.266  12.152   5.611
14794W        W87120   6.704  37.555  14.902
14795W        W87121  41.383   7.254  11.118
14796W        W87122  43.452  40.549   2.268
14797W        W87123  38.970  18.668  14.322
14798W        W87124  22.633  37.437   2.267
14799W        W87125   5.237   2.941   1.400
14800W        W87126  24.195  24.102  13.374
14801W        W87127   2.747  21.674   1.406
14802W        W87128  28.615   7.202   2.773
14803W        W87129  33.456   1.287   2.785
14804W        W87130  36.415  21.731   3.727
14805W        W87131  43.289  40.310  11.496
14806W        W87132  31.530  44.843  12.042
14807W        W87133  31.611  39.525  13.016
14808W        W87134  35.995   7.853   3.278
14809W        W87135  11.623  29.139   0.767
14810W        W87136   9.181  43.006   3.367
14811W        W87137  18.212  24.583   2.361
14812W        W87138  23.056  33.889  11.055
14813W        W87139   2.424   2.352  10.568
14814W        W87140  10.636   4.806  12.048
14815W        W87141  22.623   7.851   3.634
14816W        W87142  15.317  29.108  11.378
14817W        W87143  42.927  30.991  14.332
14818W        W87144  22.632  30.545   5.261
14819W        W87145  20.578  28.077   3.868
14820W        W87146  13.156  36.016  12.398
14821W        W87147  24.628  26.546  14.917
14822W        W87148  33.539  15.580  11.873
14823W        W87149  33.510  43.455  11.090
14824W        W87150   0.768   5.786  14.501
14825W        W87151  13.319  17.181  11.900
14826W        W87152  11.681  32.449  11.895
14827W        W87153  40.911  28.079  13.342
14828W        W87154  11.713  25.219  13.430
14829W        W87155  13.164   6.342   1.903
14830W        W87156   0.416  17.095  14.912
14831W        W87157  23.667   2.237   1.283
14832W        W87158  26.960  43.021   0.432
14833W        W87159  44.935  38.392   2.385
14834W        W87160  20.539  18.276   4.280
14835W        W87161  31.543  34.428  12.980
14836W        W87162  30.026  19.539   0.285
14837W        W87163  11.195  20.174   3.679
14838W        W87164  34.410  13.157  13.318
14839W        W87165  13.828  39.522  14.986
14840W        W87166  22.101  15.702   5.178
14841W        W87167  27.670  31.906   4.253
14842W        W87168   9.263  41.493   3.347
14843W        W87169  42.459  39.023   0.419
14844W        W87170   4.369  32.891  12.469
14845W        W87171  16.766   1.306   0.459
14846W        W87172  43.445  16.222  13.002
14847W        W87173  20.177  33.440  10.063
14848W        W87174  10.253  34.982   3.226
14849W        W87175   4.318  36.409  12.028
14850W        W87176  38.984  33.581   0.418
14851W        W87177   1.450  31.139   1.261
14852W        W87178   6.192   4.238  14.316
14853W        W87179  35.855  31.515   1.364
14854W        W87180   9.785  32.566  13.984
14855W        W87181  27.179  38.361  11.997
14856W        W87182  22.684   1.294   4.255
14857W        W87183  25.697   2.851   0.287
14858W        W87184  35.993  38.055  11.559
14859W        W87185  33.128  28.943   4.728
14860W        W87186  34.042  19.194   1.439
14861W        W87187  27.063  15.099   1.446
14862W        W87188   4.348   3.739  11.442
14863W        W87189  17.669  28.179   3.215
14864W        W87190  25.597  41.431   2.343
14865W        W87191  31.004   8.244   0.376
14866W        W87192   5.877  18.120   0.414
14867W        W87193  42.794   5.355   1.856
14868W        W87194   8.688  35.870  11.920
14869W        W87195  33.512  25.536  14.905
14870W        W87196  30.638  30.650  14.397
14871W        W87197   2.948   8.796  13.325
14872W        W87198  44.808  33.995  13.415
14873W        W87199  34.046   0.472  11.888
14874W        W87200  42.831  20.144  14.395
14875W        W87201  25.640  13.343   0.742
14876W        W87202   2.457  26.498  14.996
14877W        W87203  35.554  20.645  13.414
14878W        W87204  20.597  23.539  12.895
14879W        W87205  22.685  37.878  11.059
14880W        W87206  44.844  26.987   0.307
14881W        W87207   0.289  34.105   2.324
14882W        W87208  13.825   6.752  14.944
14883W        W87209  28.442   4.871  13.919
14884W        W87210  40.940  12.759   1.345
14885W        W87211  42.429  20.527  14.337
14886W        W87212   0.350  43.439  11.106
14887W        W87213  40.517  38.988  10.099
14888W        W87214  28.580  44.473   0.434
14889W        W87215  30.508   3.387  11.857
14890W        W87216  29.049  13.339   3.707
14891W        W87217  15.678  37.853   1.928
14892W        W87218  37.378   6.732  10.597
14893W        W87219  25.544  33.518   3.698
14894W        W87220   4.926   0.368   1.387
14895W        W87221  43.805   6.357   2.772
14896W        W87222  24.052  22.025  14.858
14897W        W87223  12.713  32.534   2.259
14898W        W87224   5.748  24.169  11.536
14899W        W87225  21.049  13.221  14.793
14900W        W87226  38.382   1.410   1.920
14901W        W87227  20.051  30.017   1.854
14902W        W87228  22.226   7.904  14.428
14903W        W87229  31.452  40.449  13.472
14904W        W87230  44.881  32.038  13.011
14905W        W87231  43.353  43.325   4.737
14906W        W87232   1.831  29.119  13.382
14907W        W87233   8.893  25.714  11.565
14908W        W87234  43.941   3.404  14.774
14909W        W87235   4.721  10.816  10.531
14910W        W87236  23.984  28.015  10.957
14911W        W87237   1.777   8.385   4.249
14912W        W87238   0.371  10.381  11.971
14913W        W87239  40.368   8.296  10.910
14914W        W87240   6.199   5.304  14.881
14915W        W87241  32.410  13.223   2.192
14916W        W87242  33.524   4.334   1.275
14917W        W87243   0.867  30.144  12.350
14918W        W87244  39.046  10.715   4.150
14919W        W87245  29.022   7.387   3.811
14920W        W87246  17.141  19.545  13.855
14921W        W87247  17.135  10.367   1.351
14922W        W87248  34.001  22.157  14.939
14923W        W87249  12.314  37.418   4.192
14924W        W87250  43.911  37.578   0.421
14925W        W87251  12.244  17.073  10.943
14926W        W87252  30.988  35.546   2.860
14927W        W87253   0.313  42.820   3.337
14928W        W87254  29.144  28.440   5.644
14929W        W87255  24.057  27.040  10.894
14930W        W87256   7.880  39.497  11.482
14931W        W87257  36.863  20.139  12.557
14932W        W87258  20.235  39.359  11.607
14933W        W87259  17.149  19.743   3.668
14934W        W87260  36.994  23.102   1.884
14935W        W87261  44.441  31.025  12.900
14936W        W87262   6.389  15.198   4.695
14937W        W87263  24.151  18.248  14.857
14938W        W87264  25.621  42.995  13.539
14939W        W87265  43.408  29.050  10.891
14940W        W87266  39.343  12.245  14.871
14941W        W87267  42.493  41.040  14.362
14942W        W87268  37.423  24.568  10.620
14943W        W87269  32.593   0.757  12.982
14944W        W87270   2.463  21.626   5.655
14945W        W87271  30.481  31.005  13.391
14946W        W87272  39.999   5.883  13.838
14947W        W87273  37.017  10.140   5.778
14948W        W87274  10.825  20.126   0.808
14949W        W87275  34.471   0.383   4.719
14950W        W87276  36.462  23.679   0.806
14951W        W87277   0.444   4.290   1.262
14952W        W87278  24.037  20.596   2.231
14953W        W87279   3.814  43.844   2.734
14954W        W87280  44.377  42.997   2.313
14955W        W87281   6.402  39.466   1.335
14956W        W87282  17.195   7.755   0.853
14957W        W87283   6.779  43.857   0.923
14958W        W87284  10.638  19.196  13.494
14959W        W87285  17.743  24.495  14.945
14960W        W87286  34.613   2.234  14.508
14961W        W87287  32.043  40.840  13.791
14962W        W87288  12.625  33.875  13.009
14963W        W87289   5.843  34.046   0.326
14964W        W87290   0.787   3.393   4.808
14965W        W87291  10.869  41.037   1.278
14966W        W87292  17.270  22.653  10.579
14967W        W87293  29.962   4.413   3.856
14968W        W87294  44.312  11.635  13.804
14969W        W87295  38.880   0.901   1.695
14970W        W87296  11.847  14.243  11.416
14971W        W87297   1.766  24.558   1.725
14972W        W87298  20.712   0.262   2.298
14973W        W87299   2.910   7.884  12.923
14974W        W87300   1.456  31.947   3.644
14975W        W87301   3.899  14.744  13.442
14976W        W87302  35.906  39.026   3.690
14977W        W87303   6.259   5.854   1.210
14978W        W87304  19.733  38.383   3.317
14979W        W87305  21.731  15.703  14.455
14980W        W87306   7.875  32.073  14.857
14981W        W87307  31.516  24.093  14.787
14982W        W87308  27.083   8.779   2.360
14983W        W87309  36.849  11.281  12.925
14984W        W87310  21.154  31.502   2.340
14985W        W87311   7.191  31.583   2.795
14986W        W87312  18.734  37.075  12.997
14987W        W87313  43.467  36.399   1.884
14988W        W87314  17.076  32.116   2.707
14989W        W87315  30.135   7.417   0.424
14990W        W87316  22.100  10.674   0.303
14991W        W87317   3.301  21.199  10.622
14992W        W87318  16.628  11.274  14.977
14993W        W87319   7.256  12.654   1.326
14994W        W87320  11.831  44.481   1.254
14995W        W87321  13.631  33.385  13.521
14996W        W87322  39.384   3.929  12.070
14997W        W87323  16.136  34.472   2.770
14998W        W87324  24.990  24.527  12.888
14999W        W87325  17.596  21.056  11.594
15000W        W87326  32.908  11.169   3.805
15001W        W87327  13.777  33.878  13.866
15002W        W87328  33.444  12.666   3.830
15003W        W87329  33.958  12.660  10.458
15004W        W87330  33.067  21.229  11.941
15005W        W87331  32.049  14.129  11.417
15006W        W87332  41.794   5.405   4.666
15007W        W87333   9.358  12.125   3.691
15008W        W87334  39.870   4.809  11.540
15009W        W87335  27.136  18.709   0.744
15010W        W87336  36.377  19.573   4.214
15011W        W87337  36.032   8.246   3.218
15012W        W87338  12.733  10.700   1.721
15013W        W87339  15.151  15.785  10.904
15014W        W87340  20.258  17.562   2.214
15015W        W87341  19.101  29.621  13.812
15016W        W87342  33.549  26.013  10.578
15017W        W87343  35.447  38.928  10.995
15018W        W87344  26.064  32.451  13.826
15019W        W87345  26.120  25.622  14.427
15020W        W87346   8.357  22.048  11.386
15021W        W87347   4.802  13.236   0.870
15022W        W87348  22.736  26.643   5.093
15023W        W87349  41.352  30.446  11.452
15024W        W87350  26.195   8.300   0.730
15025W        W87351  17.708   0.815  13.378
15026W        W87352  20.551  42.888  12.346
15027W        W87353  11.676  38.941  11.037
15028W        W87354  36.062  32.053   1.700
15029W        W87355   6.407   7.312  13.524
15030W        W87356  30.951  25.004   1.698
15031W        W87357   6.720  18.774   0.424
15032W        W87358  28.675  10.352   0.340
15033W        W87359  36.478  11.778  11.019
15034W        W87360  30.007   2.361   2.359
15035W        W87361  38.364   2.898  10.898
15036W        W87362  43.987   8.394   0.318
15037W        W87363  24.121  17.096   9.920
15038W        W87364   1.293  35.069  13.517
15039W        W87365  32.995  19.607  14.367
15040W        W87366  39.432  38.995  12.094
15041W        W87367   5.806  41.363   1.778
15042W        W87368  33.099  34.047   3.326
15043W        W87369   0.266   4.883  13.369
15044W        W87370  24.567  21.229   0.900
15045W        W87371  22.060   7.373  11.584
15046W        W87372  34.494  10.157   1.768
15047W        W87373  35.596  31.148  10.953
15048W        W87374  31.612  42.326  14.471
15049W        W87375  15.646  15.725  14.855
15050W        W87376  15.158   1.761   0.261
15051W        W87377   7.843  44.416   4.663
15052W        W87378   2.749  43.443  10.981
15053W        W87379  39.044  13.327   1.757
15054W        W87380  13.282   0.879  12.068
15055W        W87381   5.428  18.257  12.047
15056W        W87382   1.851  28.576  10.628
15057W        W87383   9.714  28.567  13.033
15058W        W87384  38.546  29.919   4.303
15059W        W87385  41.023  21.542   2.666
15060W        W87386  42.935  44.491   4.599
15061W        W87387  27.655  19.703  10.960
15062W        W87388   2.858  29.999   2.797
15063W        W87389  26.197   4.414  10.936
15064W        W87390  27.455  31.078   1.389
15065W        W87391  14.608  34.435   3.831
15066W        W87392   3.753   4.340  10.583
15067W        W87393  25.105  17.226   0.301
15068W        W87394  18.653  10.810  12.490
15069W        W87395  25.105  27.445  10.610
15070W        W87396  12.849  26.103  11.027
15071W        W87397  24.009  16.750   3.662
15072W        W87398  39.436   6.716   3.327
15073W        W87399  32.088  26.136   4.777
15074W        W87400  42.944   7.416   0.849
15075W        W87401  44.335  43.984   4.333
15076W        W87402  33.892  31.480  14.989
15077W        W87403  41.038  22.228  12.910
15078W        W87404   6.763  23.084   2.334
15079W        W87405  27.586  14.309   4.314
15080W        W87406  33.614  17.682  14.816
15081W        W87407  30.546  32.460  11.940
15082W        W87408  39.462  38.332   3.233
15083W        W87409  13.760   4.775   5.254
15084W        W87410  11.224  39.433   0.876
15085W        W87411  32.049   8.252  12.357
15086W        W87412  35.445  21.028   2.708
15087W        W87413  28.629  44.934   1.235
15088W        W87414  19.772  11.691  13.454
15089W        W87415  40.342  27.487  13.815
15090W        W87416  19.239  17.216  12.890
15091W        W87417   9.708  22.718   3.303
15092W        W87418  25.649  33.586  11.901
15093W        W87419  42.785  29.431  12.473
15094W        W87420  30.093  30.039   1.332
15095W        W87421  35.383   0.280  14.392
15096W        W87422  29.990  28.584  10.444
15097W        W87423  39.830  35.086   4.693
15098W        W87424  20.745  25.142  14.366
15099W        W87425  26.550  40.822   3.681
15100W        W87426   3.888   7.756   4.267
15101W        W87427  16.703   4.822   2.767
15102W        W87428  13.787   4.826  10.449
15103W        W87429  22.619  32.098   2.783
15104W        W87430  33.388  34.120   2.792
15105W        W87431  38.566  33.977  11.076
15106W        W87432  42.286  35.949  10.962
15107W        W87433  34.412  34.894  13.452
15108W        W87434   2.868  20.172  13.417
15109W        W87435  37.863  29.476  10.531
15110W        W87436   3.446  15.578   2.858
15111W        W87437  35.470  32.958  12.907
15112W        W87438  31.485  25.128  10.932
15113W        W87439  41.330  26.071   4.233
15114W        W87440   2.875  25.622   1.774
15115W        W87441   0.797  32.115  12.974
15116W        W87442  40.489  28.623   3.870
15117W        W87443  31.021  24.617  10.914
15118W        W87444  37.500   3.314  13.829
15119W        W87445  29.979  13.686  11.460
15120W        W87446  26.622  13.334  13.489
15121W        W87447  39.554  19.075   0.916
15122W        W87448   1.288  25.070   4.130
15123W        W87449  14.109  44.441  10.934
15124W        W87450  38.914  20.589   2.354
15125W        W87451  34.047  23.572  11.428
15126W        W87452  41.836  30.070  14.408
15127W        W87453  25.663  13.792   1.798
15128W        W87454  18.294   0.485  11.442
15129W        W87455   3.342   4.296   3.734
15130W        W87456   5.195  39.528  13.022
15131W        W87457   4.338  29.115   4.308
15132W        W87458  14.250  21.540  11.528
15133W        W87459  38.892  15.326   3.384
15134W        W87460   4.789  17.266   1.413
15135W        W87461  40.414  25.707  12.518
15136W        W87462   0.287  36.378   2.701
15137W        W87463   4.712   9.812  13.451
15138W        W87464  30.454  11.647  13.897
15139W        W87465  24.517  30.087   4.333
15140W        W87466  32.579   3.253   0.839
15141W        W87467  23.158  16.580  11.082
15142W        W87468  31.057  44.893  14.812
15143W        W87469  17.787  30.940   4.150
15144W        W87470   9.797  41.896   4.339
15145W        W87471   7.260  32.023  14.367
15146W        W87472   1.943  39.388  14.366
15147W        W87473  32.087  29.508  12.572
15148W        W87474  33.060  30.506  12.054
15149W        W87475  36.972   8.208   1.245
15150W        W87476  14.280  22.224   1.376
15151W        W87477   8.656  17.136  12.342
15152W        W87478  30.594  42.327   4.825
15153W        W87479  38.967  37.523  13.050
15154W        W87480  21.694   7.349   0.728
15155W        W87481  24.040  16.583  13.369
15156W        W87482   4.257  43.943  11.081
15157W        W87483  40.332  20.556   3.157
15158W        W87484  37.510  20.148  10.487
15159W        W87485  13.109  12.804   3.705
15160W        W87486  15.730  27.542  13.539
15161W        W87487  32.914  23.523  14.292
15162W        W87488   6.790   1.468   0.403
15163W        W87489  38.557  31.632   4.817
15164W        W87490   8.181  28.618  10.517
15165W        W87491   5.347  28.005  12.439
15166W        W87492  14.186  22.743  12.979
15167W        W87493  44.290   2.346   2.250
15168W        W87494   2.424   0.827   1.350
15169W        W87495  17.577  26.164  11.880
15170W        W87496  40.050  20.563   0.437
15171W        W87497   4.776  34.941   4.153
15172W        W87498  10.823   0.956   1.423
15173W        W87499  14.759  18.204  11.045
15174W        W87500  37.429  23.226   0.892
15175W        W87501  15.248  38.524  11.112
15176W        W87502  40.333  35.430   3.155
15177W        W87503   2.903  23.238   0.815
15178W        W87504  14.105  27.029   4.115
15179W        W87505  12.139  10.767  10.640
15180W        W87506   2.789   5.692   0.953
15181W        W87507  23.646  14.757   3.823
15182W        W87508  34.923   9.696   3.355
15183W        W87509  15.768  20.733  11.964
15184W        W87510  17.616   9.818  14.890
15185W        W87511  21.734  10.772  14.461
15186W        W87512  38.402   7.235   2.297
15187W        W87513   9.751  24.138   2.897
15188W        W87514  37.537  18.556   3.675
15189W        W87515  30.604  40.376   3.824
15190W        W87516  30.586  15.133  14.431
15191W        W87517  40.972  27.094  10.417
15192W        W87518  29.431  16.756  13.446
15193W        W87519   1.367   1.370  10.585
15194W        W87520  30.609  42.970   0.363
15195W        W87521  22.187  36.488   2.314
15196W        W87522  41.846  30.499  13.035
15197W        W87523  17.278  18.626  12.402
15198W        W87524  24.667  33.479  11.486
15199W        W87525   0.866   1.268   3.220
15200W        W87526  37.448  41.895   2.342
15201W        W87527  28.526  16.200   2.287
15202W        W87528  37.016  27.480  14.885
15203W        W87529  22.109  17.160  11.512
15204W        W87530  21.729  21.747   4.191
15205W        W87531  33.579   4.837   0.810
15206W        W87532  16.621  29.571   1.883
15207W        W87533  18.064  12.780   2.382
15208W        W87534  22.176  35.959  11.970
15209W        W87535  44.403  37.951  11.396
15210W        W87536  29.943  30.130  10.521
15211W        W87537  38.495  30.136   2.299
15212W        W87538  39.823  24.206  12.540
15213W        W87539  35.000  31.515   0.416
15214W        W87540   1.331   9.209   3.807
15215W        W87541   9.861  17.590  13.541
15216W        W87542   6.388  26.140   0.463
15217W        W87543  14.159  24.596  11.551
15218W        W87544  31.944  19.124   1.708
15219W        W87545   9.723  40.410  14.440
15220W        W87546  25.524  41.974   1.742
15221W        W87547   6.699   4.829  14.514
15222W        W87548  20.663  19.719   4.144
15223W        W87549  35.592  25.517   2.404
15224W        W87550   6.257  25.102  10.525
15225W        W87551  34.988  16.144   3.202
15226W        W87552   5.198  19.705  13.330
15227W        W87553   7.206  39.394   0.911
15228W        W87554   5.822   7.730   1.759
15229W        W87555  34.004  37.943   2.333
15230W        W87556   6.350  31.466   1.348
15231W        W87557  24.694  40.412   1.376
15232W        W87558  15.168  43.278  12.848
15233W        W87559   0.972   8.182   4.250
15234W        W87560  17.081  26.646   2.815
15235W        W87561  28.093  36.993   4.255
15236W        W87562   1.862  29.124  13.814
15237W        W87563  41.866   5.253  10.491
15238W        W87564  23.059  25.582  11.957
15239W        W87565  17.177  35.474   1.756
15240W        W87566   4.287  12.662  12.033
15241W        W87567  29.640  19.773   5.135
15242W        W87568   9.306   9.680   2.337
15243W        W87569  22.237  25.479  14.351
15244W        W87570  17.751  29.568   4.776
15245W        W87571  34.577   8.304  11.502
15246W        W87572  23.497  31.598   3.867
15247W        W87573  43.960   8.900   4.266
15248W        W87574  36.413  21.525   1.738
15249W        W87575  25.669  44.365   1.894
15250W        W87576  39.559   1.323  14.889
15251W        W87577  40.391  38.515  10.513
15252W        W87578  26.997   1.355   3.772
15253W        W87579  42.983  27.505   0.358
15254W        W87580   9.183  19.220   4.261
15255W        W87581  13.123  34.976  11.559
15256W        W87582  17.102  43.013   1.313
15257W        W87583   9.231  30.563   0.862
15258W        W87584  37.071  14.108   4.644
15259W        W87585   1.804  19.204   1.264
15260W        W87586   2.753  18.773   4.271
15261W        W87587  18.554  27.526  11.065
15262W        W87588  32.606  40.992  11.533
15263W        W87589  17.093   6.744  11.574
15264W        W87590  21.597  38.564   2.238
15265W        W87591  38.020  37.851  10.593
15266W        W87592  23.505   5.930   3.304
15267W        W87593  18.200  39.918   1.879
15268W        W87594  32.549  29.044  14.944
15269W        W87595  35.108   9.708  13.514
15270W        W87596  28.930  20.682   4.125
15271W        W87597   3.868  10.835   2.716
15272W        W87598  22.244   5.251   2.855
15273W        W87599  12.619  42.417   1.374
15274W        W87600  43.299  36.383   2.274
15275W        W87601  22.609   1.323   1.230
15276W        W87602  24.721  22.174   0.742
15277W        W87603  28.628  20.175  13.900
15278W        W87604  16.773  44.008  14.800
15279W        W87605  23.096   9.316  13.060
15280W        W87606  40.868  18.237   1.852
15281W        W87607  19.671   4.771   0.389
15282W        W87608  27.124  28.059   3.183
15283W        W87609   5.846  25.580   4.791
15284W        W87610  41.515  23.670  13.813
15285W        W87611  25.998  28.125   1.780
15286W        W87612   8.668  25.036   1.230
15287W        W87613  24.113  30.569   0.245
15288W        W87614  31.594  43.463   2.777
15289W        W87615  14.307  27.182   9.978
15290W        W87616  40.875  13.804  13.445
15291W        W87617  27.102  15.654  10.486
15292W        W87618  32.530  19.076  14.314
15293W        W87619  40.040  40.443   4.199
15294W        W87620  34.041  38.927  10.139
15295W        W87621   2.336   6.756  14.894
15296W        W87622   9.798  16.725  10.984
15297W        W87623   2.405  32.426  11.950
15298W        W87624   7.867  12.277   0.783
15299W        W87625   4.242  40.546   3.691
15300W        W87626  20.566   5.211  14.348
15301W        W87627   9.750  16.259  11.856
15302W        W87628  29.458   3.385  12.945
15303W        W87629  32.488  24.590   3.799
15304W        W87630   6.382  13.737   2.873
15305W        W87631  13.217  25.965  12.896
15306W        W87632  35.461  41.999  13.349
15307W        W87633   6.776  20.211  10.995
15308W        W87634  24.102  33.594  12.879
15309W        W87635  42.947  31.520  10.536
15310W        W87636   9.304  18.730  11.038
15311W        W87637  40.350   2.831   4.685
15312W        W87638  24.488  20.689  13.940
15313W        W87639  11.833  15.823  13.421
15314W        W87640  33.095  10.252   4.794
15315W        W87641  20.179  34.938  12.935
15316W        W87642  23.101  35.413  14.285
15317W        W87643  41.506  43.338   3.325
15318W        W87644   8.232   6.212   1.407
15319W        W87645  36.042   9.821   2.308
15320W        W87646  21.513  42.827   1.212
15321W        W87647  36.972  15.725   2.240
15322W        W87648  15.582  37.025  14.499
15323W        W87649  44.288  19.173   0.757
15324W        W87650  22.641  40.931  12.827
15325W        W87651  16.649  23.721   1.760
15326W        W87652  28.459  35.031  13.450
15327W        W87653  11.724  30.152   1.279
15328W        W87654  21.544  31.973  10.975
15329W        W87655   8.395   0.898   2.182
15330W        W87656  38.962  37.902   2.776
15331W        W87657  31.403  35.102   4.247
15332W        W87658   2.435  24.209   1.813
15333W        W87659  41.847  21.064  12.446
15334W        W87660  21.541  10.208   4.667
15335W        W87661   9.788  27.520   0.808
15336W        W87662  28.126  15.801   9.964
15337W        W87663  31.564  10.144  10.530
15338W        W87664   9.310  23.576  10.424
15339W        W87665  37.033  28.143  14.512
15340W        W87666  22.710  29.036   4.779
15341W        W87667  40.317  28.971   3.282
15342W        W87668  44.498  23.112   0.404
15343W        W87669   4.859   6.371  10.594
15344W        W87670  41.895   1.978   3.843
15345W        W87671  24.680  34.547   2.361
15346W        W87672  23.612  41.952  13.907
15347W        W87673  18.200  32.570   0.943
15348W        W87674  15.628  35.468   1.918
15349W        W87675  14.117  24.695  10.543
15350W        W87676  39.912  13.743   4.745
15351W        W87677  17.136   2.341   3.716
15352W        W87678  30.442  24.717  13.498
15353W        W87679  11.225  24.206   4.261
15354W        W87680   3.892  25.169  10.927
15355W        W87681   5.332  19.161   4.245
15356W        W87682   1.279   7.750  10.441
15357W        W87683   4.425  39.496  12.072
15358W        W87684  25.175  22.214   4.178
15359W        W87685  23.217   4.903  10.069
15360W        W87686  30.161  10.291  10.510
15361W        W87687  18.148  32.081  14.314
15362W        W87688   2.880  23.679  12.026
15363W        W87689  24.507  39.321  13.832
15364W        W87690  30.936  19.584   1.451
15365W        W87691  31.534  24.722  13.892
15366W        W87692   7.780  18.591   2.684
15367W        W87693  10.637  24.510  12.035
15368W        W87694  14.612  33.977   0.879
15369W        W87695  22.036  26.025   2.674
15370W        W87696  42.327  27.590  11.863
15371W        W87697  24.580  14.796   4.646
15372W        W87698  28.583  13.272   1.222
15373W        W87699   2.934  41.450  11.967
15374W        W87700  26.956  10.713   2.243
15375W        W87701   8.894  13.108  12.511
15376W        W87702  18.583  43.969  11.479
15377W        W87703  39.364  35.067  11.868
15378W        W87704   2.807   3.331   0.805
15379W        W87705  17.263  13.186  12.399
15380W        W87706  27.022  38.524  10.534
15381W        W87707  29.951  15.592  14.783
15382W        W87708  44.374  43.435   3.708
15383W        W87709   8.677  24.685  14.315
15384W        W87710   2.324   7.274  11.435
15385W        W87711  25.119  43.021  10.608
15386W        W87712   1.473  24.515  13.997
15387W        W87713  22.102   9.701  12.349
15388W        W87714  27.008  35.868  10.959
15389W        W87715  33.555   8.662  11.443
15390W        W87716  29.031   8.206  14.371
15391W        W87717  36.553   7.842  14.415
15392W        W87718  31.595  24.023   3.184
15393W        W87719  38.058  12.832  13.821
15394W        W87720  27.060  24.643  11.929
15395W        W87721  20.260  44.002  13.810
15396W        W87722  17.557  41.505   0.456
15397W        W87723   9.179   3.751  14.429
15398W        W87724  38.025  14.611   2.312
15399W        W87725  15.201   4.290   3.348
15400W        W87726  29.937   8.685  11.484
15401W        W87727  40.024  26.024  14.788
15402W        W87728   9.339   8.741  11.101
15403W        W87729  44.399  11.742  14.802
15404W        W87730  15.313  42.371  11.903
15405W        W87731  27.170  30.971  11.512
15406W        W87732  44.260  36.988  13.872
15407W        W87733  14.699   4.806   4.323
15408W        W87734  28.969  31.980  13.390
15409W        W87735  26.023  30.970   1.869
15410W        W87736  23.064  32.960  12.044
15411W        W87737  23.211  35.051   3.327
15412W        W87738   9.190  43.311  12.423
15413W        W87739  17.707  40.482  14.324
15414W        W87740  19.098   7.870   0.784
15415W        W87741  34.592  24.199   3.870
15416W        W87742  42.959  13.815  14.905
15417W        W87743  16.163  21.252   3.364
15418W        W87744  25.084  44.282  12.484
15419W        W87745   3.461   1.239  10.482
15420W        W87746  24.504   4.405  11.066
15421W        W87747  15.763  13.816  10.143
15422W        W87748  41.298   6.292   0.929
15423W        W87749  20.606  28.058  12.839
15424W        W87750   7.231  25.131  13.937
15425W        W87751  19.067  19.191  11.398
15426W        W87752  32.637   6.237  10.538
15427W        W87753  12.636  33.120  14.758
15428W        W87754   3.366  37.547  13.949
15429W        W87755  42.971  11.782   2.320
15430W        W87756  14.316  27.447  11.487
15431W        W87757  34.563  36.586  14.451
15432W        W87758  19.636   7.358   2.820
15433W        W87759  20.100  27.947   3.282
15434W        W87760  37.870   9.329  14.477
15435W        W87761  28.628  19.553   1.856
15436W        W87762   1.908  44.265  13.453
15437W        W87763  15.328  15.237  13.803
15438W        W87764  42.467   0.418  13.040
15439W        W87765  42.404  43.812   2.255
15440W        W87766  26.123  24.643   4.306
15441W        W87767  36.934   8.860   3.715
15442W        W87768  23.990  33.077  11.541
15443W        W87769  20.242  20.595   3.665
15444W        W87770  11.734  26.674   4.199
15445W        W87771  25.638  39.522  10.029
15446W        W87772  34.590  11.304   3.326
15447W        W87773  34.883   1.359   4.737
15448W        W87774  36.411  29.647   0.857
15449W        W87775  21.604  38.336   1.806
15450W        W87776  16.622  14.808  10.990
15451W        W87777  33.547   0.857  14.418
15452W        W87778  43.369   9.319  14.322
15453W        W87779   1.794  12.831  11.526
15454W        W87780  23.502  32.563  14.029
15455W        W87781   6.839   7.779  14.416
15456W        W87782  15.101  29.628   2.351
15457W        W87783  26.147  23.504   2.248
15458W        W87784  34.060   6.187   3.727
15459W        W87785   3.252  19.620  13.308
15460W        W87786  35.418  24.031  14.488
15461W        W87787  23.507  22.585  14.910
15462W        W87788  12.126  30.126   1.256
15463W        W87789  24.686  27.663  11.502
15464W        W87790  36.041   3.911   3.653
15465W        W87791  39.389   6.402  12.533
15466W        W87792   4.751   2.404   1.219
15467W        W87793  15.083   7.216  12.406
15468W        W87794  42.424  34.876  12.826
15469W        W87795  43.897  21.134  13.843
15470W        W87796  40.442  28.044  11.090
15471W        W87797  30.933  43.515   4.728
15472W        W87798  16.596   1.899   0.895
15473W        W87799  24.098   2.265   4.768
15474W        W87800  19.710   8.314  14.310
15475W        W87801  28.943  40.847   2.267
15476W        W87802   8.385   9.154  11.950
15477W        W87803  25.008  16.716   2.212
15478W        W87804   3.446  19.058  11.375
15479W        W87805  21.056  35.531   0.859
15480W        W87806  32.894  34.072   4.634
15481W        W87807  25.111  43.800   0.418
15482W        W87808  40.832   8.785  14.921
15483W        W87809   3.305   8.249  13.485
15484W        W87810  29.621   0.827  13.521
15485W        W87811  12.183   5.820   3.312
15486W        W87812   1.275  37.582  13.311
15487W        W87813   9.750   1.736  11.560
15488W        W87814   3.739  28.651   0.928
15489W        W87815   4.428  17.722  14.835
15490W        W87816  33.924  25.140  11.580
15491W        W87817  35.372  16.157  12.062
15492W        W87818  21.113  17.655  10.446
15493W        W87819  16.217  43.332   4.319
15494W        W87820   2.426  25.541   3.201
15495W        W87821  10.651   7.298  12.095
15496W        W87822  18.187  27.568   4.291
15497W        W87823   2.387  26.587   0.882
15498W        W87824  36.481  42.352  14.958
15499W        W87825   0.926  12.728  14.981
15500W        W87826   8.874  36.842   0.265
15501W        W87827  42.474  21.733  11.600
15502W        W87828  12.664   7.824  13.807
15503W        W87829  34.524  18.568   2.709
15504W        W87830  25.168  32.929   1.701
15505W        W87831  24.548   4.332  11.931
15506W        W87832  20.211   4.811   1.864
15507W        W87833  39.023  16.721   0.739
15508W        W87834  35.877  37.440  10.423
15509W        W87835   9.164  23.677   2.675
15510W        W87836  28.577  41.484   4.737
15511W        W87837  37.034  39.907  13.425
15512W        W87838   6.421  24.024  13.411
15513W        W87839   7.314  13.106   4.670
15514W        W87840   8.207  33.055   0.874
15515W        W87841  20.197  28.634  13.030
15516W        W87842  28.961  41.309  12.344
15517W        W87843  26.187  26.490  10.432
15518W        W87844  34.489  37.344   3.760
15519W        W87845  18.615   3.825   3.268
15520W        W87846  41.481  35.551  12.096
15521W        W87847  35.438  28.558  14.769
15522W        W87848  27.491   2.393   0.303
15523W        W87849  11.209   5.241   0.918
15524W        W87850  10.145   7.833  10.428
15525W        W87851  11.237  10.152   0.912
15526W        W87852  37.018  12.139  10.550
15527W        W87853   8.885  37.455  10.974
15528W        W87854   3.217  35.107   1.366
15529W        W87855  24.050  11.360  13.440
15530W        W87856  42.021  33.027   0.869
15531W        W87857  10.691  37.074  12.379
15532W        W87858  19.619  10.758   2.341
15533W        W87859   7.710  36.987  11.991
15534W        W87860  11.310  44.485  11.605
15535W        W87861  15.313  42.392   3.747
15536W        W87862  26.687  10.224   4.750
15537W        W87863  32.567  36.499  14.952
15538W        W87864  19.088   0.890  13.932
15539W        W87865  21.241  16.769  14.000
15540W        W87866  23.687  24.189  10.531
15541W        W87867  37.904   9.331  14.787
15542W        W87868  24.503  41.952  12.544
15543W        W87869  14.618  23.156   4.700
15544W        W87870  38.905  26.617  14.936
15545W        W87871   3.241  43.941  14.323
15546W        W87872  10.242  18.116   5.243
15547W        W87873  27.983  44.331  10.973
15548W        W87874  10.701  15.667   2.781
15549W        W87875  36.575  20.192  11.860
15550W        W87876  10.170  37.075   3.773
15551W        W87877  36.939  24.142  14.887
15552W        W87878   2.865  37.884  14.504
15553W        W87879  32.955   6.268  11.588
15554W        W87880   3.344  12.710  11.903
15555W        W87881  27.479   2.332   0.837
15556W        W87882  36.903  23.038   3.155
15557W        W87883  20.141  41.400   1.442
15558W        W87884   6.838  15.729   3.717
15559W        W87885  42.308  13.297  11.916
15560W        W87886   5.320  15.126   0.436
15561W        W87887  44.275  27.944  12.072
15562W        W87888  21.593   4.773   2.267
15563W        W87889  26.476  27.161  13.061
15564W        W87890  44.467   7.874  13.407
15565W        W87891   5.230  16.702  14.819
15566W        W87892  12.755  37.068  11.372
15567W        W87893  33.551  25.606   4.353
15568W        W87894  26.533  11.844   3.753
15569W        W87895  16.798   5.929  14.867
15570W        W87896  22.170  37.448   3.749
15571W        W87897  21.582   9.220  14.868
15572W        W87898  15.808  28.625   5.144
15573W        W87899   5.314   4.822  13.321
15574W        W87900  35.452  20.062  12.553
15575W        W87901  29.610  28.018   1.904
15576W        W87902  14.263  40.319  12.066
15577W        W87903  20.673   7.856   1.321
15578W        W87904  24.546  21.729  12.837
15579W        W87905  36.532  19.080  10.903
15580W        W87906  27.493  34.575   3.291
15581W        W87907  36.884   6.893  13.488
15582W        W87908  36.513   8.168   4.826
15583W        W87909  39.017   6.814  14.944
15584W        W87910   1.382  14.749   3.753
15585W        W87911  35.048  44.334   0.415
15586W        W87912  36.067  20.103  10.978
15587W        W87913  17.785   1.248   2.417
15588W        W87914   0.759  25.211   1.327
15589W        W87915  29.639  14.715  12.436
15590W        W87916   5.753  39.892   4.655
15591W        W87917  43.444  26.632   3.191
15592W        W87918  32.886  12.326   2.690
15593W        W87919  38.374  20.121  11.567
15594W        W87920  27.451  39.336  14.824
15595W        W87921  19.075   4.937  13.810
15596W        W87922   7.715  19.158   3.350
15597W        W87923  12.730  40.019   2.274
15598W        W87924   3.347   3.919  12.387
15599W        W87925  37.026   9.226  14.759
15600W        W87926   9.387   6.368   1.427
15601W        W87927  32.637  15.328   1.248
15602W        W87928  20.035  20.580   0.454
15603W        W87929   5.867  25.036   4.348
15604W        W87930  19.052   4.378  13.429
15605W        W87931  15.583  30.446   4.162
15606W        W87932  31.927  29.536   3.187
15607W        W87933  23.165  20.228   4.767
15608W        W87934  33.014  35.008  11.929
15609W        W87935  22.613  28.099   0.411
15610W        W87936  13.163  21.090   4.153
15611W        W87937  12.270  16.157   0.740
15612W        W87938  23.690   3.256  10.982
15613W        W87939  23.565   9.162   2.278
15614W        W87940  42.786  33.510   2.277
15615W        W87941   1.276  35.486   1.898
15616W        W87942  30.958  33.079  14.776
15617W        W87943  21.719  17.291  14.335
15618W        W87944  25.703  25.054   4.291
15619W        W87945  20.089  39.334   2.372
15620W        W87946  29.166  22.718  10.437
15621W        W87947  41.809  19.279  12.386
15622W        W87948  15.293  13.657   0.731
15623W        W87949   2.761   9.811   0.352
15624W        W87950  29.492  27.132  12.389
15625W        W87951  19.189  20.125  14.335
15626W        W87952   4.212  38.462   1.851
15627W        W87953   9.757  44.957   3.359
15628W        W87954  14.160   8.714   3.760
15629W        W87955  16.601   4.396   3.688
15630W        W87956   1.373  43.272   1.812
15631W        W87957  16.639  39.521  13.998
15632W        W87958   0.268   0.759  13.966
15633W        W87959  33.965  20.246   4.350
15634W        W87960  35.441   5.266   2.759
15635W        W87961   3.384   3.853   5.214
15636W        W87962   1.886  14.106  12.556
15637W        W87963   9.335  18.142  12.483
15638W        W87964   5.377  33.607   0.904
15639W        W87965   7.348  18.708  10.573
15640W        W87966  35.028  21.168   3.870
15641W        W87967  29.643  35.949  14.924
15642W        W87968  23.679  21.744   1.880
15643W        W87969  44.006  13.163   4.126
15644W        W87970  31.552   6.732   2.303
15645W        W87971  32.057  28.156  10.921
15646W        W87972   1.311  23.178  10.572
15647W        W87973  37.447  23.545  12.970
15648W        W87974  17.734  29.529  14.515
15649W        W87975  22.610  12.289  14.344
15650W        W87976  33.974  27.629   0.258
15651W        W87977  25.112  43.506  13.400
15652W        W87978  34.415   9.274  12.382
15653W        W87979  16.290  42.838  10.405
15654W        W87980  14.209  29.651  11.417
15655W        W87981   6.909  14.331  14.288
15656W        W87982  26.695  15.765  10.613
15657W        W87983  30.961  42.971  12.490
15658W        W87984   3.338  19.267  11.978
15659W        W87985  42.938  40.959   4.117
15660W        W87986   7.693  33.923   0.366
15661W        W87987   8.395  44.948  12.552
15662W        W87988  29.460  14.293  13.795
15663W        W87989   4.396  41.335   3.245
15664W        W87990   3.720   2.927   1.914
15665W        W87991  38.949  41.304  13.990
15666W        W87992  19.710  20.121   3.157
15667W        W87993  21.036  21.201   5.315
15668W        W87994  20.055  35.415  12.868
15669W        W87995  20.573  38.348   4.665
15670W        W87996  28.982  28.478   3.693
15671W        W87997  29.061  30.624  11.450
15672W        W87998  17.595  11.815   3.269
15673W        W87999  39.513  21.641  10.405
15674W        W88000  15.678  11.652   5.113
15675W        W88001  44.454  40.427   4.618
15676W        W88002  34.429  24.581   4.599
15677W        W88003  36.868  35.008   0.481
15678W        W88004  10.844   6.729   1.407
15679W        W88005   2.443  18.547   2.768
15680W        W88006  33.064  38.472  13.450
15681W        W88007  18.571  15.106  13.994
15682W        W88008  17.169  26.978   3.338
15683W        W88009  29.639  29.573  10.604
15684W        W88010  30.087   2.450  11.395
15685W        W88011   8.657   7.701  13.920
15686W        W88012   5.854   7.272   3.836
15687W        W88013   2.466   6.742   4.187
15688W        W88014  24.602  14.220   1.220
15689W        W88015  18.165  32.413   2.412
15690W        W88016  35.406  14.236   3.854
15691W        W88017  10.741   1.957  14.029
15692W        W88018  20.640   5.306  13.047
15693W        W88019  40.936  43.416  13.487
15694W        W88020  14.207  24.542   2.272
15695W        W88021  10.206  44.871   2.330
15696W        W88022   3.434  42.473  13.981
15697W        W88023  41.814  41.981   4.645
15698W        W88024  17.165  11.762  11.442
15699W        W88025   1.911  25.527   4.139
15700W        W88026   8.703   0.771   3.728
15701W        W88027  42.015   3.214   2.340
15702W        W88028  10.845  20.265   2.261
15703W        W88029  23.043  28.670  10.928
15704W        W88030  21.168  14.806   4.147
15705W        W88031  36.368  35.046   0.415
15706W        W88032  28.094   2.467  12.403
15707W        W88033  38.548  25.590  12.453
15708W        W88034  39.538  17.187   2.853
15709W        W88035   2.343  11.229  12.843
15710W        W88036  12.125  35.563  11.467
15711W        W88037   1.835  14.787   0.315
15712W        W88038  19.771  13.344   2.189
15713W        W88039  15.705  11.215   1.223
15714W        W88040  26.092  35.966  13.392
15715W        W88041  34.080  20.614   2.894
15716W        W88042  35.507   8.397  14.850
15717W        W88043  26.194  43.384  13.320
15718W        W88044  12.754  34.892   0.953
15719W        W88045  39.924  11.354  12.073
15720W        W88046   8.736  12.713   4.759
15721W        W88047  15.801  21.537  10.585
15722W        W88048  17.194   9.218   3.847
15723W        W88049  32.999   3.440  14.911
15724W        W88050   9.280  40.419   3.829
15725W        W88051  20.097  29.425   4.654
15726W        W88052   2.917  28.967   4.814
15727W        W88053  35.033  43.302   2.377
15728W        W88054  31.476  16.309   2.389
15729W        W88055   0.376  35.598   4.159
15730W        W88056  16.649  32.027   3.718
15731W        W88057  27.946  35.523   3.362
15732W        W88058  36.878  43.896   4.679
15733W        W88059  37.944  43.423   2.763
15734W        W88060  30.992  11.364   0.296
15735W        W88061   8.759   3.280   4.118
15736W        W88062  30.604  30.980  12.461
15737W        W88063   0.399  39.009  13.505
15738W        W88064  29.528   4.704   2.741
15739W        W88065   7.740   9.800  13.939
15740W        W88066  38.358   6.875   4.607
15741W        W88067  39.935  40.806   4.793
15742W        W88068  30.029  15.614  11.603
15743W        W88069  21.103  38.996   9.452
15744W        W88070  34.993  28.169   4.638
15745W        W88071  12.118  12.341   1.270
15746W        W88072  44.980  33.927   1.254
15747W        W88073  14.677  38.510  12.881
15748W        W88074   4.923  12.177   0.331
15749W        W88075  37.920  34.524   4.303
15750W        W88076   3.904  14.249   3.676
15751W        W88077  26.206  12.616  13.437
15752W        W88078  32.568  11.234  14.896
15753W        W88079  30.989  21.707   3.740
15754W        W88080   1.430  26.547   2.717
15755W        W88081   5.788  26.201  14.345
15756W        W88082  26.983  17.158  10.892
15757W        W88083   9.758  44.757  10.494
15758W        W88084  22.629   7.230   1.902
15759W        W88085  24.210  24.110  12.504
15760W        W88086  34.525  17.178  11.877
15761W        W88087  44.764  24.497  11.911
15762W        W88088  30.544  29.520   3.312
15763W        W88089  34.038   9.242  14.794
15764W        W88090  36.063   0.873   3.333
15765W        W88091  39.498  41.427   1.837
15766W        W88092  17.213  16.808  11.540
15767W        W88093  39.452  22.744   4.804
15768W        W88094  30.448   5.709   1.931
15769W        W88095   8.210  44.993   2.275
15770W        W88096   8.357  18.576  13.520
15771W        W88097  37.005  40.329  12.939
15772W        W88098  39.501  11.720   3.386
15773W        W88099  38.367  30.426   4.153
15774W        W88100  15.748  20.576  10.582
15775W        W88101  37.918  43.838   2.837
15776W        W88102  38.501  31.908  13.871
15777W        W88103  39.382  21.590  13.016
15778W        W88104  23.524  11.269   2.822
15779W        W88105  26.565   7.787   0.911
15780W        W88106  14.627  22.094   0.243
15781W        W88107  37.475  41.452  14.307
15782W        W88108   3.939   7.702  11.489
15783W        W88109   6.214  39.420   0.875
15784W        W88110   4.720  19.558  10.578
15785W        W88111  21.758  22.070   1.720
15786W        W88112  30.576  14.121   2.856
15787W        W88113   4.748  37.450   4.178
15788W        W88114  35.982  17.610  11.479
15789W        W88115  17.179  17.589   2.343
15790W        W88116  43.462  42.899   3.342
15791W        W88117   5.287   9.847   2.716
15792W        W88118   1.282  22.551   3.163
15793W        W88119  41.861  43.951  14.350
15794W        W88120  42.402  24.126  10.477
15795W        W88121  42.521  36.908   2.298
15796W        W88122  23.206  31.000   2.746
15797W        W88123  43.418  14.259   4.198
15798W        W88124   8.754  40.039   0.305
15799W        W88125  20.246   3.289  13.867
15800W        W88126  21.247   5.856  12.455
15801W        W88127  20.588   5.808  12.069
15802W        W88128  31.554  33.483   2.844
15803W        W88129  24.530  27.070  10.639
15804W        W88130   1.291  34.441   1.729
15805W        W88131  42.489  16.138   3.264
15806W        W88132  43.932   3.294  14.378
15807W        W88133  30.606  17.091  11.907
15808W        W88134  15.232  13.220  12.084
15809W        W88135  19.543  37.943  14.479
15810W        W88136  25.691  43.797   2.739
15811W        W88137  37.429  23.176  13.809
15812W        W88138   2.360   0.324  14.958
15813W        W88139  37.580  25.007  12.902
15814W        W88140  13.740   2.901   2.714
15815W        W88141   8.349  14.806  13.896
15816W        W88142  39.415  41.535   2.847
15817W        W88143  15.212  38.922   0.844
15818W        W88144  38.482  40.008  13.342
15819W        W88145  26.981  29.103  13.923
15820W        W88146  20.741   9.231   1.772
15821W        W88147  23.001  27.946  11.122
15822W        W88148  29.451   8.834  10.534
15823W        W88149  22.518   5.328  12.451
15824W        W88150  12.794  18.282  10.418
15825W        W88151  20.255   7.332   4.253
15826W        W88152  10.713   3.336  13.438
15827W        W88153   0.371  34.888  13.433
15828W        W88154  38.037  17.664   3.357
15829W        W88155  10.217   7.882   1.333
15830W        W88156  11.249  15.804   2.840
15831W        W88157  35.008   4.736  13.511
15832W        W88158  25.639  34.393  14.482
15833W        W88159  30.613  32.484  12.923
15834W        W88160  15.584  40.522   2.228
15835W        W88161  28.610  44.278   0.734
15836W        W88162   1.437  26.483   4.819
15837W        W88163  18.712   7.729  11.372
15838W        W88164   2.846  29.115  12.546
15839W        W88165  36.436  37.525  10.140
15840W        W88166   9.236  23.074   1.306
15841W        W88167  44.851  44.879   4.746
15842W        W88168  14.698  10.295  14.401
15843W        W88169  40.044   0.350  14.011
15844W        W88170   7.356   6.845   3.365
15845W        W88171  25.554  18.119  12.465
15846W        W88172  18.653  13.287   4.599
15847W        W88173  28.136   3.832  12.839
15848W        W88174  15.207  40.541  11.953
15849W        W88175  22.700  20.553  12.361
15850W        W88176  17.752  28.569  14.940
15851W        W88177  10.195  28.028  12.882
15852W        W88178  19.079   1.424   3.206
15853W        W88179  39.852  25.004   1.249
15854W        W88180   9.800   0.800   2.349
15855W        W88181  20.210  22.155  14.387
15856W        W88182  32.090   2.924  12.865
15857W        W88183  44.842  26.189  12.055
15858W        W88184  15.125  44.496   4.824
15859W        W88185  33.616   8.343  11.029
15860W        W88186  12.241  20.686  11.906
15861W        W88187  22.094  34.532  14.419
15862W        W88188  33.463  22.585   2.775
15863W        W88189   5.417  13.654   0.334
15864W        W88190  26.600   9.307   3.696
15865W        W88191  37.917  31.134  11.126
15866W        W88192  42.411  19.590   2.230
15867W        W88193  27.979  36.089  14.771
15868W        W88194  33.022  12.187  11.577
15869W        W88195   3.919  14.750   0.768
15870W        W88196  24.582   0.812  12.975
15871W        W88197  39.003  15.666   0.385
15872W        W88198  41.875  38.979  10.132
15873W        W88199  14.674  25.613  14.359
15874W        W88200   2.748  23.633   0.743
15875W        W88201  36.920   8.865  12.538
15876W        W88202  13.839  42.033  14.916
15877W        W88203  37.967  40.440  11.997
15878W        W88204  34.543   5.910  12.974
15879W        W88205  13.115  23.073  12.012
15880W        W88206  32.127  41.885   0.957
15881W        W88207  36.521  27.083  14.314
15882W        W88208  25.993   2.889  11.954
15883W        W88209   2.412  20.190   0.870
15884W        W88210  20.185  21.219   4.304
15885W        W88211  43.932  36.011   4.647
15886W        W88212  25.546  19.741   3.366
15887W        W88213   3.300  42.413  10.987
15888W        W88214  29.944  39.811   2.882
15889W        W88215  25.483   0.782  10.416
15890W        W88216  28.151   0.759   4.233
15891W        W88217  27.045   0.844  13.325
15892W        W88218  31.479   6.740   4.733
15893W        W88219  36.487  40.455   0.459
15894W        W88220   9.245  30.638  13.956
15895W        W88221  12.621  23.027   4.742
15896W        W88222  27.456  28.985   4.665
15897W        W88223  43.468  23.116  13.883
15898W        W88224  11.823   4.868   0.377
15899W        W88225  34.561  43.430  12.971
15900W        W88226   2.407  24.486   4.124
15901W        W88227   4.448   7.195   1.729
15902W        W88228  25.565  30.028   4.722
15903W        W88229  36.382  15.237  14.962
15904W        W88230  44.305  13.671   4.774
15905W        W88231   8.708  24.113   1.758
15906W        W88232  25.023  17.650   5.720
15907W        W88233  16.715  23.185  10.639
15908W        W88234  17.730  42.975  11.934
15909W        W88235  37.488   6.259   1.451
15910W        W88236  43.012  15.609  11.913
15911W        W88237  37.376   7.253  13.808
15912W        W88238   3.251   7.735   1.738
15913W        W88239  22.730  30.005   9.945
15914W        W88240  20.051  21.064   3.647
15915W        W88241  21.050  27.179   1.246
15916W        W88242  36.957  31.541   3.745
15917W        W88243  24.723   7.841   4.837
15918W        W88244  30.961  11.637   3.768
15919W        W88245  35.027  44.391  11.593
15920W        W88246  19.109  15.112   0.320
15921W        W88247   8.187  29.567   2.325
15922W        W88248  31.489   8.242  14.000
15923W        W88249   3.863  23.014  14.504
15924W        W88250  16.679  22.540  14.396
15925W        W88251  36.543  23.051   0.732
15926W        W88252   9.791   4.779   3.258
15927W        W88253  12.629   2.399   3.200
15928W        W88254   2.782  33.587   0.344
15929W        W88255   5.199   3.904   3.755
15930W        W88256  25.162  20.232   0.899
15931W        W88257  19.618   0.477   3.173
15932W        W88258  28.159  23.658   3.673
15933W        W88259  41.816  23.527  13.965
15934W        W88260  42.454  35.106  14.849
15935W        W88261  36.043  25.216   4.195
15936W        W88262  13.322  18.260  10.051
15937W        W88263  29.487  34.447  11.018
15938W        W88264  25.985  27.517   9.546
15939W        W88265   9.646  10.641  12.935
15940W        W88266  31.469  43.868   0.937
15941W        W88267  27.655  23.635   4.837
15942W        W88268  26.500  10.645   2.248
15943W        W88269   9.777  26.535  13.474
15944W        W88270  40.458  15.093   4.733
15945W        W88271  23.102  25.604  10.934
15946W        W88272  32.531  43.997   0.780
15947W        W88273  42.806  15.763  14.424
15948W        W88274  18.722  27.648  14.401
15949W        W88275  41.842  43.320   1.244
15950W        W88276  17.189  41.825  14.908
15951W        W88277  43.849  14.152   4.300
15952W        W88278  38.072   6.804   1.231
15953W        W88279  34.394  39.457  11.893
15954W        W88280  39.480   3.759   3.239
15955W        W88281  37.425  44.334  10.600
15956W        W88282   0.824  39.491   0.737
15957W        W88283   3.886  33.021  13.438
15958W        W88284  10.270  43.002   0.419
15959W        W88285  14.311   2.306   4.203
15960W        W88286  17.647  24.045  10.974
15961W        W88287  10.237  34.893   2.814
15962W        W88288  41.881  42.405   3.324
15963W        W88289  37.950  24.599   3.689
15964W        W88290  18.711  39.008   1.397
15965W        W88291  29.659  25.037   3.647
15966W        W88292  36.459   9.762   0.804
15967W        W88293  16.746   9.355  10.997
15968W        W88294   0.963   2.961  13.880
15969W        W88295  44.803  21.096  10.579
15970W        W88296  16.671   5.272   2.810
15971W        W88297   1.413  11.212   3.311
15972W        W88298   3.305  27.069  13.026
15973W        W88299  34.421  39.520   0.886
15974W        W88300  41.488  26.608  12.009
15975W        W88301  25.085  22.106   1.727
15976W        W88302   4.815  23.190  10.931
15977W        W88303  39.909  35.472  14.327
15978W        W88304  32.420   1.421   4.229
15979W        W88305  21.729  36.956   1.380
15980W        W88306   3.247  33.579  13.821
15981W        W88307  16.669  32.545   2.805
15982W        W88308  38.509  33.534  10.999
15983W        W88309  29.484   3.399  14.011
15984W        W88310  28.113   4.771  12.462
15985W        W88311  11.783  15.704  10.547
15986W        W88312   9.355   8.825   3.848
15987W        W88313  20.588  37.988   0.418
15988W        W88314  41.799  31.932   0.356
15989W        W88315  37.965  27.634  14.962
15990W        W88316  19.558   8.317  13.014
15991W        W88317  44.990  30.917  14.866
15992W        W88318  12.164  32.613  14.887
15993W        W88319  43.471  11.724   0.327
15994W        W88320  39.326  36.893   0.393
15995W        W88321  21.237  33.615  10.441
15996W        W88322  22.134  42.498  13.938
15997W        W88323  15.585   9.259  14.019
15998W        W88324   6.364  14.331   3.261
15999W        W88325   4.403  22.664   4.344
16000W        W88326  10.261  28.440   1.727
16001W        W88327  17.093  33.525   0.413
16002W        W88328  44.367  32.552  12.837
16003W        W88329   5.275  39.924  11.897
16004W        W88330  30.035  28.086   3.829
16005W        W88331   4.849  20.593  14.821
16006W        W88332  40.886   8.720  10.557
16007W        W88333  26.051   2.906   0.899
16008W        W88334  37.367  11.691   4.683
16009W        W88335  24.670  32.451  13.468
16010W        W88336  21.226   2.801  10.523
16011W        W88337  15.823  35.467  10.451
16012W        W88338  20.268   3.875   0.860
16013W        W88339  18.762  31.549   1.269
16014W        W88340  34.874  23.019   1.863
16015W        W88341  10.268  41.432  12.423
16016W        W88342  38.881  32.111  14.790
16017W        W88343   6.419   0.347   2.324
16018W        W88344  25.580  39.817   2.892
16019W        W88345   1.973  40.360  13.426
16020W        W88346  27.069  33.059   2.353
16021W        W88347  26.466  12.666  11.911
16022W        W88348  13.183  15.637  11.064
16023W        W88349  12.273  35.446   4.711
16024W        W88350  24.073  14.135   4.832
16025W        W88351  37.563  44.260   4.774
16026W        W88352   9.196  44.779  13.330
16027W        W88353  13.607  28.141  13.932
16028W        W88354  32.612  10.846   0.382
16029W        W88355   4.260  33.899  11.058
16030W        W88356  41.950   7.219  11.018
16031W        W88357  22.104   0.821  13.849
16032W        W88358  24.152  37.535  13.797
16033W        W88359  13.730  35.080  10.617
16034W        W88360   5.709  43.914   2.894
16035W        W88361   7.681  44.773  12.879
16036W        W88362  12.791  24.221  10.452
16037W        W88363  37.533  40.467   0.311
16038W        W88364  14.238  30.494   2.365
16039W        W88365   2.959   1.476  10.443
16040W        W88366  37.872  35.042   0.911
16041W        W88367  40.809   0.924   0.956
16042W        W88368  41.817  23.031  11.387
16043W        W88369  24.021  20.737  14.853
16044W        W88370  10.166  14.658  12.555
16045W        W88371  21.596  31.968  13.309
16046W        W88372  16.086   9.691  11.093
16047W        W88373  28.511   1.902  14.288
16048W        W88374  17.123  27.980  12.048
16049W        W88375  36.019  26.541  13.908
16050W        W88376  11.853  26.678  14.457
16051W        W88377   4.356  29.004  14.891
16052W        W88378  12.161  40.516   1.888
16053W        W88379  20.173  36.440   4.258
16054W        W88380  33.929  26.989   1.247
16055W        W88381  27.683  14.264   4.819
16056W        W88382  26.614   7.780   4.307
16057W        W88383  22.704  36.045   4.162
16058W        W88384   2.801  15.775   3.213
16059W        W88385  17.568  42.412   1.212
16060W        W88386  39.372  10.837  13.872
16061W        W88387  26.625  31.583   2.756
16062W        W88388   9.658  14.264   4.619
16063W        W88389   4.728  31.647  11.447
16064W        W88390   0.369  22.155   1.276
16065W        W88391  21.677  36.929  12.432
16066W        W88392   4.771   4.867  13.521
16067W        W88393   4.300  44.338  13.804
16068W        W88394  35.885  25.605  14.777
16069W        W88395  19.191   6.343   2.357
16070W        W88396   0.276  37.040   1.892
16071W        W88397  29.967   4.329   3.369
16072W        W88398  13.281  23.141   2.689
16073W        W88399   0.388  29.964  13.925
16074W        W88400  36.888   5.259   2.386
16075W        W88401  33.006   8.178  14.424
16076W        W88402  17.194   5.866   4.731
16077W        W88403  23.076  10.348  12.980
16078W        W88404  37.032  24.604   4.328
16079W        W88405  11.244  31.063  11.514
16080W        W88406  33.443  32.091  11.044
16081W        W88407   5.692   6.740   3.340
16082W        W88408  36.863   5.934  12.849
16083W        W88409  44.273  29.460   0.410
16084W        W88410  33.002   7.231  14.500
16085W        W88411  36.044  23.116  10.465
16086W        W88412  11.262   2.395   1.299
16087W        W88413  14.214  28.614   0.923
16088W        W88414  31.037  39.503  13.868
16089W        W88415  29.542  38.049   4.643
16090W        W88416  34.951   4.442  13.054
16091W        W88417  12.342   4.414  10.550
16092W        W88418  17.739  34.496  14.978
16093W        W88419  42.321  31.480   2.725
16094W        W88420  14.183   8.838   4.131
16095W        W88421  27.979   3.771   1.889
16096W        W88422   6.686  13.110   2.227
16097W        W88423  13.320  12.683   3.343
16098W        W88424  37.467  40.896  11.916
16099W        W88425  19.041   2.882   0.481
16100W        W88426  26.079  27.105   0.785
16101W        W88427   8.731  37.336   2.231
16102W        W88428  44.841   8.840  13.367
16103W        W88429  14.285  37.384   3.385
16104W        W88430  27.523  44.889  11.561
16105W        W88431   9.788   3.218   0.405
16106W        W88432  38.891  35.920  11.579
16107W        W88433  26.658  20.729   4.291
16108W        W88434  19.239  26.007  11.037
16109W        W88435  37.087  15.785  13.514
16110W        W88436  36.544  21.705  10.639
16111W        W88437  39.828  38.399   2.328
16112W        W88438  14.244  15.641  13.051
16113W        W88439  20.069  36.841   1.878
16114W        W88440  44.931   5.389  10.953
16115W        W88441  29.072  34.467  12.407
16116W        W88442  41.900  14.217  12.576
16117W        W88443  32.037  28.518   2.863
16118W        W88444  43.369  43.413   2.857
16119W        W88445  22.738  13.661   2.748
16120W        W88446  23.710  19.726  10.911
16121W        W88447   3.838  28.468  12.370
16122W        W88448  21.049   2.354  14.394
16123W        W88449  33.467  12.708   3.329
16124W        W88450   1.443  10.147   5.158
16125W        W88451  35.100   3.382  12.066
16126W        W88452  38.914  25.147  13.922
16127W        W88453   7.204  27.073  10.441
16128W        W88454  14.629  38.962   2.302
16129W        W88455  19.626   8.297   2.359
16130W        W88456  28.624   8.655   3.790
16131W        W88457  42.367   9.656   1.908
16132W        W88458  20.562  44.928   1.394
16133W        W88459   2.352  15.147   4.700
16134W        W88460   7.282   1.424  13.439
16135W        W88461   2.813  41.965  12.979
16136W        W88462  35.064  19.093   4.769
16137W        W88463  23.194  41.505  11.088
16138W        W88464   4.360  22.609  14.325
16139W        W88465  16.178  34.986   0.806
16140W        W88466   5.410   8.314   1.287
16141W        W88467  13.813  25.693   4.693
16142W        W88468  19.253  12.774   3.205
16143W        W88469  20.264   9.806   3.329
16144W        W88470   8.836  28.969   2.788
16145W        W88471  25.604   3.785   3.186
16146W        W88472  37.494  44.809   2.714
16147W        W88473  20.105  11.319  14.299
16148W        W88474  19.253  17.707   2.900
16149W        W88475  28.641  21.662  12.087
16150W        W88476  21.140   0.423   4.694
16151W        W88477   8.788  27.630   2.297
16152W        W88478   0.389  41.803   2.773
16153W        W88479   2.943  44.375  10.943
16154W        W88480  14.253  31.010   2.282
16155W        W88481  20.616  33.894  11.486
16156W        W88482  35.934   9.750   1.744
16157W        W88483   1.818   1.892  14.407
16158W        W88484  19.088  38.024  11.582
16159W        W88485  20.029  26.688  11.890
16160W        W88486  23.534  31.515  11.956
16161W        W88487   8.291  12.361  11.905
16162W        W88488  19.172  23.005  11.055
16163W        W88489  13.795   0.392   2.755
16164W        W88490   2.288   0.778   1.899
16165W        W88491  16.167   4.313  14.887
16166W        W88492  43.428  36.996   2.712
16167W        W88493   3.445  17.694  14.376
16168W        W88494  44.967  41.467   2.747
16169W        W88495  13.314  42.831   2.300
16170W        W88496  15.268  16.768   1.313
16171W        W88497  38.898  18.608   2.207
16172W        W88498  16.116  38.905   4.682
16173W        W88499   3.353  26.030   2.415
16174W        W88500  24.173  22.115   4.618
16175W        W88501  43.417  37.881  12.921
16176W        W88502  17.683   8.721  11.017
16177W        W88503  39.955  41.962   0.780
16178W        W88504  32.080  29.504   5.160
16179W        W88505  29.050  40.868   0.471
16180W        W88506  42.012  31.982   3.690
16181W        W88507   5.406  25.022   2.740
16182W        W88508  10.190  44.483  14.967
16183W        W88509  18.158  21.116  12.010
16184W        W88510  27.036   4.244  11.990
16185W        W88511  41.440  22.617  12.060
16186W        W88512   1.875  24.072  10.473
16187W        W88513  26.486  33.541  12.911
16188W        W88514  37.033  32.921  11.375
16189W        W88515  12.192   3.885  12.009
16190W        W88516   3.751  14.284  13.961
16191W        W88517  30.059  16.288  12.858
16192W        W88518  27.512  38.339  12.849
16193W        W88519  32.124  28.062   1.346
16194W        W88520  12.831  34.606  11.006
16195W        W88521  34.053  20.151  13.882
16196W        W88522  25.658  23.582  10.959
16197W        W88523   6.250  34.440  12.913
16198W        W88524  41.909  12.847   5.088
16199W        W88525  40.376  29.472  11.051
16200W        W88526  37.361  28.579  14.440
16201W        W88527   9.792  16.666   1.851
16202W        W88528  28.552  36.905   1.412
16203W        W88529   0.251  13.697   4.279
16204W        W88530  38.008  42.828  11.406
16205W        W88531  24.658   1.816   0.897
16206W        W88532   1.902   3.790  13.346
16207W        W88533  25.172  40.369  13.539
16208W        W88534  13.177  18.705  14.852
16209W        W88535   6.405   2.391   3.807
16210W        W88536  31.002   7.689  14.016
16211W        W88537  17.237  13.331  11.572
16212W        W88538  23.684  10.748   2.894
16213W        W88539  14.806  13.117  11.540
16214W        W88540  39.883  18.658  13.419
16215W        W88541  33.592  26.034   1.309
16216W        W88542  38.377  14.601   4.330
16217W        W88543   4.242  44.874  12.095
16218W        W88544  19.768  34.541  11.912
16219W        W88545  20.126  35.930   2.259
16220W        W88546  37.836  30.084  13.869
16221W        W88547  30.150  35.910   0.355
16222W        W88548  44.948   0.857   0.414
16223W        W88549   3.815  35.015  12.577
16224W        W88550   1.832  19.609   4.655
16225W        W88551  14.689   4.347   2.387
16226W        W88552  41.468  15.212  14.327
16227W        W88553  12.338  10.723   2.775
16228W        W88554  21.082  20.716   2.818
16229W        W88555  44.790  36.417   1.842
16230W        W88556   8.659  38.499  13.500
16231W        W88557  15.183  24.156  13.475
16232W        W88558  24.512  36.087  10.497
16233W        W88559   7.685   4.939   1.262
16234W        W88560   8.687  30.014   4.237
16235W        W88561  19.708  31.519   0.732
16236W        W88562  19.660  32.563  10.598
16237W        W88563  36.892  33.113  11.979
16238W        W88564  43.318   7.397  14.395
16239W        W88565  17.665  35.928   2.802
16240W        W88566  42.947  38.829   2.805
16241W        W88567  29.063   1.746  11.090
16242W        W88568  16.281  28.166  13.431
16243W        W88569  33.071   3.821  12.425
16244W        W88570   5.723  28.129   4.265
16245W        W88571  42.987   5.365  14.888
16246W        W88572  27.086   3.329   3.270
16247W        W88573  17.288  10.359   2.217
16248W        W88574  28.963   9.262   3.852
16249W        W88575  13.600  28.450   3.341
16250W        W88576  41.338  20.093  14.839
16251W        W88577   3.242   7.900   0.332
16252W        W88578  33.547  41.011  11.032
16253W        W88579  37.034   7.842   4.352
16254W        W88580  23.631  29.601  14.483
16255W        W88581  35.531  34.960   0.753
16256W        W88582  11.339  24.199  13.468
16257W        W88583  11.865   6.367  10.439
16258W        W88584  18.549  42.811   0.863
16259W        W88585  12.117  43.988   1.425
16260W        W88586  25.193  15.653  14.513
16261W        W88587  37.044  20.541  11.856
16262W        W88588   0.938  42.522  10.450
16263W        W88589  31.544   2.859   2.380
16264W        W88590  37.371   5.426   2.662
16265W        W88591  14.295   2.756  11.942
16266W        W88592  33.517  32.136   5.263
16267W        W88593  24.973   2.893  11.404
16268W        W88594   6.321  20.595   4.806
16269W        W88595  21.745  27.077   1.259
16270W        W88596  37.869  21.207   3.345
16271W        W88597  34.441  21.058  14.887
16272W        W88598  44.291  22.681  12.023
16273W        W88599  10.202  40.935   1.752
16274W        W88600  21.511  42.956   1.774
16275W        W88601  39.966  10.747   3.690
16276W        W88602  28.469   8.343  12.988
16277W        W88603  35.450   4.731   4.745
16278W        W88604  13.757   8.234   3.273
16279W        W88605   9.809   3.945  11.998
16280W        W88606  25.700  20.036   2.248
16281W        W88607  18.173  25.600  13.829
16282W        W88608  22.570  30.633  14.496
16283W        W88609  27.976  33.475   5.136
16284W        W88610  12.278  44.917   4.797
16285W        W88611  21.615  28.447  10.458
16286W        W88612  14.762  21.260  13.432
16287W        W88613   3.215  24.000   2.258
16288W        W88614  30.516  41.811  12.088
16289W        W88615  15.723  40.905   4.757
16290W        W88616   5.824  22.232  13.450
16291W        W88617  11.664  40.407   0.422
16292W        W88618  16.785  22.695   2.822
16293W        W88619  31.113  22.688   4.339
16294W        W88620  29.951  38.925  14.442
16295W        W88621  37.851   2.725  14.452
16296W        W88622   7.836  27.970   4.127
16297W        W88623  42.433  34.452  12.502
16298W        W88624  26.177  31.585  12.018
16299W        W88625  13.179  19.697  14.876
16300W        W88626  31.151  16.279  12.370
16301W        W88627  27.677  41.940   2.687
16302W        W88628  40.802  25.693  13.327
16303W        W88629  28.009   9.371  14.879
16304W        W88630  32.951  23.696  10.574
16305W        W88631  37.926  41.468   1.786
16306W        W88632   7.398  23.130   1.422
16307W        W88633  27.133  12.772   2.304
16308W        W88634  18.592  41.811   0.821
16309W        W88635  42.407   2.794  14.971
16310W        W88636   8.368  15.303  12.982
16311W        W88637  16.687  40.374  13.453
16312W        W88638  44.398  30.627  13.032
16313W        W88639   4.719  32.932   0.406
16314W        W88640  29.109  22.619  11.960
16315W        W88641  32.548   9.776  13.517
16316W        W88642  39.522   1.908   1.787
16317W        W88643   9.685  41.824   1.242
16318W        W88644   6.736  44.344  14.015
16319W        W88645   7.710   4.800   3.171
16320W        W88646   1.741  15.093   2.776
16321W        W88647  15.694   9.283   3.778
16322W        W88648   9.346  19.694   5.279
16323W        W88649   4.319  31.913  10.471
16324W        W88650  30.532  36.883   3.157
16325W        W88651  23.596  14.273   0.753
16326W        W88652   6.277   3.909   1.212
16327W        W88653  23.599  19.739   1.371
16328W        W88654  32.016   0.369  11.979
16329W        W88655  15.278   4.253   0.842
16330W        W88656  19.057  34.911  11.548
16331W        W88657  38.400  12.272   0.371
16332W        W88658  25.019  23.237   2.223
16333W        W88659   9.389  43.900  10.502
16334W        W88660  16.648   2.460  10.551
16335W        W88661  36.864  14.135  12.011
16336W        W88662  42.339  10.704  14.422
16337W        W88663  39.415  14.237  10.410
16338W        W88664  37.947  15.578  11.435
16339W        W88665  15.185  26.080  13.444
16340W        W88666  10.813  42.911  13.522
16341W        W88667  36.041  40.862   2.667
16342W        W88668  42.415  18.649  12.827
16343W        W88669  15.717  34.483  11.439
16344W        W88670  19.677  36.562  14.998
16345W        W88671  31.069  16.716  13.977
16346W        W88672  10.322  16.686   1.354
16347W        W88673  20.637  15.755   3.376
16348W        W88674   9.385  11.652  13.391
16349W        W88675  43.932  23.235   1.892
16350W        W88676  19.269   9.730   4.152
16351W        W88677  36.085   9.277   1.329
16352W        W88678  40.868  19.536  14.892
16353W        W88679  28.070   9.315  13.999
16354W        W88680  35.485  25.008  12.343
16355W        W88681  16.282   6.405   1.906
16356W        W88682  24.528  34.018   4.604
16357W        W88683  30.104  25.026   4.674
16358W        W88684  38.958  17.636  11.079
16359W        W88685  23.564  43.817   3.267
16360W        W88686  31.995   3.353   1.415
16361W        W88687  29.142   7.850  12.453
16362W        W88688  17.691  17.254   1.327
16363W        W88689   0.394  33.546   4.338
16364W        W88690   2.329  38.931   4.207
16365W        W88691  19.132  39.327   2.767
16366W        W88692  42.912  16.182   3.652
16367W        W88693  13.133  23.659   4.773
16368W        W88694   9.286  32.940  14.848
16369W        W88695  43.440  25.156  12.087
16370W        W88696  39.945   8.777  13.433
16371W        W88697  29.467  38.939   5.097
16372W        W88698  41.312   4.262  11.126
16373W        W88699  15.172  22.509   0.750
16374W        W88700  11.853  13.634  12.846
16375W        W88701  12.281   2.956   3.153
16376W        W88702   9.298  14.597  13.465
16377W        W88703  38.901  42.841   1.850
16378W        W88704  14.730  32.983  11.559
16379W        W88705  15.132  18.215  11.947
16380W        W88706  44.379   3.952  12.570
16381W        W88707  15.761  22.153  11.875
16382W        W88708   9.171   7.202  11.556
16383W        W88709  37.355  25.511   0.331
16384W        W88710  41.842  27.124   3.831
16385W        W88711  44.845  14.690   4.606
16386W        W88712  17.638  12.841   4.755
16387W        W88713  39.358  22.116  13.868
16388W        W88714  11.630   5.356  11.866
16389W        W88715  12.708  15.691   4.129
16390W        W88716  39.408  21.123   3.146
16391W        W88717  13.169  26.579   2.777
16392W        W88718  29.937  13.823  12.013
16393W        W88719  26.173  26.626   0.375
16394W        W88720  16.209  27.663  11.079
16395W        W88721  37.066  28.605  11.009
16396W        W88722  37.871  14.202   4.324
16397W        W88723   1.406  41.319   2.898
16398W        W88724  41.878  22.738  12.551
16399W        W88725  13.345   6.356   5.150
16400W        W88726  18.176  22.143  13.822
16401W        W88727  43.437   4.366   2.813
16402W        W88728   2.434  20.047   2.898
16403W        W88729   0.481  33.444   0.884
16404W        W88730   6.335  20.231   0.259
16405W        W88731  30.087  14.819   2.251
16406W        W88732  11.809  32.959   4.676
16407W        W88733  35.521  12.161  13.385
16408W        W88734  39.351   4.281   0.900
16409W        W88735   7.811  10.229   2.784
16410W        W88736  32.527  29.990   2.890
16411W        W88737   5.219  34.508  11.931
16412W        W88738   6.358  20.746  13.354
16413W        W88739  26.015  43.330  10.552
16414W        W88740  28.565  41.891   3.161
16415W        W88741  41.956  26.601  11.482
16416W        W88742   6.809  22.021   1.860
16417W        W88743  33.037  31.648  10.922
16418W        W88744  39.401  21.056  12.046
16419W        W88745  10.645  40.432   1.307
16420W        W88746  41.017  13.798   2.255
16421W        W88747  16.086   9.240  11.565
16422W        W88748   7.884  39.319   3.870
16423W        W88749  37.410  16.171   1.755
16424W        W88750  32.042  22.090   4.805
16425W        W88751  26.694   0.934   2.701
16426W        W88752  35.952  20.209   3.769
16427W        W88753  31.051  34.569  10.458
16428W        W88754  35.968  12.199   0.322
16429W        W88755  20.724  29.483  13.020
16430W        W88756  30.947  10.846   0.800
16431W        W88757  29.496  35.602  14.970
16432W        W88758   5.204   6.320   4.671
16433W        W88759   7.204  14.598   3.345
16434W        W88760  31.547  41.997  10.605
16435W        W88761   1.262  11.634  11.893
16436W        W88762  41.896   8.397  14.507
16437W        W88763   2.441  25.519   4.334
16438W        W88764  10.646   3.321  10.424
16439W        W88765  13.158  27.995   2.672
16440W        W88766  28.957  42.863   3.678
16441W        W88767  28.068  21.157  12.543
16442W        W88768  28.145  19.137   4.645
16443W        W88769  11.754  13.823  10.460
16444W        W88770  33.120  35.428   0.327
16445W        W88771  21.243  11.292   0.876
16446W        W88772  19.679  34.459  10.428
16447W        W88773   0.423  41.808  11.020
16448W        W88774  16.632  26.670  14.899
16449W        W88775  15.653  22.547   2.863
16450W        W88776  41.000  15.235   4.142
16451W        W88777  43.781  36.384  10.908
16452W        W88778  24.663  38.551   0.317
16453W        W88779   7.236  24.074   0.787
16454W        W88780  38.349  39.418   4.271
16455W        W88781  20.765  11.748  13.315
16456W        W88782  28.051  14.211  10.918
16457W        W88783  31.120   7.196   0.795
16458W        W88784  19.219  43.451   3.765
16459W        W88785  35.087  33.941  12.361
16460W        W88786  35.453   4.929   3.326
16461W        W88787   5.323  34.517   4.787
16462W        W88788  24.612  21.654   1.880
16463W        W88789  32.622  29.981  14.008
16464W        W88790  24.065  28.127   2.223
16465W        W88791  17.698   3.353  12.480
16466W        W88792  27.691  30.603   2.289
16467W        W88793  21.168  23.621   3.863
16468W        W88794  39.964  31.504   3.798
16469W        W88795   4.861  44.266  12.574
16470W        W88796  26.584  34.401  13.325
16471W        W88797  26.512  14.789   3.235
16472W        W88798  35.438  38.991   3.845
16473W        W88799  11.272  10.665  14.003
16474W        W88800  37.552  22.726   3.756
16475W        W88801   9.193  11.722   3.793
16476W        W88802  13.281  20.703  14.890
16477W        W88803   5.343  26.483  13.444
16478W        W88804  10.666  18.709  11.901
16479W        W88805  33.974   4.309   3.787
16480W        W88806  13.165  22.673   0.272
16481W        W88807  11.711  31.635  11.593
16482W        W88808   1.766  41.974  10.625
16483W        W88809  35.955  37.519  14.888
16484W        W88810  18.638  40.437   1.244
16485W        W88811  41.352  31.054   0.873
16486W        W88812  10.790  42.307   3.336
16487W        W88813  37.339  36.505   2.199
16488W        W88814  15.761   3.431   2.372
16489W        W88815  36.974  33.087   2.849
16490W        W88816  44.879   3.326  13.898
16491W        W88817  23.670   4.886  11.899
16492W        W88818  19.244   3.351   0.751
16493W        W88819  41.915  28.626   0.809
16494W        W88820  36.489   0.471   4.611
16495W        W88821   7.172  31.544   1.720
16496W        W88822   8.895  26.625   0.851
16497W        W88823  34.985  16.143   1.757
16498W        W88824  41.836   4.313  13.430
16499W        W88825  21.556  23.632  12.380
16500W        W88826  12.159   2.739  14.511
16501W        W88827  21.019  15.639  11.594
16502W        W88828  20.242  18.261  13.368
16503W        W88829  36.401  17.672  13.403
16504W        W88830  35.060   7.173  10.547
16505W        W88831  41.457  24.082   0.482
16506W        W88832  22.723   4.378  10.519
16507W        W88833  35.077  43.413  14.333
16508W        W88834   4.842  10.714   0.414
16509W        W88835  24.708  40.880  12.854
16510W        W88836  32.440   2.816  12.968
16511W        W88837   3.923  31.441   2.716
16512W        W88838  29.642   4.220   3.302
16513W        W88839  38.387  17.558   2.198
16514W        W88840  22.612  12.748  13.432
16515W        W88841  35.551  44.890   4.199
16516W        W88842  17.274  11.297  10.536
16517W        W88843  39.478  36.528   0.909
16518W        W88844  41.972  36.946   0.378
16519W        W88845  24.126   6.427  13.422
16520W        W88846  41.432   0.929   0.250
16521W        W88847  16.681  29.644  12.824
16522W        W88848  10.727  32.918   2.871
16523W        W88849  21.238  25.561   1.766
16524W        W88850  39.451  19.152  11.034
16525W        W88851  15.718  34.598   4.114
16526W        W88852  29.158  25.108   0.324
16527W        W88853  21.091   3.451  13.853
16528W        W88854   6.360  34.949   4.255
16529W        W88855  21.541  41.481   0.802
16530W        W88856  11.330  30.970   3.640
16531W        W88857  41.816   1.306  10.444
16532W        W88858  11.725  37.366   3.362
16533W        W88859  30.918  31.434   3.631
16534W        W88860  12.801  27.973   4.280
16535W        W88861   4.301  28.103   4.787
16536W        W88862  30.557  28.583   1.251
16537W        W88863  32.512   1.861   2.208
16538W        W88864  18.217  21.537  10.443
16539W        W88865  36.506  43.817  12.507
16540W        W88866  44.361  28.597  13.856
16541W        W88867   0.312  12.640   3.725
16542W        W88868   5.813  33.963   0.772
16543W        W88869  42.842   6.196  14.976
16544W        W88870  17.737  25.201   0.372
16545W        W88871  39.897  26.540   1.217
16546W        W88872  39.549  44.816  13.807
16547W        W88873  22.744   5.926   4.274
16548W        W88874  31.064  28.938  12.393
16549W        W88875  11.840   8.364  13.896
16550W        W88876  28.643   9.358  12.422
16551W        W88877   6.278  13.188  12.063
16552W        W88878  12.267  36.028  14.786
16553W        W88879  42.932  28.489   1.694
16554W        W88880  19.594   1.969  12.033
16555W        W88881  43.839  17.594   3.681
16556W        W88882  38.900  23.013  14.018
16557W        W88883  34.012  17.234  11.415
16558W        W88884  21.215  39.019  10.566
16559W        W88885   7.727  44.437  13.830
16560W        W88886  42.965  33.029  14.467
16561W        W88887  14.645  19.216   3.264
16562W        W88888   6.420   9.683   3.862
16563W        W88889   2.863  23.612  14.800
16564W        W88890  14.592  21.740  10.550
16565W        W88891   5.390  42.285  12.406
16566W        W88892  12.773  30.979  14.418
16567W        W88893  19.176  23.000   2.900
16568W        W88894   0.801  20.673   1.738
16569W        W88895  29.604  11.282  10.596
16570W        W88896  27.553  42.437  14.343
16571W        W88897  43.927   1.864   4.303
16572W        W88898  16.783  27.014   1.296
16573W        W88899  30.529  23.666  12.046
16574W        W88900   5.337  19.704   0.908
16575W        W88901  22.196  35.105   0.471
16576W        W88902  33.067   6.337   0.435
16577W        W88903  23.083  42.503   0.929
16578W        W88904  38.850  34.558   4.667
16579W        W88905  25.541  28.645  14.384
16580W        W88906  21.560   3.255   3.812
16581W        W88907  25.093  31.937  13.462
16582W        W88908  10.261  36.974  14.011
16583W        W88909  37.992  37.020  14.819
16584W        W88910   0.845  13.846  10.901
16585W        W88911  10.235  23.706   2.272
16586W        W88912  26.204  16.270   0.762
16587W        W88913   4.760  29.931   1.837
16588W        W88914  42.860  16.765   4.603
16589W        W88915  21.045  20.248   2.843
16590W        W88916  23.612  15.756  10.040
16591W        W88917  41.897  35.994  11.604
16592W        W88918  41.341   3.925   4.116
16593W        W88919  28.099  36.489  11.908
16594W        W88920  15.326  26.533  14.795
16595W        W88921  33.059   1.396   0.378
16596W        W88922  43.903  38.861   1.809
16597W        W88923  40.320  32.542  10.920
16598W        W88924  15.592  27.147  12.423
16599W        W88925   2.432   5.786  13.354
16600W        W88926  27.101  16.147  12.006
16601W        W88927  26.038  18.601  12.572
16602W        W88928   7.345  22.618   3.637
16603W        W88929  43.829  23.596   4.115
16604W        W88930  27.605  38.915  13.497
16605W        W88931  40.828  26.615   0.273
16606W        W88932  28.057  26.048  13.856
16607W        W88933  27.089  13.808  12.575
16608W        W88934   2.392  30.052   3.355
16609W        W88935   6.825   0.953   4.752
16610W        W88936  27.057  44.769  13.061
16611W        W88937  31.444   5.404   2.760
16612W        W88938  14.688  19.713   4.715
16613W        W88939  36.057  21.733   4.719
16614W        W88940  27.642   9.796  13.818
16615W        W88941  16.186  15.264   1.898
16616W        W88942   7.317  26.672  11.910
16617W        W88943  23.684  23.561   3.781
16618W        W88944  15.809  28.471   1.748
16619W        W88945  17.126   4.248   3.820
16620W        W88946  39.987  43.830   2.813
16621W        W88947   9.299   3.840  10.922
16622W        W88948  33.424   2.944   0.808
16623W        W88949  13.242   4.790  13.867
16624W        W88950  17.066  14.817   3.337
16625W        W88951   2.822  13.632   4.668
16626W        W88952  42.937   0.405  10.940
16627W        W88953   9.315   8.254  12.526
16628W        W88954  26.703  18.228   4.258
16629W        W88955  10.873  34.092   2.765
16630W        W88956  17.111  22.239   4.243
16631W        W88957  29.012  10.244  11.053
16632W        W88958  19.558  32.909  13.473
16633W        W88959  23.663  43.010   2.775
16634W        W88960  16.237  39.440  12.494
16635W        W88961  39.061   6.766   3.658
16636W        W88962  35.067  31.549  11.934
16637W        W88963  15.636  10.803  11.964
16638W        W88964   5.210  43.331   3.698
16639W        W88965  20.152  22.234  11.913
16640W        W88966  27.132  32.003  12.558
16641W        W88967  43.414  38.904  12.011
16642W        W88968   0.860  40.537   5.279
16643W        W88969   8.684  17.233  11.593
16644W        W88970   5.227  15.254  11.856
16645W        W88971   0.366  28.967  11.378
16646W        W88972  41.339  28.998   0.332
16647W        W88973   3.363  40.949  12.467
16648W        W88974   4.836  20.702  13.483
16649W        W88975  44.968  33.891   3.805
16650W        W88976  32.618  17.273   2.900
16651W        W88977  10.200  26.135   1.729
16652W        W88978   9.743   9.701   1.285
16653W        W88979  37.073  19.042  11.460
16654W        W88980  44.275  29.037  13.867
16655W        W88981  24.716  21.046  10.436
16656W        W88982   6.858  31.446   4.763
16657W        W88983  20.060  26.645  11.047
16658W        W88984  35.483   3.283   3.715
16659W        W88985  15.773  22.525  10.498
16660W        W88986  17.299   8.204   2.732
16661W        W88987  25.634  30.650   2.311
16662W        W88988   8.316   9.800  14.312
16663W        W88989  11.630  12.652   0.404
16664W        W88990   2.802  19.107   4.620
16665W        W88991  13.828  44.945  11.569
16666W        W88992  44.432  23.079  13.041
16667W        W88993  12.319  15.685  12.000
16668W        W88994  11.686  33.580  10.937
16669W        W88995  31.548  13.184  13.530
16670W        W88996  33.494  43.301   1.384
16671W        W88997  11.159  35.907  14.508
16672W        W88998   2.270   9.325   0.945
16673W        W88999  38.848  36.483   4.688
16674W        W89000  30.576  10.681  14.813
16675W        W89001  17.576  27.109   0.954
16676W        W89002  29.933   8.349  12.031
16677W        W89003  29.510   5.695   4.794
16678W        W89004  14.631  18.054   3.184
16679W        W89005   1.916  42.776   3.658
16680W        W89006  43.770  28.027   3.224
16681W        W89007  36.858  30.141  10.601
16682W        W89008  19.048   2.464   1.440
16683W        W89009   9.367  16.753  12.960
16684W        W89010  35.860  37.955   3.828
16685W        W89011  39.457  38.075  11.465
16686W        W89012  33.983   0.868  10.927
16687W        W89013  39.979  25.570   0.410
16688W        W89014  15.291   5.225  12.860
16689W        W89015  32.972  13.322   4.310
16690W        W89016  19.622  40.975  10.503
16691W        W89017  14.590  12.677   3.631
16692W        W89018  11.748  44.444  11.580
16693W        W89019   8.839  20.073   0.865
16694W        W89020  25.170   9.293  10.418
16695W        W89021  26.674   1.839   4.265
16696W        W89022  25.031  38.440  10.636
16697W        W89023  29.082  14.789  14.956
16698W        W89024  38.036  13.810  14.832
16699W        W89025  29.663  35.867   3.298
16700W        W89026  24.556  17.073  10.443
16701W        W89027  12.818  33.513  11.897
16702W        W89028   9.204   8.252  11.973
16703W        W89029   5.254  27.611  14.304
16704W        W89030  36.037  10.160  13.479
16705W        W89031   4.364  20.171   2.343
16706W        W89032  17.670  27.059   2.242
16707W        W89033  37.864  24.479  14.507
16708W        W89034  43.013  22.088  10.460
16709W        W89035  34.589   8.836   4.254
16710W        W89036  13.681  36.851   3.670
16711W        W89037  25.698  15.585  14.006
16712W        W89038  31.441   8.672   1.732
16713W        W89039  23.119  11.827   4.685
16714W        W89040  37.499  37.882   3.861
16715W        W89041  14.301  43.809  11.869
16716W        W89042  39.364  27.488  11.949
16717W        W89043  27.016  35.378   2.827
16718W        W89044  25.497   3.311   3.292
16719W        W89045  38.019   2.464  11.861
16720W        W89046  17.176  40.499  12.502
16721W        W89047  15.186  34.614   5.207
16722W        W89048  16.159   1.380  12.049
16723W        W89049  11.718  34.020  11.433
16724W        W89050   5.222  14.226   3.846
16725W        W89051  41.466  26.094  11.484
16726W        W89052  14.221   3.925   0.260
16727W        W89053  11.726   8.802   4.785
16728W        W89054  35.968  23.184   2.353
16729W        W89055  13.316  19.040   1.311
16730W        W89056  18.068   9.876   0.866
16731W        W89057   4.923  27.651   3.381
16732W        W89058  30.565   6.229  14.298
16733W        W89059  28.674  34.536   2.357
16734W        W89060  27.048   3.220   0.837
16735W        W89061  24.102   7.268  14.980
16736W        W89062   0.427  18.129  14.953
16737W        W89063  19.599  34.073  10.597
16738W        W89064   4.312   6.250   3.370
16739W        W89065  28.645  31.926  12.382
16740W        W89066  14.766  20.130  11.049
16741W        W89067   7.391  11.746  13.464
16742W        W89068   8.254   7.710   0.824
16743W        W89069   3.927   3.451   1.427
16744W        W89070   4.407  36.592   0.293
16745W        W89071   9.778  12.712   1.346
16746W        W89072  37.400  39.833   2.246
16747W        W89073  31.904  24.200   0.836
16748W        W89074  32.038  17.598  11.464
16749W        W89075  15.620  34.908   5.273
16750W        W89076  13.737  19.663  13.370
16751W        W89077  24.488  42.297  13.907
16752W        W89078  12.132  29.005   2.358
16753W        W89079  19.688  26.589   4.138
16754W        W89080  19.707  31.132   0.244
16755W        W89081  44.982   3.260  11.552
16756W        W89082  12.804   0.800   1.219
16757W        W89083   1.777  35.071  11.927
16758W        W89084   4.833  38.565   2.184
16759W        W89085  44.372  41.989   2.873
16760W        W89086  23.599   6.293   4.710
16761W        W89087  29.146  16.285  14.278
16762W        W89088  41.872  18.065  14.412
16763W        W89089  42.855  35.600  12.567
16764W        W89090   9.178  40.406  10.892
16765W        W89091  42.889  40.896  12.087
16766W        W89092   5.696  38.054   0.853
16767W        W89093  36.416   7.302  11.986
16768W        W89094  20.101  32.486  13.040
16769W        W89095  22.557  28.110  11.046
16770W        W89096  35.109  40.361   3.179
16771W        W89097  11.814  26.518   2.775
16772W        W89098  35.459  26.476  14.332
16773W        W89099  21.629  39.511   0.307
16774W        W89100  37.574   8.207   0.746
16775W        W89101  27.126  28.633  13.976
16776W        W89102  20.605   2.337  12.355
16777W        W89103   8.847  40.948  10.627
16778W        W89104   1.756  43.951   2.735
16779W        W89105  44.477  23.560   2.304
16780W        W89106  39.916  33.017  10.449
16781W        W89107  24.592   7.676   0.751
16782W        W89108  38.527  35.555   0.410
16783W        W89109  42.819   0.988   5.259
16784W        W89110  11.187  42.427  12.388
16785W        W89111  22.040   2.765   2.218
16786W        W89112   1.386  21.686   4.284
16787W        W89113  40.324  14.258   0.774
16788W        W89114  44.884  10.336   2.417
16789W        W89115  41.483   5.690   4.628
16790W        W89116  17.151  42.991  10.960
16791W        W89117  44.867  14.604  14.513
16792W        W89118  23.027  43.390  14.277
16793W        W89119  25.078  26.109   4.194
16794W        W89120  43.283  32.473   0.467
16795W        W89121  14.105   8.900   3.296
16796W        W89122  16.792   9.648  13.912
16797W        W89123  28.109  38.426   4.179
16798W        W89124   6.882   9.172   0.932
16799W        W89125  20.557  17.253   2.875
16800W        W89126   0.352  26.695   4.698
16801W        W89127  43.444  15.168  13.826
16802W        W89128  32.426  40.979  12.398
16803W        W89129  33.973  23.533  12.342
16804W        W89130  19.160  42.308   3.672
16805W        W89131  22.741  14.154   0.359
16806W        W89132   3.821  35.580   4.254
16807W        W89133  38.013   7.782   3.850
16808W        W89134  15.273  21.017   0.795
16809W        W89135  37.915  27.456   4.263
16810W        W89136  11.335   8.283  10.430
16811W        W89137  20.606  30.093   0.416
16812W        W89138   2.839  11.630  13.807
16813W        W89139   6.317   5.246   1.767
16814W        W89140  10.344  33.110  10.138
16815W        W89141  27.094  35.552  14.946
16816W        W89142  10.360  23.602   4.277
16817W        W89143   7.343  20.581  14.024
16818W        W89144  40.974  30.638  13.808
16819W        W89145  19.091  14.622   2.822
16820W        W89146  30.455  44.447  14.963
16821W        W89147  23.083   7.689  14.308
16822W        W89148  16.768  16.689  11.931
16823W        W89149   8.287  42.899   4.266
16824W        W89150   7.815  43.891   2.320
16825W        W89151  29.567   2.733   2.239
16826W        W89152  39.976  32.016  12.417
16827W        W89153  30.535  35.599  13.810
16828W        W89154  21.215  26.062  13.806
16829W        W89155  44.362  22.524   0.808
16830W        W89156  11.334  20.206   2.290
16831W        W89157  18.552  22.735  10.512
16832W        W89158  28.515   2.372   3.790
16833W        W89159  37.003  21.125  12.371
16834W        W89160   0.884  29.973  12.048
16835W        W89161   0.452   5.311   4.333
16836W        W89162  36.540   7.213  13.347
16837W        W89163   8.324  29.991  10.924
16838W        W89164  20.065  24.988  11.113
16839W        W89165  21.228  36.495   1.790
16840W        W89166   7.402   3.352  12.545
16841W        W89167   8.813  15.253  12.061
16842W        W89168  23.989  22.129   0.346
16843W        W89169  27.638  39.852  13.491
16844W        W89170   1.755  20.115   1.862
16845W        W89171  15.189  19.150   0.782
16846W        W89172  37.083   8.188  12.032
16847W        W89173  20.553   1.358  10.486
16848W        W89174  29.957  36.571  13.455
16849W        W89175  33.909  16.158  14.465
16850W        W89176   9.685  10.825   3.680
16851W        W89177  15.580  15.634  10.929
16852W        W89178  44.362  29.612   1.337
16853W        W89179  14.614   5.244  12.017
16854W        W89180  23.530   6.686   1.283
16855W        W89181  14.185   2.299   4.787
16856W        W89182  13.826  35.941  11.388
16857W        W89183   9.274  18.288  14.861
16858W        W89184  36.019   7.761   0.890
16859W        W89185  40.502  31.047  11.095
16860W        W89186  11.326  30.940   0.900
16861W        W89187  38.822  39.455  13.951
16862W        W89188  36.952  38.945   4.241
16863W        W89189  22.087   0.837   2.243
16864W        W89190  44.010  33.064   3.192
16865W        W89191   3.274  27.500  14.965
16866W        W89192  10.668  28.963  12.471
16867W        W89193   9.658  14.334   3.629
16868W        W89194   2.353   4.354   4.740
16869W        W89195  23.126  15.699  10.528
16870W        W89196   1.939  11.299   2.841
16871W        W89197  23.583  21.168   2.861
16872W        W89198   8.321   4.927   2.384
16873W        W89199  37.075  44.440  11.856
16874W        W89200  12.795  35.376   3.308
16875W        W89201   9.310  24.105   4.247
16876W        W89202   4.819  39.419   3.852
16877W        W89203   8.374  35.536   2.394
16878W        W89204  20.102  41.534   5.145
16879W        W89205  39.928  39.461  14.346
16880W        W89206  22.240  23.072  12.528
16881W        W89207  34.111  20.203   0.457
16882W        W89208   7.310  10.633  11.592
16883W        W89209   1.408   7.781   1.765
16884W        W89210  33.878  10.200   2.255
16885W        W89211   9.226   3.869  11.586
16886W        W89212   4.870   9.788  14.366
16887W        W89213   9.163  30.613   1.303
16888W        W89214  24.591   2.256   0.478
16889W        W89215  23.135  30.479  10.621
16890W        W89216  40.327  33.491  14.947
16891W        W89217  13.146  40.897  14.838
16892W        W89218   7.403  12.134  14.311
16893W        W89219  25.192  38.856  13.452
16894W        W89220  29.458  25.482  13.807
16895W        W89221  26.569  23.015   1.715
16896W        W89222   1.374  12.799  12.969
16897W        W89223  21.155  12.633  13.876
16898W        W89224  30.091  34.560   1.903
16899W        W89225  22.533  31.066  11.013
16900W        W89226  27.194   3.388   1.294
16901W        W89227   2.415   7.225   1.238
16902W        W89228   4.779  26.470  11.968
16903W        W89229  35.917  17.597  10.623
16904W        W89230   2.748  11.249  10.466
16905W        W89231  21.749  38.561  14.877
16906W        W89232  36.053  29.084   4.337
16907W        W89233  33.408  41.526  14.333
16908W        W89234  28.668  43.957  12.989
16909W        W89235  37.846   1.358   0.771
16910W        W89236  12.767  40.998  10.490
16911W        W89237  11.129  16.245  11.386
16912W        W89238  22.720   3.314   3.235
16913W        W89239  31.008  21.641  14.398
16914W        W89240  13.210  25.560   3.151
16915W        W89241  32.034  30.975  13.318
16916W        W89242  39.490  39.430  14.824
16917W        W89243   9.234  37.375  12.940
16918W        W89244  43.491  15.194   1.694
16919W        W89245  18.248  33.402  13.337
16920W        W89246  20.250  11.165  11.020
16921W        W89247  15.738  42.287  12.447
16922W        W89248  36.000  27.173  14.863
16923W        W89249  42.479  33.532  12.824
16924W        W89250  12.845  29.628   4.710
16925W        W89251   2.736   0.864   1.932
16926W        W89252  21.261  15.261   3.272
16927W        W89253  32.462  28.084  14.760
16928W        W89254   3.768  21.166   2.223
16929W        W89255  44.499  29.512   4.120
16930W        W89256  35.052  24.636  11.960
16931W        W89257   6.712  19.738   3.698
16932W        W89258  26.051  44.935   4.634
16933W        W89259  34.065   9.794  14.276
16934W        W89260   8.393  33.448  10.893
16935W        W89261  38.504  20.622  11.054
16936W        W89262   4.802  22.179   2.412
16937W        W89263   1.804  43.516  14.021
16938W        W89264  36.439  26.585   2.381
16939W        W89265   2.824  19.766   2.737
16940W        W89266  26.674   2.332  12.866
16941W        W89267  22.141  44.809   3.385
16942W        W89268   1.956  36.502   4.246
16943W        W89269  34.546  38.462   0.296
16944W        W89270   1.307  11.710  11.569
16945W        W89271  30.074  31.621  14.829
16946W        W89272  26.534  15.208  10.145
16947W        W89273  15.704  15.114  11.081
16948W        W89274  10.283   6.303   3.781
16949W        W89275  13.185  18.646  14.417
16950W        W89276  27.110  17.214   1.787
16951W        W89277   2.282  29.613   1.813
16952W        W89278  29.508  42.804  11.392
16953W        W89279  18.721  41.993  14.983
16954W        W89280  19.094  19.119   1.376
16955W        W89281  29.093  29.046   4.811
16956W        W89282  20.563   5.314  12.010
16957W        W89283   0.378   9.738   2.751
16958W        W89284  17.683  10.868  12.429
16959W        W89285  42.979  40.347   5.143
16960W        W89286  36.516  18.674   2.211
16961W        W89287  27.987  18.205  11.100
16962W        W89288  14.336   2.422  12.400
16963W        W89289   9.328   4.702  12.486
16964W        W89290   6.300  23.092  12.025
16965W        W89291  29.496  33.016   2.681
16966W        W89292  30.931  29.603   2.281
16967W        W89293  16.802  44.409   0.477
16968W        W89294  26.526  11.167   4.656
16969W        W89295  13.282  36.439   9.583
16970W        W89296  35.099  28.183  12.856
16971W        W89297  18.280  39.538  10.505
16972W        W89298  29.142   3.725  14.475
16973W        W89299  39.810   8.260   1.781
16974W        W89300  21.597   0.800   0.917
16975W        W89301   5.805  12.842  12.857
16976W        W89302  10.830  22.199   3.275
16977W        W89303  29.487  39.869  11.454
16978W        W89304   7.304  10.313   2.887
16979W        W89305  33.980   6.269  10.160
16980W        W89306  22.552  41.016   3.799
16981W        W89307  13.843   0.480   2.275
16982W        W89308  15.707  38.409  13.978
16983W        W89309  36.899  20.720   1.330
16984W        W89310  28.026   0.791  11.948
16985W        W89311  39.009  37.485  10.033
16986W        W89312  41.884  16.160   3.700
16987W        W89313  38.513  25.016   3.767
16988W        W89314   3.436  38.333  11.909
16989W        W89315  36.086   3.261  12.525
16990W        W89316   4.228  33.610   4.135
16991W        W89317  16.254  39.360  13.500
16992W        W89318  12.199  21.204  10.510
16993W        W89319   7.909  38.031   0.871
16994W        W89320  15.149  26.046   3.761
16995W        W89321  20.153   8.771  12.380
16996W        W89322  11.216  32.621  10.640
16997W        W89323  34.059  37.520   3.271
16998W        W89324  39.321  34.026   2.310
16999W        W89325  35.454  19.237  14.440
17000W        W89326  36.934  38.534   2.707
17001W        W89327  24.148   7.248  13.964
17002W        W89328   5.256  43.349  13.426
17003W        W89329  27.106  39.350   3.312
17004W        W89330  30.096   0.253  12.979
17005W        W89331  32.010  35.444  11.053
17006W        W89332   3.261   9.233  10.094
17007W        W89333   0.758  24.074   1.902
17008W        W89334   1.402  40.386  13.825
17009W        W89335  29.128   3.934  11.946
17010W        W89336  36.429  27.950   2.813
17011W        W89337  14.597  13.197   3.633
17012W        W89338  20.245  11.149   3.652
17013W        W89339   5.784   8.376  13.432
17014W        W89340  10.222  36.404   4.211
17015W        W89341  22.744  10.310   1.422
17016W        W89342  29.455  24.529   1.804
17017W        W89343  24.638  12.331  10.502
17018W        W89344  41.026  42.427  14.324
17019W        W89345  16.299  14.300  13.393
17020W        W89346   0.406  26.528  11.406
17021W        W89347  35.879  36.922  14.505
17022W        W89348  10.801   5.801   2.805
17023W        W89349  29.120  23.496   4.627
17024W        W89350  11.676  25.569   1.734
17025W        W89351   3.301  15.699  10.083
17026W        W89352   2.914  19.589  12.926
17027W        W89353  17.134   3.417  12.951
17028W        W89354  17.122  15.719   0.376
17029W        W89355  12.175  13.302   0.447
17030W        W89356   7.361  24.973  11.100
17031W        W89357   5.303  38.940  11.126
17032W        W89358  41.800  20.179   2.246
17033W        W89359  28.078  34.088   1.212
17034W        W89360   6.799  24.072   0.430
17035W        W89361  36.556  18.556   3.777
17036W        W89362  38.949  33.997   3.681
17037W        W89363  23.552  11.697  11.499
17038W        W89364   1.862  40.439  10.958
17039W        W89365  31.623  24.035   0.363
17040W        W89366  39.924  18.207  11.438
17041W        W89367  42.800  15.203  10.888
17042W        W89368  37.854  42.290  13.317
17043W        W89369  41.992  31.560   2.746
17044W        W89370   4.206  21.205   1.799
17045W        W89371  37.469  28.153   4.136
17046W        W89372  33.890  38.993   1.241
17047W        W89373  40.491  18.731  14.417
17048W        W89374  19.690  26.587  10.447
17049W        W89375  16.775  30.007  14.408
17050W        W89376  30.418  32.402   2.342
17051W        W89377  29.598  16.224   0.756
17052W        W89378  39.322  33.621  14.009
17053W        W89379   9.744   5.839  13.502
17054W        W89380  23.589  12.219   4.687
17055W        W89381  40.908   6.354  11.118
17056W        W89382  20.694  43.972  10.533
17057W        W89383  41.419  31.926   4.822
17058W        W89384   4.816  14.119   9.929
17059W        W89385   6.206  41.872   0.746
17060W        W89386   0.884   7.781  12.024
17061W        W89387  42.893  27.504  14.880
17062W        W89388  44.302  33.510   1.348
17063W        W89389  20.032  29.588   4.121
17064W        W89390  36.443  39.426   2.179
17065W        W89391  21.666  35.563   1.750
17066W        W89392  39.516  44.881   0.967
17067W        W89393  14.113  28.462   1.724
17068W        W89394  14.210  14.320   2.857
17069W        W89395   0.925   9.871  13.341
17070W        W89396  37.539  25.694   5.152
17071W        W89397  29.161   6.750  11.043
17072W        W89398   1.796  10.363   3.191
17073W        W89399  12.842   3.812   3.772
17074W        W89400   1.920   4.827   5.179
17075W        W89401   7.861  11.344   1.707
17076W        W89402  18.611  26.590   0.734
17077W        W89403  36.955  11.666   3.645
17078W        W89404  26.152  15.091   5.610
17079W        W89405  11.761  24.206   4.617
17080W        W89406  15.164  37.476   3.786
17081W        W89407  35.384   4.297  11.092
17082W        W89408  16.709  18.647  10.959
17083W        W89409  12.740   6.333   4.354
17084W        W89410  13.196  34.069   1.374
17085W        W89411  32.534  43.899  14.834
17086W        W89412  16.762  21.685   1.727
17087W        W89413  19.109  40.867  12.855
17088W        W89414  13.619   4.408  12.018
17089W        W89415  38.863  25.182  14.893
17090W        W89416  29.067  37.384   2.895
17091W        W89417  26.624  21.701   4.794
17092W        W89418  28.092  35.077  12.892
17093W        W89419  37.420  30.451  12.058
17094W        W89420  21.582  38.348   5.621
17095W        W89421   2.340  43.470  11.476
17096W        W89422  44.297  32.094  11.566
17097W        W89423  15.299  37.544  11.527
17098W        W89424  36.971  13.213  12.546
17099W        W89425   5.206   1.803   3.225
17100W        W89426   3.843  36.489  11.531
17101W        W89427  36.921  34.895  12.460
17102W        W89428  19.203  11.737   2.739
17103W        W89429  11.762   2.760   3.696
17104W        W89430  17.307  26.537  13.462
17105W        W89431  38.993  36.530  10.474
17106W        W89432  11.819  34.582  12.391
17107W        W89433  41.350  34.966   4.835
17108W        W89434  43.477  25.511  10.984
17109W        W89435  28.482   8.181   2.721
17110W        W89436  27.996  12.845  12.488
17111W        W89437  38.456   4.207  13.820
17112W        W89438  30.955   8.768  10.115
17113W        W89439  21.045  21.027   3.234
17114W        W89440  36.478  37.058  13.501
17115W        W89441   6.849  25.564   1.703
17116W        W89442  38.852  21.723  14.024
17117W        W89443  37.412  24.194  14.815
17118W        W89444  25.147  31.584  14.289
17119W        W89445  14.815  13.215  11.889
17120W        W89446   8.406  12.729   4.264
17121W        W89447  26.665  14.623   3.808
17122W        W89448  22.629  34.040   1.888
17123W        W89449  26.472  10.214  12.441
17124W        W89450  21.170  25.487   3.244
17125W        W89451  17.742  10.375  11.023
17126W        W89452  15.215   8.872  12.381
17127W        W89453  15.625  27.534   0.242
17128W        W89454   8.849  34.986   3.671
17129W        W89455  30.076  29.164   3.177
17130W        W89456   3.740  35.502  12.881
17131W        W89457  12.804  34.012   2.200
17132W        W89458  41.487   1.967   4.328
17133W        W89459   8.361  10.871   4.831
17134W        W89460  20.158  27.153   4.286
17135W        W89461  38.507  27.552   2.375
17136W        W89462   8.207   9.315   2.836
17137W        W89463  17.247  24.633   1.437
17138W        W89464  32.631   6.238  13.401
17139W        W89465  42.504  12.804   3.790
17140W        W89466   3.229  36.012   3.164
17141W        W89467   3.815  26.685   4.353
17142W        W89468  41.489   9.307  12.092
17143W        W89469  29.545  28.508   1.796
17144W        W89470   8.296  17.088   3.785
17145W        W89471  17.648  26.014  11.045
17146W        W89472  14.168  27.638  10.987
17147W        W89473  22.120  23.065  12.951
17148W        W89474   1.272  16.573  13.435
17149W        W89475  27.653   2.227   4.194
17150W        W89476  30.458  41.318   0.760
17151W        W89477  19.721  38.346   1.763
17152W        W89478  38.557  26.695  11.109
17153W        W89479  32.072  44.772   1.706
17154W        W89480  18.174  29.573   4.141
17155W        W89481  11.747  44.911  13.338
17156W        W89482  18.159  28.451  12.963
17157W        W89483  17.117  27.455  11.118
17158W        W89484  43.336  40.806   1.212
17159W        W89485  13.215  32.976  12.366
17160W        W89486  11.158  27.605   0.352
17161W        W89487  37.974  22.592   0.812
17162W        W89488  29.052  10.707   0.929
17163W        W89489   2.267  26.636  13.823
17164W        W89490  40.376  36.965  11.520
17165W        W89491  17.255  37.021  11.416
17166W        W89492   4.884  33.041  14.322
17167W        W89493  22.166  29.987  11.972
17168W        W89494   1.433  38.069   2.754
17169W        W89495   5.930  27.533  12.450
17170W        W89496  42.846  43.980   3.756
17171W        W89497  30.470  32.050  14.876
17172W        W89498  36.398  35.881  11.487
17173W        W89499   1.278  13.763   2.267
17174W        W89500  27.177  24.052  12.847
17175W        W89501  38.911  35.434   2.356
17176W        W89502  36.449  28.594   0.785
17177W        W89503  27.692  30.970   0.806
17178W        W89504  25.999  41.978  10.928
17179W        W89505  39.929  26.619  14.872
17180W        W89506   0.780  25.072  14.348
17181W        W89507  44.827   7.743   2.788
17182W        W89508  41.925  43.815   3.743
17183W        W89509   9.189  33.050  10.932
17184W        W89510  30.631   2.961   2.753
17185W        W89511  34.514  35.877  10.406
17186W        W89512   0.475  23.041  13.330
17187W        W89513  17.274  32.076   4.645
17188W        W89514  21.158  43.850   2.369
17189W        W89515  33.558   7.683   2.852
17190W        W89516  29.624   0.471   2.834
17191W        W89517  30.065  34.462  10.595
17192W        W89518  23.128  17.301   9.935
17193W        W89519   9.792   1.790   4.758
17194W        W89520  32.538  20.152  13.465
17195W        W89521  10.644  40.540   0.329
17196W        W89522  18.753  34.523   0.900
17197W        W89523  22.133  23.199   4.220
17198W        W89524  15.154   8.371  12.488
17199W        W89525   4.302   8.405  12.549
17200W        W89526  40.838  29.551   2.329
17201W        W89527  30.422  29.153   1.241
17202W        W89528  31.937  14.332  12.390
17203W        W89529  17.287   7.248  10.987
17204W        W89530  41.429   7.369   0.827
17205W        W89531  38.953  10.287  10.636
17206W        W89532  41.442  10.140   0.863
17207W        W89533  40.863  22.087   4.267
17208W        W89534  11.685  42.344   0.482
17209W        W89535  13.170  11.296   1.768
17210W        W89536  33.886   5.866  10.505
17211W        W89537  38.953  23.584  10.535
17212W        W89538   6.247  40.047   2.726
17213W        W89539  13.653   6.247  14.782
17214W        W89540   0.896  22.611   1.764
17215W        W89541  30.535  16.274  12.400
17216W        W89542  32.546   2.386  12.388
17217W        W89543   4.929  34.488   3.253
17218W        W89544   3.917   3.774  10.452
17219W        W89545  16.263   2.903   3.311
17220W        W89546   1.786  11.346   3.672
17221W        W89547  36.551  32.138  13.870
17222W        W89548  43.925  17.292  13.404
17223W        W89549  25.041  30.445   0.770
17224W        W89550   1.767  36.046   0.445
17225W        W89551   5.332   7.181  14.296
17226W        W89552   8.382  20.030   2.668
17227W        W89553  23.540  32.471   3.303
17228W        W89554   7.407  37.894   2.844
17229W        W89555  32.003   6.281   4.212
17230W        W89556   3.740  18.073  12.512
17231W        W89557  37.906  15.785   3.653
17232W        W89558  13.283  27.073   1.376
17233W        W89559   4.439  34.518   2.816
17234W        W89560   7.242  27.115   0.833
17235W        W89561  10.798  24.613  14.485
17236W        W89562  21.138  32.000  11.107
17237W        W89563  24.013  37.994   3.675
17238W        W89564   4.882  25.049   1.789
17239W        W89565  38.856  40.812   2.342
17240W        W89566  26.975  30.115   3.306
17241W        W89567  35.569  36.046  11.551
17242W        W89568  21.121   6.411   5.177
17243W        W89569  12.706  17.620  12.488
17244W        W89570  20.647  14.298   0.310
17245W        W89571  25.994  20.723  14.784
17246W        W89572  20.757  25.709  12.008
17247W        W89573  21.664  17.192  11.048
17248W        W89574  33.488  38.837  13.352
17249W        W89575   4.413   4.238  12.986
17250W        W89576  37.943  42.328  12.083
17251W        W89577  42.971   5.879   0.907
17252W        W89578  28.498  23.030   4.333
17253W        W89579  32.475  10.322   1.238
17254W        W89580  39.062  20.096   4.270
17255W        W89581  40.000  31.549  12.365
17256W        W89582  41.531  30.087   2.758
17257W        W89583   5.369  12.304  11.498
17258W        W89584  42.829  20.531  13.853
17259W        W89585   2.926   9.772  14.952
17260W        W89586  16.170   4.902  12.930
17261W        W89587   6.306  35.580   2.852
17262W        W89588  10.772   9.765   2.385
17263W        W89589  31.426  21.146  10.590
17264W        W89590  33.502  24.090  12.973
17265W        W89591  24.634  21.585  10.470
17266W        W89592  24.975  10.194   2.417
17267W        W89593  11.660  43.428  11.940
17268W        W89594   1.329  38.556   1.797
17269W        W89595  19.626  39.918   2.809
17270W        W89596  38.428   7.325  11.387
17271W        W89597  15.771   9.258  11.932
17272W        W89598   8.215   0.903  11.455
17273W        W89599  44.785  44.848  10.485
17274W        W89600  26.682  23.717  11.900
17275W        W89601  21.202   8.828   3.856
17276W        W89602  27.010   6.913  13.980
17277W        W89603  13.139  33.428   3.164
17278W        W89604  28.593   7.790  11.892
17279W        W89605  19.240  22.153   4.335
17280W        W89606   5.360  25.072  12.890
17281W        W89607   7.715  30.501  10.515
17282W        W89608  19.158  20.179   2.257
17283W        W89609  25.646  36.032  11.037
17284W        W89610  37.953  32.097   0.244
17285W        W89611  19.054  38.340   4.794
17286W        W89612  37.058  42.021   2.868
17287W        W89613   2.890  29.602  13.899
17288W        W89614  14.132  32.517   2.700
17289W        W89615  30.654  43.885   0.272
17290W        W89616  43.987  41.895   0.362
17291W        W89617  35.386  12.809  11.862
17292W        W89618  34.118  28.572  12.851
17293W        W89619  22.547  40.997   1.272
17294W        W89620  30.044  11.361  12.348
17295W        W89621  41.447   0.879  14.986
17296W        W89622   2.380  13.601  12.944
17297W        W89623  21.077   4.844  13.923
17298W        W89624  32.100  42.930  12.991
17299W        W89625  39.976  28.530  13.531
17300W        W89626  36.531  29.481  14.354
17301W        W89627  28.478   3.401   4.299
17302W        W89628  43.333  19.238   1.736
17303W        W89629   6.867  14.169   3.702
17304W        W89630  22.047  23.641  13.316
17305W        W89631  22.738  43.898  11.076
17306W        W89632  33.123  10.218  12.009
17307W        W89633  42.962   7.407  14.311
17308W        W89634  26.029  13.708  13.932
17309W        W89635  38.025  19.745   2.179
17310W        W89636  32.415  44.889  11.379
17311W        W89637  29.595   5.693  11.481
17312W        W89638  41.001  17.270   1.340
17313W        W89639   0.493  28.590  11.596
17314W        W89640   5.798   8.214   3.636
17315W        W89641  32.469  34.013   0.915
17316W        W89642  32.435  41.941  10.901
17317W        W89643  27.490  13.698   2.378
17318W        W89644  38.028  27.192  14.280
17319W        W89645  37.050  25.177  12.472
17320W        W89646  31.490  39.982  13.511
17321W        W89647   5.882  36.361  13.330
17322W        W89648  19.098  41.450   0.275
17323W        W89649  18.151  10.795  12.526
17324W        W89650  15.595  20.086   1.880
17325W        W89651  24.519  22.554   3.763
17326W        W89652  11.700  12.690   2.709
17327W        W89653  39.057   9.760  13.893
17328W        W89654   6.792   8.699   4.328
17329W        W89655   7.304   1.829  12.975
17330W        W89656  25.142  31.961   4.328
17331W        W89657  38.505  25.639  12.969
17332W        W89658  29.136   0.840  13.330
17333W        W89659   5.777   1.812  14.820
17334W        W89660  26.999  20.126   4.694
17335W        W89661  39.852  32.096   0.311
17336W        W89662  19.210  22.237   4.712
17337W        W89663  17.153  16.257   2.250
17338W        W89664   5.781   6.756  13.925
17339W        W89665  18.657   1.403   2.296
17340W        W89666  25.173   8.884  14.900
17341W        W89667  12.766  37.835  12.944
17342W        W89668  22.705  39.815  12.072
17343W        W89669  31.134  30.540  11.861
17344W        W89670  43.281  41.517   4.679
17345W        W89671  18.135  15.736  10.888
17346W        W89672  19.168   4.400   4.630
17347W        W89673  37.514  43.331   4.149
17348W        W89674  38.328  40.328  13.798
17349W        W89675  19.563   6.762   1.314
17350W        W89676  19.730   1.743  14.762
17351W        W89677  32.114  40.822  12.873
17352W        W89678  20.245  13.664   4.342
17353W        W89679  39.010  34.950   3.292
17354W        W89680   0.398  39.504  12.345
17355W        W89681  18.186   6.868   3.795
17356W        W89682  22.141  23.232  10.962
17357W        W89683   5.764  15.663   2.870
17358W        W89684  34.884   1.783   9.942
17359W        W89685  38.935  11.814   2.790
17360W        W89686  17.245  25.651  11.995
17361W        W89687   5.857   1.860   2.680
17362W        W89688  31.138  37.409  12.883
17363W        W89689  39.527   9.700   2.365
17364W        W89690   6.774   7.387   1.714
17365W        W89691  15.758  36.460   3.193
17366W        W89692   2.722  23.187  13.960
17367W        W89693  14.762  16.154   0.879
17368W        W89694  15.160  26.175  10.982
17369W        W89695  37.835  16.588   3.292
17370W        W89696  34.941  38.375  13.912
17371W        W89697   0.448  15.271   4.709
17372W        W89698   6.809  11.353  10.578
17373W        W89699  14.713  39.952   0.942
17374W        W89700  16.621   8.284  11.568
17375W        W89701  41.041   7.322   3.732
17376W        W89702  21.177  17.735  13.363
17377W        W89703  40.872  42.501  13.042
17378W        W89704  29.527  22.573  14.461
17379W        W89705   9.215  36.410  12.459
17380W        W89706  41.840  13.734   1.392
17381W        W89707  42.861   5.207  14.470
17382W        W89708   8.280  43.407   3.661
17383W        W89709  17.664  24.138   2.354
17384W        W89710  39.050   7.842   1.735
17385W        W89711  12.775  24.507  12.491
17386W        W89712  33.611  32.637  13.858
17387W        W89713   9.255  40.541  12.037
17388W        W89714   8.222  33.496   1.348
17389W        W89715  18.086   2.407  13.423
17390W        W89716  24.075  37.954  12.013
17391W        W89717  12.791  10.159  10.579
17392W        W89718  12.335   5.439   4.341
17393W        W89719   9.774  15.740   2.734
17394W        W89720   4.711  41.017   4.822
17395W        W89721  37.501  38.457   3.265
17396W        W89722  43.770  24.065   3.233
17397W        W89723  42.304  26.518   2.714
17398W        W89724  34.907   6.703  14.890
17399W        W89725  16.126  17.226  10.579
17400W        W89726   9.287  24.721   1.882
17401W        W89727  37.914  34.546   3.803
17402W        W89728  38.064  35.539  11.466
17403W        W89729  13.676   6.286   4.222
17404W        W89730   1.892  33.977  10.930
17405W        W89731  27.987  10.662   2.688
17406W        W89732   3.276  38.388  11.001
17407W        W89733  23.675  31.940   0.927
17408W        W89734  32.076  25.469  14.493
17409W        W89735  44.480  28.461  10.532
17410W        W89736  38.877  28.167   9.983
17411W        W89737  12.125  17.766   1.749
17412W        W89738   1.363  28.000  10.554
17413W        W89739   9.740  35.874   2.755
17414W        W89740  16.133  13.677   4.619
17415W        W89741  21.543  17.793  13.432
17416W        W89742  31.135  18.691   0.814
17417W        W89743  36.993  24.586   0.789
17418W        W89744  32.961  25.122  13.456
17419W        W89745   4.377  31.411  14.867
17420W        W89746   5.865   0.938  12.046
17421W        W89747  28.512  35.476  12.481
17422W        W89748   8.821  32.043  11.579
17423W        W89749  44.330  24.612  14.475
17424W        W89750  38.971  21.562   2.899
17425W        W89751  37.977  36.383   2.724
17426W        W89752   1.846  28.435  14.354
17427W        W89753  40.951   8.270   4.240
17428W        W89754  38.860  21.079   4.260
17429W        W89755  21.221   3.922  10.466
17430W        W89756  12.796  16.729  14.303
17431W        W89757  21.159  44.898   2.734
17432W        W89758   9.766  25.709  13.314
17433W        W89759  34.412  43.942  11.466
17434W        W89760  36.400  41.341   3.201
17435W        W89761   4.927  42.432   2.184
17436W        W89762  20.251  17.569   1.387
17437W        W89763   2.928  21.206   1.417
17438W        W89764  13.837  27.060   3.865
17439W        W89765  37.564  17.248   5.081
17440W        W89766  27.505   3.911   4.321
17441W        W89767  12.280  27.539   3.353
17442W        W89768  10.179  13.715  12.923
17443W        W89769  11.281  11.318   0.285
17444W        W89770   3.784  12.176  12.579
17445W        W89771  11.686  22.115   4.820
17446W        W89772   7.304   3.945   4.161
17447W        W89773   4.245  16.166   3.215
17448W        W89774  29.068  40.495   1.880
17449W        W89775  24.012   2.377  12.517
17450W        W89776   6.857  18.274  13.459
17451W        W89777  38.441  35.533  11.536
17452W        W89778  17.104  43.334   1.698
17453W        W89779   5.721  37.994   1.426
17454W        W89780  43.828  29.520  12.960
17455W        W89781  20.228  12.248   4.775
17456W        W89782  28.442  43.475  14.780
17457W        W89783  42.928  35.082   1.891
17458W        W89784  43.855  43.413   1.705
17459W        W89785   9.153   6.249  14.459
17460W        W89786  36.558  26.954  12.854
17461W        W89787  32.457  14.104   2.883
17462W        W89788  25.164   2.308  13.395
17463W        W89789  35.407  43.816  10.450
17464W        W89790  30.032   6.855   0.329
17465W        W89791   5.823  26.570   3.150
17466W        W89792   6.291   8.858   0.859
17467W        W89793  20.691  10.831  11.380
17468W        W89794  21.149   2.901   2.841
17469W        W89795   5.832  36.407  14.918
17470W        W89796  15.276   3.910  11.888
17471W        W89797   1.954  11.170  10.640
17472W        W89798   9.287  41.887   1.698
17473W        W89799  39.347   7.722  12.947
17474W        W89800  28.987  32.107   4.727
17475W        W89801  24.070   5.919   0.963
17476W        W89802  32.612  18.678  10.953
17477W        W89803  19.082  36.028  13.426
17478W        W89804  40.418  16.272   3.762
17479W        W89805  41.882  15.776  10.483
17480W        W89806  15.161  27.685   2.825
17481W        W89807  28.601  17.771  13.959
17482W        W89808  12.135  38.509   1.919
17483W        W89809  38.418  37.385  14.444
17484W        W89810  11.262  41.939  13.003
17485W        W89811  16.267  29.031  11.952
17486W        W89812  34.398  44.980  14.462
17487W        W89813  25.123  39.986   0.919
17488W        W89814  44.852   9.684  12.554
17489W        W89815  44.422  13.814  12.387
17490W        W89816  36.985  30.578   1.253
17491W        W89817  27.065  15.094  12.376
17492W        W89818  37.542   7.814  12.545
17493W        W89819  37.462  16.133   4.169
17494W        W89820   3.947   9.369   5.709
17495W        W89821  28.594  13.794  13.893
17496W        W89822  17.303  38.406  11.000
17497W        W89823  36.975   1.465  10.588
17498W        W89824  27.612  40.402   0.874
17499W        W89825  44.949  14.796   3.778
17500W        W89826  18.694   8.176  14.762
17501W        W89827  24.111  41.494   9.951
17502W        W89828  12.812  27.658   9.591
17503W        W89829  13.331  39.924  12.062
17504W        W89830  19.274  18.554  10.488
17505W        W89831   6.750  31.462  12.926
17506W        W89832   1.864  38.056   3.242
17507W        W89833  22.015  23.687  12.379
17508W        W89834   0.314  44.863   3.381
17509W        W89835   5.827  22.040   4.347
17510W        W89836  18.550   5.272   1.698
17511W        W89837  11.780  33.124  13.053
17512W        W89838  24.578  12.829   4.610
17513W        W89839   7.304  15.265   2.755
17514W        W89840  39.847  13.818   2.796
17515W        W89841  27.092  22.516  12.414
17516W        W89842  24.193  41.299  11.021
17517W        W89843  31.972  15.617  14.389
17518W        W89844  22.587   9.864   0.952
17519W        W89845   2.882  27.509   1.874
17520W        W89846  43.481  30.594   5.180
17521W        W89847  11.837   5.774   0.927
17522W        W89848  13.620  19.108   3.809
17523W        W89849  13.739   7.247   3.232
17524W        W89850  11.332  30.546  14.831
17525W        W89851   0.471  20.563  13.810
17526W        W89852   1.419  15.083  13.314
17527W        W89853  13.187  20.161   4.234
17528W        W89854   4.752  44.981   2.382
17529W        W89855  42.937  30.468   1.932
17530W        W89856  18.189  25.566   1.850
17531W        W89857  13.140  26.475  11.540
17532W        W89858  33.507  34.885  14.016
17533W        W89859  30.532   6.196   0.794
17534W        W89860  28.532  24.635   4.751
17535W        W89861  23.180  27.962   2.707
17536W        W89862  16.767  40.826   4.701
17537W        W89863  16.246  29.004  12.876
17538W        W89864  36.347  35.534   4.239
17539W        W89865  25.178  34.904  12.911
17540W        W89866  29.155   8.812   4.648
17541W        W89867  36.097  12.148   3.789
17542W        W89868  43.360  34.557  14.389
17543W        W89869   5.776  16.079  14.866
17544W        W89870  24.600   1.425  10.982
17545W        W89871  29.084   6.275  11.565
17546W        W89872  44.271  19.096   2.413
17547W        W89873   4.759  41.399   2.186
17548W        W89874  26.957  42.842  13.487
17549W        W89875  37.852  44.887   3.190
17550W        W89876  10.289  42.479   0.269
17551W        W89877  31.426   8.701  14.516
17552W        W89878  38.031  25.020  10.589
17553W        W89879  42.997   8.380   3.871
17554W        W89880  37.943  42.941   3.811
17555W        W89881  29.934   7.734   4.671
17556W        W89882  30.036  44.493   4.719
17557W        W89883  40.514  17.137   0.312
17558W        W89884  24.602  38.858  10.944
17559W        W89885   0.279  43.848   1.450
17560W        W89886   2.730  33.444   4.348
17561W        W89887  23.004  17.749  10.556
17562W        W89888  41.816  12.294   2.792
17563W        W89889  39.522  41.421  12.062
17564W        W89890  14.218   7.668   0.381
17565W        W89891  37.339   7.868  13.869
17566W        W89892  14.266   5.344  14.952
17567W        W89893  16.599  35.853   2.338
17568W        W89894  35.033   5.700  10.089
17569W        W89895  39.316   3.214   1.858
17570W        W89896  19.159  27.677   3.174
17571W        W89897  25.679  20.683   1.387
17572W        W89898  40.841  31.440   4.223
17573W        W89899  32.914   3.786  10.523
17574W        W89900  16.584  36.469   0.399
17575W        W89901  20.684  29.059  10.993
17576W        W89902   0.258  31.903   0.810
17577W        W89903   5.808  14.684   2.333
17578W        W89904   4.350  42.897  14.820
17579W        W89905  13.282  21.709  12.946
17580W        W89906   0.909  35.881   4.167
17581W        W89907  21.184  18.648  10.612
17582W        W89908  36.039   9.309  12.987
17583W        W89909  24.140  19.259   4.657
17584W        W89910  12.694  37.518  11.400
17585W        W89911  39.042  21.512  12.885
17586W        W89912  39.415  19.653  14.383
17587W        W89913  32.039  39.911  11.589
17588W        W89914  44.265  15.786  14.896
17589W        W89915  34.531  29.427   0.436
17590W        W89916   0.912   2.770   3.237
17591W        W89917  15.181  24.203  14.331
17592W        W89918   1.893  18.630   0.342
17593W        W89919  19.247  20.638   3.741
17594W        W89920  15.176  32.443   0.899
17595W        W89921  38.976  23.153   2.720
17596W        W89922  44.881  25.580  14.929
17597W        W89923  33.099  41.947   3.853
17598W        W89924  41.875  10.638  10.508
17599W        W89925   0.389  34.501  12.485
17600W        W89926  30.930  19.223   4.166
17601W        W89927  37.958   7.737  13.869
17602W        W89928  21.083   2.303  12.456
17603W        W89929  32.013   0.887   0.390
17604W        W89930  28.579  43.993   3.848
17605W        W89931  27.120   5.738  11.079
17606W        W89932   2.735  16.572   4.348
17607W        W89933  11.146  24.203   1.727
17608W        W89934  10.271  12.787   3.716
17609W        W89935  15.745  22.665  12.930
17610W        W89936   0.278  11.794  14.294
17611W        W89937  36.541   3.945  10.920
17612W        W89938  22.710  25.525   3.304
17613W        W89939   9.725  26.012  13.824
17614W        W89940  39.352  28.988   4.319
17615W        W89941  15.200  27.994   3.693
17616W        W89942  11.315   2.855  13.339
17617W        W89943   0.985  24.998  12.890
17618W        W89944   6.428  22.174   0.258
17619W        W89945  41.839  31.020  13.833
17620W        W89946  39.934  38.473  12.434
17621W        W89947  33.094  12.219   1.766
17622W        W89948  32.546   6.814   1.896
17623W        W89949  30.914  10.827  10.920
17624W        W89950  20.174   7.271  14.807
17625W        W89951  41.811  34.432  14.863
17626W        W89952  44.278   3.409   3.644
17627W        W89953  26.530   0.365   2.890
17628W        W89954  29.496  14.660   2.273
17629W        W89955  13.824  40.837   0.293
17630W        W89956  24.529  37.431   3.824
17631W        W89957  33.887  43.929  13.334
17632W        W89958  14.305  18.751  12.014
17633W        W89959  41.334  42.281  14.816
17634W        W89960  28.463  24.520  12.943
17635W        W89961  27.080  39.958   3.218
17636W        W89962  39.926  27.584   1.915
17637W        W89963  31.621  27.461   2.222
17638W        W89964   4.360  23.624  11.400
17639W        W89965  40.370  36.909  14.963
17640W        W89966  44.816  18.266   4.670
17641W        W89967  42.457   4.233  10.995
17642W        W89968   5.864  29.581   3.265
17643W        W89969  32.120  33.958  10.918
17644W        W89970  28.476   5.752   1.307
17645W        W89971  42.353  30.988  11.991
17646W        W89972  18.700  27.484   2.694
17647W        W89973   9.307   9.324  14.023
17648W        W89974  25.993  21.559   2.802
17649W        W89975  19.137  32.056  13.326
17650W        W89976   8.713  22.110  10.925
17651W        W89977  15.800  43.952  13.892
17652W        W89978  11.282  33.420   3.832
17653W        W89979   0.795  26.199   4.780
17654W        W89980  33.527  27.646   2.792
17655W        W89981  37.033  27.183  10.976
17656W        W89982  38.821   1.277  10.558
17657W        W89983  44.948  29.922  11.573
17658W        W89984  36.890  25.631   2.227
17659W        W89985   4.734  23.501   2.762
17660W        W89986   2.341  44.999   2.879
17661W        W89987  24.987  13.750  11.127
17662W        W89988  27.501  13.687  12.513
17663W        W89989  17.635  28.175   1.439
17664W        W89990   7.895  36.365   4.701
17665W        W89991  19.579  15.631  11.894
17666W        W89992  32.574  41.399   3.634
17667W        W89993  14.655  18.604  12.047
17668W        W89994   2.786   5.833   1.375
17669W        W89995  32.115  14.181   2.204
17670W        W89996  18.084  16.281   0.308
17671W        W89997  21.099  37.485  11.096
17672W        W89998  32.122  22.637  10.471
17673W        W89999   3.344  23.640   4.204
17674W        W90000  15.196  19.737  11.888
17675W        W90001  16.636  35.518   0.472
17676W        W90002  19.212  14.744   1.920
17677W        W90003  29.117  39.897  13.971
17678W        W90004   2.290  42.457   0.924
17679W        W90005   7.352  44.976   2.753
17680W        W90006  28.026   6.341   3.165
17681W        W90007   8.709  35.000  10.475
17682W        W90008  10.304   0.848   1.331
17683W        W90009  33.518  36.352  14.277
17684W        W90010  37.057  44.288  12.373
17685W        W90011  39.932  43.354  10.942
17686W        W90012  30.520   3.223   0.324
17687W        W90013  26.511  21.255  10.473
17688W        W90014  38.512  37.897  11.917
17689W        W90015   1.243  18.292  11.457
17690W        W90016  32.474  38.059  13.798
17691W        W90017   0.427  32.956  11.513
17692W        W90018  30.046  30.940   4.292
17693W        W90019  44.394  28.113  13.841
17694W        W90020  20.552  43.845   4.812
17695W        W90021  32.465  14.340  10.132
17696W        W90022   3.853  30.466   1.390
17697W        W90023  28.554  26.068  12.838
17698W        W90024  20.678   8.305  12.019
17699W        W90025   9.219  10.680  14.851
17700W        W90026  22.625  21.201   0.828
17701W        W90027  23.678  31.153  10.900
17702W        W90028  30.629  36.351  14.495
17703W        W90029  44.299   3.342  10.066
17704W        W90030  20.646  33.896  12.493
17705W        W90031  40.915  18.143  13.527
17706W        W90032  11.750  31.424   3.198
17707W        W90033  35.945  21.676  12.507
17708W        W90034  17.283  11.644   2.251
17709W        W90035   0.968   9.228  11.935
17710W        W90036  25.000  37.018  11.599
17711W        W90037  44.307  17.102   1.440
17712W        W90038  41.980  21.138   2.392
17713W        W90039  16.123  40.350   2.779
17714W        W90040  17.106  27.139  13.412
17715W        W90041  40.832   2.732   3.310
17716W        W90042  19.701   5.692   2.773
17717W        W90043  17.150  44.485  11.423
17718W        W90044   0.255   1.940   2.221
17719W        W90045  10.716  30.929  12.945
17720W        W90046  37.442   3.931   1.360
17721W        W90047  43.420  28.182   0.812
17722W        W90048  28.152  36.944   3.841
17723W        W90049  37.376  34.489   4.343
17724W        W90050  13.653  17.088  14.761
17725W        W90051  15.116   6.770  11.481
17726W        W90052  41.884   1.306   4.117
17727W        W90053  28.110  12.337   2.308
17728W        W90054  35.570  11.714   4.780
17729W        W90055  28.608  10.655   3.382
17730W        W90056  19.062  21.642   1.700
17731W        W90057  14.129  30.550  13.842
17732W        W90058  42.367  11.153  12.837
17733W        W90059  34.430   1.426   2.360
17734W        W90060  21.035  21.144  12.395
17735W        W90061  20.664  12.188  11.088
17736W        W90062  12.252  37.340   1.289
17737W        W90063  43.455  24.133   2.393
17738W        W90064  19.623  29.491  10.565
17739W        W90065  24.711   1.802  11.095
17740W        W90066  23.029   7.866  10.602
17741W        W90067  30.578  39.458   3.805
17742W        W90068  22.668  18.762  13.377
17743W        W90069  33.101  19.054   3.855
17744W        W90070  14.791   5.928   3.285
17745W        W90071   1.304  27.588   2.811
17746W        W90072  33.977   8.286   1.273
17747W        W90073   9.690  34.995   4.773
17748W        W90074  36.445  20.688   3.682
17749W        W90075  18.567  43.975  10.415
17750W        W90076  23.181  25.638   0.807
17751W        W90077  18.568   1.756   4.305
17752W        W90078  28.468  17.556  14.861
17753W        W90079  39.451  23.707  11.037
17754W        W90080  11.631  42.831   2.871
17755W        W90081  40.503  20.758  13.875
17756W        W90082   5.289   4.303   3.858
17757W        W90083  44.793   1.758   2.285
17758W        W90084  16.767   7.873   1.744
17759W        W90085  23.189  21.525  14.318
17760W        W90086  25.018   1.813  10.472
17761W        W90087  30.588  27.683   0.245
17762W        W90088  15.789  14.590   0.448
17763W        W90089  36.513   0.970   2.662
17764W        W90090  39.482  17.617  13.885
17765W        W90091  26.555  34.596   0.930
17766W        W90092   0.491  41.360   3.236
17767W        W90093  34.942   9.654   3.674
17768W        W90094   7.889  30.658  14.339
17769W        W90095   5.830  39.314   3.170
17770W        W90096   2.417  19.043  11.568
17771W        W90097  12.135  23.662  10.624
17772W        W90098  31.499  30.550   4.331
17773W        W90099  17.650  22.625  11.470
17774W        W90100  40.005  10.778  11.541
17775W        W90101   1.804   8.726  14.908
17776W        W90102   2.420  32.424   1.235
17777W        W90103  12.295  33.551  11.404
17778W        W90104   6.204  15.191  11.450
17779W        W90105  28.491  36.580  14.447
17780W        W90106  38.393  26.009  11.974
17781W        W90107  28.075  15.702   2.354
17782W        W90108  27.147  16.727   2.384
17783W        W90109  18.552  42.027   3.630
17784W        W90110  16.758  22.516   4.774
17785W        W90111  16.110  23.723  14.022
17786W        W90112  32.522  10.677   4.300
17787W        W90113  39.834   5.760  11.520
17788W        W90114   3.731  36.950   1.394
17789W        W90115  19.053   4.874  11.934
17790W        W90116   6.908   4.335   3.347
17791W        W90117  27.137  33.911  12.850
17792W        W90118  22.734  36.478   4.816
17793W        W90119   8.667  26.059  12.050
17794W        W90120  42.782   9.670  12.339
17795W        W90121  25.471  36.879  14.964
17796W        W90122  20.692   7.190  13.931
17797W        W90123  30.106  37.486   2.702
17798W        W90124  10.290  13.148   1.401
17799W        W90125  41.481  23.131   3.232
17800W        W90126  27.077   7.757  12.891
17801W        W90127  24.549  29.570   3.348
17802W        W90128  15.133  14.151  10.558
17803W        W90129  15.616  35.566  10.966
17804W        W90130  11.184   3.281  10.620
17805W        W90131  22.156  38.522  12.885
17806W        W90132  38.932   1.869   0.770
17807W        W90133   8.383   7.179  13.799
17808W        W90134  23.995  26.199  11.903
17809W        W90135  19.613  21.177  13.544
17810W        W90136   1.774  32.025  10.593
17811W        W90137  30.489  38.932   1.331
17812W        W90138  26.701   1.835   0.349
17813W        W90139   9.387  11.149  10.549
17814W        W90140  12.196   5.344  12.829
17815W        W90141  37.581   8.656  10.955
17816W        W90142   8.230  33.464  13.321
17817W        W90143  23.616  41.302  14.817
17818W        W90144  34.033  16.153  12.351
17819W        W90145  30.053   9.722   3.714
17820W        W90146  14.623  36.024   3.205
17821W        W90147  30.951  26.976  10.501
17822W        W90148  19.672   2.287  11.468
17823W        W90149   9.807  21.546  14.477
17824W        W90150  14.318  33.467   2.674
17825W        W90151  10.162  29.526  12.515
17826W        W90152  33.452  40.435  11.913
17827W        W90153   7.774  11.801   4.655
17828W        W90154  38.464  21.737   0.420
17829W        W90155  18.636   0.326   3.243
17830W        W90156   5.212  12.284  12.979
17831W        W90157  15.635  35.898   4.318
17832W        W90158  10.875  42.990   0.297
17833W        W90159   7.728   5.261   3.294
17834W        W90160  22.697   2.240  11.007
17835W        W90161  25.985  14.106  11.410
17836W        W90162  30.990   1.941  10.613
17837W        W90163  32.106  44.367   3.336
17838W        W90164   4.293   3.882  10.548
17839W        W90165  19.052  38.830   2.336
17840W        W90166   0.295  39.531  11.985
17841W        W90167  33.876   9.195   4.189
17842W        W90168  31.898  43.944   1.300
17843W        W90169  40.496  38.009  10.976
17844W        W90170  21.039  14.783   4.612
17845W        W90171  14.291  13.140  14.990
17846W        W90172  22.203  37.903  13.014
17847W        W90173  42.470  16.080   1.907
17848W        W90174  33.934  27.600   3.281
17849W        W90175   0.797  14.106  12.549
17850W        W90176  25.596   6.884   0.779
17851W        W90177  27.189  21.177   4.302
17852W        W90178  23.167   2.443   1.392
17853W        W90179  17.072   3.955   0.737
17854W        W90180   5.815  34.612   1.221
17855W        W90181  24.584   2.819   3.800
17856W        W90182  30.104  29.561  13.315
17857W        W90183  38.833  12.829  10.051
17858W        W90184  30.417  29.070  14.407
17859W        W90185  12.285  41.336   2.692
17860W        W90186  40.023  22.211   2.341
17861W        W90187   1.317  29.432  14.854
17862W        W90188  24.522  25.030   2.380
17863W        W90189  22.560  18.103  12.452
17864W        W90190  18.290  31.445   0.966
17865W        W90191   2.376  40.547   1.859
17866W        W90192  33.951  41.876   0.836
17867W        W90193  10.306   4.252  13.859
17868W        W90194  29.541  40.350  14.006
17869W        W90195  43.415   8.325   2.815
17870W        W90196  18.770  13.125  13.996
17871W        W90197  21.028  11.641  13.356
17872W        W90198   9.787  32.483  11.453
17873W        W90199   2.322  30.004   1.702
17874W        W90200  44.286  11.317  13.434
17875W        W90201  21.217  31.964   3.816
17876W        W90202  28.480  25.686   5.637
17877W        W90203  43.846   8.741   2.414
17878W        W90204  14.140  17.709   2.220
17879W        W90205  38.548  12.242   2.819
17880W        W90206  22.038  24.119  13.370
17881W        W90207  43.377  25.109   4.774
17882W        W90208  31.462  15.312   4.304
17883W        W90209  37.485  13.627   9.481
17884W        W90210  38.338   0.342   1.321
17885W        W90211  13.106   1.953   3.778
17886W        W90212  34.468   4.415   0.399
17887W        W90213   3.947  34.979  11.919
17888W        W90214  35.987   7.288  13.408
17889W        W90215  24.068  14.214   1.419
17890W        W90216  14.241   3.303   2.277
17891W        W90217  19.234  28.546   1.835
17892W        W90218  37.528  13.814  13.534
17893W        W90219  26.993  37.865   3.665
17894W        W90220  35.428   8.279   1.904
17895W        W90221  25.209  19.718   2.376
17896W        W90222  35.978   1.253  13.037
17897W        W90223   5.770  10.805  14.416
17898W        W90224  37.394  18.222  13.516
17899W        W90225   8.712   4.896   1.891
17900W        W90226  19.266  39.051   3.375
17901W        W90227  12.347  41.447  14.022
17902W        W90228  10.310   5.903  13.797
17903W        W90229  36.083  21.029   1.416
17904W        W90230  11.220  33.608   1.426
17905W        W90231  10.828  26.147   4.266
17906W        W90232   0.445  32.021   3.697
17907W        W90233  25.043   0.275  14.307
17908W        W90234  35.381  37.038   0.317
17909W        W90235  35.071   3.223   5.134
17910W        W90236  24.123  41.853  10.985
17911W        W90237  25.080  28.653  12.835
17912W        W90238   3.932  22.012  11.864
17913W        W90239  43.332  40.485  12.044
17914W        W90240  15.639  16.172  14.913
17915W        W90241  40.333  30.501   0.770
17916W        W90242  37.523  31.989   3.774
17917W        W90243  30.607  33.096  11.435
17918W        W90244  23.163  38.336   2.400
17919W        W90245  21.515  35.003   2.247
17920W        W90246  11.704  19.611  10.630
17921W        W90247  13.838  16.198  13.820
17922W        W90248  29.122  36.537   0.886
17923W        W90249  33.447   3.317   2.749
17924W        W90250  21.252  36.845   3.735
17925W        W90251  14.638  13.298   2.208
17926W        W90252  27.448   5.816  11.919
17927W        W90253  28.982  31.422  14.470
17928W        W90254  44.945  39.020   2.865
17929W        W90255  23.629   4.771   4.184
17930W        W90256  25.505   0.814   1.215
17931W        W90257  22.611  42.437  13.008
17932W        W90258  11.343  32.077   2.668
17933W        W90259  20.196  13.266  13.492
17934W        W90260  23.007  29.610   3.794
17935W        W90261   3.357  27.679  13.853
17936W        W90262   0.479  35.533  11.115
17937W        W90263   8.778  43.383   2.188
17938W        W90264  20.029  20.058  12.557
17939W        W90265  36.377  16.759  13.308
17940W        W90266  24.634  43.874  13.895
17941W        W90267   1.413  44.436   4.807
17942W        W90268  18.127   9.157  14.371
17943W        W90269  37.400  44.970  14.454
17944W        W90270  33.992  42.461  12.942
17945W        W90271   0.749  13.275   1.929
17946W        W90272  30.604  29.560   2.838
17947W        W90273  40.983  27.159   4.790
17948W        W90274  40.466  24.716  11.915
17949W        W90275   8.721   2.367   1.245
17950W        W90276   1.439  22.556   0.802
17951W        W90277  28.011   9.841   4.635
17952W        W90278  13.659   6.824   1.240
17953W        W90279  23.175  39.843  11.547
17954W        W90280   4.244  16.168  10.492
17955W        W90281  42.830   3.277  12.836
17956W        W90282   4.932   6.385   3.232
17957W        W90283   9.877   3.893   4.119
17958W        W90284  36.096  30.948  13.359
17959W        W90285  44.418  28.108   0.811
17960W        W90286  42.823  22.009   0.759
17961W        W90287  26.484  32.500   2.755
17962W        W90288  36.524  34.567  13.000
17963W        W90289  19.680  13.351   0.803
17964W        W90290  15.322  32.598   1.922
17965W        W90291  12.713  44.847   4.318
17966W        W90292  33.598  13.351  12.957
17967W        W90293  24.670   8.376   0.803
17968W        W90294  41.313   6.914   3.303
17969W        W90295  44.841  27.465  13.894
17970W        W90296  33.478  20.267  11.600
17971W        W90297  20.140  32.492   0.789
17972W        W90298  16.741  24.695  12.379
17973W        W90299  12.177  34.536   3.231
17974W        W90300  33.111  33.536   0.281
17975W        W90301  28.602  33.468  12.498
17976W        W90302  33.514  32.906   2.275
17977W        W90303  31.074   9.149   3.235
17978W        W90304  21.144  12.836  11.602
17979W        W90305  16.183  38.050  13.464
17980W        W90306  40.942  17.606  10.486
17981W        W90307  32.048  22.539   0.863
17982W        W90308  17.696   0.769   1.881
17983W        W90309  10.298  30.554  10.644
17984W        W90310  44.268  33.117  14.305
17985W        W90311  30.501   5.733  12.380
17986W        W90312  24.563   1.287  12.457
17987W        W90313   8.735  42.786   0.815
17988W        W90314  28.556  12.726   0.772
17989W        W90315  18.062   8.716   3.184
17990W        W90316  23.103  22.728   3.657
17991W        W90317  12.719   7.268   4.193
17992W        W90318  16.784  17.089   2.900
17993W        W90319  22.084  24.094  14.480
17994W        W90320  13.755  21.066   5.283
17995W        W90321   7.330  37.060  14.845
17996W        W90322  29.646   2.304  14.951
17997W        W90323   2.967  16.751  14.361
17998W        W90324  41.391  27.632  13.858
17999W        W90325   9.343  43.376   1.719
18000W        W90326  17.784   1.806   1.301
18001W        W90327  27.581  14.677   3.871
18002W        W90328  39.475  25.619   1.319
18003W        W90329  19.234  40.478  11.001
18004W        W90330   5.296  26.203   3.646
18005W        W90331  14.155  12.309  11.979
18006W        W90332  23.621  31.054  14.993
18007W        W90333   5.213  34.062  14.926
18008W        W90334  36.001  38.989  12.538
18009W        W90335  26.549  19.071   4.830
18010W        W90336  27.671   4.332   4.291
18011W        W90337  32.136  17.740  10.433
18012W        W90338  12.681   9.713   0.326
18013W        W90339  36.561  28.607   4.246
18014W        W90340  27.522  22.230   3.800
18015W        W90341  23.553   7.867  12.407
18016W        W90342  24.628  35.492  13.816
18017W        W90343  44.918  26.972   3.742
18018W        W90344  32.921  35.455  14.769
18019W        W90345  31.598   7.778   0.761
18020W        W90346  24.606   6.905  13.794
18021W        W90347   8.731  12.737   2.354
18022W        W90348   3.332  25.583  14.314
18023W        W90349   8.752  13.838  12.468
18024W        W90350  26.506  12.291   2.814
18025W        W90351   6.201  43.884   3.697
18026W        W90352  40.331  41.486  14.981
18027W        W90353  35.589  38.446   4.598
18028W        W90354  37.062  10.765  12.896
18029W        W90355   8.343  28.661   3.291
18030W        W90356  22.563  15.258   1.716
18031W        W90357  29.445  18.554  14.927
18032W        W90358   7.810  22.615   0.471
18033W        W90359  15.792  21.593   0.343
18034W        W90360  34.073  19.662   2.753
18035W        W90361  14.283  38.930   3.695
18036W        W90362   7.884  21.626   2.765
18037W        W90363  22.699   3.807   3.766
18038W        W90364  31.929  24.577  11.605
18039W        W90365   1.965  13.817  13.504
18040W        W90366   9.337   5.734  13.803
18041W        W90367  40.009  26.129   0.270
18042W        W90368  24.051  17.130   3.154
18043W        W90369   1.881  11.297   2.345
18044W        W90370  19.766  31.553  12.045
18045W        W90371  38.038  20.190  14.899
18046W        W90372  28.598  22.074  12.081
18047W        W90373  22.696  32.461  14.437
18048W        W90374   5.883  39.913  14.982
18049W        W90375  16.284  29.074   1.237
18050W        W90376  39.986  38.481  12.897
18051W        W90377  41.486   0.979   0.948
18052W        W90378  29.486  13.236   4.326
18053W        W90379  27.172  31.958   3.195
18054W        W90380  13.159  21.621  11.862
18055W        W90381  44.994  34.033   0.905
18056W        W90382   2.240  19.119  12.423
18057W        W90383  39.035  12.345   3.296
18058W        W90384  13.223  19.166  10.440
18059W        W90385  14.274  28.455  11.046
18060W        W90386  43.447  11.196   4.660
18061W        W90387  17.691  11.655  13.904
18062W        W90388  32.558  12.611  11.077
18063W        W90389  38.012  27.020  12.062
18064W        W90390  41.980   9.806  13.023
18065W        W90391  18.206   8.302   3.197
18066W        W90392   8.340  28.021  10.434
18067W        W90393  36.459  10.244  13.939
18068W        W90394   4.749  12.242  12.471
18069W        W90395   9.857  13.648   3.350
18070W        W90396  24.486   3.813   2.328
18071W        W90397  18.168  34.075   1.212
18072W        W90398   5.817   7.187  10.577
18073W        W90399  33.956   8.796   2.689
18074W        W90400  15.611  33.889   2.781
18075W        W90401  40.459  40.407  14.834
18076W        W90402  26.618  16.656  10.610
18077W        W90403   1.765  34.562  11.025
18078W        W90404  27.175   3.868   2.780
18079W        W90405  14.201  24.566  14.372
18080W        W90406  38.564  35.857   2.384
18081W        W90407  32.932   7.740  14.914
18082W        W90408  37.483  43.841  10.978
18083W        W90409  22.165   5.250   2.392
18084W        W90410   4.904  32.000  10.497
18085W        W90411  20.525  11.826   2.187
18086W        W90412  41.389  17.259   1.931
18087W        W90413  16.169  24.670  14.409
18088W        W90414  13.750  44.837   2.812
18089W        W90415  17.686  11.373   0.753
18090W        W90416  36.515  24.028   3.837
18091W        W90417  37.892  41.832  12.444
18092W        W90418   4.260  23.597   3.202
18093W        W90419  32.063   9.820   4.769
18094W        W90420  42.002  33.420  14.888
18095W        W90421   0.930   9.797   5.086
18096W        W90422  41.828  25.999  10.406
18097W        W90423   7.409  24.110  14.882
18098W        W90424   1.244  18.766  12.910
18099W        W90425  31.026  13.776  14.777
18100W        W90426  23.987  42.946  13.791
18101W        W90427   6.339   7.679  12.875
18102W        W90428   5.823  43.283   4.737
18103W        W90429   1.242  19.118  11.062
18104W        W90430   7.394  32.129   3.269
18105W        W90431   0.987  17.237  12.348
18106W        W90432  21.724   7.370   4.659
18107W        W90433  30.425   2.880   3.152
18108W        W90434   9.867  43.804  12.015
18109W        W90435  44.454  27.130  13.026
18110W        W90436   1.803   7.731  10.490
18111W        W90437   2.731  39.513  12.469
18112W        W90438   8.376   8.259   4.803
18113W        W90439  29.514  25.540   4.198
18114W        W90440  35.578  34.605  10.459
18115W        W90441  38.974   5.876   4.734
18116W        W90442  14.102  40.351   0.470
18117W        W90443  12.138  38.948  10.967
18118W        W90444  22.589   0.856   0.309
18119W        W90445   1.735  39.036   1.933
18120W        W90446  27.171  11.365  10.559
18121W        W90447  15.253  17.674   1.903
18122W        W90448  41.934  13.707  11.107
18123W        W90449   2.897  21.656  12.899
18124W        W90450   8.825  23.490  11.584
18125W        W90451  23.133  11.644  12.436
18126W        W90452  38.042  19.162   4.352
18127W        W90453  40.309  37.432   0.919
18128W        W90454  16.585   0.907   4.159
18129W        W90455  34.013  35.942  10.599
18130W        W90456  32.481  38.436   1.329
18131W        W90457  43.382  22.688  13.442
18132W        W90458  42.989  10.651  10.591
18133W        W90459   3.268   0.979  13.487
18134W        W90460   7.202  37.558   3.822
18135W        W90461  10.309  10.358   5.187
18136W        W90462   4.792  14.656   2.842
18137W        W90463  37.894   9.388  13.331
18138W        W90464  11.138   4.703   3.664
18139W        W90465  39.063  24.664   4.609
18140W        W90466  22.088  12.276   1.397
18141W        W90467   5.347  44.371  10.093
18142W        W90468  24.516  12.258  12.056
18143W        W90469  19.772  33.399   3.829
18144W        W90470  38.497  34.055  13.003
18145W        W90471  33.899  15.238   2.886
18146W        W90472  26.570   9.257   2.367
18147W        W90473  43.931  22.075   3.672
18148W        W90474  26.618  38.918  12.443
18149W        W90475  26.594   1.953  12.944
18150W        W90476  41.887  12.711  11.109
18151W        W90477  38.489  19.742  11.495
18152W        W90478   3.813   7.778  13.453
18153W        W90479   2.844   9.238  12.825
18154W        W90480   4.882  24.044   1.361
18155W        W90481   1.399  32.610   0.941
18156W        W90482  39.328   8.744   3.256
18157W        W90483  32.059  36.542  13.904
18158W        W90484   5.270  18.618  14.485
18159W        W90485  24.540  14.339   3.684
18160W        W90486  16.114  12.833   1.929
18161W        W90487  37.397  24.054   2.749
18162W        W90488  42.924  21.619  14.868
18163W        W90489  33.977   1.465   4.127
18164W        W90490  37.838  14.320   1.898
18165W        W90491  24.005  43.490  14.989
18166W        W90492  12.257  44.964  12.342
18167W        W90493  17.276   0.486   2.757
18168W        W90494  40.423  19.118  14.018
18169W        W90495   1.855  33.054  12.901
18170W        W90496   8.764  14.646   1.923
18171W        W90497  22.652   6.242  13.512
18172W        W90498  38.878  42.016  12.514
18173W        W90499  13.774   3.907  12.978
18174W        W90500  19.257   0.779   4.303
18175W        W90501  33.124   7.331  11.588
18176W        W90502  38.847  32.529  12.356
18177W        W90503  31.476  20.595  14.980
18178W        W90504  10.827  28.645  14.885
18179W        W90505  26.457  23.550   1.343
18180W        W90506  15.656  20.605  11.415
18181W        W90507  17.563   4.867  12.867
18182W        W90508  18.134  42.942   3.714
18183W        W90509  26.103  29.069  14.485
18184W        W90510  38.973  35.404   3.758
18185W        W90511  35.538   5.216  12.389
18186W        W90512  27.084  21.105  11.109
18187W        W90513  10.267  18.180   1.382
18188W        W90514  14.777  21.700  14.409
18189W        W90515  23.728  15.280   0.736
18190W        W90516  23.047  41.813  14.949
18191W        W90517   0.444  42.418  10.420
18192W        W90518   0.981   6.833  14.893
18193W        W90519   8.690   2.415   2.261
18194W        W90520  16.624  22.061  14.283
18195W        W90521  14.663  41.944  11.376
18196W        W90522  11.702  26.485   1.417
18197W        W90523   2.460  11.624  13.857
18198W        W90524  13.243  17.112  12.484
18199W        W90525  35.585  38.948  12.834
18200W        W90526   0.742  19.167   3.835
18201W        W90527   6.396  21.245   0.941
18202W        W90528  31.526  40.846  11.467
18203W        W90529   7.723  28.989  13.996
18204W        W90530  20.084  29.956  11.877
18205W        W90531  16.282  31.412   2.868
18206W        W90532  19.595  40.916   4.824
18207W        W90533  24.061  20.249   1.431
18208W        W90534   9.390   2.955   4.770
18209W        W90535   3.275  39.381   0.396
18210W        W90536  37.468  21.700  11.889
18211W        W90537  27.471  37.483  10.978
18212W        W90538  14.716  43.909   3.757
18213W        W90539  16.099   2.950   1.254
18214W        W90540  24.695  39.914   4.249
18215W        W90541  28.627   4.282  12.401
18216W        W90542  38.885   4.278  11.091
18217W        W90543  18.672  20.765   0.837
18218W        W90544  41.302  21.550  11.059
18219W        W90545   2.929  18.117   2.662
18220W        W90546  39.029  23.177   1.712
18221W        W90547  11.834  21.640   4.656
18222W        W90548  18.758  31.634  14.420
18223W        W90549   0.877  14.806   0.802
18224W        W90550  33.122   9.850  10.428
18225W        W90551  18.641  35.093   5.268
18226W        W90552  12.631  16.178   3.772
18227W        W90553  28.627  18.200  11.081
18228W        W90554   7.757  17.151   3.342
18229W        W90555  34.564   5.433   1.926
18230W        W90556  29.537   1.890  10.506
18231W        W90557   8.257  17.752  14.786
18232W        W90558  16.099  27.587   0.339
18233W        W90559  33.535  34.880  14.788
18234W        W90560  39.837  16.099  12.421
18235W        W90561  31.919  17.737   0.803
18236W        W90562  31.987  10.737   0.967
18237W        W90563  30.430  15.726   2.860
18238W        W90564  44.289  12.195  14.440
18239W        W90565  22.524   4.881   5.131
18240W        W90566   1.789   7.217  10.970
18241W        W90567   5.320  18.280  14.436
18242W        W90568  35.927  16.094   4.353
18243W        W90569   6.847  40.937  13.329
18244W        W90570  26.987  23.734  13.327
18245W        W90571  33.438  42.979   0.793
18246W        W90572  19.608  42.295  10.568
18247W        W90573  25.675  23.002   0.440
18248W        W90574  17.615  28.648  14.482
18249W        W90575   9.347   5.201  14.446
18250W        W90576  32.568  39.906   0.779
18251W        W90577  28.070   1.772   4.691
18252W        W90578  17.082  22.677  12.032
18253W        W90579  40.532  36.591  14.785
18254W        W90580  15.177  14.260  14.012
18255W        W90581  40.385  12.272   1.719
18256W        W90582  38.910  32.914  11.069
18257W        W90583   3.869  22.699   5.207
18258W        W90584  35.600  17.187   4.134
18259W        W90585   8.781  30.551  14.322
18260W        W90586  20.634  31.564   0.482
18261W        W90587  31.413  29.009   2.899
18262W        W90588   9.738  13.334  14.032
18263W        W90589  16.201  19.732  12.520
18264W        W90590  16.720  43.410   3.694
18265W        W90591  40.512  41.003  14.276
18266W        W90592  11.309  10.248  12.898
18267W        W90593   5.356  24.521  11.525
18268W        W90594  19.639  10.384  14.908
18269W        W90595  22.670  12.210   3.180
18270W        W90596  44.787  43.361  12.570
18271W        W90597  17.588   1.827   0.430
18272W        W90598  14.767   2.337  12.343
18273W        W90599  17.303   0.978   2.702
18274W        W90600  26.622  42.779  13.525
18275W        W90601  14.308  42.989  14.476
18276W        W90602   3.920  25.033   1.695
18277W        W90603   4.412  31.406   1.388
18278W        W90604  33.589   9.197   4.614
18279W        W90605  18.243  31.999   1.784
18280W        W90606  35.907  15.136  11.970
18281W        W90607  16.296  19.187  10.974
18282W        W90608  18.246  26.209   3.187
18283W        W90609  15.756   9.285  11.070
18284W        W90610   0.881   7.863   1.904
18285W        W90611  39.041  30.581  12.996
18286W        W90612   8.193  28.009  14.327
18287W        W90613   4.302   9.178   3.641
18288W        W90614  25.553  25.197  14.018
18289W        W90615  27.038  36.491   3.289
18290W        W90616  21.177  19.642  11.459
18291W        W90617   0.359  29.137  11.942
18292W        W90618   9.695  12.126  14.411
18293W        W90619  20.761  42.525   4.708
18294W        W90620  34.588   3.711  11.112
18295W        W90621  20.251  20.166   4.295
18296W        W90622   7.666  29.064  12.536
18297W        W90623  32.083  43.353  14.327
18298W        W90624  31.053  19.209  14.955
18299W        W90625  14.629  17.719   1.322
18300W        W90626  29.541  41.302   4.607
18301W        W90627  17.799   2.343  11.552
18302W        W90628  40.948  42.315  12.386
18303W        W90629   9.890  20.216  10.909
18304W        W90630  43.971  33.881   1.844
18305W        W90631  34.575  38.846   4.139
18306W        W90632  44.940   7.277  13.867
18307W        W90633  29.050  13.349   1.409
18308W        W90634  37.838   7.226   3.708
18309W        W90635  16.799  41.828   1.357
18310W        W90636  34.488  14.172   0.764
18311W        W90637   0.434   6.754  13.902
18312W        W90638  35.069  41.328  13.904
18313W        W90639   6.406  25.661   0.799
18314W        W90640  42.974  30.588  10.050
18315W        W90641  30.921  29.918   0.332
18316W        W90642  40.461  26.155  14.946
18317W        W90643   1.372  44.415   2.418
18318W        W90644  18.592   6.232  14.845
18319W        W90645   3.434  13.147  11.107
18320W        W90646  31.444   5.840  13.345
18321W        W90647  33.544  34.942  10.551
18322W        W90648  20.207  23.659  14.333
18323W        W90649  33.617  23.492  11.883
18324W        W90650  22.056  17.072   0.457
18325W        W90651  31.625  20.730  12.926
18326W        W90652  37.050  11.318   2.248
18327W        W90653  24.039  24.028  14.335
18328W        W90654  40.459  10.174  11.591
18329W        W90655  35.933  32.499   0.458
18330W        W90656  35.949  38.385   4.254
18331W        W90657  42.462   5.380  11.581
18332W        W90658   3.389  28.141  13.847
18333W        W90659  12.160  40.809   4.199
18334W        W90660  11.350  24.132  11.531
18335W        W90661  30.973  36.387  12.507
18336W        W90662   7.308  28.153   3.160
18337W        W90663  17.637   0.756  10.973
18338W        W90664   3.771   0.928  11.378
18339W        W90665   4.441  32.892  14.889
18340W        W90666  33.489   2.459  13.034
18341W        W90667  15.140  22.217   2.384
18342W        W90668  42.400  37.532   2.294
18343W        W90669  40.801  12.198  10.906
18344W        W90670  33.003  37.953   2.829
18345W        W90671  13.114  30.006  12.860
18346W        W90672  40.958  20.090  11.934
18347W        W90673  38.495  37.508   2.903
18348W        W90674  28.645  43.922   0.929
18349W        W90675  15.163  42.867   2.288
18350W        W90676  23.224   2.912   0.928
18351W        W90677  16.208   8.665   2.878
18352W        W90678  32.939   4.848   0.920
18353W        W90679  19.673  42.858  13.988
18354W        W90680   9.367  26.467  12.516
18355W        W90681  37.422  35.886   1.317
18356W        W90682   8.780  37.036   2.772
18357W        W90683   1.805   1.950   0.857
18358W        W90684  44.395  31.591   0.248
18359W        W90685  16.318  34.115  10.544
18360W        W90686  42.988  24.584   1.763
18361W        W90687   1.819  15.085  11.390
18362W        W90688  16.569  33.472   2.379
18363W        W90689  38.053  13.185  13.940
18364W        W90690  29.521  31.478   3.691
18365W        W90691  15.322   3.320  10.993
18366W        W90692  17.302  31.417  14.924
18367W        W90693  14.236  42.999   0.394
18368W        W90694  34.917  17.683   1.220
18369W        W90695  23.013  16.254  13.933
18370W        W90696  15.751  34.534  13.506
18371W        W90697  16.572  24.702   2.303
18372W        W90698  44.362  31.514  11.002
18373W        W90699  13.315   7.267  14.275
18374W        W90700  32.503  31.035  10.574
18375W        W90701  11.804  29.539  14.849
18376W        W90702  25.569  20.747   0.943
18377W        W90703  23.235  14.593  14.303
18378W        W90704  41.004   4.248  14.969
18379W        W90705  30.594  17.612   3.307
18380W        W90706  35.594  44.377   3.249
18381W        W90707  44.856  15.663   2.227
18382W        W90708  17.788  17.267   2.796
18383W        W90709  13.150   1.863   3.243
18384W        W90710  12.685  27.997  11.446
18385W        W90711  21.197  31.925   4.720
18386W        W90712  20.036  10.269  14.019
18387W        W90713  14.106  18.052   2.789
18388W        W90714   2.812  28.090   2.812
18389W        W90715  23.238   5.916   3.199
18390W        W90716   1.735  44.414  12.059
18391W        W90717  30.433  35.364   3.808
18392W        W90718  36.070  32.460   3.835
18393W        W90719  14.136  14.725   2.289
18394W        W90720   9.372  28.541  13.527
18395W        W90721  17.700  26.475   3.186
18396W        W90722  44.484  10.181   1.899
18397W        W90723  18.205   5.376  11.027
18398W        W90724  44.484   6.219   9.960
18399W        W90725  29.053  27.995   4.174
18400W        W90726  34.587   4.723   4.704
18401W        W90727  24.584  39.053   3.654
18402W        W90728  38.856  17.644  13.039
18403W        W90729   1.923  41.790  12.978
18404W        W90730   6.912  42.316  13.413
18405W        W90731  38.056  29.920   2.209
18406W        W90732  28.968  35.077  12.079
18407W        W90733  41.870  33.573   0.323
18408W        W90734  14.689  44.830   1.285
18409W        W90735   6.799  24.005   4.131
18410W        W90736  12.674   9.306   4.725
18411W        W90737  26.113  32.468  11.891
18412W        W90738  14.770  15.088   0.796
18413W        W90739   7.299  33.574  11.572
18414W        W90740   9.214  17.568  13.865
18415W        W90741  42.466  39.505  13.922
18416W        W90742   1.797   2.367   4.798
18417W        W90743  19.725   3.751   4.246
18418W        W90744   7.326  34.416  13.458
18419W        W90745  10.264   1.932   3.769
18420W        W90746  16.251  11.336   1.899
18421W        W90747  15.179  38.422  14.312
18422W        W90748  24.207  31.980   1.830
18423W        W90749  18.713  36.878   2.680
18424W        W90750  42.021  11.857   0.315
18425W        W90751  38.403  40.516   3.806
18426W        W90752  27.478  43.985   3.699
18427W        W90753  21.140  19.697  14.956
18428W        W90754  16.568  28.608  11.915
18429W        W90755  15.787  12.670   3.798
18430W        W90756   0.466  44.996  13.008
18431W        W90757   0.349  11.697   3.309
18432W        W90758  14.119  35.091  14.429
18433W        W90759  42.986  21.669  12.409
18434W        W90760  37.934   5.766  12.062
18435W        W90761   2.397  21.607  13.037
18436W        W90762  27.478  12.141   2.368
18437W        W90763  12.185  27.661   2.665
18438W        W90764  28.545  27.975  12.410
18439W        W90765  29.923  38.501  11.555
18440W        W90766  20.224   0.351   4.601
18441W        W90767  44.488  37.021   2.786
18442W        W90768   8.300  30.092   4.268
18443W        W90769  15.667  35.542  12.979
18444W        W90770  36.381   4.311  13.802
18445W        W90771   0.871  12.658   0.749
18446W        W90772  21.080  20.724  11.508
18447W        W90773  39.317   2.738   3.811
18448W        W90774  31.516  16.208   0.743
18449W        W90775  17.243  36.020   1.247
18450W        W90776   9.241  18.294  12.036
18451W        W90777  35.044  42.863   0.776
18452W        W90778  43.378   7.899  14.376
18453W        W90779  22.705  33.042  13.384
18454W        W90780   3.290  31.600  10.925
18455W        W90781  40.023  25.077  12.524
18456W        W90782  12.850  36.384  10.969
18457W        W90783  32.442  31.912   1.405
18458W        W90784  26.103  12.660   2.803
18459W        W90785  10.202   1.312  10.905
18460W        W90786  22.513  29.934   1.763
18461W        W90787   0.751  36.083   1.338
18462W        W90788   0.752  20.563   2.902
18463W        W90789   2.738   3.363   1.917
18464W        W90790  35.086  40.876   2.203
18465W        W90791   1.955  17.247   0.374
18466W        W90792  15.628  32.000   3.360
18467W        W90793   7.403  14.751   1.710
18468W        W90794  11.706   1.460   4.613
18469W        W90795  22.231  12.700   2.211
18470W        W90796  39.397  26.602   1.283
18471W        W90797  36.985  34.959   3.644
18472W        W90798  38.010  41.306   4.253
18473W        W90799  22.160  21.094  11.979
18474W        W90800  36.010  34.975  11.095
18475W        W90801  26.165  43.861   0.362
18476W        W90802  17.225   5.314   1.373
18477W        W90803   0.305  35.087   4.598
18478W        W90804  44.815  36.912  11.066
18479W        W90805   6.395  42.465  12.406
18480W        W90806  30.003  19.548  10.496
18481W        W90807  29.953  29.161  13.814
18482W        W90808  43.823  20.620  10.597
18483W        W90809  13.141   5.740  13.492
18484W        W90810  18.707  16.296   0.421
18485W        W90811  33.971  27.457  11.086
18486W        W90812  10.642  16.123   1.896
18487W        W90813  21.259  13.739   4.753
18488W        W90814  16.641  20.574  12.873
18489W        W90815  34.504  26.191  12.864
18490W        W90816   4.278  26.590  12.562
18491W        W90817  40.892   5.423  14.798
18492W        W90818  37.466  32.954   2.699
18493W        W90819  11.685  13.253   0.451
18494W        W90820  41.370  13.194   0.266
18495W        W90821  25.160  17.565   1.434
18496W        W90822  33.071  35.065   1.866
18497W        W90823  31.489  11.305   4.826
18498W        W90824  28.045  35.958   0.480
18499W        W90825  40.909  25.204  11.882
18500W        W90826  41.793   8.826  14.998
18501W        W90827  34.002   9.739  13.998
18502W        W90828  24.712  13.835   2.393
18503W        W90829  16.611   1.739   1.335
18504W        W90830   3.427  43.272   2.401
18505W        W90831   4.912  41.937  13.419
18506W        W90832  34.056  40.392   0.876
18507W        W90833  13.700  16.110  12.960
18508W        W90834   2.760  26.152   4.262
18509W        W90835  23.622  13.149  10.910
18510W        W90836   3.813  10.383  14.968
18511W        W90837  41.864  24.049   5.283
18512W        W90838  19.746  30.425  11.522
18513W        W90839  14.160   5.380  10.504
18514W        W90840   6.262   1.345   0.336
18515W        W90841  34.883  33.032  14.372
18516W        W90842  30.475  23.716   0.306
18517W        W90843  44.993  12.722  13.956
18518W        W90844  17.760   0.799   4.263
18519W        W90845   2.431   2.751   3.216
18520W        W90846   0.792   8.226   1.325
18521W        W90847   5.714  31.436  14.014
18522W        W90848  25.503   5.218   3.149
18523W        W90849  11.216  32.989  13.321
18524W        W90850  18.694  25.062  11.497
18525W        W90851  21.023  33.496   4.649
18526W        W90852  36.391  23.706   1.294
18527W        W90853  18.087  22.025   2.850
18528W        W90854  16.252  20.207   2.819
18529W        W90855  25.506  21.738  12.472
18530W        W90856  20.602   9.855   0.465
18531W        W90857  33.435  36.899  11.016
18532W        W90858  25.067  39.452  10.631
18533W        W90859   3.872  40.439  11.398
18534W        W90860  33.437   6.424   4.156
18535W        W90861  28.068  10.348   5.291
18536W        W90862  24.025  32.399   3.815
18537W        W90863   5.892  10.762  13.929
18538W        W90864   8.727  15.168   1.441
18539W        W90865  14.810  12.743   0.794
18540W        W90866  21.112  32.945  14.391
18541W        W90867  24.214  30.638   3.813
18542W        W90868  42.837   2.932   4.231
18543W        W90869   6.749  18.249   2.224
18544W        W90870  27.062  21.650  10.907
18545W        W90871  25.670   2.848   3.801
18546W        W90872  25.566  44.941  11.035
18547W        W90873  27.198  19.213  11.113
18548W        W90874  38.377  40.937  11.121
18549W        W90875  23.121  15.760  11.102
18550W        W90876  19.194  42.495   0.773
18551W        W90877  10.815  34.913  13.908
18552W        W90878   6.746  33.496   3.242
18553W        W90879  43.831  22.698  10.963
18554W        W90880  39.455  24.035   1.804
18555W        W90881  31.463  42.837  11.582
18556W        W90882  26.609   4.801   2.881
18557W        W90883   7.702  24.023   2.418
18558W        W90884  25.657   3.216  11.020
18559W        W90885  18.680  43.803  14.440
18560W        W90886  40.489  12.685   3.816
18561W        W90887  43.387  36.506   3.748
18562W        W90888  12.650   8.406   4.169
18563W        W90889  39.535  32.516   0.758
18564W        W90890  40.816   4.355   1.698
18565W        W90891  20.215  25.083   0.874
18566W        W90892  29.052  15.216  13.873
18567W        W90893  13.178  35.072  10.539
18568W        W90894  37.480  31.538  13.457
18569W        W90895  36.841   8.868   2.808
18570W        W90896  15.095  35.006   0.258
18571W        W90897  36.564   8.221  13.840
18572W        W90898  19.610   6.885   0.833
18573W        W90899  44.315  28.673  11.562
18574W        W90900   8.271  20.210  12.418
18575W        W90901  16.264  26.674   0.946
18576W        W90902  15.217  39.501   1.695
18577W        W90903  11.720   4.332  11.442
18578W        W90904  17.201  24.666  12.852
18579W        W90905  16.611  31.564   3.376
18580W        W90906  19.551  38.357  12.078
18581W        W90907  27.458   0.797  11.957
18582W        W90908  37.066  28.640   1.403
18583W        W90909  19.236  12.811  12.478
18584W        W90910   8.750  19.596   1.791
18585W        W90911   0.870  12.728   4.125
18586W        W90912  44.502  20.126  11.459
18587W        W90913  23.038  41.304  12.000
18588W        W90914  25.212  19.751   3.835
18589W        W90915   5.823   0.907   3.289
18590W        W90916   5.229  26.612   0.456
18591W        W90917   4.302  14.680  14.876
18592W        W90918  15.682  26.554   2.296
18593W        W90919  19.127  16.736   2.345
18594W        W90920  41.969  18.129  13.483
18595W        W90921  22.509  20.149  12.531
18596W        W90922  29.949   2.406  13.049
18597W        W90923  43.401   6.299   3.641
18598W        W90924  13.828  16.798  14.387
18599W        W90925  13.638  38.431   4.600
18600W        W90926  37.434  33.024  13.487
18601W        W90927  28.519  16.165  11.435
18602W        W90928   7.278  23.689  10.611
18603W        W90929   9.154  16.159   1.288
18604W        W90930  43.933  43.787   1.878
18605W        W90931  34.992   3.233   0.902
18606W        W90932  39.830  26.692   4.680
18607W        W90933   4.236   2.833  13.426
18608W        W90934  20.721  11.671   4.179
18609W        W90935  30.625  10.365   4.782
18610W        W90936  12.813  21.261  11.049
18611W        W90937   7.824  34.422  14.427
18612W        W90938  36.975  44.262  10.904
18613W        W90939  16.715  11.679  11.100
18614W        W90940  13.816  13.162   2.358
18615W        W90941   9.768  31.514  12.080
18616W        W90942  32.115  29.599  11.956
18617W        W90943  36.896  39.945   0.798
18618W        W90944  24.493  16.157  13.962
18619W        W90945  32.124  16.205  13.517
18620W        W90946  18.747  15.289   4.638
18621W        W90947  29.009   1.378   3.823
18622W        W90948  10.702  23.182  13.862
18623W        W90949  11.310  27.549  13.976
18624W        W90950  13.310   4.306   1.875
18625W        W90951  19.624   6.359   0.913
18626W        W90952  28.931  25.091  11.049
18627W        W90953   0.908  23.030   1.704
18628W        W90954  18.624  39.370   3.629
18629W        W90955   8.207  27.094  11.954
18630W        W90956  20.686  29.961  12.409
18631W        W90957  31.612  24.085   0.770
18632W        W90958  10.247   0.847   0.929
18633W        W90959   2.403  27.131  11.974
18634W        W90960  10.146  42.320  13.837
18635W        W90961   5.829  37.981  10.961
18636W        W90962   2.949  38.076  14.971
18637W        W90963  17.606  11.233  10.600
18638W        W90964  13.621  15.188   1.330
18639W        W90965   6.400  22.718  14.437
18640W        W90966  43.964   6.738   4.251
18641W        W90967  17.737  35.414   0.482
18642W        W90968  26.583   6.417  11.918
18643W        W90969  41.975  22.010  11.438
18644W        W90970  15.237   3.355   3.762
18645W        W90971   8.782  16.581   1.726
18646W        W90972  25.528  19.281  10.949
18647W        W90973  23.518  20.632  13.315
18648W        W90974   6.286   9.194  11.891
18649W        W90975  33.565  27.477  11.920
18650W        W90976  17.644  30.595   2.667
18651W        W90977  10.182  27.684   3.200
18652W        W90978  27.110  22.122   4.318
18653W        W90979  14.812  13.648  10.409
18654W        W90980   5.784   9.226  10.454
18655W        W90981  12.667  22.049  14.282
18656W        W90982  16.567  16.762  11.494
18657W        W90983  33.595   4.808   1.366
18658W        W90984  28.508  13.288   2.415
18659W        W90985  22.022   4.262   0.243
18660W        W90986   5.268  20.533  14.500
18661W        W90987   3.347  41.901  10.581
18662W        W90988   8.701  39.451   0.336
18663W        W90989  31.951   9.332   3.223
18664W        W90990  30.616  18.665  11.913
18665W        W90991  31.056  34.402  10.956
18666W        W90992  26.989  29.438  13.917
18667W        W90993  25.104  41.362  14.816
18668W        W90994  12.336  33.924   3.183
18669W        W90995  31.437   9.738   3.808
18670W        W90996   0.744   3.739  12.497
18671W        W90997  13.173  43.853  10.535
18672W        W90998  10.218  30.045   5.165
18673W        W90999  38.953  13.302  11.081
18674W        W91000  34.475  30.079   4.273
18675W        W91001  14.678  32.002  10.473
18676W        W91002  37.411  17.629  13.982
18677W        W91003   5.734  21.670  12.425
18678W        W91004   8.717  22.228   4.329
18679W        W91005  20.675  23.986  11.904
18680W        W91006  15.177   8.776  11.042
18681W        W91007  30.933  36.021   3.307
18682W        W91008  44.829   4.882   4.318
18683W        W91009  39.866  26.114  12.992
18684W        W91010  17.799  19.256   0.449
18685W        W91011  31.535  40.050  12.455
18686W        W91012  30.063  22.636  14.401
18687W        W91013  17.268  35.364  11.482
18688W        W91014  41.535  12.678   4.260
18689W        W91015  37.972  10.163   4.246
18690W        W91016   9.263  16.758   2.255
18691W        W91017  29.930  34.526   0.294
18692W        W91018  21.557  11.360   0.842
18693W        W91019  18.768  31.150   2.318
18694W        W91020  38.028  15.618  12.380
18695W        W91021  34.034  31.569   4.796
18696W        W91022  42.296   3.747   1.711
18697W        W91023  40.475  28.519  13.992
18698W        W91024  15.231  28.942  14.812
18699W        W91025  25.176  30.055   4.607
18700W        W91026  40.448  17.560  13.401
18701W        W91027  32.420  21.700  11.463
18702W        W91028   0.742  18.163   1.294
18703W        W91029  35.554  43.301  10.558
18704W        W91030   9.301  26.505   3.629
18705W        W91031  17.184  25.024  14.383
18706W        W91032  15.221   7.198   3.790
18707W        W91033  24.138  28.440   0.407
18708W        W91034  22.609   8.233  12.938
18709W        W91035  37.518  40.965   3.179
18710W        W91036   6.765  41.024   2.223
18711W        W91037  12.733  15.317  11.397
18712W        W91038  21.116  33.381  11.438
18713W        W91039  18.672  11.708   1.798
18714W        W91040  18.630  21.638   3.715
18715W        W91041  22.995   2.748  10.514
18716W        W91042  27.952  25.564  14.800
18717W        W91043  26.486  26.129  12.404
18718W        W91044   0.786  39.364  14.952
18719W        W91045  26.022  34.905   4.729
18720W        W91046   0.298  12.626   2.853
18721W        W91047   7.260  29.962  14.776
18722W        W91048  35.105  32.632   4.274
18723W        W91049  27.156  35.054  10.541
18724W        W91050  19.109  10.201  13.881
18725W        W91051  30.978  21.083  11.058
18726W        W91052  10.825  39.370   1.897
18727W        W91053  10.796  28.951  14.032
18728W        W91054   8.359  25.538   3.792
18729W        W91055  20.628  23.643   3.208
18730W        W91056  26.111  39.488   2.712
18731W        W91057   1.895  12.775  12.403
18732W        W91058  30.477  37.837   1.887
18733W        W91059  22.547  33.993  14.311
18734W        W91060  25.671  17.589   2.833
18735W        W91061  19.535  30.939   2.315
18736W        W91062  41.501  17.571   4.245
18737W        W91063  17.558  38.004  11.941
18738W        W91064  26.090   3.387   4.769
18739W        W91065   3.270  21.543  11.531
18740W        W91066  11.821  37.952  11.563
18741W        W91067  27.059   0.477   2.673
18742W        W91068  43.288  35.048  13.052
18743W        W91069   4.857  29.083   1.225
18744W        W91070   0.333  12.139   0.251
18745W        W91071  38.349  34.531  12.394
18746W        W91072  34.099  43.808   1.299
18747W        W91073  32.488  42.854   1.717
18748W        W91074  42.959  25.125  14.847
18749W        W91075  32.092  10.190   1.892
18750W        W91076  24.005  32.016   5.141
18751W        W91077  33.893  44.358  13.935
18752W        W91078  24.032  27.026   1.421
18753W        W91079  28.602   2.780   0.339
18754W        W91080  28.150   5.352  10.490
18755W        W91081  26.017  39.824  13.899
18756W        W91082  24.196  13.336   2.750
18757W        W91083  20.072  36.085   2.724
18758W        W91084  12.636  40.812  12.060
18759W        W91085   6.268  20.186  13.515
18760W        W91086  32.625  24.572  12.911
18761W        W91087  28.147  16.278  11.096
18762W        W91088   6.751  43.452   0.364
18763W        W91089  25.605  24.184   1.428
18764W        W91090  30.475  40.995   0.741
18765W        W91091  15.149  23.129   4.689
18766W        W91092  28.566  35.435   1.360
18767W        W91093   5.697  20.119  13.901
18768W        W91094   4.430  25.620   2.322
18769W        W91095   9.761  36.853  12.982
18770W        W91096  18.106  36.469  12.544
18771W        W91097  13.670  22.581  13.913
18772W        W91098   3.360   5.733   4.331
18773W        W91099  20.118  17.120  12.915
18774W        W91100  37.460  23.651   4.677
18775W        W91101   5.869  40.881   0.382
18776W        W91102  26.688  23.050  14.901
18777W        W91103  38.885  23.078   0.952
18778W        W91104  11.707  43.473  14.792
18779W        W91105  20.271  33.597  10.918
18780W        W91106  26.643  20.236  10.591
18781W        W91107  18.781   0.985   2.891
18782W        W91108  28.478   3.907   1.397
18783W        W91109  31.501  39.847   1.318
18784W        W91110   2.338  18.281  11.530
18785W        W91111  13.835   7.772  13.845
18786W        W91112  35.891   3.921  11.411
18787W        W91113  20.239   0.814  14.493
18788W        W91114  17.642  32.396  12.830
18789W        W91115   3.947   8.718  11.068
18790W        W91116  19.176   9.250  11.372
18791W        W91117  24.012  21.701  11.025
18792W        W91118  16.097  15.227   4.163
18793W        W91119  27.968   5.416  14.482
18794W        W91120  20.646   5.836  13.870
18795W        W91121  31.565  27.586  12.520
18796W        W91122   3.323  15.765   3.850
18797W        W91123   0.849  35.407  14.910
18798W        W91124  43.326  27.196  12.380
18799W        W91125  37.037  30.116   0.384
18800W        W91126  42.015  28.674  12.850
18801W        W91127  32.075  33.580   5.150
18802W        W91128  31.405  14.771  12.974
18803W        W91129  33.591  34.409   1.821
18804W        W91130   8.883   9.846  12.010
18805W        W91131  10.821  21.561  12.854
18806W        W91132  39.880  21.700  13.044
18807W        W91133  19.694  26.499   3.759
18808W        W91134  38.043   6.740  13.028
18809W        W91135  29.622  18.703  11.033
18810W        W91136   9.797  38.569  13.800
18811W        W91137  15.144   1.408   4.270
18812W        W91138  21.189  27.986   0.294
18813W        W91139  26.700  27.644  13.884
18814W        W91140  30.536  40.956   1.426
18815W        W91141  35.566  29.079   3.314
18816W        W91142   8.868  10.821   4.703
18817W        W91143   1.378  11.862   2.684
18818W        W91144  12.735  12.679   0.460
18819W        W91145  22.184  33.503  11.880
18820W        W91146  19.048   0.856  13.503
18821W        W91147  14.620  34.999  10.124
18822W        W91148  17.574   7.236   3.147
18823W        W91149   4.775  14.277  10.567
18824W        W91150  16.125   3.872   0.760
18825W        W91151  36.888   9.781   2.677
18826W        W91152  12.739  16.249  10.902
18827W        W91153  14.094  16.586   4.731
18828W        W91154  15.672   3.936  13.809
18829W        W91155  15.177  19.547   0.279
18830W        W91156   6.845   3.777  14.808
18831W        W91157  21.538  11.621   0.877
18832W        W91158  21.131   8.259   0.796
18833W        W91159   5.834   5.263   3.168
18834W        W91160   0.331  35.602  11.532
18835W        W91161  23.230   5.901  10.955
18836W        W91162  24.632  35.388   3.826
18837W        W91163  21.234  40.877  11.568
18838W        W91164  26.681  38.005  11.954
18839W        W91165  29.546  27.155  14.471
18840W        W91166  16.238  27.665   3.836
18841W        W91167   7.346  30.471  12.079
18842W        W91168  18.136  20.264  11.429
18843W        W91169  26.513   6.730  14.004
18844W        W91170  12.653  20.717   4.115
18845W        W91171   5.855  19.751   2.687
18846W        W91172  38.999  31.421   9.998
18847W        W91173  31.527  16.667   3.633
18848W        W91174  23.633   8.238  12.932
18849W        W91175  25.478  17.718  14.861
18850W        W91176  32.465   8.216   1.812
18851W        W91177  42.449  44.281  12.048
18852W        W91178  32.027  39.959  14.318
18853W        W91179  26.189  44.317  12.388
18854W        W91180  24.681  33.443   2.308
18855W        W91181  19.275  37.916  13.053
18856W        W91182   2.448  30.612   1.839
18857W        W91183  40.997  24.020   0.311
18858W        W91184   7.709   5.868   2.772
18859W        W91185  34.385  17.148   0.889
18860W        W91186  20.576  32.595  13.409
18861W        W91187   8.657  25.150  13.386
18862W        W91188  14.681  34.877   5.316
18863W        W91189  17.561  35.976   1.322
18864W        W91190  10.365  43.394   2.297
18865W        W91191   5.362   8.686   1.835
18866W        W91192  37.450  10.319   0.910
18867W        W91193   6.776  37.876   4.115
18868W        W91194  12.618  18.728  13.372
18869W        W91195   2.874  25.630   0.441
18870W        W91196  12.219   6.319   2.258
18871W        W91197  12.643  13.613   2.209
18872W        W91198  24.998  23.138  10.924
18873W        W91199  17.759  23.136  13.023
18874W        W91200  38.850  33.072   1.281
18875W        W91201  27.074  35.942  14.350
18876W        W91202  24.587  29.624   2.761
18877W        W91203  43.781  28.550   4.751
18878W        W91204  23.064  39.006   5.303
18879W        W91205  40.403  31.132   1.242
18880W        W91206  27.014   2.724  11.000
18881W        W91207  17.638  28.588   4.725
18882W        W91208  23.668  28.565   3.223
18883W        W91209   2.924  43.444   0.819
18884W        W91210  41.314   0.262   2.713
18885W        W91211  33.468  13.271  11.559
18886W        W91212  13.657  26.655  12.013
18887W        W91213  33.918  31.423  12.518
18888W        W91214   5.725  44.412  13.527
18889W        W91215   0.938  26.156  12.532
18890W        W91216   6.906  28.079   2.252
18891W        W91217  32.894  15.181  10.981
18892W        W91218  44.812  15.176  13.952
18893W        W91219  27.652  31.008   2.350
18894W        W91220  14.728   3.417  11.102
18895W        W91221   0.954  11.281   0.818
18896W        W91222  41.460   0.776   3.241
18897W        W91223  24.603  13.653  11.124
18898W        W91224  32.090  40.959  12.474
18899W        W91225  23.691  13.819  12.405
18900W        W91226  43.883  32.516  12.913
18901W        W91227  38.893  35.903   2.766
18902W        W91228  11.248  31.151  11.046
18903W        W91229  42.503  11.346   0.891
18904W        W91230  20.197  20.110   2.379
18905W        W91231   6.862  36.046   3.724
18906W        W91232  29.175   2.237  11.973
18907W        W91233  39.990   7.804  13.373
18908W        W91234  26.086  36.505  14.825
18909W        W91235  42.494   9.379  11.557
18910W        W91236  43.388  14.796   3.236
18911W        W91237  14.200   1.259   2.397
18912W        W91238  32.901  30.599  12.881
18913W        W91239  32.521  25.040  13.009
18914W        W91240  35.535  23.039   4.793
18915W        W91241  14.710  17.616   1.769
18916W        W91242  43.411   5.246  11.579
18917W        W91243  44.493   8.748   1.766
18918W        W91244   3.345  29.628  14.988
18919W        W91245  16.663  19.140   1.837
18920W        W91246   6.325  34.503   2.280
18921W        W91247  21.731  20.080   2.739
18922W        W91248   6.220  30.464   4.205
18923W        W91249   9.761  10.842   4.805
18924W        W91250   9.774  30.947   1.756
18925W        W91251  31.466   9.775   4.667
18926W        W91252  44.417  30.489   1.763
18927W        W91253  24.192  28.468   1.415
18928W        W91254  34.005  32.955  10.558
18929W        W91255  14.819   1.938   0.790
18930W        W91256  36.467  18.707  13.361
18931W        W91257  36.085  36.539   3.157
18932W        W91258  40.330   1.754  14.891
18933W        W91259  26.175  16.126  11.091
18934W        W91260   6.231  28.489   0.837
18935W        W91261   4.702   7.412   1.831
18936W        W91262  24.550  25.077  13.905
18937W        W91263  14.689   2.304   3.238
18938W        W91264  17.608  12.666   0.436
18939W        W91265  13.791  42.024   3.809
18940W        W91266  32.499  15.143   3.279
18941W        W91267  25.062  36.370   0.837
18942W        W91268   4.275  23.173  10.640
18943W        W91269  35.951   0.767  11.593
18944W        W91270   5.695  14.131  11.383
18945W        W91271  14.681  40.810   3.325
18946W        W91272   2.924  37.479   0.801
18947W        W91273  31.034  33.925   2.347
18948W        W91274   0.905  25.127  12.418
18949W        W91275  36.961   0.287  13.840
18950W        W91276  42.858   1.856   1.212
18951W        W91277  35.584  26.558  14.836
18952W        W91278  33.892  35.368  12.881
18953W        W91279  36.444  35.578  12.539
18954W        W91280  20.652  27.451   3.732
18955W        W91281  38.392  17.273  13.529
18956W        W91282  36.912   4.800  10.634
18957W        W91283  34.075  23.012  14.411
18958W        W91284  31.485   1.481  12.841
18959W        W91285  27.019  14.108   4.791
18960W        W91286  23.633  19.762   0.809
18961W        W91287  18.658  16.136  11.886
18962W        W91288  38.042  37.444  11.573
18963W        W91289   0.408   5.721  14.391
18964W        W91290  28.025   2.876  13.827
18965W        W91291  34.426  25.533   3.367
18966W        W91292  31.988  11.266   4.344
18967W        W91293  32.578  11.346  12.530
18968W        W91294  17.210  11.172  12.461
18969W        W91295  24.493  25.140   2.884
18970W        W91296  32.072  33.018   2.316
18971W        W91297  26.625  37.567  11.486
18972W        W91298  27.134  10.653  13.803
18973W        W91299   1.389  14.788  10.553
18974W        W91300  39.341  13.824   1.402
18975W        W91301  32.976   6.308   1.314
18976W        W91302  31.568  39.050  14.501
18977W        W91303  13.832  41.852  12.912
18978W        W91304  18.128  34.000   2.215
18979W        W91305  23.237   1.310   3.251
18980W        W91306  26.618  24.672  12.017
18981W        W91307  12.269  10.682  14.433
18982W        W91308  34.043  29.020  13.503
18983W        W91309  26.466  12.241   3.295
18984W        W91310  33.085  38.482   3.769
18985W        W91311  37.364  25.172  14.970
18986W        W91312  16.566   5.753   0.773
18987W        W91313  21.253   8.365   1.730
18988W        W91314  18.591   1.735   1.754
18989W        W91315  20.593   5.931   0.746
18990W        W91316   2.376  23.179   0.941
18991W        W91317  44.359  36.922  11.958
18992W        W91318  38.919  36.959  13.467
18993W        W91319  23.651  42.914  14.432
18994W        W91320  30.547  30.473   4.835
18995W        W91321  42.003  37.836   4.264
18996W        W91322   4.903  25.115   3.228
18997W        W91323  20.220  28.671  14.296
18998W        W91324   6.837  17.712  13.378
18999W        W91325   5.908  37.392  13.995
19000W        W91326  41.303  38.468   3.355
19001W        W91327  31.507  25.982  12.977
19002W        W91328  29.937  28.141   9.948
19003W        W91329  24.554  39.517   4.642
19004W        W91330  41.823  17.222  10.421
19005W        W91331  13.245   2.322  11.920
19006W        W91332  27.682  41.323  11.503
19007W        W91333  13.130  38.439  14.340
19008W        W91334  16.181  16.794   1.217
19009W        W91335  26.638  15.205  13.460
19010W        W91336  17.730   2.880  11.597
19011W        W91337  37.545   1.788  13.013
19012W        W91338  16.790  35.600  11.371
19013W        W91339  34.571  44.388   4.279
19014W        W91340  14.600  11.238  11.892
19015W        W91341  17.249  34.590   0.301
19016W        W91342   5.731  19.081  13.033
19017W        W91343  15.628  37.940  11.866
19018W        W91344  12.824  11.319   1.294
19019W        W91345   0.296  37.047   1.311
19020W        W91346   6.427  35.567   1.703
19021W        W91347  16.600  34.894  11.474
19022W        W91348   2.939   4.205   2.359
19023W        W91349  40.355  10.161   0.479
19024W        W91350  38.325   0.826   3.370
19025W        W91351  17.221   1.758   9.932
19026W        W91352  23.685  25.494   3.743
19027W        W91353  36.418   1.242   4.742
19028W        W91354  42.862  27.096  14.886
19029W        W91355  41.828  23.025  10.495
19030W        W91356   7.743  41.516  12.966
19031W        W91357   7.820  15.801   0.437
19032W        W91358   4.751   7.747   2.354
19033W        W91359  40.999  14.308  13.483
19034W        W91360  26.124  10.816   3.767
19035W        W91361  17.204   2.405   1.265
19036W        W91362  12.814   7.191  14.356
19037W        W91363  19.073  16.072  11.900
19038W        W91364  18.098  12.697   0.256
19039W        W91365  40.925  25.219   1.769
19040W        W91366  39.399   6.734   2.712
19041W        W91367  40.978  33.981   1.861
19042W        W91368   4.207  39.358   0.355
19043W        W91369  14.230  43.784  13.425
19044W        W91370   0.886  18.582   4.145
19045W        W91371  19.557   8.301  11.046
19046W        W91372  38.053  20.053   4.791
19047W        W91373  42.504  36.363   1.215
19048W        W91374   6.705  39.823   3.276
19049W        W91375   0.761  30.151   2.755
19050W        W91376  32.516  18.767  11.879
19051W        W91377  25.138   8.221  10.607
19052W        W91378   8.828   7.355  13.045
19053W        W91379  38.431  11.699  14.865
19054W        W91380   4.815  29.161  11.048
19055W        W91381   2.269   1.324   3.182
19056W        W91382  14.749   8.192   2.251
19057W        W91383  14.805   1.760  11.902
19058W        W91384  41.479  15.726  10.417
19059W        W91385  41.887  23.199   3.800
19060W        W91386   7.764  33.084   3.730
19061W        W91387  41.404  16.247   4.631
19062W        W91388  23.213  22.227  12.057
19063W        W91389  17.149  34.598  10.549
19064W        W91390  22.042  34.526  10.571
19065W        W91391  19.230  29.919   3.218
19066W        W91392  21.092   0.867   3.633
19067W        W91393  19.201  31.406  13.009
19068W        W91394  11.810  24.980   5.596
19069W        W91395  23.091  24.715  13.353
19070W        W91396  14.799  35.512  10.154
19071W        W91397  22.142  41.839  11.924
19072W        W91398  25.688  32.532  12.957
19073W        W91399  28.078   4.327   0.843
19074W        W91400  18.227  44.471  10.925
19075W        W91401  26.110   4.764  10.114
19076W        W91402  28.543   5.746  12.934
19077W        W91403  10.265  23.530  12.448
19078W        W91404  35.040  20.532  14.330
19079W        W91405   8.264  42.911  12.049
19080W        W91406  34.539   0.322   1.392
19081W        W91407  17.776  22.623   3.845
19082W        W91408  16.120  13.662  14.372
19083W        W91409  26.520  19.255   2.759
19084W        W91410  32.515  17.765  14.938
19085W        W91411  29.653   7.236   2.795
19086W        W91412   1.975   8.820  11.877
19087W        W91413   0.956  42.879  11.539
19088W        W91414  44.854   9.795  11.552
19089W        W91415  24.591   6.305   3.201
19090W        W91416   8.817  42.903   2.205
19091W        W91417  43.425  19.251   2.772
19092W        W91418  34.532  20.228  13.394
19093W        W91419   3.338  27.194  11.473
19094W        W91420  17.188  41.442  11.987
19095W        W91421  11.155  31.985  10.514
19096W        W91422  28.671   8.659  12.384
19097W        W91423  43.880  40.318  13.941
19098W        W91424  10.337  14.138   0.295
19099W        W91425  37.570  24.524  11.959
19100W        W91426  15.215  28.652  14.901
19101W        W91427  18.194  43.335  11.123
19102W        W91428  29.111  20.116   4.290
19103W        W91429  12.332  17.206   0.311
19104W        W91430   7.336  38.540  13.446
19105W        W91431   8.803  27.689  13.795
19106W        W91432  44.309  27.659  13.979
19107W        W91433  38.876  16.244   0.819
19108W        W91434  13.202   4.303   1.357
19109W        W91435  21.224  19.652  11.934
19110W        W91436   4.280   5.689  13.523
19111W        W91437  16.682   8.347   0.391
19112W        W91438   2.356   0.355  10.609
19113W        W91439   2.233  44.316   1.749
19114W        W91440  28.998  13.794   1.213
19115W        W91441  38.480  14.644   2.295
19116W        W91442   8.860  21.658   0.244
19117W        W91443  37.896  10.367  13.325
19118W        W91444  32.429   8.732   4.222
19119W        W91445  29.086  10.791  13.937
19120W        W91446  28.587  11.746   2.344
19121W        W91447  25.650  23.035   1.824
19122W        W91448  34.378  15.788  13.058
19123W        W91449  15.194   5.805  10.992
19124W        W91450  15.764  10.335  12.855
19125W        W91451  10.202  30.122  14.915
19126W        W91452  18.135  21.210  14.383
19127W        W91453  15.796  15.096  10.467
19128W        W91454   6.704  42.481   0.911
19129W        W91455  13.624  42.956  13.847
19130W        W91456  35.107   8.195  11.980
19131W        W91457  13.294  33.043  14.277
19132W        W91458  33.060  44.307  12.412
19133W        W91459  10.290  26.629  12.020
19134W        W91460   8.320   4.847  11.060
19135W        W91461  28.658  12.227  14.288
19136W        W91462  30.164  29.138  13.003
19137W        W91463  25.975  17.606   5.676
19138W        W91464   7.738  31.497  10.934
19139W        W91465  42.403  27.604  11.408
19140W        W91466  18.568  41.319   5.176
19141W        W91467   9.275  38.504   0.249
19142W        W91468  33.040  38.923   4.305
19143W        W91469  31.454  25.094   4.202
19144W        W91470  11.171   6.885  10.535
19145W        W91471   8.323  33.562   1.787
19146W        W91472  29.019  19.053   0.906
19147W        W91473  13.349   0.877   5.198
19148W        W91474  13.643  23.170  12.838
19149W        W91475  41.959  29.147   4.642
19150W        W91476   9.827  42.831   0.328
19151W        W91477   0.944  41.849   0.938
19152W        W91478  30.138  11.861  10.640
19153W        W91479   3.426   0.775  11.545
19154W        W91480   8.160  37.380  11.485
19155W        W91481  35.553   8.210  11.456
19156W        W91482  27.608  13.765   2.851
19157W        W91483  15.739  35.939  12.444
19158W        W91484  16.570   5.314  12.568
19159W        W91485  23.050   8.205  14.825
19160W        W91486  19.092  20.076  12.376
19161W        W91487  18.605  34.483   1.818
19162W        W91488  19.772  10.191   0.333
19163W        W91489   1.847   0.799  12.891
19164W        W91490  37.042  37.520   3.633
19165W        W91491  32.598  38.044   1.849
19166W        W91492  18.062  21.541   3.788
19167W        W91493   2.419  32.467   0.288
19168W        W91494  37.494  25.684   3.162
19169W        W91495   1.899   9.707   9.461
19170W        W91496  19.247   1.837   3.722
19171W        W91497  27.122   3.461   2.903
19172W        W91498  25.181  14.184  14.344
19173W        W91499   8.220  43.938  10.622
19174W        W91500   7.889   2.340   3.697
19175W        W91501  26.530  32.463  12.857
19176W        W91502   1.405  24.087   3.186
19177W        W91503  12.128  20.553  14.285
19178W        W91504  14.711   3.445   4.134
19179W        W91505  14.112  13.271   4.645
19180W        W91506  21.216  28.635   1.715
19181W        W91507  43.932  14.267  10.958
19182W        W91508  19.213  27.505  12.938
19183W        W91509  33.055  30.471  10.610
19184W        W91510  24.102  42.822   3.744
19185W        W91511   9.692  40.496   4.777
19186W        W91512   3.278  20.525  11.863
19187W        W91513  13.105  43.446   3.297
19188W        W91514  11.175  35.854   2.251
19189W        W91515  35.091  44.397  13.043
19190W        W91516   1.298  39.947  11.111
19191W        W91517  29.972  20.115  13.927
19192W        W91518  15.263  11.293  12.009
19193W        W91519  16.810  44.889   3.739
19194W        W91520  13.210   3.335  14.279
19195W        W91521  38.378   8.402  13.050
19196W        W91522   8.867  24.599   0.890
19197W        W91523  13.192  37.447   4.241
19198W        W91524  40.381  19.230  14.915
19199W        W91525  38.829  20.678   1.368
19200W        W91526  12.154  27.097   9.992
19201W        W91527  22.030  14.265  12.897
19202W        W91528   2.936  21.067  12.567
19203W        W91529   0.431  36.474  14.865
19204W        W91530  12.340  18.153   1.375
19205W        W91531   1.448  11.780  14.025
19206W        W91532  13.697  29.081  12.832
19207W        W91533   6.346  35.375  12.935
19208W        W91534   8.671  11.757   3.368
19209W        W91535  18.565  12.339  10.457
19210W        W91536  22.531  37.875  10.118
19211W        W91537  12.278  19.718  13.976
19212W        W91538  42.443  12.252   4.297
19213W        W91539  30.121   9.885  11.531
19214W        W91540   1.835  34.448   2.710
19215W        W91541  42.028   8.369  11.884
19216W        W91542   8.876  26.951   1.742
19217W        W91543  34.387  37.448  12.529
19218W        W91544  35.976  22.062  13.520
19219W        W91545   8.662  42.356   0.839
19220W        W91546   2.381  11.833   1.709
19221W        W91547  43.483  23.189   2.780
19222W        W91548  12.290  29.630   2.896
19223W        W91549  25.654  34.612  10.053
19224W        W91550  25.989  29.652   1.256
19225W        W91551  41.042  37.992  12.063
19226W        W91552  43.474   2.948  12.461
19227W        W91553  19.048  15.632   0.810
19228W        W91554  10.636  41.526  12.979
19229W        W91555  38.968  35.861   3.839
19230W        W91556  10.775  20.764   2.883
19231W        W91557  29.921  33.963   4.292
19232W        W91558  18.625  28.039   5.312
19233W        W91559  32.576  31.570   3.681
19234W        W91560   9.765  38.847  14.335
19235W        W91561  12.247   3.343   0.314
19236W        W91562   6.287   0.479   3.861
19237W        W91563   3.932  14.323   0.888
19238W        W91564   7.410  16.124  13.327
19239W        W91565  25.055  10.876  14.935
19240W        W91566  38.334  13.152  11.507
19241W        W91567   8.657  29.639  13.954
19242W        W91568  13.226  33.490  12.917
19243W        W91569  43.991  30.506   0.403
19244W        W91570  21.199  17.074   5.226
19245W        W91571  12.747  27.030   0.286
19246W        W91572  22.642  31.565  10.542
19247W        W91573  34.477  36.359   4.323
19248W        W91574  12.799  23.500   4.695
19249W        W91575   8.889   7.334  14.454
19250W        W91576  16.638  42.893  14.284
19251W        W91577  31.573  21.174  13.037
19252W        W91578  37.359  33.605  12.356
19253W        W91579  44.940  26.487  14.382
19254W        W91580  36.541  31.483  13.999
19255W        W91581  31.416   1.842   1.829
19256W        W91582  32.503  42.295   1.441
19257W        W91583  29.609  38.417  14.363
19258W        W91584   4.857  33.959  12.494
19259W        W91585  38.372  44.464   3.651
19260W        W91586   4.720  10.185  14.853
19261W        W91587  44.949  16.264   3.656
19262W        W91588   6.850  27.016  12.496
19263W        W91589   4.351  15.196  10.951
19264W        W91590  42.298   8.278  13.530
19265W        W91591   6.344   8.873  14.795
19266W        W91592   8.311  15.197  14.444
19267W        W91593  34.545  14.808  13.955
19268W        W91594  14.288  26.953  13.501
19269W        W91595  13.331  36.033  12.971
19270W        W91596  20.631  15.137   0.468
19271W        W91597  18.607  28.980   0.953
19272W        W91598  32.931  35.054   4.193
19273W        W91599  16.746   6.730  12.058
19274W        W91600  37.067  37.869  14.962
19275W        W91601  25.001  36.568  11.039
19276W        W91602   9.757   1.237  10.921
19277W        W91603   5.834   5.784   3.202
19278W        W91604  15.775  43.889  10.490
19279W        W91605  43.414  28.510   2.289
19280W        W91606  36.092  23.655  13.023
19281W        W91607  18.160   8.841   0.958
19282W        W91608  38.484  26.504   2.786
19283W        W91609  43.320  10.841   3.228
19284W        W91610   4.853  18.142   2.834
19285W        W91611  31.545  27.640   1.734
19286W        W91612   7.416  36.495  12.454
19287W        W91613  42.399  10.178  11.065
19288W        W91614  19.059  27.072   1.448
19289W        W91615   7.371  19.624  12.034
19290W        W91616  16.100  26.528  12.452
19291W        W91617  21.260   1.399  11.531
19292W        W91618   4.883   1.739   0.468
19293W        W91619   3.855  18.673   2.236
19294W        W91620  24.626   0.417  11.957
19295W        W91621  27.655  31.124   3.190
19296W        W91622  14.230   9.293   1.377
19297W        W91623  18.561  33.447  12.964
19298W        W91624  42.421  33.597  14.768
19299W        W91625  34.370  26.088   2.762
19300W        W91626  42.483  25.692  13.442
19301W        W91627   9.820   8.198   2.902
19302W        W91628  42.031  36.454   0.410
19303W        W91629   4.371  26.044  14.830
19304W        W91630  44.814   0.488   3.828
19305W        W91631  22.119   2.373   3.649
19306W        W91632  10.804  33.895   3.371
19307W        W91633  27.015   2.412  12.553
19308W        W91634  12.254  30.554  11.559
19309W        W91635  12.654  14.765  13.315
19310W        W91636  14.101  27.020   5.710
19311W        W91637  31.098  11.818  11.415
19312W        W91638  24.093   4.928  10.903
19313W        W91639   5.424   0.963   2.880
19314W        W91640  26.478  17.110  10.976
19315W        W91641  39.844   7.182  11.567
19316W        W91642   0.492  44.264  14.842
19317W        W91643  35.906  42.313  11.598
19318W        W91644  28.498  32.099   5.257
19319W        W91645  43.999   7.683   1.739
19320W        W91646  16.156   7.190  13.405
19321W        W91647  18.172  38.985  11.065
19322W        W91648  21.117   7.310   2.307
19323W        W91649  20.106  40.846  11.604
19324W        W91650   8.825  43.872   3.246
19325W        W91651  13.246   4.834  14.957
19326W        W91652  21.671   9.733  12.070
19327W        W91653  20.708   7.348  12.911
19328W        W91654  38.867  21.702   4.158
19329W        W91655  38.432  24.220  11.423
19330W        W91656   8.786  17.784  14.870
19331W        W91657  25.643   1.312  14.430
19332W        W91658  27.563   7.856   1.449
19333W        W91659   2.421  28.545   4.752
19334W        W91660  39.466  13.669   0.899
19335W        W91661   3.880  32.460   1.365
19336W        W91662   7.906  34.497  11.998
19337W        W91663   3.348  16.261   4.286
19338W        W91664  36.009  23.118   2.710
19339W        W91665  40.018   6.222  10.901
19340W        W91666   9.821   4.821  12.084
19341W        W91667  38.947  13.196   3.220
19342W        W91668  15.301  39.013  14.949
19343W        W91669  28.948  44.960   1.321
19344W        W91670   2.783  24.221   2.798
19345W        W91671  33.498  40.403  10.618
19346W        W91672  25.160   5.712  10.598
19347W        W91673  27.573  35.918   3.774
19348W        W91674  31.529  31.056   1.764
19349W        W91675  14.807  39.819   2.855
19350W        W91676  26.037  35.556  14.355
19351W        W91677   4.937  43.885  12.092
19352W        W91678  26.065  31.493  11.023
19353W        W91679  20.047   2.317  12.943
19354W        W91680   5.921  34.002  14.896
19355W        W91681  32.407   5.830  10.422
19356W        W91682   0.826   7.283  12.570
19357W        W91683   7.706   4.211  11.092
19358W        W91684  12.266  15.242  11.867
19359W        W91685  34.118  30.623   4.211
19360W        W91686   8.769   2.313   5.308
19361W        W91687  14.148  29.464   2.186
19362W        W91688  13.795  37.522   2.195
19363W        W91689  38.345  41.485  14.414
19364W        W91690  15.652  14.686  13.331
19365W        W91691  44.433  20.546  10.001
19366W        W91692  43.829  26.489  14.016
19367W        W91693  42.408   3.364   2.198
19368W        W91694  18.195  11.323  12.405
19369W        W91695  10.741  29.929   0.953
19370W        W91696  12.313  33.547   2.682
19371W        W91697  24.104  25.126  10.902
19372W        W91698  30.935  31.899  10.905
19373W        W91699   0.479  37.341  11.120
19374W        W91700  43.017  16.171   4.735
19375W        W91701  26.113  35.416   3.746
19376W        W91702  14.212  42.811   1.362
19377W        W91703  42.305  15.813  14.845
19378W        W91704  33.463  30.448  11.031
19379W        W91705   2.321  32.019  11.536
19380W        W91706  30.120  36.983   4.673
19381W        W91707  29.607   8.790   3.235
19382W        W91708  19.204  39.812  14.869
19383W        W91709  17.723  44.370  14.444
19384W        W91710   8.261   5.345   4.781
19385W        W91711  32.533  33.385   1.763
19386W        W91712  25.172  19.056   2.767
19387W        W91713  34.986   4.428   1.910
19388W        W91714  43.892  40.391  14.451
19389W        W91715   1.292  44.852  11.597
19390W        W91716  35.541   0.791   3.806
19391W        W91717  39.877  19.130  12.413
19392W        W91718  25.994  32.018   3.190
19393W        W91719  17.701  31.011   1.276
19394W        W91720  40.338  27.169   0.428
19395W        W91721  30.519   0.305  13.874
19396W        W91722  33.929   4.278  12.927
19397W        W91723  27.994  19.123   1.289
19398W        W91724  31.951  33.069  12.038
19399W        W91725  21.154  14.744  13.901
19400W        W91726  32.073  23.103  10.991
19401W        W91727  36.843  19.678   3.193
19402W        W91728  14.123  17.184  12.477
19403W        W91729  20.568  35.936  13.008
19404W        W91730  26.165  24.538  12.860
19405W        W91731  26.583  25.071   9.948
19406W        W91732  10.710   3.894  11.923
19407W        W91733   8.302  18.552   4.718
19408W        W91734  37.938  11.253  13.310
19409W        W91735  10.340   2.402  11.421
19410W        W91736  23.648  40.995   1.864
19411W        W91737  27.075  22.154  14.470
19412W        W91738  31.448  27.685  10.909
19413W        W91739  17.101  11.782  12.566
19414W        W91740  34.566  24.639  14.324
19415W        W91741  27.114  30.028  12.531
19416W        W91742  28.649  25.522   4.289
19417W        W91743  42.364   1.334   2.883
19418W        W91744  38.378   8.812   3.204
19419W        W91745   3.954  38.828   4.274
19420W        W91746  16.132  42.350   2.743
19421W        W91747  12.695  19.118  11.956
19422W        W91748  27.074  33.890   0.467
19423W        W91749  32.897   5.267  11.929
19424W        W91750  21.100   5.922  11.049
19425W        W91751   1.259  23.166  12.551
19426W        W91752   4.357   7.285  12.537
19427W        W91753   9.824  30.157  14.512
19428W        W91754  18.620  41.386   1.875
19429W        W91755  29.643  25.189  10.618
19430W        W91756   3.951  31.598   4.172
19431W        W91757  41.961  13.755  14.835
19432W        W91758  29.936  24.150  10.903
19433W        W91759  12.710  41.937   4.653
19434W        W91760   1.886  19.644   4.206
19435W        W91761  41.859   7.882   1.775
19436W        W91762  28.091  11.276   1.821
19437W        W91763  41.536   3.376   4.700
19438W        W91764  24.515  15.214  12.507
19439W        W91765  40.877  18.783  12.505
19440W        W91766  28.018  10.878   1.355
19441W        W91767  31.905  22.124  14.466
19442W        W91768  31.479  42.798   4.231
19443W        W91769   8.729   2.343  10.966
19444W        W91770  34.454  15.284  10.456
19445W        W91771  13.619  10.827  13.307
19446W        W91772   8.852  27.940  12.471
19447W        W91773  39.341  26.684  10.134
19448W        W91774   7.883  25.084   0.242
19449W        W91775  15.200  23.119   1.324
19450W        W91776  27.538   7.255   1.825
19451W        W91777  23.087  14.621   2.318
19452W        W91778   7.812  34.515   2.816
19453W        W91779  23.659   3.403   1.890
19454W        W91780  15.604  30.164   1.266
19455W        W91781  15.302  13.147  11.469
19456W        W91782  13.758  29.132  14.487
19457W        W91783  11.359   6.844   3.203
19458W        W91784  15.217  17.267  14.779
19459W        W91785  40.014  28.626   1.744
19460W        W91786  40.503  33.559  13.340
19461W        W91787  41.801  18.745   0.270
19462W        W91788  34.368  21.606  13.968
19463W        W91789  37.022   9.796   9.549
19464W        W91790  39.992  41.462  12.034
19465W        W91791  43.311  23.493  13.427
19466W        W91792  39.046   8.228   4.728
19467W        W91793  34.488   7.316   0.450
19468W        W91794   2.782  39.957  10.466
19469W        W91795  25.144  40.046  11.102
19470W        W91796  25.087  12.194  10.968
19471W        W91797  24.562  21.183  10.951
19472W        W91798  28.541  17.304   0.277
19473W        W91799   3.932  42.432  13.435
19474W        W91800  40.497   7.683   3.336
19475W        W91801  23.692  27.178  12.574
19476W        W91802  16.673  39.917  13.397
19477W        W91803  39.878  41.384   3.149
19478W        W91804  25.183   1.742   1.306
19479W        W91805  12.308  26.577  10.022
19480W        W91806   2.331  42.950  14.421
19481W        W91807  19.671  28.467   0.869
19482W        W91808  30.092   7.715  12.578
19483W        W91809  19.573  30.944   0.922
19484W        W91810  28.516  29.665  13.007
19485W        W91811   1.872  13.198   4.801
19486W        W91812  12.317  27.570   1.730
19487W        W91813  42.870  30.525  12.917
19488W        W91814  42.933   4.847   3.748
19489W        W91815  34.949   1.769  11.546
19490W        W91816  36.041  26.100  12.968
19491W        W91817  36.477  15.627  12.359
19492W        W91818  33.965  39.482   4.821
19493W        W91819   0.852   6.312   1.762
19494W        W91820  42.417  34.061  10.941
19495W        W91821  37.472   8.668   0.915
19496W        W91822  12.679  15.264   0.942
19497W        W91823  24.582   6.226  11.043
19498W        W91824  18.698  13.351   1.887
19499W        W91825   7.390   9.166   1.330
19500W        W91826  20.106   8.234  12.853
19501W        W91827  22.061  29.944   1.830
19502W        W91828  34.377  37.914   1.398
19503W        W91829  35.988  20.575   2.231
19504W        W91830  22.035  20.625  14.827
19505W        W91831  41.311   1.439   3.184
19506W        W91832  10.198  14.681   3.291
19507W        W91833  32.420   8.784  10.102
19508W        W91834   7.313  13.263   2.212
19509W        W91835  29.567  10.762  13.812
19510W        W91836   1.802  40.325   1.375
19511W        W91837   5.759  15.590  13.361
19512W        W91838  13.262  26.592  13.953
19513W        W91839  31.901  13.836   0.935
19514W        W91840  41.412  28.144   3.720
19515W        W91841  44.991  41.874   2.249
19516W        W91842   3.854   5.894  12.408
19517W        W91843  24.500  14.227   2.322
19518W        W91844  40.843   1.912  13.335
19519W        W91845  16.252  32.586   2.302
19520W        W91846  21.173  19.733   5.238
19521W        W91847  33.038  25.678  12.397
19522W        W91848  43.311   9.645  11.056
19523W        W91849  34.549  19.230  13.926
19524W        W91850   2.810  19.089  13.507
19525W        W91851  30.447   1.893  13.337
19526W        W91852  40.043  16.722   3.685
19527W        W91853  11.334  13.257  10.495
19528W        W91854  21.153  31.084   0.281
19529W        W91855  40.943  19.605  13.883
19530W        W91856   9.223  22.672  14.013
19531W        W91857   8.303   0.449  11.031
19532W        W91858  34.980  25.584  10.405
19533W        W91859  42.017  41.804   3.757
19534W        W91860  10.643  11.340   2.263
19535W        W91861  25.097  33.445  10.635
19536W        W91862  20.175   2.805  13.437
19537W        W91863  42.843  34.010   2.817
19538W        W91864  21.217  12.216   0.433
19539W        W91865  26.180  32.946   4.283
19540W        W91866  30.441   7.290  11.119
19541W        W91867   2.894  39.809  14.933
19542W        W91868  28.638   8.312  10.969
19543W        W91869  32.960  39.484   4.300
19544W        W91870   4.705  23.224  10.608
19545W        W91871  27.469  27.970   1.931
19546W        W91872  40.385  33.886  14.312
19547W        W91873  36.510  26.701  10.075
19548W        W91874  40.489   0.432   3.279
19549W        W91875  23.521  30.473  10.520
19550W        W91876  20.604  12.827   3.188
19551W        W91877   9.225  25.499   4.285
19552W        W91878  13.295   5.218   2.324
19553W        W91879   3.825   1.396  10.943
19554W        W91880   4.820  30.124  10.553
19555W        W91881   0.917   6.381  10.617
19556W        W91882  21.629  35.964  12.551
19557W        W91883  28.942  43.374   4.820
19558W        W91884  35.935  22.169  11.907
19559W        W91885  31.047   3.736  12.836
19560W        W91886  17.154   1.363   2.323
19561W        W91887  30.928  35.510   3.266
19562W        W91888  29.029   1.361  11.385
19563W        W91889  41.897  39.931  11.400
19564W        W91890   3.287   9.169   1.840
19565W        W91891  40.371  42.914  12.389
19566W        W91892  39.993  32.108   9.997
19567W        W91893  21.545  30.064  11.112
19568W        W91894   6.323  15.637  14.457
19569W        W91895  26.072  17.710  13.503
19570W        W91896   5.928  23.586   0.460
19571W        W91897  23.659  40.489   2.371
19572W        W91898  39.478  24.668   1.357
19573W        W91899  35.452  16.174  13.358
19574W        W91900  14.678   8.379   2.727
19575W        W91901   5.775  35.014   2.806
19576W        W91902  32.402  40.319   3.678
19577W        W91903   1.780  18.123   1.357
19578W        W91904   1.448  16.786  13.913
19579W        W91905  37.835  17.196   2.744
19580W        W91906  34.907  38.483  11.387
19581W        W91907  44.422  29.563  12.885
19582W        W91908  41.307  15.781  11.392
19583W        W91909  44.790  17.144  14.300
19584W        W91910   8.817  24.523  14.945
19585W        W91911  23.649  35.508  14.320
19586W        W91912  19.695   3.928  13.387
19587W        W91913  29.460  25.040   0.859
19588W        W91914  43.375  43.346  12.032
19589W        W91915  13.678   8.671   2.196
19590W        W91916  36.974  16.635   1.436
19591W        W91917   3.262  24.718   0.385
19592W        W91918  13.830  25.166  13.501
19593W        W91919  26.500   3.737   1.724
19594W        W91920  25.992   4.386  14.297
19595W        W91921  35.053  14.702  13.926
19596W        W91922  12.693   0.863  14.886
19597W        W91923   7.827  11.180   1.299
19598W        W91924  44.942  30.116   1.271
19599W        W91925  28.480  15.091   2.800
19600W        W91926  37.444   0.266   4.770
19601W        W91927  19.724  11.817   0.833
19602W        W91928  16.087  15.222  13.441
19603W        W91929  17.205  20.600   1.336
19604W        W91930  19.080  41.469   1.431
19605W        W91931  14.719   8.816   1.393
19606W        W91932  29.133  13.273   3.264
19607W        W91933   3.845  20.704   2.663
19608W        W91934  30.515  19.160  10.601
19609W        W91935   4.940  11.360   5.291
19610W        W91936   9.742  40.905   3.783
19611W        W91937  24.573  23.655   3.631
19612W        W91938  15.767  26.162  12.558
19613W        W91939  34.034  30.961  11.987
19614W        W91940   9.789   3.890   0.936
19615W        W91941  34.433  26.957   4.604
19616W        W91942  30.929  42.378  11.581
19617W        W91943  16.793  18.732   1.367
19618W        W91944  25.081  11.296  11.897
19619W        W91945   2.901  42.791   1.935
19620W        W91946  36.369  33.490  14.918
19621W        W91947   9.716  24.070   1.791
19622W        W91948  10.300  35.517  12.092
19623W        W91949  36.453   1.853   2.775
19624W        W91950   4.330  23.028  11.497
19625W        W91951  15.192  38.995  12.027
19626W        W91952  27.008  25.153  14.796
19627W        W91953  10.710  36.376  12.502
19628W        W91954  29.132  41.835   1.288
19629W        W91955  36.003  22.124   1.429
19630W        W91956   7.765  30.504   3.328
19631W        W91957   4.719  17.212   1.831
19632W        W91958  15.734  38.357   1.223
19633W        W91959  21.092  24.698   4.755
19634W        W91960   6.241  17.636   0.789
19635W        W91961  32.111   2.419   1.768
19636W        W91962  44.338  33.934  12.514
19637W        W91963  31.535   1.740  13.426
19638W        W91964   2.943   4.317   1.374
19639W        W91965   9.298  19.246  13.998
19640W        W91966  43.506  20.042   4.187
19641W        W91967  33.510  16.771  12.035
19642W        W91968  10.639  33.056   4.289
19643W        W91969  44.448  21.756  12.415
19644W        W91970  21.529  25.998  14.843
19645W        W91971  21.163  12.687  10.048
19646W        W91972  15.117  31.086  11.858
19647W        W91973  39.945  15.661  10.545
19648W        W91974   5.932   5.805   4.611
19649W        W91975  33.908  26.105  11.855
19650W        W91976  42.984  40.458  11.590
19651W        W91977  15.782   0.425  10.017
19652W        W91978  40.540  41.888  13.025
19653W        W91979  40.970  26.024  14.330
19654W        W91980  13.288  35.886  13.940
19655W        W91981  27.616  19.103  11.426
19656W        W91982  17.236  22.022   3.161
19657W        W91983   2.282   4.385  11.579
19658W        W91984  26.104  22.049  13.871
19659W        W91985  31.610  41.394   2.373
19660W        W91986  43.946  14.604  14.359
19661W        W91987  40.955  36.064  14.026
19662W        W91988  38.412  18.247  14.475
19663W        W91989   9.672   2.288   4.207
19664W        W91990   2.904  17.791   0.746
19665W        W91991  21.658  32.446   2.247
19666W        W91992  32.947  29.129   0.792
19667W        W91993  42.815  27.950   3.362
19668W        W91994  23.061  29.646   2.721
19669W        W91995  13.640   7.407   2.801
19670W        W91996  14.740  15.161  12.911
19671W        W91997   0.372   2.965  14.788
19672W        W91998  29.947   7.671   0.963
19673W        W91999  43.860  22.639   0.271
19674W        W92000  14.188   6.379   5.299
19675W        W92001  42.908  17.696  13.486
19676W        W92002  32.116  35.359  12.950
19677W        W92003  24.223  34.507   2.663
19678W        W92004  28.950  16.125  10.472
19679W        W92005  27.576   0.437  10.477
19680W        W92006  43.773  15.116  13.966
19681W        W92007   1.831  22.090  14.987
19682W        W92008   0.902  36.383  13.384
19683W        W92009   4.375  34.024   1.428
19684W        W92010   7.206  44.322  12.413
19685W        W92011   2.270  33.416   2.718
19686W        W92012  35.478  34.936  12.867
19687W        W92013  38.979  38.962   4.745
19688W        W92014  22.063  28.507  13.842
19689W        W92015  17.195  29.452  12.419
19690W        W92016  41.433  37.556   2.728
19691W        W92017  15.195  27.107  11.015
19692W        W92018  39.811  31.471   2.417
19693W        W92019  43.872  18.746   1.295
19694W        W92020  12.820   5.392   3.744
19695W        W92021   8.674  39.026  11.544
19696W        W92022  36.891  41.325   4.702
19697W        W92023  29.614  11.283   0.829
19698W        W92024  39.006   1.790  14.912
19699W        W92025  30.502   8.171   4.240
19700W        W92026  32.014  16.263  12.881
19701W        W92027  42.847   7.742   2.738
19702W        W92028  39.892  18.225  14.984
19703W        W92029   0.275  16.692   2.278
19704W        W92030  23.581   4.323   2.349
19705W        W92031  41.985  32.525   1.731
19706W        W92032   0.310  12.677   4.116
19707W        W92033  32.939   4.859   2.880
19708W        W92034  35.012   5.750  14.454
19709W        W92035  20.723   8.671  12.550
19710W        W92036  37.084  31.053  14.500
19711W        W92037  23.221  38.044  11.612
19712W        W92038  40.355  35.094   4.340
19713W        W92039   7.857  31.995   5.202
19714W        W92040  22.622  19.101   0.791
19715W        W92041  29.041  27.663   4.222
19716W        W92042  15.707  33.592   2.324
19717W        W92043   6.230  44.800   1.851
19718W        W92044  35.932  19.663  12.887
19719W        W92045   7.881  14.198   0.403
19720W        W92046   9.820  10.282  12.532
19721W        W92047  19.666  37.414   0.445
19722W        W92048  10.659  12.186   1.396
19723W        W92049  32.431  37.913   1.412
19724W        W92050  42.789  30.042  11.090
19725W        W92051   0.966  32.112  10.138
19726W        W92052  10.374  14.160   1.333
19727W        W92053  31.007  40.846   0.323
19728W        W92054  36.364  35.563  11.977
19729W        W92055  24.997  42.983   2.704
19730W        W92056  36.456  37.371  13.463
19731W        W92057  27.128   1.929  11.901
19732W        W92058  25.058  29.970  13.915
19733W        W92059  32.442  33.108   1.922
19734W        W92060   4.805  37.484   2.769
19735W        W92061  31.076  35.920  12.090
19736W        W92062  18.578  26.694  10.536
19737W        W92063   0.376  41.937  14.895
19738W        W92064  42.923   8.719  11.501
19739W        W92065  43.957  36.978   4.293
19740W        W92066  40.878  10.684   4.234
19741W        W92067  24.013   4.443  14.345
19742W        W92068   6.737  34.521   1.736
19743W        W92069  25.175  40.478   2.274
19744W        W92070   0.311  27.031  14.504
19745W        W92071  28.517  19.090   3.683
19746W        W92072  34.991  14.799   3.849
19747W        W92073  23.121  26.130  14.320
19748W        W92074   7.366  16.670   3.819
19749W        W92075  14.332  42.027  12.023
19750W        W92076  41.303  32.931  11.088
19751W        W92077  35.064  44.279   2.358
19752W        W92078  27.178   9.212   3.694
19753W        W92079  23.632  37.950  11.047
19754W        W92080  18.091  12.636   4.343
19755W        W92081  44.809  37.006   4.698
19756W        W92082   1.359   3.423   4.174
19757W        W92083  29.480   1.749   5.233
19758W        W92084  40.480  43.764  13.050
19759W        W92085  28.611   3.226   2.347
19760W        W92086  10.661  34.037  12.466
19761W        W92087  31.977   1.275   3.729
19762W        W92088  16.722  26.564   0.932
19763W        W92089  37.059  43.490   2.840
19764W        W92090  32.929  36.552   4.831
19765W        W92091  28.518   9.306   2.273
19766W        W92092  29.666  40.812  11.440
19767W        W92093  29.036   0.892   2.744
19768W        W92094  39.377  36.552  14.945
19769W        W92095  22.222  23.649  11.420
19770W        W92096  10.309  10.294  14.453
19771W        W92097  19.624  10.258   0.908
19772W        W92098   2.295  24.100  14.492
19773W        W92099  21.261  29.990  12.504
19774W        W92100  26.498  44.890  12.953
19775W        W92101  27.565  17.227   2.772
19776W        W92102  11.705  38.392  12.040
19777W        W92103   1.313  14.754  13.434
19778W        W92104   4.356  10.844  12.536
19779W        W92105  24.480  33.506   1.212
19780W        W92106  22.187  24.542   1.712
19781W        W92107  19.603  17.105  11.047
19782W        W92108  18.788  41.516  14.916
19783W        W92109  27.462  30.055   1.265
19784W        W92110   9.874   6.409   1.704
19785W        W92111  42.798  10.799   0.466
19786W        W92112  27.455  20.602  10.579
19787W        W92113   3.448  38.398  14.820
19788W        W92114  17.136   9.228   1.397
19789W        W92115  11.660  14.209   1.849
19790W        W92116  32.022  29.491  12.921
19791W        W92117  44.264  24.038  13.392
19792W        W92118  18.109  44.271   2.262
19793W        W92119   2.901  33.595   0.955
19794W        W92120  29.580  17.117  10.620
19795W        W92121  31.035   6.796   0.961
19796W        W92122  14.262  27.482   2.383
19797W        W92123  10.343   6.877  11.001
19798W        W92124  31.896  14.747  13.890
19799W        W92125   8.702  44.471   2.266
19800W        W92126  18.066   7.719  13.479
19801W        W92127  29.608   6.765   2.716
19802W        W92128  35.082   6.401   2.182
19803W        W92129  35.486   3.443   1.802
19804W        W92130  26.087  10.717   0.477
19805W        W92131   9.375  44.320   0.378
19806W        W92132  41.434  19.624  13.523
19807W        W92133  43.435  10.238   2.881
19808W        W92134   9.781   9.191   4.261
19809W        W92135  24.079   4.219  13.980
19810W        W92136  40.449   2.460  11.461
19811W        W92137   6.238   1.296   2.867
19812W        W92138  27.099  26.508   9.950
19813W        W92139   8.166  25.093  10.547
19814W        W92140  26.195  41.018  11.001
19815W        W92141  12.632  28.185  12.966
19816W        W92142  34.372  15.731   1.409
19817W        W92143  42.493  21.097   4.174
19818W        W92144  25.217   9.217  14.024
19819W        W92145   1.422   8.300  11.048
19820W        W92146  27.665  31.061   0.375
19821W        W92147   2.966  11.167   1.338
19822W        W92148  13.171   6.242   0.345
19823W        W92149  34.994  40.391  14.993
19824W        W92150   0.449  12.154  10.929
19825W        W92151  33.587   7.819   4.178
19826W        W92152  33.418  15.689  13.056
19827W        W92153   8.799  42.472  14.880
19828W        W92154  18.661  35.865   3.194
19829W        W92155   6.214  34.556   1.435
19830W        W92156  37.903  11.644   0.336
19831W        W92157  21.145  19.090  14.819
19832W        W92158  40.944  24.675   2.794
19833W        W92159  26.068   4.827  12.494
19834W        W92160   3.344  43.869   1.439
19835W        W92161  32.602  36.977  13.012
19836W        W92162   2.427   1.405  12.981
19837W        W92163  18.754  38.334   3.229
19838W        W92164  42.776  20.747  12.971
19839W        W92165  13.675  30.934  11.928
19840W        W92166   5.797  27.544   0.284
19841W        W92167  41.514  32.900  14.843
19842W        W92168  32.929  41.877  12.924
19843W        W92169   9.821  23.086  10.572
19844W        W92170  17.614  29.075   3.784
19845W        W92171   6.794  24.515   1.311
19846W        W92172  22.120   8.822  12.856
19847W        W92173  25.025  42.978   3.251
19848W        W92174  36.563   5.783  11.495
19849W        W92175   4.813   1.875  13.867
19850W        W92176  16.317  25.587  13.871
19851W        W92177  29.152  38.946   9.957
19852W        W92178  33.953  19.220   2.262
19853W        W92179  16.617  32.941  11.044
19854W        W92180  22.127  32.405   1.309
19855W        W92181  33.125  40.015   2.260
19856W        W92182  12.634   3.756  14.889
19857W        W92183  40.538  25.082   2.411
19858W        W92184  20.134  14.261  13.431
19859W        W92185  24.174  17.130  13.916
19860W        W92186   5.201  44.356   1.416
19861W        W92187  27.943   5.245  11.035
19862W        W92188   6.849  10.377  14.895
19863W        W92189  12.224  42.411  10.517
19864W        W92190   1.881   4.891   2.230
19865W        W92191  34.613  37.397  10.535
19866W        W92192  16.304   2.909   4.170
19867W        W92193  41.324  19.222   4.327
19868W        W92194  29.118   4.911   0.887
19869W        W92195  37.979  41.345   3.282
19870W        W92196  35.869  19.681  13.466
19871W        W92197  17.645  30.469  11.389
19872W        W92198  10.782  20.073   3.326
19873W        W92199  24.977  38.443   1.211
19874W        W92200  24.107  16.645  10.406
19875W        W92201   6.751  10.153  10.510
19876W        W92202   3.730   8.335  12.529
19877W        W92203   8.397  12.158  12.868
19878W        W92204   2.810  39.967   0.270
19879W        W92205  26.571  27.026  14.892
19880W        W92206   7.859   5.794   0.808
19881W        W92207  16.682  31.099   2.400
19882W        W92208  18.578   4.441   0.465
19883W        W92209  22.143  22.132   4.667
19884W        W92210  13.265  28.126  10.949
19885W        W92211  26.032  35.853   4.809
19886W        W92212  13.280   3.722  11.969
19887W        W92213  28.615  33.454  10.910
19888W        W92214  36.084   9.382  13.511
19889W        W92215  18.172   6.725  13.053
19890W        W92216   9.707  17.146   4.224
19891W        W92217  27.513  32.093  12.089
19892W        W92218  23.616   4.363  14.811
19893W        W92219  43.496  37.423  11.554
19894W        W92220  26.065  31.904   1.397
19895W        W92221   6.689  28.086   4.800
19896W        W92222  22.056  27.619   0.753
19897W        W92223  14.194   1.272  12.996
19898W        W92224   3.771  14.272  11.052
19899W        W92225  17.561   6.352  11.444
19900W        W92226   7.283  25.665  13.912
19901W        W92227   6.288  43.003  12.018
19902W        W92228  35.103  15.325  11.407
19903W        W92229  29.536  30.557   1.433
19904W        W92230  10.288  20.030  10.451
19905W        W92231  41.301  33.095  10.430
19906W        W92232  29.111   6.778   3.648
19907W        W92233  29.567  23.126  14.843
19908W        W92234  16.167   5.732  11.378
19909W        W92235  15.582  10.744   2.369
19910W        W92236  36.949  26.682   0.361
19911W        W92237  38.829  18.064  11.596
19912W        W92238  10.238  26.059  11.529
19913W        W92239  37.542  11.663   5.218
19914W        W92240   9.254  24.980  11.909
19915W        W92241   6.840  20.091   3.637
19916W        W92242  28.643  29.524  11.936
19917W        W92243   9.875  30.557  13.828
19918W        W92244  36.501  38.985   3.380
19919W        W92245  39.387  44.423  11.874
19920W        W92246  29.137  33.886   4.346
19921W        W92247  17.107  12.250   2.188
19922W        W92248   0.312  16.117  12.025
19923W        W92249  43.457  28.581  10.527
19924W        W92250  37.926  34.928  12.834
19925W        W92251   1.733  12.316   3.806
19926W        W92252  29.151  28.612   4.694
19927W        W92253  10.346  39.394   4.728
19928W        W92254  21.688  39.514  14.464
19929W        W92255  18.678  36.586  14.871
19930W        W92256  38.868  10.676   1.375
19931W        W92257   2.918  12.191   5.244
19932W        W92258  28.057  40.999  10.078
19933W        W92259  23.641  41.948   0.906
19934W        W92260  18.617  27.059  12.855
19935W        W92261  33.044  16.703   0.370
19936W        W92262  42.484  24.715  10.487
19937W        W92263   7.666   7.299   3.672
19938W        W92264  36.391  35.021   1.358
19939W        W92265  18.232  17.226  13.958
19940W        W92266   5.751  15.116  12.977
19941W        W92267   1.357  42.392   1.855
19942W        W92268  10.758  40.047   4.678
19943W        W92269  15.806  44.471  13.349
19944W        W92270   5.384  14.778   1.715
19945W        W92271  23.603   1.338   3.322
19946W        W92272   2.333  23.231   5.295
19947W        W92273  26.098  24.112  14.461
19948W        W92274  16.614  22.168  12.877
19949W        W92275  38.515  24.636  10.627
19950W        W92276   4.230  12.755  12.502
19951W        W92277  39.548  23.138  12.984
19952W        W92278  26.117  32.598   1.915
19953W        W92279   5.270  11.794   5.235
19954W        W92280  26.037  37.897  11.931
19955W        W92281   3.938  37.960  12.024
19956W        W92282  14.325  16.804   0.245
19957W        W92283  26.133  20.109  14.505
19958W        W92284  35.108  39.477  12.857
19959W        W92285  40.807   0.381  11.986
19960W        W92286  11.175  26.541   2.855
19961W        W92287   0.451  13.303  14.440
19962W        W92288  13.725   5.320   2.773
19963W        W92289  33.485  33.081  11.435
19964W        W92290  11.276  23.125  11.467
19965W        W92291   4.847  21.079  14.329
19966W        W92292  10.765   5.889  14.938
19967W        W92293  16.786  17.238  13.491
19968W        W92294  22.215  34.542  11.409
19969W        W92295  35.564   7.891   4.344
19970W        W92296  41.523   4.385  12.923
19971W        W92297   2.456  10.832  11.519
19972W        W92298  41.426   9.371   2.805
19973W        W92299  12.116  29.587   3.363
19974W        W92300  13.277   5.864   3.688
19975W        W92301   4.344  12.222   4.333
19976W        W92302  34.612   9.323   4.755
19977W        W92303  28.073   9.651   4.256
19978W        W92304  19.691  22.110  11.066
19979W        W92305  29.475  25.541  12.492
19980W        W92306  33.484  22.560  12.356
19981W        W92307  40.432  15.763   4.306
19982W        W92308   3.362  39.415  10.482
19983W        W92309  28.152  12.822   2.751
19984W        W92310  22.645  43.852   0.403
19985W        W92311   6.809   8.673  10.526
19986W        W92312   8.282   1.356   2.662
19987W        W92313   1.764   9.222  12.415
19988W        W92314  33.927  33.019  10.972
19989W        W92315  23.687  16.113   4.657
19990W        W92316  32.999  34.016  12.441
19991W        W92317  16.115  24.599   0.897
19992W        W92318  10.797  38.882  12.055
19993W        W92319  43.403   3.906   4.329
19994W        W92320  38.352  11.663   1.406
19995W        W92321  44.462  10.784  14.312
19996W        W92322  24.639  27.501   2.811
19997W        W92323  34.592  16.611   1.381
19998W        W92324  12.618  30.955   4.264
19999W        W92325  42.892  35.509   0.772
20000W        W92326  26.528  43.873   0.734
20001W        W92327   5.265   3.935  11.897
20002W        W92328  31.525  39.364   2.747
20003W        W92329  19.161  42.296   4.290
20004W        W92330   6.824  36.841   4.305
20005W        W92331  32.471  29.425   0.368
20006W        W92332  30.945   4.719   0.746
20007W        W92333  11.250  29.064  13.001
20008W        W92334  38.925  29.666  14.864
20009W        W92335  37.443   5.211   4.819
20010W        W92336  14.206  15.193  10.546
20011W        W92337  21.049   0.475  13.308
20012W        W92338  23.167  24.021   3.356
20013W        W92339  11.160  40.805  13.470
20014W        W92340  21.261   9.269   4.765
20015W        W92341  14.278   2.833   4.165
20016W        W92342  33.902   0.253  10.937
20017W        W92343  16.304  40.487   3.259
20018W        W92344  27.527  22.037  12.972
20019W        W92345  14.728  15.770  14.987
20020W        W92346  39.857  12.736   2.839
20021W        W92347  35.008  41.902  12.010
20022W        W92348  37.060  35.874  13.027
20023W        W92349  13.200  31.571   1.803
20024W        W92350  34.398   9.377  11.867
20025W        W92351  44.439   9.690   1.411
20026W        W92352  12.174  32.943  14.994
20027W        W92353  28.993   6.807   0.361
20028W        W92354  40.406  12.751  12.350
20029W        W92355  33.941  25.005  14.971
20030W        W92356  42.403  42.457   3.231
20031W        W92357  14.322  26.022  12.446
20032W        W92358  41.312  44.435  10.511
20033W        W92359  14.624  13.621   3.760
20034W        W92360  17.142  32.933   2.240
20035W        W92361   8.222   3.729  11.483
20036W        W92362  36.026  16.733   3.381
20037W        W92363  12.727  10.154  13.540
20038W        W92364  10.823  10.730   2.335
20039W        W92365  27.558   1.425  13.499
20040W        W92366   7.298  15.601   1.769
20041W        W92367  41.887  42.807   0.422
20042W        W92368  27.991  11.751  14.769
20043W        W92369  43.395   0.899  13.524
20044W        W92370   4.844   5.825   4.633
20045W        W92371  43.844  21.171   0.244
20046W        W92372  18.115  16.082  14.819
20047W        W92373  32.585  42.016  13.054
20048W        W92374  29.542  42.914   2.388
20049W        W92375  20.072  20.761   3.331
20050W        W92376  26.050   9.832   4.163
20051W        W92377  44.887  38.962   2.380
20052W        W92378  14.671  29.535  13.326
20053W        W92379  20.539  31.023  12.452
20054W        W92380  19.233  33.122   4.830
20055W        W92381  34.591  39.854  10.989
20056W        W92382  23.531  21.097  13.469
20057W        W92383  35.961  39.469   1.840
20058W        W92384  13.641  13.255  13.319
20059W        W92385  13.268   3.934   1.717
20060W        W92386  38.886  21.147  10.469
20061W        W92387  29.982  30.966  11.108
20062W        W92388  43.799  23.032   1.290
20063W        W92389  13.307  22.184  11.950
20064W        W92390  44.804  21.642  10.554
20065W        W92391  24.116  25.662   0.255
20066W        W92392  32.547  12.277   4.150
20067W        W92393   1.365  36.510   1.405
20068W        W92394  18.662  41.876  12.050
20069W        W92395  43.281  33.495   0.872
20070W        W92396  13.697   1.284   2.848
20071W        W92397   8.277  42.445  12.478
20072W        W92398  27.957  17.274   4.192
20073W        W92399   3.458  13.257  12.877
20074W        W92400  38.332  16.790   0.455
20075W        W92401  30.594  39.471  12.868
20076W        W92402  19.755  38.036  12.409
20077W        W92403  28.059   9.188   1.326
20078W        W92404  38.821  32.049  11.122
20079W        W92405  18.221  44.418  10.468
20080W        W92406  34.596  43.821   3.741
20081W        W92407  27.012  35.898  10.413
20082W        W92408  17.302  12.626   4.138
20083W        W92409   5.919  11.858  13.008
20084W        W92410   2.253  27.968  13.904
20085W        W92411  36.441  27.611  13.833
20086W        W92412  39.915  44.882  14.801
20087W        W92413  34.589  40.324  13.825
20088W        W92414   7.786  16.214   4.294
20089W        W92415  44.485  21.191   4.154
20090W        W92416  22.213  41.965  12.849
20091W        W92417  24.051  16.732  14.438
20092W        W92418   4.313   6.395   2.397
20093W        W92419   2.893  36.507  12.916
20094W        W92420   6.346  18.162  14.849
20095W        W92421  41.810  41.888  13.416
20096W        W92422  17.067   9.271   2.330
20097W        W92423   0.770  22.111   3.288
20098W        W92424   2.327  19.694   0.811
20099W        W92425  29.569  24.613   2.691
20100W        W92426   0.968  35.868   1.863
20101W        W92427  33.899  35.997  10.921
20102W        W92428  35.014  12.205  14.435
20103W        W92429  15.223   8.823   4.732
20104W        W92430  41.459   8.166  13.041
20105W        W92431  43.484  36.957  14.461
20106W        W92432  39.936  42.928  13.943
20107W        W92433  38.849  36.524   4.116
20108W        W92434  39.449  20.588   3.646
20109W        W92435  38.030  34.557  11.574
20110W        W92436  20.678  25.547   1.263
20111W        W92437   4.859  11.229  10.937
20112W        W92438  21.707  34.376   4.298
20113W        W92439  30.954  37.936   3.185
20114W        W92440  41.519  41.904  14.859
20115W        W92441   3.408  29.118  13.323
20116W        W92442  38.877  20.565  11.092
20117W        W92443  38.348  31.071  11.398
20118W        W92444  43.455   6.820   3.757
20119W        W92445  21.679  23.019  10.526
20120W        W92446   5.349   6.706  12.565
20121W        W92447   6.693  28.621  13.034
20122W        W92448  33.968  11.657  13.821
20123W        W92449  33.988  31.954  14.389
20124W        W92450  22.515  34.567   1.695
20125W        W92451   3.287  12.233  13.506
20126W        W92452  21.535  13.764   4.762
20127W        W92453   8.717  24.215  11.058
20128W        W92454   2.385   8.824  11.127
20129W        W92455  20.208   1.815  14.897
20130W        W92456  34.543  34.875   1.277
20131W        W92457  28.610  13.208  12.851
20132W        W92458   9.373  36.382   0.730
20133W        W92459  17.697  17.592  11.950
20134W        W92460  22.510  20.172  14.502
20135W        W92461   2.331  13.635  11.533
20136W        W92462  44.985  39.427  11.038
20137W        W92463  35.567  38.564  13.962
20138W        W92464  22.579  20.528  13.382
20139W        W92465  43.777  30.071  11.500
20140W        W92466  19.221  27.613  14.331
20141W        W92467  34.992  17.179   2.242
20142W        W92468  24.562  31.621  14.011
20143W        W92469  31.406   7.285  13.848
20144W        W92470  41.878  16.598   1.212
20145W        W92471  26.998  38.352   2.811
20146W        W92472   3.312  44.990   0.385
20147W        W92473  28.582  29.654   1.851
20148W        W92474  11.247  35.948  13.476
20149W        W92475  18.142  14.096  14.393
20150W        W92476  25.023   3.297   2.819
20151W        W92477  36.523  12.741  11.612
20152W        W92478  16.242  30.954  12.928
20153W        W92479  13.106   3.791  12.992
20154W        W92480   2.315  34.590   0.754
20155W        W92481  10.763  41.348  14.873
20156W        W92482  43.414  24.144   1.852
20157W        W92483  12.626  10.154   2.246
20158W        W92484  12.673  35.506  11.456
20159W        W92485  28.948  28.138  11.596
20160W        W92486  11.242  22.121  11.940
20161W        W92487  30.560   1.350   3.223
20162W        W92488   7.368  22.615  12.091
20163W        W92489  26.959  37.023   3.255
20164W        W92490   6.244   9.699   0.457
20165W        W92491   8.688  21.618  13.535
20166W        W92492   5.251  16.151  10.642
20167W        W92493  30.586  41.919  14.425
20168W        W92494  25.096  22.115  12.959
20169W        W92495  10.785  32.574   3.665
20170W        W92496   2.387  38.017  13.377
20171W        W92497   9.382   1.909   4.798
20172W        W92498  23.564  21.033  12.028
20173W        W92499  27.123   0.989  10.638
20174W        W92500  41.470  38.938  14.318
20175W        W92501  18.757   7.699   3.770
20176W        W92502  40.849  26.671  13.999
20177W        W92503  29.443  19.158   3.633
20178W        W92504  16.219   7.700  13.017
20179W        W92505  29.441  31.906   2.399
20180W        W92506  39.502  20.608  14.798
20181W        W92507  29.151  32.890  14.963
20182W        W92508  40.515  18.126  13.908
20183W        W92509  30.646  21.562   1.929
20184W        W92510   7.335   9.201  11.949
20185W        W92511  16.731  19.204   0.797
20186W        W92512  31.961  38.472  11.931
20187W        W92513   8.676  16.660  13.832
20188W        W92514   0.333  30.959   0.376
20189W        W92515  29.969   0.780  12.504
20190W        W92516  15.768  10.834  13.397
20191W        W92517  13.310   5.284   1.894
20192W        W92518  28.171  21.208   1.783
20193W        W92519   4.265   3.888   3.751
20194W        W92520  19.704  43.833   1.372
20195W        W92521   9.716  14.189   1.766
20196W        W92522  40.535  30.143  11.522
20197W        W92523  27.140  39.893  11.546
20198W        W92524  40.904  34.473  13.897
20199W        W92525   8.374  39.323   1.726
20200W        W92526   0.320  18.703   4.293
20201W        W92527  44.968  44.448   3.260
20202W        W92528   4.742  37.417  14.793
20203W        W92529   5.362  42.001  12.090
20204W        W92530  22.245  17.600   0.767
20205W        W92531  36.914  33.041  10.945
20206W        W92532   6.698  44.425   1.412
20207W        W92533   3.421  24.975   0.301
20208W        W92534  34.974  19.713   1.217
20209W        W92535  27.108  20.563   4.774
20210W        W92536   9.356  21.678  12.088
20211W        W92537  10.708   4.902   1.829
20212W        W92538  41.921  22.195   1.833
20213W        W92539  15.297  25.115   2.848
20214W        W92540   6.872  14.280  11.127
20215W        W92541  25.183  42.431   3.669
20216W        W92542   0.953  41.522   2.198
20217W        W92543  17.683  16.202  12.473
20218W        W92544   7.224  24.165   0.475
20219W        W92545  38.827  11.861   2.377
20220W        W92546  32.970  39.559   0.861
20221W        W92547  23.579  27.161   4.723
20222W        W92548  17.621  35.926   3.285
20223W        W92549  33.521  15.167  10.933
20224W        W92550  35.594  36.924   3.360
20225W        W92551  32.043  10.865   5.255
20226W        W92552   3.933   6.872   4.273
20227W        W92553  44.984  37.862   4.205
20228W        W92554  28.099  26.146   2.687
20229W        W92555  35.537  39.887  12.947
20230W        W92556  25.998  20.141   0.382
20231W        W92557  13.152  16.713  13.384
20232W        W92558  24.119   2.833   0.367
20233W        W92559  42.502  12.753  12.425
20234W        W92560  19.109  38.480  14.346
20235W        W92561  39.422  14.599  11.065
20236W        W92562   0.799  16.789  12.025
20237W        W92563   6.847   0.333  14.432
20238W        W92564  27.528   1.421  14.916
20239W        W92565   5.893  31.620   3.701
20240W        W92566   7.796  23.034   1.443
20241W        W92567  29.624  25.157   1.756
20242W        W92568  36.420  32.430  13.902
20243W        W92569  28.481  32.038   4.773
20244W        W92570   9.155   8.866  11.420
20245W        W92571  43.770   1.888   3.773
20246W        W92572  19.258  37.845  14.763
20247W        W92573  15.140  12.232   4.188
20248W        W92574  13.784  19.694  14.472
20249W        W92575  34.495  32.533  12.043
20250W        W92576  17.792  34.467   1.756
20251W        W92577   3.306   6.837   4.232
20252W        W92578  22.032  14.237   4.113
20253W        W92579  29.160  21.188  11.000
20254W        W92580  12.183  35.374  13.398
20255W        W92581  11.710  29.520   2.771
20256W        W92582   6.346  16.145   4.179
20257W        W92583  44.396  27.649   2.799
20258W        W92584  23.075  11.656   1.274
20259W        W92585  44.407  26.202  12.474
20260W        W92586  14.686  41.951  11.932
20261W        W92587  30.083  26.560   0.833
20262W        W92588  11.138   6.284   2.705
20263W        W92589  42.022  16.221   0.440
20264W        W92590  31.558  31.581   2.273
20265W        W92591  28.608  14.122  13.061
20266W        W92592  11.674  34.610   5.575
20267W        W92593  25.006  30.073   0.741
20268W        W92594  36.977   6.827  10.573
20269W        W92595  22.681  39.376  11.587
20270W        W92596  32.493  32.424  11.860
20271W        W92597  44.288  23.531  10.084
20272W        W92598   7.228  43.837  12.569
20273W        W92599  14.226  18.567  14.361
20274W        W92600  15.716  28.563  12.880
20275W        W92601  39.884  24.031   4.818
20276W        W92602   0.403  10.383  10.112
20277W        W92603  14.644  40.980   0.901
20278W        W92604  35.054  19.551   4.794
20279W        W92605  25.597  44.873  14.904
20280W        W92606  17.759  34.438  14.446
20281W        W92607  29.596   6.733   1.808
20282W        W92608  21.106  15.645  14.880
20283W        W92609  24.183   1.877  12.504
20284W        W92610  14.094   4.420  11.550
20285W        W92611  42.890  42.872   1.908
20286W        W92612  43.377   7.305   4.194
20287W        W92613   8.163  29.628   3.672
20288W        W92614  12.795   2.417  11.429
20289W        W92615  35.389  30.636   4.352
20290W        W92616  29.977  38.367  14.424
20291W        W92617  13.651  35.967  14.784
20292W        W92618  23.562  42.985   0.343
20293W        W92619  15.776   6.374  10.592
20294W        W92620  15.297   3.445  14.870
20295W        W92621  40.546  25.969  10.539
20296W        W92622  24.046  33.425   3.306
20297W        W92623   5.412  12.677   1.294
20298W        W92624   6.427  32.090   0.348
20299W        W92625  38.862   5.763   0.412
20300W        W92626  14.820  36.512  13.967
20301W        W92627  25.617  27.562   0.432
20302W        W92628  24.136  35.376  10.894
20303W        W92629  21.630  43.986  14.992
20304W        W92630  44.397  34.962   0.347
20305W        W92631  16.081  21.180   4.826
20306W        W92632  35.108   0.369   4.837
20307W        W92633   2.439  26.206   3.798
20308W        W92634   5.792   2.824   3.323
20309W        W92635  43.908  41.498  12.439
20310W        W92636  33.891   5.908   1.397
20311W        W92637  34.028  11.200   2.283
20312W        W92638  32.426   6.861  13.525
20313W        W92639   1.973  34.548   0.403
20314W        W92640  26.037  24.723  11.965
20315W        W92641  34.464  30.020   2.822
20316W        W92642  18.111  36.586   4.279
20317W        W92643  13.188  41.910  13.523
20318W        W92644   7.767  35.391  10.602
20319W        W92645  14.784   2.907  12.574
20320W        W92646  15.182  14.329  14.421
20321W        W92647  10.139  37.889   3.205
20322W        W92648  11.673  11.733  10.616
20323W        W92649  16.744  19.740  11.423
20324W        W92650   0.815  25.525  10.966
20325W        W92651  19.766   0.484  12.514
20326W        W92652  20.676   9.357  11.559
20327W        W92653  21.194  25.107  12.569
20328W        W92654   6.336  25.603  11.602
20329W        W92655  41.473  28.627   3.632
20330W        W92656  38.435  44.340   3.202
20331W        W92657  19.126  15.330   4.303
20332W        W92658  14.166  15.718   4.303
20333W        W92659   6.288  43.962  10.643
20334W        W92660  18.768   0.282   5.258
20335W        W92661  34.489  41.011   1.853
20336W        W92662   4.874  35.087   1.769
20337W        W92663  44.356  32.404  14.386
20338W        W92664   3.933  26.474  13.054
20339W        W92665  11.280  13.616   3.333
20340W        W92666  35.443  26.173  14.822
20341W        W92667  16.782  26.518   3.659
20342W        W92668  15.655  37.418   4.820
20343W        W92669   3.437  44.979  14.832
20344W        W92670  31.584  25.665  14.334
20345W        W92671  34.894  43.305   4.771
20346W        W92672  42.973  21.204  13.043
20347W        W92673  10.679   8.832   3.663
20348W        W92674  37.489  30.507  11.420
20349W        W92675  41.388  11.311  11.022
20350W        W92676  14.206  43.382  12.495
20351W        W92677  23.696  24.057   0.928
20352W        W92678  42.880  41.919  11.901
20353W        W92679   0.744  18.057   3.207
20354W        W92680  16.315  34.915  12.894
20355W        W92681  10.141  29.623   1.745
20356W        W92682  18.599  25.613   2.837
20357W        W92683  31.455  26.051   4.352
20358W        W92684   9.864  44.440  14.420
20359W        W92685  39.322  31.906  10.491
20360W        W92686  19.167   0.455  13.472
20361W        W92687  34.078  44.792  11.519
20362W        W92688  43.995   9.696   0.259
20363W        W92689   3.739  21.677   0.468
20364W        W92690  26.509   0.895   3.631
20365W        W92691  13.761  30.450   2.863
20366W        W92692   5.424  39.560   4.259
20367W        W92693  42.918   8.189  11.955
20368W        W92694  11.324  30.998  14.024
20369W        W92695  33.907  22.073  12.024
20370W        W92696  43.505   6.790   1.405
20371W        W92697  28.552  10.150  14.765
20372W        W92698  29.111   8.740  10.486
20373W        W92699  20.525   3.906   3.849
20374W        W92700  38.964  12.174  14.915
20375W        W92701   9.853   7.890  13.840
20376W        W92702  21.521   7.225  11.374
20377W        W92703  44.836  22.573   0.442
20378W        W92704  41.831   8.217   2.841
20379W        W92705  15.132   7.350  14.337
20380W        W92706  11.661  19.658  12.433
20381W        W92707  40.816  12.679  13.506
20382W        W92708  23.075  35.523  12.885
20383W        W92709  32.637  18.232  11.540
20384W        W92710  15.086   9.652   1.732
20385W        W92711  40.864  34.969   3.374
20386W        W92712  39.550  10.800   2.866
20387W        W92713  20.531   6.694  14.986
20388W        W92714   5.710  23.135   3.309
20389W        W92715  17.635  14.259   0.837
20390W        W92716   2.907  42.281  13.399
20391W        W92717  39.358   4.302  11.125
20392W        W92718  21.036  29.469   3.352
20393W        W92719   4.768  28.598  12.890
20394W        W92720  28.106  12.713  14.847
20395W        W92721   4.802  30.415   0.876
20396W        W92722  35.520  37.445   2.350
20397W        W92723  10.864  18.226   4.237
20398W        W92724  30.591  17.578   0.897
20399W        W92725   5.810  13.174  11.901
20400W        W92726  35.502   5.882   2.394
20401W        W92727   1.758  23.550   5.195
20402W        W92728  30.028  39.521   1.768
20403W        W92729   5.809  32.128  13.370
20404W        W92730  26.091  22.590  11.990
20405W        W92731  33.432  35.889  14.433
20406W        W92732  31.648   6.408   2.257
20407W        W92733  41.980   3.316   0.351
20408W        W92734  27.447  19.256  13.393
20409W        W92735  32.412   1.404  13.418
20410W        W92736  22.558  10.349  13.476
20411W        W92737  31.591  33.088   4.624
20412W        W92738  11.166   3.391   4.770
20413W        W92739   5.741   4.771  13.918
20414W        W92740  10.266  39.929   3.630
20415W        W92741  23.111  32.128  11.092
20416W        W92742   4.871  11.182   0.434
20417W        W92743  34.547  37.904   3.225
20418W        W92744  43.421  32.637  10.440
20419W        W92745  14.766  14.804  13.806
20420W        W92746  12.658  21.587  13.343
20421W        W92747  11.323  36.517   1.408
20422W        W92748  23.715  36.427  13.532
20423W        W92749   9.814  30.438  10.976
20424W        W92750   1.305  27.057   2.185
20425W        W92751   0.937  22.217   5.741
20426W        W92752   2.741  34.042  11.539
20427W        W92753  43.453   3.804  14.781
20428W        W92754  20.175  43.270   1.791
20429W        W92755   9.701   3.911   1.392
20430W        W92756  15.134  19.045  11.088
20431W        W92757  34.607   6.267  13.898
20432W        W92758   9.203   3.248   1.924
20433W        W92759  16.195   6.395  13.371
20434W        W92760  41.417  44.269  12.090
20435W        W92761   7.885  22.148  11.388
20436W        W92762  15.702  11.658   0.362
20437W        W92763  29.478   5.914   2.884
20438W        W92764  38.374   2.928   4.717
20439W        W92765  34.440  38.539   3.719
20440W        W92766  34.114  18.573  14.349
20441W        W92767  18.144  27.196  14.973
20442W        W92768  29.068  26.124   9.614
20443W        W92769  39.396  23.734  12.439
20444W        W92770   6.408  26.597   1.433
20445W        W92771   5.330   5.396  13.028
20446W        W92772   7.326   7.397   1.319
20447W        W92773  13.342  37.410  13.513
20448W        W92774   6.916  24.154   0.826
20449W        W92775  15.686   4.726  12.006
20450W        W92776   1.410  13.827  14.877
20451W        W92777  30.931  36.379   1.368
20452W        W92778  43.318  31.958   3.379
20453W        W92779   3.807  17.100  10.579
20454W        W92780  34.449  40.545   0.772
20455W        W92781  40.825   5.876   3.757
20456W        W92782  34.912   1.467   1.911
20457W        W92783  30.529   9.355  12.469
20458W        W92784  11.261  22.734  13.965
20459W        W92785   5.713  29.555   0.895
20460W        W92786  43.882  33.477   4.331
20461W        W92787  42.474  32.039   4.834
20462W        W92788  40.999  26.623  12.456
20463W        W92789  40.494  16.706  12.024
20464W        W92790  35.937  10.293  14.488
20465W        W92791  15.791  18.215   9.950
20466W        W92792   7.245   7.353  12.452
20467W        W92793  20.066  39.461   0.378
20468W        W92794  14.096  10.348   0.878
20469W        W92795  10.250  30.034  14.504
20470W        W92796  28.545  37.972   0.957
20471W        W92797  26.636  21.246  11.861
20472W        W92798  24.998  19.066  11.483
20473W        W92799  13.259  41.972   3.325
20474W        W92800  35.357  44.819  11.966
20475W        W92801  19.281  39.401   1.271
20476W        W92802  14.287  35.084   1.729
20477W        W92803  12.293   8.291   3.305
20478W        W92804  13.782   0.468  12.461
20479W        W92805  20.114  39.028   1.301
20480W        W92806  13.258  13.280   3.288
20481W        W92807  16.716  12.696   4.813
20482W        W92808  33.982  38.557  10.985
20483W        W92809  28.175  23.692  13.044
20484W        W92810  35.525  16.643  13.971
20485W        W92811  13.827   9.677   0.428
20486W        W92812  12.801  27.148  14.989
20487W        W92813  30.517  25.533   0.420
20488W        W92814  30.955  15.098  13.339
20489W        W92815  13.798  25.565  12.879
20490W        W92816  37.005  40.954   1.346
20491W        W92817  43.501   8.817   3.176
20492W        W92818  39.852  38.408  14.785
20493W        W92819   4.247  36.914   4.236
20494W        W92820  10.671  33.586  10.482
20495W        W92821  17.179  22.711   5.104
20496W        W92822   0.856  43.967   4.162
20497W        W92823  18.688  34.920   2.878
20498W        W92824  18.197  22.505   0.403
20499W        W92825  37.404  44.410  12.520
20500W        W92826   7.289  27.466  11.008
20501W        W92827   5.920  28.013  14.998
20502W        W92828  18.604  24.489   0.395
20503W        W92829  14.822   6.398  14.862
20504W        W92830  15.284   4.220   3.840
20505W        W92831  41.303  15.177  11.578
20506W        W92832  41.327  22.594   0.311
20507W        W92833   0.964   9.365  10.475
20508W        W92834  20.073  41.500   0.844
20509W        W92835   6.799  41.964   0.423
20510W        W92836  29.942  44.759  13.547
20511W        W92837  22.658  28.677   2.339
20512W        W92838  31.477   9.323   1.709
20513W        W92839  32.975  12.269  14.802
20514W        W92840  29.472  12.135   1.373
20515W        W92841  38.071   2.363   3.263
20516W        W92842  21.095  41.485   0.295
20517W        W92843   5.918  15.587  11.913
20518W        W92844  29.964   8.836  12.926
20519W        W92845  30.530  39.971   3.658
20520W        W92846  33.083  18.239   0.957
20521W        W92847  21.679  12.191   1.359
20522W        W92848  20.605  24.210   4.723
20523W        W92849  15.759  40.857  10.406
20524W        W92850  44.352  36.366  11.108
20525W        W92851  31.418   5.814  10.438
20526W        W92852  41.017  27.669   0.807
20527W        W92853  18.588  18.578  12.511
20528W        W92854  24.151   9.745   3.353
20529W        W92855  23.722  30.008   0.928
20530W        W92856  41.491  24.170   3.834
20531W        W92857  11.227  15.152  11.966
20532W        W92858  21.568  40.381  13.516
20533W        W92859   4.700  11.329   1.373
20534W        W92860  29.627  22.127   4.798
20535W        W92861  44.765  18.588  11.877
20536W        W92862  25.123  44.965  13.943
20537W        W92863   1.471   5.798   3.789
20538W        W92864  44.780  41.456   0.349
20539W        W92865   1.841  18.262  11.985
20540W        W92866  10.349  11.709  12.081
20541W        W92867  23.702   8.681   0.859
20542W        W92868  17.251   4.729  12.079
20543W        W92869  35.385   2.785   0.392
20544W        W92870  40.952  32.974  13.968
20545W        W92871  36.894   0.250   4.170
20546W        W92872  21.211  39.388   5.089
20547W        W92873   6.792  19.552   2.369
20548W        W92874   3.364  26.975  12.427
20549W        W92875  38.559  12.796  13.379
20550W        W92876  33.881  34.413   4.350
20551W        W92877   1.313   8.839  13.842
20552W        W92878  40.909  41.453  14.770
20553W        W92879  27.147  35.402   3.249
20554W        W92880  27.645  30.089  11.007
20555W        W92881  10.303  14.796   1.413
20556W        W92882  32.043  28.614   4.724
20557W        W92883  37.456  44.938  10.910
20558W        W92884   6.700  15.198  14.780
20559W        W92885  30.998   9.344   3.703
20560W        W92886  44.934   5.422   1.899
20561W        W92887  30.640  23.690  14.793
20562W        W92888  28.598  22.149   4.232
20563W        W92889  43.397   9.693   3.306
20564W        W92890  10.233  12.362   1.877
20565W        W92891  19.206  10.300   4.121
20566W        W92892  19.778  20.122   5.202
20567W        W92893  18.278   5.374   2.340
20568W        W92894  36.567  18.623  13.821
20569W        W92895  21.546  32.972   3.369
20570W        W92896  35.968  36.356  13.044
20571W        W92897  41.885   6.185   4.353
20572W        W92898  43.458  20.129   1.215
20573W        W92899  18.121  13.115  14.008
20574W        W92900   5.379  28.499   1.876
20575W        W92901  16.629   4.324  14.316
20576W        W92902  28.439   9.188  14.456
20577W        W92903  37.954  31.550   4.203
20578W        W92904   3.368  23.719  13.863
20579W        W92905  19.632  42.884   4.786
20580W        W92906  25.494  23.033  11.043
20581W        W92907  31.964   3.252  10.944
20582W        W92908   3.338   5.196   4.787
20583W        W92909  44.849  30.042  12.095
20584W        W92910  24.666  28.550   3.145
20585W        W92911   2.732  31.642   2.209
20586W        W92912  21.570  13.250   1.399
20587W        W92913  38.832  39.837   2.354
20588W        W92914   2.317  13.239  13.385
20589W        W92915  28.002  36.405   0.313
20590W        W92916   0.881   5.432   3.692
20591W        W92917  44.952  39.337   0.342
20592W        W92918  37.054   9.814  11.545
20593W        W92919  29.575  42.787  14.894
20594W        W92920  26.573   9.156   1.430
20595W        W92921  28.545   5.396   0.893
20596W        W92922  37.841  14.199  12.916
20597W        W92923   9.210  24.527  12.878
20598W        W92924  28.567  39.849   1.828
20599W        W92925  28.523   3.954  12.959
20600W        W92926  34.078  37.351   0.459
20601W        W92927   3.722  34.911   0.363
20602W        W92928   5.709  40.320   0.272
20603W        W92929   8.848  41.418  10.505
20604W        W92930  43.938   7.806   4.782
20605W        W92931   3.347  12.755   3.312
20606W        W92932  39.508  27.568   3.382
20607W        W92933  44.916  27.177   0.954
20608W        W92934  31.025   6.428   2.389
20609W        W92935  42.316  37.889  14.766
20610W        W92936   9.762  42.924  14.015
20611W        W92937   8.370  21.190   2.788
20612W        W92938  33.031  23.650  13.982
20613W        W92939  12.333   6.836  14.290
20614W        W92940  39.845  36.958  11.029
20615W        W92941  35.047  20.621   4.212
20616W        W92942  19.097  27.027  14.287
20617W        W92943  40.827  14.783   1.212
20618W        W92944  20.246   8.814   0.790
20619W        W92945   9.305  14.192  12.019
20620W        W92946  19.681  44.476   0.756
20621W        W92947  11.264  10.325  13.874
20622W        W92948   3.810  19.118  13.797
20623W        W92949  23.093  27.681   0.380
20624W        W92950  14.315  28.955   2.670
20625W        W92951  24.165  24.693   1.421
20626W        W92952   8.303  26.160  10.636
20627W        W92953   5.784  22.616  13.883
20628W        W92954   9.749   3.294   4.676
20629W        W92955  40.470  33.999   4.616
20630W        W92956  36.583  18.189  10.547
20631W        W92957   8.814  36.420  12.575
20632W        W92958  16.658  37.458  11.988
20633W        W92959  17.189  17.793   3.336
20634W        W92960  30.111   8.665  13.942
20635W        W92961  14.179  22.557   4.157
20636W        W92962   8.703   0.895  13.952
20637W        W92963  41.471   7.403   3.149
20638W        W92964  34.004  23.491  14.760
20639W        W92965  17.281   2.901  12.874
20640W        W92966  24.603   7.317   3.663
20641W        W92967   2.268   7.668   0.363
20642W        W92968  18.727  35.908   0.733
20643W        W92969  41.882  36.593   2.843
20644W        W92970  10.812  11.639   3.859
20645W        W92971   3.429  10.865   0.462
20646W        W92972  11.224  27.009   1.375
20647W        W92973  27.165  29.974  10.556
20648W        W92974  26.976  36.509   1.829
20649W        W92975   6.869  34.486   3.724
20650W        W92976   5.835  23.607   1.705
20651W        W92977   9.711  25.075   0.862
20652W        W92978   2.906  41.309   3.821
20653W        W92979  23.661   8.256   3.235
20654W        W92980   5.416   1.359   1.280
20655W        W92981   8.807  31.601  14.894
20656W        W92982   1.412  16.193   1.799
20657W        W92983  28.091  12.839   0.374
20658W        W92984  44.803  12.620   1.763
20659W        W92985  21.075  41.498   2.701
20660W        W92986   4.894  28.161  10.113
20661W        W92987   7.748  39.871  11.378
20662W        W92988  20.688  29.107   4.190
20663W        W92989  10.343  27.072   0.823
20664W        W92990  14.288  24.228   4.686
20665W        W92991  20.574  25.503  14.795
20666W        W92992  24.708  10.807   2.851
20667W        W92993  11.272  12.829  14.796
20668W        W92994  21.652  40.479   9.967
20669W        W92995  22.571   3.884  13.854
20670W        W92996  31.523  18.276   4.234
20671W        W92997  33.884  32.023   4.663
20672W        W92998  39.987  33.907  12.567
20673W        W92999  12.782  36.355   2.664
20674W        W93000  26.998  11.867   1.212
20675W        W93001  22.147  28.558   3.661
20676W        W93002  28.442  18.166  12.367
20677W        W93003   2.925  18.074  12.029
20678W        W93004  14.793  44.305   2.275
20679W        W93005   5.693  42.795  14.983
20680W        W93006  33.953  34.087   5.183
20681W        W93007  31.588  39.922   0.280
20682W        W93008  30.415   3.285  14.890
20683W        W93009   3.756  33.479   0.945
20684W        W93010  32.404  17.268  11.511
20685W        W93011  14.308  30.994   4.717
20686W        W93012  39.823   8.866   1.279
20687W        W93013   8.396  28.622   1.428
20688W        W93014  15.152   5.705   1.244
20689W        W93015  30.582  16.789  13.408
20690W        W93016  29.112  42.304   3.796
20691W        W93017  31.925   7.354  14.940
20692W        W93018  27.978  17.783   1.898
20693W        W93019  35.395  37.352   0.888
20694W        W93020  36.096  17.635  13.545
20695W        W93021  30.082   0.962  14.393
20696W        W93022  17.604  27.513   4.666
20697W        W93023  10.241  21.745  13.041
20698W        W93024   6.812  14.793  12.970
20699W        W93025  37.926   0.271  14.442
20700W        W93026   0.881  43.395  10.631
20701W        W93027  24.587  20.652   2.704
20702W        W93028   9.153   1.830   2.279
20703W        W93029  23.172  38.454  12.992
20704W        W93030   7.694  10.270   4.712
20705W        W93031  39.497  20.084  14.312
20706W        W93032   5.692   4.737   3.218
20707W        W93033   9.834  22.551  11.962
20708W        W93034  15.290  14.250   0.964
20709W        W93035  13.162   5.736  11.493
20710W        W93036   8.862  11.649  11.041
20711W        W93037   5.854  38.498  13.940
20712W        W93038  27.981  21.603  11.935
20713W        W93039  10.293   1.822  11.110
20714W        W93040  19.143  18.146  12.018
20715W        W93041  15.768   6.919   1.708
20716W        W93042   3.297  32.568  11.411
20717W        W93043  22.517  22.656   1.220
20718W        W93044  12.658  35.935  14.410
20719W        W93045   0.325  33.072  13.999
20720W        W93046   7.744   0.959  11.555
20721W        W93047  23.165  14.760   4.679
20722W        W93048   9.265  12.818  13.323
20723W        W93049  21.732  44.500   0.769
20724W        W93050  36.459  28.954   0.729
20725W        W93051  33.997  35.467   4.307
20726W        W93052  21.729  11.633  12.341
20727W        W93053  39.937  25.219  11.509
20728W        W93054  34.385  36.518  12.502
20729W        W93055   7.703  35.875  13.834
20730W        W93056   3.760  38.046   2.809
20731W        W93057  24.053   5.717   2.407
20732W        W93058  20.559  43.291   2.192
20733W        W93059   1.799  17.600   3.272
20734W        W93060  41.407  27.111  13.343
20735W        W93061  33.401  33.096   0.265
20736W        W93062  30.545  16.718   1.252
20737W        W93063   7.305  30.088  12.505
20738W        W93064  41.413  22.103  12.381
20739W        W93065  25.478   1.822  12.350
20740W        W93066   3.903   3.720   0.442
20741W        W93067  21.758  41.335  10.461
20742W        W93068  38.529  32.940   0.758
20743W        W93069  17.105  21.698  14.873
20744W        W93070   9.744  11.645  13.034
20745W        W93071  28.123  32.402   1.372
20746W        W93072  41.292  19.283   0.342
20747W        W93073  17.183  26.014   1.880
20748W        W93074  21.154   2.280  13.055
20749W        W93075   8.833  28.077   5.096
20750W        W93076  14.729  39.418  10.644
20751W        W93077   2.227  15.298   3.783
20752W        W93078  26.054  28.107  12.040
20753W        W93079  15.122  25.082  14.864
20754W        W93080  33.015  20.733   2.339
20755W        W93081  33.515  24.042   1.264
20756W        W93082  40.414  35.537   4.748
20757W        W93083  10.803  36.983   1.243
20758W        W93084  18.777  20.081   4.672
20759W        W93085  15.727  14.229   4.124
20760W        W93086   0.798  37.999  11.417
20761W        W93087   5.736  38.568  13.515
20762W        W93088   5.812  29.050  11.468
20763W        W93089  38.356  22.100   1.923
20764W        W93090  21.627  22.524  11.538
20765W        W93091  23.548  17.644  12.464
20766W        W93092  21.039   4.844  14.308
20767W        W93093  29.052  38.570  12.073
20768W        W93094  10.334  25.002  12.876
20769W        W93095   7.691   2.960  10.538
20770W        W93096  22.170  42.967  13.520
20771W        W93097   4.446   5.405  11.082
20772W        W93098   3.339  28.456   3.283
20773W        W93099  32.985  21.256   2.280
20774W        W93100  37.954  24.153   3.639
20775W        W93101   5.246  35.983   4.192
20776W        W93102  38.356  33.384  12.971
20777W        W93103  23.076   5.804  12.877
20778W        W93104  20.273  27.059   2.891
20779W        W93105  44.458  20.039  12.579
20780W        W93106  30.615  24.988   4.125
20781W        W93107  31.416   7.712   3.796
20782W        W93108   1.901  19.099  10.427
20783W        W93109  10.384  30.017   4.344
20784W        W93110   8.401  32.006   2.247
20785W        W93111  19.586   5.428  12.442
20786W        W93112  30.079   1.954   2.184
20787W        W93113  41.982  18.548  11.944
20788W        W93114  18.165   7.782   2.284
20789W        W93115  17.150  15.108   3.367
20790W        W93116  25.634  41.014   0.299
20791W        W93117  26.998  26.603   1.228
20792W        W93118   0.901  27.066   4.740
20793W        W93119  37.518   6.857   4.132
20794W        W93120   9.744   1.880   2.793
20795W        W93121  34.116  35.038  14.026
20796W        W93122  13.806  34.058   3.839
20797W        W93123   9.647  15.802   2.282
20798W        W93124  43.301  24.997  14.955
20799W        W93125  21.595  34.448   1.903
20800W        W93126   8.736   0.939   5.086
20801W        W93127  25.107  36.082  11.478
20802W        W93128  39.545   1.426  12.838
20803W        W93129  20.216  29.668   2.374
20804W        W93130  27.474  11.349  12.364
20805W        W93131   4.401  16.177   0.915
20806W        W93132  19.749  42.524  11.932
20807W        W93133   9.866  38.558  14.473
20808W        W93134  10.222  37.954   0.390
20809W        W93135  34.471  24.063  12.559
20810W        W93136  28.985  22.683   4.703
20811W        W93137  36.481  11.361  11.971
20812W        W93138  20.643  33.983   3.778
20813W        W93139  28.095  13.727  11.904
20814W        W93140  36.524  20.169   1.773
20815W        W93141  31.488  33.100   2.256
20816W        W93142  28.113  18.050   1.343
20817W        W93143  31.642  19.566   4.319
20818W        W93144  13.667  44.886  11.055
20819W        W93145  29.637  20.713   3.345
20820W        W93146  44.965  30.155  13.029
20821W        W93147   1.252   0.456  13.899
20822W        W93148  21.169  22.078  14.987
20823W        W93149  32.467  35.589  10.576
20824W        W93150  44.503  21.720   0.445
20825W        W93151   0.333  37.019  12.378
20826W        W93152  10.666  29.061   4.781
20827W        W93153  20.689   6.402   4.115
20828W        W93154  20.696  25.517  12.548
20829W        W93155   4.369   6.768   0.363
20830W        W93156   9.864  11.736   0.887
20831W        W93157  22.077  39.482   5.788
20832W        W93158  21.037  32.037   4.134
20833W        W93159   5.377  35.366  14.471
20834W        W93160  15.239  44.763   0.736
20835W        W93161   1.265  14.203   4.276
20836W        W93162  30.966   2.835   1.923
20837W        W93163  43.410  15.093   2.691
20838W        W93164  22.123   4.904   2.834
20839W        W93165   4.440  22.737  14.778
20840W        W93166  12.242  36.885   0.775
20841W        W93167  26.090  42.444  12.407
20842W        W93168  12.832  24.179  13.968
20843W        W93169  22.033  41.001   0.778
20844W        W93170  40.492  44.902   2.319
20845W        W93171  14.317  36.037  14.336
20846W        W93172  31.468  38.500   0.446
20847W        W93173  38.419  11.167   3.292
20848W        W93174  24.110  31.896  12.077
20849W        W93175  18.649  43.485   0.807
20850W        W93176   8.380  27.059   2.841
20851W        W93177   6.729   7.171   4.699
20852W        W93178  42.014   7.357  12.854
20853W        W93179  23.103  25.594  13.466
20854W        W93180  30.979  37.490   0.768
20855W        W93181   4.213   2.838  11.990
20856W        W93182   6.195  36.917  11.978
20857W        W93183   7.188  29.149  10.920
20858W        W93184  23.990  22.617  11.600
20859W        W93185  35.462   8.268   1.214
20860W        W93186  38.932   0.842  10.485
20861W        W93187  35.581  38.949   4.727
20862W        W93188  14.335  18.174   2.186
20863W        W93189  38.903  10.161   2.321
20864W        W93190  38.386  14.604  10.529
20865W        W93191   7.707  10.373  14.449
20866W        W93192   5.740   7.801   2.718
20867W        W93193  42.982  43.470   3.234
20868W        W93194  39.861  39.432   2.302
20869W        W93195  23.608  25.981   1.419
20870W        W93196  29.131   9.878  11.106
20871W        W93197  41.522  18.075  12.916
20872W        W93198  37.952  10.245  10.080
20873W        W93199  42.483   5.852   2.181
20874W        W93200   1.881   1.272   3.256
20875W        W93201  24.631  18.768   0.330
20876W        W93202  40.325  39.992  10.526
20877W        W93203  44.323  35.896   4.116
20878W        W93204   8.328  39.372  14.343
20879W        W93205  26.090  44.331   4.214
20880W        W93206   0.288  19.569  12.054
20881W        W93207  38.931  22.228  14.803
20882W        W93208   2.751  38.046   0.819
20883W        W93209  24.994  18.651  13.895
20884W        W93210   4.883  15.795  10.444
20885W        W93211  36.367  38.014  12.938
20886W        W93212  34.498  42.809   0.958
20887W        W93213   5.413  35.859  10.491
20888W        W93214   7.393  23.546   3.149
20889W        W93215  38.332  20.602   0.299
20890W        W93216  16.736  17.202   2.410
20891W        W93217   8.403  14.724  13.406
20892W        W93218  37.572   8.281  14.842
20893W        W93219   2.842  12.249  12.913
20894W        W93220  20.058   2.409  13.888
20895W        W93221  23.600  31.582  11.550
20896W        W93222  21.702  33.552  12.837
20897W        W93223  11.188  34.582  11.432
20898W        W93224  42.360  15.161  10.416
20899W        W93225  26.123  40.939   2.311
20900W        W93226  40.411  11.759  12.508
20901W        W93227  41.827  35.042  12.512
20902W        W93228  32.134   0.743   1.709
20903W        W93229   0.407  36.372   0.349
20904W        W93230  22.720  44.877   4.628
20905W        W93231  39.418   8.406   4.175
20906W        W93232  13.343  11.297  10.424
20907W        W93233  23.516  28.463   4.747
20908W        W93234  38.401  17.655   4.119
20909W        W93235  18.748  27.996   1.448
20910W        W93236   5.289  26.209  10.515
20911W        W93237  16.120  29.522  14.481
20912W        W93238  17.279  17.720   3.667
20913W        W93239  20.190  23.604  11.515
20914W        W93240   0.811  12.634   5.206
20915W        W93241   8.353  30.070  10.431
20916W        W93242  14.339  31.916   4.782
20917W        W93243  38.435   0.852   3.846
20918W        W93244  23.172  28.602  14.839
20919W        W93245  11.767  42.504  12.496
20920W        W93246   1.800   4.384   5.317
20921W        W93247  23.240  18.680   1.379
20922W        W93248  22.687   3.841  11.093
20923W        W93249  18.283   0.830   3.280
20924W        W93250  41.400  43.985   1.753
20925W        W93251  33.521  26.651  12.433
20926W        W93252  34.459  42.877   2.322
20927W        W93253  14.692  39.486  11.392
20928W        W93254   5.251  33.913  11.062
20929W        W93255  15.158   3.726  14.004
20930W        W93256   4.742  13.267   4.613
20931W        W93257  35.046  43.988  13.048
20932W        W93258   1.792  38.007   3.816
20933W        W93259  12.121  13.141  11.561
20934W        W93260  39.841   5.384  13.503
20935W        W93261  44.301   4.855  11.482
20936W        W93262   6.356   8.810  10.092
20937W        W93263  24.479  34.935  13.871
20938W        W93264  12.119  10.643  12.945
20939W        W93265  16.250  37.382   1.220
20940W        W93266  37.508  34.900   0.833
20941W        W93267  34.071   8.749   0.255
20942W        W93268  17.564  12.172  14.793
20943W        W93269  20.592  42.438  11.536
20944W        W93270   6.373  43.019  10.631
20945W        W93271  39.824  11.234  12.451
20946W        W93272  26.514  38.471   0.406
20947W        W93273  18.052  39.856  11.428
20948W        W93274  30.630   1.464  14.385
20949W        W93275  15.188  32.525  10.477
20950W        W93276  43.343   5.770   2.813
20951W        W93277   5.266  14.225  12.477
20952W        W93278  19.550  28.984   1.900
20953W        W93279  23.695   2.256   0.783
20954W        W93280  27.187  41.820  14.491
20955W        W93281  20.175  19.112   3.678
20956W        W93282  41.035  44.405  11.082
20957W        W93283  17.173   1.459   1.313
20958W        W93284  11.361  29.971   4.691
20959W        W93285  41.482  28.656   0.283
20960W        W93286  19.128   6.697  10.559
20961W        W93287  44.505  11.134  11.869
20962W        W93288  17.691   8.378   3.344
20963W        W93289  36.482  13.704   3.384
20964W        W93290  18.182  19.263  14.323
20965W        W93291  12.773  10.213  11.572
20966W        W93292  43.787  29.656  12.488
20967W        W93293   9.795  29.009   2.902
20968W        W93294  11.740  24.557  10.558
20969W        W93295  19.171  36.545  11.390
20970W        W93296  24.581  38.997   1.347
20971W        W93297  19.121  43.840   1.724
20972W        W93298  19.186  17.152   4.602
20973W        W93299  22.504   3.904   4.815
20974W        W93300   0.449  35.856   3.269
20975W        W93301  42.903  21.668   1.871
20976W        W93302   5.236  33.440  11.563
20977W        W93303  39.487   9.844   1.230
20978W        W93304  22.724  16.735   5.606
20979W        W93305   7.756  20.760  12.463
20980W        W93306  21.255  19.748  10.478
20981W        W93307   0.361  41.887  10.552
20982W        W93308  12.647  44.287   3.759
20983W        W93309  18.216  16.729   2.218
20984W        W93310  30.414   5.820  11.128
20985W        W93311  37.513  16.577   0.391
20986W        W93312  29.969  32.006   1.347
20987W        W93313  18.771  43.298   2.232
20988W        W93314  15.249  42.835   0.394
20989W        W93315  11.737  41.504   1.325
20990W        W93316  23.204   0.431   2.749
20991W        W93317  25.474  17.214  13.061
20992W        W93318  11.226  31.445  11.430
20993W        W93319   5.768  27.167  13.015
20994W        W93320  41.001  41.801  13.827
20995W        W93321  15.705  40.529   4.320
20996W        W93322  25.147   5.716  14.987
20997W        W93323   8.220  26.987   2.316
20998W        W93324  26.529  41.389  12.011
20999W        W93325  40.840   0.836   3.714
21000W        W93326  24.594   2.301  14.383
21001W        W93327  44.815  25.108  11.893
21002W        W93328  29.102  42.281   1.241
21003W        W93329  11.845  31.473   2.391
21004W        W93330   6.368  12.820   0.849
21005W        W93331  38.394  37.911  10.923
21006W        W93332  27.098  38.063  14.372
21007W        W93333  23.112  15.296   1.309
21008W        W93334  26.585  10.819   0.878
21009W        W93335  30.644  22.159   0.776
21010W        W93336   9.662   6.716  10.486
21011W        W93337   1.438  44.914   0.403
21012W        W93338  11.170  28.681   4.117
21013W        W93339  39.322   4.866   1.432
21014W        W93340   1.908  14.724   5.214
21015W        W93341  24.188  37.068   4.819
21016W        W93342  26.633  11.144   2.829
21017W        W93343   5.231  15.712  12.425
21018W        W93344  39.863  32.010  14.833
21019W        W93345  26.527  18.662  14.958
21020W        W93346  44.451  43.299   2.804
21021W        W93347  31.610  27.573  14.934
21022W        W93348  28.640  34.110  13.996
21023W        W93349  35.071  22.732   3.756
21024W        W93350   9.392  33.522   3.313
21025W        W93351  42.356  22.147   4.673
21026W        W93352   3.375  42.464  13.348
21027W        W93353  42.311   8.687   2.369
21028W        W93354  31.037  12.735  14.380
21029W        W93355  40.024  36.375  11.993
21030W        W93356  44.430   8.180   4.251
21031W        W93357  22.507   1.793   3.204
21032W        W93358  10.742  24.119  11.025
21033W        W93359  37.857  10.667   0.736
21034W        W93360   6.806  28.151  14.424
21035W        W93361   7.678   2.425   3.178
21036W        W93362  15.317  18.579  11.094
21037W        W93363  36.506  27.620   0.327
21038W        W93364  37.032  17.593   4.337
21039W        W93365   7.693  35.023   5.276
21040W        W93366  36.098  33.988  14.308
21041W        W93367  42.794   3.882  10.480
21042W        W93368  16.236  18.585   4.786
21043W        W93369  20.758   5.852   1.326
21044W        W93370  36.976  24.057  13.409
21045W        W93371  40.387   7.375  13.871
21046W        W93372   3.308  32.609   3.728
21047W        W93373  27.465  10.207  11.056
21048W        W93374  39.878  15.642   2.664
21049W        W93375  34.104  23.178   3.724
21050W        W93376   8.797   8.865   5.211
21051W        W93377  12.228  30.990  12.559
21052W        W93378  40.454  31.018   2.322
21053W        W93379  22.055  23.558  10.624
21054W        W93380  18.637  20.221  10.963
21055W        W93381  22.584  33.470   5.186
21056W        W93382  34.515   1.413  13.326
21057W        W93383  42.001  10.351  14.009
21058W        W93384  35.492   4.869  10.431
21059W        W93385  18.658  25.560  13.983
21060W        W93386  29.504   7.721  11.044
21061W        W93387  18.655  21.171  13.505
21062W        W93388  19.659  35.095   1.345
21063W        W93389   2.444  23.595   1.780
21064W        W93390  32.942   5.818  12.476
21065W        W93391  31.602  44.976  14.793
21066W        W93392  31.121   5.702   4.802
21067W        W93393  12.326   0.828  14.989
21068W        W93394   0.751   1.813  10.991
21069W        W93395  27.005   9.331  14.021
21070W        W93396   4.274  23.047   1.774
21071W        W93397  26.140   7.757   3.276
21072W        W93398  40.488  39.437  11.989
21073W        W93399  13.687  18.240  12.013
21074W        W93400  17.762  28.937  13.410
21075W        W93401   5.924  11.786  13.880
21076W        W93402  13.720  24.624  10.021
21077W        W93403  33.401  20.259  13.992
21078W        W93404  27.650  34.443   0.914
21079W        W93405   7.237  36.082  10.480
21080W        W93406  35.097   1.840  14.767
21081W        W93407  27.067  42.806  13.965
21082W        W93408   1.483  34.480  14.478
21083W        W93409  36.053   5.305   1.826
21084W        W93410  24.678  26.592   4.755
21085W        W93411  10.705  23.631  13.954
21086W        W93412  16.151   8.689  13.877
21087W        W93413   3.430   6.403  14.025
21088W        W93414  34.940  43.329   2.861
21089W        W93415  43.405   6.837   0.299
21090W        W93416   7.752  22.156   4.289
21091W        W93417  24.159   0.928   0.384
21092W        W93418  16.749  25.505  14.774
21093W        W93419  15.652  29.995   0.759
21094W        W93420  36.447  12.195   0.801
21095W        W93421  34.409  23.512  13.865
21096W        W93422  29.640  44.492  14.011
21097W        W93423   2.368  29.086  11.948
21098W        W93424  14.312  19.557  14.929
21099W        W93425  25.100  16.589   4.256
21100W        W93426  25.152  32.426   0.407
21101W        W93427  23.079   7.772   0.944
21102W        W93428  44.331   0.839  12.096
21103W        W93429  40.515   4.882  12.032
21104W        W93430   8.869  17.201   1.896
21105W        W93431  14.111  38.527   4.196
21106W        W93432  21.245  11.855  11.398
21107W        W93433   1.796  24.977  14.372
21108W        W93434   3.711  43.435  12.891
21109W        W93435  23.038   5.701  11.553
21110W        W93436  25.517  17.606   0.966
21111W        W93437  28.598  17.185   3.173
21112W        W93438   2.834  31.631   2.764
21113W        W93439  28.638  37.024   0.343
21114W        W93440  14.683  20.677  11.387
21115W        W93441   9.886  17.654   3.845
21116W        W93442  33.407   9.241   2.235
21117W        W93443  22.112   6.725   2.813
21118W        W93444  26.116  26.136   3.768
21119W        W93445  38.975   6.258   0.966
21120W        W93446   5.916  32.044  14.388
21121W        W93447   9.836  33.595  12.384
21122W        W93448  18.648   4.404  11.048
21123W        W93449  22.739  28.652   3.326
21124W        W93450  11.166   5.341  14.889
21125W        W93451  12.663   0.331   4.313
21126W        W93452   5.841  10.742   2.258
21127W        W93453  39.030  28.165   1.890
21128W        W93454  20.218  15.587  13.501
21129W        W93455  21.177  14.105   4.228
21130W        W93456  30.476   7.908  11.563
21131W        W93457  21.198  27.947  12.839
21132W        W93458  41.845  17.088  14.297
21133W        W93459  25.648  40.894  12.479
21134W        W93460  30.948  40.510   1.763
21135W        W93461  44.488  35.900  12.878
21136W        W93462  14.182  38.548   0.891
21137W        W93463  41.484   0.912   1.864
21138W        W93464  42.934   2.934  10.619
21139W        W93465  22.562   6.369   4.299
21140W        W93466  24.228  43.444   1.893
21141W        W93467  36.879   3.404   2.207
21142W        W93468   7.315   4.250  13.905
21143W        W93469  31.942   0.477  14.330
21144W        W93470  16.655   4.891  13.008
21145W        W93471  20.267  28.041  11.004
21146W        W93472  32.001  42.438  12.029
21147W        W93473  41.886  11.647   1.317
21148W        W93474  28.932  37.463  12.874
21149W        W93475  19.226   5.308   3.239
21150W        W93476   2.925   8.889   2.765
21151W        W93477  10.145  19.260   3.282
21152W        W93478  44.936  43.008  13.329
21153W        W93479   6.205  25.219   0.768
21154W        W93480  13.712   1.907   4.649
21155W        W93481  16.081   6.781   4.816
21156W        W93482  10.319   4.881   3.157
21157W        W93483  10.852  43.328  11.085
21158W        W93484  15.744  12.118   4.217
21159W        W93485   4.703  16.254  12.973
21160W        W93486  44.815  18.550   1.331
21161W        W93487  30.099  26.958  10.533
21162W        W93488   4.726  38.439   2.726
21163W        W93489  13.125   3.381   2.286
21164W        W93490  22.580   6.886   0.308
21165W        W93491  44.894  25.543  13.792
21166W        W93492  44.332   1.747   0.811
21167W        W93493  36.025  32.393   0.902
21168W        W93494  40.483  17.757   4.777
21169W        W93495  43.505  29.114   1.825
21170W        W93496  27.999  17.160   4.650
21171W        W93497   4.828   3.215   3.165
21172W        W93498   1.380  21.541   0.902
21173W        W93499  34.020  43.925  12.410
21174W        W93500   3.225   2.917   3.170
21175W        W93501  33.917  38.845   2.206
21176W        W93502  10.372  12.144  12.047
21177W        W93503  27.508  37.929   3.320
21178W        W93504  19.681  14.316  11.991
21179W        W93505  14.284  36.440  14.992
21180W        W93506  27.187  42.431   1.905
21181W        W93507  22.560  38.528  10.605
21182W        W93508   2.910  37.030  11.909
21183W        W93509  19.215  19.769  11.965
21184W        W93510  13.680  43.483   2.336
21185W        W93511  33.027  10.333   1.785
21186W        W93512  28.080  30.018   3.160
21187W        W93513  12.612  27.116  12.862
21188W        W93514  21.732  30.523   0.879
21189W        W93515  43.315   5.269   1.724
21190W        W93516  18.746  38.376  12.823
21191W        W93517  30.158  25.063  12.347
21192W        W93518   7.896  20.108   3.329
21193W        W93519  41.302   3.244  14.987
21194W        W93520  34.403   3.762   4.706
21195W        W93521  10.258  32.970   0.381
21196W        W93522  24.627  14.300  12.043
21197W        W93523  12.701  11.329  12.031
21198W        W93524   1.323  41.009  13.476
21199W        W93525  13.332  29.044   0.758
21200W        W93526  17.605  39.859  14.301
21201W        W93527  21.121  21.661  11.012
21202W        W93528  44.801   6.832  11.414
21203W        W93529  17.212  14.204   3.853
21204W        W93530  14.264  36.529   5.567
21205W        W93531  37.454  39.526   1.300
21206W        W93532  17.272  15.678   4.323
21207W        W93533  37.990  36.087   2.768
21208W        W93534  39.963  15.621  14.473
21209W        W93535  18.769  28.634  13.850
21210W        W93536  36.564   5.704  10.548
21211W        W93537  35.591   2.259   3.154
21212W        W93538  33.613  14.599   3.230
21213W        W93539  19.758   3.873  13.060
21214W        W93540  33.914  17.639  12.475
21215W        W93541  40.535  10.666   2.296
21216W        W93542  20.150  20.708   2.370
21217W        W93543  31.960  41.349  14.341
21218W        W93544   6.828  33.404   4.273
21219W        W93545  37.035  14.133  13.318
21220W        W93546  14.201   2.326  13.795
21221W        W93547  37.912  12.320   0.831
21222W        W93548   3.744  35.444  13.515
21223W        W93549  27.075   1.410   0.344
21224W        W93550  34.391   6.345   3.242
21225W        W93551  11.147  43.515  11.083
21226W        W93552   3.445  41.523  11.413
21227W        W93553  12.843  24.134   4.312
21228W        W93554  14.122  33.905  10.451
21229W        W93555  14.826  38.844  12.380
21230W        W93556   4.762  17.118  14.987
21231W        W93557  38.471   2.789   1.780
21232W        W93558  30.909   3.774  10.569
21233W        W93559  35.456   0.436   4.274
21234W        W93560  28.097   1.808   1.340
21235W        W93561   5.805  27.689  11.090
21236W        W93562   9.721  41.317  13.333
21237W        W93563  27.080  24.108  14.022
21238W        W93564   0.286  25.019   2.846
21239W        W93565  25.627  26.571   4.773
21240W        W93566   2.888  21.228   2.866
21241W        W93567  21.701  18.086  10.523
21242W        W93568  42.020  13.826  14.424
21243W        W93569  11.673   2.370  13.898
21244W        W93570  11.350  14.099   0.859
21245W        W93571  19.146  32.517   2.412
21246W        W93572  25.111  17.120   5.312
21247W        W93573  44.792  14.598  12.007
21248W        W93574  29.059   0.793   4.826
21249W        W93575   2.411  21.523   0.762
21250W        W93576  24.687   1.335   2.266
21251W        W93577  31.944  17.730  11.040
21252W        W93578  24.036  13.244  12.485
21253W        W93579   9.653  34.957  10.501
21254W        W93580  42.352   6.356  13.846
21255W        W93581  38.460  20.075  12.006
21256W        W93582  10.769  28.470  11.096
21257W        W93583  19.256  32.420   4.214
21258W        W93584   8.887  36.362  14.865
21259W        W93585  38.372  29.088   2.774
21260W        W93586   3.735  12.158  12.916
21261W        W93587   8.203  32.912   3.257
21262W        W93588   0.966  10.701  12.428
21263W        W93589  25.043  24.220   3.214
21264W        W93590  27.185  21.718  10.597
21265W        W93591  20.634  36.423  11.101
21266W        W93592   9.282  39.389   1.257
21267W        W93593  12.321  12.331  12.950
21268W        W93594  28.109  15.325  10.494
21269W        W93595  44.969  12.358   4.660
21270W        W93596  43.796  22.519   2.675
21271W        W93597   9.313  33.076  13.495
21272W        W93598  12.319  20.576  13.872
21273W        W93599  35.600  44.833   0.272
21274W        W93600  17.783   3.394  11.546
21275W        W93601  18.607  32.962  14.352
21276W        W93602  28.651  29.052  13.334
21277W        W93603   9.653  24.506  14.352
21278W        W93604  13.187  30.152   3.854
21279W        W93605  31.029  26.994   0.960
21280W        W93606   9.770   8.230   4.722
21281W        W93607  30.028  28.462   1.256
21282W        W93608  38.477  35.938   4.689
21283W        W93609  29.174  23.229  11.543
21284W        W93610  33.622  44.959   0.892
21285W        W93611   3.446   9.717   0.308
21286W        W93612  11.811   6.865   3.776
21287W        W93613   0.783  21.163   2.838
21288W        W93614  42.027  14.164   2.884
21289W        W93615  38.021  16.074   0.386
21290W        W93616   8.350   4.333  11.986
21291W        W93617  44.464  15.245   0.264
21292W        W93618  39.523  12.164   2.800
21293W        W93619   6.904  11.651   1.380
21294W        W93620  24.602  32.624  11.463
21295W        W93621   1.778  33.568   0.774
21296W        W93622   9.789  31.006  13.327
21297W        W93623   5.279  17.776  12.536
21298W        W93624  30.431  35.053   0.953
21299W        W93625  16.284   6.907   3.649
21300W        W93626  23.647  33.386   1.360
21301W        W93627  36.401  32.009   2.385
21302W        W93628  16.089  30.122  14.309
21303W        W93629  35.950  24.152  12.988
21304W        W93630  12.797  27.115   3.277
21305W        W93631  40.871  17.219  14.891
21306W        W93632  43.459  40.917   2.759
21307W        W93633  22.607   5.776   0.294
21308W        W93634  19.560  22.574   2.254
21309W        W93635  25.545  41.945  13.520
21310W        W93636  41.928  29.128   3.749
21311W        W93637   8.293  36.046   0.335
21312W        W93638  11.798  42.920   3.646
21313W        W93639  12.651   0.776  10.471
21314W        W93640  38.047  40.547   2.734
21315W        W93641   2.427  24.670   2.318
21316W        W93642  30.545   9.235  11.416
21317W        W93643  28.072  22.250   2.346
21318W        W93644  22.195   9.169  13.019
21319W        W93645  25.042   5.309   1.872
21320W        W93646   7.835  17.669  12.935
21321W        W93647   2.729  21.582   0.874
21322W        W93648  36.553  12.252  11.104
21323W        W93649  19.117  40.901   2.886
21324W        W93650  33.425  31.074  13.519
21325W        W93651  27.055  30.111   0.445
21326W        W93652  35.016  16.778  12.502
21327W        W93653   6.679  42.295   1.823
21328W        W93654  33.443  16.207   2.674
21329W        W93655  39.409  38.034   3.235
21330W        W93656  31.129  27.012  13.531
21331W        W93657  35.992  21.688  13.486
21332W        W93658  17.761  14.808  11.085
21333W        W93659  42.521   3.453   4.194
21334W        W93660  11.632  16.598  14.870
21335W        W93661  39.047  43.274   0.303
21336W        W93662  43.491  17.236  12.829
21337W        W93663  31.434   9.645  12.567
21338W        W93664  39.471  13.320   2.848
21339W        W93665   4.905  32.532   1.372
21340W        W93666  35.398  10.338   2.696
21341W        W93667  18.098  37.465  12.083
21342W        W93668  16.684  22.527   1.731
21343W        W93669  17.187  15.308   2.330
21344W        W93670  15.116  44.355  14.922
21345W        W93671   2.248   3.228  11.495
21346W        W93672   6.271  11.253  11.965
21347W        W93673  35.001   5.776  11.077
21348W        W93674  28.498  35.860   3.638
21349W        W93675  19.065  25.160   2.297
21350W        W93676  14.672  30.462  14.838
21351W        W93677   3.921  18.050  11.113
21352W        W93678   9.692  18.787  11.605
21353W        W93679   1.364  20.250   3.719
21354W        W93680  43.274  13.205  10.633
21355W        W93681  44.833  26.642  13.983
21356W        W93682  10.666  37.041  13.389
21357W        W93683  36.449  16.803  10.622
21358W        W93684  37.531  34.882  10.526
21359W        W93685  36.458  29.048   3.387
21360W        W93686  18.741  43.501   3.684
21361W        W93687   5.414  16.617  12.902
21362W        W93688  30.557   4.227   4.791
21363W        W93689  32.075  10.638   2.249
21364W        W93690   0.262  39.034   1.832
21365W        W93691  38.567  25.191  14.296
21366W        W93692  42.884  43.836   2.315
21367W        W93693  43.932  30.653   3.741
21368W        W93694  19.079  33.013   0.440
21369W        W93695  27.531  15.606   5.180
21370W        W93696  38.496   6.198   0.291
21371W        W93697  24.491  16.105  14.759
21372W        W93698  14.595  33.490   0.344
21373W        W93699  28.929  33.610   4.284
21374W        W93700  31.050  18.147  10.122
21375W        W93701  36.458  17.091   0.435
21376W        W93702  33.051  40.852  14.813
21377W        W93703  35.970  31.565  10.953
21378W        W93704  11.864  30.149  14.907
21379W        W93705  17.141  25.173   3.782
21380W        W93706   6.334  28.071  11.375
21381W        W93707  20.748   0.469  12.389
21382W        W93708  29.475  34.942  14.347
21383W        W93709   7.758   1.856  13.318
21384W        W93710  12.177   0.483  11.400
21385W        W93711  36.485  40.045  12.090
21386W        W93712   6.854  24.667  13.039
21387W        W93713  29.486  36.881  11.914
21388W        W93714  20.533  34.109  13.873
21389W        W93715  30.910   2.911   3.199
21390W        W93716  27.556  14.703   0.467
21391W        W93717  14.786  10.269   4.661
21392W        W93718  36.060  40.319  14.965
21393W        W93719  41.406  28.000   2.812
21394W        W93720  43.963   4.332  10.642
21395W        W93721   1.896  17.226   1.441
21396W        W93722   9.185  36.847  12.387
21397W        W93723  41.508  16.173   2.179
21398W        W93724  37.523   1.871  11.879
21399W        W93725  35.558   7.351  12.975
21400W        W93726   6.837  33.483   3.739
21401W        W93727   5.324   1.419  13.310
21402W        W93728  33.084  25.659   1.773
21403W        W93729  12.731   6.877  11.115
21404W        W93730  29.155  39.041   2.271
21405W        W93731  31.469  26.485   3.670
21406W        W93732   2.352  20.140   1.931
21407W        W93733   1.464  20.058  11.577
21408W        W93734   8.887  13.339  12.038
21409W        W93735  29.029  41.414  10.526
21410W        W93736  43.903  19.572  14.299
21411W        W93737  16.095  32.573   3.846
21412W        W93738  31.037  30.920  13.392
21413W        W93739  20.754  28.564   3.687
21414W        W93740  17.077  44.767  10.436
21415W        W93741  12.137  30.497  12.574
21416W        W93742  44.297  34.475  14.848
21417W        W93743  26.025   7.831  11.005
21418W        W93744  42.489  29.592   3.224
21419W        W93745  29.433  35.044  10.626
21420W        W93746  23.189  17.267   9.574
21421W        W93747  12.672   9.735   4.233
21422W        W93748   4.791  36.072   0.344
21423W        W93749   7.743  39.424  14.289
21424W        W93750  14.267  34.380   0.393
21425W        W93751  32.967  19.658   3.774
21426W        W93752  12.169   3.712   0.308
21427W        W93753  16.239  28.111   1.257
21428W        W93754  33.934  29.974   2.771
21429W        W93755  40.991  31.490   0.387
21430W        W93756   5.922   1.830  11.904
21431W        W93757  18.623  43.336  13.396
21432W        W93758  44.316   8.395   3.639
21433W        W93759  21.196  11.323   1.332
21434W        W93760  24.681  41.915  12.910
21435W        W93761  36.015  18.640  12.096
21436W        W93762   2.756  13.307  13.858
21437W        W93763  16.211  30.643   1.326
21438W        W93764   1.380   8.285   2.186
21439W        W93765  10.271  20.749   1.782
21440W        W93766  40.941  15.671  13.822
21441W        W93767  37.395   1.972   2.336
21442W        W93768  36.932   2.954   3.713
21443W        W93769  36.909  44.948  10.904
21444W        W93770  19.213  39.008  13.468
21445W        W93771  30.039  33.890  11.484
21446W        W93772  36.082  35.590  13.994
21447W        W93773  42.374  35.051   2.780
21448W        W93774  44.939  17.598  11.425
21449W        W93775  16.250  18.059  10.995
21450W        W93776  22.516  18.192   4.348
21451W        W93777   7.215  37.480  10.470
21452W        W93778  22.086  38.492  13.879
21453W        W93779  25.543  25.054  12.912
21454W        W93780  10.356  26.149   0.413
21455W        W93781  36.392  15.742  12.068
21456W        W93782   9.338  33.610  10.021
21457W        W93783   5.299  37.022  13.396
21458W        W93784  33.102  34.561  10.978
21459W        W93785  24.656  16.259  10.443
21460W        W93786  18.766  24.702   2.668
21461W        W93787  19.156  16.566   4.331
21462W        W93788  14.248   0.406  11.446
21463W        W93789  30.033   9.317  12.826
21464W        W93790  32.467  26.510   0.276
21465W        W93791  16.134  27.943  12.015
21466W        W93792  16.131  18.710  14.300
21467W        W93793  16.696  17.109   0.302
21468W        W93794  33.610  26.988  14.418
21469W        W93795  34.048  34.044   1.708
21470W        W93796  31.556  38.014  14.772
21471W        W93797   8.839   4.878   2.280
21472W        W93798  30.039  11.349  11.953
21473W        W93799   1.761  20.530   3.693
21474W        W93800  41.865   6.723   4.770
21475W        W93801   6.274  13.192  10.122
21476W        W93802  20.748  31.562  12.068
21477W        W93803  22.095   4.727   1.403
21478W        W93804  12.337  11.178  10.467
21479W        W93805   4.780  10.343   1.327
21480W        W93806   3.750  30.635  11.932
21481W        W93807   7.789  21.564   4.275
21482W        W93808   8.268  24.993   3.637
21483W        W93809  10.751  36.533  13.381
21484W        W93810  14.810   0.964   2.209
21485W        W93811  24.976  24.166   3.793
21486W        W93812   0.872  39.892   1.803
21487W        W93813  10.278  17.646  10.417
21488W        W93814   7.297   8.676   0.866
21489W        W93815  38.860   0.359  11.582
21490W        W93816  12.758  18.077   0.345
21491W        W93817   4.224  29.435  11.487
21492W        W93818  43.872  20.095   1.399
21493W        W93819  41.910  27.014   4.677
21494W        W93820  34.591  14.189   1.435
21495W        W93821  24.482  18.198   0.833
21496W        W93822  38.422  13.246   0.478
21497W        W93823   8.857  16.199  10.521
21498W        W93824  19.699  40.462  12.348
21499W        W93825   5.324   5.377   2.805
21500W        W93826  17.265   4.930   0.921
21501W        W93827  43.366  37.576   3.367
21502W        W93828  37.932  24.523   2.814
21503W        W93829  35.363  33.955   4.700
21504W        W93830  19.237   3.325  11.006
21505W        W93831  27.052   7.667   3.817
21506W        W93832  33.889  35.879   9.615
21507W        W93833  29.582   0.886  15.000
21508W        W93834   5.888  12.121   0.811
21509W        W93835  18.718  16.599  12.932
21510W        W93836  30.920  44.504   3.860
21511W        W93837  21.709  37.365   2.394
21512W        W93838  41.402  16.776  12.402
21513W        W93839  31.028  29.578  10.959
21514W        W93840  36.898  35.565   4.640
21515W        W93841  28.986  17.135   4.168
21516W        W93842   4.927  39.936  11.482
21517W        W93843  11.246  32.079  12.966
21518W        W93844  13.108  36.913   2.293
21519W        W93845  10.674  32.427   1.878
21520W        W93846  21.601  36.881   2.787
21521W        W93847   5.402  33.996  12.368
21522W        W93848  10.739  27.472   4.692
21523W        W93849  31.943  13.292  14.851
21524W        W93850  44.315  37.457   2.391
21525W        W93851  30.974  25.546  12.838
21526W        W93852  33.600   7.395  12.902
21527W        W93853  34.872  28.502   1.266
21528W        W93854  40.370  13.143  11.930
21529W        W93855   1.793  22.022   2.224
21530W        W93856  31.997  33.489  11.977
21531W        W93857  32.124  25.703   2.178
21532W        W93858  38.384  43.455   2.370
21533W        W93859   4.403  29.641   0.475
21534W        W93860  20.102  43.401   1.272
21535W        W93861  20.171   5.345  13.366
21536W        W93862  29.932   1.841   1.279
21537W        W93863  38.503  17.558  12.830
21538W        W93864  19.282  12.837   2.237
21539W        W93865  27.545  33.946  13.473
21540W        W93866  29.002  28.622   0.349
21541W        W93867  39.332  44.353   2.774
21542W        W93868   3.376  11.819  10.476
21543W        W93869   1.336  38.525   2.311
21544W        W93870   9.164  12.361   4.187
21545W        W93871  39.501  10.661   2.337
21546W        W93872  38.920  19.140   0.926
21547W        W93873  14.276  31.558   4.189
21548W        W93874  25.543  33.528   1.820
21549W        W93875  29.150   1.773  13.966
21550W        W93876   8.810   8.682   3.718
21551W        W93877   2.327  14.254  12.944
21552W        W93878  25.127   5.417  13.445
21553W        W93879  23.613  35.434  10.971
21554W        W93880  34.027   0.971  10.488
21555W        W93881  10.704  19.084   4.771
21556W        W93882  20.108  27.517   1.309
21557W        W93883  14.746  43.970  10.521
21558W        W93884  15.677  25.009  11.928
21559W        W93885   7.755  13.314  10.915
21560W        W93886   7.842  20.709   2.894
21561W        W93887  24.605  35.432   2.770
21562W        W93888  43.356  14.309  13.897
21563W        W93889   0.950  27.611  13.930
21564W        W93890  42.470  25.159   2.347
21565W        W93891  40.922  34.397   0.960
21566W        W93892   2.395   2.235   2.239
21567W        W93893  28.579   3.423  12.438
21568W        W93894  22.594  30.133   3.777
21569W        W93895   2.362  18.732   0.732
21570W        W93896  23.523  26.699   0.956
21571W        W93897  33.922  18.575  10.616
21572W        W93898   3.236  31.955   3.698
21573W        W93899   0.933   1.366  12.407
21574W        W93900  36.878  42.960   2.756
21575W        W93901   4.278   3.745   2.230
21576W        W93902  13.787  15.271   3.778
21577W        W93903  30.571  18.237  14.439
21578W        W93904  43.893  42.022  14.913
21579W        W93905   0.441  44.806  13.452
21580W        W93906  43.785  28.622  11.888
21581W        W93907   4.810  31.441  14.776
21582W        W93908  17.708   8.395   4.747
21583W        W93909  12.852  21.601   0.281
21584W        W93910   8.824  24.001  12.344
21585W        W93911  30.568   0.338   0.404
21586W        W93912  40.037  14.613   4.161
21587W        W93913  34.083  22.539  11.090
21588W        W93914   9.670  34.610  11.405
21589W        W93915   8.210  38.984  14.432
21590W        W93916  33.938  33.380   1.788
21591W        W93917   8.262   6.863  14.992
21592W        W93918   1.470  19.270   3.798
21593W        W93919   9.774  27.114   1.732
21594W        W93920  17.620  15.094   3.652
21595W        W93921   4.306  34.955  14.021
21596W        W93922  40.482  38.917   2.727
21597W        W93923   6.385  40.969   0.325
21598W        W93924  21.124  44.885   0.735
21599W        W93925  13.106  41.455  14.913
21600W        W93926  22.529  10.338  11.856
21601W        W93927  18.220   5.747  11.917
21602W        W93928   5.870   2.367   2.792
21603W        W93929  15.695   5.417  13.047
21604W        W93930  24.511  36.882   1.795
21605W        W93931  10.796  30.651  13.800
21606W        W93932  23.221  34.988  12.909
21607W        W93933   9.651  10.825   3.328
21608W        W93934   3.342  23.735   1.894
21609W        W93935  16.285  24.199  13.503
21610W        W93936  24.087  11.250   4.690
21611W        W93937  30.102  44.850  14.762
21612W        W93938  33.591  32.498  10.972
21613W        W93939   9.151  22.746  11.129
21614W        W93940  17.633  22.127   0.799
21615W        W93941  26.149  12.179   2.409
21616W        W93942  29.505   7.738  14.866
21617W        W93943  42.439   8.791   4.791
21618W        W93944  14.235  16.638   1.900
21619W        W93945  21.522   1.898  11.065
21620W        W93946  19.101  12.709  10.535
21621W        W93947  27.008  32.105   2.217
21622W        W93948  42.786  44.350   0.859
21623W        W93949  29.030  13.197   1.889
21624W        W93950  33.494  32.625  13.545
21625W        W93951  43.460  44.486   3.752
21626W        W93952  13.217  23.112  13.890
21627W        W93953  40.456  18.167  12.964
21628W        W93954  16.609  26.039  12.484
21629W        W93955  23.525   7.177   1.905
21630W        W93956   0.880  23.088  11.077
21631W        W93957  21.601  41.848  12.414
21632W        W93958  22.057  16.725  10.492
21633W        W93959  31.038   3.789   3.727
21634W        W93960  14.705  22.708  10.536
21635W        W93961  20.624  26.116  14.447
21636W        W93962  15.702   9.174  12.961
21637W        W93963  33.116   1.831  10.412
21638W        W93964  10.786   8.900  13.975
21639W        W93965   1.414  11.258   9.458
21640W        W93966   3.334  44.806   2.814
21641W        W93967  19.281   2.256  10.643
21642W        W93968  26.064  33.904   2.881
21643W        W93969  14.753   7.825   1.754
21644W        W93970  43.803   4.247  12.949
21645W        W93971  29.475   3.408  13.353
21646W        W93972  11.304  23.033  10.622
21647W        W93973   6.778   4.371  11.062
21648W        W93974  24.709  36.464  14.839
21649W        W93975   5.687  39.377  13.519
21650W        W93976  23.541  34.412   2.801
21651W        W93977   3.868   9.260  13.525
21652W        W93978  11.158  27.688   4.655
21653W        W93979   5.229   9.831  10.448
21654W        W93980  32.015  20.722   3.352
21655W        W93981  22.183  18.753  13.048
21656W        W93982   9.377  15.768  10.598
21657W        W93983   8.291  31.024   3.789
21658W        W93984  28.967  27.574   1.713
21659W        W93985  28.638  42.860  10.629
21660W        W93986  39.821  20.146   4.732
21661W        W93987  34.982  23.664   0.859
21662W        W93988  29.591  41.533  13.965
21663W        W93989  11.339  26.698   1.926
21664W        W93990  26.059  24.560   2.343
21665W        W93991  43.353   5.755   4.626
21666W        W93992  32.138  39.438  13.811
21667W        W93993  14.633  40.026  10.154
21668W        W93994  30.085   5.234  11.922
21669W        W93995  12.742  14.201  11.599
21670W        W93996  21.543   2.322  13.548
21671W        W93997  36.389  15.155   4.332
21672W        W93998  37.416  35.483   1.442
21673W        W93999  37.057  39.866   2.775
21674W        W94000   8.879  20.662  13.028
21675W        W94001  22.163   5.722  14.914
21676W        W94002  30.568   3.913   2.350
21677W        W94003  24.217  27.995   0.747
21678W        W94004   4.222   3.812  14.846
21679W        W94005  28.550  33.397  10.412
21680W        W94006  32.892   8.820   0.889
21681W        W94007  12.623  26.128  10.593
21682W        W94008  23.729  11.755   4.679
21683W        W94009  11.732  30.158   3.748
21684W        W94010  12.318  22.708   4.177
21685W        W94011  18.232  33.034  12.838
21686W        W94012  25.041  21.757   3.789
21687W        W94013  20.726   7.674  12.955
21688W        W94014  26.061   3.883  13.949
21689W        W94015  22.549  33.130   4.720
21690W        W94016   1.805  43.900  13.956
21691W        W94017  24.078  18.567  12.512
21692W        W94018  18.230   6.687  13.359
21693W        W94019  23.493  16.246  10.970
21694W        W94020  40.362   8.782   5.206
21695W        W94021  24.502  18.751  11.408
21696W        W94022   8.669  36.425  11.985
21697W        W94023  32.926  43.347  11.400
21698W        W94024  11.369   2.763  12.919
21699W        W94025  20.617  28.047   2.387
21700W        W94026  44.882  18.059  10.891
21701W        W94027  12.117  37.026  12.909
21702W        W94028  11.841  16.748   4.690
21703W        W94029  38.993  22.013   0.772
21704W        W94030  36.976  34.072  14.943
21705W        W94031  26.185  22.155  11.402
21706W        W94032  14.756  39.878  10.983
21707W        W94033  29.526  38.548   1.746
21708W        W94034  33.879  44.390  11.864
21709W        W94035  30.105  11.197  11.475
21710W        W94036  30.064  15.582   1.786
21711W        W94037  24.095  10.821  11.108
21712W        W94038  26.677  23.633  13.471
21713W        W94039   7.239  26.487   0.841
21714W        W94040  42.320   7.363  14.806
21715W        W94041  30.986   6.894   2.247
21716W        W94042  16.681  14.785   3.177
21717W        W94043  11.308  23.102  11.975
21718W        W94044   7.870  26.460  13.963
21719W        W94045  42.431   1.905   1.323
21720W        W94046  24.187  43.929  13.911
21721W        W94047  33.464  15.623   2.853
21722W        W94048  24.490  37.027   3.732
21723W        W94049  39.435  11.332   1.783
21724W        W94050  38.519  27.659  14.387
21725W        W94051  13.156  25.559  12.012
21726W        W94052  30.418  12.822   0.847
21727W        W94053  17.246  23.641   2.396
21728W        W94054  37.343  33.515  11.903
21729W        W94055   2.452  26.168  12.464
21730W        W94056  12.127  34.442  14.354
21731W        W94057  31.600  24.603   3.731
21732W        W94058  18.678  37.024   1.886
21733W        W94059  38.959   0.909   4.128
21734W        W94060  27.095   7.209  14.844
21735W        W94061  11.314  27.121   4.140
21736W        W94062  15.577  43.898   2.225
21737W        W94063  42.999  36.948  11.386
21738W        W94064  20.608  27.670   4.157
21739W        W94065  16.671   7.827   0.291
21740W        W94066  24.554  33.943   4.296
21741W        W94067  19.273   9.274   4.645
21742W        W94068  35.946  38.967  13.362
21743W        W94069  36.955  37.924  10.905
21744W        W94070  34.459  37.894  12.905
21745W        W94071  41.412  41.833   4.739
21746W        W94072  20.693  31.940  11.031
21747W        W94073  31.425  43.274  14.782
21748W        W94074  21.174  36.496   1.265
21749W        W94075   2.255  12.345   9.535
21750W        W94076  26.153  42.385   0.868
21751W        W94077  26.166  27.509  14.481
21752W        W94078  32.965  42.785  13.911
21753W        W94079  22.695  10.372   1.833
21754W        W94080  11.653   3.460   3.281
21755W        W94081  35.568  21.242  11.580
21756W        W94082  26.160  15.174  11.393
21757W        W94083   8.665  23.586  10.910
21758W        W94084  31.929  17.224  12.871
21759W        W94085  15.128  43.324  13.988
21760W        W94086  39.354  13.141  12.014
21761W        W94087  19.126   5.790  10.476
21762W        W94088  21.542  38.044   5.774
21763W        W94089  21.628  24.137   2.669
21764W        W94090  41.033  29.473   2.709
21765W        W94091  11.326  36.471  13.874
21766W        W94092   4.930  16.317  10.051
21767W        W94093  37.995  34.029  10.476
21768W        W94094  19.620  32.417   0.469
21769W        W94095  19.601  22.589  11.494
21770W        W94096   4.914  37.519   3.205
21771W        W94097  17.254  18.686  11.096
21772W        W94098  20.091  39.966  11.877
21773W        W94099  30.132  27.689  12.957
21774W        W94100  25.209  32.634  14.962
21775W        W94101   5.394  28.646  14.829
21776W        W94102  12.338  12.307   4.646
21777W        W94103   2.401  10.346   1.419
21778W        W94104   5.206  27.119   3.340
21779W        W94105  28.616  34.896   4.307
21780W        W94106  43.771  37.558   1.694
21781W        W94107  23.021  26.617  13.478
21782W        W94108   4.346  40.887  13.936
21783W        W94109  43.459  30.546  10.483
21784W        W94110  33.499   8.752  10.075
21785W        W94111  39.462  22.169  10.602
21786W        W94112   2.456  19.264  14.445
21787W        W94113  38.003   4.235  11.533
21788W        W94114  38.056  44.877   2.739
21789W        W94115  19.216  28.011  10.487
21790W        W94116  35.927  14.113  14.763
21791W        W94117   9.218  34.582   3.265
21792W        W94118   5.744  13.664  14.494
21793W        W94119  39.974  20.626  14.919
21794W        W94120  11.658  43.807  12.506
21795W        W94121  23.211  23.523   4.127
21796W        W94122  26.584  12.355  12.550
21797W        W94123  38.909   0.383   1.908
21798W        W94124  22.109   7.844   4.177
21799W        W94125  23.582  33.610   4.154
21800W        W94126  13.248   1.906   1.420
21801W        W94127   4.847   4.830   0.434
21802W        W94128  32.964  28.930   3.163
21803W        W94129  22.577  40.325   2.244
21804W        W94130  24.665  15.193  14.929
21805W        W94131  23.021   6.312  11.961
21806W        W94132  13.756  42.926   1.262
21807W        W94133  16.274  35.889  10.627
21808W        W94134  38.534  34.907  11.094
21809W        W94135  14.163   2.736  12.850
21810W        W94136  37.426   9.824   5.772
21811W        W94137  42.844  28.563  14.358
21812W        W94138  18.746  24.519  11.974
21813W        W94139  19.559  26.196   1.216
21814W        W94140  39.886  23.694   4.137
21815W        W94141  38.838  27.473   2.276
21816W        W94142  13.795  25.518   3.716
21817W        W94143   9.706  17.248  14.889
21818W        W94144  34.031  34.014  10.541
21819W        W94145  37.924   5.808   0.913
21820W        W94146  33.522  34.037  10.456
21821W        W94147   7.732  42.441   0.280
21822W        W94148   9.182  35.528  10.484
21823W        W94149  13.777  37.011   3.280
21824W        W94150  38.472  11.867   1.922
21825W        W94151  39.453  39.938   1.229
21826W        W94152  40.949  41.307  12.093
21827W        W94153   7.891   2.421   1.745
21828W        W94154   7.810  10.740  12.537
21829W        W94155  24.640   2.398  12.950
21830W        W94156  10.360  39.983  13.929
21831W        W94157   4.403   9.821   4.155
21832W        W94158  30.589   9.664  10.892
21833W        W94159  10.306   5.911   0.854
21834W        W94160  28.155   1.265   4.154
21835W        W94161  14.116   6.248   4.206
21836W        W94162  37.520  32.931   0.964
21837W        W94163   3.843  42.465   1.737
21838W        W94164  42.414  22.540  11.449
21839W        W94165  19.653  43.994   3.834
21840W        W94166  38.543  38.064  12.443
21841W        W94167   5.886  18.263  11.072
21842W        W94168  12.713  28.461  10.934
21843W        W94169  26.186  11.749   3.648
21844W        W94170  28.529  37.442  14.788
21845W        W94171   5.735   0.958   2.227
21846W        W94172  20.175   9.151  11.504
21847W        W94173   7.333  14.822   3.695
21848W        W94174  34.468  12.190   4.757
21849W        W94175  22.035  19.178   1.433
21850W        W94176  26.530  10.199   0.406
21851W        W94177  43.326  12.631  14.938
21852W        W94178  41.343  43.778   1.340
21853W        W94179  13.185   3.873   4.662
21854W        W94180  40.976   2.855  11.990
21855W        W94181   0.763  35.886  13.800
21856W        W94182  11.834  32.083  14.334
21857W        W94183  17.628  23.652   2.884
21858W        W94184  24.533  39.463   2.297
21859W        W94185   3.812  22.163   0.964
21860W        W94186  39.416  24.552  11.910
21861W        W94187  41.383  20.075  11.379
21862W        W94188   6.874  29.127  13.816
21863W        W94189  42.501  11.645   0.959
21864W        W94190  29.445  10.234  14.411
21865W        W94191   0.449   9.717  13.988
21866W        W94192   5.229  13.130  12.000
21867W        W94193  43.868  33.384   3.345
21868W        W94194  42.366   1.390   4.776
21869W        W94195  26.201  10.656  11.380
21870W        W94196  13.183   8.281  12.524
21871W        W94197  26.996   4.205  11.503
21872W        W94198  23.984   7.367  10.549
21873W        W94199  13.252  33.958  13.495
21874W        W94200   0.912  37.934   3.688
21875W        W94201  26.661  11.757  13.372
21876W        W94202  40.040  14.159  14.857
21877W        W94203   3.822  44.392  13.963
21878W        W94204  37.835  40.460   0.398
21879W        W94205  38.396  34.506   0.407
21880W        W94206  43.956  32.062  10.468
21881W        W94207  12.753  12.706   2.395
21882W        W94208  43.400  16.117   3.197
21883W        W94209  34.072  11.638  10.919
21884W        W94210  16.174  18.131   3.309
21885W        W94211  40.833  21.534   1.821
21886W        W94212  18.108  20.530   2.205
21887W        W94213  11.647  38.433   0.355
21888W        W94214   0.331  43.773  13.827
21889W        W94215  21.583  22.720   0.473
21890W        W94216  23.717  42.978   1.699
21891W        W94217  28.587  14.189   3.346
21892W        W94218  19.253  38.497   0.767
21893W        W94219  43.316   4.863   0.262
21894W        W94220  34.966  21.608   4.658
21895W        W94221  30.911  30.950   2.776
21896W        W94222   7.323  25.163  14.846
21897W        W94223  44.982  18.747  11.080
21898W        W94224  23.559  27.492   1.715
21899W        W94225  21.672   6.775   2.280
21900W        W94226   8.324  25.210   4.662
21901W        W94227  22.640  22.585   9.977
21902W        W94228  30.488  42.840  11.929
21903W        W94229   7.675  28.659  13.862
21904W        W94230   2.737  31.956  13.401
21905W        W94231  12.344   7.389   1.405
21906W        W94232  10.637  26.984   0.307
21907W        W94233  32.635  18.295  14.948
21908W        W94234  19.176  11.804   4.775
21909W        W94235  35.373  21.572   3.165
21910W        W94236   9.235  42.411   0.293
21911W        W94237   0.413  13.656  10.578
21912W        W94238  33.955  26.082   3.385
21913W        W94239  36.928   2.341   0.849
21914W        W94240   2.417  35.566  13.040
21915W        W94241   6.260  44.273  12.847
21916W        W94242  21.553  14.826  11.402
21917W        W94243  40.880  27.566  14.379
21918W        W94244  34.508  35.032   0.351
21919W        W94245  40.514   6.698  14.437
21920W        W94246  11.756  19.721   4.126
21921W        W94247  12.283  19.738  14.382
21922W        W94248  14.263   3.915   3.151
21923W        W94249  19.231  15.638  12.074
21924W        W94250  25.523  15.615   5.185
21925W        W94251  29.115   8.293  12.494
21926W        W94252  44.422  12.303  10.895
21927W        W94253   0.492   0.971   2.214
21928W        W94254  20.106  23.632  12.511
21929W        W94255  36.087  40.811  12.453
21930W        W94256  44.391  27.069   3.272
21931W        W94257   9.686  39.410  11.469
21932W        W94258  42.028  38.957  11.975
21933W        W94259  28.125   7.666   4.622
21934W        W94260  13.285  38.836  12.958
21935W        W94261  20.736  20.072   2.178
21936W        W94262  31.439   6.853  14.471
21937W        W94263   9.825  43.407  11.396
21938W        W94264  28.939  41.440   3.246
21939W        W94265  33.564   7.911   3.341
21940W        W94266  17.115  18.203   2.898
21941W        W94267  22.060  14.254  11.376
21942W        W94268  42.348  15.726   0.434
21943W        W94269  16.295  22.057   2.290
21944W        W94270  11.157  37.364   3.300
21945W        W94271   8.304  26.511   2.286
21946W        W94272   4.431  31.064  12.901
21947W        W94273  33.408  44.792  11.002
21948W        W94274  31.517  31.053   2.845
21949W        W94275  28.619  27.157  11.548
21950W        W94276  25.545  23.701  12.416
21951W        W94277  35.064  19.103  13.883
21952W        W94278  11.288  41.399   1.778
21953W        W94279  28.963  39.539  12.838
21954W        W94280  40.394  25.476  12.976
21955W        W94281  43.000  28.665  12.493
21956W        W94282  22.600   8.800   5.261
21957W        W94283  25.011  37.465   1.441
21958W        W94284   5.752  44.801   2.384
21959W        W94285  12.631  23.228   4.302
21960W        W94286  37.337  11.754   4.255
21961W        W94287  43.765  11.846   4.828
21962W        W94288  36.368   9.690   3.286
21963W        W94289  41.396  42.348   0.750
21964W        W94290  28.162  34.382   3.301
21965W        W94291   6.705  22.725   1.738
21966W        W94292  31.624  16.290  13.796
21967W        W94293  25.713   6.797  12.040
21968W        W94294  16.771  37.355  13.941
21969W        W94295  20.220  12.854  13.845
21970W        W94296  35.885  12.241  10.498
21971W        W94297  41.446  40.494   1.798
21972W        W94298  25.478  41.878   2.309
21973W        W94299  30.998   6.918   1.303
21974W        W94300  11.705   1.427   2.889
21975W        W94301   5.811   3.815  11.445
21976W        W94302   7.757  24.687  13.944
21977W        W94303  39.371  26.575  14.376
21978W        W94304  34.593  26.472   2.780
21979W        W94305  13.162  38.414   1.742
21980W        W94306  29.998  26.189   0.421
21981W        W94307  27.998   7.690   1.214
21982W        W94308  23.165  31.984   1.740
21983W        W94309  35.009  22.611   1.230
21984W        W94310  43.999  39.026   0.933
21985W        W94311  22.091  40.000   4.778
21986W        W94312  39.034  10.342  11.128
21987W        W94313  20.557   2.743   2.727
21988W        W94314   4.908  32.967   4.273
21989W        W94315  25.020   1.255   1.777
21990W        W94316  19.247  34.098   1.788
21991W        W94317  37.511   2.924  11.544
21992W        W94318  19.256  14.722  12.907
21993W        W94319   3.291   5.797  12.448
21994W        W94320   8.727  12.203   2.205
21995W        W94321  37.496  11.151   4.347
21996W        W94322  44.319   6.401  10.571
21997W        W94323  35.038  41.032  13.350
21998W        W94324  18.638  30.926   2.783
21999W        W94325  30.055  44.885  14.407
22000W        W94326  11.680  13.289   3.319
22001W        W94327  24.624   3.304  12.994
22002W        W94328  30.650   7.370  14.344
22003W        W94329  22.188  10.364  13.375
22004W        W94330  31.454  19.159   1.264
22005W        W94331  11.131  27.187   9.492
22006W        W94332  43.375  40.365   4.236
22007W        W94333  21.646   4.349   1.765
22008W        W94334  12.129   7.851  11.597
22009W        W94335  28.585  14.642  10.567
22010W        W94336  39.023  12.341  11.957
22011W        W94337  39.387  30.588  14.901
22012W        W94338  16.138  33.537  13.445
22013W        W94339  29.502   9.829   0.458
22014W        W94340  10.728  37.528   4.163
22015W        W94341  25.049   2.231   0.823
22016W        W94342  12.126  43.800   0.426
22017W        W94343  22.235  33.986  11.958
22018W        W94344   7.395   0.362   1.333
22019W        W94345  11.158   0.750   0.906
22020W        W94346  19.283  17.081  11.511
22021W        W94347  13.844  40.361   1.739
22022W        W94348   2.381  18.244   2.883
22023W        W94349   8.725  43.489  13.811
22024W        W94350  20.124  41.021  13.532
22025W        W94351  34.015   7.358   1.373
22026W        W94352  16.652  33.993  13.462
22027W        W94353  30.594   1.305   1.329
22028W        W94354  13.150  31.445  12.541
22029W        W94355  21.061   0.834  14.996
22030W        W94356  29.047  19.559  10.421
22031W        W94357   4.939  26.460  14.845
22032W        W94358   3.428   2.441  11.085
22033W        W94359  36.507  41.803   1.367
22034W        W94360  31.056   2.253   4.156
22035W        W94361  42.916   6.717  13.978
22036W        W94362  10.240  25.708   4.704
22037W        W94363   1.394  39.396   4.302
22038W        W94364  31.009  14.292  11.376
22039W        W94365  33.574  36.457   3.205
22040W        W94366  29.138  14.635  12.855
22041W        W94367  35.866   9.197   5.126
22042W        W94368  23.530  14.227   9.926
22043W        W94369  26.182  13.631   1.901
22044W        W94370  10.764   2.780  12.365
22045W        W94371  27.541  31.954   3.793
22046W        W94372  22.538   6.299   3.310
22047W        W94373  32.019  44.455   4.823
22048W        W94374  12.119  38.876  10.456
22049W        W94375  29.962  24.599  11.407
22050W        W94376  27.987  12.160  10.984
22051W        W94377  31.952  25.664   1.905
22052W        W94378  30.154  29.108   1.314
22053W        W94379  19.171  27.566   2.356
22054W        W94380  37.901  25.007  11.590
22055W        W94381  37.362  39.357   3.759
22056W        W94382  32.552  44.297  12.382
22057W        W94383   7.299  27.505   2.888
22058W        W94384  25.072  42.352   1.343
22059W        W94385  27.153  11.802  11.862
22060W        W94386   9.805  22.668   1.290
22061W        W94387  31.467  10.275  11.871
22062W        W94388  10.672  25.629  11.017
22063W        W94389  14.177  18.284   1.222
22064W        W94390  41.938  34.471   4.817
22065W        W94391  27.005  30.069  11.912
22066W        W94392  22.101  36.900  14.280
22067W        W94393  20.596  27.683  12.539
22068W        W94394  16.698  37.373   3.375
22069W        W94395  25.518  36.512   3.191
22070W        W94396  25.617  43.495  11.414
22071W        W94397   4.742  39.359  11.100
22072W        W94398  18.592  44.913   1.238
22073W        W94399  28.011  19.052   0.863
22074W        W94400  25.104  15.178   0.769
22075W        W94401  18.751  14.597   0.289
22076W        W94402  23.216  22.634   0.422
22077W        W94403  27.448  33.609   2.878
22078W        W94404  37.974  34.506   0.905
22079W        W94405  16.615  10.358   2.303
22080W        W94406  32.556  36.555   3.372
22081W        W94407  39.053  44.945   0.275
22082W        W94408  29.147  13.699   0.246
22083W        W94409  44.494  19.675  11.916
22084W        W94410  32.924  15.647  10.997
22085W        W94411   8.302   6.780   2.802
22086W        W94412  19.692  24.664  11.090
22087W        W94413  11.194  34.579  12.051
22088W        W94414  10.255  41.538   1.364
22089W        W94415  34.990   9.889   4.348
22090W        W94416   1.812  27.558  10.959
22091W        W94417   2.236   3.809   3.800
22092W        W94418  15.249  21.719  10.621
22093W        W94419  44.764  37.450   9.937
22094W        W94420  23.075  43.981  12.352
22095W        W94421  22.022  43.854   2.267
22096W        W94422  12.140   6.191  12.365
22097W        W94423  28.490  19.111   2.369
22098W        W94424  30.003   5.242   3.667
22099W        W94425  40.502  19.713   9.971
22100W        W94426   0.254  36.903  10.592
22101W        W94427  30.121  11.633  10.910
22102W        W94428  44.272   3.761   4.681
22103W        W94429  37.974  32.025  12.893
22104W        W94430   1.946  11.719   4.712
22105W        W94431  41.964  13.293  12.049
22106W        W94432   8.310  24.076   3.167
22107W        W94433  21.735   0.946  14.281
22108W        W94434  10.329  23.588  10.911
22109W        W94435   6.370   6.374   2.693
22110W        W94436  16.235  30.053  10.639
22111W        W94437  41.964  10.789   1.751
22112W        W94438  36.350  27.638   4.166
22113W        W94439  40.522  25.632   3.250
22114W        W94440  37.369   1.878   9.974
22115W        W94441  41.939  10.327   1.935
22116W        W94442  41.985  41.364   5.315
22117W        W94443  31.623   7.698  11.379
22118W        W94444  11.326   4.263   2.752
22119W        W94445  27.073  31.552   4.751
22120W        W94446  25.472   4.221   1.878
22121W        W94447  29.596  41.299  14.933
22122W        W94448   1.278  18.258   2.899
22123W        W94449   9.272  17.715  11.110
22124W        W94450  19.167  21.208  11.917
22125W        W94451  24.017   8.733   3.380
22126W        W94452   1.483  18.648   4.345
22127W        W94453  15.308   0.305  13.448
22128W        W94454  28.458  29.021   3.857
22129W        W94455   3.886  19.117   0.395
22130W        W94456  23.688  11.132  11.977
22131W        W94457  13.305  37.549  10.954
22132W        W94458  11.739  39.813  10.639
22133W        W94459  35.045   5.741  13.362
22134W        W94460  37.336  20.193  11.040
22135W        W94461   2.723   9.330  10.965
22136W        W94462  39.487   8.672  12.439
22137W        W94463  34.503  28.598  10.441
22138W        W94464  16.282  20.061   3.669
22139W        W94465  31.548  24.596   4.323
22140W        W94466  19.258   4.875   3.259
22141W        W94467   9.187  19.645  12.942
22142W        W94468   0.980  15.128   4.313
22143W        W94469  40.401  15.143  13.842
22144W        W94470   2.783   5.809   4.752
22145W        W94471  33.504  31.460   3.173
22146W        W94472  16.293  41.375   0.377
22147W        W94473   0.822  34.492   2.845
22148W        W94474  15.143  11.850  11.533
22149W        W94475  22.664  33.953   2.903
22150W        W94476  32.141   3.801   1.262
22151W        W94477  13.689  32.086  12.552
22152W        W94478   1.242  43.835  14.437
22153W        W94479  12.697  15.316   3.194
22154W        W94480  15.232  33.976   4.777
22155W        W94481   5.318  17.728   1.357
22156W        W94482  34.930   1.271   3.295
22157W        W94483   2.365  40.929  11.956
22158W        W94484  24.636  21.039  14.827
22159W        W94485  44.263   6.279   0.288
22160W        W94486  18.218   3.956  13.508
22161W        W94487  24.073  25.109  12.850
22162W        W94488  34.611  33.435   0.354
22163W        W94489  16.811  24.709  11.950
22164W        W94490  13.230  20.217  14.468
22165W        W94491  33.403  28.033  14.967
22166W        W94492  36.885  40.991   4.607
22167W        W94493  41.897  12.154  12.353
22168W        W94494   0.287  18.248  12.941
22169W        W94495  17.145  19.620  14.400
22170W        W94496  23.609  17.226   1.858
22171W        W94497   6.367  38.428  12.377
22172W        W94498  22.108  22.221   2.376
22173W        W94499  43.506  21.213   2.705
22174W        W94500  32.027  18.580  12.883
22175W        W94501  17.169  16.165  10.968
22176W        W94502  20.643  39.394   4.216
22177W        W94503  16.125  31.075  10.515
22178W        W94504  23.671  27.053   0.796
22179W        W94505  41.005  16.102  14.970
22180W        W94506  18.775  28.655  12.993
22181W        W94507   4.327  43.304  12.972
22182W        W94508  22.104  32.554  14.879
22183W        W94509   0.416   8.405  14.293
22184W        W94510  16.721  40.864  11.934
22185W        W94511   7.206   7.733  14.911
22186W        W94512  30.043   1.411  13.468
22187W        W94513  18.606  12.788  14.277
22188W        W94514  28.671  23.161  13.971
22189W        W94515  21.100   5.730  11.950
22190W        W94516   3.237  16.620   3.787
22191W        W94517  10.285  35.397   2.223
22192W        W94518  23.054  26.536  10.642
22193W        W94519  41.310  43.376   4.645
22194W        W94520   6.207  39.901  10.117
22195W        W94521  20.152  27.054  11.424
22196W        W94522  44.280  40.421   4.312
22197W        W94523  44.966  28.934   1.319
22198W        W94524  42.889  32.043  12.900
22199W        W94525   2.370  21.028   1.744
22200W        W94526   2.331  22.036   2.249
22201W        W94527  27.953  26.129   5.767
22202W        W94528   9.701  16.162   0.328
22203W        W94529  25.628  19.666  12.911
22204W        W94530   2.754  26.972  13.962
22205W        W94531   5.805  14.654   3.850
22206W        W94532  11.191  40.928   3.646
22207W        W94533  35.511  15.690  14.408
22208W        W94534  29.089   4.293  11.589
22209W        W94535  39.894  38.427   4.257
22210W        W94536   7.211  33.897   2.726
22211W        W94537   3.856   3.365   2.900
22212W        W94538   6.917  25.015   3.302
22213W        W94539  38.450  29.060   3.204
22214W        W94540  43.327   7.173  14.877
22215W        W94541  15.194  39.382  13.894
22216W        W94542  28.181  26.042   2.358
22217W        W94543  22.661  15.193   1.410
22218W        W94544  20.255  20.697   1.321
22219W        W94545  43.302   0.794   4.166
22220W        W94546  27.640  36.842   4.115
22221W        W94547  41.355   2.353   0.795
22222W        W94548  36.091  15.674   3.768
22223W        W94549  31.967  15.256  10.424
22224W        W94550   6.678   3.915  10.514
22225W        W94551  20.591   8.669   0.908
22226W        W94552   8.293  13.645   0.785
22227W        W94553  27.070   2.772   2.889
22228W        W94554   8.841  37.430   1.726
22229W        W94555   9.643  44.445  11.602
22230W        W94556  36.923  18.678  11.442
22231W        W94557  18.657   6.399  13.046
22232W        W94558   9.825  18.554   3.831
22233W        W94559   6.381  43.338   3.147
22234W        W94560  25.035  28.509  11.454
22235W        W94561  27.507  15.271   2.235
22236W        W94562  35.066  25.608  11.883
22237W        W94563  40.444  17.110   4.344
22238W        W94564  16.659  37.838   2.223
22239W        W94565   6.426  18.286   3.205
22240W        W94566  34.955  11.828   9.964
22241W        W94567  14.659   7.784  14.495
22242W        W94568  24.985  39.508  14.281
22243W        W94569   9.700   7.364  12.388
22244W        W94570  25.996  33.387   3.226
22245W        W94571  17.602   9.221   1.419
22246W        W94572  34.876   6.722  12.533
22247W        W94573   1.350  10.335   3.220
22248W        W94574   9.798  41.342   2.372
22249W        W94575  40.928  32.893  11.122
22250W        W94576  43.894  34.551   4.224
22251W        W94577   8.861  37.033  12.995
22252W        W94578  40.475  44.771  11.570
22253W        W94579  26.151   6.742   2.205
22254W        W94580  35.900  34.901   5.228
22255W        W94581   6.696  19.136  10.632
22256W        W94582  35.958  21.635   4.240
22257W        W94583  17.647  14.132  12.508
22258W        W94584   5.745  25.513  10.944
22259W        W94585   0.845  29.655  12.459
22260W        W94586  22.672  19.266  14.802
22261W        W94587   4.778  18.747  12.413
22262W        W94588   1.933  12.299   0.410
22263W        W94589  23.707   1.473   1.751
22264W        W94590  24.606  20.698  13.038
22265W        W94591  17.637   7.177   3.636
22266W        W94592   8.838   0.912   1.233
22267W        W94593  22.085  39.891   4.310
22268W        W94594  16.202  38.571  10.539
22269W        W94595  28.999   6.291   0.362
22270W        W94596  14.782   8.775  12.865
22271W        W94597   8.293  27.507   3.649
22272W        W94598   7.838  17.635  12.504
22273W        W94599  16.566  20.045   0.731
22274W        W94600  23.510  35.488   3.704
22275W        W94601   6.726  11.194  12.065
22276W        W94602  44.396   9.317  14.411
22277W        W94603  11.754  30.474  14.790
22278W        W94604   6.862  12.216  12.370
22279W        W94605  36.408  13.237  14.866
22280W        W94606  11.650  35.029   1.696
22281W        W94607  20.722  21.654  11.865
22282W        W94608  38.846  34.923   1.236
22283W        W94609  23.066  15.771  14.899
22284W        W94610   3.732   9.384  10.902
22285W        W94611  22.046   3.247  12.572
22286W        W94612  22.086  29.668   2.272
22287W        W94613  23.629  12.150   1.239
22288W        W94614  39.011  27.493   3.740
22289W        W94615  32.412  19.137  11.543
22290W        W94616  27.081  39.534  13.046
22291W        W94617  29.512  26.630  13.521
22292W        W94618  23.634  20.040   4.606
22293W        W94619  25.001  39.424   3.250
22294W        W94620   5.689  10.371   4.133
22295W        W94621  35.866  36.018   3.375
22296W        W94622  27.622  16.102  10.977
22297W        W94623  14.789  41.886  10.892
22298W        W94624   0.432  13.333  12.946
22299W        W94625  44.933  30.990  13.017
22300W        W94626  31.018  25.085   3.658
22301W        W94627  14.662   6.751   3.236
22302W        W94628  40.463  20.526  11.111
22303W        W94629  30.613  21.048   1.272
22304W        W94630   7.687  35.102   3.753
22305W        W94631  30.460   6.339  13.517
22306W        W94632  34.035  22.671   4.718
22307W        W94633   5.370  27.650  12.893
22308W        W94634  29.576  32.987   0.295
22309W        W94635  28.466  19.136  12.026
22310W        W94636   1.450  20.680   4.179
22311W        W94637  15.646  20.637   1.867
22312W        W94638  14.194   7.200   4.193
22313W        W94639  25.512  30.457   4.312
22314W        W94640  27.645  34.037  14.411
22315W        W94641   2.917  39.350   1.252
22316W        W94642  17.116  34.555   5.257
22317W        W94643  29.647  16.302   0.338
22318W        W94644   3.765  31.936  11.597
22319W        W94645   3.831   2.405  12.482
22320W        W94646  14.310   8.759   4.739
22321W        W94647  28.951  27.017  13.521
22322W        W94648  21.059  24.041   2.258
22323W        W94649  21.110  24.648   2.670
22324W        W94650   4.941  20.526   4.603
22325W        W94651  21.075  31.989  10.083
22326W        W94652  43.331  26.462  11.509
22327W        W94653  32.608  25.708   4.769
22328W        W94654  38.520  26.112   1.302
22329W        W94655  42.803  12.805  10.625
22330W        W94656  31.953   1.768   2.195
22331W        W94657  30.003   3.343   1.277
22332W        W94658  22.632  12.328  11.016
22333W        W94659  43.380  14.144  14.989
22334W        W94660  22.065   3.242   4.262
22335W        W94661  37.934  10.829   3.367
22336W        W94662  14.098  15.136  11.475
22337W        W94663  26.693  23.213  13.903
22338W        W94664  22.073  24.190   3.258
22339W        W94665   9.798  29.100   1.440
22340W        W94666  31.047   2.778   0.387
22341W        W94667  14.629  36.372   0.458
22342W        W94668  42.466  42.925  13.444
22343W        W94669  19.112  25.195   4.261
22344W        W94670  28.112   3.231  10.987
22345W        W94671  26.530  27.497   3.333
22346W        W94672   8.675   4.337   3.375
22347W        W94673  33.394  41.786   4.190
22348W        W94674  35.457  16.621   2.292
22349W        W94675  19.042   5.197   2.388
22350W        W94676  44.939  27.460   4.770
22351W        W94677   6.201  39.453  14.338
22352W        W94678  25.184  12.232   0.363
22353W        W94679   2.344  23.723   5.206
22354W        W94680  35.922  10.304   2.382
22355W        W94681  23.708  11.709   4.325
22356W        W94682   5.729  18.642  14.837
22357W        W94683  32.560   2.950  12.436
22358W        W94684  26.149   6.838   0.919
22359W        W94685  21.731  30.156  13.923
22360W        W94686  22.550  44.898  14.943
22361W        W94687  22.718  28.440  10.038
22362W        W94688  28.982  40.891   1.790
22363W        W94689  11.680  17.096   9.956
22364W        W94690  38.421  37.581  13.437
22365W        W94691  21.048   5.895   2.864
22366W        W94692  18.721   7.758   4.702
22367W        W94693   8.336  12.682   3.819
22368W        W94694  44.970  27.678   2.807
22369W        W94695  13.152  19.224  13.050
22370W        W94696  17.746  26.509   2.768
22371W        W94697   2.953  35.549   1.409
22372W        W94698  27.691  30.472   3.345
22373W        W94699  21.741  24.080   3.757
22374W        W94700  25.210  31.507  11.055
22375W        W94701  17.131  36.004   2.250
22376W        W94702  36.876  12.715  10.103
22377W        W94703  28.078  34.096  10.443
22378W        W94704   3.317  28.052  13.366
22379W        W94705   0.333  30.537  11.561
22380W        W94706  22.199  38.058   4.770
22381W        W94707   6.689  18.569  12.579
22382W        W94708  26.462  29.611   0.778
22383W        W94709  28.584  22.640  12.860
22384W        W94710   6.218  30.040  12.428
22385W        W94711  22.591  42.502  12.063
22386W        W94712   9.384   2.252   4.694
22387W        W94713  34.548  35.377  14.500
22388W        W94714  27.159  31.436  13.380
22389W        W94715   5.765  37.061   0.395
22390W        W94716  11.349  40.462   4.294
22391W        W94717   9.816  26.089   1.899
22392W        W94718   0.343  38.330  10.985
22393W        W94719   0.458  25.705   2.331
22394W        W94720   6.422  38.566  14.494
22395W        W94721  26.627  31.551  11.491
22396W        W94722  18.119  20.743  11.548
22397W        W94723  35.386   5.281  13.395
22398W        W94724   2.447  29.142   4.251
22399W        W94725  26.685  22.685  10.492
22400W        W94726   0.910   4.363   4.614
22401W        W94727  22.045  18.168   0.373
22402W        W94728  21.066  17.150   2.712
22403W        W94729   0.265  35.068  10.529
22404W        W94730   6.809   1.863   1.393
22405W        W94731  43.854  29.470  13.950
22406W        W94732  28.106  41.428  11.958
22407W        W94733  16.133   7.258   3.661
22408W        W94734  32.081  39.047  14.801
22409W        W94735  30.010  44.988  12.007
22410W        W94736  42.010  23.183   0.758
22411W        W94737   1.751  30.602  10.470
22412W        W94738  16.262  10.380   0.915
22413W        W94739  34.025   2.961   4.293
22414W        W94740  32.015  17.229   5.182
22415W        W94741  10.873   8.859  10.514
22416W        W94742  13.626  40.529  12.948
22417W        W94743  10.796  15.193  11.059
22418W        W94744   2.901  38.876  13.051
22419W        W94745  30.140   2.964   0.255
22420W        W94746  23.177  44.446   3.344
22421W        W94747  32.041  11.782  10.929
22422W        W94748  44.478  29.455   4.759
22423W        W94749  13.241  40.520   2.257
22424W        W94750  42.992  21.693   4.819
22425W        W94751  24.136   9.237  13.042
22426W        W94752  43.017  16.210  12.911
22427W        W94753  24.159  33.474   1.370
22428W        W94754  30.519   6.332  11.375
22429W        W94755  18.677  11.647   0.364
22430W        W94756  12.228  13.686   1.386
22431W        W94757  12.217  30.428  10.961
22432W        W94758   3.221  39.887   2.726
22433W        W94759  17.601   9.206   1.905
22434W        W94760  19.715  33.007  14.821
22435W        W94761   9.332  18.591  12.042
22436W        W94762   2.957  22.522   4.660
22437W        W94763  30.145  34.370   2.864
22438W        W94764  42.835  35.979  10.992
22439W        W94765  16.794  23.178   2.804
22440W        W94766  33.982  38.976  12.968
22441W        W94767  39.019  36.043   4.820
22442W        W94768  10.753   2.460  12.499
22443W        W94769  28.027  18.608   1.424
22444W        W94770  44.981  10.366  12.837
22445W        W94771  26.007   8.192   2.317
22446W        W94772  44.454  24.019   4.640
22447W        W94773   8.168  16.732   4.638
22448W        W94774  25.213   6.387  11.938
22449W        W94775   0.895  31.936   4.202
22450W        W94776  40.038  20.068  10.595
22451W        W94777   8.696  29.545   2.214
22452W        W94778   1.334  36.554  14.497
22453W        W94779  25.185  23.044  12.969
22454W        W94780  18.207  41.874   4.137
22455W        W94781  13.342  40.427   0.398
22456W        W94782  37.336  39.434  13.063
22457W        W94783   2.800  38.418   2.758
22458W        W94784  33.067  15.698  11.866
22459W        W94785   8.849  25.475   3.719
22460W        W94786  44.992  15.316   3.776
22461W        W94787  41.859   7.329  11.376
22462W        W94788  43.431   3.283   5.175
22463W        W94789  35.974   1.925   4.737
22464W        W94790  13.773  42.867  14.857
22465W        W94791   7.909  18.755  14.488
22466W        W94792  17.632   8.901   4.744
22467W        W94793  41.033  23.987   1.430
22468W        W94794  33.455  16.581  13.384
22469W        W94795  18.667  36.087  10.956
22470W        W94796  34.575  39.472   2.201
22471W        W94797  33.914  31.002   1.935
22472W        W94798  25.189   2.429   2.858
22473W        W94799  34.110  37.931  11.866
22474W        W94800  15.114   9.219   3.806
22475W        W94801  30.978  18.093  11.453
22476W        W94802   6.849  27.074  13.437
22477W        W94803  15.656  42.838   2.890
22478W        W94804  34.458   1.290   4.835
22479W        W94805  13.616  29.542   2.900
22480W        W94806  18.280  22.522   4.137
22481W        W94807   5.257  27.132   3.799
22482W        W94808   4.431  33.996   3.804
22483W        W94809  26.168  31.037  12.022
22484W        W94810  14.281  24.550   0.919
22485W        W94811  18.276  32.560  14.481
22486W        W94812  18.576   7.876   2.785
22487W        W94813  39.941  34.478  14.809
22488W        W94814  26.650   5.276  12.011
22489W        W94815  25.003  13.624  12.530
22490W        W94816  38.975  30.944   3.289
22491W        W94817  32.992  26.650  12.857
22492W        W94818   1.410   0.819  12.503
22493W        W94819  37.351  30.924   3.158
22494W        W94820  10.381  35.459  11.012
22495W        W94821  35.438   3.458  14.762
22496W        W94822  15.241  18.558  12.544
22497W        W94823  36.503  13.838  14.961
22498W        W94824  44.856  35.435  13.355
22499W        W94825  38.498  36.438   4.600
22500W        W94826  35.593  34.578   4.600
22501W        W94827  29.568   1.277  14.337
22502W        W94828  28.590  10.758  13.377
22503W        W94829  32.492  16.692  13.317
22504W        W94830  14.137  18.614   2.693
22505W        W94831  33.989   1.843   1.347
22506W        W94832  29.596  42.332   3.749
22507W        W94833   1.862   8.722   4.813
22508W        W94834  37.388   3.376   3.721
22509W        W94835  19.150  42.964  12.525
22510W        W94836  21.046   1.866  13.545
22511W        W94837  12.162  17.263   2.205
22512W        W94838   2.928  10.253  13.947
22513W        W94839  22.234  38.922   5.294
22514W        W94840   7.695  36.398   0.454
22515W        W94841  33.075  11.363  12.427
22516W        W94842  16.165  12.739  14.969
22517W        W94843  36.569  32.910  12.448
22518W        W94844  25.986   4.721   2.790
22519W        W94845  33.043  36.012   3.386
22520W        W94846  20.641  39.036  12.834
22521W        W94847   6.370  37.498  11.476
22522W        W94848  25.514  11.314   3.811
22523W        W94849  11.239  29.642   0.836
22524W        W94850  22.060  11.329  11.501
22525W        W94851  39.855   3.293   0.462
22526W        W94852  26.177  27.165   4.798
22527W        W94853  21.711  24.551   3.353
22528W        W94854   9.725  13.712   1.847
22529W        W94855  39.478  13.700   0.465
22530W        W94856  12.661  13.657  14.949
22531W        W94857  38.393   4.708   4.254
22532W        W94858  27.507  25.598  10.960
22533W        W94859  17.257   4.254   0.731
22534W        W94860  36.502   8.705   3.723
22535W        W94861  26.481  17.161   3.158
22536W        W94862  30.631  21.672  12.024
22537W        W94863  44.299   4.309  13.020
22538W        W94864  13.244  37.377   1.361
22539W        W94865  31.505  39.549   0.437
22540W        W94866  15.217  30.130   1.882
22541W        W94867  44.876   9.730   2.835
22542W        W94868  31.048  15.272  12.872
22543W        W94869  33.606  40.857   4.278
22544W        W94870  13.208   2.882  11.029
22545W        W94871  23.055   4.820  13.057
22546W        W94872  39.536   7.665  11.979
22547W        W94873   3.260  13.295   3.860
22548W        W94874  25.513  11.206   2.822
22549W        W94875  15.231   6.289  10.575
22550W        W94876  18.090   5.770  14.487
22551W        W94877   9.831  11.176  14.502
22552W        W94878   2.770  41.903  10.899
22553W        W94879  21.094  30.417  12.518
22554W        W94880  12.295  40.964  10.628
22555W        W94881  20.733  43.854  11.544
22556W        W94882  41.336   0.937  13.799
22557W        W94883  14.168  17.590   3.263
22558W        W94884   6.844  37.505  12.561
22559W        W94885  43.406  33.030   3.789
22560W        W94886  38.329  19.766   2.288
22561W        W94887  14.718   4.866   2.701
22562W        W94888  30.124  27.491   3.681
22563W        W94889  43.895  20.201   2.307
22564W        W94890   8.766  20.607   4.815
22565W        W94891   3.225   7.263  14.930
22566W        W94892  41.949  39.390  12.027
22567W        W94893  19.246  39.943   4.209
22568W        W94894  42.785  23.676   1.350
22569W        W94895  27.992  34.024  11.127
22570W        W94896  14.828  38.882   1.405
22571W        W94897  41.805  33.593   4.298
22572W        W94898  30.976  23.241  12.980
22573W        W94899  39.840   4.419  10.610
22574W        W94900  11.852  41.435   9.922
22575W        W94901  28.013  37.853  12.556
22576W        W94902  13.656  36.944  10.923
22577W        W94903   1.412  38.843  13.857
22578W        W94904  38.990  35.381  14.796
22579W        W94905  29.485  16.212   3.680
22580W        W94906  37.350  14.119   4.598
22581W        W94907  21.043  43.935  14.963
22582W        W94908   1.819  32.536   2.840
22583W        W94909   5.734   6.318   0.288
22584W        W94910  12.744  30.139  13.995
22585W        W94911  35.925  34.922   2.682
22586W        W94912  21.231   7.856  11.879
22587W        W94913  41.849  37.923   3.178
22588W        W94914  22.235   6.899  10.448
22589W        W94915  40.419  37.582   2.843
22590W        W94916  14.766  23.582  12.066
22591W        W94917   3.291  25.490  11.021
22592W        W94918   5.918  34.486  13.858
22593W        W94919  20.764   4.419   1.822
22594W        W94920  24.200   3.886   2.378
22595W        W94921   1.963   1.240   0.845
22596W        W94922  15.749  40.319  11.996
22597W        W94923  44.874  27.458   3.175
22598W        W94924  32.482  20.605  12.923
22599W        W94925  31.959  11.168   3.711
22600W        W94926  29.626  15.225  13.049
22601W        W94927  22.006  21.225   2.712
22602W        W94928  10.238   6.405   2.336
22603W        W94929  19.085  36.466   2.294
22604W        W94930  26.521  16.723  10.990
22605W        W94931  35.960   6.755  10.558
22606W        W94932  17.564  26.563   0.907
22607W        W94933  34.566  28.001   0.739
22608W        W94934  30.015  19.202   2.870
22609W        W94935  40.856   3.450  14.516
22610W        W94936  41.020   6.219  13.872
22611W        W94937   2.729  32.133  10.538
22612W        W94938  26.559  23.128   2.860
22613W        W94939  35.422   7.324  14.484
22614W        W94940  18.740  15.247  11.551
22615W        W94941  14.825  22.228  14.860
22616W        W94942  20.523  11.196  10.412
22617W        W94943  20.702  44.433   1.850
22618W        W94944  38.458  15.731   2.280
22619W        W94945  38.867   4.935  14.903
22620W        W94946  42.483  22.632   3.651
22621W        W94947  44.927  44.281   0.430
22622W        W94948  43.856  39.399  14.953
22623W        W94949  40.502  25.127   2.843
22624W        W94950  23.515  40.477   5.136
22625W        W94951  31.909  12.655  13.979
22626W        W94952  30.942  22.153   0.919
22627W        W94953  24.610  32.911   1.362
22628W        W94954  29.524   3.877  14.776
22629W        W94955  35.510  30.080   1.262
22630W        W94956  41.361  37.394  13.821
22631W        W94957  16.645  43.452  11.033
22632W        W94958  25.573   1.271  12.441
22633W        W94959   6.755  43.400   0.885
22634W        W94960   9.698  18.053  12.569
22635W        W94961   8.337  26.556   1.393
22636W        W94962   7.775   6.299   3.232
22637W        W94963  18.723   3.912   1.775
22638W        W94964  27.615  32.068   1.418
22639W        W94965  29.624  30.634  13.459
22640W        W94966  22.577  21.233  10.464
22641W        W94967  11.274   9.817  12.920
22642W        W94968  12.178  31.515  11.953
22643W        W94969  25.472  20.155  13.827
22644W        W94970  11.847  26.973  11.066
22645W        W94971   0.967  19.543   2.832
22646W        W94972  37.021  39.945  12.833
22647W        W94973  11.278   7.195  10.915
22648W        W94974   7.773   0.429   1.822
22649W        W94975  19.570  34.034  14.824
22650W        W94976  33.084  32.030  11.411
22651W        W94977  19.238  20.727  10.564
22652W        W94978   2.323  13.190   4.167
22653W        W94979   4.717  27.152   3.383
22654W        W94980   2.965   7.388   1.405
22655W        W94981   4.350   4.929   2.712
22656W        W94982  16.798   8.705  11.384
22657W        W94983  43.285  16.752  11.509
22658W        W94984  12.248  36.865   3.334
22659W        W94985  21.677  28.111  12.006
22660W        W94986   2.834  22.185  12.417
22661W        W94987   6.303  26.675  10.988
22662W        W94988   3.834  17.555   2.341
22663W        W94989   0.834  35.949  11.912
22664W        W94990  28.143  18.546  12.948
22665W        W94991  18.208  14.755   4.203
22666W        W94992  27.638  40.032  10.520
22667W        W94993  13.771  18.226   1.760
22668W        W94994  41.029  41.800   4.774
22669W        W94995  31.592  21.520   1.917
22670W        W94996  39.453  16.585  13.475
22671W        W94997  24.170  12.671  14.011
22672W        W94998  21.659   9.374  13.002
22673W        W94999   6.256   4.776   0.785
22674W        W95000  17.202  41.949   0.451
22675W        W95001   9.647  39.454   4.229
22676W        W95002  44.807  32.411   4.223
22677W        W95003  23.032   3.409   4.736
22678W        W95004  23.707  39.005   0.338
22679W        W95005   0.875  19.208  11.569
22680W        W95006  28.089  23.654  14.906
22681W        W95007   3.457  22.657   0.852
22682W        W95008  44.775  13.176   2.327
22683W        W95009   9.226  10.704  13.835
22684W        W95010   6.396   7.679  14.935
22685W        W95011  22.168  33.559   4.231
22686W        W95012  37.033  31.934   3.671
22687W        W95013  18.138  43.413   1.786
22688W        W95014  17.733   5.749   2.290
22689W        W95015   7.261  38.938  13.900
22690W        W95016   1.840  26.087   2.788
22691W        W95017   2.229  11.706  14.877
22692W        W95018  32.587  24.986   2.290
22693W        W95019   7.791  41.402  10.974
22694W        W95020  23.696  13.290   1.738
22695W        W95021   9.175  42.292   3.826
22696W        W95022  30.159  10.364   3.780
22697W        W95023  17.786  21.090  13.969
22698W        W95024  29.619  37.943  11.520
22699W        W95025  37.004   2.820  13.377
22700W        W95026  36.560  23.543  10.076
22701W        W95027  44.788  40.936   0.909
22702W        W95028  28.127   6.276  10.560
22703W        W95029  29.927   6.805  12.956
22704W        W95030  34.081  12.718  13.344
22705W        W95031  26.605  14.608   5.304
22706W        W95032  27.491  25.688   0.463
22707W        W95033  28.118  23.110   2.182
22708W        W95034  16.304  35.037  12.378
22709W        W95035  23.073  19.203  13.426
22710W        W95036  30.621  38.349  10.572
22711W        W95037  41.895  37.013  10.970
22712W        W95038  16.222   4.741   4.730
22713W        W95039  31.556  11.805   1.789
22714W        W95040   3.315  11.834   0.733
22715W        W95041   9.770  40.019   1.417
22716W        W95042  16.620  16.312   2.874
22717W        W95043  22.247  13.304   3.171
22718W        W95044   6.775   9.356   2.224
22719W        W95045  29.993  39.045   2.777
22720W        W95046  35.048  29.140  12.029
22721W        W95047   1.939  26.535  13.352
22722W        W95048  18.255  27.609   0.946
22723W        W95049  15.783  21.216  13.499
22724W        W95050  31.562  16.260  11.013
22725W        W95051   2.448  30.652  12.917
22726W        W95052  18.679  38.940   0.255
22727W        W95053  22.675  33.542   4.740
22728W        W95054  27.186  18.277  11.112
22729W        W95055  44.862   9.357  11.464
22730W        W95056   9.156   5.701  14.419
22731W        W95057   7.864  15.262  12.379
22732W        W95058   2.383  26.978  10.520
22733W        W95059  29.097  17.771  11.492
22734W        W95060  35.083  31.433  12.957
22735W        W95061  37.523  40.460   1.433
22736W        W95062  35.016  33.620  13.867
22737W        W95063   5.904  37.888  12.431
22738W        W95064  33.507  32.919  14.777
22739W        W95065  40.994  37.083  12.088
22740W        W95066   7.856   0.295   1.279
22741W        W95067  42.941  27.661  12.977
22742W        W95068  41.320   3.928   0.385
22743W        W95069   7.321  17.746   4.787
22744W        W95070   5.397  16.609  14.395
22745W        W95071  25.685  21.095  11.427
22746W        W95072  15.590   9.760  11.991
22747W        W95073  29.484  10.653  12.877
22748W        W95074  21.564  20.262  13.345
22749W        W95075  18.657  31.983   0.821
22750W        W95076  17.715  16.113  10.589
22751W        W95077   0.474   7.196  14.769
22752W        W95078  25.173  28.996   0.896
22753W        W95079  29.136  38.553  10.506
22754W        W95080  30.912  11.273  13.412
22755W        W95081  36.555  12.793   5.725
22756W        W95082  35.934   3.743   4.126
22757W        W95083  10.879  17.243  13.054
22758W        W95084  41.463  11.669  12.030
22759W        W95085  27.941   7.202  12.485
22760W        W95086  30.039  31.920   0.885
22761W        W95087  17.199  41.814   1.265
22762W        W95088  27.540   8.800   4.598
22763W        W95089  21.193  15.580  10.550
22764W        W95090  20.761  22.057   0.961
22765W        W95091  34.882   3.421   2.779
22766W        W95092  43.961  40.927   4.219
22767W        W95093  33.568  28.680   3.353
22768W        W95094  37.582  21.105   1.810
22769W        W95095  41.880  22.626   2.279
22770W        W95096  22.518   1.239  14.858
22771W        W95097  21.153   1.455   0.322
22772W        W95098  32.952  30.437   3.347
22773W        W95099  30.452  13.204  13.533
22774W        W95100  27.013   1.307   3.231
22775W        W95101  35.041  19.268   2.183
22776W        W95102  14.636  11.831   4.290
22777W        W95103  32.613  37.479  11.101
22778W        W95104  25.172  30.993   0.421
22779W        W95105  35.997  17.292   2.763
22780W        W95106  42.949  18.574   1.241
22781W        W95107  15.743   4.217   4.762
22782W        W95108  10.310  20.589  11.912
22783W        W95109   9.391  44.328   4.126
22784W        W95110   9.729  18.220  10.630
22785W        W95111  19.750  38.388   4.629
22786W        W95112  24.628  18.154  11.971
22787W        W95113  29.129  37.918   4.785
22788W        W95114  16.765  12.175   1.356
22789W        W95115  37.491  31.524  13.823
22790W        W95116  11.294   1.859  11.462
22791W        W95117   6.720  39.951   0.795
22792W        W95118  35.487  10.252  12.078
22793W        W95119  36.977  42.503   2.305
22794W        W95120  28.625  27.490   3.687
22795W        W95121  15.221  11.705  12.360
22796W        W95122  42.296  30.472  14.396
22797W        W95123  11.213   0.922   4.733
22798W        W95124   6.712   8.209  14.822
22799W        W95125  28.664  36.880  14.965
22800W        W95126   5.210  13.301  11.120
22801W        W95127   9.210  41.804  14.824
22802W        W95128  31.086   8.387  12.396
22803W        W95129  32.484  15.641   1.369
22804W        W95130  10.768   6.191  12.411
22805W        W95131   3.436  21.542  12.371
22806W        W95132  33.424  26.603   0.868
22807W        W95133  29.489  10.334   4.685
22808W        W95134   2.856   5.805   4.242
22809W        W95135  44.290  34.592   2.361
22810W        W95136  13.245  39.969   2.200
22811W        W95137  16.313  44.408   0.817
22812W        W95138  13.745  24.606   3.232
22813W        W95139  39.937  15.619   1.335
22814W        W95140  25.619  39.952  14.013
22815W        W95141   0.412  17.798   4.661
22816W        W95142  17.679   4.373  13.005
22817W        W95143   7.306   5.419   3.327
22818W        W95144  30.446   8.727  13.814
22819W        W95145  16.721  25.206  12.024
22820W        W95146  29.476  23.146  13.024
22821W        W95147  40.369  29.518  12.999
22822W        W95148   9.701   9.643  12.823
22823W        W95149  26.559   9.349  14.864
22824W        W95150  28.084  40.359  11.079
22825W        W95151   2.934  36.025  14.392
22826W        W95152   0.440  19.724  11.392
22827W        W95153  21.133   0.405  12.851
22828W        W95154  43.477   6.182   4.627
22829W        W95155  34.578  37.563   2.212
22830W        W95156  25.165  36.904  12.414
22831W        W95157  19.683  22.230  11.976
22832W        W95158  31.036  16.205  13.043
22833W        W95159   5.203  21.152   3.758
22834W        W95160  11.790   1.785   1.357
22835W        W95161  28.019  28.168   5.738
22836W        W95162  10.781   4.928  14.513
22837W        W95163   9.343  20.142   4.603
22838W        W95164  31.954  36.381  10.414
22839W        W95165  44.802  29.062   0.374
22840W        W95166  44.892  11.318   1.300
22841W        W95167   6.819  37.926   3.326
22842W        W95168  37.957  34.603   2.221
22843W        W95169  43.421  26.970  11.586
22844W        W95170  42.826  28.635  13.470
22845W        W95171  23.719  44.919   4.723
22846W        W95172  12.208  25.549  13.832
22847W        W95173  12.159   0.269   0.738
22848W        W95174  23.131  31.026   3.688
22849W        W95175  23.545  44.761   1.380
22850W        W95176  33.556  13.746   2.234
22851W        W95177  27.640  32.102  13.906
22852W        W95178  22.035   2.390   1.866
22853W        W95179  29.948  42.016   0.838
22854W        W95180  26.658  27.189   4.115
22855W        W95181   2.316  31.915   1.402
22856W        W95182  11.172  32.135   3.365
22857W        W95183  13.178  38.374   2.351
22858W        W95184  10.686   0.407  11.004
22859W        W95185  24.533   7.401   1.911
22860W        W95186  26.013  20.745  10.947
22861W        W95187  43.922  41.499  13.384
22862W        W95188   6.310  34.511  10.586
22863W        W95189  26.121  29.533  11.391
22864W        W95190  32.999  35.859   2.782
22865W        W95191   7.824  26.029  10.966
22866W        W95192   7.764  14.670  14.361
22867W        W95193  32.008   4.368   1.246
22868W        W95194   1.923  23.701  10.444
22869W        W95195  15.744   4.745   5.200
22870W        W95196   5.423  33.552   1.253
22871W        W95197  28.948   4.824  13.522
22872W        W95198  11.803  34.884  12.452
22873W        W95199   2.957  12.286  13.997
22874W        W95200  43.902  25.679   2.720
22875W        W95201  27.466  28.147   3.252
22876W        W95202  39.888   4.388   4.201
22877W        W95203  29.466   5.855  10.495
22878W        W95204   1.385  10.851  10.970
22879W        W95205  11.625  28.449   4.816
22880W        W95206  11.863  11.768   1.270
22881W        W95207  32.137  24.672  13.029
22882W        W95208  35.526   4.307  11.601
22883W        W95209  42.853  44.793  10.474
22884W        W95210   7.374  18.128   2.769
22885W        W95211  34.588   0.431  11.932
22886W        W95212  40.324  37.365  10.081
22887W        W95213  15.753  44.370  14.797
22888W        W95214  11.148  35.856   1.246
22889W        W95215  11.228  27.688  11.996
22890W        W95216  17.224  36.889   0.452
22891W        W95217  41.490  44.266   4.330
22892W        W95218  35.902  22.179   3.786
22893W        W95219   1.785  24.708   4.717
22894W        W95220  11.792  20.210  13.890
22895W        W95221  41.804  36.974   1.722
22896W        W95222  44.341  11.180   2.725
22897W        W95223   7.199   9.182  10.604
22898W        W95224  21.148  30.935   4.246
22899W        W95225  21.205  32.910  11.025
22900W        W95226   3.751  38.333   4.662
22901W        W95227  29.965  40.930  10.487
22902W        W95228  15.705  30.915   3.181
22903W        W95229  31.422  25.699   1.231
22904W        W95230  35.435   1.798  10.504
22905W        W95231  21.516  38.930   0.746
22906W        W95232  26.031  19.237   4.287
22907W        W95233  38.338  34.040   3.718
22908W        W95234  10.694  18.276  11.399
22909W        W95235   8.838  29.041   4.778
22910W        W95236  36.983  12.693  14.018
22911W        W95237  29.481  17.632  10.499
22912W        W95238  21.668  13.153   3.643
22913W        W95239  40.976  15.225  11.891
22914W        W95240  10.315  12.203   3.704
22915W        W95241  21.700  34.020  12.859
22916W        W95242  36.521   6.863   3.229
22917W        W95243  10.675   4.895  14.975
22918W        W95244  11.864  27.052   5.793
22919W        W95245  24.089  33.582   0.258
22920W        W95246  23.061  44.269  11.540
22921W        W95247  32.109  21.659  14.856
22922W        W95248   9.331  13.744  13.940
22923W        W95249  36.557  31.497  14.871
22924W        W95250  26.682  23.617   0.348
22925W        W95251  29.498  16.282  12.837
22926W        W95252  28.017  21.594  12.976
22927W        W95253  15.724  25.482  12.394
22928W        W95254  36.519  33.420   1.835
22929W        W95255  21.638   0.448  14.399
22930W        W95256  21.202  34.518  10.573
22931W        W95257  31.595   8.729   2.357
22932W        W95258  11.834   7.372  12.962
22933W        W95259  27.651   7.373  11.004
22934W        W95260  28.673  37.339  14.499
22935W        W95261  25.474  39.548  12.882
22936W        W95262  19.571  26.991  14.028
22937W        W95263   0.799  22.645  14.390
22938W        W95264  27.669  20.593  11.605
22939W        W95265  24.216  13.119   3.823
22940W        W95266  19.645  18.085  11.474
22941W        W95267  38.464  42.340   4.208
22942W        W95268  37.422  43.912  14.964
22943W        W95269  33.468  37.419  10.547
22944W        W95270  24.528  26.166   2.349
22945W        W95271  15.182  21.756   2.800
22946W        W95272  18.608  12.152   0.936
22947W        W95273  31.072  11.153   4.834
22948W        W95274  17.244   9.374   1.779
22949W        W95275  23.566  29.433   4.193
22950W        W95276   7.314  31.479   3.630
22951W        W95277  24.511  44.435  11.876
22952W        W95278  33.541  43.868   0.274
22953W        W95279   5.711  26.104  11.451
22954W        W95280  13.788   9.378  14.933
22955W        W95281  26.170  39.337   3.382
22956W        W95282  12.638  41.479   2.303
22957W        W95283  35.574  30.922   1.708
22958W        W95284  41.417  29.652  10.950
22959W        W95285  30.136  42.936  13.464
22960W        W95286  26.201  28.102  11.125
22961W        W95287  22.158  18.778   1.251
22962W        W95288  33.101  41.345   3.707
22963W        W95289  23.684  22.037   4.325
22964W        W95290  16.789  14.669  13.893
22965W        W95291   1.448   4.356   9.956
22966W        W95292  26.475  27.150   3.787
22967W        W95293  29.560   1.774   2.406
22968W        W95294  38.976  43.294  13.337
22969W        W95295  15.278   9.375   3.237
22970W        W95296   0.988  26.557  11.952
22971W        W95297  40.474   1.448  11.876
22972W        W95298  32.896   3.389   3.330
22973W        W95299  31.995  23.172   4.134
22974W        W95300  19.198  43.909  10.891
22975W        W95301  36.067   8.839  11.925
22976W        W95302  35.402   8.743  10.552
22977W        W95303  22.686  44.288   3.229
22978W        W95304  28.125   0.321   4.740
22979W        W95305  34.999  35.901  12.510
22980W        W95306  10.763  38.534   0.905
22981W        W95307  28.003   7.315   0.430
22982W        W95308   9.818  35.585   3.834
22983W        W95309  18.617   5.766   1.402
22984W        W95310  13.807  31.139   2.740
22985W        W95311  30.635  24.182  10.941
22986W        W95312  24.011  24.226  13.934
22987W        W95313  18.684  30.479   2.743
22988W        W95314  13.303  28.595   0.337
22989W        W95315  14.154  23.671  11.070
22990W        W95316  22.134  37.414  14.377
22991W        W95317   8.305  41.044  12.508
22992W        W95318  35.464   2.763  12.891
22993W        W95319   0.348  42.395  10.888
22994W        W95320   1.742  37.350   3.821
22995W        W95321  15.191  14.710   3.718
22996W        W95322  20.648   9.324  12.460
22997W        W95323  41.799   8.361  13.800
22998W        W95324  14.214   2.252  13.399
22999W        W95325  15.177  34.575   9.987
23000W        W95326  17.667  22.026   0.328
23001W        W95327  20.541  18.263  10.936
23002W        W95328   0.841  20.734   1.229
23003W        W95329   7.704  19.584  14.978
23004W        W95330  30.449  28.980  13.384
23005W        W95331  42.935  36.523  14.802
23006W        W95332  25.049   6.724  10.425
23007W        W95333  11.703   0.764  12.565
23008W        W95334  25.493  35.077   2.304
23009W        W95335  13.683   1.465  14.854
23010W        W95336  34.583  44.473   3.334
23011W        W95337  20.542  20.544  14.014
23012W        W95338  44.829  13.302  13.952
23013W        W95339   4.328  12.127  11.069
23014W        W95340  43.993  26.130  11.458
23015W        W95341  10.721  11.228  11.543
23016W        W95342  39.537  35.389  14.435
23017W        W95343   0.430  42.311  13.456
23018W        W95344  29.034  12.813  13.434
23019W        W95345  11.691  38.569  13.809
23020W        W95346  43.907  29.053  14.030
23021W        W95347   8.747   5.339   4.149
23022W        W95348  12.638  28.013   0.451
23023W        W95349  11.324   1.274  12.960
23024W        W95350  36.089  22.226  12.853
23025W        W95351   3.772   1.775   3.310
23026W        W95352   8.274  42.486   2.363
23027W        W95353  12.347  16.682   3.631
23028W        W95354  14.769  23.108   1.797
23029W        W95355  23.643  15.150   0.459
23030W        W95356  33.581   5.896  13.058
23031W        W95357  38.892   4.395   2.298
23032W        W95358  18.614   2.387  12.022
23033W        W95359  31.425  21.242   4.679
23034W        W95360   5.825  16.192   3.301
23035W        W95361  17.594   3.716  14.821
23036W        W95362   1.247   0.855   1.254
23037W        W95363  13.603  12.118  11.481
23038W        W95364  20.537  16.177  10.997
23039W        W95365   2.889  28.564  12.905
23040W        W95366  17.668  36.499   1.913
23041W        W95367   8.210  24.560   0.484
23042W        W95368  29.153  41.322   0.301
23043W        W95369  13.763  13.806   0.887
23044W        W95370  43.016  10.183  11.899
23045W        W95371  26.499  42.829   0.881
23046W        W95372   4.234   3.900   2.858
23047W        W95373  14.267  42.315   4.355
23048W        W95374  36.972  24.639   3.853
23049W        W95375  43.786  32.502  13.330
23050W        W95376  32.984  25.970   0.916
23051W        W95377  34.516  40.034  13.938
23052W        W95378  18.720  35.568   3.690
23053W        W95379  21.602  42.775   4.682
23054W        W95380  39.345  41.475   4.660
23055W        W95381  40.965  31.578   3.190
23056W        W95382  32.984  17.275  12.479
23057W        W95383  35.530  18.731   4.232
23058W        W95384  11.781  42.315  11.385
23059W        W95385  36.096  39.965  12.024
23060W        W95386  20.623   5.816   3.781
23061W        W95387  25.483   4.797   9.926
23062W        W95388  23.104  21.664   2.384
23063W        W95389   2.867  35.937   2.689
23064W        W95390  28.071  39.330   1.289
23065W        W95391  12.300  13.639   0.310
23066W        W95392  30.440  10.283   0.340
23067W        W95393  40.942  27.999   3.236
23068W        W95394  43.970  23.551   1.241
23069W        W95395  27.509  28.140  11.865
23070W        W95396  39.943  44.841   2.798
23071W        W95397  18.749  21.101  11.608
23072W        W95398   1.906  30.536   2.322
23073W        W95399  15.218   5.701  11.920
23074W        W95400  12.264  19.662  13.453
23075W        W95401  27.464  31.502   1.716
23076W        W95402   2.275  22.655  10.485
23077W        W95403   6.753   0.844  14.885
23078W        W95404  29.645   8.818  14.865
23079W        W95405  36.962  40.871  14.475
23080W        W95406  12.687  32.625   3.859
23081W        W95407  19.086  14.315  10.899
23082W        W95408  27.484   1.921   3.777
23083W        W95409   7.269  32.910  13.923
23084W        W95410  12.723  35.506   1.353
23085W        W95411  16.307  43.292  12.065
23086W        W95412  43.809  42.791  13.933
23087W        W95413  20.143  17.208  14.510
23088W        W95414  20.217  31.402  14.389
23089W        W95415  19.647  27.087  11.043
23090W        W95416  19.675  14.767  14.499
23091W        W95417  23.603  37.469   1.788
23092W        W95418  31.523  36.563  12.035
23093W        W95419  41.041   4.413  14.353
23094W        W95420  24.559  23.229  14.324
23095W        W95421   4.315  12.232   2.677
23096W        W95422  33.570  32.044  10.098
23097W        W95423   1.877  10.305  10.622
23098W        W95424  15.618  18.080  10.467
23099W        W95425   6.378  19.568   1.364
23100W        W95426  12.734  21.142  12.447
23101W        W95427  17.201  31.132   4.752
23102W        W95428  16.222  33.587  10.542
23103W        W95429  23.097  26.171   3.851
23104W        W95430  10.288   0.841  13.546
23105W        W95431  18.790   6.704   1.838
23106W        W95432  21.185  23.690   4.139
23107W        W95433   6.402  37.924   1.417
23108W        W95434  29.062  28.947  12.411
23109W        W95435  26.170   7.848  13.393
23110W        W95436  35.470  19.584   2.860
23111W        W95437  15.695  34.899  14.497
23112W        W95438  29.981  42.873   0.299
23113W        W95439  21.546  13.123  13.375
23114W        W95440  32.531   2.374  12.942
23115W        W95441  42.798  29.028   1.249
23116W        W95442   0.391  21.223  13.374
23117W        W95443  26.141   2.325  14.770
23118W        W95444  25.688  21.579  10.636
23119W        W95445  28.656  21.611   1.890
23120W        W95446  29.538  15.791  11.059
23121W        W95447  25.656  12.212  12.364
23122W        W95448  39.823  35.934   4.150
23123W        W95449   9.687   7.214   2.399
23124W        W95450   1.454  27.949   3.846
23125W        W95451  37.396   5.927  10.982
23126W        W95452  34.402  27.947  14.896
23127W        W95453  44.942   6.323  12.920
23128W        W95454  38.878  36.075  10.915
23129W        W95455  26.021  10.225   2.239
23130W        W95456   8.672  26.665  14.282
23131W        W95457  25.215  25.140   4.671
23132W        W95458  21.040  16.154   0.378
23133W        W95459  33.979  38.571   4.234
23134W        W95460  35.495  39.324   4.126
23135W        W95461  14.736  11.313  13.851
23136W        W95462  12.310  13.820  14.808
23137W        W95463  28.573   6.771   1.762
23138W        W95464  35.087  22.690   0.475
23139W        W95465  44.809  24.109  10.601
23140W        W95466  42.322  40.305   2.892
23141W        W95467  10.705   0.307   1.440
23142W        W95468  10.721   9.201  13.439
23143W        W95469  31.579  17.706   0.765
23144W        W95470   5.255  43.333   1.710
23145W        W95471  10.327  27.176   2.676
23146W        W95472  36.944  19.641  13.018
23147W        W95473  16.651   0.478   0.807
23148W        W95474  44.297  42.994  14.985
23149W        W95475  19.655   5.839  12.423
23150W        W95476  26.011  38.504  12.432
23151W        W95477  42.021  32.916   2.787
23152W        W95478  11.233  33.925   0.904
23153W        W95479  14.168   0.313  10.582
23154W        W95480  35.987   6.922  12.930
23155W        W95481   2.365   0.401   1.694
23156W        W95482  15.597  42.439   5.161
23157W        W95483  14.789  25.164   4.330
23158W        W95484  39.389   1.377   2.417
23159W        W95485  38.484   7.864  14.413
23160W        W95486   9.723  24.228  11.106
23161W        W95487  41.002   1.736  11.472
23162W        W95488   4.909  24.594   1.733
23163W        W95489   4.862   5.851  12.372
23164W        W95490  36.490  22.076  14.842
23165W        W95491  26.503  31.146   5.266
23166W        W95492  42.447  34.547   4.828
23167W        W95493  42.931  17.610  14.461
23168W        W95494   3.843  27.078   4.692
23169W        W95495   8.841  33.451  10.476
23170W        W95496  33.003  19.766  13.971
23171W        W95497   0.753  10.208  10.087
23172W        W95498   8.795  39.907  13.447
23173W        W95499  10.858  41.856   2.682
23174W        W95500   0.334  24.524   3.206
23175W        W95501  27.058   4.286  10.625
23176W        W95502   7.760  20.090  11.581
23177W        W95503  14.706   6.704  12.838
23178W        W95504  19.286  23.241   0.793
23179W        W95505  10.774  36.037   0.846
23180W        W95506  12.732   0.921   0.292
23181W        W95507  20.225  23.695   3.659
23182W        W95508  33.577  15.267  13.518
23183W        W95509   0.960  11.822  14.296
23184W        W95510  10.254  22.018   1.761
23185W        W95511  36.929  25.041   3.710
23186W        W95512  34.878  22.526  14.399
23187W        W95513   3.859  27.968  14.941
23188W        W95514   1.460  35.036  10.898
23189W        W95515  38.337  36.860  10.903
23190W        W95516  16.189   2.965   1.720
23191W        W95517  16.228   7.215  12.572
23192W        W95518  15.250   0.378   1.731
23193W        W95519   9.872  36.042   4.755
23194W        W95520  24.537  28.121   1.266
23195W        W95521  38.464  41.964   4.259
23196W        W95522  42.308  44.488  11.085
23197W        W95523  13.199  12.199   3.334
23198W        W95524  31.481  32.525   0.476
23199W        W95525   5.276   6.233  12.001
23200W        W95526  27.577   2.377  14.285
23201W        W95527  25.648  18.078  13.037
23202W        W95528  10.803  35.508  13.308
23203W        W95529  23.662  13.759  14.842
23204W        W95530   7.207   6.288   0.965
23205W        W95531   6.265  17.200   4.838
23206W        W95532   6.424   6.883   1.887
23207W        W95533  31.518   2.345   3.807
23208W        W95534  26.109  44.269   2.344
23209W        W95535  29.018  35.081  14.487
23210W        W95536   4.742  24.621  11.484
23211W        W95537   4.813  38.543  13.392
23212W        W95538  33.610   5.773  11.498
23213W        W95539  28.451  28.479   5.636
23214W        W95540   8.313  23.183   2.737
23215W        W95541   6.904  22.584  13.857
23216W        W95542  40.394   7.394   3.766
23217W        W95543  17.081  29.060   1.378
23218W        W95544   1.374   0.352  10.431
23219W        W95545   2.829   6.394  10.600
23220W        W95546  30.595  11.209  12.067
23221W        W95547  12.765  26.524   0.939
23222W        W95548  11.787   8.803  10.041
23223W        W95549  30.122  20.696  14.299
23224W        W95550  24.055  17.253  13.047
23225W        W95551  40.453   1.246   3.684
23226W        W95552   7.798   6.911  14.768
23227W        W95553  28.945  17.217   3.261
23228W        W95554   2.299  27.150  14.823
23229W        W95555  37.399  24.654   2.328
23230W        W95556  43.924  23.631  12.366
23231W        W95557  37.468  43.295   0.256
23232W        W95558  12.735  42.323  12.379
23233W        W95559  17.738  24.717   4.296
23234W        W95560  11.354  13.235   1.854
23235W        W95561  23.579  14.817  13.350
23236W        W95562  36.882  18.678   3.809
23237W        W95563   7.191  34.957  13.036
23238W        W95564  23.553  31.065   4.217
23239W        W95565  35.591  30.934   0.290
23240W        W95566   8.330  29.082   0.409
23241W        W95567  11.190  39.478  11.123
23242W        W95568  42.423  20.175   0.796
23243W        W95569   3.926   9.249  12.016
23244W        W95570  21.750  34.393  14.846
23245W        W95571  19.105   0.255  10.503
23246W        W95572  21.049  25.129   2.375
23247W        W95573  13.809   6.923  12.436
23248W        W95574  32.397  35.361  14.759
23249W        W95575  37.546  26.119  11.032
23250W        W95576  22.641  44.402   1.285
23251W        W95577  43.382  24.667   3.345
23252W        W95578  16.765  32.120  13.897
23253W        W95579  42.988  16.663   0.392
23254W        W95580  12.623   9.707   4.811
23255W        W95581  37.006   2.370  14.962
23256W        W95582   7.754  12.738   3.821
23257W        W95583  35.505   9.159   1.723
23258W        W95584  17.600   6.782  12.963
23259W        W95585   8.787  14.232   2.789
23260W        W95586  24.635  21.199   4.625
23261W        W95587   9.180  17.723  13.326
23262W        W95588  33.429  26.566  14.344
23263W        W95589  37.985   1.328  10.571
23264W        W95590   6.922  17.656   3.337
23265W        W95591  21.031  26.959  10.417
23266W        W95592  33.011  15.306   4.730
23267W        W95593  43.845  30.521  13.968
23268W        W95594   0.454  37.543  14.916
23269W        W95595  39.877  32.481  11.544
23270W        W95596  18.292  40.320   3.376
23271W        W95597  40.384  16.781  12.523
23272W        W95598   1.376  18.677  11.582
23273W        W95599  20.135  37.511   4.668
23274W        W95600  41.510  26.517   2.333
23275W        W95601  34.602  35.378   5.674
23276W        W95602  33.510  43.393  14.822
23277W        W95603  34.411  39.829   4.193
23278W        W95604   2.233  41.970  12.009
23279W        W95605  34.459  16.077   2.818
23280W        W95606  32.593  40.840   1.865
23281W        W95607  29.012   3.844  13.418
23282W        W95608  38.985  22.659  13.041
23283W        W95609  26.065   5.738  12.528
23284W        W95610  27.127   5.359  14.436
23285W        W95611  26.113  27.189   3.737
23286W        W95612  30.111  38.056  14.782
23287W        W95613  31.602  32.452  10.454
23288W        W95614   4.905  30.541  11.563
23289W        W95615  40.431   0.791  11.101
23290W        W95616  15.684  12.793  13.802
23291W        W95617   8.726  26.030   0.314
23292W        W95618  44.872  18.599  13.799
23293W        W95619  37.892  11.858   3.842
23294W        W95620   7.700   3.246   3.200
23295W        W95621  38.077  39.880  12.010
23296W        W95622   8.702  29.666  10.404
23297W        W95623   0.275   2.771   0.440
23298W        W95624  10.194  13.782  10.496
23299W        W95625  28.650   4.286   3.199
23300W        W95626  27.459   9.280   3.372
23301W        W95627  15.231  20.185   0.815
23302W        W95628  19.098  15.604   3.679
23303W        W95629  10.331  10.736   3.841
23304W        W95630  27.562  27.489  12.419
23305W        W95631  33.468   3.407  13.528
23306W        W95632   2.734  36.028  10.962
23307W        W95633  13.120  10.162   3.660
23308W        W95634  37.838  16.282   2.760
23309W        W95635  24.120  41.330  12.917
23310W        W95636  16.219  36.353  11.509
23311W        W95637   3.877  40.442  12.051
23312W        W95638  36.032   4.795   1.890
23313W        W95639  36.018   2.408   4.340
23314W        W95640   6.334  32.567  14.413
23315W        W95641   5.728  18.571   0.463
23316W        W95642  31.572   1.300   0.383
23317W        W95643  17.220  41.421   0.363
23318W        W95644  41.807  25.072  12.396
23319W        W95645  17.652  17.695   2.273
23320W        W95646  13.308   1.763   1.711
23321W        W95647   1.885  44.367  11.551
23322W        W95648  16.199  35.979   5.144
23323W        W95649  41.405   2.944  11.018
23324W        W95650  15.299  36.094  11.874
23325W        W95651   0.404   7.697  14.789
23326W        W95652  44.966  26.969  13.795
23327W        W95653  26.027   9.689   2.899
23328W        W95654  29.973  43.001   4.665
23329W        W95655  13.657  28.153   2.300
23330W        W95656  28.173   6.746  12.983
23331W        W95657  32.083  29.545   4.820
23332W        W95658  38.068  40.497   3.795
23333W        W95659  31.516  11.739  10.888
23334W        W95660  41.852  10.690   0.302
23335W        W95661  10.282  26.668  13.985
23336W        W95662  41.828  30.115   4.838
23337W        W95663  15.712   9.391  10.533
23338W        W95664   3.325  18.773  13.486
23339W        W95665  33.123  35.508   1.440
23340W        W95666  21.206  29.098  14.003
23341W        W95667  19.644  42.351   1.308
23342W        W95668  15.621  41.002   2.226
23343W        W95669  19.589  22.091   4.234
23344W        W95670  30.139  29.468   2.880
23345W        W95671  39.471  14.310   4.213
23346W        W95672  41.364  30.045  13.984
23347W        W95673  24.703  24.598  12.387
23348W        W95674  41.931  41.477   2.325
23349W        W95675   9.324   4.866  11.521
23350W        W95676  32.454  13.345   1.442
23351W        W95677  32.589  14.714  10.629
23352W        W95678  14.130  15.597   0.391
23353W        W95679  11.749  23.033   3.386
23354W        W95680  12.183  28.036  12.832
23355W        W95681   9.718   4.416  11.928
23356W        W95682  44.267  19.090  13.951
23357W        W95683  23.196   1.240  12.498
23358W        W95684  13.220   2.268  12.916
23359W        W95685  25.096  42.973   1.811
23360W        W95686  16.093   4.278  13.452
23361W        W95687  35.042  35.569  10.452
23362W        W95688   7.704  31.501  13.534
23363W        W95689  20.127  39.950   4.247
23364W        W95690  31.905  10.266  10.531
23365W        W95691  38.014  41.869  13.352
23366W        W95692  33.470   5.864   5.170
23367W        W95693  15.315   7.773   1.789
23368W        W95694   0.269  39.038   4.160
23369W        W95695  15.159   2.320  12.363
23370W        W95696   1.337   2.248   0.447
23371W        W95697  16.682  22.007   4.237
23372W        W95698  33.527  31.898   3.193
23373W        W95699  25.678  17.788  12.482
23374W        W95700   1.775  44.803  12.025
23375W        W95701  13.282  20.684  10.607
23376W        W95702  38.826  24.638   2.390
23377W        W95703  13.719  14.631   1.916
23378W        W95704  38.345  28.157   0.905
23379W        W95705  29.627   4.338  10.550
23380W        W95706  13.278  39.451   4.801
23381W        W95707  29.956  13.165  12.042
23382W        W95708  25.703  29.628   3.729
23383W        W95709  18.597  44.313   1.415
23384W        W95710  42.866  14.331  13.860
23385W        W95711  35.560  30.608  11.528
23386W        W95712   5.878  20.724  14.458
23387W        W95713  23.029   1.775  11.500
23388W        W95714   9.345  16.157   2.669
23389W        W95715   1.969  19.190   2.203
23390W        W95716  10.846  11.788   4.189
23391W        W95717  10.829  21.155   1.254
23392W        W95718   8.666  14.806  10.570
23393W        W95719   5.369  28.576  11.982
23394W        W95720   6.686  15.263   1.326
23395W        W95721  32.612   3.352   4.354
23396W        W95722  10.696   2.761   2.722
23397W        W95723  11.854  33.033   4.336
23398W        W95724  25.207   9.820  10.586
23399W        W95725  21.205  42.984  14.923
23400W        W95726   3.396  20.179  12.945
23401W        W95727  27.988  30.598   0.913
23402W        W95728   9.154  32.014   3.816
23403W        W95729  19.239   3.760  12.375
23404W        W95730  40.943  30.058  10.578
23405W        W95731  10.768  15.212  13.822
23406W        W95732   0.261   0.311   4.715
23407W        W95733  35.489  42.331   2.337
23408W        W95734  26.527  31.100   2.893
23409W        W95735  13.328  32.606  10.469
23410W        W95736  22.588   1.957   2.681
23411W        W95737  32.595  18.103  10.462
23412W        W95738   8.815  40.324  14.958
23413W        W95739   9.698  16.074   1.779
23414W        W95740  32.134  10.272   2.223
23415W        W95741   0.799   4.810  12.017
23416W        W95742  33.013  42.781   0.775
23417W        W95743  23.027  18.722   1.906
23418W        W95744  32.016  16.247   0.795
23419W        W95745  26.577   8.186   2.814
23420W        W95746   5.250  37.973  10.411
23421W        W95747  14.716  21.644   4.696
23422W        W95748  29.547  43.340   1.380
23423W        W95749  12.279   3.391   0.767
23424W        W95750  11.215   2.244  13.881
23425W        W95751  27.150   6.831   3.343
23426W        W95752  39.533  23.059  11.118
23427W        W95753   5.406   4.803  13.901
23428W        W95754  15.764  19.534  12.969
23429W        W95755  36.516  23.674  12.017
23430W        W95756   1.822  41.305  11.439
23431W        W95757   3.782  35.950   9.956
23432W        W95758  26.666   9.188   0.342
23433W        W95759   8.721  20.641  11.560
23434W        W95760   0.842  31.426  12.022
23435W        W95761  35.458  28.049   2.319
23436W        W95762  23.020  21.061   0.898
23437W        W95763  41.298  26.091   4.645
23438W        W95764  25.576  36.438  12.572
23439W        W95765  19.758  29.498   3.370
23440W        W95766  30.623  13.659   2.732
23441W        W95767   2.914  25.114   2.371
23442W        W95768  32.021   3.845  12.374
23443W        W95769  39.497  36.568   4.287
23444W        W95770  27.683   0.944  13.514
23445W        W95771  20.677  12.269  11.996
23446W        W95772  41.836  13.663  11.423
23447W        W95773  42.359  41.878   1.888
23448W        W95774  38.943  37.994   3.224
23449W        W95775   4.937  43.871  10.490
23450W        W95776  19.270  10.777   3.703
23451W        W95777  18.670  15.784   4.264
23452W        W95778  44.832  26.064   1.789
23453W        W95779  44.785  15.681  13.331
23454W        W95780  37.053   6.891   3.635
23455W        W95781  35.081  38.956   5.109
23456W        W95782  23.563  39.541  13.492
23457W        W95783  19.207  13.750   3.260
23458W        W95784   5.237  16.642  10.409
23459W        W95785  39.038  14.623  12.051
23460W        W95786  36.398   8.254   4.247
23461W        W95787   4.833  16.109   3.674
23462W        W95788  41.474  37.024  10.435
23463W        W95789  30.575   9.375   3.171
23464W        W95790  38.356  38.479   3.667
23465W        W95791   9.809   8.850   1.863
23466W        W95792   8.686  29.553  14.450
23467W        W95793  41.921  12.767   0.243
23468W        W95794  23.192  35.952   2.743
23469W        W95795  22.584  26.611   3.720
23470W        W95796  20.745  11.319   0.825
23471W        W95797   4.812  16.740   2.797
23472W        W95798  32.022  34.543  12.416
23473W        W95799  11.783  37.852   2.261
23474W        W95800  35.395  16.659   1.448
23475W        W95801  44.411  10.285   1.296
23476W        W95802  28.961   1.253   2.331
23477W        W95803  39.845  38.494   4.807
23478W        W95804  42.320  21.041  11.502
23479W        W95805   9.317   2.949   1.357
23480W        W95806  36.848  42.882   1.378
23481W        W95807   4.921  28.513   1.823
23482W        W95808  36.857  11.791  11.105
23483W        W95809  19.078  40.310   4.710
23484W        W95810  15.089  33.080  10.456
23485W        W95811  40.330  27.462   4.733
23486W        W95812  43.913  27.481  11.570
23487W        W95813  25.031  16.706   0.904
23488W        W95814   9.271  25.158   1.444
23489W        W95815  17.266   5.256   2.267
23490W        W95816  17.792   7.195  10.907
23491W        W95817  29.945  32.589  11.598
23492W        W95818  22.184  30.009  12.544
23493W        W95819  13.722  22.621   2.677
23494W        W95820  10.364  25.686  11.988
23495W        W95821  35.930  25.713  12.522
23496W        W95822   3.827  30.008  12.012
23497W        W95823  34.980  42.796  14.460
23498W        W95824  27.539  28.533   0.299
23499W        W95825  22.507  38.550   3.234
23500W        W95826  15.248  19.108  12.969
23501W        W95827  14.716  10.258   3.746
23502W        W95828   6.255   9.733   1.707
23503W        W95829   8.671  37.355   3.829
23504W        W95830  33.544  33.548  11.543
23505W        W95831  25.652  21.685  12.047
23506W        W95832  18.173  42.830   2.870
23507W        W95833  32.895  37.871   4.303
23508W        W95834   3.239  36.509  11.506
23509W        W95835  26.978  25.118   0.885
23510W        W95836  29.647  35.915   2.763
23511W        W95837   8.348   4.785   1.834
23512W        W95838  35.495  21.080  13.975
23513W        W95839   9.748  31.501  11.008
23514W        W95840  28.538   2.377   2.415
23515W        W95841  44.285  17.708   3.292
23516W        W95842  33.546  38.458   9.933
23517W        W95843   4.887   3.336   4.341
23518W        W95844  20.055  18.778  10.481
23519W        W95845   7.829  32.028  13.012
23520W        W95846  26.168  29.112   3.866
23521W        W95847  21.589  33.548  13.493
23522W        W95848  39.322   3.737  12.994
23523W        W95849   0.853  21.173  13.837
23524W        W95850  19.626  25.081   0.941
23525W        W95851  11.374  10.645   2.370
23526W        W95852  17.763  42.332   0.833
23527W        W95853  30.541   4.299  13.926
23528W        W95854  30.643  20.708   3.295
23529W        W95855   5.271  13.617  13.939
23530W        W95856   2.464  10.775   4.693
23531W        W95857  16.148  43.327  10.567
23532W        W95858  12.624  44.828  11.402
23533W        W95859  34.919  35.871   3.221
23534W        W95860  30.572  23.150  11.966
23535W        W95861  22.524  13.742  14.787
23536W        W95862  37.086   4.287  13.479
23537W        W95863   1.777   0.489   0.295
23538W        W95864  29.026  23.120   4.127
23539W        W95865  20.552  25.530   4.762
23540W        W95866  39.348  11.818  12.978
23541W        W95867   0.875  12.771  10.604
23542W        W95868  36.523  37.394  14.967
23543W        W95869  19.236  11.868   1.214
23544W        W95870  16.179  22.135   4.263
23545W        W95871  18.656  18.170  14.796
23546W        W95872  39.055  40.347  14.282
23547W        W95873  29.919  40.357   0.937
23548W        W95874  21.634  44.772  12.479
23549W        W95875  36.385  27.972   4.204
23550W        W95876  25.559  31.051  12.426
23551W        W95877  37.998  20.272  12.823
23552W        W95878  11.177  23.618   4.597
23553W        W95879   7.412   1.773  13.909
23554W        W95880  15.710  16.677  14.928
23555W        W95881  22.144  33.380  12.849
23556W        W95882  29.586  34.506   1.908
23557W        W95883  20.728   4.218  14.970
23558W        W95884  29.173   9.874   1.784
23559W        W95885  15.660   3.800   1.705
23560W        W95886   9.160  32.550  11.431
23561W        W95887  31.145  38.075   0.788
23562W        W95888  18.652  12.152  13.394
23563W        W95889   7.219  36.024  13.799
23564W        W95890  38.459   0.322   4.167
23565W        W95891  39.015  31.618  12.909
23566W        W95892  33.507  15.218  12.015
23567W        W95893  11.266   6.418  14.450
23568W        W95894  21.115  37.388  12.534
23569W        W95895   2.293  32.934   2.880
23570W        W95896  38.912   4.255  10.425
23571W        W95897  44.815  23.601   3.325
23572W        W95898  31.050   5.916  13.907
23573W        W95899  12.687   8.695  10.155
23574W        W95900  19.605  13.117   1.917
23575W        W95901  16.687   4.379   2.387
23576W        W95902   9.178  11.820   2.256
23577W        W95903   9.354  38.330  14.279
23578W        W95904  35.981  35.386  10.510
23579W        W95905  20.253  16.225  13.322
23580W        W95906  36.987   6.875   0.271
23581W        W95907  23.083   6.199  14.856
23582W        W95908   7.191  35.898  12.446
23583W        W95909  36.868  28.014  11.964
23584W        W95910   7.751  40.538  11.988
23585W        W95911  28.676  17.645   4.270
23586W        W95912  44.477  26.466   0.819
23587W        W95913  32.121   2.471   5.120
23588W        W95914  23.130  41.802   3.647
23589W        W95915  32.108  44.010  12.986
23590W        W95916   0.934  20.769  14.276
23591W        W95917  15.241   0.921  11.512
23592W        W95918  29.452  38.481   0.876
23593W        W95919  35.910  14.159  13.911
23594W        W95920  39.017  10.750  13.873
23595W        W95921  25.986  20.607   0.268
23596W        W95922  18.590  33.015   2.868
23597W        W95923  27.471  14.315  11.594
23598W        W95924   6.188  31.934   1.930
23599W        W95925  26.521  40.958  11.474
23600W        W95926  23.510  44.355   0.258
23601W        W95927   4.866   9.331   0.767
23602W        W95928  35.948  44.483  12.031
23603W        W95929  31.922  36.891  13.535
23604W        W95930  23.645  26.099   3.378
23605W        W95931  41.863  21.193   1.907
23606W        W95932  14.606  23.537  14.417
23607W        W95933   5.850  33.067  13.882
23608W        W95934   1.835  10.685   3.809
23609W        W95935  17.283   2.786   3.813
23610W        W95936  40.951  10.742   3.252
23611W        W95937   9.718   3.297  12.932
23612W        W95938   5.824  44.892  10.923
23613W        W95939  19.604  37.012  12.070
23614W        W95940   3.736  40.955  12.469
23615W        W95941  26.138   4.216   4.750
23616W        W95942  21.084  12.118  10.486
23617W        W95943  44.789   9.822  14.311
23618W        W95944  10.378  15.703  12.969
23619W        W95945   9.362  32.965   0.885
23620W        W95946  23.149  39.330   5.784
23621W        W95947   8.232  16.623  11.885
23622W        W95948   4.740  38.501  13.978
23623W        W95949  32.587  13.351   0.420
23624W        W95950  15.142  13.149  11.033
23625W        W95951   8.680  41.451   2.801
23626W        W95952   3.835  25.979  14.772
23627W        W95953  14.724  22.194  11.453
23628W        W95954   0.353  39.382   0.280
23629W        W95955  23.173  10.658   0.763
23630W        W95956  37.841  13.175  11.932
23631W        W95957  18.074  16.201  10.539
23632W        W95958  44.975  12.218  12.444
23633W        W95959  20.178  42.852   1.406
23634W        W95960  15.307  15.266   4.225
23635W        W95961  17.564  13.107  10.963
23636W        W95962  34.406  36.053  14.987
23637W        W95963  15.817  22.576  13.986
23638W        W95964   6.786  16.232  10.945
23639W        W95965  16.649   5.695  13.416
23640W        W95966   4.309   3.943   9.574
23641W        W95967  22.735  34.373   4.276
23642W        W95968   8.898  37.075   3.795
23643W        W95969  35.505  44.280  11.465
23644W        W95970  17.139  36.509  13.873
23645W        W95971  41.504  27.644   1.777
23646W        W95972   7.321   2.758  13.798
23647W        W95973  34.982   0.424  12.884
23648W        W95974   2.339  32.983  12.844
23649W        W95975  21.067  33.027  13.395
23650W        W95976  36.565   3.718  13.372
23651W        W95977   8.207  27.535  13.045
23652W        W95978  37.531  15.615   0.917
23653W        W95979   9.172   9.698  12.431
23654W        W95980  39.409  44.421  12.369
23655W        W95981  19.614  23.644   0.450
23656W        W95982  42.353  34.074   2.206
23657W        W95983   4.288  12.634  10.541
23658W        W95984   1.875  30.127   4.758
23659W        W95985  31.610  24.006   1.778
23660W        W95986  34.994  11.773  10.560
23661W        W95987  32.896   3.856   3.224
23662W        W95988  22.568  37.532  14.999
23663W        W95989  40.309  16.630   2.241
23664W        W95990  15.609  44.501  12.408
23665W        W95991   0.796  32.570  10.912
23666W        W95992   7.269  32.115  13.352
23667W        W95993   0.484  36.934   2.814
23668W        W95994  41.386   1.328  11.954
23669W        W95995   5.698  40.393   3.200
23670W        W95996   1.274   4.882   4.745
23671W        W95997  35.103   3.223  14.802
23672W        W95998  32.941  21.756   2.301
23673W        W95999  23.063  43.357  13.015
23674W        W96000  32.571  40.987   4.770
23675W        W96001  30.911  25.990   1.741
23676W        W96002  13.797  27.523   4.152
23677W        W96003  10.651   1.266   4.793
23678W        W96004   2.263  10.171  10.899
23679W        W96005  14.329  22.084   0.942
23680W        W96006   3.413   1.836  12.028
23681W        W96007   7.732  20.254   0.454
23682W        W96008  13.632  10.165  12.483
23683W        W96009  16.181   7.206  10.963
23684W        W96010   6.287  10.828  12.580
23685W        W96011  38.036   7.177   1.757
23686W        W96012  41.916  12.616  12.013
23687W        W96013  42.406  24.620  14.382
23688W        W96014  25.626  29.441   2.744
23689W        W96015  21.660  27.142  11.921
23690W        W96016  37.059  22.047   1.405
23691W        W96017   8.666   9.883   1.214
23692W        W96018  33.412  31.442  14.031
23693W        W96019  18.714  34.381  12.020
23694W        W96020  39.812  31.541  11.926
23695W        W96021  26.970  13.198  13.535
23696W        W96022  31.405  39.513  13.340
23697W        W96023  40.927  31.955   0.480
23698W        W96024  41.791  37.428   0.311
23699W        W96025  44.365  17.664   2.288
23700W        W96026   8.397  15.723  14.321
23701W        W96027   8.794  37.978   4.670
23702W        W96028  36.985  35.545  13.528
23703W        W96029   6.352  12.178  13.417
23704W        W96030  20.714  20.617   1.807
23705W        W96031  23.076   5.345  11.545
23706W        W96032  42.513  42.888  12.056
23707W        W96033  43.470   7.181  10.594
23708W        W96034  35.370  31.128   4.164
23709W        W96035   1.243  12.289   0.914
23710W        W96036  29.122   1.445   2.708
23711W        W96037  21.259   4.834   4.818
23712W        W96038  21.578  22.671  14.004
23713W        W96039   5.354  23.144  11.494
23714W        W96040  26.689  14.205  10.134
23715W        W96041   3.329  11.805   2.214
23716W        W96042   9.222  23.085   4.254
23717W        W96043  20.071  42.287   4.719
23718W        W96044  41.519  12.215   4.277
23719W        W96045  39.965  22.674   1.824
23720W        W96046   8.831  34.554  12.350
23721W        W96047  33.039  16.143   3.844
23722W        W96048  28.140  33.077   1.244
23723W        W96049  33.971  24.701  13.000
23724W        W96050  17.607  40.997   4.764
23725W        W96051  23.125  20.195  10.601
23726W        W96052  33.958  15.692   1.860
23727W        W96053  41.791   1.328  14.444
23728W        W96054  32.604  26.970   2.355
23729W        W96055  25.025  29.141  11.537
23730W        W96056  23.496  42.351  10.930
23731W        W96057  36.948   7.315  10.484
23732W        W96058   7.899   3.459  12.360
23733W        W96059   7.758  12.283   2.778
23734W        W96060  19.595  34.464  13.991
23735W        W96061  17.240   3.241  10.508
23736W        W96062  40.412  21.539  10.434
23737W        W96063  22.134  26.645   1.836
23738W        W96064  20.692  27.107  11.877
23739W        W96065   7.820  23.179  14.812
23740W        W96066  23.498  13.763  11.508
23741W        W96067  32.986  27.151  11.098
23742W        W96068  14.251   7.275  10.149
23743W        W96069  14.205  10.298  12.384
23744W        W96070  41.366   9.771  11.502
23745W        W96071  29.593   1.454   0.299
23746W        W96072   2.958  38.905  13.430
23747W        W96073  23.216  14.832  14.874
23748W        W96074  25.606  19.625   2.815
23749W        W96075  40.346   4.832   3.656
23750W        W96076  38.325  14.832   3.191
23751W        W96077  26.200  17.203  12.537
23752W        W96078  20.552  38.835   2.769
23753W        W96079   4.269  37.442  13.981
23754W        W96080  32.085  17.796  14.404
23755W        W96081   1.952   1.288   1.708
23756W        W96082  35.526   8.860   2.776
23757W        W96083  13.287   7.836   4.297
23758W        W96084  43.491  24.535  11.949
23759W        W96085  41.014  10.753   2.817
23760W        W96086  30.125  19.773  11.107
23761W        W96087  36.080  20.195   0.811
23762W        W96088  40.019  18.557   4.824
23763W        W96089  13.161  13.723   4.147
23764W        W96090  15.284  44.908   2.208
23765W        W96091  20.594   3.223  13.542
23766W        W96092   1.453   8.247  13.312
23767W        W96093  36.375  19.061   2.814
23768W        W96094  41.025  41.019   1.384
23769W        W96095  16.800  16.078   3.692
23770W        W96096  13.670  29.614  12.376
23771W        W96097   8.319  42.483  12.058
23772W        W96098  33.924  15.227   4.230
23773W        W96099  33.531  41.950  13.384
23774W        W96100  44.807  40.417   4.243
23775W        W96101  26.610  13.618   1.702
23776W        W96102  39.908  19.619   4.150
23777W        W96103   9.169  38.362  10.405
23778W        W96104  25.670  34.041  14.959
23779W        W96105  34.060  29.175  10.624
23780W        W96106  13.711  33.525  10.091
23781W        W96107  11.202  18.699   2.799
23782W        W96108   6.255   4.715  13.374
23783W        W96109  33.438   3.908  11.609
23784W        W96110  34.978  28.172  10.588
23785W        W96111  11.631  36.012   5.196
23786W        W96112  18.699  14.747   4.677
23787W        W96113   8.701  32.024  13.462
23788W        W96114  44.827  42.310  12.943
23789W        W96115  22.010  30.977   2.380
23790W        W96116  31.453  28.082  13.309
23791W        W96117  16.151  21.211   3.828
23792W        W96118  24.524  20.177   3.687
23793W        W96119   4.419  44.824  13.354
23794W        W96120   8.819  28.931   4.136
23795W        W96121   5.415  33.523  10.089
23796W        W96122  35.086  35.496   3.740
23797W        W96123  23.596  44.010  13.064
23798W        W96124   2.938  24.159   4.176
23799W        W96125   0.747   7.711   0.430
23800W        W96126  12.167  37.952  13.984
23801W        W96127   4.213  26.050  12.085
23802W        W96128  26.952  13.790   4.669
23803W        W96129   1.370   3.308  14.890
23804W        W96130  21.658  21.249   1.291
23805W        W96131  27.463  20.675   3.331
23806W        W96132  33.043   4.332  14.364
23807W        W96133   0.459  16.176  13.963
23808W        W96134   8.872  13.249  14.408
23809W        W96135  23.024  29.973  13.041
23810W        W96136  21.047  12.781   2.382
23811W        W96137  37.911   9.274  12.877
23812W        W96138  40.885  42.391   2.219
23813W        W96139  32.890  17.791   3.272
23814W        W96140  24.043  44.349  10.511
23815W        W96141  18.749  19.082  10.622
23816W        W96142  30.127  21.579  14.501
23817W        W96143  10.714  19.580   3.225
23818W        W96144   0.974  31.001   4.647
23819W        W96145  19.244  37.582   3.736
23820W        W96146   0.753  38.548   1.353
23821W        W96147  43.344  10.309  11.005
23822W        W96148   8.880  11.629  10.514
23823W        W96149  34.877  14.136   3.244
23824W        W96150   6.912  15.599  13.360
23825W        W96151  42.882   2.830  14.495
23826W        W96152  13.282  38.372  10.927
23827W        W96153  31.486   4.827  13.517
23828W        W96154  15.212  19.075   2.693
23829W        W96155  35.547  29.591  11.878
23830W        W96156   4.918  17.720  10.436
23831W        W96157  30.515   3.712   4.216
23832W        W96158  22.703   1.308   0.297
23833W        W96159  34.465   4.783  11.054
23834W        W96160   2.765  10.775  13.358
23835W        W96161  13.342  21.043  12.943
23836W        W96162  16.629   2.398   4.170
23837W        W96163  11.333  34.397  14.946
23838W        W96164  10.746   8.710  12.030
23839W        W96165  33.509  19.177   1.213
23840W        W96166  13.162   0.769  14.759
23841W        W96167  24.068  14.261   2.757
23842W        W96168  44.369  21.574  11.504
23843W        W96169  19.614  21.086  14.802
23844W        W96170  20.127  33.008  12.828
23845W        W96171  44.814  17.744   2.823
23846W        W96172  10.329   6.882   3.802
23847W        W96173  29.529  14.303   1.697
23848W        W96174  34.527  31.596   4.747
23849W        W96175   8.296  23.239   1.376
23850W        W96176  20.117   5.353   0.747
23851W        W96177   8.753   0.303   0.916
23852W        W96178  10.709   0.807   0.331
23853W        W96179   7.747  33.981  12.925
23854W        W96180  26.550  33.113  11.555
23855W        W96181  31.069  29.465   1.838
23856W        W96182  20.585   2.252   4.751
23857W        W96183  22.707  31.543  11.515
23858W        W96184  25.675   9.236  12.371
23859W        W96185  22.013  23.165   0.278
23860W        W96186  14.149  44.976   3.848
23861W        W96187  21.115   9.210   2.369
23862W        W96188  39.362   7.716  14.343
23863W        W96189   0.862  17.723   2.700
23864W        W96190   4.715  21.579   2.339
23865W        W96191  37.554   3.312  14.818
23866W        W96192  34.900   4.245   4.222
23867W        W96193  27.028   1.886  12.847
23868W        W96194  15.301  43.430   1.758
23869W        W96195  10.353  34.511  13.957
23870W        W96196   3.222   4.348  14.014
23871W        W96197   4.781  40.996  10.952
23872W        W96198   2.952   1.963   9.575
23873W        W96199   4.840   4.857  12.900
23874W        W96200  31.119   9.820   1.239
23875W        W96201  26.644  20.253  12.883
23876W        W96202  41.456  39.517  11.092
23877W        W96203  37.408   6.254   0.934
23878W        W96204  18.582  11.703  12.026
23879W        W96205   6.895  40.310   2.891
23880W        W96206  15.234   9.783   4.235
23881W        W96207  35.110  24.136   2.362
23882W        W96208  31.110   7.731   1.363
23883W        W96209  11.852  36.870   0.918
23884W        W96210  18.208  10.683  14.304
23885W        W96211   6.720  33.589   1.884
23886W        W96212  32.093  38.432   3.867
23887W        W96213  35.061  26.505  12.829
23888W        W96214  33.052  42.879  11.463
23889W        W96215  24.181  44.385  11.393
23890W        W96216   4.758  24.581  10.551
23891W        W96217  20.222  29.431   3.215
23892W        W96218  42.823  35.986   0.422
23893W        W96219  26.626  35.593  12.369
23894W        W96220   9.664  14.270  14.761
23895W        W96221  40.337   1.943   3.387
23896W        W96222   6.370   8.401   3.197
23897W        W96223   4.300  23.011  13.796
23898W        W96224  35.437  25.558  13.401
23899W        W96225  10.827  27.593   4.139
23900W        W96226  30.971  28.607  14.009
23901W        W96227  12.211  11.130   2.835
23902W        W96228  21.593  21.700  14.500
23903W        W96229   3.249  35.508  12.437
23904W        W96230   0.932   9.177   1.896
23905W        W96231  20.612  37.422   1.807
23906W        W96232  19.604   6.358   4.793
23907W        W96233  10.361  37.892  13.846
23908W        W96234  32.900  36.354  13.528
23909W        W96235  14.688   2.793  12.057
23910W        W96236  28.517   9.712  12.087
23911W        W96237   4.423  19.136   0.869
23912W        W96238  27.615   7.238   2.410
23913W        W96239  17.189  40.341  14.771
23914W        W96240   3.899  25.082   0.245
23915W        W96241   3.272  37.455   3.176
23916W        W96242  41.962  40.991  10.433
23917W        W96243  20.108  10.756  14.383
23918W        W96244   7.799  14.209   2.246
23919W        W96245   0.304  23.058  10.451
23920W        W96246  41.830   6.739  12.403
23921W        W96247  34.905  15.819  14.340
23922W        W96248   1.363  30.941  11.106
23923W        W96249  12.633  31.555   2.332
23924W        W96250   8.404  34.417  11.949
23925W        W96251  24.489  17.701   3.860
23926W        W96252   8.761  26.130   2.702
23927W        W96253  19.633  25.479   3.754
23928W        W96254  16.729  40.939   4.194
23929W        W96255   5.259  18.183  12.927
23930W        W96256  24.629  20.143  11.454
23931W        W96257  39.856  23.076   4.713
23932W        W96258  26.470  16.213  12.569
23933W        W96259  38.406  13.736  10.903
23934W        W96260  23.999  24.228   5.314
23935W        W96261  15.173  24.593  13.481
23936W        W96262  22.593  14.663  11.434
23937W        W96263  11.307  21.230   0.836
23938W        W96264  20.177   8.225   3.693
23939W        W96265  10.671  29.540   4.752
23940W        W96266  37.499   4.298   4.213
23941W        W96267  16.709  33.494   2.827
23942W        W96268  36.022  26.605   5.287
23943W        W96269  29.494  30.647  14.361
23944W        W96270  41.824  11.280  13.990
23945W        W96271  35.852  32.142  13.920
23946W        W96272   9.275   0.349   3.386
23947W        W96273  12.125  43.427  14.910
23948W        W96274  15.752  35.392  11.987
23949W        W96275  36.492  30.568   2.328
23950W        W96276  30.031  35.928  14.437
23951W        W96277  16.200  28.181  11.491
23952W        W96278  37.429  12.820   0.324
23953W        W96279  39.894   4.926  11.913
23954W        W96280  31.419  11.286   1.932
23955W        W96281   2.918   7.697  11.912
23956W        W96282  42.905   4.913   0.879
23957W        W96283  19.725  43.916  13.811
23958W        W96284   6.742   5.724  13.005
23959W        W96285  40.810  31.979  10.639
23960W        W96286  13.776  20.708   0.959
23961W        W96287  26.615   8.861  12.878
23962W        W96288  17.074  31.114   0.350
23963W        W96289  24.483  31.610  12.435
23964W        W96290   6.741  21.047  13.337
23965W        W96291  16.115  35.069  13.519
23966W        W96292  21.624  19.561  14.836
23967W        W96293  20.631  41.317  11.384
23968W        W96294  21.569  15.235   1.725
23969W        W96295  33.021   2.418   2.377
23970W        W96296  15.746  38.395   2.253
23971W        W96297  25.650  25.597  13.854
23972W        W96298  24.098  32.143   0.789
23973W        W96299   7.760  26.188  11.859
23974W        W96300   7.346  28.047  14.839
23975W        W96301  35.444  40.436  10.949
23976W        W96302  34.496  38.854   2.399
23977W        W96303  32.925  24.977   0.879
23978W        W96304  28.068  44.373   3.713
23979W        W96305  23.091  40.452   0.895
23980W        W96306   1.853  15.304   2.252
23981W        W96307  30.041  13.177  10.931
23982W        W96308  14.600   3.712   2.336
23983W        W96309   8.178  33.917  10.452
23984W        W96310  36.568  29.046   2.667
23985W        W96311  37.074  40.897  13.868
23986W        W96312  24.178   0.982  14.408
23987W        W96313  18.096  14.804   1.364
23988W        W96314  18.269  27.559   1.809
23989W        W96315  16.674  30.955   3.770
23990W        W96316  42.481  12.319   2.252
23991W        W96317  23.504  31.403  13.507
23992W        W96318  22.038   7.759   2.759
23993W        W96319  14.620   3.442   0.955
23994W        W96320   3.712  32.035  12.957
23995W        W96321  16.252  13.170  12.427
23996W        W96322   5.309  31.590  10.521
23997W        W96323  13.197  29.175   2.859
23998W        W96324  14.690   9.717   3.325
23999W        W96325  18.555  30.137   3.774
24000W        W96326  19.549  25.683   1.242
24001W        W96327  28.648  29.441   4.269
24002W        W96328  20.094   5.727   2.674
24003W        W96329  32.073   5.696  13.461
24004W        W96330  37.512  41.992   2.699
24005W        W96331   6.804   0.377  12.400
24006W        W96332  42.983  34.501  13.348
24007W        W96333  37.528  30.498   0.302
24008W        W96334  33.024  24.093   3.771
24009W        W96335  12.351  28.603   2.807
24010W        W96336   3.234  16.263  11.484
24011W        W96337  31.064  30.655  11.030
24012W        W96338  41.420  24.977  11.897
24013W        W96339  25.132  15.176   1.881
24014W        W96340  21.685  17.726   4.249
24015W        W96341  31.045  17.681   4.806
24016W        W96342   9.675  21.109   4.662
24017W        W96343  21.712  29.643  11.410
24018W        W96344  37.086  32.072   4.703
24019W        W96345  20.234  44.454   2.212
24020W        W96346   9.287  29.614  14.976
24021W        W96347  21.098   2.437  13.997
24022W        W96348  31.443  31.115   4.670
24023W        W96349  37.578  36.097  13.811
24024W        W96350   6.376  13.117   4.626
24025W        W96351  26.204   3.316   0.455
24026W        W96352  23.614  34.397   0.821
24027W        W96353  42.906   2.438   2.675
24028W        W96354  40.864  35.913   0.931
24029W        W96355   3.843   2.939  11.931
24030W        W96356  37.870  31.942  14.930
24031W        W96357  18.773  41.337   2.779
24032W        W96358  27.608  30.062  13.908
24033W        W96359   0.282   9.377  14.774
24034W        W96360   0.847  37.569  14.372
24035W        W96361  36.908  29.591   4.307
24036W        W96362  42.423  40.479   4.129
24037W        W96363  24.518  16.622  12.384
24038W        W96364   4.364  13.804  13.861
24039W        W96365  18.649   8.699   0.766
24040W        W96366  10.157  16.737   4.627
24041W        W96367  19.089  26.164  12.927
24042W        W96368  44.972   9.758  10.596
24043W        W96369   0.798  11.275   2.669
24044W        W96370   2.466   6.792   0.912
24045W        W96371  12.796  42.841  12.348
24046W        W96372   6.686  27.452   2.895
24047W        W96373  12.689  43.305  12.881
24048W        W96374   9.827  34.989  11.014
24049W        W96375  27.037  19.696   1.891
24050W        W96376  15.779  12.273   4.826
24051W        W96377   9.279  17.228  10.563
24052W        W96378  41.922  25.574   3.269
24053W        W96379   3.255  10.277  14.361
24054W        W96380   9.357  30.608   5.285
24055W        W96381  30.594  17.687   1.756
24056W        W96382  20.693  23.583   4.229
24057W        W96383  19.661  38.853  14.940
24058W        W96384  33.086   6.885  12.509
24059W        W96385   3.728  10.632   0.784
24060W        W96386  20.251  10.155   0.768
24061W        W96387  16.632  25.001  12.958
24062W        W96388  15.819  43.303   4.777
24063W        W96389   8.397  33.122   2.806
24064W        W96390   1.740  18.142  10.929
24065W        W96391  14.268  21.649  12.911
24066W        W96392  15.628  29.078  13.791
24067W        W96393  32.607  38.347   0.331
24068W        W96394   1.863  32.600  13.528
24069W        W96395  21.729  16.140   4.210
24070W        W96396  24.983  37.355   1.898
24071W        W96397  24.639  11.762  12.528
24072W        W96398  20.232  26.124   0.838
24073W        W96399  44.441  18.279   2.888
24074W        W96400  11.322  35.421   3.269
24075W        W96401  44.823  22.190   2.784
24076W        W96402  14.225  24.626  11.108
24077W        W96403  21.249   4.742   3.255
24078W        W96404   6.365   5.907  12.067
24079W        W96405  17.187  30.475   3.377
24080W        W96406  20.551  19.228   1.722
24081W        W96407  22.728  23.217  13.891
24082W        W96408  10.742  13.320  11.598
24083W        W96409  23.603  35.852   2.188
24084W        W96410  24.659  39.479  12.074
24085W        W96411   6.827   4.765   2.202
24086W        W96412   7.899   6.737   2.338
24087W        W96413  34.985  32.101   0.938
24088W        W96414  30.954  40.357  10.080
24089W        W96415  41.498  10.751  10.429
24090W        W96416  38.999  31.019   0.900
24091W        W96417   4.929  22.076  14.765
24092W        W96418  31.483  29.430   4.694
24093W        W96419   9.382  32.069   0.371
24094W        W96420  15.276  19.247  11.905
24095W        W96421  27.981  23.557   4.758
24096W        W96422  23.233  12.826   0.875
24097W        W96423  34.997  36.949  14.911
24098W        W96424   4.346  34.898  12.071
24099W        W96425  14.736  20.112   4.606
24100W        W96426  36.571   4.343  12.463
24101W        W96427   9.282  10.218  11.898
24102W        W96428  35.563   5.428   1.410
24103W        W96429  26.701   4.792  14.473
24104W        W96430   8.172  21.521   2.699
24105W        W96431  33.888   1.261  13.890
24106W        W96432  12.294  28.127  11.018
24107W        W96433  17.214   2.895  12.392
24108W        W96434  31.029  18.729  14.275
24109W        W96435  29.031  30.527  14.983
24110W        W96436  16.288  16.172   0.794
24111W        W96437   6.737  23.230   3.240
24112W        W96438  37.570  23.209   1.695
24113W        W96439  15.654  11.754   1.326
24114W        W96440  17.234   7.839  12.513
24115W        W96441  36.072  34.459   3.750
24116W        W96442  14.184   6.836  12.404
24117W        W96443   5.751  28.136   4.691
24118W        W96444   4.830  33.118   0.853
24119W        W96445  30.474  26.102  11.890
24120W        W96446  30.610  43.989  10.982
24121W        W96447  32.471  16.282   3.697
24122W        W96448  42.348   7.736  12.358
24123W        W96449  44.004  12.248   0.386
24124W        W96450   6.710   8.762  12.461
24125W        W96451  31.577  33.539   0.912
24126W        W96452  23.160  37.019   9.930
24127W        W96453  32.118   0.948   3.273
24128W        W96454   8.247  11.773   0.454
24129W        W96455  12.129  39.432  13.532
24130W        W96456  34.445  35.423   9.503
24131W        W96457  40.914   2.440  10.439
24132W        W96458  30.921  21.231   4.286
24133W        W96459   2.406  37.065   0.283
24134W        W96460   2.935  40.048  10.923
24135W        W96461  28.137  34.487   2.407
24136W        W96462   2.730   1.356  12.370
24137W        W96463   1.755  32.523  12.474
24138W        W96464  25.054  29.551  13.391
24139W        W96465  42.928  25.975  14.407
24140W        W96466  37.955  30.514  12.561
24141W        W96467   7.200  22.656   4.318
24142W        W96468  17.263  17.158   1.276
24143W        W96469  28.145  13.797  12.424
24144W        W96470  29.058  40.469  12.513
24145W        W96471  26.063  27.633  11.925
24146W        W96472  10.272   2.360   0.293
24147W        W96473  43.895   6.350  14.959
24148W        W96474  39.881   3.261   5.106
24149W        W96475  23.078   2.943  11.476
24150W        W96476   6.291  34.499   1.917
24151W        W96477  24.091  32.006  13.002
24152W        W96478  40.494  26.117   2.354
24153W        W96479  37.986  12.220  14.848
24154W        W96480  25.538  10.669  14.988
24155W        W96481  26.581  14.660  14.387
24156W        W96482  26.000  39.961  14.473
24157W        W96483   9.175  26.070   1.345
24158W        W96484   2.396  33.050   4.262
24159W        W96485  11.261   9.717  11.463
24160W        W96486  39.949  33.458   0.248
24161W        W96487   8.778  31.913   0.408
24162W        W96488  12.807   5.912  12.578
24163W        W96489  41.392  36.551  14.441
24164W        W96490  43.866   4.798  13.493
24165W        W96491   4.417  38.846  13.414
24166W        W96492  16.178  25.499   4.322
24167W        W96493  15.662  30.922   2.302
24168W        W96494   6.834  32.503  14.849
24169W        W96495   1.458  19.083   0.261
24170W        W96496  25.533  38.351  13.996
24171W        W96497  26.498  10.146  12.983
24172W        W96498  11.717  24.034   3.786
24173W        W96499   8.248  42.325  14.354
24174W        W96500  21.033  12.632   3.327
24175W        W96501  24.501   7.821  14.792
24176W        W96502  41.898   0.399   0.841
24177W        W96503  10.741  44.871  10.580
24178W        W96504  36.509   8.797  10.482
24179W        W96505  18.785   6.384   4.803
24180W        W96506  26.070  24.521   1.312
24181W        W96507  36.899  31.616   4.670
24182W        W96508  10.344   8.737  13.424
24183W        W96509  39.844  30.565  10.516
24184W        W96510  21.144  39.345   4.124
24185W        W96511  29.989   9.765   1.862
24186W        W96512   7.396  34.438  11.406
24187W        W96513  22.738  13.807  11.922
24188W        W96514  29.620  29.924  13.045
24189W        W96515  24.498   6.253  12.091
24190W        W96516   9.876  26.968   3.751
24191W        W96517  17.265   6.369  10.578
24192W        W96518  24.054  31.108   0.801
24193W        W96519  32.060   2.845   0.290
24194W        W96520  40.335  43.482  14.411
24195W        W96521  14.661  20.625  12.875
24196W        W96522   1.277  25.980   1.263
24197W        W96523  30.455  23.522  13.027
24198W        W96524  44.360   6.894   0.380
24199W        W96525   7.397  42.367   0.755
24200W        W96526  41.465   6.347   3.302
24201W        W96527  35.967  22.680  10.572
24202W        W96528  14.173  25.977   5.309
24203W        W96529  31.582   7.873  12.475
24204W        W96530  22.598   5.690  12.977
24205W        W96531   4.765  25.126   0.958
24206W        W96532  13.770  29.525   3.175
24207W        W96533   4.749  37.891  10.504
24208W        W96534  28.942  15.808   1.319
24209W        W96535  32.090  36.090  14.848
24210W        W96536  34.379  23.694   0.446
24211W        W96537  23.717   7.328  10.634
24212W        W96538   9.386  35.467  12.092
24213W        W96539  39.949  17.145  11.488
24214W        W96540  21.596  41.814  14.021
24215W        W96541  39.522  12.801   1.413
24216W        W96542  18.288  22.131   4.297
24217W        W96543   1.295   7.267   2.402
24218W        W96544  13.705   3.868   4.753
24219W        W96545  36.900  12.219   0.823
24220W        W96546  44.793   1.891  14.404
24221W        W96547   2.933  15.218  12.833
24222W        W96548  22.187  44.432   2.700
24223W        W96549   1.270  41.002  11.866
24224W        W96550  34.865  39.513  10.407
24225W        W96551   1.274  29.078  13.315
24226W        W96552  36.433   3.256   3.315
24227W        W96553   0.862  22.552  10.908
24228W        W96554  15.714  33.934   3.715
24229W        W96555   4.424  14.792  12.944
24230W        W96556  15.704  31.512  11.445
24231W        W96557  33.999  42.777   0.812
24232W        W96558  33.013  43.983   2.322
24233W        W96559  40.870  19.556   2.202
24234W        W96560  26.964   4.741  13.363
24235W        W96561   3.390  34.564  12.441
24236W        W96562   0.799   9.818  13.023
24237W        W96563  17.660  36.442   3.680
24238W        W96564  33.615  27.947  12.852
24239W        W96565  17.070  33.557  13.924
24240W        W96566  15.263  30.613   0.338
24241W        W96567  32.609  15.785  12.868
24242W        W96568  20.186  31.927  11.996
24243W        W96569  15.156  12.230  13.448
24244W        W96570  43.846  43.793  12.052
24245W        W96571  16.769  10.242   4.320
24246W        W96572  33.593  17.213   1.301
24247W        W96573  23.560  44.450   4.709
24248W        W96574  15.254  43.782  14.289
24249W        W96575  26.008   8.748   2.855
24250W        W96576  43.011  18.561   4.765
24251W        W96577   7.877  34.925   2.807
24252W        W96578  37.503  24.140  11.973
24253W        W96579  22.738  38.907  10.425
24254W        W96580  23.705  14.316   1.775
24255W        W96581  41.928  39.994  11.887
24256W        W96582  11.130  40.492  13.828
24257W        W96583  37.915   5.375   4.795
24258W        W96584  10.686  32.893  13.384
24259W        W96585  16.229  19.770  14.815
24260W        W96586  19.237  36.382  10.423
24261W        W96587  28.504  15.190  11.870
24262W        W96588  19.126  32.397  14.456
24263W        W96589   2.332   2.447   0.940
24264W        W96590  16.278  28.610   4.748
24265W        W96591  29.006  35.549   3.738
24266W        W96592  43.475   7.767   2.247
24267W        W96593  19.160  11.767  13.945
24268W        W96594  29.935  44.909  12.490
24269W        W96595   7.289  18.151   2.272
24270W        W96596  12.170  24.591   0.897
24271W        W96597  33.554  28.930  13.858
24272W        W96598  23.108  42.371   2.305
24273W        W96599   6.284   8.782  11.127
24274W        W96600  18.064  15.654   2.340
24275W        W96601  37.425   0.341  10.606
24276W        W96602  33.437  33.404  13.854
24277W        W96603   1.864  19.263  13.535
24278W        W96604   2.331  32.042   4.621
24279W        W96605  26.471   7.324   4.755
24280W        W96606   7.747  13.266  13.007
24281W        W96607   2.874  10.204  11.999
24282W        W96608  12.352  37.493  10.928
24283W        W96609  11.661  10.864  10.091
24284W        W96610  26.082  22.510   0.751
24285W        W96611  31.456  43.432  13.894
24286W        W96612  43.852  16.092  12.012
24287W        W96613  28.003  25.035  11.076
24288W        W96614  10.139  43.286  12.376
24289W        W96615  36.009  10.836   4.157
24290W        W96616   1.389  20.558   3.198
24291W        W96617  44.317   5.391  10.588
24292W        W96618  25.971  19.765   3.667
24293W        W96619  22.709   3.254  11.103
24294W        W96620  36.433  44.485   3.245
24295W        W96621  19.282  25.599  14.335
24296W        W96622   0.329  12.331   4.245
24297W        W96623  19.600  11.705   3.691
24298W        W96624   9.695  27.080   0.400
24299W        W96625  11.658  33.985   4.757
24300W        W96626  32.562  13.755  13.399
24301W        W96627   4.728  17.112  12.071
24302W        W96628  27.607  40.469  13.510
24303W        W96629  22.208   1.930   2.313
24304W        W96630  24.214  22.520  12.500
24305W        W96631  12.123  41.801   1.309
24306W        W96632  16.651  18.155   4.190
24307W        W96633   2.873   9.315  14.808
24308W        W96634  20.553  41.391  14.909
24309W        W96635  15.173  18.139   2.792
24310W        W96636  23.066  41.312   0.395
24311W        W96637  26.566  10.737  12.866
24312W        W96638  13.257  24.606   4.612
24313W        W96639   3.954   5.820  13.007
24314W        W96640  15.170  20.730   0.729
24315W        W96641  15.234  11.788   4.234
24316W        W96642   5.270  28.125   0.317
24317W        W96643  13.669  29.969  12.424
24318W        W96644  20.719   2.406   3.654
24319W        W96645   8.853   9.796  13.979
24320W        W96646  37.862  21.060  12.056
24321W        W96647  10.785  16.179   3.692
24322W        W96648  38.441  20.768  12.982
24323W        W96649  17.094  30.922  13.444
24324W        W96650   8.222  36.099  12.433
24325W        W96651  17.174  19.632  11.473
24326W        W96652  32.915  19.213   0.483
24327W        W96653  27.071  25.039  11.437
24328W        W96654  27.650  16.166  13.472
24329W        W96655  34.373  33.462  12.566
24330W        W96656  33.450  19.255  11.554
24331W        W96657  12.362  41.890  10.551
24332W        W96658   5.220  37.840  12.402
24333W        W96659  32.579  13.114   1.787
24334W        W96660  27.601  22.577  10.494
24335W        W96661   1.269  26.633   0.256
24336W        W96662  43.493   0.369   3.346
24337W        W96663  19.078  14.619   3.316
24338W        W96664  36.991  29.610  12.998
24339W        W96665   2.446   1.466  11.068
24340W        W96666  29.661   0.310   1.710
24341W        W96667  19.117  10.251   1.779
24342W        W96668   7.730  36.381   2.318
24343W        W96669   8.834  11.127   4.127
24344W        W96670  38.334  19.151   3.644
24345W        W96671  38.020  44.282   1.397
24346W        W96672  15.291  43.959   1.929
24347W        W96673  32.133  19.084  14.333
24348W        W96674  10.820  26.018  12.826
24349W        W96675  35.088  31.045  14.988
24350W        W96676  16.679   3.917  10.976
24351W        W96677  33.388  31.049  11.106
24352W        W96678  37.058   6.903  11.560
24353W        W96679  28.466  20.181   2.237
24354W        W96680  31.080  40.343   3.694
24355W        W96681  40.954  33.575  11.899
24356W        W96682  22.141  22.658  12.002
24357W        W96683  10.763  16.752   3.174
24358W        W96684  16.257   9.673  14.030
24359W        W96685  28.954  20.636  10.478
24360W        W96686  30.060  29.477   0.732
24361W        W96687  31.632  28.155   4.715
24362W        W96688  25.103  18.052   0.368
24363W        W96689  31.900  23.565   4.798
24364W        W96690  23.033  41.911   4.736
24365W        W96691  18.267  12.297  11.868
24366W        W96692  15.192   5.365   4.312
24367W        W96693  11.198  23.709  11.486
24368W        W96694  11.316  16.153  14.917
24369W        W96695   1.834  18.685   5.233
24370W        W96696  12.297   9.831   1.756
24371W        W96697  10.284  13.725  13.413
24372W        W96698  24.564  35.911  11.496
24373W        W96699  28.118  22.520   1.253
24374W        W96700  34.388  44.877   2.667
24375W        W96701  25.085  24.545  12.397
24376W        W96702  23.722   2.750  10.468
24377W        W96703   2.339  40.519   4.197
24378W        W96704  16.228  43.854  13.863
24379W        W96705  30.041  17.108  14.477
24380W        W96706  16.696  39.955  14.955
24381W        W96707  12.200  13.161   4.238
24382W        W96708  21.524  39.890  11.586
24383W        W96709  28.140  26.987  13.391
24384W        W96710  23.563  26.665   4.669
24385W        W96711  30.970  44.443  13.498
24386W        W96712  27.594  17.662  12.861
24387W        W96713  29.988  38.420   0.267
24388W        W96714  33.068  14.816   3.683
24389W        W96715  33.618   1.457   4.716
24390W        W96716  33.584  18.682  14.006
24391W        W96717  14.193  35.546   0.412
24392W        W96718  21.071  42.873   1.234
24393W        W96719  33.080  33.098   0.908
24394W        W96720  30.617  20.691   0.396
24395W        W96721  24.014  22.038  12.511
24396W        W96722   6.190  22.210  11.079
24397W        W96723  33.400   1.851  12.906
24398W        W96724  28.941  13.618  11.564
24399W        W96725  21.537  15.793  11.575
24400W        W96726   1.772  11.150   5.306
24401W        W96727  13.341   2.883  14.774
24402W        W96728  28.470  39.343   0.881
24403W        W96729  36.450  18.248   4.721
24404W        W96730  29.081  18.746   0.855
24405W        W96731   7.393  22.650   4.652
24406W        W96732  34.879  40.917   3.640
24407W        W96733  36.991  19.674  10.942
24408W        W96734  38.935  35.423  13.879
24409W        W96735  17.073   4.772   3.185
24410W        W96736  25.529  20.132   1.891
24411W        W96737  35.595   3.932  10.513
24412W        W96738   9.673   9.858   2.797
24413W        W96739  38.566  35.442  14.293
24414W        W96740  18.633  18.546   1.760
24415W        W96741  13.301  12.687   0.354
24416W        W96742  15.794  27.079  14.453
24417W        W96743  17.277  33.881  10.411
24418W        W96744   3.415  37.507   1.394
24419W        W96745  19.572   1.439   1.841
24420W        W96746   8.831   4.880   5.102
24421W        W96747  18.718  29.585   4.816
24422W        W96748  22.736  28.674  10.632
24423W        W96749   5.896  15.230   0.828
24424W        W96750  22.612  16.304  14.427
24425W        W96751  43.778  34.004  11.921
24426W        W96752  41.899   9.839   3.173
24427W        W96753  27.141  26.165  12.469
24428W        W96754  39.982  22.508  12.994
24429W        W96755  31.912   5.391   0.797
24430W        W96756  41.518   7.718  12.432
24431W        W96757  26.672  21.587   3.636
24432W        W96758  32.024  27.527  13.529
24433W        W96759   1.911  33.489   2.890
24434W        W96760   9.708  27.524   2.894
24435W        W96761  27.537  39.886   0.925
24436W        W96762   1.309  43.904   0.751
24437W        W96763  19.096  16.131  12.864
24438W        W96764  38.490   3.311   4.148
24439W        W96765  39.015  19.581   2.784
24440W        W96766  40.971  15.582   0.900
24441W        W96767  27.645  37.836   2.309
24442W        W96768  38.414  13.218  14.446
24443W        W96769  22.565  14.195  14.371
24444W        W96770  26.692  28.489  10.592
24445W        W96771   7.844  35.868   0.895
24446W        W96772  40.862  32.006  11.104
24447W        W96773  14.757  39.850   1.859
24448W        W96774   4.784  24.674   0.887
24449W        W96775  36.902  12.613   0.479
24450W        W96776  12.224  25.217  14.874
24451W        W96777  41.838  36.452  11.506
24452W        W96778   1.313  15.654   4.249
24453W        W96779  29.623  32.423  13.037
24454W        W96780  38.393   2.812   2.832
24455W        W96781  29.475  24.526  12.924
24456W        W96782  25.508   2.879   3.206
24457W        W96783  43.370  35.958  11.004
24458W        W96784  31.487  36.419  14.335
24459W        W96785  19.607  44.390  14.482
24460W        W96786   5.384  27.107   0.921
24461W        W96787  22.223  35.966   2.735
24462W        W96788  32.560   5.219  10.941
24463W        W96789  31.083  35.889  10.124
24464W        W96790  41.459  39.043  12.087
24465W        W96791  32.506  22.698   0.779
24466W        W96792  35.377  29.055   1.707
24467W        W96793  22.692   1.809  13.810
24468W        W96794  27.496  26.021   9.526
24469W        W96795  17.227  26.519  13.930
24470W        W96796  41.978  28.650   3.277
24471W        W96797  21.243  11.706  11.868
24472W        W96798  29.526  36.903   1.394
24473W        W96799  29.592  20.114   1.880
24474W        W96800  34.969   4.234   1.352
24475W        W96801   6.867  18.736   4.652
24476W        W96802  44.488   6.235  11.396
24477W        W96803   0.352  27.031  11.522
24478W        W96804   3.801  30.935  10.961
24479W        W96805   5.353  34.604  10.559
24480W        W96806   7.180  28.015  12.829
24481W        W96807  40.400  22.058  11.932
24482W        W96808  26.996  22.732   0.814
24483W        W96809  22.740   4.739  13.536
24484W        W96810  18.123  21.023   3.635
24485W        W96811  10.806  27.972   3.187
24486W        W96812  37.837  11.820   1.439
24487W        W96813   2.345  24.633  12.026
24488W        W96814  43.304  31.550  11.461
24489W        W96815  35.984  21.575   0.887
24490W        W96816  13.109   6.314   2.792
24491W        W96817  39.485  38.570   0.783
24492W        W96818   5.915  22.681   4.727
24493W        W96819  19.133  28.131   4.661
24494W        W96820  21.554  12.852   2.332
24495W        W96821  44.005  37.034   2.893
24496W        W96822  17.266  29.079   2.331
24497W        W96823  31.523  13.778   2.264
24498W        W96824   1.836  35.554   1.831
24499W        W96825   5.220  13.620  12.829
24500W        W96826  12.750  42.378   2.419
24501W        W96827  38.957  15.670   3.199
24502W        W96828   3.733  37.434   2.833
24503W        W96829  37.466  11.736  12.558
24504W        W96830  28.620  22.169  13.509
24505W        W96831  21.030  20.162  13.432
24506W        W96832  23.186  11.798   0.889
24507W        W96833  19.734  15.711  11.395
24508W        W96834  25.180   3.268   2.222
24509W        W96835  35.934  30.631  14.499
24510W        W96836  18.194  34.987  13.348
24511W        W96837  43.271  13.692  14.006
24512W        W96838  17.063   9.208  11.968
24513W        W96839  36.582  13.719  13.029
24514W        W96840  10.684  42.323  12.008
24515W        W96841  37.355  22.246  11.474
24516W        W96842   3.793  12.747  11.428
24517W        W96843  33.481  32.398  14.418
24518W        W96844  20.220  38.030   4.813
24519W        W96845   7.207  13.140   2.726
24520W        W96846  42.431  21.257  10.464
24521W        W96847  44.811  23.989   1.369
24522W        W96848  26.573  34.027   4.290
24523W        W96849  27.978  10.244  14.868
24524W        W96850  19.179   8.891   3.809
24525W        W96851  33.062  23.709   4.738
24526W        W96852  16.638  27.964   2.409
24527W        W96853   4.843  38.440  11.859
24528W        W96854   4.883  22.090  12.975
24529W        W96855  12.751  18.551  10.566
24530W        W96856  18.230   3.917  10.557
24531W        W96857  30.523  30.418   0.419
24532W        W96858  40.830  12.760  14.389
24533W        W96859  40.347  35.100   0.384
24534W        W96860  36.496  27.544  14.814
24535W        W96861   6.830  25.001   4.728
24536W        W96862  30.643   6.851  11.453
24537W        W96863  39.423  32.612  10.484
24538W        W96864  24.978  22.101  10.627
24539W        W96865  38.853  10.218  12.550
24540W        W96866  14.158  14.311  14.448
24541W        W96867  14.281  21.754  13.310
24542W        W96868  18.271  29.161   1.226
24543W        W96869   7.289  11.334   4.182
24544W        W96870  28.079  23.123   0.449
24545W        W96871  32.141  43.433  11.473
24546W        W96872  35.854  28.960   4.752
24547W        W96873  35.926  21.093   1.893
24548W        W96874  30.455  22.076  12.556
24549W        W96875  38.980  33.132  14.353
24550W        W96876  24.159  42.431  14.407
24551W        W96877  39.381  27.632   1.432
24552W        W96878   4.853  16.614   1.323
24553W        W96879  35.050  33.953   0.264
24554W        W96880  25.653  37.001   0.792
24555W        W96881   1.367   0.292   4.682
24556W        W96882  31.460  30.968   0.750
24557W        W96883   3.324  11.691  14.401
24558W        W96884  20.172   0.348   3.286
24559W        W96885  26.625  25.613  13.516
24560W        W96886   9.322  26.539   3.216
24561W        W96887  13.825  18.204  12.420
24562W        W96888  32.466  16.708   4.274
24563W        W96889  36.483   8.816  12.840
24564W        W96890   3.242  29.486  14.386
24565W        W96891  21.733  30.138   4.828
24566W        W96892   5.730  10.190  10.490
24567W        W96893  11.296  30.090   2.693
24568W        W96894   1.312  15.168   1.237
24569W        W96895  41.416  16.152   3.268
24570W        W96896  31.552  22.228   3.229
24571W        W96897  16.727   1.854  14.880
24572W        W96898  29.567  19.533  14.439
24573W        W96899  12.289  34.067  10.447
24574W        W96900   6.805  15.088   2.367
24575W        W96901   2.966  17.108   0.754
24576W        W96902  17.784  26.516  10.071
24577W        W96903  22.651   9.813  12.861
24578W        W96904  24.135   1.754   0.422
24579W        W96905   0.899  25.977  12.063
24580W        W96906  28.555   1.797   2.280
24581W        W96907  17.146  13.282  10.027
24582W        W96908  33.525  39.833   4.286
24583W        W96909  23.027  13.171   1.898
24584W        W96910  31.926  41.962  11.932
24585W        W96911  27.134  10.867  10.533
24586W        W96912  18.572  22.096  14.465
24587W        W96913  42.478   1.238  11.580
24588W        W96914  24.135  23.673  14.355
24589W        W96915   8.185   6.841  11.972
24590W        W96916   1.455  21.178  11.076
24591W        W96917  44.260  34.066   0.260
24592W        W96918  19.141  43.405  11.950
24593W        W96919   2.378   3.812  11.378
24594W        W96920   1.908   7.384  12.933
24595W        W96921  18.100  13.839   1.912
24596W        W96922  26.177  22.031  11.888
24597W        W96923   2.810  14.250  12.011
24598W        W96924  42.381  42.869   1.361
24599W        W96925  34.071  17.244   0.909
24600W        W96926  37.952  43.309  10.407
24601W        W96927  18.780  18.782   3.826
24602W        W96928  10.364  27.532   1.751
24603W        W96929  40.987  17.238   3.228
24604W        W96930  42.321   0.355   0.885
24605W        W96931  41.996  10.639   4.662
24606W        W96932   0.985  25.594   0.419
24607W        W96933  42.855  24.143   0.778
24608W        W96934  39.486   0.973  13.392
24609W        W96935  27.115   7.744   1.721
24610W        W96936   6.760  11.646   0.302
24611W        W96937  37.843  30.491   3.253
24612W        W96938  21.059   9.204   3.299
24613W        W96939  21.017  24.558   0.403
24614W        W96940  25.183  37.457  12.358
24615W        W96941  24.110   4.235  12.848
24616W        W96942  39.535  22.617  11.384
24617W        W96943  10.686  28.523   2.351
24618W        W96944  36.048   8.655  11.603
24619W        W96945  14.779  32.560   1.250
24620W        W96946  39.025  24.651   1.326
24621W        W96947   5.389   8.164  14.282
24622W        W96948  22.654  12.287   0.751
24623W        W96949  41.909  16.098   4.813
24624W        W96950  17.212  42.962  11.532
24625W        W96951  29.433  36.021  10.436
24626W        W96952   1.872  40.039   2.843
24627W        W96953   1.797  25.559  13.032
24628W        W96954  44.866  33.462   3.210
24629W        W96955  15.587  13.318  14.854
24630W        W96956  37.986  42.343  14.428
24631W        W96957   4.388  22.606  13.015
24632W        W96958   8.238  34.523   2.774
24633W        W96959  21.223   4.427   1.446
24634W        W96960  10.307  17.664   2.415
24635W        W96961  30.454  31.995  13.354
24636W        W96962  25.182  41.964  11.601
24637W        W96963  41.347  13.741  13.046
24638W        W96964  15.772  33.955   0.948
24639W        W96965  33.500  35.054  11.887
24640W        W96966  31.491  14.622  11.435
24641W        W96967  27.637  26.115   4.252
24642W        W96968  39.378   8.263   3.725
24643W        W96969  26.616  28.094  14.909
24644W        W96970   5.903  15.254  12.477
24645W        W96971   2.788  17.556   4.219
24646W        W96972  19.594  16.585   3.367
24647W        W96973   2.345  33.914  14.834
24648W        W96974  24.514   5.745   1.338
24649W        W96975  42.360  42.906  11.426
24650W        W96976   6.693  33.506   2.361
24651W        W96977  25.101  43.385  12.369
24652W        W96978  40.925  31.960  11.589
24653W        W96979  18.546  34.555  10.897
24654W        W96980  13.747  16.197   2.223
24655W        W96981  21.705  20.096   2.368
24656W        W96982  26.600  17.271   2.797
24657W        W96983  43.364   5.802   0.416
24658W        W96984  32.632  17.222  14.381
24659W        W96985  18.224  43.785  11.035
24660W        W96986  43.843  29.924   3.862
24661W        W96987   5.728  14.098  12.422
24662W        W96988  23.610   9.723   2.893
24663W        W96989  15.791  17.565  13.407
24664W        W96990  31.527  35.092   2.757
24665W        W96991  16.284  38.071   2.307
24666W        W96992   2.740  23.106   5.276
24667W        W96993  12.790  44.876  12.942
24668W        W96994  14.112  41.384   2.853
24669W        W96995   9.362  40.046   4.645
24670W        W96996  23.010  44.383  14.948
24671W        W96997   9.757  29.479  12.057
24672W        W96998   4.739  19.271   2.419
24673W        W96999  44.776   5.886  14.953
24674W        W97000  24.224  12.838  11.495
24675W        W97001   7.744  23.569  13.990
24676W        W97002   3.760  39.846  13.480
24677W        W97003   2.855  16.634  11.125
24678W        W97004  41.817  37.044   2.401
24679W        W97005  14.193  39.884  13.852
24680W        W97006  14.738  11.791  12.343
24681W        W97007  40.523   7.747  14.960
24682W        W97008  42.495   3.892  12.004
24683W        W97009   6.183  41.836  14.326
24684W        W97010  26.637  40.460   1.849
24685W        W97011  17.572  14.792  11.537
24686W        W97012  17.800  10.330  10.514
24687W        W97013  35.488  31.948   1.291
24688W        W97014  11.766  25.585  12.934
24689W        W97015  40.317  24.717  12.412
24690W        W97016  31.005   3.790  14.289
24691W        W97017   7.765   1.764   0.775
24692W        W97018  32.613   7.821   4.766
24693W        W97019  28.957  20.652   0.831
24694W        W97020  26.127  14.294   4.133
24695W        W97021  25.015  40.975  12.028
24696W        W97022  37.860  33.599   2.716
24697W        W97023  32.093  40.024   1.805
24698W        W97024  13.351  42.838   1.777
24699W        W97025  33.957  14.311   1.350
24700W        W97026  37.079  10.672  12.439
24701W        W97027  26.964  42.358   3.274
24702W        W97028  14.830  26.506  11.523
24703W        W97029  37.571  36.866  14.436
24704W        W97030  28.020  27.640   0.917
24705W        W97031  29.566  29.996  12.471
24706W        W97032   4.406  22.617   9.494
24707W        W97033  28.540  43.961  11.080
24708W        W97034  32.120  19.608  11.381
24709W        W97035  30.632   8.853  11.474
24710W        W97036  16.761  20.747   3.379
24711W        W97037  14.687  40.443   1.839
24712W        W97038   9.658  19.646  14.439
24713W        W97039  14.148  42.411   2.733
24714W        W97040  12.285  29.522   4.699
24715W        W97041   3.260  39.447   1.289
24716W        W97042  16.580   5.906   3.841
24717W        W97043  13.111  23.092  14.470
24718W        W97044  35.372   6.677  14.440
24719W        W97045  37.386  38.406   0.914
24720W        W97046  16.238  11.676   2.732
24721W        W97047  40.800   0.267   3.278
24722W        W97048  38.445  24.110   3.228
24723W        W97049  30.131  22.740  10.404
24724W        W97050  21.239  42.392  11.087
24725W        W97051  24.593  20.620   2.280
24726W        W97052  44.791  41.344   0.758
24727W        W97053  42.295   2.963  13.928
24728W        W97054  34.610  32.635   0.321
24729W        W97055  17.785   3.827  11.448
24730W        W97056  26.205  34.534  11.496
24731W        W97057  12.698  41.345   0.898
24732W        W97058   4.213  19.663  10.905
24733W        W97059  28.510  30.507   0.726
24734W        W97060  25.713  10.168   0.917
24735W        W97061  44.432  15.144  10.600
24736W        W97062   2.335  37.896  10.953
24737W        W97063  28.127  31.443   0.343
24738W        W97064  35.594  15.803  11.919
24739W        W97065   3.747  34.957   1.805
24740W        W97066   9.761  41.403   4.673
24741W        W97067  23.998  42.941  12.347
24742W        W97068  24.661   6.310   0.947
24743W        W97069   8.841   1.241  10.530
24744W        W97070  17.726  37.561  10.978
24745W        W97071  17.595  41.893   2.410
24746W        W97072  40.906  10.383   4.271
24747W        W97073  30.031   2.374  10.516
24748W        W97074  20.562  28.143   4.746
24749W        W97075  38.435  20.699  14.782
24750W        W97076  38.931  24.212  11.103
24751W        W97077  11.280  24.203   0.454
24752W        W97078  43.776   5.219  11.378
24753W        W97079  25.657   7.352   1.866
24754W        W97080  39.385  31.571  11.981
24755W        W97081  17.648  18.057   2.180
24756W        W97082  15.159  27.026   2.741
24757W        W97083   1.884  14.762   2.223
24758W        W97084  33.405  29.505   3.205
24759W        W97085  31.956  34.394  13.444
24760W        W97086  34.462   0.454   4.276
24761W        W97087   7.836  30.551   0.283
24762W        W97088  18.708  12.235  10.972
24763W        W97089  23.221  39.446  13.537
24764W        W97090  10.650  34.877  11.045
24765W        W97091  40.480   2.739   2.849
24766W        W97092   6.843  27.150  14.291
24767W        W97093   0.749  30.483   1.835
24768W        W97094  34.114  32.140  11.561
24769W        W97095  11.678   9.881  14.505
24770W        W97096  29.601  27.682  11.896
24771W        W97097  21.541  35.551  11.123
24772W        W97098   5.349   8.658   0.825
24773W        W97099  33.436  34.067  10.891
24774W        W97100  12.726  40.480   0.434
24775W        W97101  16.675  19.102   2.799
24776W        W97102  32.122   8.191   3.817
24777W        W97103   1.772  17.762  13.332
24778W        W97104  19.270  27.552   4.756
24779W        W97105  33.999  18.263  14.872
24780W        W97106  41.808  12.159   1.372
24781W        W97107  19.221  27.609   4.311
24782W        W97108  31.040  21.569  12.937
24783W        W97109   3.908  25.106   1.293
24784W        W97110  31.075  18.055   2.680
24785W        W97111   7.858  18.063   0.855
24786W        W97112  41.911  36.360  13.934
24787W        W97113   8.857  28.553  10.441
24788W        W97114  23.082  15.119   2.280
24789W        W97115   2.866   4.273   3.236
24790W        W97116  36.379  30.623   5.116
24791W        W97117  24.702  24.714  10.932
24792W        W97118  34.445  16.073  11.410
24793W        W97119   4.722  12.750   4.703
24794W        W97120   6.762  32.090   2.827
24795W        W97121  18.654  28.539  13.370
24796W        W97122   8.177  11.690   2.689
24797W        W97123  10.173  40.055   1.327
24798W        W97124  25.620  44.490  13.906
24799W        W97125  10.242  16.220  12.940
24800W        W97126  23.163  34.535  12.910
24801W        W97127  11.364   7.371   4.804
24802W        W97128  34.999  27.663   4.270
24803W        W97129  34.501  15.149  12.984
24804W        W97130  15.712  39.941   0.729
24805W        W97131   6.214   8.696  14.305
24806W        W97132  36.944   3.285   1.368
24807W        W97133  15.298   4.358   2.408
24808W        W97134  13.781  11.831   1.332
24809W        W97135  12.198  41.827   4.699
24810W        W97136   8.297  14.600   2.406
24811W        W97137  34.081  21.234   0.334
24812W        W97138   6.409  16.222  12.031
24813W        W97139  30.050   4.304   0.890
24814W        W97140  44.886   4.804   2.727
24815W        W97141  41.395   1.432  11.579
24816W        W97142  32.434  34.978  13.010
24817W        W97143  29.532   0.834   0.925
24818W        W97144   2.298  27.121  14.422
24819W        W97145  40.033  17.690  13.520
24820W        W97146  30.079  43.851  14.321
24821W        W97147   1.970  32.560   3.346
24822W        W97148  34.941  13.139   5.256
24823W        W97149   6.242  12.231   1.905
24824W        W97150  16.770  42.500   1.234
24825W        W97151  10.835  13.710  13.843
24826W        W97152   7.397  10.666  14.885
24827W        W97153   1.293  29.468  12.073
24828W        W97154   4.698   4.888   5.218
24829W        W97155  44.292   3.387   1.800
24830W        W97156  25.218  18.786  13.426
24831W        W97157  16.103  36.897  12.545
24832W        W97158   1.944  41.815  12.065
24833W        W97159  41.892  28.619  11.128
24834W        W97160  33.104   9.337   1.714
24835W        W97161  16.716  19.165   1.260
24836W        W97162  40.486  11.293   3.845
24837W        W97163   5.775  30.418   2.326
24838W        W97164   1.798  23.709  14.297
24839W        W97165  11.362  19.695  12.571
24840W        W97166  38.057   5.932   2.323
24841W        W97167  16.645  12.751   1.251
24842W        W97168  26.488  42.453  11.565
24843W        W97169  25.041   4.708  11.448
24844W        W97170  36.583  37.845   0.733
24845W        W97171  33.976  36.362   2.764
24846W        W97172   8.222   9.853  13.343
24847W        W97173  32.453  36.852   2.318
24848W        W97174  27.574  13.235  10.498
24849W        W97175   0.386  26.539   4.146
24850W        W97176   9.160  24.106   2.816
24851W        W97177  15.725  32.088   2.322
24852W        W97178  43.893  29.014   3.177
24853W        W97179   0.766  44.858  14.776
24854W        W97180  44.314  34.987   0.815
24855W        W97181  14.176  24.049  13.920
24856W        W97182   0.795  35.554  10.980
24857W        W97183   6.894  26.639   2.336
24858W        W97184  36.359  27.036   3.661
24859W        W97185  22.043  41.520  12.910
24860W        W97186  28.543  23.990   1.698
24861W        W97187  31.644  42.301   2.241
24862W        W97188  24.030  41.787   2.264
24863W        W97189  15.150   1.958  12.010
24864W        W97190   2.246   2.936   1.430
24865W        W97191  28.555  23.532   4.264
24866W        W97192   9.807   2.781  13.520
24867W        W97193  25.661  33.000   1.349
24868W        W97194   5.691  13.118  10.567
24869W        W97195  11.657  29.057  13.485
24870W        W97196  11.843  32.630  13.320
24871W        W97197   1.458  11.373   3.805
24872W        W97198   2.923  41.314   0.345
24873W        W97199  42.978  36.392  13.965
24874W        W97200  14.253  11.643  12.444
24875W        W97201  23.601  19.274  14.005
24876W        W97202  29.993   0.842   3.829
24877W        W97203  19.721  35.010   0.378
24878W        W97204  31.105   4.829  14.787
24879W        W97205  29.644  13.619   2.883
24880W        W97206  24.563  38.537  13.051
24881W        W97207  35.009  21.516   3.360
24882W        W97208  19.766   6.770   4.620
24883W        W97209  36.095  32.508  12.853
24884W        W97210   6.260  38.050   2.324
24885W        W97211  36.436  44.770  13.419
24886W        W97212  31.609   4.438   1.369
24887W        W97213   7.809  17.754  12.044
24888W        W97214  30.938   0.895  12.974
24889W        W97215  39.854  14.331   0.425
24890W        W97216  37.362   5.882   1.421
24891W        W97217  28.138   9.183   4.689
24892W        W97218  26.618  28.632   0.474
24893W        W97219   1.258  32.013   0.433
24894W        W97220  41.006  38.061  13.020
24895W        W97221  37.033   0.838   4.624
24896W        W97222   0.824  32.950  13.324
24897W        W97223  29.657  30.502   1.881
24898W        W97224  18.152  14.251  11.411
24899W        W97225   4.321  34.402  10.603
24900W        W97226  25.970  28.972   4.302
24901W        W97227  37.073   7.273   2.744
24902W        W97228  22.079  25.068  13.830
24903W        W97229  13.130  37.933  14.908
24904W        W97230   9.313   4.447   1.306
24905W        W97231   8.736  35.107   2.390
24906W        W97232  44.857  30.657   1.345
24907W        W97233   0.868  35.031  10.548
24908W        W97234  38.853  39.360  12.839
24909W        W97235  16.276  31.029  12.542
24910W        W97236   8.287  20.211   3.348
24911W        W97237  15.751  22.039  13.523
24912W        W97238  32.005  24.142   5.180
24913W        W97239  16.177   6.700   0.938
24914W        W97240  26.175  30.572  14.395
24915W        W97241  26.122  41.388   1.860
24916W        W97242   1.903  32.911  11.978
24917W        W97243  30.018  33.060  11.023
24918W        W97244   4.809  32.979  12.988
24919W        W97245   5.921   7.696  14.804
24920W        W97246  39.947   0.412  14.513
24921W        W97247  37.432  22.568  12.402
24922W        W97248  15.726  14.620  13.049
24923W        W97249  26.543   7.912   2.706
24924W        W97250   7.197  27.545   2.226
24925W        W97251   0.853  43.951   1.374
24926W        W97252   0.311  37.964   2.868
24927W        W97253  23.527  15.297  13.993
24928W        W97254  30.144   5.219  12.946
24929W        W97255  33.549  30.143  12.486
24930W        W97256  27.010  31.991   4.744
24931W        W97257  41.447  23.999   2.339
24932W        W97258  19.733  31.480  12.429
24933W        W97259   1.329  21.598   1.890
24934W        W97260  39.033  21.536  12.065
24935W        W97261  10.246  17.110  13.896
24936W        W97262  25.982  29.474  11.940
24937W        W97263  31.905   5.243   2.847
24938W        W97264  42.281   0.768   1.742
24939W        W97265  42.016  39.934  13.479
24940W        W97266  32.954   3.263   1.790
24941W        W97267  30.418  11.283  12.875
24942W        W97268  13.269  32.104  12.084
24943W        W97269   6.196  26.988   4.229
24944W        W97270  44.384  17.767  13.867
24945W        W97271  32.956   6.297   1.749
24946W        W97272  19.197  19.157  12.984
24947W        W97273  28.479  18.708   1.723
24948W        W97274  25.602  24.579  11.390
24949W        W97275   8.348   0.898   1.820
24950W        W97276   8.205  13.685   1.836
24951W        W97277  21.732   5.876  14.492
24952W        W97278   6.393  29.633   3.286
24953W        W97279   4.710  26.673  11.581
24954W        W97280  11.128  39.439   4.723
24955W        W97281  30.523   7.738  11.935
24956W        W97282  28.997   3.865   3.643
24957W        W97283  24.019  17.710   1.449
24958W        W97284  39.971  39.935   3.335
24959W        W97285  38.421   8.836   0.951
24960W        W97286   3.250   8.194   2.782
24961W        W97287   3.749   4.928   2.714
24962W        W97288  38.033  17.685   4.728
24963W        W97289   0.848  35.961   4.788
24964W        W97290  43.906  33.897   2.666
24965W        W97291  44.000  34.916  10.509
24966W        W97292   5.360   2.468  10.560
24967W        W97293  40.459   2.316   0.304
24968W        W97294  30.147  40.838   2.807
24969W        W97295   5.860  40.025  13.348
24970W        W97296  21.033  19.214  12.434
24971W        W97297  15.286   3.941  10.498
24972W        W97298   4.877  33.414  14.974
24973W        W97299  16.261   7.736  13.935
24974W        W97300  20.069  15.136   2.377
24975W        W97301  15.187  37.014   3.154
24976W        W97302   9.249  13.153  10.589
24977W        W97303  24.124  31.427  10.496
24978W        W97304   3.839  32.927  14.845
24979W        W97305  38.926  16.125   1.366
24980W        W97306  36.896  41.964  11.884
24981W        W97307  43.454  13.841  12.396
24982W        W97308   8.257  19.227   3.647
24983W        W97309  22.704  39.922   4.309
24984W        W97310  16.804   8.696   1.276
24985W        W97311   8.712   7.761  14.500
24986W        W97312   9.221  19.691   3.162
24987W        W97313  33.081  33.877   2.760
24988W        W97314   7.860  24.719  14.889
24989W        W97315  11.732  18.072   4.619
24990W        W97316  17.746  11.275  14.936
24991W        W97317  44.796  34.996  11.909
24992W        W97318  30.057   4.206   1.753
24993W        W97319  12.165   7.670   2.221
24994W        W97320   3.756  37.884   4.695
24995W        W97321  36.571  40.525  10.614
24996W        W97322  12.627  14.739   3.687
24997W        W97323  44.954   1.968   1.830
24998W        W97324   0.482  29.436   0.900
24999W        W97325  18.713  23.095   0.305
25000W        W97326  32.591   3.908   2.824
25001W        W97327  30.616   3.860   1.924
25002W        W97328  13.780  44.917  14.935
25003W        W97329  10.151  24.130   4.633
25004W        W97330  11.712   8.840  11.591
25005W        W97331  17.268  17.752  10.996
25006W        W97332  27.628  28.028   2.683
25007W        W97333  32.525  28.152   4.140
25008W        W97334  10.347  15.118   4.116
25009W        W97335  19.182  39.060  14.959
25010W        W97336  26.168  42.326  13.338
25011W        W97337  33.024  15.659   1.907
25012W        W97338  35.007  44.955   0.363
25013W        W97339  44.992  18.199  11.917
25014W        W97340  44.955   3.842  10.941
25015W        W97341   8.374   7.847  13.406
25016W        W97342  28.177   8.217  11.575
25017W        W97343   9.804  41.928   0.906
25018W        W97344  22.698   2.876  11.900
25019W        W97345  15.247  43.371   2.731
25020W        W97346  15.602  19.669   1.445
25021W        W97347  20.213  13.180   1.283
25022W        W97348  37.933  23.526   1.265
25023W        W97349   4.750  20.750  11.118
25024W        W97350  42.924  20.058  11.961
25025W        W97351  35.984  14.131   1.839
25026W        W97352   8.822  22.610   4.631
25027W        W97353  25.643   3.440   1.431
25028W        W97354  23.662  29.098  14.759
25029W        W97355  15.658  44.367   1.922
25030W        W97356  38.893   4.328  13.053
25031W        W97357  32.581  20.573   4.330
25032W        W97358  29.438  41.004   0.873
25033W        W97359  27.590  10.194   1.284
25034W        W97360  42.900  38.539  11.545
25035W        W97361  34.604  29.054   2.320
25036W        W97362   3.440  29.661   3.709
25037W        W97363  10.153   4.860  10.618
25038W        W97364   9.773  31.599   3.187
25039W        W97365  13.771  31.978  10.952
25040W        W97366  13.185  31.001   1.773
25041W        W97367  39.004  19.057   1.804
25042W        W97368  27.553   0.287  12.031
25043W        W97369  41.312  28.471  11.544
25044W        W97370   2.241   5.385   1.902
25045W        W97371  15.795  16.185   4.785
25046W        W97372  36.528  35.482   3.322
25047W        W97373  28.499   1.799  12.430
25048W        W97374  23.522  16.715   3.158
25049W        W97375  44.502  36.954  13.476
25050W        W97376  12.644  19.185  11.549
25051W        W97377   0.804  26.145  13.856
25052W        W97378  24.982  37.064  10.438
25053W        W97379  12.121  36.470  10.438
25054W        W97380   8.369   0.908   2.894
25055W        W97381  20.608  32.139  10.641
25056W        W97382   9.395  34.931  10.591
25057W        W97383  17.717  36.557  11.887
25058W        W97384  34.380  27.462  13.808
25059W        W97385   6.835  38.862   3.306
25060W        W97386  17.144  20.084   4.801
25061W        W97387  41.483  10.764   4.319
25062W        W97388  44.438  36.099  10.087
25063W        W97389  44.290  24.543  14.030
25064W        W97390  44.902  16.633  14.363
25065W        W97391  37.910  29.963  13.508
25066W        W97392  42.802  43.387  13.018
25067W        W97393   3.816   1.966  10.447
25068W        W97394  20.585  29.521  11.503
25069W        W97395   9.360  23.004  14.865
25070W        W97396  20.251  11.211  13.375
25071W        W97397  38.067  44.486   4.287
25072W        W97398  13.733   6.710  10.972
25073W        W97399   7.344  42.792  11.413
25074W        W97400  37.492  38.965   3.276
25075W        W97401   6.693  43.333  12.375
25076W        W97402  36.851  28.049   4.260
25077W        W97403  27.633  23.594   3.647
25078W        W97404  14.640  37.042  12.976
25079W        W97405  26.579  20.070  12.046
25080W        W97406  12.616  15.732  13.506
25081W        W97407  32.087   4.300   4.800
25082W        W97408  27.023  25.061  12.834
25083W        W97409  13.667  37.840  10.416
25084W        W97410   2.727  17.142   4.813
25085W        W97411   6.308  20.639   3.790
25086W        W97412  34.510  10.380   0.414
25087W        W97413   0.349  11.629  12.526
25088W        W97414  21.082   2.253   0.867
25089W        W97415  22.696  12.115  11.991
25090W        W97416  27.194  18.225  10.493
25091W        W97417  19.199  34.105  14.003
25092W        W97418  12.332  27.473   0.363
25093W        W97419  34.937   8.366   3.315
25094W        W97420  32.012  23.165  13.851
25095W        W97421  11.632  17.204   2.736
25096W        W97422   1.805  23.075  12.568
25097W        W97423  36.585  32.613  10.559
25098W        W97424  31.483   1.382  14.475
25099W        W97425  28.108   2.284  14.396
25100W        W97426  24.615   1.280  12.004
25101W        W97427  33.965  19.775  10.491
25102W        W97428   2.834  34.510  12.353
25103W        W97429  12.282  35.868   3.645
25104W        W97430  40.491  31.411  10.533
25105W        W97431  12.234  35.900   9.664
25106W        W97432  14.122   9.259   4.733
25107W        W97433  17.274  44.350  12.348
25108W        W97434  24.065  21.193  12.966
25109W        W97435  17.604  41.423  10.631
25110W        W97436  11.195  21.544  11.532
25111W        W97437  24.145  19.763  13.415
25112W        W97438  26.579  22.546  10.947
25113W        W97439   1.939  20.137  12.339
25114W        W97440  32.110  26.046  13.849
25115W        W97441  15.756  34.498   3.630
25116W        W97442  32.500  35.398   3.799
25117W        W97443  16.138  42.963   2.817
25118W        W97444   3.274  13.299   3.265
25119W        W97445  21.096  31.898  13.974
25120W        W97446  39.903  25.176  13.382
25121W        W97447  31.985  32.587   2.313
25122W        W97448  33.975  37.384   4.145
25123W        W97449  27.087  35.066   4.789
25124W        W97450  33.947  13.635   3.854
25125W        W97451  15.159  18.551  10.481
25126W        W97452   3.785  44.828   4.248
25127W        W97453  34.110  12.672  12.435
25128W        W97454   6.416  10.797   2.241
25129W        W97455  24.150  30.933  10.509
25130W        W97456  40.334  12.296  14.444
25131W        W97457   3.867   1.893   0.958
25132W        W97458  32.000  17.584   1.853
25133W        W97459  31.908  24.228  10.639
25134W        W97460  11.226  19.725   4.127
25135W        W97461  18.190  18.608  14.510
25136W        W97462  29.937  27.556   5.264
25137W        W97463   4.842  22.083   1.223
25138W        W97464  38.944   9.202  11.430
25139W        W97465   7.278  29.588   0.806
25140W        W97466  26.099  19.591   0.388
25141W        W97467   5.355  31.041   0.826
25142W        W97468  28.523   7.171  11.955
25143W        W97469  35.553  24.707  14.006
25144W        W97470  32.432  18.757   3.845
25145W        W97471  39.329  18.126   1.222
25146W        W97472  31.149  25.141  12.431
25147W        W97473   9.216  23.152   4.715
25148W        W97474  37.538  20.124   4.307
25149W        W97475  17.576  20.632   2.256
25150W        W97476  43.933   3.884  14.938
25151W        W97477  32.547  40.387   2.897
25152W        W97478  24.655   4.300  13.309
25153W        W97479   5.421  16.109   1.796
25154W        W97480  37.882  22.620  14.011
25155W        W97481  42.497  27.185  11.899
25156W        W97482  27.145  35.050  14.762
25157W        W97483  18.141  17.193  13.378
25158W        W97484  40.939  16.230  11.507
25159W        W97485   2.867  28.583   1.831
25160W        W97486   5.304  10.687  14.940
25161W        W97487   7.322  38.987  10.933
25162W        W97488  39.383   9.272  10.500
25163W        W97489  32.496  26.034   2.689
25164W        W97490  20.216  37.913  10.432
25165W        W97491  24.049  15.277   3.779
25166W        W97492  42.438  29.459   1.278
25167W        W97493  38.977  42.787  11.583
25168W        W97494   3.745  11.149  12.050
25169W        W97495  24.157  11.667   0.811
25170W        W97496  14.820  36.856  12.464
25171W        W97497   3.330  15.710   1.712
25172W        W97498  42.509  38.421   3.157
25173W        W97499  19.091   2.906  11.009
25174W        W97500  30.511   0.329   2.764
25175W        W97501  11.658  15.297  11.027
25176W        W97502  19.114  10.725   4.342
25177W        W97503  18.106  22.601  12.944
25178W        W97504   2.741  17.297  12.571
25179W        W97505  12.310  28.570  13.427
25180W        W97506  29.606  29.950   1.271
25181W        W97507  20.261  33.477  13.547
25182W        W97508  18.232  33.612   1.894
25183W        W97509  20.669  32.533   0.819
25184W        W97510  11.823  16.622   3.209
25185W        W97511  27.622  26.543  14.416
25186W        W97512  36.527  40.838  14.866
25187W        W97513  33.567  13.342  12.059
25188W        W97514  37.935  14.633  14.763
25189W        W97515  37.553  14.655  11.078
25190W        W97516  10.730  43.952  11.952
25191W        W97517  41.382  27.980  13.947
25192W        W97518  24.481  15.591  14.940
25193W        W97519   8.686  38.380  13.033
25194W        W97520  36.970  26.596   2.302
25195W        W97521  40.807  44.813   1.770
25196W        W97522  20.587   5.729  11.469
25197W        W97523  31.971  27.545  10.970
25198W        W97524  10.653  22.022   1.933
25199W        W97525  30.957  40.876   2.219
25200W        W97526  18.723  11.155   0.352
25201W        W97527   4.939  40.537  10.459
25202W        W97528  20.041   2.881   0.400
25203W        W97529  10.708  23.565  14.393
25204W        W97530  44.845  15.620   4.139
25205W        W97531  31.614  36.884  12.941
25206W        W97532   0.900  29.095   2.359
25207W        W97533  15.249  15.639   4.327
25208W        W97534   7.765  35.107  13.977
25209W        W97535   6.797   3.919   4.329
25210W        W97536  22.008  27.998   1.852
25211W        W97537   8.844  24.012   2.881
25212W        W97538   3.456  32.586  12.024
25213W        W97539  18.753  26.505   2.867
25214W        W97540   9.783  11.816  10.619
25215W        W97541  30.570  29.607   0.755
25216W        W97542   2.943  34.385   0.882
25217W        W97543  19.562   1.479   2.191
25218W        W97544  12.227  21.142   0.355
25219W        W97545   7.216  28.643  12.404
25220W        W97546  20.617  22.159  13.840
25221W        W97547  11.819   8.191   3.736
25222W        W97548   9.186  15.681  14.980
25223W        W97549  12.311  38.490  11.410
25224W        W97550  29.451  21.234  11.067
25225W        W97551  24.585  12.687   2.251
25226W        W97552   7.691   4.208  11.516
25227W        W97553  39.025   4.402   0.377
25228W        W97554  14.193  40.451   3.253
25229W        W97555  31.496  39.916   4.129
25230W        W97556  37.519  39.392  12.346
25231W        W97557   0.390  13.759  13.451
25232W        W97558  16.767  25.188  10.956
25233W        W97559  12.358   1.935   3.810
25234W        W97560  28.026  11.681   0.312
25235W        W97561  19.561   8.330   1.890
25236W        W97562  38.855  33.550   4.790
25237W        W97563  40.529  30.939  12.533
25238W        W97564  26.068  12.343   1.400
25239W        W97565  39.009  35.033  11.055
25240W        W97566  31.053  41.793  14.281
25241W        W97567  38.330  18.276  13.461
25242W        W97568  14.273  21.067   9.982
25243W        W97569  40.964   4.318  13.419
25244W        W97570  17.662  19.679  14.412
25245W        W97571  33.549  38.020   1.441
25246W        W97572  38.337  16.754   3.867
25247W        W97573  24.098  29.562  12.429
25248W        W97574  34.014   0.462  12.377
25249W        W97575  36.912   3.928   4.309
25250W        W97576  29.146  27.600   2.745
25251W        W97577  32.955  38.849  11.903
25252W        W97578   1.417  29.545  12.424
25253W        W97579  19.273  36.861   0.478
25254W        W97580  17.136   8.792   4.219
25255W        W97581  35.077  28.042   0.864
25256W        W97582  10.217  44.375   0.913
25257W        W97583   9.382  24.183  14.498
25258W        W97584  21.100  29.549   0.962
25259W        W97585  32.952   5.705  10.471
25260W        W97586  20.623  19.766   3.324
25261W        W97587  20.548  32.099   3.716
25262W        W97588  25.150  11.166   1.357
25263W        W97589  19.608  29.450  12.061
25264W        W97590  24.594  18.593  14.802
25265W        W97591  29.589  33.523  11.127
25266W        W97592   9.318  30.018  13.391
25267W        W97593   0.417  38.324  13.062
25268W        W97594  35.045  23.640   2.848
25269W        W97595  24.210   4.898   2.828
25270W        W97596  29.494  12.194  12.962
25271W        W97597  22.996  34.918  14.408
25272W        W97598  41.018  31.108  10.442
25273W        W97599  11.823  35.910   9.941
25274W        W97600  10.733  37.983   1.823
25275W        W97601  34.400  16.807   0.859
25276W        W97602   4.812  25.165  11.065
25277W        W97603  41.923  17.776  14.341
25278W        W97604  11.778  27.114   1.705
25279W        W97605  22.641   6.311  11.035
25280W        W97606   8.188  11.219   0.245
25281W        W97607  26.467  26.537  10.463
25282W        W97608  44.344  35.451  10.048
25283W        W97609  40.887  37.364  11.460
25284W        W97610  42.322  10.824  13.338
25285W        W97611  43.988  20.536   0.303
25286W        W97612  27.974  42.947   2.332
25287W        W97613  38.332  26.000   2.816
25288W        W97614  18.129   0.489   1.379
25289W        W97615  26.022  28.054   0.337
25290W        W97616   8.857  12.333  10.536
25291W        W97617  30.436  20.076   4.818
25292W        W97618   9.805  18.132   1.782
25293W        W97619   5.877  44.341  11.490
25294W        W97620  12.191  36.578   5.740
25295W        W97621  38.469  10.645  11.991
25296W        W97622   1.916   6.201   3.710
25297W        W97623  19.106   9.276   0.317
25298W        W97624  31.405  36.866  14.386
25299W        W97625  36.420  22.016   0.906
25300W        W97626  27.620  11.288   3.707
25301W        W97627   5.932  17.576   4.251
25302W        W97628   1.798  10.794  14.477
25303W        W97629  11.303  38.498   2.825
25304W        W97630  31.097  41.481  10.060
25305W        W97631   3.316   3.396  11.529
25306W        W97632  42.340  40.412   0.393
25307W        W97633  34.083  32.985  11.465
25308W        W97634  27.154  35.582  13.345
25309W        W97635  32.422  23.234  14.801
25310W        W97636   5.823  23.579  14.511
25311W        W97637  34.060  32.094  10.633
25312W        W97638  26.583  36.963  13.811
25313W        W97639  13.154  39.549  11.103
25314W        W97640  14.751  40.350   5.228
25315W        W97641  41.876  33.094  12.568
25316W        W97642  31.415  36.562   4.814
25317W        W97643  14.097  39.329   3.786
25318W        W97644  37.843  38.022   1.280
25319W        W97645  31.974  27.169   4.699
25320W        W97646  19.592  44.001  12.970
25321W        W97647   2.894  37.031  12.950
25322W        W97648  36.032  11.155   2.771
25323W        W97649   4.835  37.417  10.433
25324W        W97650  14.334  40.424  14.882
25325W        W97651  11.317   1.359  13.339
25326W        W97652   6.323   6.338   1.229
25327W        W97653  24.486  22.116  10.529
25328W        W97654  27.055  10.169   0.272
25329W        W97655   8.191  25.024  13.832
25330W        W97656  13.121  31.994  13.532
25331W        W97657   8.654  28.137   4.331
25332W        W97658   6.701  43.503  11.482
25333W        W97659  39.439   0.838   4.678
25334W        W97660  40.012  37.385   4.321
25335W        W97661   4.230  20.707   0.770
25336W        W97662  16.652  34.016   1.362
25337W        W97663  34.377  27.992   4.160
25338W        W97664  43.839  30.024  12.569
25339W        W97665  16.576  40.920  12.505
25340W        W97666  16.765  33.470  14.924
25341W        W97667   9.247  20.677   3.748
25342W        W97668  30.458  29.557   1.371
25343W        W97669  23.605  23.706   0.783
25344W        W97670  38.364  20.086   0.853
25345W        W97671  12.141  10.369  11.983
25346W        W97672  44.425   6.338   0.736
25347W        W97673  16.231  11.370  11.457
25348W        W97674  33.934   4.338   2.288
25349W        W97675  23.621  43.788   4.134
25350W        W97676  33.498   7.184   0.730
25351W        W97677  14.653  30.061  14.995
25352W        W97678  23.029  13.696  14.915
25353W        W97679   8.318  41.020   4.176
25354W        W97680  35.060  35.857  11.109
25355W        W97681   9.164   1.293  11.396
25356W        W97682  13.267  17.704  11.599
25357W        W97683  29.529  33.502   1.747
25358W        W97684   4.387  25.133   1.702
25359W        W97685  27.550  14.631   1.425
25360W        W97686  16.312   0.442  10.983
25361W        W97687   2.230   8.777   2.664
25362W        W97688  36.056  35.974   2.225
25363W        W97689  25.700   8.309  12.352
25364W        W97690   2.448  30.546  12.474
25365W        W97691  24.668  21.741   0.414
25366W        W97692  27.514  37.433   0.343
25367W        W97693  42.296  25.132   3.690
25368W        W97694  18.577   6.897   4.325
25369W        W97695  12.321  29.173  14.449
25370W        W97696  21.212  33.588  14.817
25371W        W97697  38.405   5.709   1.381
25372W        W97698   0.273  38.018   4.689
25373W        W97699  20.201   7.274  13.518
25374W        W97700  13.181   4.210   2.392
25375W        W97701  44.995  24.141  13.852
25376W        W97702  29.139  43.809   4.778
25377W        W97703  39.977  33.548   3.707
25378W        W97704  27.506  27.130  11.045
25379W        W97705  31.401  35.037  12.039
25380W        W97706  18.118  38.438   0.361
25381W        W97707  30.956  34.944  12.365
25382W        W97708  16.765  35.393  11.104
25383W        W97709   2.279   9.184   1.796
25384W        W97710   7.887  16.809  11.942
25385W        W97711  32.931  14.753   0.872
25386W        W97712  14.809  12.730  14.404
25387W        W97713  12.197  31.477  14.945
25388W        W97714  28.039  31.130  14.371
25389W        W97715   3.302  33.942   1.361
25390W        W97716   3.909  34.910  13.310
25391W        W97717  17.786  10.326   1.711
25392W        W97718  31.640  20.230  12.051
25393W        W97719  29.064  13.805  10.463
25394W        W97720  36.409  16.627   3.831
25395W        W97721   8.185  38.337   1.863
25396W        W97722  44.906  24.575   2.247
25397W        W97723  10.855  32.587   2.416
25398W        W97724   1.818  37.400   1.853
25399W        W97725   9.192  16.653  14.938
25400W        W97726  28.094  23.054  13.367
25401W        W97727  38.845  24.225   5.157
25402W        W97728   2.246  26.208   0.961
25403W        W97729  26.162  13.806   0.385
25404W        W97730  10.656   2.792   3.657
25405W        W97731  20.268  24.622   1.772
25406W        W97732  18.626   1.887   0.281
25407W        W97733  21.687  42.969  12.517
25408W        W97734  15.665  26.654   3.370
25409W        W97735   2.759  26.588  11.442
25410W        W97736  37.074  33.902   9.946
25411W        W97737  39.500   1.889   0.919
25412W        W97738   4.914  25.026   3.765
25413W        W97739  24.095  34.999   1.261
25414W        W97740   1.833  26.498  11.387
25415W        W97741  34.109  40.497   2.886
25416W        W97742  12.298  41.334   0.735
25417W        W97743  23.702  31.551  14.280
25418W        W97744   5.700  27.950   3.867
25419W        W97745  20.072   2.951   4.165
25420W        W97746  21.127   6.846   2.824
25421W        W97747  38.922  31.029   3.790
25422W        W97748  36.000   6.761  13.998
25423W        W97749   4.244   7.293   3.166
25424W        W97750   9.742  42.409  14.823
25425W        W97751  40.018  19.734   0.967
25426W        W97752  26.069  35.539  12.968
25427W        W97753   3.739  23.720  14.864
25428W        W97754  26.208  42.381   3.633
25429W        W97755  20.198  41.005   3.209
25430W        W97756   2.249  23.101   1.864
25431W        W97757   1.399  14.815  11.890
25432W        W97758  25.133  11.327   1.755
25433W        W97759   7.261   5.821   4.770
25434W        W97760  37.514   2.331  12.574
25435W        W97761  12.254  11.715   3.204
25436W        W97762  31.538   5.270  13.987
25437W        W97763  37.842  28.518   0.435
25438W        W97764  17.594  34.964  14.402
25439W        W97765   6.221  44.430  13.918
25440W        W97766  10.725  42.515  12.559
25441W        W97767  23.230  43.934   0.751
25442W        W97768  44.925  14.141  13.373
25443W        W97769  37.866  39.466   3.777
25444W        W97770  31.640  22.549  13.428
25445W        W97771   5.314   5.348   1.317
25446W        W97772  33.416  35.521   1.326
25447W        W97773   1.237  22.604   1.825
25448W        W97774   6.706  36.850  11.085
25449W        W97775  42.949  37.354  13.000
25450W        W97776  34.551  17.674  12.949
25451W        W97777  22.081  39.345  14.441
25452W        W97778  17.629  30.557   4.725
25453W        W97779  31.423  34.940   3.845
25454W        W97780  31.027  33.053   1.341
25455W        W97781  28.580   8.345   3.161
25456W        W97782  11.821   0.365   4.250
25457W        W97783   9.867  17.572  14.876
25458W        W97784  35.603  42.823  12.915
25459W        W97785   5.330  17.270  13.498
25460W        W97786   8.712  18.248  11.431
25461W        W97787  15.085   2.434  14.019
25462W        W97788  43.391   2.812   4.770
25463W        W97789  35.531  38.931  13.927
25464W        W97790  26.033   4.945   4.696
25465W        W97791  40.914  40.507   3.358
25466W        W97792  17.710  36.967   0.419
25467W        W97793  32.549   9.718  11.560
25468W        W97794  20.193  39.421   1.911
25469W        W97795  39.407  43.398   3.375
25470W        W97796   5.807  34.614  12.441
25471W        W97797  41.812  13.331   4.780
25472W        W97798  38.382  38.484  11.906
25473W        W97799   0.251  11.649   4.808
25474W        W97800  13.222  37.006   4.125
25475W        W97801  38.979  38.949   2.285
25476W        W97802   3.219  44.842   0.934
25477W        W97803   8.287  41.993  11.972
25478W        W97804  23.070  37.079   1.313
25479W        W97805  29.615  14.146   4.235
25480W        W97806  21.185  37.911   4.707
25481W        W97807  19.600  34.414   1.737
25482W        W97808  33.410  30.510  12.058
25483W        W97809  13.710  15.822   1.320
25484W        W97810   8.337  12.732  12.904
25485W        W97811  36.574  11.844   2.736
25486W        W97812  41.530   8.216   0.287
25487W        W97813  34.868  25.605   1.378
25488W        W97814  37.489  40.404   4.355
25489W        W97815  21.552  21.645  10.933
25490W        W97816  11.753  40.840   1.864
25491W        W97817  21.552  42.960   3.206
25492W        W97818  17.222  15.148  14.898
25493W        W97819  13.793  14.646   1.232
25494W        W97820  10.672  11.127   3.719
25495W        W97821  18.648  12.747   9.939
25496W        W97822  31.550  41.404  13.388
25497W        W97823  34.871   2.385  13.861
25498W        W97824   4.739  42.312  14.439
25499W        W97825  30.571  31.908  11.920
25500W        W97826  11.706  34.072   2.678
25501W        W97827  31.625  44.786   1.929
25502W        W97828  16.072   1.463  11.049
25503W        W97829  13.205  34.088   0.868
25504W        W97830   2.303  36.028  10.576
25505W        W97831  13.132   3.801   3.195
25506W        W97832  25.014  42.300   3.239
25507W        W97833  43.877  18.683   0.954
25508W        W97834  27.608  32.523  12.916
25509W        W97835  29.149  38.470  13.378
25510W        W97836  17.582  33.431  14.485
25511W        W97837  14.104   8.290  10.895
25512W        W97838  42.019  38.912   2.280
25513W        W97839  14.245   9.348   5.104
25514W        W97840  33.614  16.145   3.221
25515W        W97841  44.445   6.842  13.341
25516W        W97842  35.859  34.863   9.976
25517W        W97843   4.264  39.554   2.810
25518W        W97844   1.461  16.313  10.602
25519W        W97845  32.498   4.291   3.664
25520W        W97846  32.009  17.569   4.146
25521W        W97847  31.004  31.604  13.021
25522W        W97848  16.719  18.762   3.252
25523W        W97849  35.553   9.767  13.056
25524W        W97850  44.371  35.983   2.785
25525W        W97851  22.692  17.074  11.906
25526W        W97852  23.082  42.803  11.094
25527W        W97853  25.663  20.196  14.937
25528W        W97854  19.088  43.405   4.206
25529W        W97855  28.041  12.633   3.237
25530W        W97856  21.046  43.320   4.835
25531W        W97857  17.218  16.717  13.480
25532W        W97858  39.496   8.818  13.369
25533W        W97859  33.382  23.708   3.250
25534W        W97860  31.924  20.236   2.771
25535W        W97861  24.619  39.052  10.068
25536W        W97862  29.443  12.239  11.410
25537W        W97863  17.715   4.213  12.080
25538W        W97864  30.917  30.078  14.966
25539W        W97865  40.510  18.729  12.505
25540W        W97866  14.628  17.792  14.403
25541W        W97867  14.709  33.442  13.371
25542W        W97868  23.118  30.038   4.600
25543W        W97869  16.663  25.069   3.679
25544W        W97870  30.469  43.432   4.811
25545W        W97871  40.857  21.175   4.631
25546W        W97872  30.122   2.439  13.454
25547W        W97873   9.802  12.117  14.900
25548W        W97874  15.232  30.037   3.247
25549W        W97875  41.859  44.319   1.744
25550W        W97876  22.517  33.909  13.489
25551W        W97877  42.455  19.683  12.435
25552W        W97878  36.509  29.002   1.381
25553W        W97879  40.440  28.510   1.218
25554W        W97880  15.142   0.816  10.981
25555W        W97881  32.591   2.455  13.504
25556W        W97882  23.216  28.063  13.414
25557W        W97883  10.678  22.670  11.558
25558W        W97884   7.314  20.188   0.314
25559W        W97885   2.377  40.870   1.792
25560W        W97886  11.849  24.539   1.795
25561W        W97887  17.721   4.870   3.657
25562W        W97888   9.739   3.219  12.566
25563W        W97889  38.892  41.852   1.750
25564W        W97890  20.691  27.166  12.408
25565W        W97891  28.179  10.782   4.215
25566W        W97892  43.836  40.053   3.778
25567W        W97893   7.689  17.190  13.032
25568W        W97894  15.735  32.421  11.934
25569W        W97895  29.473  43.924  14.793
25570W        W97896  37.849  12.245   1.247
25571W        W97897   8.872  43.405  12.374
25572W        W97898  14.150  44.387  12.523
25573W        W97899  41.850   2.453   1.783
25574W        W97900  17.594  43.899   1.747
25575W        W97901  43.419  11.784   2.241
25576W        W97902   9.670  22.153  13.408
25577W        W97903  16.178  12.766  11.078
25578W        W97904   7.201  34.886   1.902
25579W        W97905  36.448  42.333   3.870
25580W        W97906   8.216   1.920  14.399
25581W        W97907  26.159  26.978   2.825
25582W        W97908   5.353  11.306  13.527
25583W        W97909  37.421  14.210  13.843
25584W        W97910  18.208  26.670  12.948
25585W        W97911  29.468  38.393  12.053
25586W        W97912  36.415   3.325   1.895
25587W        W97913  42.470  14.221  13.823
25588W        W97914   6.713  16.756  13.042
25589W        W97915  15.125  23.144   0.276
25590W        W97916  19.103  17.568   4.605
25591W        W97917   8.347  14.798  14.426
25592W        W97918  44.337  31.046  11.611
25593W        W97919  28.503  17.114  13.816
25594W        W97920  29.556  18.601   4.126
25595W        W97921  26.152  16.722   9.667
25596W        W97922  31.562  27.107   1.761
25597W        W97923  34.069  25.586   1.808
25598W        W97924  34.441   1.429   3.247
25599W        W97925  18.247  34.593   4.144
25600W        W97926   7.346  28.931   4.774
25601W        W97927  18.142  16.690   0.258
25602W        W97928  27.468  37.387   2.711
25603W        W97929  22.169   8.692   5.270
25604W        W97930   4.869  31.985  12.860
25605W        W97931  23.180  39.394  11.459
25606W        W97932  17.700  15.787  10.441
25607W        W97933   9.694  11.714  12.423
25608W        W97934  10.146  32.538   4.764
25609W        W97935  27.032  32.923  11.954
25610W        W97936  36.019  10.346  13.798
25611W        W97937   3.731  41.818  10.532
25612W        W97938  16.753  27.572  12.993
25613W        W97939  16.160  41.903   4.118
25614W        W97940  36.442  20.140  13.483
25615W        W97941  38.422  24.040   0.295
25616W        W97942   1.262  23.018  13.415
25617W        W97943   7.830   3.933   4.625
25618W        W97944  33.387  32.505   0.414
25619W        W97945  30.481  11.259  11.568
25620W        W97946  16.569   6.366   4.769
25621W        W97947  44.261  24.147  14.454
25622W        W97948  20.746   0.398   1.421
25623W        W97949  37.057  15.717   2.740
25624W        W97950   9.295  21.576  13.370
25625W        W97951  40.986  27.028   0.757
25626W        W97952  13.818  12.624  12.889
25627W        W97953  21.117   3.445   0.335
25628W        W97954  29.531  13.309  13.484
25629W        W97955  36.477  35.414   3.770
25630W        W97956  19.638   6.756   0.344
25631W        W97957   4.799  21.164  10.042
25632W        W97958  40.543  23.700  10.533
25633W        W97959   7.370  43.995  11.871
25634W        W97960  23.692  29.594   1.229
25635W        W97961  44.880  30.087   2.245
25636W        W97962  25.217   6.379   3.756
25637W        W97963  32.551  29.073   0.794
25638W        W97964  42.443  13.232  11.410
25639W        W97965  13.625  36.365   1.399
25640W        W97966  11.221  40.333  11.551
25641W        W97967   1.285  33.395  11.597
25642W        W97968  21.654  11.248   0.264
25643W        W97969  42.885  28.967  10.512
25644W        W97970  26.112  44.344  14.304
25645W        W97971  14.257  13.105  13.462
25646W        W97972  37.994  19.061  14.805
25647W        W97973  29.026   6.760  14.500
25648W        W97974  44.362   3.229  12.359
25649W        W97975  30.632   9.742   3.788
25650W        W97976   2.336  37.057  10.984
25651W        W97977   1.866  43.479  14.388
25652W        W97978  24.585  22.526   1.822
25653W        W97979  41.916  28.972  11.383
25654W        W97980  10.294  12.347   3.261
25655W        W97981  44.264  14.189  10.075
25656W        W97982   4.405  34.402  11.556
25657W        W97983  17.227  15.708   0.769
25658W        W97984   7.747  35.951  10.590
25659W        W97985  12.662  40.959   4.170
25660W        W97986  22.189  41.358   4.269
25661W        W97987   4.290  23.727   9.521
25662W        W97988  30.447   5.807   3.154
25663W        W97989  26.604   1.272  12.885
25664W        W97990  44.381  43.917   0.810
25665W        W97991  41.394  36.985   0.941
25666W        W97992   3.426  44.993  11.442
25667W        W97993  30.978  21.623  11.596
25668W        W97994  18.204   3.806   4.821
25669W        W97995  19.603  23.519   2.178
25670W        W97996  33.040   8.324   1.769
25671W        W97997  42.873  24.516  12.025
25672W        W97998  26.541  29.666  14.502
25673W        W97999   0.936   6.249   4.820
25674W        W98000  15.285   1.807  10.975
25675W        W98001  17.304  27.991  13.479
25676W        W98002  25.636  40.816  11.525
25677W        W98003   8.750  15.760   1.288
25678W        W98004  43.787  25.611  14.883
25679W        W98005  32.121   8.865   4.699
25680W        W98006  19.722  39.417  11.586
25681W        W98007  17.218  41.002   0.884
25682W        W98008  12.138  35.603  10.921
25683W        W98009  19.606   6.345  14.979
25684W        W98010  32.475   1.475  13.936
25685W        W98011  34.582  24.023  12.825
25686W        W98012  25.172  11.779  11.886
25687W        W98013  42.444  38.075   1.307
25688W        W98014  38.459  22.701   1.434
25689W        W98015   4.212  16.077  12.080
25690W        W98016  25.483   8.748  12.845
25691W        W98017   4.775  20.698   3.807
25692W        W98018  38.906   8.380  12.983
25693W        W98019  32.464  23.575  13.997
25694W        W98020   0.912  37.412   0.291
25695W        W98021  41.466  44.375  11.460
25696W        W98022  15.671  11.176   4.771
25697W        W98023   4.364   0.852  13.379
25698W        W98024  24.659  32.391  14.293
25699W        W98025  34.972  34.546   2.196
25700W        W98026  30.431  41.311   1.900
25701W        W98027   3.719  25.175   2.700
25702W        W98028  10.233   4.210  11.866
25703W        W98029  38.517  28.463  13.311
25704W        W98030  29.988   3.343  14.009
25705W        W98031  37.563   9.884   3.359
25706W        W98032  17.064   0.814   4.265
25707W        W98033   1.466  28.454  13.496
25708W        W98034  12.336  28.643  12.069
25709W        W98035  26.071   1.735   3.693
25710W        W98036   3.823  20.117   0.957
25711W        W98037  39.957   0.917  13.416
25712W        W98038   0.815  17.704   0.812
25713W        W98039  34.433  26.609  14.997
25714W        W98040   2.805  36.998  13.442
25715W        W98041  27.965   9.383   4.350
25716W        W98042  21.046  22.573  10.574
25717W        W98043   4.851  15.712   2.838
25718W        W98044  31.467  29.514   1.437
25719W        W98045  40.353  31.939  10.443
25720W        W98046  41.296  16.570   2.330
25721W        W98047  15.148  34.037  13.818
25722W        W98048  30.158  19.273   1.381
25723W        W98049  17.297  22.158   2.699
25724W        W98050   7.255   9.815   1.392
25725W        W98051  12.252  11.168   2.401
25726W        W98052  10.668  42.777  13.023
25727W        W98053  39.506   8.341  14.810
25728W        W98054  28.483   7.336   2.245
25729W        W98055  41.509  25.028   1.832
25730W        W98056   8.362  29.975  12.933
25731W        W98057  27.517  12.248   4.350
25732W        W98058  17.682  43.995  12.569
25733W        W98059  38.987   8.763  14.896
25734W        W98060  35.940  42.336   0.961
25735W        W98061  37.076  39.457   4.265
25736W        W98062  34.587  29.448   4.271
25737W        W98063  10.183  18.577   0.768
25738W        W98064  24.600   1.315   3.830
25739W        W98065  16.114   3.863   1.423
25740W        W98066  30.029  38.465  13.368
25741W        W98067  10.641  13.732   4.234
25742W        W98068  24.036  30.148   0.331
25743W        W98069  32.587  10.269   1.833
25744W        W98070  26.118   5.302  12.535
25745W        W98071  21.710  26.084   3.631
25746W        W98072  26.573  43.325   3.717
25747W        W98073  13.295  38.013   3.714
25748W        W98074  30.563  35.481   0.889
25749W        W98075   9.764  29.517   4.235
25750W        W98076  26.117  23.233  14.845
25751W        W98077   1.465  30.109   1.429
25752W        W98078  35.969  33.052   2.388
25753W        W98079  15.666   0.468  14.331
25754W        W98080   6.246  19.641   4.749
25755W        W98081  39.321  42.828  13.381
25756W        W98082  23.040   8.366   2.787
25757W        W98083   2.321   4.834  13.980
25758W        W98084   1.785  31.487  13.995
25759W        W98085  35.567  22.552  12.447
25760W        W98086   8.208  19.212  14.448
25761W        W98087  41.467  38.071  12.986
25762W        W98088  15.749  25.115  14.878
25763W        W98089  18.755  34.995  14.358
25764W        W98090  23.998   9.714   1.366
25765W        W98091  25.084  24.012   1.765
25766W        W98092  36.972  37.083  11.590
25767W        W98093   7.815  23.172  12.038
25768W        W98094   3.313  22.127  11.052
25769W        W98095  34.915  19.572   5.121
25770W        W98096  17.085  25.607  14.910
25771W        W98097   2.355  34.064   1.286
25772W        W98098  11.165  44.915   4.646
25773W        W98099   9.713  30.972   0.335
25774W        W98100  30.057  11.785  13.866
25775W        W98101   0.287  12.651   1.234
25776W        W98102  22.694   6.304  10.551
25777W        W98103   4.939  18.705   2.732
25778W        W98104  32.412  10.232  13.453
25779W        W98105   4.317   8.252   2.259
25780W        W98106   5.734  16.188  13.910
25781W        W98107  34.443  41.914  10.451
25782W        W98108  37.537  37.892  13.885
25783W        W98109  29.623  25.631  10.023
25784W        W98110  39.007  21.737  13.392
25785W        W98111   7.672  35.464  14.325
25786W        W98112  22.715  31.011  13.910
25787W        W98113  26.506  28.483   3.837
25788W        W98114   9.337  30.528   1.818
25789W        W98115  25.483  14.829  12.894
25790W        W98116  32.557   9.321  13.448
25791W        W98117  23.666   4.881  10.980
25792W        W98118  19.658   8.227   0.761
25793W        W98119  41.309  19.230   3.182
25794W        W98120   0.328  25.580  13.791
25795W        W98121   5.841   0.463   2.842
25796W        W98122  18.606  39.037   4.704
25797W        W98123  32.496  11.147   1.375
25798W        W98124  31.040  27.590  12.407
25799W        W98125  22.093  34.937  10.611
25800W        W98126  24.131  21.672   1.258
25801W        W98127  34.927  15.629  12.923
25802W        W98128   4.399  24.668   3.209
25803W        W98129  13.168  27.998   1.709
25804W        W98130  40.028  35.101  13.343
25805W        W98131  10.843  38.483   3.720
25806W        W98132  35.374  25.043   4.802
25807W        W98133  26.084  36.926   1.404
25808W        W98134  20.146  29.082   4.775
25809W        W98135  14.768  41.447  10.614
25810W        W98136  22.174  38.384   4.187
25811W        W98137  30.615  21.541  11.076
25812W        W98138  35.939  32.395   4.700
25813W        W98139   7.829  18.238  14.945
25814W        W98140   5.830   1.946   0.827
25815W        W98141   8.322  34.909  14.415
25816W        W98142  23.191  29.103  14.280
25817W        W98143  38.457  35.039  14.834
25818W        W98144  24.133  18.121   0.749
25819W        W98145  37.355  36.969   1.432
25820W        W98146  30.049  19.637  14.377
25821W        W98147  39.388  21.151   2.743
25822W        W98148  17.718  17.733   4.329
25823W        W98149  20.522  16.215   3.641
25824W        W98150  31.090  30.572   3.263
25825W        W98151   9.735  37.394  10.603
25826W        W98152  36.532   8.873   0.297
25827W        W98153  22.228  21.620  14.027
25828W        W98154   0.395   3.813   2.231
25829W        W98155   4.742  20.577  10.470
25830W        W98156  13.256  29.010  14.860
25831W        W98157  41.800  41.927  14.333
25832W        W98158  12.846   5.864   3.329
25833W        W98159  10.873  22.697  13.808
25834W        W98160  25.214  36.857   0.751
25835W        W98161   7.728  13.705  14.320
25836W        W98162  22.088  29.031   4.119
25837W        W98163  39.041  11.132   4.147
25838W        W98164  24.484  41.334  10.936
25839W        W98165  21.061  19.753   1.711
25840W        W98166  29.464  18.143   9.968
25841W        W98167  14.627  25.676  13.389
25842W        W98168  39.021  10.205   3.264
25843W        W98169  11.771  29.522   4.612
25844W        W98170  30.625  24.157   1.748
25845W        W98171  40.030  42.374   1.241
25846W        W98172  21.662  39.407   9.639
25847W        W98173  34.590  43.463   4.809
25848W        W98174  33.113   6.685  13.951
25849W        W98175  11.814  33.109  10.469
25850W        W98176  18.188  41.818  12.853
25851W        W98177  37.083  42.334   3.145
25852W        W98178  37.987  36.887   4.614
25853W        W98179  38.863   8.771  13.926
25854W        W98180  37.570   7.819   4.677
25855W        W98181  25.170  35.061  13.323
25856W        W98182   2.316   9.209  14.011
25857W        W98183  14.228  41.031  11.548
25858W        W98184  31.465   8.229  12.485
25859W        W98185   8.859   6.698  10.414
25860W        W98186  34.491  21.019  12.909
25861W        W98187  27.517  24.677  13.352
25862W        W98188  18.585   1.813   1.450
25863W        W98189   2.910   9.274   5.210
25864W        W98190   1.872  25.976   1.934
25865W        W98191   1.776   3.720   4.341
25866W        W98192  33.509  26.576   3.369
25867W        W98193  11.297  20.642   2.667
25868W        W98194  13.619   7.669  12.380
25869W        W98195  32.084  18.628  11.380
25870W        W98196  44.297  34.995   4.637
25871W        W98197  11.280  30.611   0.286
25872W        W98198  31.027   8.385  13.355
25873W        W98199  18.763  39.028  14.450
25874W        W98200  14.253  19.190  13.356
25875W        W98201  20.150  26.953   4.761
25876W        W98202   5.300  19.749   1.771
25877W        W98203  21.042  10.801   1.236
25878W        W98204  29.955  13.762   3.304
25879W        W98205  24.017  27.690   0.243
25880W        W98206  36.975  38.030   4.331
25881W        W98207  35.365   2.347   0.456
25882W        W98208  11.236  34.986  10.121
25883W        W98209  43.849  33.438   1.318
25884W        W98210   5.742  35.513   0.738
25885W        W98211  14.311  17.201   5.220
25886W        W98212  22.223  32.063   4.145
25887W        W98213   1.279  23.138   4.833
25888W        W98214  23.688  33.542   4.793
25889W        W98215  37.840  19.750   3.680
25890W        W98216   9.358   2.255  12.386
25891W        W98217  38.501  42.280   2.417
25892W        W98218  26.518  40.027   3.369
25893W        W98219  32.620  22.600   3.252
25894W        W98220  26.096  24.114   3.825
25895W        W98221  13.304  18.180  14.445
25896W        W98222  14.339  20.693   0.333
25897W        W98223  25.999  19.254  14.396
25898W        W98224  33.883  14.614  10.965
25899W        W98225  28.008  35.022   3.330
25900W        W98226   9.265  12.718   4.673
25901W        W98227  29.126   0.834  12.844
25902W        W98228   6.813  39.444  12.446
25903W        W98229   0.842  11.792   4.730
25904W        W98230  25.611  27.998   3.842
25905W        W98231  16.597   3.272   0.282
25906W        W98232  24.599   1.896  13.867
25907W        W98233  16.196  32.570   2.852
25908W        W98234   6.750  30.413  10.616
25909W        W98235  20.157  14.772  13.312
25910W        W98236  23.681  33.527  14.954
25911W        W98237  21.743   5.430  12.524
25912W        W98238  26.013  31.106  14.802
25913W        W98239   9.885  15.268  11.421
25914W        W98240  13.787  42.787  13.481
25915W        W98241   2.738  37.353  14.981
25916W        W98242  13.278  30.554   1.378
25917W        W98243  44.277  43.855   3.317
25918W        W98244  38.373  17.746  13.912
25919W        W98245   4.783  25.571  10.991
25920W        W98246  38.971  24.565  13.011
25921W        W98247  28.186  40.011  13.448
25922W        W98248  14.172  25.019  13.532
25923W        W98249  30.604  41.020   3.677
25924W        W98250   0.857   2.947  14.415
25925W        W98251  22.666  13.720  13.450
25926W        W98252  17.139   0.430   0.801
25927W        W98253  42.412  39.979   1.764
25928W        W98254  39.483  10.295   0.950
25929W        W98255  41.937  17.564   0.798
25930W        W98256   0.368  23.546  11.536
25931W        W98257  43.371  25.073   3.836
25932W        W98258  28.125  24.551  13.542
25933W        W98259   9.297  27.506   0.325
25934W        W98260   5.838   3.419  14.402
25935W        W98261  20.065  16.628   4.716
25936W        W98262   2.935  26.614   4.813
25937W        W98263  11.648  26.050  13.387
25938W        W98264  11.193  10.809  10.434
25939W        W98265  13.316  26.643  10.577
25940W        W98266  37.547  19.546  10.645
25941W        W98267  42.371  29.595   1.846
25942W        W98268  41.371  22.573  14.935
25943W        W98269  28.530  43.506   1.909
25944W        W98270  15.236  28.084   4.236
25945W        W98271  11.200  14.220   2.709
25946W        W98272  23.645  38.892  14.789
25947W        W98273   6.760   5.793  13.966
25948W        W98274  35.109  29.986   4.288
25949W        W98275   0.925   1.343   4.214
25950W        W98276  31.618  13.743  12.361
25951W        W98277   1.798  29.640   4.263
25952W        W98278  18.151  14.235   2.863
25953W        W98279  42.306   8.795   3.255
25954W        W98280  26.624  10.222   2.330
25955W        W98281   9.359   0.784  12.492
25956W        W98282  11.742  42.515   1.695
25957W        W98283  13.142  20.739  11.112
25958W        W98284  40.547   8.268   2.380
25959W        W98285  19.672  32.019   3.235
25960W        W98286  25.612  38.932  13.406
25961W        W98287  23.228   9.197   1.772
25962W        W98288  28.559  11.155   3.361
25963W        W98289  35.422  30.015   3.207
25964W        W98290  20.217   3.299   3.707
25965W        W98291  11.224  12.738  10.960
25966W        W98292   7.675  23.014  10.977
25967W        W98293  30.119  26.565  13.515
25968W        W98294  37.491  42.420  13.324
25969W        W98295  15.329  14.775   1.767
25970W        W98296  32.006   9.214   4.607
25971W        W98297  43.460  23.015   2.336
25972W        W98298  44.297  32.965  12.370
25973W        W98299  16.255  29.069   3.723
25974W        W98300   6.886  39.059  12.525
25975W        W98301  36.989  36.066   1.852
25976W        W98302  17.065  12.163  10.418
25977W        W98303  18.625  24.511  10.501
25978W        W98304  42.402   2.430  11.519
25979W        W98305  11.657  43.457   3.238
25980W        W98306  12.274   6.708   2.892
25981W        W98307   8.293   5.874  12.569
25982W        W98308  35.495   8.792   2.225
25983W        W98309  37.533  24.213  12.421
25984W        W98310  18.175  16.708  14.283
25985W        W98311  17.306  14.721  10.136
25986W        W98312  33.097  31.143  14.399
25987W        W98313  15.634  31.596   2.816
25988W        W98314  20.100  11.339   0.822
25989W        W98315  16.787  16.600   2.282
25990W        W98316   0.981   1.901  13.397
25991W        W98317  11.261  23.662   1.876
25992W        W98318  25.084  40.355  13.954
25993W        W98319  15.678  28.061  12.986
25994W        W98320  24.529   8.347   1.884
25995W        W98321   6.829   8.213  13.478
25996W        W98322  28.141  28.477   4.151
25997W        W98323   3.423  25.638  14.891
25998W        W98324  24.678   2.747   2.299
25999W        W98325  19.188  11.736  10.459
26000W        W98326  34.445  20.232   4.752
26001W        W98327  29.984   4.891   2.670
26002W        W98328   6.742   0.475   4.124
26003W        W98329   3.251  36.421  12.459
26004W        W98330  11.689   7.793   3.814
26005W        W98331  22.113  17.648  11.514
26006W        W98332  28.102  26.988   4.300
26007W        W98333   7.871   9.348  14.376
26008W        W98334  26.472   1.867   2.403
26009W        W98335   3.720  18.577   3.831
26010W        W98336  38.381   0.390  11.031
26011W        W98337  29.476   8.816  11.539
26012W        W98338  34.419   5.849  14.912
26013W        W98339  18.245  27.189  11.039
26014W        W98340   3.791  32.433  12.548
26015W        W98341  34.878  15.704   3.359
26016W        W98342  14.659   7.330   4.711
26017W        W98343  34.015  43.465   2.704
26018W        W98344   1.348  16.304   3.258
26019W        W98345  28.147  31.034  10.568
26020W        W98346  43.435  16.294   2.757
26021W        W98347  25.139  25.641   2.337
26022W        W98348  31.112  12.740  11.903
26023W        W98349  38.038  33.106  11.119
26024W        W98350  44.364   7.271  10.117
26025W        W98351  20.164  38.367   4.340
26026W        W98352   5.905   2.459   4.216
26027W        W98353   4.868  21.041  11.436
26028W        W98354   9.879  32.931   0.249
26029W        W98355   1.804   5.717   1.748
26030W        W98356  16.289   8.771  12.968
26031W        W98357  16.237  23.158   3.250
26032W        W98358  19.711   8.890   2.415
26033W        W98359  17.066  34.883   1.775
26034W        W98360  44.483  14.608  12.433
26035W        W98361  20.210  19.181   4.336
26036W        W98362   5.245  15.265  14.907
26037W        W98363  30.588   4.780   4.730
26038W        W98364   5.717  24.229  12.499
26039W        W98365  40.542  42.866   2.275
26040W        W98366  37.572  18.193  13.861
26041W        W98367  33.480  20.104  14.811
26042W        W98368   5.405  17.129   1.234
26043W        W98369  13.208  29.074  13.056
26044W        W98370  32.527   1.956  12.512
26045W        W98371  23.053  19.076   3.696
26046W        W98372  24.725  27.679   0.366
26047W        W98373  21.254  43.967   0.939
26048W        W98374   1.370   4.917  14.412
26049W        W98375  39.529  17.754   2.787
26050W        W98376   8.729  18.721   1.757
26051W        W98377  10.680   5.752  11.026
26052W        W98378  10.365  12.796  12.874
26053W        W98379   2.846  15.601  10.604
26054W        W98380  15.786  35.005  10.529
26055W        W98381   3.887  17.645   0.291
26056W        W98382   6.357  15.582   2.329
26057W        W98383  15.780   0.879   4.284
26058W        W98384  44.432  32.430  10.461
26059W        W98385  14.112  36.432  14.276
26060W        W98386   0.438  28.535   2.723
26061W        W98387  36.064  41.359   2.237
26062W        W98388   5.892   1.773   4.604
26063W        W98389   4.417  38.992   2.384
26064W        W98390  35.473  30.549  11.916
26065W        W98391  34.522  17.257   4.213
26066W        W98392  28.625  37.890   2.841
26067W        W98393  40.889  26.113   1.737
26068W        W98394  30.041  43.469  11.508
26069W        W98395  38.457  29.518   3.320
26070W        W98396  20.616  22.127  11.983
26071W        W98397  38.429  23.523  13.482
26072W        W98398  24.580  25.596  12.053
26073W        W98399  27.018  29.652  12.477
26074W        W98400   8.298  26.664  10.048
26075W        W98401   4.767  31.635   3.365
26076W        W98402  23.594  14.262   1.332
26077W        W98403   3.316  36.865  14.413
26078W        W98404  36.356   1.360   1.319
26079W        W98405  35.923  39.913   1.757
26080W        W98406  18.713   8.819  13.986
26081W        W98407  16.759  23.015  14.438
26082W        W98408  40.868  26.183   2.406
26083W        W98409  13.831  38.056   2.324
26084W        W98410  42.893  20.177  11.000
26085W        W98411   0.261  32.924   1.781
26086W        W98412  31.599  36.514   2.301
26087W        W98413  42.282  32.949  10.444
26088W        W98414  21.097  10.185   3.685
26089W        W98415  19.160  12.322   4.744
26090W        W98416  15.178  11.838  14.032
26091W        W98417  40.441  26.518  10.984
26092W        W98418  30.991   2.786  13.374
26093W        W98419  24.547  32.988   1.854
26094W        W98420  30.025  26.189  10.606
26095W        W98421  35.444  37.545  10.926
26096W        W98422  34.413  18.546   3.693
26097W        W98423  10.150   8.232  10.423
26098W        W98424   7.383  34.908  10.616
26099W        W98425  24.223  41.381   3.239
26100W        W98426  17.778   9.698  12.039
26101W        W98427  35.977  36.959  11.027
26102W        W98428   9.834  39.887   0.907
26103W        W98429  17.086  18.208   2.226
26104W        W98430  39.951  12.844  12.549
26105W        W98431  14.209  29.660   0.920
26106W        W98432   7.201  16.263   4.732
26107W        W98433   0.756  40.889   4.188
26108W        W98434  30.570  43.467   1.313
26109W        W98435  37.893  13.815   5.628
26110W        W98436  20.203  36.863   0.388
26111W        W98437   9.758  41.308   0.855
26112W        W98438  18.236  11.701   1.233
26113W        W98439  24.608  41.531   2.375
26114W        W98440  12.829  27.061   3.739
26115W        W98441  11.727  40.986   3.742
26116W        W98442   0.914  35.028   5.223
26117W        W98443  29.098   8.373   2.217
26118W        W98444  36.541  38.921  10.935
26119W        W98445   8.237  35.879   0.927
26120W        W98446  31.946   7.334   3.204
26121W        W98447  34.488   7.804  11.991
26122W        W98448   6.288   3.447   2.735
26123W        W98449   5.776  17.206  11.954
26124W        W98450  17.216  34.117   4.601
26125W        W98451  22.587  38.557   1.745
26126W        W98452  44.305   6.876  10.916
26127W        W98453  16.740  37.000  13.815
26128W        W98454  23.659   5.398  12.503
26129W        W98455  34.896   5.910   4.663
26130W        W98456  36.047  15.787  12.523
26131W        W98457  28.974  40.022  14.358
26132W        W98458  41.999  10.353  10.485
26133W        W98459   2.350  23.231   4.825
26134W        W98460  34.394  43.418   3.744
26135W        W98461  38.949  16.232   5.222
26136W        W98462  40.884  44.480   1.397
26137W        W98463  31.905  29.123   0.411
26138W        W98464  14.159   1.888  13.496
26139W        W98465  22.719  35.931  14.005
26140W        W98466   0.297  10.632   1.334
26141W        W98467  22.112  16.221   3.690
26142W        W98468  10.801   9.302  10.645
26143W        W98469  18.144   8.267  11.591
26144W        W98470  37.467  43.859  13.861
26145W        W98471   2.952  28.524   3.311
26146W        W98472   0.844  24.118   3.203
26147W        W98473   0.785  24.644  13.967
26148W        W98474  22.515  18.784   3.293
26149W        W98475  26.995  36.348   2.283
26150W        W98476  25.493  23.025   4.262
26151W        W98477   2.835  41.493  13.846
26152W        W98478  23.042  34.506  11.865
26153W        W98479  28.171  11.192  13.473
26154W        W98480  27.682  33.492   0.734
26155W        W98481  24.209  44.349  10.970
26156W        W98482   0.867  33.913  11.862
26157W        W98483  27.946  20.556   2.314
26158W        W98484  41.459  38.928   3.280
26159W        W98485  29.548  28.037  10.003
26160W        W98486  26.035  27.150   0.402
26161W        W98487  31.038  14.633   0.480
26162W        W98488  16.083  42.963   1.331
26163W        W98489   4.924   7.777  13.895
26164W        W98490   1.268   4.863   0.921
26165W        W98491  43.791  44.336  14.936
26166W        W98492  42.879  29.584   1.774
26167W        W98493  22.222  36.574  14.907
26168W        W98494   3.760  20.706   4.148
26169W        W98495  42.962  31.516  10.063
26170W        W98496  27.542  43.413   3.763
26171W        W98497  22.731  42.317  10.471
26172W        W98498  30.940   4.421   4.637
26173W        W98499  22.711   8.395   2.762
26174W        W98500  32.410  23.219   3.283
26175W        W98501  32.576  20.666  11.989
26176W        W98502  11.248   4.833   1.274
26177W        W98503  36.993   4.929   0.481
26178W        W98504  29.469  27.683  12.833
26179W        W98505  22.212  20.662  12.353
26180W        W98506  12.134  20.681   3.858
26181W        W98507  11.801  30.097  13.963
26182W        W98508   2.340  31.023  13.045
26183W        W98509  24.112  40.816   2.882
26184W        W98510  32.616  24.093   0.743
26185W        W98511  13.159  24.637   4.132
26186W        W98512  30.971  24.032  13.812
26187W        W98513  20.765   8.376  13.811
26188W        W98514  17.794  24.622   3.207
26189W        W98515  36.394  17.099  11.437
26190W        W98516   6.747  12.774  11.490
26191W        W98517  17.648  33.119  12.830
26192W        W98518  42.507  13.313   4.750
26193W        W98519  40.808  15.676  11.580
26194W        W98520  31.997   2.895  13.480
26195W        W98521   6.291  44.491   1.294
26196W        W98522  25.710  13.669   2.843
26197W        W98523  40.860  18.215  14.995
26198W        W98524  10.350   0.794  10.464
26199W        W98525  22.147  16.623   3.329
26200W        W98526  24.700  30.041   4.741
26201W        W98527  19.177  12.768   1.851
26202W        W98528  35.980   8.369  14.818
26203W        W98529  27.464  30.058  10.583
26204W        W98530  20.599  29.650   3.319
26205W        W98531  10.865  37.913   2.722
26206W        W98532  33.009  23.002  12.478
26207W        W98533   8.795  42.484   1.296
26208W        W98534   3.776   8.746  13.434
26209W        W98535   5.714   0.445  14.508
26210W        W98536  35.462  43.893   1.439
26211W        W98537   7.812  25.092   5.314
26212W        W98538  15.607   0.767  14.374
26213W        W98539  11.842  22.715   9.946
26214W        W98540  38.421  17.161  12.560
26215W        W98541  25.543  16.764  13.962
26216W        W98542  34.935   2.328  13.406
26217W        W98543  24.174  37.917  13.537
26218W        W98544   5.304   4.311  13.838
26219W        W98545  12.797  21.696  12.451
26220W        W98546  36.082  22.171   2.236
26221W        W98547  21.744  17.149   4.813
26222W        W98548  32.955  24.562  14.385
26223W        W98549  43.966  32.030   0.810
26224W        W98550   8.165  40.436   2.896
26225W        W98551  35.905   4.929  12.017
26226W        W98552  37.425  14.698  10.436
26227W        W98553   8.313  19.540   0.833
26228W        W98554   4.899  31.508  13.846
26229W        W98555  23.035  40.373  10.002
26230W        W98556  33.020   4.308  11.473
26231W        W98557   9.794  18.056  12.914
26232W        W98558  42.957  37.046  14.450
26233W        W98559  38.529  42.396   0.777
26234W        W98560  18.062  25.554   2.358
26235W        W98561  25.095   4.923   2.342
26236W        W98562  17.228  27.999   5.196
26237W        W98563  25.505   7.261  11.055
26238W        W98564  22.674  36.034   0.961
26239W        W98565  29.072   2.227   4.212
26240W        W98566  31.475  16.245   4.348
26241W        W98567   7.237   3.735   3.342
26242W        W98568  35.389   0.265   4.722
26243W        W98569  29.135  32.065   4.161
26244W        W98570  29.008  41.359  14.957
26245W        W98571  44.858  38.941   3.370
26246W        W98572  25.479  12.143   2.868
26247W        W98573  13.143   7.243  11.857
26248W        W98574  31.106   7.342   9.980
26249W        W98575  26.085   1.270   3.326
26250W        W98576  11.810  14.256  11.994
26251W        W98577  11.354   6.704  11.946
26252W        W98578  17.758   3.936   4.173
26253W        W98579  22.240  30.920  12.558
26254W        W98580  10.764  32.431  14.854
26255W        W98581  36.012  21.109  10.546
26256W        W98582  41.829  16.592  10.473
26257W        W98583   5.745   1.454   3.647
26258W        W98584  32.399   9.689   1.773
26259W        W98585  37.391  29.053   3.329
26260W        W98586  36.537  17.243   4.221
26261W        W98587  42.827  34.926   3.833
26262W        W98588   6.844   0.872   1.911
26263W        W98589  22.216  21.693  13.328
26264W        W98590  18.127  23.542  10.531
26265W        W98591  44.849  11.160  12.942
26266W        W98592  27.493  39.532   4.814
26267W        W98593   6.739  43.893  13.887
26268W        W98594  24.193  13.838  10.478
26269W        W98595   2.405  35.574   2.767
26270W        W98596  19.126   4.712   2.201
26271W        W98597  34.090   2.391  12.912
26272W        W98598  25.964   5.424  11.494
26273W        W98599   3.815   5.694  13.502
26274W        W98600  42.016   2.864  11.100
26275W        W98601  21.194  28.008   4.665
26276W        W98602  15.141  18.782  11.548
26277W        W98603  23.681  22.015   0.946
26278W        W98604  10.335  33.464   3.674
26279W        W98605   9.842   1.935  10.929
26280W        W98606  19.710  39.951   3.297
26281W        W98607   9.283  34.106  13.426
26282W        W98608  15.655  26.087   0.946
26283W        W98609  27.579  32.078   2.325
26284W        W98610  13.324  12.322  14.984
26285W        W98611  23.100  13.715   0.845
26286W        W98612  36.052  32.430   2.389
26287W        W98613   5.712  34.943  14.850
26288W        W98614   8.847  41.414   4.688
26289W        W98615  33.925  20.072  13.530
26290W        W98616  24.216  10.726  14.836
26291W        W98617  15.626  35.533   4.699
26292W        W98618   8.738   4.716   0.910
26293W        W98619  11.355  38.483   4.144
26294W        W98620  19.196   4.775   4.334
26295W        W98621  31.153  11.201  10.560
26296W        W98622  30.636  40.816  13.033
26297W        W98623  18.677  10.694   0.872
26298W        W98624  43.978  26.078  14.930
26299W        W98625  30.503   3.340   1.773
26300W        W98626   4.280  16.191  11.584
26301W        W98627  40.822   6.783   4.771
26302W        W98628  29.093  13.808  12.872
26303W        W98629  22.233  25.212  14.888
26304W        W98630  21.650  13.742  12.887
26305W        W98631  29.621  22.121  12.401
26306W        W98632   1.944  26.010  10.942
26307W        W98633   4.305  27.497   2.836
26308W        W98634  36.349   5.428  12.462
26309W        W98635  13.283  34.496  13.873
26310W        W98636  19.709  21.732   4.331
26311W        W98637  33.448  37.340  11.894
26312W        W98638  33.123   8.863  13.327
26313W        W98639  19.727  21.592   3.648
26314W        W98640   6.826  41.837   2.181
26315W        W98641  21.057  38.937   0.377
26316W        W98642  31.073  43.937   1.814
26317W        W98643  43.433  12.641  11.455
26318W        W98644  25.565  30.946   0.946
26319W        W98645  16.612  37.510   0.480
26320W        W98646  21.196  17.258   3.333
26321W        W98647  20.046  44.794   2.763
26322W        W98648  20.161  25.540   0.258
26323W        W98649  31.918  44.890   2.223
26324W        W98650  40.308   5.372   3.744
26325W        W98651  19.096  28.595   4.241
26326W        W98652  10.646  32.042  10.980
26327W        W98653   0.841  44.418   2.756
26328W        W98654   5.263  25.144   0.891
26329W        W98655  24.486  31.094   1.906
26330W        W98656  38.458  16.229  11.000
26331W        W98657  42.920  27.949   0.756
26332W        W98658  41.968   2.928  12.914
26333W        W98659  38.326  25.099   2.869
26334W        W98660   9.163  10.159   4.190
26335W        W98661   0.851  24.103  13.527
26336W        W98662  36.438   7.751   0.955
26337W        W98663  29.430   1.272  12.511
26338W        W98664  27.955  20.061   1.259
26339W        W98665  30.424  42.790   1.229
26340W        W98666  39.550  26.067   3.818
26341W        W98667  24.990  37.898  14.942
26342W        W98668  18.721   0.392   2.191
26343W        W98669   1.371  14.703   2.717
26344W        W98670  28.018   1.892   2.336
26345W        W98671   7.211  31.937   4.282
26346W        W98672   6.869  15.671  11.503
26347W        W98673  26.529  23.194  11.609
26348W        W98674  31.896  16.295   2.289
26349W        W98675  39.948  14.599  14.348
26350W        W98676  37.888  29.984  12.501
26351W        W98677  14.195  12.849  10.952
26352W        W98678  14.334  13.111  11.482
26353W        W98679  19.621  32.995   3.759
26354W        W98680  22.746  31.896   0.800
26355W        W98681  30.448  24.037   3.834
26356W        W98682  32.126  30.113   4.187
26357W        W98683  14.121  36.401  12.356
26358W        W98684  26.625  43.460   1.218
26359W        W98685  13.608  43.989  14.843
26360W        W98686   5.754   2.730   1.427
26361W        W98687  33.049  29.488  12.507
26362W        W98688   9.210  13.713  11.539
26363W        W98689  41.417   4.853   2.196
26364W        W98690  18.565  21.178   0.954
26365W        W98691  36.382   0.898   3.836
26366W        W98692  27.590  27.571  11.547
26367W        W98693  22.105  20.608  12.863
26368W        W98694   4.328  26.555  14.516
26369W        W98695  24.188   3.823  13.317
26370W        W98696  21.162   4.904   2.178
26371W        W98697  32.424   8.775   4.609
26372W        W98698   3.932  28.043  11.010
26373W        W98699  42.293  36.077  10.483
26374W        W98700  21.586  26.673   1.239
26375W        W98701  29.497  28.499   4.313
26376W        W98702   5.390  44.944   2.775
26377W        W98703  30.955  27.488   1.442
26378W        W98704   0.963  13.817  13.476
26379W        W98705  27.135   8.229  12.578
26380W        W98706  20.140  14.320  11.411
26381W        W98707  38.824  26.502   4.122
26382W        W98708   8.392  28.555   4.696
26383W        W98709  27.556   3.769   2.902
26384W        W98710  43.306   1.848   1.863
26385W        W98711   4.926   9.250  11.947
26386W        W98712  36.046  36.048  14.006
26387W        W98713  38.882  16.163   1.723
26388W        W98714   3.814  14.710   4.837
26389W        W98715  14.661  27.110   4.125
26390W        W98716  25.575  33.913   1.880
26391W        W98717  40.377  18.770   5.164
26392W        W98718   3.434   0.443   3.761
26393W        W98719  12.268  32.896  14.296
26394W        W98720  15.104   2.363   4.690
26395W        W98721  38.018  38.070  12.552
26396W        W98722  27.466  19.079  12.093
26397W        W98723   2.387  12.230   0.741
26398W        W98724   9.320  20.030  13.907
26399W        W98725  26.589  44.850   4.294
26400W        W98726  23.013  27.505   1.323
26401W        W98727  34.590  30.422  10.893
26402W        W98728   0.933  34.571  10.409
26403W        W98729  38.526  35.557  12.343
26404W        W98730  37.982  25.992  14.292
26405W        W98731  25.501  13.122  13.973
26406W        W98732   5.870  37.830  14.924
26407W        W98733  24.609  23.088  12.989
26408W        W98734  17.691  38.558   4.160
26409W        W98735  30.100  17.081  11.119
26410W        W98736  31.910  40.484  12.446
26411W        W98737  15.600  34.046   2.338
26412W        W98738  25.019  16.128   1.313
26413W        W98739  16.592   2.846   4.670
26414W        W98740  18.191  33.999  11.900
26415W        W98741  42.006  11.183   1.732
26416W        W98742  17.714  27.988  12.483
26417W        W98743  43.304  44.849   4.329
26418W        W98744   8.252   8.832  14.781
26419W        W98745  26.692  33.569   3.327
26420W        W98746  39.360   8.200   2.762
26421W        W98747  32.620  35.589   2.728
26422W        W98748  12.759  33.432  10.151
26423W        W98749  23.043  15.134   3.860
26424W        W98750   3.283  29.087  14.909
26425W        W98751  28.966  17.687  14.874
26426W        W98752  31.119  34.496  11.985
26427W        W98753  21.739  29.961   3.639
26428W        W98754  26.586   7.842  10.535
26429W        W98755  11.214  16.778  12.540
26430W        W98756   5.200  35.980  11.414
26431W        W98757  16.670   3.767   4.293
26432W        W98758  28.598  16.223   3.207
26433W        W98759  28.597  12.709   1.235
26434W        W98760  44.305  15.302   2.900
26435W        W98761   6.908   6.182   1.408
26436W        W98762  17.074  38.912  10.414
26437W        W98763   7.813  38.041   3.645
26438W        W98764  19.659   3.944  11.939
26439W        W98765   7.768  32.915   1.361
26440W        W98766  37.083  33.905   4.270
26441W        W98767   6.351  17.568  11.424
26442W        W98768  17.219  42.511  14.482
26443W        W98769  13.296  37.933  10.891
26444W        W98770  35.010  36.917   9.945
26445W        W98771  42.025  43.993  13.950
26446W        W98772  10.822  31.085   0.739
26447W        W98773  11.714  21.087  11.040
26448W        W98774  33.084  33.513  10.415
26449W        W98775  44.828  19.656  12.559
26450W        W98776  34.887  37.885   4.732
26451W        W98777  34.995   6.244   3.653
26452W        W98778   9.183  34.584   2.772
26453W        W98779  34.515  40.409   3.169
26454W        W98780  18.147  11.213   1.809
26455W        W98781  16.302   4.248   3.717
26456W        W98782  32.892   7.893  12.957
26457W        W98783  29.587  11.140   2.721
26458W        W98784  12.650  35.448  12.907
26459W        W98785  14.260   2.723   4.728
26460W        W98786   0.755  30.971   3.679
26461W        W98787  15.820  36.441   0.253
26462W        W98788  24.022  42.975  11.516
26463W        W98789  35.374  30.051   2.398
26464W        W98790  40.885  11.235   0.802
26465W        W98791   2.288  12.301   3.714
26466W        W98792  39.382  25.699   2.685
26467W        W98793   4.896  38.847   3.825
26468W        W98794  23.120   2.805  12.957
26469W        W98795  32.970   9.757  11.871
26470W        W98796  38.548  15.793   2.790
26471W        W98797   4.917   1.813  10.069
26472W        W98798   8.403  13.134  11.953
26473W        W98799  23.707  34.572   4.599
26474W        W98800  35.858  25.147   2.308
26475W        W98801   3.956  24.029  12.939
26476W        W98802  32.973  30.109   3.299
26477W        W98803   1.479  20.117   1.431
26478W        W98804  25.968  39.893  10.961
26479W        W98805   7.895  17.717   2.711
26480W        W98806  30.441   1.857   0.906
26481W        W98807   3.440   1.442   2.807
26482W        W98808  36.460  36.554  14.936
26483W        W98809  40.977   3.823  14.809
26484W        W98810  29.085   7.257   4.746
26485W        W98811  10.251  38.874  13.825
26486W        W98812   4.750  21.755   1.880
26487W        W98813  33.899  13.635  13.427
26488W        W98814  24.050  40.868   0.283
26489W        W98815  13.623  33.900  11.387
26490W        W98816  42.996  17.068   1.824
26491W        W98817  12.241   6.738  13.930
26492W        W98818   0.307  17.579  11.100
26493W        W98819  30.944   3.415  11.930
26494W        W98820  30.995  33.574  14.307
26495W        W98821   5.830  30.505  11.376
26496W        W98822  11.138  25.699   3.769
26497W        W98823  12.194   4.836   2.796
26498W        W98824  34.377  44.297  14.879
26499W        W98825  19.605  29.099   4.691
26500W        W98826  39.353  40.054  13.045
26501W        W98827  17.238  26.567   1.372
26502W        W98828  21.206  32.014  11.414
26503W        W98829  41.995  43.374  14.309
26504W        W98830  24.535  44.497   3.304
26505W        W98831   9.814  28.184   0.813
26506W        W98832  18.050  44.879  11.977
26507W        W98833  14.692  28.054   1.377
26508W        W98834  15.633  36.998  14.956
26509W        W98835  37.003  42.935   0.905
26510W        W98836  37.945  16.698  10.428
26511W        W98837  36.070  25.139  11.475
26512W        W98838  17.688  26.469  10.528
26513W        W98839   4.933  37.444   5.244
26514W        W98840   9.377  22.534  14.978
26515W        W98841  37.479   1.302   4.326
26516W        W98842   6.427  38.917  12.405
26517W        W98843  12.854   3.795   1.745
26518W        W98844   1.299  38.355  14.777
26519W        W98845  29.464  24.983   2.272
26520W        W98846   3.924  24.683  13.792
26521W        W98847  41.990  22.081   4.749
26522W        W98848  23.578  30.526  11.596
26523W        W98849  13.752  22.698   0.345
26524W        W98850  11.622  11.215   3.222
26525W        W98851  10.216  38.419  10.900
26526W        W98852  20.190   1.289   4.131
26527W        W98853  44.362  22.128  14.952
26528W        W98854  18.790   4.392  10.598
26529W        W98855  43.785   2.961   2.796
26530W        W98856  36.441  19.556  14.941
26531W        W98857  26.084  40.443   4.799
26532W        W98858   8.788  34.007  12.965
26533W        W98859  28.974  39.488  14.996
26534W        W98860  10.674  15.091   1.344
26535W        W98861   9.179  10.242   4.771
26536W        W98862   3.271  38.476   4.200
26537W        W98863  29.435  26.992   0.482
26538W        W98864   1.327  28.511  14.895
26539W        W98865  22.588  16.108  14.950
26540W        W98866  20.547  18.672   3.815
26541W        W98867   6.223   6.829  12.566
26542W        W98868  22.633  10.808  11.603
26543W        W98869   1.749   6.304  14.364
26544W        W98870  34.992  24.175   2.707
26545W        W98871  17.692   1.891   3.639
26546W        W98872  21.600  24.229  11.580
26547W        W98873  31.540   7.190  10.450
26548W        W98874  34.962  11.201  14.350
26549W        W98875  14.173  28.633  12.966
26550W        W98876  38.054  43.432  12.552
26551W        W98877  37.083   6.809   1.347
26552W        W98878  39.475  41.959   0.458
26553W        W98879  38.014  37.500  10.422
26554W        W98880  25.479  13.113  13.430
26555W        W98881  11.233  29.659  14.963
26556W        W98882  30.132  36.941   2.812
26557W        W98883  31.911  24.620   3.750
26558W        W98884  32.422   0.373  13.962
26559W        W98885  29.973  24.231   0.380
26560W        W98886  32.017   3.412  12.349
26561W        W98887  14.624  12.149   2.858
26562W        W98888  17.125   7.904  12.041
26563W        W98889  34.119  15.778  14.853
26564W        W98890  27.460  18.146  13.315
26565W        W98891  25.142   9.370  11.430
26566W        W98892   5.238  36.042  12.371
26567W        W98893  24.706  15.793  11.590
26568W        W98894  21.023  27.489   0.814
26569W        W98895   4.711  23.624  10.959
26570W        W98896  14.815  41.321   3.665
26571W        W98897  39.842  10.740   1.339
26572W        W98898  22.655  23.042   4.181
26573W        W98899  35.002  17.729   4.247
26574W        W98900  42.394   4.801   2.804
26575W        W98901   4.244  19.577  14.900
26576W        W98902  30.924   3.388   9.947
26577W        W98903  39.338  34.112  11.427
26578W        W98904  11.853  26.617   0.841
26579W        W98905  18.108   9.177   4.758
26580W        W98906   9.365  36.974   2.766
26581W        W98907  20.586  11.766  13.898
26582W        W98908  40.442  22.047   0.320
26583W        W98909   7.382  19.089   3.643
26584W        W98910  31.918  33.053  13.000
26585W        W98911   2.746  25.557   3.817
26586W        W98912  10.369  38.991   1.336
26587W        W98913  32.029  25.513   2.810
26588W        W98914   7.255  25.497   4.123
26589W        W98915  39.329  38.006  11.025
26590W        W98916  31.450  29.520   2.795
26591W        W98917   6.712  33.900   2.870
26592W        W98918   5.698  19.647  13.944
26593W        W98919  15.622  31.951  10.997
26594W        W98920   3.384  11.371   2.367
26595W        W98921   5.797  21.747   4.832
26596W        W98922   5.268  11.863  14.775
26597W        W98923   7.273  40.019  12.896
26598W        W98924  23.098  32.426   2.669
26599W        W98925  41.314  38.006   0.799
26600W        W98926  32.637  41.467  11.076
26601W        W98927  37.894  39.042   4.313
26602W        W98928  29.944   4.809  10.999
26603W        W98929  15.678   1.459  13.826
26604W        W98930  22.729  24.191   0.256
26605W        W98931  16.231  26.148  14.393
26606W        W98932  35.511  28.945  10.584
26607W        W98933  35.417  37.433   1.809
26608W        W98934   3.861   2.352  12.889
26609W        W98935  23.143   3.274   2.719
26610W        W98936  38.839  41.293  12.563
26611W        W98937  25.207  22.212   3.822
26612W        W98938  41.534  22.657  10.987
26613W        W98939  20.619  39.820  13.356
26614W        W98940  29.442  23.532  14.885
26615W        W98941  18.285  17.654  10.959
26616W        W98942   8.794  33.574   2.356
26617W        W98943   9.885  13.285   4.688
26618W        W98944   9.204  12.331   2.790
26619W        W98945   5.702  16.597  14.862
26620W        W98946  29.149  19.173   4.761
26621W        W98947  23.115  13.719   3.349
26622W        W98948   2.424  23.630   2.709
26623W        W98949  25.198   7.807  12.051
26624W        W98950   3.236   5.911  10.113
26625W        W98951  24.580  35.550  11.485
26626W        W98952   5.377  20.094   4.281
26627W        W98953  21.556  30.536   4.119
26628W        W98954  42.451  11.168  11.387
26629W        W98955  41.450  27.994   4.738
26630W        W98956  20.699  25.570  12.895
26631W        W98957  22.139  37.941   2.231
26632W        W98958  28.091  16.804   3.726
26633W        W98959   1.735   2.234  11.609
26634W        W98960   0.254  11.333   0.900
26635W        W98961  42.382  34.605  13.381
26636W        W98962  41.498  38.029   3.764
26637W        W98963  15.708  42.443   2.408
26638W        W98964  33.448   9.773  12.521
26639W        W98965  34.949  12.135  12.065
26640W        W98966   0.901  29.029  13.485
26641W        W98967  15.100  14.821   2.767
26642W        W98968  20.743   2.948   0.276
26643W        W98969  10.729  23.019   4.203
26644W        W98970  44.924   6.772  11.124
26645W        W98971   9.380  38.952   0.929
26646W        W98972  23.720   5.436  11.374
26647W        W98973  38.374  20.060  13.894
26648W        W98974  41.483  44.386  13.442
26649W        W98975  28.091  30.612  11.122
26650W        W98976  16.284  39.828   0.324
26651W        W98977  36.895  24.577  12.978
26652W        W98978  11.173   0.341   1.729
26653W        W98979  38.481  11.362  14.331
26654W        W98980  21.244   0.869   0.353
26655W        W98981  18.169  36.037  11.596
26656W        W98982   7.789  25.605   2.783
26657W        W98983  35.889  24.539   3.664
26658W        W98984  26.957  16.812   1.359
26659W        W98985  19.629  11.175   3.661
26660W        W98986   5.851  41.014   4.798
26661W        W98987  18.084  16.295   4.682
26662W        W98988  29.086  31.446  11.545
26663W        W98989   6.265  12.223  10.615
26664W        W98990  10.776  30.990   4.779
26665W        W98991   2.824  36.366   3.713
26666W        W98992  35.424  13.226  14.875
26667W        W98993  38.930  19.091  12.084
26668W        W98994  38.462  25.499   4.691
26669W        W98995  40.032  39.941  12.432
26670W        W98996   0.344   1.472   4.122
26671W        W98997  31.907  24.198  12.831
26672W        W98998  17.563  14.138   3.767
26673W        W98999  36.534  33.954  10.023
26674W        W99000  21.545  10.716   2.418
26675W        W99001   0.285  15.171  14.406
26676W        W99002  37.978  14.109   3.727
26677W        W99003  17.106   2.836   3.298
26678W        W99004  17.671   6.382   1.698
26679W        W99005  33.957  42.959   3.763
26680W        W99006   2.872   4.223  10.457
26681W        W99007  31.600  30.447   1.434
26682W        W99008   2.382  27.624   1.757
26683W        W99009  22.180  18.598   3.656
26684W        W99010  41.366  27.533  14.793
26685W        W99011  40.020  14.159  13.471
26686W        W99012  36.372  39.834  14.453
26687W        W99013  34.445  29.171  10.542
26688W        W99014  43.834  39.461   3.228
26689W        W99015  27.600   1.417   0.273
26690W        W99016   9.309  29.936  11.581
26691W        W99017  32.933   2.373   4.757
26692W        W99018  27.139  26.601   4.154
26693W        W99019  36.882  14.658  13.366
26694W        W99020   2.955  11.218  11.939
26695W        W99021  42.302  34.071   4.217
26696W        W99022   3.824   0.969  12.473
26697W        W99023  25.607   7.300   0.770
26698W        W99024  29.025  40.857  13.539
26699W        W99025  33.064  34.409   2.755
26700W        W99026   7.768  20.613  12.856
26701W        W99027  44.840   4.838   2.295
26702W        W99028  34.110  29.552   4.296
26703W        W99029   6.417  27.149  10.443
26704W        W99030  10.764  28.651   4.330
26705W        W99031  27.599  41.968  14.442
26706W        W99032   2.746  10.689   0.452
26707W        W99033  34.067   0.767   1.338
26708W        W99034  36.865   8.267  13.905
26709W        W99035  17.209   2.423  13.513
26710W        W99036  36.553  42.809   3.674
26711W        W99037  36.575  37.359  10.941
26712W        W99038  39.369  28.055  13.863
26713W        W99039   2.838  42.407   4.656
26714W        W99040  37.357  40.328   1.759
26715W        W99041  17.113  30.499  11.076
26716W        W99042  25.085   4.417  14.773
26717W        W99043  27.661  42.950   4.695
26718W        W99044  21.156  42.426   5.190
26719W        W99045   7.826  22.747  12.868
26720W        W99046  35.094  12.204  12.367
26721W        W99047   2.920  36.004  14.857
26722W        W99048   7.367  23.608   1.362
26723W        W99049  29.012   6.902  13.393
26724W        W99050  13.332  41.856  14.506
26725W        W99051  17.722   2.851  14.459
26726W        W99052   6.302  37.340   3.371
26727W        W99053  33.592  29.970  14.498
26728W        W99054  15.626  16.702  11.081
26729W        W99055  31.011  36.994  11.949
26730W        W99056  24.214   4.213  12.372
26731W        W99057  13.662  41.934   1.271
26732W        W99058  11.234  20.673  11.580
26733W        W99059  35.986   9.740   0.399
26734W        W99060  16.230  39.833   3.282
26735W        W99061  27.109  22.061   1.381
26736W        W99062  34.575   1.379   0.338
26737W        W99063  43.336  38.847   0.314
26738W        W99064  25.624  37.852   0.421
26739W        W99065  11.809  14.752   0.383
26740W        W99066  37.864  35.544  14.873
26741W        W99067  27.682  12.686   2.877
26742W        W99068  39.843  33.034  14.365
26743W        W99069  21.560   7.712  12.528
26744W        W99070   1.902   1.418   2.227
26745W        W99071  32.071   3.770   4.317
26746W        W99072  44.885  40.803   4.306
26747W        W99073  34.941  10.285  11.586
26748W        W99074  35.537   3.800  10.963
26749W        W99075  44.311  15.284  10.151
26750W        W99076  16.154  33.572   4.717
26751W        W99077  27.504  21.548  11.544
26752W        W99078  42.379  13.193   1.891
26753W        W99079  41.319  14.161   3.243
26754W        W99080   3.356   1.761   1.901
26755W        W99081  11.740   8.872  14.358
26756W        W99082  36.969  13.331  10.012
26757W        W99083   4.343  40.446  13.989
26758W        W99084  41.890  15.668   0.251
26759W        W99085  35.452  19.277  12.366
26760W        W99086   0.441  19.778   1.428
26761W        W99087  34.548  22.701  10.553
26762W        W99088  21.521  36.360  11.117
26763W        W99089  14.183  31.970   3.186
26764W        W99090  29.173  22.574  11.388
26765W        W99091  13.208  27.525  11.510
26766W        W99092  38.861  22.506  10.538
26767W        W99093  12.312  31.058   1.273
26768W        W99094  32.491  29.049  12.413
26769W        W99095  15.244  26.469   0.313
26770W        W99096  29.984  29.653  14.500
26771W        W99097  10.865  15.815   3.181
26772W        W99098  44.486   8.689  14.943
26773W        W99099  29.652  44.959   4.152
26774W        W99100  40.436  38.519   3.370
26775W        W99101   0.986  20.768   3.341
26776W        W99102  33.099  26.636  11.086
26777W        W99103   8.311  28.157  10.960
26778W        W99104  43.014  17.801  11.128
26779W        W99105  23.522  30.611  12.831
26780W        W99106  26.986  38.436  10.992
26781W        W99107  28.648  17.097   1.863
26782W        W99108  37.404  26.051   0.258
26783W        W99109  40.973  34.544   0.313
26784W        W99110  11.654  32.121   1.428
26785W        W99111   3.729   0.911   4.608
26786W        W99112   1.793  20.733   1.369
26787W        W99113  44.889   0.487   0.341
26788W        W99114  13.249  38.554   2.751
26789W        W99115  12.222  37.572   4.824
26790W        W99116  32.012  35.394   2.869
26791W        W99117  29.567   3.777   2.212
26792W        W99118   1.805  23.206   2.243
26793W        W99119   1.761  39.811  11.418
26794W        W99120  13.659  44.916   2.364
26795W        W99121  14.237  38.013   0.459
26796W        W99122  41.423   4.807  10.515
26797W        W99123  14.205  26.000   4.824
26798W        W99124  36.844  41.517  11.561
26799W        W99125   5.246   9.367  14.892
26800W        W99126   5.235  37.973  13.309
26801W        W99127  23.213  42.844   5.223
26802W        W99128   2.421   5.423  14.911
26803W        W99129  26.517  34.562  11.056
26804W        W99130   4.815  11.182   5.784
26805W        W99131  23.599   8.768   3.180
26806W        W99132  23.722  29.987   0.317
26807W        W99133  20.132  40.390  13.044
26808W        W99134  10.230  19.054   2.677
26809W        W99135  44.430   1.893   2.375
26810W        W99136   4.825   9.365   5.199
26811W        W99137  24.093  35.471   4.796
26812W        W99138   4.346   4.276  12.002
26813W        W99139  12.710  30.975  12.940
26814W        W99140  13.128  12.678   1.851
26815W        W99141   1.932  10.667   2.717
26816W        W99142  35.370  26.961   2.707
26817W        W99143  24.975  41.876   3.249
26818W        W99144   3.770  30.941  12.938
26819W        W99145  41.022  20.763  13.920
26820W        W99146  22.153  20.032   0.781
26821W        W99147  36.523  25.074  11.913
26822W        W99148  27.964  24.088   3.291
26823W        W99149  32.943  25.694   0.399
26824W        W99150  40.506  19.741   4.303
26825W        W99151  16.710  19.068  13.973
26826W        W99152  29.998   6.887  11.544
26827W        W99153  44.805  26.581   3.273
26828W        W99154  13.787  15.224   0.866
26829W        W99155  10.254  22.023  13.402
26830W        W99156  12.716  33.878   5.644
26831W        W99157   7.185   7.209   0.782
26832W        W99158  17.690   4.931  11.430
26833W        W99159  33.418   7.829  14.432
26834W        W99160  28.050  39.433  13.508
26835W        W99161  35.944   8.857   4.615
26836W        W99162  30.934  33.586  10.901
26837W        W99163  29.605   4.719   1.887
26838W        W99164   2.895  42.806  13.873
26839W        W99165   5.315  21.218  13.362
26840W        W99166  37.950  21.148   0.961
26841W        W99167  22.112   7.332  12.864
26842W        W99168  30.000  34.457  11.894
26843W        W99169   3.251   6.264  11.524
26844W        W99170  21.038   7.669  14.435
26845W        W99171  40.904  25.593   2.774
26846W        W99172  38.972  11.721  10.969
26847W        W99173  35.595   8.840  14.969
26848W        W99174   8.704  15.207   4.699
26849W        W99175  37.914   2.342   4.209
26850W        W99176  21.219  11.193  14.293
26851W        W99177   0.293  19.170   2.852
26852W        W99178  24.569  16.606  13.460
26853W        W99179  24.609  14.126  12.389
26854W        W99180  15.315  40.975  11.383
26855W        W99181  22.605  32.619   3.680
26856W        W99182  43.835   2.322  14.379
26857W        W99183   4.712  40.493  11.475
26858W        W99184   7.744  42.325   4.718
26859W        W99185  16.647   8.839   2.864
26860W        W99186  42.344  27.558  13.975
26861W        W99187  36.897  14.166   3.297
26862W        W99188   1.846  29.969   4.220
26863W        W99189  16.132  13.335  12.906
26864W        W99190  28.123  13.701  11.464
26865W        W99191   2.762  25.170   1.321
26866W        W99192  41.347  30.552   0.412
26867W        W99193   1.884  27.562  13.428
26868W        W99194  13.203  40.545   3.286
26869W        W99195  37.087  34.037  10.946
26870W        W99196   2.944  19.689   3.359
26871W        W99197  40.860  43.497   2.360
26872W        W99198  10.702  16.264  14.939
26873W        W99199  37.982  30.041   0.243
26874W        W99200  28.132  21.665   0.382
26875W        W99201   3.345  30.656   2.378
26876W        W99202  40.403  34.470   2.321
26877W        W99203  42.461  13.214  13.486
26878W        W99204  30.456   4.780   0.440
26879W        W99205  18.658  39.000  12.350
26880W        W99206  37.438  33.983   1.906
26881W        W99207  21.743  23.984   3.331
26882W        W99208  39.504  34.600   0.409
26883W        W99209   4.249  30.438   0.847
26884W        W99210  23.132  32.966   4.137
26885W        W99211  29.558   2.736  12.974
26886W        W99212   0.903  32.545   3.161
26887W        W99213  42.463  12.628   2.263
26888W        W99214  44.876   7.233  11.046
26889W        W99215   6.316   4.286   4.308
26890W        W99216  38.340  38.397   1.759
26891W        W99217  31.996  40.942  10.415
26892W        W99218   8.885  17.790  14.383
26893W        W99219   5.735   8.772  13.974
26894W        W99220  12.824   1.803   1.393
26895W        W99221   4.212  34.391  14.837
26896W        W99222  26.972  12.645  10.406
26897W        W99223  27.030  38.928  11.987
26898W        W99224  10.701  24.572  10.620
26899W        W99225  43.416  18.652  13.353
26900W        W99226  24.134  15.766  14.439
26901W        W99227  13.164  34.605   9.633
26902W        W99228   6.758  40.958   0.295
26903W        W99229   3.406  40.412  10.895
26904W        W99230  36.347  35.362   2.712
26905W        W99231  19.178  41.040   4.189
26906W        W99232  18.734  34.096   2.752
26907W        W99233  26.032   1.330  14.299
26908W        W99234   5.420  20.534   3.356
26909W        W99235  39.995  17.264  13.348
26910W        W99236  35.926   6.866   4.317
26911W        W99237  42.955   8.225  10.891
26912W        W99238  42.447  18.180  12.024
26913W        W99239  32.548  10.367  14.374
26914W        W99240  35.602   3.240  12.483
26915W        W99241  19.057  28.658   0.397
26916W        W99242  24.598   9.229  11.009
26917W        W99243  20.205   6.311   0.915
26918W        W99244   6.394  17.263  14.881
26919W        W99245  39.015  22.597  11.942
26920W        W99246  26.954  11.771  14.487
26921W        W99247  15.106  33.974   2.336
26922W        W99248   7.846   7.706  14.849
26923W        W99249  13.137   5.815  14.497
26924W        W99250  44.996  11.199  11.917
26925W        W99251  39.342  21.732  13.341
26926W        W99252  34.051  15.139  13.991
26927W        W99253  39.905  33.468   1.727
26928W        W99254   0.939  12.233  12.855
26929W        W99255   6.738  39.550  11.455
26930W        W99256   3.231  16.723  12.947
26931W        W99257  39.826  44.819  11.454
26932W        W99258   2.404  16.084  14.867
26933W        W99259  33.567  35.553  13.424
26934W        W99260  15.714  33.001   2.186
26935W        W99261   5.821  19.698   3.214
26936W        W99262  34.381  23.221  10.496
26937W        W99263  15.772  22.028  12.560
26938W        W99264   3.932  37.422  12.995
26939W        W99265  37.031  34.408  12.513
26940W        W99266  10.243   6.921  12.345
26941W        W99267   2.939   9.198   3.738
26942W        W99268  36.531  30.974   3.704
26943W        W99269  10.777  33.017  10.407
26944W        W99270   1.237  13.790   0.482
26945W        W99271  32.602  26.163  13.499
26946W        W99272  14.175  15.156   2.304
26947W        W99273  25.998  18.757   4.817
26948W        W99274  25.690  16.296  11.882
26949W        W99275  23.560  44.381   3.202
26950W        W99276  18.740  29.463  12.923
26951W        W99277   4.302   0.419  10.910
26952W        W99278  35.857  16.747  12.038
26953W        W99279   9.263  26.477   2.339
26954W        W99280   7.309  28.679  13.001
26955W        W99281  36.489  15.740  11.485
26956W        W99282  44.952   6.908   3.164
26957W        W99283   2.471   1.236  10.101
26958W        W99284  33.996   6.351  11.372
26959W        W99285  34.026   0.825  13.419
26960W        W99286  13.663  24.541   5.160
26961W        W99287  28.514  17.103  10.951
26962W        W99288  40.493  29.502   4.232
26963W        W99289  18.597  42.346   1.236
26964W        W99290  20.765  17.557  11.866
26965W        W99291   9.219  44.356   4.771
26966W        W99292  23.030  39.991  13.044
26967W        W99293  36.445   5.756  12.490
26968W        W99294  44.385   0.865  11.562
26969W        W99295  28.569  28.169  14.964
26970W        W99296  29.055   8.707  12.359
26971W        W99297  39.380  25.525  13.324
26972W        W99298   6.194  37.522   0.921
26973W        W99299  25.088   9.878   2.222
26974W        W99300  39.966   9.208   4.683
26975W        W99301   3.300  20.190  14.867
26976W        W99302   1.885  21.025  14.460
26977W        W99303  37.939  30.935  12.537
26978W        W99304  33.092  18.721   3.664
26979W        W99305  43.319  26.595   0.311
26980W        W99306  16.242  39.920   3.804
26981W        W99307   8.717   8.381   0.950
26982W        W99308   1.294   0.311  14.481
26983W        W99309   7.907   3.253  14.470
26984W        W99310  14.194  37.059   3.705
26985W        W99311   4.892   3.740   5.279
26986W        W99312   6.280  35.540  13.999
26987W        W99313  10.765   3.348  14.382
26988W        W99314  19.703  21.050  12.081
26989W        W99315  12.819  10.647   4.702
26990W        W99316   5.798  42.972   2.860
26991W        W99317   6.878   9.750  13.484
26992W        W99318  26.638  11.194   0.763
26993W        W99319   9.291  25.636   2.252
26994W        W99320  41.319  28.096  12.491
26995W        W99321  33.060  22.538   0.422
26996W        W99322  29.055  21.064  12.836
26997W        W99323  29.108  29.131   2.211
26998W        W99324   5.838  37.924  11.453
26999W        W99325  16.112  23.529   0.828
27000W        W99326   9.291  32.551   1.450
27001W        W99327   0.451  21.149  12.361
27002W        W99328  24.569  30.491  11.448
27003W        W99329  42.942  22.594  12.354
27004W        W99330  14.664  32.509  12.435
27005W        W99331   1.238  17.275   2.729
27006W        W99332  33.404  34.873  10.146
27007W        W99333  17.701   9.278  10.616
27008W        W99334   2.460   4.254  12.922
27009W        W99335   4.438  16.769  13.941
27010W        W99336  16.162  38.996  10.967
27011W        W99337  37.005  12.327  13.458
27012W        W99338  12.332  29.586   4.350
27013W        W99339  15.584  11.217   2.346
27014W        W99340   2.811  11.185   5.260
27015W        W99341  32.437   8.774  14.496
27016W        W99342  33.977  31.911  13.975
27017W        W99343  10.681  20.188  14.360
27018W        W99344  40.025  39.996  14.352
27019W        W99345  23.091   4.843  14.803
27020W        W99346  11.292  12.667  14.400
27021W        W99347  37.342  29.574  12.569
27022W        W99348   1.296   5.884   3.171
27023W        W99349   9.250  40.909   2.665
27024W        W99350  21.723  23.549  10.982
27025W        W99351  20.531  19.206  13.835
27026W        W99352  23.126  15.671   1.863
27027W        W99353  25.171   9.297  13.525
27028W        W99354   4.277  23.679  15.000
27029W        W99355  27.662  19.081   4.229
27030W        W99356  33.108  31.904  12.962
27031W        W99357  18.234  23.045  12.054
27032W        W99358  23.685   6.724  14.951
27033W        W99359  10.283  38.008   2.892
27034W        W99360   5.771  18.112  13.486
27035W        W99361  25.585  27.161  10.961
27036W        W99362  40.889  20.734  12.853
27037W        W99363  20.149  26.018  13.826
27038W        W99364  16.734  13.830  13.802
27039W        W99365  24.033  36.989  11.000
27040W        W99366   5.733   0.791  11.098
27041W        W99367  25.012  22.151   2.712
27042W        W99368  39.844   0.945   3.729
27043W        W99369  27.566  38.349   4.687
27044W        W99370  13.609  33.972  13.464
27045W        W99371  41.439  18.107   4.181
27046W        W99372  11.771  39.326  11.027
27047W        W99373   7.207  11.359  12.020
27048W        W99374  23.222  13.781  14.441
27049W        W99375  25.572  19.156  11.909
27050W        W99376  28.680  35.088   4.730
27051W        W99377  27.118   0.340   0.386
27052W        W99378  39.424  32.887   4.150
27053W        W99379  33.023  41.935   1.392
27054W        W99380  12.305  44.953   0.749
27055W        W99381  44.833   1.238   0.743
27056W        W99382  21.646   6.764  13.375
27057W        W99383  12.832  26.689   1.799
27058W        W99384  11.700  26.577  10.096
27059W        W99385  13.194  20.100   2.684
27060W        W99386  38.821  18.194  13.957
27061W        W99387   8.822   9.801   0.946
27062W        W99388  44.006  26.650   4.340
27063W        W99389  25.216   3.754   2.180
27064W        W99390  22.207  26.562   5.130
27065W        W99391  12.347   4.236  13.393
27066W        W99392  20.226  33.024   2.743
27067W        W99393  30.100  40.962   2.234
27068W        W99394  30.142  15.147   3.158
27069W        W99395  28.515  32.015  11.466
27070W        W99396  31.428  23.122   0.887
27071W        W99397  20.623  24.983   2.310
27072W        W99398  24.082  44.900  12.990
27073W        W99399  32.427  18.625   4.749
27074W        W99400  17.256  26.591  11.461
27075W        W99401   4.294  35.088   4.804
27076W        W99402   1.412  17.646   0.740
27077W        W99403   1.803  20.596   5.232
27078W        W99404  13.781   6.915  12.091
27079W        W99405  26.479  43.432   4.291
27080W        W99406  31.494  13.251   1.298
27081W        W99407   2.387   7.820  13.998
27082W        W99408  28.612  12.308   4.263
27083W        W99409  27.132  39.861  13.962
27084W        W99410  42.982  27.080   4.318
27085W        W99411  11.225   2.238   3.694
27086W        W99412  42.303  24.690  12.876
27087W        W99413   1.856  38.867   0.337
27088W        W99414  42.442  24.166  10.909
27089W        W99415  13.298  40.994  10.482
27090W        W99416  13.627  31.534  12.015
27091W        W99417  27.059  41.887  11.910
27092W        W99418  27.103  27.064   4.675
27093W        W99419  28.942   3.929  12.489
27094W        W99420   2.354  42.935  12.426
27095W        W99421  37.934  36.404  10.533
27096W        W99422  23.518  44.914   4.296
27097W        W99423  33.898  13.120  10.554
27098W        W99424  37.901  23.650   1.777
27099W        W99425  23.073   1.374   0.758
27100W        W99426  28.549   0.446   3.675
27101W        W99427   2.411  17.566  10.985
27102W        W99428   1.405   5.922  10.547
27103W        W99429  41.414  19.718   4.752
27104W        W99430  37.906  14.709   0.288
27105W        W99431   1.376   1.386  11.566
27106W        W99432  20.738  18.776  12.369
27107W        W99433  24.995  16.096   2.693
27108W        W99434  19.654  39.972  12.070
27109W        W99435  40.935  11.302  11.462
27110W        W99436  17.590   9.280   2.721
27111W        W99437  23.730   6.820   2.380
27112W        W99438  19.663  38.921   0.290
27113W        W99439  41.438   9.697  14.500
27114W        W99440  27.056  26.574  12.947
27115W        W99441  10.733   0.910  13.975
27116W        W99442  11.834  40.847  12.888
27117W        W99443  30.952  15.240  12.421
27118W        W99444  29.156   7.411  14.438
27119W        W99445  38.912  41.853  10.510
27120W        W99446  38.838  35.359  11.572
27121W        W99447   3.755  13.814  13.467
27122W        W99448  42.504   0.465   1.364
27123W        W99449  22.040  12.357  11.870
27124W        W99450   7.375  31.565  12.982
27125W        W99451  33.957   6.753  13.961
27126W        W99452  44.364  44.330   0.792
27127W        W99453  19.284  13.755   1.243
27128W        W99454   2.237   1.383  13.997
27129W        W99455   2.301  42.838   4.620
27130W        W99456   1.319  35.052   4.289
27131W        W99457  33.446  15.312  11.405
27132W        W99458  27.108   9.171   2.335
27133W        W99459  34.869   4.392   2.415
27134W        W99460  28.964  34.492   2.315
27135W        W99461  28.524  34.916  14.771
27136W        W99462  27.003  28.479   5.180
27137W        W99463  40.402   0.743  14.758
27138W        W99464  41.813  36.494   1.311
27139W        W99465   6.184   7.340   5.282
27140W        W99466  44.501   7.825   0.249
27141W        W99467  20.696  33.392  12.444
27142W        W99468  14.716  34.969  14.359
27143W        W99469  13.305  37.464   0.377
27144W        W99470  31.618  32.962  13.461
27145W        W99471  17.729  22.698   3.152
27146W        W99472   9.314  36.006   0.482
27147W        W99473  39.969  23.634  14.463
27148W        W99474  31.532  42.999   1.703
27149W        W99475  31.553  16.805  12.033
27150W        W99476   4.206  20.170  12.031
27151W        W99477   7.326   2.440   3.203
27152W        W99478  18.077  12.851  11.480
27153W        W99479  22.125  37.562  13.505
27154W        W99480  42.341  21.189  14.962
27155W        W99481   5.688  20.559   3.793
27156W        W99482   3.736  25.647   1.324
27157W        W99483  42.024   0.752  12.521
27158W        W99484   1.924  13.245  14.473
27159W        W99485   7.265  18.155  11.444
27160W        W99486  18.737  21.102  11.988
27161W        W99487  11.704   5.887  12.460
27162W        W99488  35.497  37.396  12.890
27163W        W99489   7.183   1.282  12.976
27164W        W99490   7.779   3.717  10.610
27165W        W99491   2.734   8.294   4.812
27166W        W99492  40.323  40.541   3.651
27167W        W99493  11.775   0.389   2.784
27168W        W99494  27.689  44.999  12.459
27169W        W99495  24.003  39.945   3.826
27170W        W99496  20.130  17.597   4.742
27171W        W99497   4.369  31.027   3.261
27172W        W99498  26.674  41.377  12.398
27173W        W99499  31.634  19.148   3.210
27174W        W99500   1.781   3.312   0.323
27175W        W99501  12.319   6.389  13.901
27176W        W99502   9.312   1.909   0.322
27177W        W99503  27.166  35.982   3.861
27178W        W99504   2.382  21.572  11.032
27179W        W99505   6.862  21.604   1.822
27180W        W99506  33.477   6.688   4.285
27181W        W99507   2.900  10.145  12.553
27182W        W99508  30.137  31.524   3.706
27183W        W99509  37.464  31.528  12.046
27184W        W99510  19.057  31.402  13.431
27185W        W99511   7.242  10.676   0.798
27186W        W99512  36.372  13.639  13.323
27187W        W99513  16.082  26.543  11.066
27188W        W99514  17.084  27.045   2.814
27189W        W99515  30.013  43.404   3.368
27190W        W99516  15.733  15.123   4.216
27191W        W99517   4.432  36.978  10.517
27192W        W99518  43.857  44.818   1.378
27193W        W99519  31.128  28.983   3.295
27194W        W99520  26.027  43.330  11.860
27195W        W99521  10.344   5.379  13.398
27196W        W99522  10.336  44.883   4.809
27197W        W99523   9.887  35.574  10.510
27198W        W99524  25.549  12.691   4.215
27199W        W99525  35.969  43.942  14.286
27200W        W99526  28.048  38.824   1.299
27201W        W99527  35.386  20.081   0.884
27202W        W99528   6.889  24.173   1.733
27203W        W99529  24.585  17.627   9.564
27204W        W99530  23.986  11.129  11.498
27205W        W99531   8.777   0.374  10.632
27206W        W99532  20.733  19.558  11.066
27207W        W99533  27.102  17.685  14.915
27208W        W99534  23.546  40.911  14.358
27209W        W99535  33.050  41.451   1.818
27210W        W99536  39.465  37.965   0.335
27211W        W99537   6.347  21.611   2.397
27212W        W99538  37.579  31.460  14.286
27213W        W99539  33.092  43.896   0.847
27214W        W99540  33.481  22.086   2.262
27215W        W99541  18.672  12.815  10.482
27216W        W99542   4.411  33.043  14.361
27217W        W99543  16.209  26.491   1.349
27218W        W99544  32.526  36.548   4.286
27219W        W99545  37.886  25.197   0.262
27220W        W99546  25.206  34.093  13.943
27221W        W99547  34.883  35.989   0.396
27222W        W99548   4.879  14.267   0.955
27223W        W99549  17.740  15.654  14.405
27224W        W99550  10.702  22.045  12.392
27225W        W99551  24.528  43.327  14.475
27226W        W99552  40.911  31.569  13.402
27227W        W99553  30.043   6.851  14.902
27228W        W99554  30.961  20.615  11.126
27229W        W99555   0.401  21.576  10.609
27230W        W99556  25.189  21.591  11.381
27231W        W99557  33.563  32.502  10.622
27232W        W99558  42.351  24.113  13.038
27233W        W99559  32.016   4.320  14.359
27234W        W99560   2.279   5.286   3.652
27235W        W99561  33.076   8.270  13.456
27236W        W99562  22.145  21.736   0.804
27237W        W99563  24.711  35.474  14.981
27238W        W99564  44.371  20.054   1.267
27239W        W99565   5.224   8.672  12.852
27240W        W99566  37.027   6.692   4.837
27241W        W99567  20.114  14.121  12.891
27242W        W99568  23.155   1.769  14.372
27243W        W99569  31.898  43.875  11.454
27244W        W99570   7.362  20.756  14.767
27245W        W99571  32.141  40.319   4.821
27246W        W99572   7.353  37.964   1.745
27247W        W99573  33.945  18.273   3.267
27248W        W99574  29.585   1.427   2.191
27249W        W99575  16.625   6.211   2.758
27250W        W99576  32.459  13.105   3.707
27251W        W99577  27.013  23.028  14.499
27252W        W99578  14.826   8.327   3.846
27253W        W99579  23.218   1.361  13.500
27254W        W99580  42.294   9.717   2.284
27255W        W99581  43.383  17.676  11.892
27256W        W99582  13.132   1.279  14.355
27257W        W99583  18.645  27.168   3.234
27258W        W99584  10.816   9.159   2.289
27259W        W99585  16.727  43.396   3.331
27260W        W99586  17.653   3.818   0.808
27261W        W99587  23.170   4.322  11.478
27262W        W99588  24.014  39.965  14.458
27263W        W99589  13.326  30.436   1.916
27264W        W99590  42.315  18.585  13.934
27265W        W99591  33.125  23.106   4.182
27266W        W99592  26.166  40.843  13.008
27267W        W99593  13.106  11.785  12.578
27268W        W99594  32.440  13.737  12.019
27269W        W99595  31.927  17.143   2.257
27270W        W99596  40.882   7.796   0.421
27271W        W99597  23.655  37.551  14.806
27272W        W99598  36.942  15.140  12.511
27273W        W99599  35.450  20.126   3.729
27274W        W99600  40.487  35.066   1.922
27275W        W99601   2.453  42.020   2.310
27276W        W99602   1.264  19.276   1.719
27277W        W99603  26.053  24.089   1.906
27278W        W99604  24.115  17.682   4.195
27279W        W99605  18.789  33.105  12.032
27280W        W99606  31.938   9.703   1.386
27281W        W99607  26.688   2.818  13.378
27282W        W99608  29.427  13.206   1.384
27283W        W99609  20.614   8.376  10.996
27284W        W99610  25.009  34.523  14.396
27285W        W99611  43.892  10.290  11.924
27286W        W99612   5.827  19.730   4.256
27287W        W99613  38.375  30.106   4.832
27288W        W99614  21.571  24.615  11.578
27289W        W99615  39.916  16.573  10.574
27290W        W99616  38.546   6.393  11.965
27291W        W99617  27.197   2.833   2.341
27292W        W99618  37.072  15.614  12.923
27293W        W99619  42.349  21.521   3.732
27294W        W99620   5.435  40.994   3.329
27295W        W99621   9.746  42.795  12.545
27296W        W99622  21.239  14.770  10.965
27297W        W99623  18.286  26.605  14.289
27298W        W99624  44.761  35.398  10.587
27299W        W99625  35.496  24.091   3.855
27300W        W99626   6.332  13.654  12.396
27301W        W99627  38.944   7.284   5.139
27302W        W99628  33.432  43.467  12.869
27303W        W99629  35.062  17.263   1.701
27304W        W99630  38.003  29.485  13.445
27305W        W99631   7.387  17.286   1.225
27306W        W99632  26.597  12.361   2.198
27307W        W99633  29.509   9.863  13.447
27308W        W99634  23.203  13.610  11.407
27309W        W99635  32.471   1.422   0.922
27310W        W99636  40.862   0.839   4.295
27311W        W99637  43.828  20.108   1.914
27312W        W99638  10.165  11.801  11.552
27313W        W99639  24.516   7.314  10.556
27314W        W99640  14.629  34.452   2.279
27315W        W99641   6.881  20.061  14.962
27316W        W99642  10.236   1.912  13.016
27317W        W99643  29.088  35.990  14.301
27318W        W99644  33.454  13.692  14.020
27319W        W99645  37.571  28.962   2.672
27320W        W99646  23.194   7.203   1.801
27321W        W99647  41.492  13.751  14.443
27322W        W99648  42.848  11.336  11.034
27323W        W99649  13.172  14.118  13.482
27324W        W99650   6.725   7.855   1.697
27325W        W99651  36.083  43.366   1.410
27326W        W99652  27.553  44.799   4.812
27327W        W99653  33.405  41.317   1.772
27328W        W99654  43.906   5.422   3.330
27329W        W99655  10.187   4.937  11.091
27330W        W99656  30.469  16.155   2.827
27331W        W99657  18.651  33.402  11.467
27332W        W99658   2.770  33.434   3.869
27333W        W99659  18.199  41.418   2.868
27334W        W99660  28.458  33.052  11.610
27335W        W99661  15.693  41.861   2.709
27336W        W99662  29.577  21.048  10.405
27337W        W99663  14.691  30.514  10.585
27338W        W99664  33.424   7.258  13.989
27339W        W99665  35.093  42.413   0.873
27340W        W99666  23.059  20.731  14.847
27341W        W99667   7.894   1.295   1.767
27342W        W99668  24.053  31.956   9.976
27343W        W99669  16.308   9.722  12.001
27344W        W99670  42.952  12.833   1.913
27345W        W99671   3.823  22.097  13.374
27346W        W99672  38.004  26.590   4.285
27347W        W99673   0.825   5.692  12.577
27348W        W99674  31.630  27.597  12.886
27349W        W99675  31.510  29.577  12.845
27350W        W99676  10.304  25.062   3.372
27351W        W99677   7.728  14.307  11.404
27352W        W99678  24.589  42.379   2.196
27353W        W99679  18.186  27.188  13.512
27354W        W99680  30.985   7.674  11.547
27355W        W99681  15.270  17.784   0.456
27356W        W99682  30.564  15.658  12.340
27357W        W99683  21.121   7.901  11.029
27358W        W99684  37.472  43.897   3.683
27359W        W99685  39.974   2.811   4.741
27360W        W99686  22.682  30.646   2.813
27361W        W99687  33.491  19.693  14.030
27362W        W99688   0.424   1.444   0.738
27363W        W99689  17.731  39.520  14.461
27364W        W99690  22.530  39.348   3.267
27365W        W99691  19.233  12.345  13.382
27366W        W99692  32.967  14.776   1.852
27367W        W99693   5.334   3.460  13.988
27368W        W99694  31.445   1.835   2.753
27369W        W99695  32.958  36.407  13.029
27370W        W99696  32.981  10.792  12.932
27371W        W99697  33.570  12.168   0.898
27372W        W99698  20.603  34.056   0.767
27373W        W99699  42.912   7.821   4.115
27374W        W99700   5.751   5.199   1.383
27375W        W99701  30.424  25.995  10.525
27376W        W99702   5.693  16.143  11.977
27377W        W99703  33.487   4.360  13.993
27378W        W99704   6.850  25.182  14.385
27379W        W99705   3.764  26.080   4.147
27380W        W99706  14.115  25.650  11.087
27381W        W99707  11.173   0.324  10.568
27382W        W99708  44.398  25.527  13.515
27383W        W99709  24.080   0.436  10.963
27384W        W99710  26.169  35.444   0.748
27385W        W99711   7.709  12.143   3.260
27386W        W99712   9.356  25.713  10.914
27387W        W99713  21.747   2.798  12.435
27388W        W99714   6.339  10.336   2.804
27389W        W99715  33.427  38.414   0.848
27390W        W99716  42.806  41.484   3.255
27391W        W99717  20.569  33.563   1.822
27392W        W99718  25.215  40.390   4.205
27393W        W99719  40.307   7.236   0.860
27394W        W99720  28.500   1.275   4.249
27395W        W99721  33.092  13.201  11.062
27396W        W99722   5.901  36.876   2.736
27397W        W99723  43.993  12.357  11.895
27398W        W99724  12.164  43.482   1.382
27399W        W99725  35.927  11.826  10.142
27400W        W99726  26.472  44.851   0.825
27401W        W99727  15.244  15.775   5.122
27402W        W99728  40.986  34.472  14.891
27403W        W99729   8.736  40.856  11.949
27404W        W99730  44.990  15.599   0.909
27405W        W99731   9.197   7.358  12.547
27406W        W99732  23.203  27.076  11.540
27407W        W99733  30.907  19.725  12.048
27408W        W99734  11.328  24.620   2.700
27409W        W99735  14.782   4.356  13.363
27410W        W99736  30.962  37.549   3.360
27411W        W99737  44.868   9.677   3.682
27412W        W99738  36.040  15.707   1.783
27413W        W99739  26.653   0.942   4.746
27414W        W99740   7.306  43.463   1.799
27415W        W99741  28.001  32.466  13.437
27416W        W99742  37.927  11.230   0.383
27417W        W99743  37.491  14.202   4.164
27418W        W99744  39.339  36.502   2.716
27419W        W99745  33.562  12.822   1.695
27420W        W99746  30.931  29.082  13.405
27421W        W99747  44.500  39.431   3.245
27422W        W99748  17.062  27.963   1.432
27423W        W99749  42.322  43.412   4.683
27424W        W99750   7.288  11.694   3.805
27425W        W99751  25.550  42.954   4.258
27426W        W99752  38.853  44.354  14.475
27427W        W99753  11.795  36.962   3.769
27428W        W99754   1.343  39.974   3.170
27429W        W99755  31.436  24.538  11.425
27430W        W99756  19.134  29.148   3.768
27431W        W99757   4.362  34.382  13.429
27432W        W99758  21.614  12.174  11.111
27433W        W99759  20.729   6.716  11.475
27434W        W99760   4.331  23.581   3.809
27435W        W99761  23.639  19.160  11.899
27436W        W99762  28.986  21.547   0.326
27437W        W99763  28.992   7.667  14.417
27438W        W99764   1.427  34.411  10.494
27439W        W99765  39.325  42.946   4.679
27440W        W99766  31.573  21.676   0.880
27441W        W99767  26.969  35.080  14.502
27442W        W99768  19.164  22.202   2.840
27443W        W99769   1.893  34.098  11.510
27444W        W99770  23.555  17.191   9.664
27445W        W99771  24.075   4.354   3.631
27446W        W99772   5.925  18.059   1.861
27447W        W99773  24.482  36.525   4.312
27448W        W99774  24.577   0.823  11.555
27449W        W99775  44.855  22.507   4.158
27450W        W99776   1.375  13.181  10.484
27451W        W99777  40.309  23.013   1.757
27452W        W99778   1.422  42.419  10.990
27453W        W99779  24.025  23.210  10.420
27454W        W99780  38.497   9.746   1.927
27455W        W99781  15.799  25.537  13.008
27456W        W99782  18.599  11.156  12.957
27457W        W99783   5.855   7.770  10.471
27458W        W99784  22.550   0.362  11.036
27459W        W99785   1.447  37.045  14.339
27460W        W99786  13.263  41.928   1.734
27461W        W99787   0.411  13.189  13.447
27462W        W99788  15.740   0.262  11.437
27463W        W99789  24.584  11.646  14.424
27464W        W99790  25.089  29.057  13.926
27465W        W99791   0.309   4.242   1.760
27466W        W99792   4.873  28.571   4.245
27467W        W99793  41.899  23.616  14.829
27468W        W99794  38.552  34.988   1.812
27469W        W99795   1.904   4.785   0.763
27470W        W99796  10.319  16.196   0.740
27471W        W99797   2.822   0.447   0.807
27472W        W99798  21.085  43.930  14.337
27473W        W99799  24.219  34.933   0.378
27474W        W99800  17.110  11.767   3.834
27475W        W99801  26.054  15.259   4.679
27476W        W99802  14.716  20.206   3.213
27477W        W99803  28.540  12.805  12.950
27478W        W99804   6.246   8.792   1.355
27479W        W99805   2.272  44.996   1.789
27480W        W99806  17.761  17.629  12.866
27481W        W99807  41.818  41.845   2.293
27482W        W99808   5.207  17.248  14.295
27483W        W99809  18.244  38.951  12.038
27484W        W99810  24.180   5.260  14.294
27485W        W99811  30.923  17.205  12.089
27486W        W99812  28.631   9.667  13.996
27487W        W99813  16.742  16.231   1.369
27488W        W99814  32.634  26.007  12.574
27489W        W99815  36.401  14.304   1.705
27490W        W99816  26.194  31.012   4.767
27491W        W99817  38.452   9.728  12.404
27492W        W99818  40.949  32.438  11.882
27493W        W99819  36.972  30.977  12.383
27494W        W99820  23.720  32.034  12.032
27495W        W99821  41.863  38.873   3.227
27496W        W99822  31.963  44.912  12.869
27497W        W99823  40.348  27.972  11.410
27498W        W99824  41.340   2.890   4.152
27499W        W99825  35.525  20.639  11.863
27500W        W99826   7.794   2.322   4.771
27501W        W99827  16.753  27.170   3.282
27502W        W99828  23.630  36.423   4.691
27503W        W99829  13.201  20.110   3.195
27504W        W99830   2.440  23.005   4.282
27505W        W99831  41.294  26.167  10.980
27506W        W99832   1.739   9.669  11.111
27507W        W99833  28.508   9.395  10.570
27508W        W99834  18.655  26.499  12.032
27509W        W99835  11.251  10.665   1.818
27510W        W99836  27.627   2.926  11.874
27511W        W99837  38.846  28.939  13.922
27512W        W99838  21.200  10.177  13.307
27513W        W99839  12.152   1.824  14.785
27514W        W99840  41.511  26.028   0.747
27515W        W99841  38.947  39.503  11.380
27516W        W99842  14.231  38.995   4.294
27517W        W99843  29.653  38.866  14.511
27518W        W99844  33.936  20.527  12.344
27519W        W99845  12.330  41.526   3.320
27520W        W99846  18.272   3.453  12.092
27521W        W99847  13.134  38.453  10.419
27522W        W99848  15.305  36.520   4.331
27523W        W99849   4.839  43.370   3.179
27524W        W99850  23.158  18.138   2.398
27525W        W99851  27.997  40.993  14.869
27526W        W99852  27.085  11.215   1.744
27527W        W99853  29.093  29.134   1.775
27528W        W99854   4.366  10.364   5.093
27529W        W99855   2.319  33.063   2.414
27530W        W99856  43.870  21.530   2.821
27531W        W99857  22.730   9.172  14.455
27532W        W99858  35.069   1.896  11.052
27533W        W99859  22.586   4.270   0.330
27534W        W99860  17.601  40.326  10.902
27535W        W99861  33.124  10.138  11.576
27536W        W99862  25.031  31.094  11.036
27537W        W99863  36.568  18.290   2.390
27538W        W99864   2.905  36.901  11.483
27539W        W99865   5.374  27.528   2.315
27540W        W99866   9.299  11.634  13.989
27541W        W99867  30.642  36.984  12.881
27542W        W99868   2.926   8.863   3.803
27543W        W99869  19.690  31.531  13.048
27544W        W99870  38.376  34.495  10.497
27545W        W99871  16.298  31.898  12.474
27546W        W99872  15.106  10.294   0.726
27547W        W99873  39.822  30.078  14.778
27548W        W99874   9.238   9.861   1.758
27549W        W99875   7.733  27.517  13.333
27550W        W99876  20.686  25.095   1.806
27551W        W99877  25.193  39.010   2.389
27552W        W99878  23.004  17.237  14.503
27553W        W99879   6.682  33.083  11.934
27554W        W99880  35.954  28.031  13.334
27555W        W99881  35.004  17.690   4.700
27556W        W99882  19.099   7.417   2.335
27557W        W99883  13.344  13.788   1.282
27558W        W99884  36.368   2.330  13.895
27559W        W99885  26.120  28.984   1.213
27560W        W99886  31.413  30.514  11.916
27561W        W99887  15.761   5.840   4.809
27562W        W99888  20.568  23.142   3.759
27563W        W99889  27.554  36.098  13.030
27564W        W99890  10.274  23.647  14.786
27565W        W99891  17.121   6.816  14.874
27566W        W99892   6.703  17.716   0.912
27567W        W99893  35.577  17.197  10.971
27568W        W99894  32.960  25.701  10.536
27569W        W99895  22.123  32.553   2.190
27570W        W99896   2.755  40.959  10.600
27571W        W99897   7.740   1.797   4.796
27572W        W99898  17.150  36.497  13.464
27573W        W99899  27.506   1.438  14.358
27574W        W99900  18.601  39.848  13.419
27575W        W99901  37.472  19.138  14.295
27576W        W99902   2.954  28.967   3.347
27577W        W99903  15.142  14.638  11.873
27578W        W99904  25.682   7.729  11.875
27579W        W99905  10.255  31.084   3.310
27580W        W99906  15.319  42.799   5.132
27581W        W99907  24.006   3.810  14.400
27582W        W99908  15.245  32.465  13.434
27583W        W99909   3.380   8.873  12.975
27584W        W99910  23.175   9.879   0.868
27585W        W99911  40.937   6.232   1.333
27586W        W99912  34.106  24.633  13.525
27587W        W99913  13.218  27.512   3.773
27588W        W99914  37.561  25.082  11.961
27589W        W99915  35.590  40.518   1.804
27590W        W99916   2.949  35.895  14.010
27591W        W99917  19.753  29.650  14.973
27592W        W99918  16.797   8.825   1.818
27593W        W99919  37.451   8.734   4.140
27594W        W99920  16.117  35.988  12.877
27595W        W99921  20.061  12.343  10.419
27596W        W99922  16.685  42.526  12.976
27597W        W99923  27.141   0.938   3.341
27598W        W99924  11.634  29.137   2.202
27599W        W99925   8.670  10.245   2.230
27600W        W99926  31.436  30.578  12.568
27601W        W99927  13.697  21.196   3.783
27602W        W99928  23.127  32.604  12.876
27603W        W99929  40.018  27.452   3.221
27604W        W99930  14.144  12.301  12.569
27605W        W99931  37.084  21.532   0.918
27606W        W99932   3.736  12.190  11.570
27607W        W99933  23.224  21.590   2.790
27608W        W99934   3.840  34.945   2.394
27609W        W99935  21.121  11.826  12.417
27610W        W99936  15.653  34.538  12.883
27611W        W99937  16.582  20.721  11.033
27612W        W99938  40.849  25.688  14.004
27613W        W99939   2.885  40.334  13.837
27614W        W99940  31.108  24.592   0.952
27615W        W99941  11.163  23.998  11.962
27616W        W99942  27.119   0.923  12.370
27617W        W99943  12.740  27.542  13.950
27618W        W99944  19.540  16.615  13.895
27619W        W99945  33.943  40.445   4.126
27620W        W99946  28.149  23.224   2.670
27621W        W99947  44.448  32.037  13.978
27622W        W99948  37.477  26.123  13.010
27623W        W99949  33.567  38.437  13.831
27624W        W99950  31.423  23.549   0.816
27625W        W99951   0.447   8.262  13.354
27626W        W99952  13.649  41.971  14.448
27627W        W99953  27.095  12.632  11.476
27628W        W99954  43.446  33.937   4.742
27629W        W99955  40.805  43.016   2.884
27630W        W99956  23.701   7.881  14.511
27631W        W99957  14.160  15.247   1.322
27632W        W99958  10.225  25.213   4.747
27633W        W99959  39.969  24.520  14.438
27634W        W99960  33.984  11.262   4.327
27635W        W99961  19.044  25.158   3.343
27636W        W99962  17.271  32.103  11.015
27637W        W99963  41.321  11.288  12.517
27638W        W99964   0.803  33.592  14.459
27639W        W99965  24.492  16.759  10.454
27640W        W99966  34.068  41.386  13.464
27641W        W99967  26.528   7.179  12.012
27642W        W99968  38.875  26.553   2.315
27643W        W99969  27.684  42.384  11.122
27644W        W99970   1.815   5.318  10.620
27645W        W99971  12.151  12.180  10.444
27646W        W99972  19.650   5.697   1.893
27647W        W99973   8.833  11.260  10.976
27648W        W99974  16.657  13.304  11.089
27649W        W99975  12.688  30.446   3.823
27650W        W99976   0.351  33.068  13.482
27651W        W99977  30.015  38.362   4.660
27652W        W99978  34.544   1.866  11.060
27653W        W99979  35.919  30.419   2.854
27654W        W99980  25.617   0.385  14.029
27655W        W99981  41.326  11.704  14.003
27656W        W99982   6.302  15.292   4.241
27657W        W99983  18.605   2.896   4.218
27658W        W99984   7.778  27.099  13.956
27659W        W99985   3.727  23.056   5.091
27660W        W99986  42.971   9.372  10.943
27661W        W99987  35.948  33.917  10.491
27662W        W99988  22.195  25.690   2.737
27663W        W99989   9.792  44.404   4.127
27664W        W99990  34.934  36.386   0.431
27665W        W99991  37.442  18.055   0.939
27666W        W99992  29.616  21.177  11.543
27667W        W99993  19.606  32.531   3.731
27668W        W99994  19.535  44.916  14.947
27669W        W99995  27.672  10.737   0.441
27670W        W99996  29.616  25.486  14.839
27671W        W99997  28.174  31.935  14.343
27672W        W99998  10.369   7.320   0.754
27673W        W99999   3.925   2.375  14.514
27674W        W    0   1.920  37.420   4.276
27675W        W    1  35.968  44.952   0.381
27676W        W    2  28.929  39.928  11.932
27677W        W    3  20.722  18.079  11.937
27678W        W    4   9.378   2.941   0.401
27679W        W    5  30.551  22.008  13.900
27680W        W    6  41.526  43.901  13.537
27681W        W    7  15.142  39.333  12.344
27682W        W    8  24.103  36.997  12.019
27683W        W    9  16.811  33.996  12.462
27684W        W   10  41.529  25.593   1.798
27685W        W   11  43.767  16.095  10.540
27686W        W   12  28.041  43.926  13.503
27687W        W   13  36.941  42.014   4.206
27688W        W   14  12.742  16.723  10.610
27689W        W   15  43.828  28.675  13.952
27690W        W   16  20.709   8.332   0.469
27691W        W   17  30.613  36.488   4.226
27692W        W   18  22.059   1.930   0.731
27693W        W   19  15.093  17.702  12.515
27694W        W   20   3.867  20.637   1.763
27695W        W   21  29.147  43.383  10.411
27696W        W   22  13.139  44.402  10.945
27697W        W   23  24.136  29.629   1.902
27698W        W   24  27.067  43.829  11.409
27699W        W   25   8.680   8.898  10.096
27700W        W   26   4.412  27.690   2.181
27701W        W   27  12.228  43.956   4.134
27702W        W   28   1.465  36.843   4.631
27703W        W   29  24.553  15.756  10.910
27704W        W   30  31.404  40.374   3.290
27705W        W   31  17.143  44.779  13.031
27706W        W   32  31.958   8.691  14.977
27707W        W   33  42.852  22.670  14.503
27708W        W   34  30.499  41.994  11.461
27709W        W   35  41.434  42.395   3.670
27710W        W   36  23.035   9.341  11.927
27711W        W   37  18.283  14.736  14.916
27712W        W   38  40.332   4.822   1.924
27713W        W   39  28.564  12.691   2.196
27714W        W   40  44.279  21.043  11.433
27715W        W   41  26.017   3.377  12.578
27716W        W   42  43.379  43.486   0.839
27717W        W   43  26.135  15.194   2.270
27718W        W   44  24.483   8.871  11.524
27719W        W   45  35.975  29.972  13.820
27720W        W   46   4.312  20.757   0.327
27721W        W   47  24.179  24.994   5.238
27722W        W   48   7.230  17.669  13.434
27723W        W   49  10.177  24.497   0.262
27724W        W   50  44.843  30.045  13.344
27725W        W   51   4.937  22.049  10.596
27726W        W   52  37.952  17.124   4.351
27727W        W   53   0.379  43.948  14.900
27728W        W   54  13.147   5.775   0.317
27729W        W   55  28.508  36.019   1.907
27730W        W   56   2.442  10.858   0.879
27731W        W   57  36.903   3.899   2.205
27732W        W   58  41.041  13.752  11.549
27733W        W   59  15.281   1.325   0.879
27734W        W   60  21.026  10.142   4.622
27735W        W   61  34.961  11.718  14.298
27736W        W   62  21.750   5.330  12.904
27737W        W   63  32.941  20.751  12.475
27738W        W   64  23.520  12.265  11.107
27739W        W   65  14.267  15.086  13.543
27740W        W   66   9.826   4.340  13.837
27741W        W   67  13.111  37.076  14.365
27742W        W   68  39.838  35.936  13.993
27743W        W   69  17.623  36.081  10.478
27744W        W   70  24.515   1.793   2.229
27745W        W   71  43.392  42.777  12.930
27746W        W   72   2.868  36.071  11.374
27747W        W   73  34.062  41.014  12.446
27748W        W   74  16.114  42.906  11.574
27749W        W   75  15.191  44.925   1.707
27750W        W   76  34.932   0.885   0.793
27751W        W   77   3.330   5.793  13.544
27752W        W   78  14.737  39.895  11.988
27753W        W   79  25.042  12.317   2.715
27754W        W   80  13.740   1.468  11.512
27755W        W   81  14.269  32.455   2.320
27756W        W   82  24.576  19.765   4.276
27757W        W   83  38.364  41.792   2.329
27758W        W   84  39.898  26.536   0.465
27759W        W   85  23.666   1.953  12.869
27760W        W   86  30.440  22.613  13.966
27761W        W   87   6.315   4.856   0.300
27762W        W   88  26.636  24.595  10.921
27763W        W   89  33.419  36.895   0.478
27764W        W   90  32.460  21.586   4.599
27765W        W   91   8.174   0.375   4.340
27766W        W   92   1.941   6.702   1.935
27767W        W   93   4.228  32.615   2.794
27768W        W   94  35.559  24.160   2.403
27769W        W   95   4.278  35.462   4.182
27770W        W   96  41.468  31.046   1.346
27771W        W   97  20.047   8.720  11.463
27772W        W   98  21.757   9.881  12.373
27773W        W   99  20.055   8.209   0.458
27774W        W  100  38.395  16.688  13.869
27775W        W  101  17.089   8.270  13.011
27776W        W  102  34.961  15.210   0.881
27777W        W  103  26.483  21.033  13.531
27778W        W  104  19.540   6.780  12.398
27779W        W  105  38.932   7.851   4.167
27780W        W  106  23.659  39.944   2.812
27781W        W  107  11.822  29.070  12.019
27782W        W  108  16.610   1.320  12.866
27783W        W  109  35.507  37.400   1.302
27784W        W  110  27.045   0.988  14.899
27785W        W  111   2.440  41.378  13.319
27786W        W  112  32.995   5.329  12.390
27787W        W  113  11.721  24.538  12.421
27788W        W  114  13.262   5.863   4.317
27789W        W  115  31.030  17.800  12.974
27790W        W  116  23.082  22.175  11.439
27791W        W  117   8.301   3.327   2.379
27792W        W  118  24.109   4.207  10.406
27793W        W  119  28.175   1.822   0.254
27794W        W  120   1.849  39.955   0.302
27795W        W  121  30.439  20.258   0.419
27796W        W  122  22.637  32.028   3.152
27797W        W  123  34.912   7.672  14.803
27798W        W  124   0.283  13.703   2.194
27799W        W  125  37.037   3.394  11.066
27800W        W  126  10.809  20.624   3.856
27801W        W  127  32.431  30.534   4.807
27802W        W  128  35.033   2.928  13.825
27803W        W  129  27.123  34.423  12.021
27804W        W  130  27.579  25.015   3.810
27805W        W  131  25.180  28.477  10.582
27806W        W  132  42.372  18.133   3.372
27807W        W  133   2.722  35.087   1.910
27808W        W  134  19.145   0.389   1.787
27809W        W  135  12.823   3.757  14.327
27810W        W  136  32.045   8.232  13.954
27811W        W  137  31.033  29.549  13.309
27812W        W  138  29.577  10.375   3.286
27813W        W  139  30.945   6.822   2.777
27814W        W  140  27.665  36.884   2.667
27815W        W  141  38.851  41.450  11.409
27816W        W  142  35.409   1.849   2.266
27817W        W  143   8.266  42.805  12.896
27818W        W  144   8.282  11.350   0.729
27819W        W  145  38.949  22.619  10.921
27820W        W  146   0.750  28.155  13.364
27821W        W  147  15.286  29.999   0.961
27822W        W  148  28.121  32.997  12.077
27823W        W  149  24.669  29.527   4.259
27824W        W  150   3.435  17.106   0.760
27825W        W  151  11.197  24.611  11.873
27826W        W  152  19.103  29.971   2.861
27827W        W  153  31.969   7.882  11.502
27828W        W  154  39.543  28.507   3.168
27829W        W  155  41.347   6.277  13.483
27830W        W  156  24.214   3.232   2.819
27831W        W  157  20.596   2.767  12.506
27832W        W  158   8.674  36.853   4.252
27833W        W  159  24.616  38.943   5.320
27834W        W  160  18.158   5.796  13.902
27835W        W  161  41.402  19.619   1.228
27836W        W  162  21.072  27.499   3.755
27837W        W  163  39.809   3.392  14.459
27838W        W  164  35.404  29.544  11.091
27839W        W  165  42.891  41.490   0.806
27840W        W  166  28.011  20.735   4.201
27841W        W  167   8.354  29.587  14.800
27842W        W  168  44.804   2.430   0.362
27843W        W  169   3.423  28.974  12.984
27844W        W  170  42.882  33.416   5.099
27845W        W  171  36.911  38.829  10.644
27846W        W  172  44.871  10.262  14.931
27847W        W  173   7.249  40.953  12.541
27848W        W  174  43.901  13.164   2.241
27849W        W  175  26.656  33.894  12.964
27850W        W  176  38.393  20.601  13.485
27851W        W  177  30.429  14.245  10.501
27852W        W  178  20.640   2.924   0.831
27853W        W  179  22.062   2.370  11.501
27854W        W  180  13.762  40.470  14.955
27855W        W  181  23.133  30.565   0.867
27856W        W  182  35.924  21.641   3.270
27857W        W  183  14.148  31.150  10.608
27858W        W  184   1.381  18.689  11.039
27859W        W  185  22.501  40.523   4.299
27860W        W  186  27.988  28.026   1.804
27861W        W  187  26.056  17.559   3.854
27862W        W  188   5.860  34.028  13.356
27863W        W  189  14.304  34.438   4.135
27864W        W  190  29.040  15.300   1.355
27865W        W  191  10.822  36.478   0.919
27866W        W  192  44.818  41.446  11.091
27867W        W  193  35.088  43.329   4.305
27868W        W  194   3.277  44.278  10.935
27869W        W  195   9.152  21.558   4.212
27870W        W  196   9.883  27.982   2.378
27871W        W  197  36.367  23.202  10.504
27872W        W  198  35.395  42.971  12.460
27873W        W  199  42.989  30.415   4.704
27874W        W  200  24.632  42.016   3.182
27875W        W  201   3.429  34.940   4.655
27876W        W  202  22.199   9.813   0.381
27877W        W  203  40.518  41.016   1.444
27878W        W  204   4.221  35.553  12.988
27879W        W  205  12.830  31.105  10.440
27880W        W  206  25.499  37.346   3.734
27881W        W  207  38.460  23.105  12.048
27882W        W  208   1.916  26.620  14.364
27883W        W  209   8.285  32.518  10.975
27884W        W  210   7.205   1.976   2.741
27885W        W  211   0.258   4.415  12.982
27886W        W  212  13.642  24.612  11.506
27887W        W  213  27.007  16.140  13.910
27888W        W  214  34.006  30.136   2.328
27889W        W  215   0.887  23.735   4.636
27890W        W  216  16.225  18.214  13.440
27891W        W  217  19.120   8.661  14.028
27892W        W  218   4.908   0.470  13.455
27893W        W  219   5.693  15.686   1.820
27894W        W  220  21.689  41.318  12.050
27895W        W  221   1.807  27.116   1.700
27896W        W  222  10.835   4.872  11.550
27897W        W  223  16.727  12.610  13.956
27898W        W  224   1.826  21.611   0.399
27899W        W  225  27.145  36.086  14.856
27900W        W  226  29.161  16.577   2.286
27901W        W  227  20.568  27.538  14.758
27902W        W  228  30.418  15.723   4.268
27903W        W  229  44.427  24.010  11.409
27904W        W  230   5.766   7.172  13.502
27905W        W  231  12.147  44.501  10.448
27906W        W  232  38.536   4.715  11.567
27907W        W  233  16.729  36.577   2.179
27908W        W  234  23.234   1.902  12.917
27909W        W  235   6.828   5.205   3.261
27910W        W  236   2.330  22.150   1.335
27911W        W  237  40.802   4.756  13.954
27912W        W  238  44.905   9.885  13.412
27913W        W  239  39.862  33.556  13.382
27914W        W  240   5.922  26.963   3.229
27915W        W  241   0.943  31.448  13.437
27916W        W  242  11.789   4.258  10.545
27917W        W  243   3.885  28.996   2.409
27918W        W  244  44.929  23.198   4.242
27919W        W  245  23.015  23.239  13.872
27920W        W  246  16.770   8.214  11.009
27921W        W  247   4.928  29.483   0.441
27922W        W  248  11.693  37.027   3.272
27923W        W  249   5.283  29.628   4.185
27924W        W  250  10.378  22.503  11.427
27925W        W  251   6.682  19.209   0.268
27926W        W  252  14.100   4.375  13.428
27927W        W  253   5.381  30.054  13.376
27928W        W  254  33.454  42.879  13.488
27929W        W  255   9.877  35.009   1.741
27930W        W  256  21.203  29.103  14.464
27931W        W  257   7.366  13.812  12.093
27932W        W  258  36.390  22.622  14.009
27933W        W  259  29.589  21.625  13.012
27934W        W  260  43.889  43.317  10.410
27935W        W  261  18.277  43.815   2.360
27936W        W  262   7.414  42.970   2.702
27937W        W  263  21.145  23.496  11.979
27938W        W  264   4.849  38.559   4.743
27939W        W  265  28.571  43.378  13.879
27940W        W  266   3.220  43.974   4.699
27941W        W  267  21.126  28.533   4.180
27942W        W  268  23.726  25.627  11.054
27943W        W  269  36.861   5.724   0.763
27944W        W  270   0.937  43.911  10.047
27945W        W  271  23.234  26.978   0.745
27946W        W  272  11.706  22.635   1.271
27947W        W  273   7.333  29.056  13.352
27948W        W  274  31.146  13.252  13.449
27949W        W  275  11.176   3.235  14.440
27950W        W  276   4.740   5.336  14.345
27951W        W  277  38.537  26.619   2.289
27952W        W  278   3.836  15.648  12.575
27953W        W  279  25.492  33.475   2.324
27954W        W  280  19.743  12.312   0.358
27955W        W  281  24.112  35.555   1.791
27956W        W  282  11.201  35.496  13.530
27957W        W  283  35.550  24.478   2.240
27958W        W  284  19.570  44.393  14.860
27959W        W  285  15.643  17.273  12.976
27960W        W  286   3.792  35.077   1.258
27961W        W  287  34.546  32.018  10.046
27962W        W  288   7.350  15.195   4.699
27963W        W  289  25.557   9.173   3.695
27964W        W  290  34.445  22.565  14.824
27965W        W  291  17.153  43.431  13.359
27966W        W  292  14.321  37.449  11.500
27967W        W  293  24.666   4.301   0.258
27968W        W  294   2.882  25.977  12.961
27969W        W  295  29.458  17.772  12.416
27970W        W  296  28.951  34.897  14.893
27971W        W  297  27.020  32.560  10.941
27972W        W  298  16.305  10.784   2.391
27973W        W  299  10.703  26.506  11.915
27974W        W  300  21.129  37.479   1.860
27975W        W  301  39.459  32.928  11.882
27976W        W  302  34.982  13.161  10.535
27977W        W  303  30.930  18.726  12.869
27978W        W  304  31.453  14.200  11.382
27979W        W  305  22.744  40.017   3.646
27980W        W  306  25.709  22.050  14.379
27981W        W  307  43.315  20.767  12.962
27982W        W  308   4.382   8.250  12.914
27983W        W  309  11.661  10.285   1.914
27984W        W  310  31.498  28.603  14.397
27985W        W  311  40.008  30.033   1.285
27986W        W  312  16.694  11.322  13.366
27987W        W  313  36.479   2.931   1.830
27988W        W  314  34.065  35.569   1.385
27989W        W  315  26.461  28.050   3.307
27990W        W  316   1.761  33.019   4.242
27991W        W  317   3.254  13.260   2.278
27992W        W  318  38.001  25.075   1.906
27993W        W  319  28.585  43.428  11.879
27994W        W  320  28.604  30.952  11.884
27995W        W  321  15.714  43.335   0.838
27996W        W  322  23.648  17.123   9.981
27997W        W  323   7.772  41.431   4.189
27998W        W  324  12.775   6.337   2.665
27999W        W  325  42.418  20.250  13.853
28000W        W  326  42.894   6.228  11.045
28001W        W  327  30.977  14.248  12.900
28002W        W  328  22.581  12.223   1.357
28003W        W  329  44.915   6.198  13.439
28004W        W  330  16.718  40.965  13.354
28005W        W  331   2.385  14.802   3.290
28006W        W  332  44.009   6.298  11.881
28007W        W  333  11.207  34.917   3.658
28008W        W  334  19.662   2.781   2.717
28009W        W  335  17.667   5.368  13.906
28010W        W  336  28.541   3.914   4.222
28011W        W  337  15.114  27.572  10.971
28012W        W  338  33.489   0.437  14.310
28013W        W  339   1.852  15.117   0.883
28014W        W  340   6.877  32.400  14.438
28015W        W  341  14.828   4.827  12.564
28016W        W  342  26.976  34.536  13.346
28017W        W  343  13.161  19.634  11.448
28018W        W  344  37.861  40.005   4.722
28019W        W  345  25.537  34.540   4.653
28020W        W  346  13.834  27.663  14.976
28021W        W  347  36.564  18.233   3.294
28022W        W  348  31.948  18.637   5.192
28023W        W  349  42.332   4.837   3.340
28024W        W  350  21.226  14.789   1.920
28025W        W  351  10.331  37.973   1.372
28026W        W  352  40.494   0.464   1.340
28027W        W  353  19.082   9.210  12.023
28028W        W  354  29.944  15.238   4.670
28029W        W  355  19.651  11.749  14.851
28030W        W  356  31.137  11.213  11.468
28031W        W  357  18.654  10.659   2.352
28032W        W  358   5.870  17.698  11.470
28033W        W  359  20.103   4.931  13.348
28034W        W  360  16.095  38.469  11.856
28035W        W  361   3.715  38.549  14.975
28036W        W  362  29.144  13.245  10.971
28037W        W  363  41.973  44.849   1.307
28038W        W  364  29.979  23.511  12.975
28039W        W  365  38.430   3.354  12.430
28040W        W  366  29.961  16.209   0.267
28041W        W  367   3.304   6.744  14.494
28042W        W  368   4.763  12.820   1.728
28043W        W  369  13.737   1.341   4.759
28044W        W  370  43.786  17.773   4.736
28045W        W  371  28.184  38.069   3.327
28046W        W  372  14.608  24.576   1.727
28047W        W  373   1.969  17.117  10.408
28048W        W  374  24.021  20.606  10.992
28049W        W  375  39.543  13.137   1.816
28050W        W  376   8.754  15.623  12.496
28051W        W  377   7.745  16.285  14.997
28052W        W  378  32.566  15.263   4.330
28053W        W  379  39.820  22.654  14.468
28054W        W  380  27.044  10.353   3.283
28055W        W  381  13.144  36.522  11.444
28056W        W  382   3.358   0.270   4.696
28057W        W  383   2.320  12.139   3.166
28058W        W  384   7.338  37.894  11.926
28059W        W  385  41.836  33.945   0.943
28060W        W  386  12.123  32.073   5.117
28061W        W  387  21.019   1.248   4.665
28062W        W  388  16.268   4.283  11.481
28063W        W  389  25.711  20.058   2.877
28064W        W  390  21.712  13.839  13.869
28065W        W  391  25.524  42.033   3.754
28066W        W  392  21.602  38.551   4.159
28067W        W  393  37.873  43.902  14.821
28068W        W  394  30.000  43.909  14.798
28069W        W  395  26.121  36.888   4.698
28070W        W  396   2.848  10.200  12.903
28071W        W  397  28.030  27.577   4.316
28072W        W  398  33.057  24.112  11.462
28073W        W  399   6.235  34.411  13.830
28074W        W  400  20.764  24.561  11.964
28075W        W  401  32.551  11.337  11.583
28076W        W  402  30.929  11.196  14.348
28077W        W  403  16.797  21.621   4.661
28078W        W  404   7.285  28.624   3.381
28079W        W  405  11.361  31.404   4.699
28080W        W  406  37.555  40.858   0.800
28081W        W  407  30.136  18.722  14.476
28082W        W  408  36.077  44.397  14.805
28083W        W  409   4.216  41.980   3.184
28084W        W  410   7.341   5.261   4.769
28085W        W  411  32.072  22.144  10.542
28086W        W  412  38.494  26.625   4.343
28087W        W  413   7.691  37.028   3.231
28088W        W  414  21.536  43.858  14.354
28089W        W  415  38.445  21.719  12.909
28090W        W  416  25.052  33.918  10.619
28091W        W  417   0.383  22.162  11.999
28092W        W  418  31.962   1.354  11.406
28093W        W  419  44.966   7.286  12.442
28094W        W  420  21.151  41.846   1.372
28095W        W  421  23.659  38.450  10.949
28096W        W  422  13.218   1.887  11.981
28097W        W  423  12.192   3.335  13.805
28098W        W  424  25.585   7.873   3.650
28099W        W  425  36.946  10.779   3.715
28100W        W  426  25.696  16.710  14.767
28101W        W  427  27.519  15.255   0.338
28102W        W  428   6.245  29.115   4.655
28103W        W  429  26.989  43.808   2.752
28104W        W  430  13.691  12.754   2.375
28105W        W  431  31.982  32.021  12.089
28106W        W  432   3.733  30.114   3.285
28107W        W  433  27.039  36.526   2.758
28108W        W  434  22.660   4.348  11.039
28109W        W  435  28.581   7.366  10.564
28110W        W  436  30.510   9.707   4.212
28111W        W  437  44.369  11.842  12.360
28112W        W  438  17.177   8.796   2.732
28113W        W  439  21.196  29.971   2.719
28114W        W  440   4.830  38.981   1.717
28115W        W  441  44.343  38.888   3.325
28116W        W  442  18.655  34.481  11.563
28117W        W  443  11.138  28.086   3.374
28118W        W  444  26.495  31.587  12.895
28119W        W  445  34.440  22.559  11.420
28120W        W  446  17.740   8.837  12.424
28121W        W  447   8.226  36.950  10.890
28122W        W  448   9.676  24.513  11.124
28123W        W  449   7.370  11.807  10.892
28124W        W  450   3.329  12.362   1.923
28125W        W  451  23.013   9.749   3.869
28126W        W  452  40.345  38.532  14.953
28127W        W  453  25.012  26.485   0.310
28128W        W  454  13.255   9.702  13.954
28129W        W  455   2.431   5.195   4.780
28130W        W  456  39.928  35.941  12.887
28131W        W  457  29.618  28.985   1.817
28132W        W  458  29.986  42.526   3.231
28133W        W  459  13.198  24.607   3.292
28134W        W  460  41.790  24.483  12.407
28135W        W  461  32.417  21.130  14.853
28136W        W  462  10.760  15.710  13.382
28137W        W  463  36.492   5.234   4.784
28138W        W  464   8.844  35.906  14.514
28139W        W  465  31.539  20.600  14.434
28140W        W  466  26.639  37.002   1.302
28141W        W  467   0.490  16.109  12.473
28142W        W  468  43.801  39.478  14.288
28143W        W  469  34.904  40.304  10.952
28144W        W  470   6.219  31.127  11.579
28145W        W  471  43.012   5.907  10.526
28146W        W  472  38.059   6.324  13.351
28147W        W  473  43.992   8.270   1.897
28148W        W  474  23.661  17.794  12.951
28149W        W  475   2.347  11.721   3.716
28150W        W  476   7.784  42.011   4.149
28151W        W  477  39.522  24.681   4.624
28152W        W  478  23.499  41.298  11.421
28153W        W  479  13.300   2.425  14.004
28154W        W  480  21.190  24.550   1.714
28155W        W  481  29.424   5.743  14.968
28156W        W  482  44.008   8.343   4.675
28157W        W  483  10.159   7.222  13.501
28158W        W  484  12.847  10.653  13.401
28159W        W  485  37.578  35.060   3.671
28160W        W  486  39.455  21.568  11.005
28161W        W  487  37.043  13.670   5.714
28162W        W  488  26.591   4.721  11.940
28163W        W  489  21.249  37.555   2.867
28164W        W  490   9.178  35.358  11.097
28165W        W  491  27.145  20.748  10.538
28166W        W  492  12.231   5.817  12.536
28167W        W  493  21.696  30.986   0.345
28168W        W  494  29.470   3.428  10.615
28169W        W  495  20.522  31.918  14.847
28170W        W  496  10.647  27.603   0.911
28171W        W  497  13.346   0.802  11.465
28172W        W  498  36.963  38.498   4.750
28173W        W  499  12.181  22.608  10.469
28174W        W  500  39.474  22.675   3.745
28175W        W  501  22.159  43.821  14.959
28176W        W  502  11.170  29.045   2.198
28177W        W  503  13.237  26.696  13.441
28178W        W  504  41.424  14.602  13.360
28179W        W  505  41.917  25.011   0.301
28180W        W  506  19.775  24.642   3.790
28181W        W  507   2.333  42.308  14.877
28182W        W  508   5.325  11.788  13.060
28183W        W  509  38.405  33.407   0.948
28184W        W  510  20.747  18.723   2.704
28185W        W  511  39.358  34.060   4.185
28186W        W  512  15.173  27.455  12.833
28187W        W  513   7.301  16.269  11.556
28188W        W  514   1.465  30.624   0.964
28189W        W  515  32.633  22.507  12.846
28190W        W  516  26.627   3.897  11.491
28191W        W  517   5.861  37.347  10.445
28192W        W  518  31.994   0.252  12.358
28193W        W  519  44.378   2.444   4.210
28194W        W  520  31.969  22.717  12.995
28195W        W  521  20.172  30.447   1.828
28196W        W  522   3.910  42.485  12.061
28197W        W  523  28.664  18.623  12.002
28198W        W  524  18.161  22.549  13.453
28199W        W  525  37.565  27.070   2.274
28200W        W  526  41.509   3.712  11.976
28201W        W  527   3.350  15.623  10.956
28202W        W  528  24.977  33.935  14.353
28203W        W  529   8.669  11.227   2.776
28204W        W  530  35.590  41.977   0.339
28205W        W  531  12.821  15.185   0.337
28206W        W  532  32.517   0.389   3.221
28207W        W  533  32.031  17.196  13.846
28208W        W  534   8.179  44.279   0.808
28209W        W  535  19.091  39.465  10.944
28210W        W  536  28.601  26.109   0.852
28211W        W  537  18.130  26.472  13.883
28212W        W  538  44.995  21.220  14.329
28213W        W  539  12.801  42.819   3.255
28214W        W  540  27.984  36.072   4.767
28215W        W  541  35.082  44.972   2.195
28216W        W  542   6.291   7.666  12.005
28217W        W  543  29.141  18.716  11.997
28218W        W  544  28.092   5.798   2.203
28219W        W  545   3.722  15.267  12.827
28220W        W  546   1.347  12.156   9.949
28221W        W  547  33.420  30.578   3.731
28222W        W  548  29.018   0.961   1.762
28223W        W  549  21.577   5.257  11.107
28224W        W  550   9.727  29.634   0.311
28225W        W  551   8.854  33.433   3.630
28226W        W  552  21.641  22.604   0.947
28227W        W  553  15.747   3.819   0.876
28228W        W  554   3.276  33.088  13.835
28229W        W  555  12.705   0.485   1.290
28230W        W  556  18.726   9.732  13.867
28231W        W  557  28.151   7.178  11.455
28232W        W  558  40.426  44.339   3.317
28233W        W  559  11.821  26.087   0.262
28234W        W  560  19.736  24.581   1.879
28235W        W  561  43.350  31.449  14.850
28236W        W  562  28.936  11.237   4.780
28237W        W  563   4.925   0.811   2.902
28238W        W  564  25.646  15.802   4.168
28239W        W  565   1.948  13.149  13.982
28240W        W  566  29.638  33.984   3.220
28241W        W  567  29.969   0.473  14.997
28242W        W  568  16.201  15.815  13.363
28243W        W  569  29.656  35.863  13.911
28244W        W  570   1.237  27.078  11.420
28245W        W  571  37.875  23.216  14.445
28246W        W  572  39.900   5.347   2.794
28247W        W  573   0.746  38.950  10.088
28248W        W  574  41.498  31.008  14.516
28249W        W  575  44.442  23.583   3.861
28250W        W  576  44.275   3.936   0.325
28251W        W  577  33.467  14.253  12.868
28252W        W  578   7.322   0.316  11.975
28253W        W  579   1.385  17.730  12.863
28254W        W  580  17.666  16.733  13.829
28255W        W  581  14.649  14.250   3.645
28256W        W  582  11.219  38.525  12.368
28257W        W  583  22.157  20.054  13.367
28258W        W  584   7.887  13.765  14.893
28259W        W  585  35.499   2.346   2.279
28260W        W  586  19.777  18.097  10.997
28261W        W  587  18.578  32.081  12.021
28262W        W  588  17.771  38.397   3.815
28263W        W  589  18.100  22.631  14.767
28264W        W  590  43.477  10.666   1.742
28265W        W  591  24.165   7.248   0.819
28266W        W  592  19.724  17.285   1.914
28267W        W  593  17.131  33.938   3.193
28268W        W  594  38.911  29.599  13.976
28269W        W  595  36.586   7.262   2.769
28270W        W  596  28.047   0.293  11.540
28271W        W  597  41.392  15.679  10.913
28272W        W  598  16.726   0.778  12.916
28273W        W  599  31.417  22.702  13.026
28274W        W  600  41.878  25.061   5.277
28275W        W  601  10.763   3.218  13.797
28276W        W  602  40.901  44.753   0.357
28277W        W  603   2.354  42.283   3.336
28278W        W  604  35.876   7.752   2.343
28279W        W  605   4.262  17.598   4.162
28280W        W  606  44.352  39.838   1.241
28281W        W  607  14.595  17.245   1.362
28282W        W  608  36.960   0.380  10.435
28283W        W  609   7.814  41.417   5.179
28284W        W  610  39.050  28.160  13.332
28285W        W  611  19.708  13.615   0.409
28286W        W  612  42.998  42.869  13.816
28287W        W  613  13.337  16.287   2.834
28288W        W  614   7.225  32.068  11.573
28289W        W  615  25.510  41.446  13.380
28290W        W  616  40.374  32.544   2.230
28291W        W  617  35.574  30.612  13.941
28292W        W  618  42.378  21.096  11.992
28293W        W  619  22.109  27.003   3.848
28294W        W  620  15.697  16.590   3.748
28295W        W  621   2.444  42.807   3.698
28296W        W  622  11.289  22.569   1.398
28297W        W  623   8.819   9.354  13.481
28298W        W  624  43.444  11.162  14.388
28299W        W  625  43.399  31.915  12.916
28300W        W  626  13.268  29.484   3.827
28301W        W  627  14.734  18.179  10.498
28302W        W  628   2.939  44.883   0.248
28303W        W  629  17.785  40.022  11.440
28304W        W  630  38.352  18.605   3.375
28305W        W  631   5.232   2.328  11.406
28306W        W  632  31.083  35.027   0.727
28307W        W  633   7.173  33.079   1.266
28308W        W  634  20.693   0.867   3.231
28309W        W  635  26.505  28.638  12.032
28310W        W  636  43.830  39.519   0.829
28311W        W  637  36.569   5.761   1.845
28312W        W  638  13.158  29.038   3.795
28313W        W  639  13.255  44.833  14.009
28314W        W  640   3.243  18.162   2.254
28315W        W  641  33.498  25.195  11.930
28316W        W  642   9.649   8.387   3.710
28317W        W  643   6.781  41.841  11.908
28318W        W  644  16.776   9.150   2.217
28319W        W  645  40.884   1.410   4.700
28320W        W  646   5.232  43.975  13.951
28321W        W  647  43.394  20.640   2.769
28322W        W  648  28.004  10.721  14.303
28323W        W  649   9.323  43.984   1.926
28324W        W  650   8.661   6.413   5.126
28325W        W  651  40.946   1.480  14.405
28326W        W  652  30.494   1.880  14.824
28327W        W  653  26.544  11.341  14.438
28328W        W  654  24.719   0.379  11.012
28329W        W  655   8.872  29.447   3.358
28330W        W  656   6.819  15.091   3.258
28331W        W  657  33.969  36.514   1.294
28332W        W  658  28.650  32.974  13.825
28333W        W  659   3.274  40.442   4.236
28334W        W  660  10.793  33.950   0.411
28335W        W  661  14.671  24.656  14.025
28336W        W  662  37.838   0.253  11.862
28337W        W  663   0.407   3.435   5.744
28338W        W  664  32.133  26.628  11.576
28339W        W  665  36.431   8.825  13.919
28340W        W  666   1.375  15.787   0.273
28341W        W  667  32.117  30.971   4.597
28342W        W  668  13.836   7.195  14.830
28343W        W  669   2.347  26.553   1.925
28344W        W  670  11.279  29.053   2.726
28345W        W  671  17.755  44.361  12.092
28346W        W  672  26.601   6.313  13.361
28347W        W  673   8.694   7.683  10.581
28348W        W  674  24.721  44.859  14.942
28349W        W  675  34.957   0.260   2.719
28350W        W  676   4.848  18.126  13.399
28351W        W  677  34.989  42.516  12.439
28352W        W  678  25.597   3.778   1.913
28353W        W  679  16.718  16.279  12.093
28354W        W  680  38.881  21.564  11.538
28355W        W  681  26.202  23.567  14.278
28356W        W  682  11.664  14.805   4.130
28357W        W  683  21.651  18.092  12.349
28358W        W  684  22.687  13.249  13.505
28359W        W  685   9.796  21.738   0.963
28360W        W  686  14.267  15.313   3.248
28361W        W  687   9.252  27.449   4.166
28362W        W  688  28.455  29.016   4.745
28363W        W  689  40.889  43.975  11.517
28364W        W  690   9.847   6.720   0.820
28365W        W  691  16.664  31.923  11.562
28366W        W  692   2.874  10.188  14.838
28367W        W  693  23.098  10.279   4.712
28368W        W  694  40.955  44.477  14.902
28369W        W  695  22.591  17.654   2.886
28370W        W  696  43.790  27.692   3.240
28371W        W  697  13.259  28.938  14.370
28372W        W  698  31.065  25.045   2.766
28373W        W  699  32.916  12.777   3.762
28374W        W  700  36.982  24.180   3.224
28375W        W  701  33.441  31.436   2.266
28376W        W  702  16.713  14.193   0.872
28377W        W  703  35.055  26.139  13.397
28378W        W  704   4.921   8.352  10.510
28379W        W  705  14.244  20.060  11.999
28380W        W  706   6.819  40.902  10.605
28381W        W  707  35.425  27.588  13.502
28382W        W  708  34.950  15.678   3.803
28383W        W  709  15.761   3.817  14.800
28384W        W  710  16.742   6.833  10.434
28385W        W  711  34.882  24.144   0.246
28386W        W  712  43.921  38.405   1.355
28387W        W  713   8.188  37.351  10.527
28388W        W  714  27.036  20.234  12.391
28389W        W  715  14.205  20.712   1.239
28390W        W  716  19.660  16.171   3.169
28391W        W  717   1.252  16.144  13.912
28392W        W  718  33.579  34.079  14.015
28393W        W  719  19.164  36.490   1.811
28394W        W  720  15.324   2.964   4.117
28395W        W  721  37.030  23.001  12.939
28396W        W  722   0.965   6.234  10.970
28397W        W  723   0.792  32.496  10.585
28398W        W  724  25.535  16.087  10.554
28399W        W  725  25.142   2.255   4.597
28400W        W  726  39.889  13.721   1.398
28401W        W  727  23.197   5.817   2.329
28402W        W  728  30.083  28.438   4.599
28403W        W  729  29.600  20.684  13.468
28404W        W  730   4.435  24.575  13.385
28405W        W  731  34.991   5.930  12.853
28406W        W  732  12.285  20.537   0.815
28407W        W  733  11.275  11.718  11.885
28408W        W  734  12.224  28.057   0.335
28409W        W  735  20.688  34.561  12.919
28410W        W  736  36.374  24.581  12.519
28411W        W  737   5.429  33.013  10.566
28412W        W  738  13.644  34.890  11.444
28413W        W  739   9.336  41.417   3.797
28414W        W  740   0.825   1.916  14.341
28415W        W  741  16.622  42.991  11.945
28416W        W  742   0.316  14.198  11.475
28417W        W  743  31.942  37.388   4.668
28418W        W  744  23.014  34.075   0.304
28419W        W  745   1.840  14.338   2.243
28420W        W  746  32.939   1.858   2.386
28421W        W  747  12.807   1.274  14.761
28422W        W  748  24.649  21.691   4.798
28423W        W  749  40.442  16.082  10.582
28424W        W  750   4.245  27.620  11.460
28425W        W  751  19.250   2.264  10.939
28426W        W  752  13.742  37.417   1.381
28427W        W  753   7.189   2.434   4.717
28428W        W  754  10.686  27.649  11.041
28429W        W  755  36.431   3.915   4.795
28430W        W  756   7.331  38.074   4.128
28431W        W  757  35.453  25.108   1.861
28432W        W  758  15.146   7.237  10.635
28433W        W  759  33.024  31.464   3.782
28434W        W  760  13.337   2.854   2.747
28435W        W  761  12.749  10.281   4.339
28436W        W  762  10.652   9.251  12.523
28437W        W  763  10.243  19.234  12.505
28438W        W  764  29.972  22.553   3.716
28439W        W  765  44.347  27.530   3.772
28440W        W  766  19.572  22.627   3.357
28441W        W  767   2.338  33.624  12.518
28442W        W  768   8.805  41.465   3.339
28443W        W  769  25.169  24.203  14.777
28444W        W  770  33.560  34.103   5.646
28445W        W  771  21.588   9.797  13.432
28446W        W  772  18.063  36.347   3.238
28447W        W  773  36.963   0.756  14.477
28448W        W  774  21.513  40.975  13.843
28449W        W  775   0.916  22.250  11.395
28450W        W  776  10.308  13.700  10.987
28451W        W  777  37.032  36.384  10.499
28452W        W  778  32.087  19.279  10.963
28453W        W  779   1.825  32.515  11.080
28454W        W  780  31.984  11.342   0.320
28455W        W  781  22.691  21.192  12.954
28456W        W  782  11.138   0.900   3.184
28457W        W  783  17.176   1.836   1.318
28458W        W  784  19.633  13.644  12.538
28459W        W  785  10.158  43.895  12.945
28460W        W  786   8.400  35.937  13.956
28461W        W  787  31.095  40.853  14.783
28462W        W  788  32.394  36.957  10.445
28463W        W  789   1.974  22.112  11.496
28464W        W  790  21.069  11.656   3.333
28465W        W  791  17.166  17.645   0.284
28466W        W  792  27.986  18.677  11.530
28467W        W  793  22.543  16.191  11.035
28468W        W  794  10.656  18.741   2.864
28469W        W  795  24.594  44.914  12.571
28470W        W  796  32.995  44.392   2.663
28471W        W  797  13.659  39.460  11.919
28472W        W  798   6.306  33.583   2.768
28473W        W  799  24.569  30.420   4.185
28474W        W  800  41.346  21.139   3.179
28475W        W  801  41.039  11.763  11.951
28476W        W  802  22.037  29.090   3.630
28477W        W  803  30.125  17.166  11.517
28478W        W  804   6.397  10.698   0.482
28479W        W  805  19.780   9.378   2.784
28480W        W  806  24.990  24.496   2.868
28481W        W  807  25.713  25.120   0.383
28482W        W  808  11.143   6.284   3.342
28483W        W  809  44.883  23.647  14.966
28484W        W  810  27.479  36.504  12.938
28485W        W  811  29.093  17.755   3.290
28486W        W  812  26.699  14.727  13.002
28487W        W  813  30.615  14.744   1.236
28488W        W  814   7.818   5.918  14.967
28489W        W  815  41.816  29.652  14.802
28490W        W  816  37.536   4.406  11.098
28491W        W  817  23.589  33.429  11.897
28492W        W  818  12.116  18.267   2.332
28493W        W  819  20.115  21.242   0.351
28494W        W  820   8.393   6.781   0.356
28495W        W  821   1.282  14.111  11.480
28496W        W  822  11.841  31.899  10.523
28497W        W  823  28.606  31.972  13.965
28498W        W  824  13.810   5.430   4.126
28499W        W  825  24.612  29.112  14.766
28500W        W  826   5.911   6.219   2.703
28501W        W  827  30.054  20.168  10.600
28502W        W  828  38.487  13.339  14.786
28503W        W  829  27.573  14.182   3.656
28504W        W  830   4.447   5.929   0.807
28505W        W  831   2.883  23.725  10.563
28506W        W  832  13.194  26.081  11.593
28507W        W  833  13.350  11.233  11.118
28508W        W  834   8.666  33.071  12.045
28509W        W  835  34.924  11.327  11.893
28510W        W  836   7.348  11.137  14.902
28511W        W  837   5.806  44.795  12.456
28512W        W  838  42.435  39.980  10.594
28513W        W  839  26.975  18.547  14.328
28514W        W  840  30.565   8.276  13.805
28515W        W  841   7.338  39.894   0.436
28516W        W  842  44.276  26.203   4.236
28517W        W  843   7.205  31.440   1.374
28518W        W  844   8.819  28.537  12.447
28519W        W  845  17.652  34.427   3.641
28520W        W  846  38.960  38.954  11.895
28521W        W  847  43.511   2.907  13.874
28522W        W  848  32.127  43.352   3.352
28523W        W  849   1.456  25.489  12.445
28524W        W  850   2.292  24.032  11.920
28525W        W  851  20.553   9.227   3.705
28526W        W  852  33.473  19.085  12.885
28527W        W  853   2.819  38.442  12.533
28528W        W  854  24.585  30.074  13.444
28529W        W  855   7.733  13.240  14.346
28530W        W  856  21.540   7.792   2.797
28531W        W  857   5.907  11.811  11.503
28532W        W  858   0.433  17.145  13.055
28533W        W  859  14.716  34.894   1.261
28534W        W  860  31.460  26.471  14.880
28535W        W  861   8.688  25.574  10.563
28536W        W  862  43.960  31.530  12.959
28537W        W  863   4.763  29.427   1.266
28538W        W  864  38.932  17.096  11.860
28539W        W  865  12.296  25.148  10.527
28540W        W  866   8.803  40.021   2.830
28541W        W  867  31.017  26.096  12.849
28542W        W  868  14.117  22.141  12.343
28543W        W  869  27.143  44.780   2.246
28544W        W  870   9.285   9.379  11.911
28545W        W  871  37.832  28.660   0.852
28546W        W  872  40.526  43.022   1.758
28547W        W  873  39.054  30.610   4.638
28548W        W  874  16.129  36.488  11.927
28549W        W  875  28.467   2.378  11.558
28550W        W  876  36.913  20.730  14.785
28551W        W  877  28.495  33.958  13.496
28552W        W  878  10.632  17.681   0.466
28553W        W  879  44.753  21.252   2.199
28554W        W  880  12.118   4.778  12.496
28555W        W  881  30.454   3.367   3.160
28556W        W  882  20.194  36.857  13.499
28557W        W  883  23.721  26.022  10.563
28558W        W  884   7.218  18.179   1.695
28559W        W  885  31.566  41.339  14.503
28560W        W  886  36.410  28.976   1.885
28561W        W  887  33.430  20.604   0.326
28562W        W  888  15.310   1.395  10.480
28563W        W  889  10.850  27.655   2.889
28564W        W  890  12.699  38.506  12.902
28565W        W  891   6.805   7.338   1.275
28566W        W  892  21.645   7.266  11.055
28567W        W  893   3.946  14.821  13.063
28568W        W  894  23.690  20.218  11.518
28569W        W  895   2.238  29.448  11.117
28570W        W  896  25.155  23.008   3.339
28571W        W  897  20.764  13.610   4.345
28572W        W  898   6.421  12.653   2.754
28573W        W  899  36.364  32.634  12.023
28574W        W  900   0.305   7.387   0.821
28575W        W  901   4.742  25.969   9.927
28576W        W  902  16.589  39.329  14.781
28577W        W  903   5.748  25.988  14.825
28578W        W  904   8.168   8.205  13.851
28579W        W  905  13.743  36.462  12.026
28580W        W  906   3.424  37.340   1.907
28581W        W  907   3.784  21.609   5.320
28582W        W  908   6.774  44.350  11.474
28583W        W  909  26.027  28.010  11.396
28584W        W  910  30.162  30.054  14.393
28585W        W  911  25.156  10.705   3.386
28586W        W  912  17.781   9.362  13.803
28587W        W  913  43.834  23.201  14.368
28588W        W  914  11.813  22.552   4.208
28589W        W  915   2.925  22.083   3.289
28590W        W  916  28.478  10.223  13.866
28591W        W  917  12.745  41.907   0.937
28592W        W  918  42.469   2.947   4.344
28593W        W  919  12.656  13.169  10.627
28594W        W  920  33.603  44.003   4.196
28595W        W  921  26.015  32.120   2.356
28596W        W  922  30.611  20.726  12.469
28597W        W  923   1.866  31.081   1.809
28598W        W  924  13.341  37.383  13.013
28599W        W  925   4.228  27.183   1.407
28600W        W  926   0.918  18.288  14.362
28601W        W  927  33.548  24.570  11.485
28602W        W  928  44.799  37.412   3.785
28603W        W  929  39.946   4.820  12.509
28604W        W  930  12.675  35.478  11.077
28605W        W  931  15.646  22.526  13.332
28606W        W  932   2.419  31.539   3.275
28607W        W  933  26.677  31.990  11.397
28608W        W  934  40.493  40.476   2.392
28609W        W  935  26.607  42.365   1.725
28610W        W  936   8.889  17.766  10.898
28611W        W  937  21.683  17.300   1.725
28612W        W  938  13.192   5.430  11.905
28613W        W  939   6.705  12.702  14.452
28614W        W  940   6.245  44.286  12.459
28615W        W  941  23.647   6.246  13.817
28616W        W  942   2.962  27.494   2.756
28617W        W  943  24.213  33.565  11.879
28618W        W  944   9.875  35.909   1.929
28619W        W  945   8.331  29.481  13.016
28620W        W  946  25.979  35.032   0.845
28621W        W  947  20.045  41.360  13.050
28622W        W  948  36.910   9.691   0.319
28623W        W  949  35.023  41.513   3.802
28624W        W  950  42.459   0.807  11.052
28625W        W  951  19.677  22.009   1.873
28626W        W  952  31.459   4.935  14.383
28627W        W  953  24.998  34.889   2.760
28628W        W  954  26.035   5.421   1.709
28629W        W  955  20.099  26.528   0.938
28630W        W  956  30.428  41.457  12.907
28631W        W  957  22.094   8.283  12.085
28632W        W  958  29.006  35.960   0.909
28633W        W  959  19.084  36.881   1.768
28634W        W  960   9.152  22.572   1.320
28635W        W  961  24.019  41.295  12.026
28636W        W  962   7.382  22.703  14.341
28637W        W  963   9.760  29.648  10.940
28638W        W  964   5.413  35.437  10.976
28639W        W  965  27.518  25.188  10.530
28640W        W  966   2.460  31.089   0.904
28641W        W  967  27.113   8.382  13.441
28642W        W  968  21.718  25.119   1.246
28643W        W  969   8.842  15.095  11.393
28644W        W  970  38.887  17.188   4.351
28645W        W  971  37.027  13.327   4.312
28646W        W  972  11.174  14.598  13.431
28647W        W  973  26.465  20.767   4.671
28648W        W  974  38.452   3.732   3.351
28649W        W  975  14.207  33.423   4.767
28650W        W  976  11.216   1.322  13.874
28651W        W  977   9.797  22.171  13.792
28652W        W  978  18.601   5.862   3.346
28653W        W  979  34.088  33.546   0.774
28654W        W  980  41.817  42.957   1.920
28655W        W  981  33.889  31.070  10.601
28656W        W  982   9.389  43.350  10.514
28657W        W  983  41.300  38.908  10.445
28658W        W  984   8.208  13.800  11.018
28659W        W  985  13.715  37.462  12.863
28660W        W  986  13.254  13.137  11.002
28661W        W  987  32.109  12.298  11.588
28662W        W  988  15.196  14.215   2.864
28663W        W  989  44.340   4.415  12.536
28664W        W  990  25.166  18.580  14.786
28665W        W  991   8.835  31.031  11.004
28666W        W  992  33.402  35.494  10.584
28667W        W  993   0.279  44.406  11.453
28668W        W  994  33.473  40.464   5.176
28669W        W  995  22.035   7.673   2.415
28670W        W  996  42.000  43.886  13.423
28671W        W  997  20.028  17.252   2.781
28672W        W  998  29.959   6.311   4.642
28673W        W  999  12.138  32.066   3.161
28674W        W 1000  13.297  27.544   2.793
28675W        W 1001  28.437  39.478  13.410
28676W        W 1002  11.749  38.062  13.319
28677W        W 1003  35.948  29.088   1.394
28678W        W 1004  42.425  41.880  10.408
28679W        W 1005  24.582   1.436   1.717
28680W        W 1006   0.460  11.181  14.433
28681W        W 1007  41.409  14.590   4.751
28682W        W 1008   0.464  19.057   0.777
28683W        W 1009  36.593  35.015   0.737
28684W        W 1010  35.539  34.084  10.631
28685W        W 1011   6.379  43.858   0.880
28686W        W 1012  30.109  24.011   1.877
28687W        W 1013  14.772  31.964   2.866
28688W        W 1014  12.185  20.129  14.348
28689W        W 1015  43.994  11.245   1.826
28690W        W 1016  27.174  14.773   2.195
28691W        W 1017  25.633  40.450   1.728
28692W        W 1018  28.046  40.833  13.053
28693W        W 1019  36.985  34.482   2.813
28694W        W 1020  18.782  12.132   4.820
28695W        W 1021  10.638  30.986  14.449
28696W        W 1022  40.431  34.516  11.019
28697W        W 1023   4.397  25.592  11.906
28698W        W 1024   4.875   6.268   0.795
28699W        W 1025   6.782  36.537  10.892
28700W        W 1026  15.093  36.481  12.345
28701W        W 1027  30.106   2.961  14.838
28702W        W 1028  37.467   8.686   2.241
28703W        W 1029   4.293  35.030   1.223
28704W        W 1030   3.866   8.829   0.452
28705W        W 1031  20.266  12.296  11.097
28706W        W 1032  37.891  16.300   3.753
28707W        W 1033  19.215  23.237  11.598
28708W        W 1034  19.112  26.642   4.645
28709W        W 1035   5.689   0.953   4.716
28710W        W 1036  13.144  14.108   2.213
28711W        W 1037  43.334   9.757  12.965
28712W        W 1038  38.972  37.956   0.897
28713W        W 1039  26.509   8.403  10.575
28714W        W 1040  13.313  43.943   4.154
28715W        W 1041  24.518  33.526   3.830
28716W        W 1042  10.749  22.068   4.759
28717W        W 1043  44.349  32.022   1.890
28718W        W 1044   8.239  32.056   0.918
28719W        W 1045  42.952  33.048   1.315
28720W        W 1046  19.743  34.044   1.346
28721W        W 1047  10.870  39.414   4.210
28722W        W 1048  16.674  37.571   4.774
28723W        W 1049  28.097   4.277   2.279
28724W        W 1050   5.766  33.533  10.554
28725W        W 1051  24.148   5.433   4.709
28726W        W 1052  20.031  13.309  14.297
28727W        W 1053  25.561  24.037  11.894
28728W        W 1054  37.358  24.202  12.992
28729W        W 1055  44.425  22.683  11.115
28730W        W 1056   8.272  40.816   0.750
28731W        W 1057  24.136  12.660   4.288
28732W        W 1058  38.833   8.822  10.534
28733W        W 1059   1.332  39.839  12.000
28734W        W 1060  17.137  29.057  10.568
28735W        W 1061   6.372  11.338   1.891
28736W        W 1062  12.167   9.299  14.391
28737W        W 1063   8.876  10.219   0.269
28738W        W 1064  25.576  41.337  10.630
28739W        W 1065   1.284  35.514  14.478
28740W        W 1066  41.371   5.762   0.948
28741W        W 1067  44.804   6.303  14.863
28742W        W 1068   6.903  35.901  14.983
28743W        W 1069   3.443  43.785   3.189
28744W        W 1070   3.264  25.598  12.499
28745W        W 1071  44.478  30.517  11.408
28746W        W 1072  36.456  35.102  10.548
28747W        W 1073  30.658  42.325   3.728
28748W        W 1074  24.639   7.723  12.903
28749W        W 1075   4.847  10.844  14.333
28750W        W 1076  41.849  38.563   4.753
28751W        W 1077   7.307  38.963   4.320
28752W        W 1078  19.123  17.065   1.434
28753W        W 1079  21.644  34.589  13.907
28754W        W 1080  13.295  15.277  12.370
28755W        W 1081   8.288   7.290  12.986
28756W        W 1082  13.665   7.810   3.683
28757W        W 1083  35.855  26.097   3.710
28758W        W 1084   2.861  29.474   0.414
28759W        W 1085  39.461   7.904   4.290
28760W        W 1086  17.174  42.378  10.945
28761W        W 1087  27.685  43.323  11.386
28762W        W 1088  17.174  36.571  11.064
28763W        W 1089  25.116  11.146  14.002
28764W        W 1090  19.267  38.061  12.401
28765W        W 1091  19.605   9.742   4.309
28766W        W 1092  31.910  39.054   5.123
28767W        W 1093  23.184  26.492  12.971
28768W        W 1094   0.785  19.590   1.331
28769W        W 1095  15.274  16.279  11.578
28770W        W 1096  40.943  14.188   0.250
28771W        W 1097  15.796  18.598   4.798
28772W        W 1098   5.775   9.208  13.983
28773W        W 1099  42.423  23.499   1.733
28774W        W 1100   9.671   9.708  11.938
28775W        W 1101   1.390   7.244   2.768
28776W        W 1102  26.039  43.882   1.385
28777W        W 1103  15.139  24.600  11.916
28778W        W 1104  14.281  33.485  12.996
28779W        W 1105  15.819  10.774   0.289
28780W        W 1106  31.092  34.526   1.252
28781W        W 1107  41.470   3.251   2.843
28782W        W 1108  13.828  42.434  12.917
28783W        W 1109  32.579   1.948   1.753
28784W        W 1110  25.117  24.572   2.238
28785W        W 1111  30.160  37.544  12.392
28786W        W 1112  18.191  30.930  13.804
28787W        W 1113  42.867  25.096   0.351
28788W        W 1114  37.503   7.811   0.415
28789W        W 1115   8.678   2.367   3.695
28790W        W 1116   3.305  10.873  11.426
28791W        W 1117  32.491  44.261  13.038
28792W        W 1118  28.131  32.635  12.053
28793W        W 1119  40.546   6.391   1.775
28794W        W 1120  11.220  34.917   4.237
28795W        W 1121  39.549  15.819   2.383
28796W        W 1122   9.822  44.422   2.248
28797W        W 1123  44.401   7.697  12.838
28798W        W 1124  22.006   5.725   0.402
28799W        W 1125  38.855   3.773   3.153
28800W        W 1126   9.234  37.488  10.090
28801W        W 1127  41.929   8.805   0.479
28802W        W 1128  44.504  24.088   4.192
28803W        W 1129  33.601  22.140   4.198
28804W        W 1130  34.902  17.063  14.488
28805W        W 1131  12.138   9.268  10.469
28806W        W 1132  12.776  39.380   1.227
28807W        W 1133  20.109  39.971   0.743
28808W        W 1134  25.045  29.438   4.764
28809W        W 1135  15.270  13.226   1.370
28810W        W 1136  26.663  31.960   0.893
28811W        W 1137  35.569  17.669  11.044
28812W        W 1138  21.254  41.467  10.915
28813W        W 1139  11.678  28.102  12.023
28814W        W 1140  12.218  14.218   0.416
28815W        W 1141  40.872  30.104  14.296
28816W        W 1142  15.606  29.544  14.455
28817W        W 1143  18.115   7.670  11.520
28818W        W 1144  44.270   7.690   2.680
28819W        W 1145  18.671   9.688  11.112
28820W        W 1146  11.834  21.051   1.213
28821W        W 1147  42.891  24.208   3.199
28822W        W 1148  21.527  20.539  12.869
28823W        W 1149  31.925  25.075   1.780
28824W        W 1150   0.433  25.652   4.669
28825W        W 1151  16.790   7.780   0.904
28826W        W 1152  30.620  36.525   0.267
28827W        W 1153  21.732  40.373  14.873
28828W        W 1154  10.218  18.769   4.778
28829W        W 1155   5.275   2.299   0.907
28830W        W 1156  17.591  33.072  12.577
28831W        W 1157   7.409  39.481  13.369
28832W        W 1158  11.692  32.965   3.204
28833W        W 1159  35.047  29.624  14.482
28834W        W 1160   0.436  27.033   0.405
28835W        W 1161  34.021  32.494   3.702
28836W        W 1162  39.934   3.725  14.935
28837W        W 1163  11.232   3.913  12.385
28838W        W 1164   9.718   4.208  11.568
28839W        W 1165  12.623  41.901  11.371
28840W        W 1166  19.606  39.378   0.840
28841W        W 1167  14.763  11.754   0.454
28842W        W 1168  36.486   1.805  13.878
28843W        W 1169  40.398  30.463   1.758
28844W        W 1170  18.736   8.172  12.507
28845W        W 1171   5.357  11.147  13.820
28846W        W 1172  17.773  29.425  12.579
28847W        W 1173  41.349  18.749   4.350
28848W        W 1174  43.969  39.953  10.992
28849W        W 1175  30.968  23.572  13.504
28850W        W 1176  44.384  37.007   0.452
28851W        W 1177  41.039  43.905  11.930
28852W        W 1178  36.475  27.038   4.160
28853W        W 1179  33.072  14.161   4.172
28854W        W 1180  24.986   4.329  13.532
28855W        W 1181  34.970  33.574  11.065
28856W        W 1182   2.737  38.465   2.266
28857W        W 1183  10.790  12.743  14.018
28858W        W 1184  38.334  41.481   3.834
28859W        W 1185   7.794  25.676   4.262
28860W        W 1186   2.720  38.347  14.363
28861W        W 1187   7.186  19.726   4.271
28862W        W 1188   3.924   2.232   3.165
28863W        W 1189  44.916   8.183  11.396
28864W        W 1190  11.622  25.094   2.398
28865W        W 1191  43.971  20.271   0.441
28866W        W 1192   9.151  14.763   3.333
28867W        W 1193   4.210  41.923  12.355
28868W        W 1194   5.896  15.599  14.342
28869W        W 1195   7.889  20.693  13.433
28870W        W 1196  21.033  20.175   0.876
28871W        W 1197  21.041  32.466  11.420
28872W        W 1198  26.083  26.104   4.779
28873W        W 1199  18.768   8.747   1.217
28874W        W 1200   6.371  18.156   1.805
28875W        W 1201  27.647  24.695   0.957
28876W        W 1202  20.566  21.209  11.388
28877W        W 1203  11.138   5.842  14.361
28878W        W 1204  22.601   4.943  13.809
28879W        W 1205  15.709   8.226  11.494
28880W        W 1206  40.964  37.912   3.870
28881W        W 1207  37.337  26.020  13.389
28882W        W 1208  13.758  39.541   1.919
28883W        W 1209  36.039   2.904   1.240
28884W        W 1210  17.136  18.665   3.738
28885W        W 1211  31.111  23.133  13.373
28886W        W 1212  37.565  34.970  13.503
28887W        W 1213   9.704   1.901   2.310
28888W        W 1214  23.104  26.145  13.990
28889W        W 1215  39.014  25.005  14.447
28890W        W 1216  42.942  33.472   2.837
28891W        W 1217  40.868  29.517   0.459
28892W        W 1218  34.553  23.685  14.282
28893W        W 1219  23.515  33.985  14.440
28894W        W 1220   8.826  21.650  11.051
28895W        W 1221  18.726  14.673   1.804
28896W        W 1222  20.071  35.598  12.052
28897W        W 1223  40.892   3.888  13.986
28898W        W 1224  35.869   8.855  13.485
28899W        W 1225  24.491  20.596   1.782
28900W        W 1226  17.568  22.627  14.792
28901W        W 1227  44.416  26.464   3.699
28902W        W 1228  18.701  42.436   4.696
28903W        W 1229  39.954  37.071   3.634
28904W        W 1230  11.844  30.026   1.841
28905W        W 1231   5.819   8.870  14.791
28906W        W 1232  13.719   6.767  12.884
28907W        W 1233  17.274  35.578  12.026
28908W        W 1234  21.700  28.948  12.537
28909W        W 1235  42.842  10.288  14.808
28910W        W 1236  30.150  18.744   3.176
28911W        W 1237  24.120  33.483   3.799
28912W        W 1238   2.935  24.039  11.444
28913W        W 1239  18.776  13.695  14.908
28914W        W 1240   3.293  11.838   5.594
28915W        W 1241  33.059  37.429  14.878
28916W        W 1242  20.560  32.450  11.956
28917W        W 1243  39.930  43.937   4.160
28918W        W 1244  18.251  16.776  11.420
28919W        W 1245  31.046  32.977  11.920
28920W        W 1246  30.111  32.041   1.839
28921W        W 1247  19.082  38.506  10.438
28922W        W 1248  19.773  25.187   1.289
28923W        W 1249  35.912   6.411  12.368
28924W        W 1250  25.532  38.993  10.995
28925W        W 1251  28.655  43.484   4.787
28926W        W 1252   0.906  32.421   4.342
28927W        W 1253   0.944   1.477   0.388
28928W        W 1254  27.557  25.487   2.272
28929W        W 1255  44.495   7.264   3.719
28930W        W 1256  23.057  14.257   0.358
28931W        W 1257  22.646  15.276  13.851
28932W        W 1258   2.429  11.662  11.907
28933W        W 1259  38.931  20.062   1.247
28934W        W 1260   3.825  19.776   0.436
28935W        W 1261  25.705  40.014  10.888
28936W        W 1262  42.789  40.396   0.813
28937W        W 1263  22.129  31.056   2.832
28938W        W 1264  22.131  44.887  12.991
28939W        W 1265  37.472  22.519   2.309
28940W        W 1266  21.607  35.995  14.832
28941W        W 1267  17.284   3.457   5.264
28942W        W 1268  14.215  10.843  12.580
28943W        W 1269  27.454   6.185  12.877
28944W        W 1270  25.700  44.880   3.147
28945W        W 1271  30.625   2.458  12.957
28946W        W 1272  20.096   9.391   1.811
28947W        W 1273  24.512   3.745   2.825
28948W        W 1274  19.280  18.746  12.545
28949W        W 1275  20.759  32.023  12.390
28950W        W 1276   9.302  10.267   2.334
28951W        W 1277  11.624  12.674   4.158
28952W        W 1278   8.394  12.281   4.308
28953W        W 1279  41.319  22.126  13.874
28954W        W 1280  21.083   8.809  12.396
28955W        W 1281   8.279  17.783  10.533
28956W        W 1282  27.588  23.194   4.613
28957W        W 1283  12.845  18.733  12.354
28958W        W 1284  24.605  43.382   0.270
28959W        W 1285  22.011  24.546  11.928
28960W        W 1286  27.953  25.550  10.448
28961W        W 1287  38.957   0.743  13.036
28962W        W 1288   1.937  40.445   4.680
28963W        W 1289  11.130  41.364  14.782
28964W        W 1290  42.980  35.562   4.639
28965W        W 1291   9.859  25.646   0.927
28966W        W 1292   0.841  33.018   1.450
28967W        W 1293  27.104  22.206   0.754
28968W        W 1294   4.835  12.665   2.761
28969W        W 1295  10.829  17.234   3.755
28970W        W 1296  28.986  27.151  13.813
28971W        W 1297  27.499   7.690  13.407
28972W        W 1298   0.892  33.094  10.467
28973W        W 1299  34.918  18.659  11.472
28974W        W 1300  42.874  10.789   0.925
28975W        W 1301  25.992  35.054   2.180
28976W        W 1302   6.780  13.673  12.549
28977W        W 1303  23.174  27.521  11.409
28978W        W 1304  38.939  21.120   2.272
28979W        W 1305  23.502  14.315   2.296
28980W        W 1306   3.823   3.860   2.855
28981W        W 1307  30.140  33.013   0.346
28982W        W 1308   5.764  29.591   0.366
28983W        W 1309   6.831  14.160  13.829
28984W        W 1310  22.065   8.373  10.606
28985W        W 1311  12.125  38.927   3.773
28986W        W 1312   8.849  43.946  12.450
28987W        W 1313  10.755   9.257   2.889
28988W        W 1314  20.709  20.223  14.967
28989W        W 1315  40.462   8.221  11.964
28990W        W 1316  13.753  11.287  11.003
28991W        W 1317  20.720  39.315   0.393
28992W        W 1318  11.661  11.780  11.929
28993W        W 1319  29.082  12.330  12.965
28994W        W 1320  18.145  30.622  13.318
28995W        W 1321  23.228  33.121  11.060
28996W        W 1322  36.867  40.342  13.862
28997W        W 1323  17.711  33.116  14.332
28998W        W 1324  44.866   3.940  12.044
28999W        W 1325   1.824  30.045   2.178
29000W        W 1326  12.831   3.347  12.413
29001W        W 1327  43.381  42.975   3.658
29002W        W 1328  27.038  24.615   3.200
29003W        W 1329  15.726   1.416   2.733
29004W        W 1330  40.942  12.712   3.303
29005W        W 1331  35.474   7.257   1.299
29006W        W 1332  25.471  31.569  13.965
29007W        W 1333  12.680   5.774   0.741
29008W        W 1334  14.788  36.582  11.104
29009W        W 1335  24.599   9.176  14.952
29010W        W 1336  28.561  35.966   0.730
29011W        W 1337  10.295  10.787   2.379
29012W        W 1338  42.481  37.349  12.051
29013W        W 1339  31.475  10.640   2.321
29014W        W 1340  17.300  19.760   0.772
29015W        W 1341  17.216   6.260   0.294
29016W        W 1342   1.777  23.015  11.979
29017W        W 1343  15.610  17.266  11.009
29018W        W 1344  40.894  19.761   5.213
29019W        W 1345  26.131  34.534  14.825
29020W        W 1346   3.396  17.640   2.888
29021W        W 1347   2.232   6.295  11.383
29022W        W 1348  24.553  41.906  14.301
29023W        W 1349  38.360  20.724   1.696
29024W        W 1350  35.373   5.826   3.180
29025W        W 1351   5.809  44.763  12.018
29026W        W 1352  32.996  11.649  11.948
29027W        W 1353  41.967  27.149   1.856
29028W        W 1354  31.023  44.437   9.965
29029W        W 1355  19.277  32.475  13.874
29030W        W 1356  39.368   4.704   4.691
29031W        W 1357  23.532  11.363   3.690
29032W        W 1358  35.496  17.671   1.317
29033W        W 1359  23.507  23.060   0.762
29034W        W 1360  19.263  36.448   3.216
29035W        W 1361   0.883  42.917   2.312
29036W        W 1362   0.463  29.918  12.394
29037W        W 1363   1.741   9.876  12.552
29038W        W 1364  31.082  33.470   5.250
29039W        W 1365  31.010  42.997  14.030
29040W        W 1366  40.448  11.342  10.959
29041W        W 1367  42.466  14.136  12.523
29042W        W 1368  43.477  15.228   4.206
29043W        W 1369  33.511  20.633  14.776
29044W        W 1370   5.373  20.663   0.350
29045W        W 1371  24.202  44.271   3.362
29046W        W 1372   9.668  12.635   3.199
29047W        W 1373  37.969  23.690   4.624
29048W        W 1374   4.748  26.545   3.690
29049W        W 1375  41.911  28.947  14.405
29050W        W 1376  32.987  39.336  13.059
29051W        W 1377  16.795  31.520   2.333
29052W        W 1378  24.722  29.151  14.294
29053W        W 1379  20.745  20.144   2.874
29054W        W 1380   7.774   2.937  11.414
29055W        W 1381   7.301   2.767   3.257
29056W        W 1382  33.547   4.251   0.807
29057W        W 1383  35.400  32.062  11.881
29058W        W 1384  38.335  37.899  14.768
29059W        W 1385  42.023   8.380   3.376
29060W        W 1386  43.982   3.921   0.799
29061W        W 1387   9.822   6.344  12.469
29062W        W 1388  43.326  39.945   3.829
29063W        W 1389  22.189  14.814   0.961
29064W        W 1390  32.617  36.396   0.351
29065W        W 1391  32.545  39.886   3.829
29066W        W 1392  27.133  29.953  14.338
29067W        W 1393   3.392  44.400  10.459
29068W        W 1394   0.292  24.190   2.721
29069W        W 1395   7.861  29.645  13.866
29070W        W 1396  26.025  39.479  12.513
29071W        W 1397  44.805  41.481   2.389
29072W        W 1398  16.125  22.019   4.835
29073W        W 1399  19.103   6.301   1.253
29074W        W 1400   6.213  34.379   3.245
29075W        W 1401  21.663   3.416   2.208
29076W        W 1402  10.797   8.218   4.816
29077W        W 1403  39.543   6.376  13.349
29078W        W 1404   9.223  21.633   0.377
29079W        W 1405   8.810  34.368   3.316
29080W        W 1406  24.072  16.729   9.930
29081W        W 1407  24.100  15.272   5.169
29082W        W 1408   9.806  43.767  13.896
29083W        W 1409  36.095  22.135   4.774
29084W        W 1410   4.756   2.438  12.081
29085W        W 1411   1.752  13.626  11.566
29086W        W 1412   1.973  34.900  14.801
29087W        W 1413  16.163  18.163  10.535
29088W        W 1414   8.242  34.415   0.741
29089W        W 1415  16.713   7.204   0.447
29090W        W 1416  44.384   0.253  11.991
29091W        W 1417  34.465  35.980  11.063
29092W        W 1418  20.044   0.264   2.806
29093W        W 1419  20.726   6.832   4.132
29094W        W 1420  12.838  18.681  14.329
29095W        W 1421  24.488  40.965  12.073
29096W        W 1422   4.423   8.751  11.949
29097W        W 1423  39.827  24.479  13.003
29098W        W 1424  43.413  24.704   0.278
29099W        W 1425  21.540  16.709  14.491
29100W        W 1426  13.778  31.621  13.312
29101W        W 1427   3.351  23.175  11.492
29102W        W 1428  28.142  38.448  10.450
29103W        W 1429   0.275  18.599   3.217
29104W        W 1430   4.738   1.807  12.505
29105W        W 1431  41.026  27.532  14.905
29106W        W 1432  18.156  37.574  13.446
29107W        W 1433  22.721  44.945   2.799
29108W        W 1434   9.888  19.535  12.925
29109W        W 1435   4.365  32.122   3.340
29110W        W 1436  16.189  15.756  11.932
29111W        W 1437   4.290  41.464   3.710
29112W        W 1438  17.739   4.290   2.393
29113W        W 1439   6.249  30.581   3.751
29114W        W 1440  11.664  34.033   3.173
29115W        W 1441  27.626  17.556  13.495
29116W        W 1442  15.589  38.486  12.376
29117W        W 1443   4.778  35.577   1.248
29118W        W 1444   4.839   1.381   4.783
29119W        W 1445   8.844   6.417   0.899
29120W        W 1446  33.592  41.413   2.840
29121W        W 1447  23.058  12.711  14.960
29122W        W 1448   4.361  20.251   0.283
29123W        W 1449  36.456  29.958  13.813
29124W        W 1450  33.116  18.714  13.338
29125W        W 1451   9.717   2.768  11.108
29126W        W 1452  35.960   8.750  14.807
29127W        W 1453  30.103  39.407  14.464
29128W        W 1454  20.066  36.862   2.799
29129W        W 1455  22.088  17.277  10.922
29130W        W 1456  23.615  33.464  11.564
29131W        W 1457  31.538  39.831   2.737
29132W        W 1458   3.364   3.763   2.355
29133W        W 1459   8.681  18.266  13.989
29134W        W 1460  42.485  29.439   2.234
29135W        W 1461  21.024  24.199   1.764
29136W        W 1462  21.083  41.820  11.890
29137W        W 1463   9.844   5.896   4.163
29138W        W 1464  25.050   5.362   2.364
29139W        W 1465  33.088  33.597   3.197
29140W        W 1466  15.695  13.107  12.056
29141W        W 1467   2.277  25.594   0.324
29142W        W 1468   4.437  25.150   4.730
29143W        W 1469   6.875  29.595  13.062
29144W        W 1470  38.060  16.791  11.484
29145W        W 1471  35.975  21.692   1.709
29146W        W 1472  15.275  41.295   0.925
29147W        W 1473   0.940  42.031  14.369
29148W        W 1474  10.364  18.779   2.726
29149W        W 1475  18.136   3.734   3.167
29150W        W 1476  19.263  13.271  10.500
29151W        W 1477  37.377  18.263   1.334
29152W        W 1478  21.611  40.491  11.416
29153W        W 1479  12.163   8.268  14.368
29154W        W 1480  28.140   8.303   0.390
29155W        W 1481  31.932  32.558  10.909
29156W        W 1482   3.868  24.111  14.488
29157W        W 1483   1.796  19.689   2.763
29158W        W 1484   4.311  13.633  10.409
29159W        W 1485  33.050  30.078  11.870
29160W        W 1486  22.509  10.819  10.539
29161W        W 1487  30.093  24.986   1.778
29162W        W 1488   4.289  44.979   1.263
29163W        W 1489  13.254  32.967   3.180
29164W        W 1490  32.096  21.640   4.270
29165W        W 1491  19.208  17.184  13.980
29166W        W 1492  23.496   4.339  11.458
29167W        W 1493  18.227  23.040   2.303
29168W        W 1494  14.214  32.912  13.890
29169W        W 1495  40.359  40.923  13.339
29170W        W 1496  13.128  16.195  12.418
29171W        W 1497  40.374   0.286   0.391
29172W        W 1498   5.757   0.939  11.395
29173W        W 1499  40.439  35.908   4.210
29174W        W 1500   0.370   7.819  10.890
29175W        W 1501  44.868  10.675  14.504
29176W        W 1502  23.121   1.922   2.311
29177W        W 1503  21.744  32.582  13.986
29178W        W 1504  12.833  27.178  10.510
29179W        W 1505   6.832  23.536  11.468
29180W        W 1506  33.588  26.121  11.938
29181W        W 1507  39.340  39.443   3.712
29182W        W 1508   5.198  44.424  12.386
29183W        W 1509  18.099   5.750   0.817
29184W        W 1510  32.445  21.221   4.745
29185W        W 1511  44.352  32.567   0.293
29186W        W 1512  18.602  44.330   4.774
29187W        W 1513  42.010  20.050  14.932
29188W        W 1514  24.533   2.382  13.895
29189W        W 1515  23.586  28.981   2.388
29190W        W 1516  11.232  37.341  10.954
29191W        W 1517  10.172  40.822   3.332
29192W        W 1518  43.972  24.095   2.245
29193W        W 1519  25.139  41.850   3.807
29194W        W 1520   1.419  31.136   2.866
29195W        W 1521  33.064  40.479   0.860
29196W        W 1522  33.991  39.938  14.798
29197W        W 1523  38.878  16.158  12.833
29198W        W 1524   2.964  10.831  10.481
29199W        W 1525  36.968  28.569   4.315
29200W        W 1526   1.767  11.647  13.856
29201W        W 1527  38.564   4.704  13.983
29202W        W 1528  25.191  17.559  14.959
29203W        W 1529  36.902  32.128  12.000
29204W        W 1530  13.328  25.154  13.402
29205W        W 1531   9.287   1.779  13.955
29206W        W 1532  36.880  35.078  12.863
29207W        W 1533   8.849  44.405   1.337
29208W        W 1534  36.440  17.715   3.788
29209W        W 1535  25.075  13.644  10.498
29210W        W 1536   7.685  35.936   3.737
29211W        W 1537   3.805  31.575   3.801
29212W        W 1538  21.129  36.880   0.788
29213W        W 1539  40.821  38.504  13.357
29214W        W 1540   5.209  10.223   0.244
29215W        W 1541   8.310   0.373   1.915
29216W        W 1542  31.510  35.414  14.401
29217W        W 1543  24.135  36.418   1.838
29218W        W 1544  19.207  19.744  13.332
29219W        W 1545  18.208  13.696   4.711
29220W        W 1546  26.973  26.681  11.417
29221W        W 1547  14.758  29.560   3.746
29222W        W 1548  43.275  34.893   1.791
29223W        W 1549  22.193  39.947   5.782
29224W        W 1550  22.046   8.728  13.474
29225W        W 1551  19.575  27.174  12.953
29226W        W 1552  32.555  16.775  10.624
29227W        W 1553   0.290  17.755   1.324
29228W        W 1554   4.359  26.496   1.386
29229W        W 1555   3.346   8.356   3.315
29230W        W 1556  36.575  36.025   5.256
29231W        W 1557  34.519   0.942  10.633
29232W        W 1558   7.857  27.157  11.390
29233W        W 1559  20.626  11.761   0.758
29234W        W 1560   6.324  36.525  11.053
29235W        W 1561  43.444  14.172   2.315
29236W        W 1562  11.182  44.801   1.837
29237W        W 1563  34.925  26.479   4.226
29238W        W 1564   1.744  42.357  10.627
29239W        W 1565  24.679  12.362  12.880
29240W        W 1566  10.244  39.468   2.897
29241W        W 1567  20.733   6.846   3.745
29242W        W 1568  30.475  11.705  12.484
29243W        W 1569  20.526  43.480  10.418
29244W        W 1570  24.000  41.911   3.354
29245W        W 1571  24.529  42.849   5.138
29246W        W 1572  14.158  38.868  13.970
29247W        W 1573   5.812  41.941  11.073
29248W        W 1574   1.854  35.600   0.959
29249W        W 1575  27.481  27.689  10.975
29250W        W 1576  13.168  36.050   1.358
29251W        W 1577  25.031  30.988   5.201
29252W        W 1578   8.400  35.929   3.813
29253W        W 1579  20.593  43.316   1.872
29254W        W 1580  34.929  43.802   0.446
29255W        W 1581   0.417  35.061   1.428
29256W        W 1582  29.994  29.969   2.416
29257W        W 1583  42.306  35.521   4.665
29258W        W 1584  22.566   6.311   0.869
29259W        W 1585  38.969  43.991   1.873
29260W        W 1586   1.772  44.800   2.669
29261W        W 1587  11.842  30.424  13.983
29262W        W 1588  27.999  30.526  14.767
29263W        W 1589  10.734  36.414  12.948
29264W        W 1590  16.267  31.479   2.402
29265W        W 1591  19.275  23.546  13.543
29266W        W 1592  19.752  40.349   0.373
29267W        W 1593  34.099  37.958   4.317
29268W        W 1594  43.814  14.701  13.981
29269W        W 1595  16.298  37.556  13.428
29270W        W 1596   9.366   3.304  14.842
29271W        W 1597  43.938  38.525  11.033
29272W        W 1598  12.647  34.899  10.958
29273W        W 1599  38.926   2.321   0.815
29274W        W 1600   4.218   6.908  10.403
29275W        W 1601  35.009  16.147   0.369
29276W        W 1602  39.818  33.478  12.448
29277W        W 1603  42.370  19.778   3.632
29278W        W 1604  33.430  32.587   0.908
29279W        W 1605   1.856  12.642  12.093
29280W        W 1606  27.692  11.700   1.253
29281W        W 1607  13.239  13.245   5.190
29282W        W 1608  18.152   8.691  13.404
29283W        W 1609  31.959  16.592   4.617
29284W        W 1610  39.435   8.791  11.611
29285W        W 1611   6.865   7.183  11.120
29286W        W 1612  43.417   3.394   3.802
29287W        W 1613  37.531  42.926  14.403
29288W        W 1614  34.603  11.759  13.362
29289W        W 1615  34.569  19.251   3.231
29290W        W 1616  24.997  27.610   2.285
29291W        W 1617  29.528  23.998  12.498
29292W        W 1618  40.502   7.410   4.139
29293W        W 1619   4.741  28.145   1.276
29294W        W 1620  42.809  20.212   3.294
29295W        W 1621   4.281  18.219  10.913
29296W        W 1622   4.936  30.484   4.167
29297W        W 1623   6.287  25.622   1.823
29298W        W 1624  13.255  22.252   2.199
29299W        W 1625  35.968  15.270   2.322
29300W        W 1626  33.991  30.098   3.178
29301W        W 1627   5.811   5.752  14.442
29302W        W 1628  39.911   6.279   3.288
29303W        W 1629  44.953   4.315   0.951
29304W        W 1630  42.295  41.440  12.866
29305W        W 1631   3.802  36.079  13.535
29306W        W 1632  33.617  24.000   2.384
29307W        W 1633  42.426  40.798   0.365
29308W        W 1634  36.527  35.076   1.785
29309W        W 1635  30.913  32.568   0.339
29310W        W 1636   5.222  39.009   0.466
29311W        W 1637  18.646  16.276  12.459
29312W        W 1638  32.131  25.521  12.986
29313W        W 1639  25.703  22.165   2.838
29314W        W 1640  18.204  28.610  11.958
29315W        W 1641   7.221   4.727   4.809
29316W        W 1642  14.695  23.527  13.819
29317W        W 1643  20.223   8.258  13.833
29318W        W 1644   9.212  18.052   2.865
29319W        W 1645  27.492  36.016  14.389
29320W        W 1646  34.560   3.798   3.272
29321W        W 1647  44.370   0.436  14.860
29322W        W 1648   5.206  32.454   1.734
29323W        W 1649  24.652   9.868  13.493
29324W        W 1650  31.414  33.017   4.279
29325W        W 1651  29.452  21.031   2.785
29326W        W 1652  37.505  28.117  11.547
29327W        W 1653  18.568  39.017  11.397
29328W        W 1654  44.796   1.809  13.373
29329W        W 1655  16.717  22.238   3.693
29330W        W 1656   5.369   4.803   0.898
29331W        W 1657  36.032  25.636   0.889
29332W        W 1658  25.104   6.714  14.765
29333W        W 1659  26.497  43.367   0.797
29334W        W 1660  16.116  26.590   2.820
29335W        W 1661   6.183  27.577  11.119
29336W        W 1662  24.024  30.485   2.250
29337W        W 1663  36.924  23.617   2.337
29338W        W 1664   9.779  10.142  14.777
29339W        W 1665  19.630  42.859   1.746
29340W        W 1666  31.910  28.059  10.559
29341W        W 1667  41.358   4.790  11.376
29342W        W 1668  29.513  27.533   4.163
29343W        W 1669  33.381  38.015  10.888
29344W        W 1670  40.045  39.383  11.912
29345W        W 1671   1.414  20.549   0.931
29346W        W 1672  27.078  32.065  11.858
29347W        W 1673  38.417  17.800  11.039
29348W        W 1674   8.694  12.165  12.528
29349W        W 1675   0.887   0.286   2.743
29350W        W 1676  32.595  26.546   1.302
29351W        W 1677  10.142   7.221   1.366
29352W        W 1678   1.301  12.347  12.031
29353W        W 1679   5.740   5.244   1.915
29354W        W 1680  29.981  26.194  10.975
29355W        W 1681  32.418   1.928  10.564
29356W        W 1682   7.340  41.915   4.259
29357W        W 1683   3.944  21.724   1.352
29358W        W 1684   0.975  35.433   0.420
29359W        W 1685  24.587  36.511  11.418
29360W        W 1686  26.596  15.776   2.362
29361W        W 1687  38.402  34.036  12.573
29362W        W 1688   4.751   0.304   0.257
29363W        W 1689  17.713   6.204  14.390
29364W        W 1690  21.043   0.271   1.365
29365W        W 1691  17.108  40.012  14.791
29366W        W 1692  16.756  26.023  12.083
29367W        W 1693  29.599   3.830   0.947
29368W        W 1694   3.758  30.926   1.266
29369W        W 1695  17.770  28.594  11.600
29370W        W 1696  43.915  37.965   2.355
29371W        W 1697  22.596  41.801   3.276
29372W        W 1698   4.745   9.372  11.451
29373W        W 1699   1.798  16.075   3.686
29374W        W 1700  43.879  43.842   2.842
29375W        W 1701   0.362  36.370   1.763
29376W        W 1702  28.094   0.294  12.072
29377W        W 1703  17.110  19.214   2.703
29378W        W 1704   8.846  28.525  13.048
29379W        W 1705  16.707  38.887  14.958
29380W        W 1706  36.862  34.420  13.961
29381W        W 1707   9.668   3.327  14.999
29382W        W 1708   3.335  44.897  12.455
29383W        W 1709   4.928   6.904  10.018
29384W        W 1710  33.519  11.866  10.634
29385W        W 1711  41.823  17.139   2.708
29386W        W 1712  18.223  33.624  10.555
29387W        W 1713  18.260  27.489   4.642
29388W        W 1714  22.740  34.022   1.398
29389W        W 1715  19.698   0.896  13.416
29390W        W 1716   5.857  43.922   4.620
29391W        W 1717  36.399  18.092  12.867
29392W        W 1718  42.486  42.859   0.939
29393W        W 1719  37.015  42.405  12.906
29394W        W 1720  39.033  11.646   0.823
29395W        W 1721  39.520  35.977   3.196
29396W        W 1722  33.594  30.530  13.853
29397W        W 1723   0.779  38.050  12.954
29398W        W 1724   8.265  22.099   0.351
29399W        W 1725  14.820  18.638   4.630
29400W        W 1726  11.138   2.360  14.760
29401W        W 1727  41.998  38.936   5.088
29402W        W 1728  26.148  42.385   0.327
29403W        W 1729  16.799  43.809   1.270
29404W        W 1730  14.693  44.999   3.775
29405W        W 1731   4.757   5.919   9.941
29406W        W 1732  12.214   7.202   3.226
29407W        W 1733   8.323  35.933   2.309
29408W        W 1734  25.099  13.831   1.376
29409W        W 1735  15.609  28.567  11.082
29410W        W 1736  15.317   0.416   3.672
29411W        W 1737  26.102  38.050  14.944
29412W        W 1738   2.360  30.985  14.380
29413W        W 1739  22.721  23.562   0.257
29414W        W 1740  19.108   8.403  12.456
29415W        W 1741  20.692  28.505   0.857
29416W        W 1742  38.966  36.510   0.799
29417W        W 1743  41.927  31.960  12.481
29418W        W 1744   9.730  11.231   4.799
29419W        W 1745  10.137  11.720  13.868
29420W        W 1746  15.281  43.826   4.241
29421W        W 1747  35.010  26.032  10.426
29422W        W 1748  24.559  38.395  10.433
29423W        W 1749  27.963  43.502   1.338
29424W        W 1750  11.273   8.334  12.354
29425W        W 1751   1.413  25.652  14.278
29426W        W 1752   7.416  31.480   2.186
29427W        W 1753  15.309   7.807  11.910
29428W        W 1754   1.781  23.183   4.274
29429W        W 1755  32.067   4.942   2.855
29430W        W 1756  32.606  37.546  12.533
29431W        W 1757   7.669  41.460   2.740
29432W        W 1758   6.190  38.426  10.920
29433W        W 1759  34.370   1.889   3.229
29434W        W 1760   2.798  35.466  14.835
29435W        W 1761  20.175  19.282   1.415
29436W        W 1762  44.321  13.340  11.930
29437W        W 1763  12.139  36.952   1.721
29438W        W 1764  42.425  40.944  12.836
29439W        W 1765  43.407   8.864  13.540
29440W        W 1766   0.822  35.996  13.409
29441W        W 1767  14.247   1.249   4.245
29442W        W 1768  30.930  31.645   2.321
29443W        W 1769  16.295  23.659  10.912
29444W        W 1770  26.645  29.089   4.669
29445W        W 1771  35.099  37.009  12.051
29446W        W 1772  34.546  28.649  10.924
29447W        W 1773  11.765   4.219  12.522
29448W        W 1774   3.256  42.508  12.836
29449W        W 1775   0.795  31.584   4.787
29450W        W 1776   1.268  10.686  12.001
29451W        W 1777  34.972  38.931   1.917
29452W        W 1778  32.126  31.907   4.691
29453W        W 1779  19.045   6.796   3.674
29454W        W 1780   6.414   6.900  11.948
29455W        W 1781   4.707  36.407  11.527
29456W        W 1782  30.548   8.728   1.373
29457W        W 1783  42.847  41.304  11.373
29458W        W 1784  24.126   5.752  13.377
29459W        W 1785  24.697  13.262  14.417
29460W        W 1786   7.391   7.834   4.287
29461W        W 1787  34.946  16.666   4.351
29462W        W 1788  30.657   8.663  12.918
29463W        W 1789  20.680  40.535   4.344
29464W        W 1790  28.997  17.755  14.301
29465W        W 1791   3.360  13.296   4.175
29466W        W 1792   0.390  25.204  11.395
29467W        W 1793  10.191  35.953  12.413
29468W        W 1794  20.154   0.981   4.688
29469W        W 1795  32.057   4.734   2.247
29470W        W 1796  15.207   6.821  14.978
29471W        W 1797  31.428  35.581  11.453
29472W        W 1798  28.503  23.510   4.712
29473W        W 1799  42.808  31.534   4.703
29474W        W 1800  13.254   5.866   4.658
29475W        W 1801   1.362  10.307   9.671
29476W        W 1802   7.199  30.594  11.443
29477W        W 1803  10.828  31.121   1.366
29478W        W 1804  26.696  24.169  10.909
29479W        W 1805   6.416  12.820   4.614
29480W        W 1806  15.298   0.849   2.358
29481W        W 1807  42.435  41.026   4.772
29482W        W 1808  37.966  34.082   1.930
29483W        W 1809  34.389   8.841  11.879
29484W        W 1810  12.714   6.901  11.555
29485W        W 1811  39.330  40.380   3.188
29486W        W 1812   9.290  16.213  14.869
29487W        W 1813  16.114  24.062   2.735
29488W        W 1814  42.023  10.666   2.354
29489W        W 1815  38.000   9.734   0.901
29490W        W 1816   8.332  14.753   4.182
29491W        W 1817   2.344  31.567   2.193
29492W        W 1818  10.380  35.586   4.652
29493W        W 1819  13.610  34.942  12.951
29494W        W 1820  42.888  35.984   1.748
29495W        W 1821  38.903  23.593  11.559
29496W        W 1822  20.599   5.732  10.582
29497W        W 1823  15.603  25.667   2.679
29498W        W 1824  18.226  19.766   0.479
29499W        W 1825  18.249  33.979   3.173
29500W        W 1826  36.437  21.525  11.407
29501W        W 1827   3.863  25.553   2.746
29502W        W 1828  42.356   5.261   0.386
29503W        W 1829  42.432   9.181   3.236
29504W        W 1830  38.427  21.172   4.300
29505W        W 1831  35.505   3.804  13.516
29506W        W 1832  40.523  28.659  12.507
29507W        W 1833  12.188  11.672   2.839
29508W        W 1834  30.550  36.575  11.467
29509W        W 1835  28.567   9.347  11.872
29510W        W 1836  26.652  24.998   0.408
29511W        W 1837   1.938  20.547   3.160
29512W        W 1838   6.831  43.787   3.732
29513W        W 1839  26.653  24.084   1.403
29514W        W 1840  16.299   0.767  12.012
29515W        W 1841  22.646  16.168  12.861
29516W        W 1842  38.337  29.576   0.809
29517W        W 1843  31.136  40.976  13.384
29518W        W 1844  35.948  23.577  13.921
29519W        W 1845  11.207   6.911  11.406
29520W        W 1846   5.298  41.304   2.764
29521W        W 1847   9.659  42.316   3.787
29522W        W 1848  11.294  26.045  13.432
29523W        W 1849  35.898  31.575  13.973
29524W        W 1850  16.666  26.673  10.493
29525W        W 1851  10.739  13.127   3.864
29526W        W 1852  40.544  11.655   2.897
29527W        W 1853  42.980  34.920  12.015
29528W        W 1854  37.355  10.674  13.323
29529W        W 1855   6.335   9.383  11.386
29530W        W 1856  12.119  35.026  12.469
29531W        W 1857  31.932   6.813   2.762
29532W        W 1858  25.507  27.566  11.009
29533W        W 1859  26.459  17.253  14.327
29534W        W 1860  15.728   2.963  12.515
29535W        W 1861  34.959  13.708   1.812
29536W        W 1862  11.175  41.458   1.401
29537W        W 1863  25.658  33.418  10.622
29538W        W 1864  41.355  27.037  11.095
29539W        W 1865  41.863   3.734   0.420
29540W        W 1866   9.253  18.158  10.916
29541W        W 1867  16.601  39.871  11.605
29542W        W 1868  13.826  16.679  11.503
29543W        W 1869  21.094  41.427   3.767
29544W        W 1870  26.968  43.375  11.015
29545W        W 1871  31.648  38.516   0.935
29546W        W 1872  13.255  37.510   2.214
29547W        W 1873  43.503  44.486  12.427
29548W        W 1874  16.678  33.553  11.603
29549W        W 1875  34.863  40.863   3.294
29550W        W 1876  34.886  31.932  14.927
29551W        W 1877  15.245   1.476  13.968
29552W        W 1878  44.503   7.202   0.416
29553W        W 1879  13.842  28.102  11.974
29554W        W 1880  38.528   2.770  12.957
29555W        W 1881   6.846  27.682  11.980
29556W        W 1882  28.951  41.397   2.416
29557W        W 1883  42.453   1.474   1.312
29558W        W 1884  41.524  19.564  11.883
29559W        W 1885  15.316  35.044  12.475
29560W        W 1886  22.187   1.335  12.844
29561W        W 1887  12.154  39.897   1.778
29562W        W 1888  30.456  33.920   2.354
29563W        W 1889  40.002   8.723  12.057
29564W        W 1890   7.669  13.265   3.356
29565W        W 1891  31.580  32.560   3.732
29566W        W 1892  12.311  36.566   4.314
29567W        W 1893  17.770  24.217   0.772
29568W        W 1894  24.588  26.488  11.530
29569W        W 1895  39.844  36.489  12.515
29570W        W 1896  38.851   5.692  14.813
29571W        W 1897   0.475  21.664  11.561
29572W        W 1898  26.639  15.623   3.263
29573W        W 1899  37.919  12.709   0.916
29574W        W 1900  26.494   3.897   4.158
29575W        W 1901  33.490  27.673  13.009
29576W        W 1902  23.539   2.864   1.222
29577W        W 1903  14.604  36.511   9.965
29578W        W 1904   0.275   2.432  11.021
29579W        W 1905  41.896   8.197  12.475
29580W        W 1906  19.175  15.179   0.918
29581W        W 1907   0.976  25.541  13.411
29582W        W 1908  15.299  40.313   0.911
29583W        W 1909  18.056   2.788   3.774
29584W        W 1910  25.166  41.938   4.200
29585W        W 1911  42.417  23.546  12.430
29586W        W 1912   4.857  23.996  13.989
29587W        W 1913   5.695   4.272   2.859
29588W        W 1914  39.440   5.341   3.225
29589W        W 1915  42.521  33.987   1.322
29590W        W 1916  13.620  27.454  12.876
29591W        W 1917  43.358   6.852  13.933
29592W        W 1918  23.673  39.556  14.316
29593W        W 1919  12.240  42.287  12.992
29594W        W 1920   7.853  44.385  10.577
29595W        W 1921  34.551  29.445  13.494
29596W        W 1922  44.906  26.552   1.798
29597W        W 1923  33.513   8.701   5.193
29598W        W 1924  12.340  20.104   0.812
29599W        W 1925  22.622  11.862   1.314
29600W        W 1926  28.093  29.630   0.269
29601W        W 1927   1.280  10.206  10.898
29602W        W 1928  28.501  15.216  13.045
29603W        W 1929  23.141   3.746   3.786
29604W        W 1930  18.242  26.658   4.219
29605W        W 1931  31.647  16.168   1.731
29606W        W 1932  39.440   6.714  12.046
29607W        W 1933  34.909  20.265   1.222
29608W        W 1934  14.142  19.721  11.867
29609W        W 1935  38.376  41.884  13.453
29610W        W 1936   5.221  18.739  10.908
29611W        W 1937  25.639  27.944  10.995
29612W        W 1938  33.413  25.059  13.323
29613W        W 1939   3.919  44.483  11.449
29614W        W 1940   3.334  43.488   1.899
29615W        W 1941  18.082   5.402   3.748
29616W        W 1942  12.674  22.119   3.795
29617W        W 1943   0.424  17.794  13.792
29618W        W 1944  20.624  23.579  14.002
29619W        W 1945  40.973  11.289   3.214
29620W        W 1946  26.197  25.142  13.943
29621W        W 1947  32.899  44.362   4.713
29622W        W 1948  17.078  36.949  12.525
29623W        W 1949  35.598  41.021   1.815
29624W        W 1950   5.723   9.859  10.927
29625W        W 1951  38.370   8.760   5.219
29626W        W 1952   5.894  41.527  14.444
29627W        W 1953  42.883  29.938   4.284
29628W        W 1954  17.792  19.672   0.738
29629W        W 1955  10.797  18.679   3.307
29630W        W 1956   7.299  11.772  14.007
29631W        W 1957  32.431  29.651   1.891
29632W        W 1958  26.044  13.114   1.265
29633W        W 1959  39.949  27.691  10.912
29634W        W 1960  23.019  11.194   1.408
29635W        W 1961   1.859  13.730  10.980
29636W        W 1962  28.458  27.594  11.555
29637W        W 1963  41.038  14.827  14.396
29638W        W 1964  33.479  26.525   2.819
29639W        W 1965  30.159   5.211   0.339
29640W        W 1966  24.986  29.634  13.040
29641W        W 1967  13.653  37.025   9.614
29642W        W 1968  16.652  17.126   3.162
29643W        W 1969   3.392  25.673   3.792
29644W        W 1970   9.297  39.505  11.020
29645W        W 1971  17.175  14.661  14.334
29646W        W 1972  17.081  29.520   2.232
29647W        W 1973  33.516  14.270   0.324
29648W        W 1974  35.481  43.987   0.416
29649W        W 1975   8.750  40.515  12.408
29650W        W 1976   9.819   5.925  13.948
29651W        W 1977  15.240  24.667  14.403
29652W        W 1978  16.089  14.805  14.318
29653W        W 1979   6.415  23.521   5.298
29654W        W 1980  35.376  11.807   3.339
29655W        W 1981  15.647  27.650  10.961
29656W        W 1982  13.657  32.405  10.479
29657W        W 1983  44.812  41.008   1.700
29658W        W 1984  37.036  10.753   5.310
29659W        W 1985  36.853  35.107  14.512
29660W        W 1986  11.815  29.586   4.334
29661W        W 1987  30.547  36.549  14.992
29662W        W 1988  28.034  43.801  13.874
29663W        W 1989   3.865  34.064   0.915
29664W        W 1990  27.125  28.157  10.481
29665W        W 1991  34.119  41.856   4.118
29666W        W 1992  35.508  20.687  13.829
29667W        W 1993  42.482  43.333  14.911
29668W        W 1994  14.295  21.254   3.796
29669W        W 1995  31.033  27.052   4.277
29670W        W 1996  31.989  39.953   9.942
29671W        W 1997  37.513  11.788  14.399
29672W        W 1998  31.932   3.883   0.880
29673W        W 1999   8.184  31.939  12.497
29674W        W 2000  37.032  16.716  11.475
29675W        W 2001  16.246   2.345   2.399
29676W        W 2002  44.299  13.114   3.266
29677W        W 2003  18.557   6.412   2.231
29678W        W 2004  28.154  15.611  12.431
29679W        W 2005  25.967   4.308  12.531
29680W        W 2006  36.425  38.377   0.244
29681W        W 2007   8.783   8.206  12.408
29682W        W 2008   3.337  41.430   0.478
29683W        W 2009  36.435  36.563   4.322
29684W        W 2010  14.694  38.476   0.891
29685W        W 2011  27.081  37.915  12.367
29686W        W 2012   0.812   0.942   5.251
29687W        W 2013  13.793  31.141  13.864
29688W        W 2014   6.275  12.253   1.302
29689W        W 2015  20.654  33.060  13.478
29690W        W 2016  29.620  20.106   2.243
29691W        W 2017  13.123   8.390   2.346
29692W        W 2018  12.327  25.103  10.893
29693W        W 2019   6.848  41.483   3.315
29694W        W 2020  31.597   8.373  13.449
29695W        W 2021  44.408  10.197  10.994
29696W        W 2022   5.714  30.072   3.683
29697W        W 2023   1.412  31.460   4.140
29698W        W 2024  15.244  20.172  13.004
29699W        W 2025   3.460  31.131  11.908
29700W        W 2026   3.303  21.125  10.891
29701W        W 2027  31.460   6.232  12.495
29702W        W 2028  18.247   1.949  13.898
29703W        W 2029  33.467  37.454   1.450
29704W        W 2030  31.550   8.207  11.043
29705W        W 2031  23.497  35.494  12.055
29706W        W 2032  21.212  24.567  10.542
29707W        W 2033   3.293  25.023  10.485
29708W        W 2034  22.700  36.002  11.105
29709W        W 2035  40.350  34.053   3.811
29710W        W 2036  21.215  41.303   0.920
29711W        W 2037  10.320  37.577  14.354
29712W        W 2038  19.051   2.825   2.700
29713W        W 2039  28.542  27.055  12.922
29714W        W 2040  39.822  12.284   3.184
29715W        W 2041   9.395  29.074   2.342
29716W        W 2042  27.660  29.624   1.221
29717W        W 2043   0.491   8.298  11.028
29718W        W 2044  25.582  28.982  14.308
29719W        W 2045  27.651  19.676  10.483
29720W        W 2046  26.012  26.491  14.760
29721W        W 2047   5.829  33.565  11.870
29722W        W 2048  38.029  11.338  14.881
29723W        W 2049  35.379  23.522  11.511
29724W        W 2050  24.594  10.715   3.855
29725W        W 2051  15.233  21.039   1.806
29726W        W 2052  41.007  39.010  12.341
29727W        W 2053  40.358  10.690  13.357
29728W        W 2054   2.258   9.837  12.429
29729W        W 2055  38.053  39.388  12.480
29730W        W 2056  43.984  17.076   0.322
29731W        W 2057  24.482  24.021   1.752
29732W        W 2058  21.079   3.351  13.326
29733W        W 2059  34.497  34.979   2.688
29734W        W 2060  29.021  23.078   4.812
29735W        W 2061  18.628  31.442   3.288
29736W        W 2062   2.957  18.194  13.792
29737W        W 2063  10.753  31.111  13.370
29738W        W 2064  36.510  32.432   3.316
29739W        W 2065  35.583  40.425  11.602
29740W        W 2066  11.641  37.872   4.720
29741W        W 2067  36.863   5.284   4.244
29742W        W 2068  36.058   8.855  12.952
29743W        W 2069  36.379  31.567   2.379
29744W        W 2070  15.606  26.540   0.784
29745W        W 2071   9.793  23.229  14.369
29746W        W 2072   5.760  14.772   4.634
29747W        W 2073  27.962  14.245  10.420
29748W        W 2074  44.985  34.478  12.923
29749W        W 2075  26.673  30.922   2.261
29750W        W 2076  20.592  15.293  11.013
29751W        W 2077  27.965  29.042  11.976
29752W        W 2078   8.752  33.021   1.896
29753W        W 2079  18.256  37.991   1.708
29754W        W 2080  38.433  18.063  12.518
29755W        W 2081  22.569   8.159   3.807
29756W        W 2082  30.456  21.675   4.259
29757W        W 2083  19.160   0.842  11.044
29758W        W 2084  10.298  38.344   4.218
29759W        W 2085  21.151   7.673   1.385
29760W        W 2086   5.701  43.487   1.901
29761W        W 2087  12.754  27.596   0.813
29762W        W 2088  38.450  35.004  12.578
29763W        W 2089  33.573  21.648   1.916
29764W        W 2090   1.323  37.870  14.965
29765W        W 2091  20.233   4.807  11.940
29766W        W 2092   3.426  42.908  12.503
29767W        W 2093   3.403  33.506  12.999
29768W        W 2094  25.559  27.544   1.846
29769W        W 2095  43.877   9.880   2.736
29770W        W 2096  37.350  19.712   5.250
29771W        W 2097  10.168  11.786   0.860
29772W        W 2098  19.610  12.266   3.638
29773W        W 2099  35.858  10.376  10.097
29774W        W 2100  38.949  11.285  14.423
29775W        W 2101  42.799  34.493   1.415
29776W        W 2102  41.334  37.513  14.849
29777W        W 2103  12.170  41.480  12.049
29778W        W 2104  12.285  32.935   4.597
29779W        W 2105  16.247   5.359   0.936
29780W        W 2106  33.995   6.899  14.932
29781W        W 2107  13.824   4.777   3.769
29782W        W 2108   6.822   1.740   1.865
29783W        W 2109  29.935  19.677  13.860
29784W        W 2110  20.260   4.709   2.667
29785W        W 2111  38.031  23.504  13.488
29786W        W 2112   4.701  42.032   0.318
29787W        W 2113  11.693  23.012  11.532
29788W        W 2114  17.702  37.009   1.836
29789W        W 2115   8.352  15.149  13.853
29790W        W 2116   1.780  35.872  12.882
29791W        W 2117  43.420  24.028  10.493
29792W        W 2118  12.827  35.512   3.647
29793W        W 2119   3.823  16.570  13.453
29794W        W 2120  24.513  14.675  12.404
29795W        W 2121   7.272  11.193  12.563
29796W        W 2122  13.747  36.069  12.385
29797W        W 2123  27.992  17.101   0.244
29798W        W 2124   8.234   7.218   2.883
29799W        W 2125  28.980  36.476   2.699
29800W        W 2126  21.682  19.085   4.778
29801W        W 2127   6.427   0.920   1.304
29802W        W 2128  24.718  18.111  10.521
29803W        W 2129  30.025   0.764   4.130
29804W        W 2130  30.078  21.636  12.375
29805W        W 2131  39.036  16.283  11.395
29806W        W 2132  34.923  29.154  12.412
29807W        W 2133  40.432  18.752  12.002
29808W        W 2134  21.208  44.446   4.347
29809W        W 2135  32.944  22.039  10.958
29810W        W 2136  40.995  39.818   3.146
29811W        W 2137  38.383  25.575   1.304
29812W        W 2138   4.781  11.142  10.063
29813W        W 2139  27.180  24.125  14.772
29814W        W 2140  24.057   0.312   2.876
29815W        W 2141  35.916  25.690   1.869
29816W        W 2142  15.291  26.141  12.568
29817W        W 2143  20.612   1.977  11.584
29818W        W 2144  32.629  37.339  13.374
29819W        W 2145  32.629  14.170  12.479
29820W        W 2146   3.752  39.857  12.836
29821W        W 2147  27.617  44.460  13.344
29822W        W 2148  25.682  25.066  12.032
29823W        W 2149   8.292   4.254  12.998
29824W        W 2150   5.313   5.390   4.174
29825W        W 2151  40.861  10.795  14.474
29826W        W 2152  35.026  22.175  13.334
29827W        W 2153   2.339  17.636   3.174
29828W        W 2154  24.187  39.937   0.768
29829W        W 2155  34.393  28.959   1.371
29830W        W 2156   3.456   1.781   9.677
29831W        W 2157  23.203   7.887  13.434
29832W        W 2158  42.361  27.500  12.858
29833W        W 2159   2.814  12.632   3.683
29834W        W 2160  40.851   4.730  10.589
29835W        W 2161  39.030   7.270  10.417
29836W        W 2162  24.713  20.563  14.447
29837W        W 2163  43.481  40.314   1.242
29838W        W 2164  23.010   6.757  13.387
29839W        W 2165  30.160   4.380  11.981
29840W        W 2166  42.965   7.737   3.681
29841W        W 2167  27.596  16.184   0.778
29842W        W 2168  24.517  13.110   3.297
29843W        W 2169   2.724  42.331   2.875
29844W        W 2170  12.643  28.582   1.290
29845W        W 2171  31.523  43.788   1.781
29846W        W 2172  21.243  20.157   3.202
29847W        W 2173  11.725  26.987   4.140
29848W        W 2174   4.349  19.190   4.736
29849W        W 2175  21.666  24.011   2.401
29850W        W 2176  12.202  10.761  11.938
29851W        W 2177  34.889  37.538   4.781
29852W        W 2178  14.593  20.118  10.412
29853W        W 2179   5.270  41.376   1.307
29854W        W 2180  14.179  21.188   3.240
29855W        W 2181  26.464  38.466   1.272
29856W        W 2182   4.328  44.343   4.804
29857W        W 2183   6.285  38.840  13.444
29858W        W 2184  37.882   0.342  13.419
29859W        W 2185   6.796  43.403  14.274
29860W        W 2186   9.686  26.493   4.350
29861W        W 2187  10.743  39.011   3.261
29862W        W 2188  32.498  31.933   4.791
29863W        W 2189  11.818  21.662  13.857
29864W        W 2190  32.105  26.628  10.925
29865W        W 2191   7.784  18.066   5.268
29866W        W 2192  44.926   2.360   3.267
29867W        W 2193  43.273  36.354  14.365
29868W        W 2194  43.818  29.454   4.224
29869W        W 2195  38.064  13.136   1.336
29870W        W 2196  38.411  29.562  11.396
29871W        W 2197  36.393   8.836   0.801
29872W        W 2198  29.450  15.624   4.118
29873W        W 2199   7.833  25.975  14.841
29874W        W 2200   1.432  43.999  10.422
29875W        W 2201  14.165   6.876   3.869
29876W        W 2202  13.110  10.849   2.266
29877W        W 2203  21.615   3.328   4.697
29878W        W 2204  28.054   7.346   4.279
29879W        W 2205  14.791  25.615   3.780
29880W        W 2206  27.041   3.254  12.096
29881W        W 2207  14.196   9.750  10.999
29882W        W 2208  22.016  31.603   0.786
29883W        W 2209  37.414  19.269   4.758
29884W        W 2210  25.090  23.532   3.348
29885W        W 2211  35.991   3.844  13.512
29886W        W 2212   5.722   1.424  12.085
29887W        W 2213  16.759  16.250  12.957
29888W        W 2214  36.058  16.683   4.298
29889W        W 2215  13.811   6.712  13.959
29890W        W 2216  22.576  38.963   3.347
29891W        W 2217  36.528   7.396  11.060
29892W        W 2218  41.417  37.557  14.358
29893W        W 2219  36.954  18.189  11.382
29894W        W 2220  32.083  16.726  11.979
29895W        W 2221   6.343  28.119   4.832
29896W        W 2222  14.300  25.003   1.321
29897W        W 2223  33.621  31.100   0.861
29898W        W 2224  22.019  18.156   4.780
29899W        W 2225  36.078  43.316   3.644
29900W        W 2226  21.617  15.752  11.030
29901W        W 2227   3.795  26.107   2.390
29902W        W 2228  38.963  13.295  14.470
29903W        W 2229   4.406  19.159   2.814
29904W        W 2230  15.752  31.912  13.940
29905W        W 2231  32.398  18.195   1.709
29906W        W 2232  15.748  25.579   3.338
29907W        W 2233  30.451   2.787  11.097
29908W        W 2234  18.244   3.375  13.032
29909W        W 2235  16.600  36.582  12.048
29910W        W 2236  33.435  11.836  13.398
29911W        W 2237  36.993  39.482  14.977
29912W        W 2238  38.075  42.417  13.892
29913W        W 2239   8.772  32.608  13.005
29914W        W 2240  10.848  15.297   3.302
29915W        W 2241   7.399  41.879   4.723
29916W        W 2242  35.418  36.985  11.394
29917W        W 2243  44.387  39.021  11.125
29918W        W 2244  13.798  36.574  14.817
29919W        W 2245  23.547   2.954  10.974
29920W        W 2246  34.121  22.036   2.233
29921W        W 2247   4.344   1.249   4.190
29922W        W 2248   5.748  13.196   0.462
29923W        W 2249   5.419  29.660  13.409
29924W        W 2250   0.840  29.517   4.349
29925W        W 2251  31.420  24.103  14.340
29926W        W 2252  14.292  19.619   0.385
29927W        W 2253  29.935  25.586  13.447
29928W        W 2254   9.298  44.948   1.422
29929W        W 2255  29.526  44.914   2.406
29930W        W 2256  41.964   3.406   4.773
29931W        W 2257   8.330  34.895  14.880
29932W        W 2258  44.454   0.910   1.887
29933W        W 2259  33.883  15.213  14.464
29934W        W 2260  33.926  23.051  11.069
29935W        W 2261  35.889  13.844   1.779
29936W        W 2262  22.073   1.240   0.887
29937W        W 2263  20.215  33.895  13.437
29938W        W 2264   2.865  24.001   1.770
29939W        W 2265  14.598   2.389   4.222
29940W        W 2266  28.152  27.129  11.514
29941W        W 2267  44.963  36.440   4.818
29942W        W 2268  15.243  30.929  14.905
29943W        W 2269   3.748  24.995  11.509
29944W        W 2270   6.403  22.545   4.205
29945W        W 2271  20.150  38.927  13.041
29946W        W 2272  26.590  36.449   3.229
29947W        W 2273   9.878  28.588   1.866
29948W        W 2274  10.146   4.311   3.640
29949W        W 2275   3.787  34.558  11.125
29950W        W 2276  22.031  35.398   1.762
29951W        W 2277  25.986  41.476   3.783
29952W        W 2278   6.312  18.722   1.311
29953W        W 2279  11.719   5.366  14.826
29954W        W 2280  32.947  23.128  14.009
29955W        W 2281  20.265  16.630   4.158
29956W        W 2282   0.461  14.682  11.908
29957W        W 2283  10.234  20.557  10.950
29958W        W 2284  30.526  14.262   3.710
29959W        W 2285  32.413  33.106   0.767
29960W        W 2286   2.282  44.790   3.797
29961W        W 2287   6.861  42.314  14.857
29962W        W 2288  25.566  18.113   4.347
29963W        W 2289  12.286  42.522   2.755
29964W        W 2290  41.041  27.058   1.408
29965W        W 2291  39.839  27.689  12.060
29966W        W 2292  10.792   4.307   2.282
29967W        W 2293  40.868  35.575  11.950
29968W        W 2294  40.985  22.543  10.588
29969W        W 2295   0.270  17.297  13.395
29970W        W 2296  17.201  43.927  12.370
29971W        W 2297  34.476  30.105  12.975
29972W        W 2298  43.818  18.194  14.885
29973W        W 2299   5.858  43.909  10.958
29974W        W 2300  11.808   9.197  11.869
29975W        W 2301  19.135  44.811  13.418
29976W        W 2302  20.664  17.654   4.317
29977W        W 2303  38.821   2.904  14.841
29978W        W 2304  23.059  38.975   1.272
29979W        W 2305  22.544  29.998   0.361
29980W        W 2306  20.116  37.345  10.524
29981W        W 2307  44.847   2.852   0.463
29982W        W 2308  34.011  44.352  10.982
29983W        W 2309  18.658  26.130   4.646
29984W        W 2310  30.026  24.188   2.680
29985W        W 2311  27.004   9.241  11.022
29986W        W 2312  35.516   6.221  12.562
29987W        W 2313  44.329  34.565  10.531
29988W        W 2314  14.232  42.325  11.380
29989W        W 2315  10.798  36.366   1.442
29990W        W 2316  16.658  32.580   4.243
29991W        W 2317   0.465  27.625  13.324
29992W        W 2318  21.046  11.216  13.342
29993W        W 2319  40.839  24.001  10.458
29994W        W 2320  29.017   6.271   1.838
29995W        W 2321  41.474  43.427   0.296
29996W        W 2322  10.696  44.345   2.685
29997W        W 2323   5.352  34.046   1.721
29998W        W 2324   3.759  33.073  11.884
29999W        W 2325  38.931  11.133   2.674
30000W        W 2326  31.052  10.163  13.307
30001W        W 2327  40.393  23.157  11.433
30002W        W 2328  42.843   0.801  13.422
30003W        W 2329  12.728   1.801  11.508
30004W        W 2330  24.659   4.828   0.481
30005W        W 2331  31.481  21.034   1.822
30006W        W 2332  37.458  10.272  11.858
30007W        W 2333  42.888  14.747  13.537
30008W        W 2334  20.169   7.866  12.918
30009W        W 2335  13.266  33.040   2.270
30010W        W 2336  36.892  16.191   2.312
30011W        W 2337  26.110  11.259   0.450
30012W        W 2338   6.696  42.360  12.876
30013W        W 2339  21.259  14.252  12.503
30014W        W 2340  13.663   1.238  12.402
30015W        W 2341  14.142  25.131  11.599
30016W        W 2342   3.298   4.819   4.640
30017W        W 2343  25.489  40.450   3.783
30018W        W 2344  43.001   6.713   0.763
30019W        W 2345  18.618  44.376  11.547
30020W        W 2346  33.021   3.758   1.826
30021W        W 2347   5.769   0.403  11.996
30022W        W 2348  30.559   8.790   0.281
30023W        W 2349  32.044  10.182   1.348
30024W        W 2350  41.946   5.298  11.880
30025W        W 2351  42.516  20.044   4.304
30026W        W 2352  20.666  30.956  13.798
30027W        W 2353  26.627  19.044   0.884
30028W        W 2354  20.212  11.132   9.965
30029W        W 2355  42.482  38.983   3.341
30030W        W 2356  39.893  15.085  13.814
30031W        W 2357  41.502  24.537  11.477
30032W        W 2358   4.851  42.312   2.893
30033W        W 2359  26.595   7.329   2.848
30034W        W 2360  42.947  30.908   4.245
30035W        W 2361  40.467  17.154   3.697
30036W        W 2362  19.118   0.441  11.110
30037W        W 2363  40.327  35.002   2.282
30038W        W 2364  40.924  43.019  14.878
30039W        W 2365   3.305   3.835   4.291
30040W        W 2366  40.492   8.165  14.497
30041W        W 2367  15.119  24.704   2.355
30042W        W 2368  18.604  41.294  12.018
30043W        W 2369  19.682  44.885   1.264
30044W        W 2370   9.161  25.506   0.418
30045W        W 2371  29.631  19.162  10.513
30046W        W 2372  42.290   0.756   4.756
30047W        W 2373  36.440  25.122   4.280
30048W        W 2374  15.692   7.315  10.983
30049W        W 2375   7.729  26.614   0.439
30050W        W 2376  26.524   5.373   2.882
30051W        W 2377  15.285  37.491   1.343
30052W        W 2378  27.579  11.693   3.643
30053W        W 2379  30.990  35.509   0.868
30054W        W 2380  44.866  31.459  10.546
30055W        W 2381   0.419  26.091   0.340
30056W        W 2382  23.992  18.159   1.259
30057W        W 2383  10.671  40.843  11.446
30058W        W 2384  33.957  16.219   2.740
30059W        W 2385  10.755  27.497  10.438
30060W        W 2386  34.012  17.076  12.538
30061W        W 2387  10.183   6.816   5.124
30062W        W 2388   2.938  20.607   4.169
30063W        W 2389  14.316  40.310  12.345
30064W        W 2390  39.920  44.497  11.102
30065W        W 2391  25.691  22.570  11.605
30066W        W 2392  40.957  26.489   1.747
30067W        W 2393  36.073   9.792  13.958
30068W        W 2394  29.670   8.294  13.330
30069W        W 2395  33.410  35.518   9.469
30070W        W 2396  44.369  40.358  10.556
30071W        W 2397  13.652   5.894   1.733
30072W        W 2398  17.177  10.843  14.418
30073W        W 2399   0.784  41.524   3.746
30074W        W 2400  41.407   8.825  10.620
30075W        W 2401  40.539  42.507  14.874
30076W        W 2402  35.403  33.476  12.365
30077W        W 2403  19.262  33.904  14.299
30078W        W 2404   3.816  37.490   5.307
30079W        W 2405  14.789  39.526   0.837
30080W        W 2406  31.003   1.322   1.844
30081W        W 2407  15.107  23.148   1.909
30082W        W 2408  23.724  28.647   4.254
30083W        W 2409   3.947  41.375   0.757
30084W        W 2410  30.595  32.977   4.838
30085W        W 2411  43.001  20.537  13.372
30086W        W 2412  40.439  21.603  12.407
30087W        W 2413  15.299   8.719  11.537
30088W        W 2414  35.963  33.409   3.345
30089W        W 2415  33.044  26.679   0.290
30090W        W 2416   4.818  29.018  13.865
30091W        W 2417  36.873  40.936  13.442
30092W        W 2418  22.097  11.810  14.349
30093W        W 2419  14.199   2.764   2.715
30094W        W 2420  12.650  41.503  14.419
30095W        W 2421  19.624  14.821  11.589
30096W        W 2422  19.595  32.557  11.864
30097W        W 2423  14.658  31.961  13.898
30098W        W 2424  13.611  13.137   1.783
30099W        W 2425   8.201  30.514  13.810
30100W        W 2426  21.602   1.774  12.404
30101W        W 2427  44.755   0.383   1.745
30102W        W 2428  34.509  34.030  12.370
30103W        W 2429  42.849  39.869  14.505
30104W        W 2430  10.762  10.657  11.960
30105W        W 2431  38.892  38.075   3.698
30106W        W 2432  35.439  44.982   3.784
30107W        W 2433  37.842  33.468  11.497
30108W        W 2434  42.363  32.477  14.923
30109W        W 2435  40.487  18.717  10.598
30110W        W 2436   6.679  39.828   2.263
30111W        W 2437  30.602   9.746   2.867
30112W        W 2438  13.837   2.747   4.130
30113W        W 2439  18.613  18.663  11.390
30114W        W 2440  32.978  11.178   0.799
30115W        W 2441   1.343  32.009   4.260
30116W        W 2442   7.833  41.947  11.420
30117W        W 2443   0.840  38.886   2.886
30118W        W 2444  22.653  39.951  13.017
30119W        W 2445   7.807  28.133  12.083
30120W        W 2446  34.499  15.663   2.419
30121W        W 2447   2.428  30.548   2.744
30122W        W 2448  27.076  17.770  13.340
30123W        W 2449  42.809  25.476   3.631
30124W        W 2450  44.974   1.386  10.508
30125W        W 2451  28.581  14.337  11.101
30126W        W 2452   4.704  31.043  14.925
30127W        W 2453  31.534  31.071  14.865
30128W        W 2454  13.148   9.665   2.784
30129W        W 2455   0.289  23.027   2.283
30130W        W 2456  44.808  34.986   3.754
30131W        W 2457  17.285  40.886  11.551
30132W        W 2458  32.033  44.962   4.711
30133W        W 2459  37.552   4.796  13.936
30134W        W 2460  19.252  34.902   3.848
30135W        W 2461  41.486  18.569   3.158
30136W        W 2462  27.472  38.856   0.852
30137W        W 2463  38.357  12.313   4.257
30138W        W 2464  23.558   6.684  11.411
30139W        W 2465  31.428   3.363   3.348
30140W        W 2466  14.594   3.793   0.812
30141W        W 2467  25.688  14.180   3.752
30142W        W 2468  38.495  31.621   1.858
30143W        W 2469   5.806   5.390   3.666
30144W        W 2470  38.420   7.230   2.809
30145W        W 2471  35.871  43.877   2.670
30146W        W 2472  38.446   4.367   4.664
30147W        W 2473  10.266  19.055  11.050
30148W        W 2474  27.456  11.837   4.332
30149W        W 2475  37.431  12.205   2.230
30150W        W 2476  43.390   5.863   0.759
30151W        W 2477   7.354  21.593  11.472
30152W        W 2478  42.386   5.358  10.590
30153W        W 2479  34.901   8.839   2.855
30154W        W 2480   8.690   3.303   1.902
30155W        W 2481   1.789  20.671  10.578
30156W        W 2482  16.600  32.472  11.089
30157W        W 2483  17.256   7.280  13.384
30158W        W 2484  39.044  44.502   1.388
30159W        W 2485  37.082  15.113   0.893
30160W        W 2486  25.691  24.221   3.343
30161W        W 2487   8.774  32.078   1.799
30162W        W 2488   6.918  20.634   4.205
30163W        W 2489  33.968  28.959  14.380
30164W        W 2490  16.145  15.691  10.986
30165W        W 2491  12.334  29.077  14.988
30166W        W 2492  26.553   9.789   4.824
30167W        W 2493  17.634  13.193  14.804
30168W        W 2494  30.473  34.937  11.438
30169W        W 2495  14.718   8.302   1.858
30170W        W 2496  24.593   4.856   3.700
30171W        W 2497  23.629   7.799  12.857
30172W        W 2498  25.611  27.500   2.669
30173W        W 2499  34.002  27.167  14.930
30174W        W 2500  32.137  13.806  10.498
30175W        W 2501  27.528  15.610   2.822
30176W        W 2502  28.933   1.403  11.958
30177W        W 2503  22.542   1.923   0.785
30178W        W 2504  38.401   4.262  11.375
30179W        W 2505  10.835   3.444   0.850
30180W        W 2506  18.279  15.662  13.417
30181W        W 2507  20.621  43.981   2.891
30182W        W 2508  38.485  33.007   4.200
30183W        W 2509  23.601  39.339   1.863
30184W        W 2510  25.090  38.837   1.712
30185W        W 2511  34.560  40.830  14.448
30186W        W 2512  23.217   7.326   4.600
30187W        W 2513  41.386  11.236   2.879
30188W        W 2514  16.792   6.878  12.367
30189W        W 2515  40.827  37.908  11.044
30190W        W 2516  17.802  36.446   4.779
30191W        W 2517   5.732  26.563  12.570
30192W        W 2518  32.105   0.829  12.017
30193W        W 2519  10.363   5.234   0.385
30194W        W 2520  39.458  33.949   3.814
30195W        W 2521   7.766  26.068   1.746
30196W        W 2522  14.640  37.838  12.993
30197W        W 2523  33.957  30.990   0.371
30198W        W 2524   2.871   9.268  10.094
30199W        W 2525  26.538  31.484  13.459
30200W        W 2526  41.463  24.225   4.313
30201W        W 2527  36.957  32.952   2.279
30202W        W 2528  19.113   3.752   0.311
30203W        W 2529   6.198  10.870  11.106
30204W        W 2530   6.714  32.520  10.892
30205W        W 2531   4.205  39.559  10.627
30206W        W 2532  42.340   9.162  13.920
30207W        W 2533  27.080  23.678   0.764
30208W        W 2534  29.425   3.356   3.687
30209W        W 2535   0.426  33.416  14.422
30210W        W 2536  15.709  24.119   1.302
30211W        W 2537  15.722  44.353   3.636
30212W        W 2538  39.542   6.320  12.953
30213W        W 2539  27.094  14.096  13.351
30214W        W 2540  20.730  22.079  12.395
30215W        W 2541  28.183  19.733  12.367
30216W        W 2542  17.106  22.539  10.026
30217W        W 2543  20.590  23.179   4.768
30218W        W 2544  19.267  16.675   3.236
30219W        W 2545  15.722   5.358   4.648
30220W        W 2546  17.231  15.604  13.793
30221W        W 2547  20.618  26.623  11.003
30222W        W 2548  40.398  15.107  13.500
30223W        W 2549   2.463  21.117   0.921
30224W        W 2550   1.296  43.346   2.406
30225W        W 2551  24.167  22.653   2.353
30226W        W 2552   6.682   9.253   4.829
30227W        W 2553  21.741   3.257  12.388
30228W        W 2554  13.819  13.257   4.214
30229W        W 2555  20.112   7.845  14.440
30230W        W 2556  21.237  40.347   0.318
30231W        W 2557  26.540  15.615  14.791
30232W        W 2558  42.840  44.287   1.283
30233W        W 2559  24.602  22.231  14.480
30234W        W 2560  28.020  22.179  13.824
30235W        W 2561  12.297  14.755   0.805
30236W        W 2562  31.962  20.698   0.822
30237W        W 2563  35.486  40.513  13.971
30238W        W 2564  35.990   9.725   3.203
30239W        W 2565  31.974  34.488  12.865
30240W        W 2566  41.932   1.770   5.279
30241W        W 2567  44.787  26.978  12.572
30242W        W 2568  16.675   5.389  11.996
30243W        W 2569  14.184  43.822   0.934
30244W        W 2570  26.497  30.469  10.609
30245W        W 2571   6.900  20.650  12.354
30246W        W 2572  25.669  21.024   0.814
30247W        W 2573  31.549  36.973   4.743
30248W        W 2574  27.951   6.399  14.939
30249W        W 2575  23.728  12.658   4.712
30250W        W 2576  25.197  42.320   2.713
30251W        W 2577  24.141  18.271   1.892
30252W        W 2578  42.362  17.167  10.575
30253W        W 2579  29.537  39.815  13.853
30254W        W 2580  40.355  26.081   0.429
30255W        W 2581  29.450  19.587   0.762
30256W        W 2582   8.662  30.093   0.281
30257W        W 2583  28.117  28.979   0.414
30258W        W 2584  31.015  41.881   2.212
30259W        W 2585  10.278   5.313  11.470
30260W        W 2586  29.945  23.676   1.369
30261W        W 2587  34.102  24.214  11.890
30262W        W 2588  12.639  29.635   2.415
30263W        W 2589  35.366   4.376  12.516
30264W        W 2590   2.291  22.023  13.522
30265W        W 2591  13.147  10.704  11.463
30266W        W 2592  18.227  24.186   2.900
30267W        W 2593  20.546   2.799  12.993
30268W        W 2594  42.387   0.374   1.810
30269W        W 2595  32.412  11.258   4.125
30270W        W 2596  37.422  17.307   1.254
30271W        W 2597  14.280  18.736   1.438
30272W        W 2598  32.402   0.288  10.479
30273W        W 2599   6.394  39.454  12.939
30274W        W 2600  14.661  43.825  11.488
30275W        W 2601   5.310   8.237  12.524
30276W        W 2602  18.130  14.592   2.677
30277W        W 2603  21.706  23.044  10.915
30278W        W 2604   1.405  25.587  11.401
30279W        W 2605  33.417  17.122  12.422
30280W        W 2606   9.671   8.864  12.437
30281W        W 2607  28.973   8.885  14.359
30282W        W 2608  30.970   3.820  11.920
30283W        W 2609  30.164  16.632  10.542
30284W        W 2610  23.112  35.878  12.931
30285W        W 2611  43.425  40.401   9.973
30286W        W 2612  19.197  25.194  13.047
30287W        W 2613  15.767  11.319   0.964
30288W        W 2614  41.363   2.938   4.640
30289W        W 2615  30.016  35.976  11.450
30290W        W 2616  30.479  22.659   4.797
30291W        W 2617  29.650   5.801  14.425
30292W        W 2618  44.803   8.197   4.684
30293W        W 2619  12.265  20.588   2.800
30294W        W 2620  18.746   1.854  11.025
30295W        W 2621  24.480  29.093   4.256
30296W        W 2622   9.171  15.272  13.319
30297W        W 2623   5.694  18.770  12.997
30298W        W 2624  36.400   0.261   1.706
30299W        W 2625  20.209  17.602  11.095
30300W        W 2626  31.040  10.877  12.057
30301W        W 2627   7.393  22.117   4.308
30302W        W 2628  34.990  21.024   4.790
30303W        W 2629  41.431  15.748   3.793
30304W        W 2630  39.978  21.221   3.842
30305W        W 2631  14.172  18.657  13.816
30306W        W 2632  35.038  29.651  12.373
30307W        W 2633   0.761  35.980  11.076
30308W        W 2634  30.508  41.792  13.424
30309W        W 2635   8.380  35.412  10.612
30310W        W 2636   0.948  44.299   1.774
30311W        W 2637  33.068  31.069   1.342
30312W        W 2638  13.771  27.547   3.233
30313W        W 2639   7.302  24.210   3.719
30314W        W 2640  27.985  24.622   3.342
30315W        W 2641  39.534   8.810  14.864
30316W        W 2642  23.577   8.271  12.537
30317W        W 2643  28.053  39.440   0.927
30318W        W 2644  13.112  22.213  10.618
30319W        W 2645   6.688  10.825  10.462
30320W        W 2646  16.179  15.802  10.506
30321W        W 2647  39.811  41.979  11.070
30322W        W 2648  21.664   4.401  14.790
30323W        W 2649  11.214  44.004   3.869
30324W        W 2650  39.476  34.029   2.825
30325W        W 2651   2.952  30.416  11.993
30326W        W 2652  35.603  18.607  12.485
30327W        W 2653   8.271  35.435   3.240
30328W        W 2654  21.096  15.121  12.437
30329W        W 2655  31.481   4.251  11.513
30330W        W 2656  31.490  16.696   4.715
30331W        W 2657  35.885  10.657   0.733
30332W        W 2658   7.730  10.210  11.408
30333W        W 2659  12.331  16.657   1.239
30334W        W 2660  13.191   0.915   0.908
30335W        W 2661   6.264   3.935   3.722
30336W        W 2662  19.260  39.334   4.829
30337W        W 2663   2.858  32.460   1.276
30338W        W 2664  44.432   7.334  14.459
30339W        W 2665   2.471  40.352   2.259
30340W        W 2666   1.750  18.287   4.787
30341W        W 2667  29.068  19.179   4.223
30342W        W 2668   1.858  20.522  13.348
30343W        W 2669   2.931  43.842  12.965
30344W        W 2670  39.831  32.543  13.986
30345W        W 2671  25.034  41.378   2.874
30346W        W 2672  28.008  14.775   4.254
30347W        W 2673  23.014  13.254   4.260
30348W        W 2674  41.537  42.887   3.652
30349W        W 2675  21.661  32.123   1.783
30350W        W 2676  34.400   8.209  13.533
30351W        W 2677   3.809  24.104  11.033
30352W        W 2678  23.125   5.862   0.348
30353W        W 2679  25.114  21.187   3.350
30354W        W 2680  15.237  20.227   4.684
30355W        W 2681   2.883  12.157   5.670
30356W        W 2682  11.860  30.975   1.290
30357W        W 2683  12.677  37.846   1.264
30358W        W 2684   2.959  26.038  13.421
30359W        W 2685  13.221   6.829  11.394
30360W        W 2686  42.410  24.021   1.882
30361W        W 2687  23.735  39.856  12.364
30362W        W 2688  44.424  30.018  13.858
30363W        W 2689  34.552  38.369   4.312
30364W        W 2690  37.446  36.558   0.947
30365W        W 2691  16.670  41.333  12.553
30366W        W 2692  42.802  41.386  11.861
30367W        W 2693  15.156  33.497   2.349
30368W        W 2694  22.199  42.808   3.218
30369W        W 2695   8.707  24.158   5.124
30370W        W 2696   5.803  29.577  12.849
30371W        W 2697  22.198  10.839  13.015
30372W        W 2698   9.322  23.086  12.442
30373W        W 2699  24.203  13.713   2.688
30374W        W 2700  31.644  40.921   1.696
30375W        W 2701  10.743  26.507   1.418
30376W        W 2702  34.445  39.926   2.794
30377W        W 2703   9.328  23.079  11.905
30378W        W 2704  24.130  11.864  10.126
30379W        W 2705  31.465  24.720  12.068
30380W        W 2706  42.396  31.452   1.891
30381W        W 2707  12.164  29.146  11.536
30382W        W 2708  30.481  35.057  12.013
30383W        W 2709   3.405  41.035  14.501
30384W        W 2710   7.770  38.478   0.942
30385W        W 2711   2.419  13.168   1.736
30386W        W 2712  16.575  19.559   1.442
30387W        W 2713  14.113   7.344  13.309
30388W        W 2714  30.082  39.354  12.542
30389W        W 2715  18.661  10.746  11.488
30390W        W 2716   6.856   7.297  11.512
30391W        W 2717  16.191  17.094   3.145
30392W        W 2718   0.474  18.233  11.457
30393W        W 2719  32.577  31.408  12.837
30394W        W 2720  15.295  44.468  12.872
30395W        W 2721  27.456  39.439   0.880
30396W        W 2722   0.287  31.034   0.788
30397W        W 2723   7.794   6.184  10.974
30398W        W 2724  16.673   6.738   0.263
30399W        W 2725  13.232  35.436   5.258
30400W        W 2726  18.684  27.633   4.283
30401W        W 2727  16.094  23.090   2.663
30402W        W 2728  10.348   8.366   0.374
30403W        W 2729   5.704  39.981  14.433
30404W        W 2730  35.878   0.935  12.845
30405W        W 2731  25.683   8.179   4.256
30406W        W 2732  37.889  25.209  13.038
30407W        W 2733  44.841  30.651  12.017
30408W        W 2734   7.372   8.858  13.321
30409W        W 2735  16.717   6.698  13.422
30410W        W 2736  14.607  26.031  10.133
30411W        W 2737  23.185  29.990   0.763
30412W        W 2738  39.474  40.423  14.790
30413W        W 2739  11.176  42.436  11.563
30414W        W 2740  19.056   3.770  10.599
30415W        W 2741  41.393  24.712  10.618
30416W        W 2742  17.235  23.613  12.901
30417W        W 2743  44.301  15.242   1.425
30418W        W 2744  30.645  29.482   2.296
30419W        W 2745   1.880   7.186   3.682
30420W        W 2746   5.912  35.971   4.226
30421W        W 2747  22.166  19.635   4.289
30422W        W 2748  24.163  10.243   5.081
30423W        W 2749   3.223  35.421  10.997
30424W        W 2750   7.875   3.345  10.472
30425W        W 2751  32.418  25.573   1.267
30426W        W 2752  12.812  39.905   4.201
30427W        W 2753  41.842  36.569  14.459
30428W        W 2754   3.445   5.337  13.948
30429W        W 2755   6.401  32.586  12.970
30430W        W 2756  36.591   2.797   3.776
30431W        W 2757  39.346   3.836   0.864
30432W        W 2758   0.475  14.242   4.181
30433W        W 2759  44.411   6.285   1.332
30434W        W 2760  10.862  26.583  13.341
30435W        W 2761  23.567   1.767  13.878
30436W        W 2762  17.559  21.064   0.425
30437W        W 2763   1.278   3.255   9.941
30438W        W 2764   7.674  28.645  12.552
30439W        W 2765  11.684  35.602   5.156
30440W        W 2766  28.580   0.984   3.640
30441W        W 2767  29.446  29.930  11.467
30442W        W 2768  38.473  13.752  14.876
30443W        W 2769   4.929  21.129   3.211
30444W        W 2770  10.800  15.308   4.783
30445W        W 2771  21.721  32.618  11.600
30446W        W 2772  19.068  13.330  12.949
30447W        W 2773  16.273   8.361   1.864
30448W        W 2774  10.357  22.607  12.894
30449W        W 2775  11.223  26.176  10.049
30450W        W 2776  13.138   4.757  11.037
30451W        W 2777  12.752  21.029   1.346
30452W        W 2778  22.524  38.061  12.968
30453W        W 2779  28.052   0.401  14.920
30454W        W 2780  14.304  35.383   1.829
30455W        W 2781   6.790   6.749   2.846
30456W        W 2782  12.268  17.719  11.480
30457W        W 2783  43.379  30.470  13.049
30458W        W 2784  31.932  27.146   5.287
30459W        W 2785  32.581   7.330  10.621
30460W        W 2786  24.187  10.750  11.459
30461W        W 2787  10.792  20.559   4.616
30462W        W 2788  42.918   0.945   4.191
30463W        W 2789  38.913  11.286   1.909
30464W        W 2790  34.951  16.255   1.408
30465W        W 2791  20.581   7.863   1.793
30466W        W 2792   4.230  18.234  11.501
30467W        W 2793  12.347  11.242   1.313
30468W        W 2794  25.102  25.588  13.332
30469W        W 2795  12.627  28.631  14.986
30470W        W 2796  26.502   5.761   0.269
30471W        W 2797  27.678  35.444  13.382
30472W        W 2798  13.767  25.197   4.648
30473W        W 2799  41.452   3.816  11.564
30474W        W 2800   1.352   9.255   0.472
30475W        W 2801   9.264  43.837   0.272
30476W        W 2802  44.495   5.802   3.825
30477W        W 2803  10.350   9.153   2.272
30478W        W 2804  24.068  22.235  13.398
30479W        W 2805   4.241  10.654  10.558
30480W        W 2806  21.605  33.500   3.843
30481W        W 2807  24.983  35.554   1.907
30482W        W 2808  23.628  10.332  14.313
30483W        W 2809   2.956  32.048  14.816
30484W        W 2810   7.770  22.999  12.350
30485W        W 2811   5.703  44.003   1.317
30486W        W 2812  29.559  40.508  10.496
30487W        W 2813  21.116  42.810   3.187
30488W        W 2814  31.950  30.573   0.786
30489W        W 2815  38.356  30.527   0.789
30490W        W 2816  10.800  16.587  14.848
30491W        W 2817  10.335  37.046  11.960
30492W        W 2818   0.886  28.529   0.292
30493W        W 2819   1.930  38.328  10.600
30494W        W 2820  38.563  14.129  14.856
30495W        W 2821  18.623  44.349  13.417
30496W        W 2822  40.497  11.189  11.881
30497W        W 2823  16.105  20.588   2.193
30498W        W 2824  32.516  27.536  14.024
30499W        W 2825  15.138  38.991  14.328
30500W        W 2826  11.725  17.589   1.308
30501W        W 2827   3.442  34.030  13.868
30502W        W 2828  19.705  29.133  13.491
30503W        W 2829  30.471  30.632  10.426
30504W        W 2830   9.264  42.827  11.509
30505W        W 2831  18.595  17.701  12.026
30506W        W 2832   1.245  11.708   0.377
30507W        W 2833  14.694   8.267  11.952
30508W        W 2834  37.385  38.858  12.512
30509W        W 2835  18.790  14.305   1.431
30510W        W 2836  13.712  27.029   5.276
30511W        W 2837   3.369   2.283   3.701
30512W        W 2838  29.928   5.438   0.942
30513W        W 2839  36.357  22.554   2.197
30514W        W 2840  43.349   1.437   4.236
30515W        W 2841  23.692  18.545  14.298
30516W        W 2842   5.366  38.923  12.572
30517W        W 2843  11.241  26.539   5.572
30518W        W 2844  25.098  41.391   4.284
30519W        W 2845  15.136  14.612  14.449
30520W        W 2846  44.473  32.393   3.304
30521W        W 2847  28.470  34.415   3.783
30522W        W 2848  20.138  34.092   0.784
30523W        W 2849   5.927   0.406  12.986
30524W        W 2850  12.838  42.997   3.843
30525W        W 2851  32.454  19.072   2.727
30526W        W 2852  21.738   3.872   4.822
30527W        W 2853  12.684  30.568  13.034
30528W        W 2854  14.648  44.756   3.251
30529W        W 2855  24.510  39.984  12.515
30530W        W 2856  14.243  34.549  11.048
30531W        W 2857  17.706  40.316   3.751
30532W        W 2858   9.211  23.493  14.767
30533W        W 2859   7.751   2.942  11.958
30534W        W 2860   6.741   5.418  11.093
30535W        W 2861  21.192  35.406  11.452
30536W        W 2862  31.598   0.332   1.750
30537W        W 2863  33.523  38.048   0.431
30538W        W 2864  30.629  22.225  13.413
30539W        W 2865  16.137   6.742   2.698
30540W        W 2866   2.397   3.874   3.190
30541W        W 2867  29.503  40.304  13.007
30542W        W 2868  38.510  20.638   2.320
30543W        W 2869  28.144  17.669   3.758
30544W        W 2870  22.243  16.225   2.827
30545W        W 2871  43.775  22.239  13.801
30546W        W 2872  40.018  18.557  11.505
30547W        W 2873  29.947  26.635  12.011
30548W        W 2874   2.936   1.254   1.840
30549W        W 2875   3.823   2.332  11.987
30550W        W 2876  33.523  17.255   4.802
30551W        W 2877  27.613  39.855  13.011
30552W        W 2878  29.071  27.110  11.421
30553W        W 2879  10.324   5.847   0.418
30554W        W 2880  21.540   7.345  13.882
30555W        W 2881  12.126  22.252  11.900
30556W        W 2882   0.856  35.468  11.512
30557W        W 2883   0.949  34.988  12.559
30558W        W 2884  35.887  39.438  12.492
30559W        W 2885  25.497  19.640   4.709
30560W        W 2886  31.035  36.010  12.994
30561W        W 2887  33.485  11.797  12.479
30562W        W 2888  14.649  32.546  14.320
30563W        W 2889   1.330   7.354  14.316
30564W        W 2890  43.874  41.522   0.730
30565W        W 2891  17.225  43.888   0.818
30566W        W 2892  29.435  34.389   2.682
30567W        W 2893  13.668  37.926   0.436
30568W        W 2894  35.601  32.981  11.384
30569W        W 2895  37.997  31.403   3.855
30570W        W 2896  28.595   6.732   2.275
30571W        W 2897  12.268  34.573   2.794
30572W        W 2898  14.259   7.404  10.426
30573W        W 2899   2.275  24.995  14.955
30574W        W 2900  37.394  14.111   1.281
30575W        W 2901  12.205  33.585  14.397
30576W        W 2902  12.310  31.646  11.116
30577W        W 2903   8.175  38.371   2.817
30578W        W 2904  27.645  12.856   0.390
30579W        W 2905  21.079  34.966  12.949
30580W        W 2906  37.567   3.363   3.212
30581W        W 2907  16.589  17.148   1.745
30582W        W 2908   5.775   5.704  11.543
30583W        W 2909  23.583  11.268   0.733
30584W        W 2910  22.204  21.114   0.781
30585W        W 2911  34.609  26.511   3.146
30586W        W 2912  22.239  31.980  11.422
30587W        W 2913  42.813  43.390  13.477
30588W        W 2914  29.011  11.192  11.973
30589W        W 2915  43.452  11.684   9.936
30590W        W 2916  28.485  16.216  11.000
30591W        W 2917  15.132  14.722  10.487
30592W        W 2918   0.947  31.622   2.366
30593W        W 2919  26.689  11.324   1.832
30594W        W 2920   6.877  24.622  13.408
30595W        W 2921  10.635  13.764   1.727
30596W        W 2922  30.135  16.700  14.407
30597W        W 2923   0.421   0.879  11.469
30598W        W 2924  23.119  24.501  12.905
30599W        W 2925  13.708  27.141   2.290
30600W        W 2926  43.993  19.181  14.778
30601W        W 2927  28.119  11.699   1.716
30602W        W 2928   3.360  22.079  10.156
30603W        W 2929  32.394   3.895  11.073
30604W        W 2930  41.513  41.996   2.395
30605W        W 2931  24.691  18.649  13.023
30606W        W 2932  29.098   4.308   0.921
30607W        W 2933   4.905  18.707  11.938
30608W        W 2934  38.052  32.888  11.867
30609W        W 2935  21.162  26.699  11.928
30610W        W 2936   5.812  39.990  13.990
30611W        W 2937  44.954  25.634   1.782
30612W        W 2938   1.962  19.266  13.995
30613W        W 2939  23.590  32.418   1.740
30614W        W 2940  23.570  30.928   3.159
30615W        W 2941   9.316   6.344  10.955
30616W        W 2942  15.210  31.570  14.291
30617W        W 2943  39.416   5.724  14.406
30618W        W 2944   6.252   4.406  12.943
30619W        W 2945  20.129  44.796   0.372
30620W        W 2946  35.963  28.023   2.301
30621W        W 2947  36.918  25.567   1.448
30622W        W 2948  10.817  28.003  13.914
30623W        W 2949  12.819  24.596  14.296
30624W        W 2950  23.040  11.670  10.644
30625W        W 2951  22.630  24.142  11.925
30626W        W 2952  10.792  28.122   2.285
30627W        W 2953  22.675  28.953   3.708
30628W        W 2954  34.923  17.249  13.360
30629W        W 2955   0.943  38.995   5.214
30630W        W 2956  14.624  14.205  13.389
30631W        W 2957   0.860  13.232  11.960
30632W        W 2958  31.936  31.475   4.763
30633W        W 2959  28.089  33.089   1.696
30634W        W 2960  30.051  31.976  12.092
30635W        W 2961  23.048  42.869  10.481
30636W        W 2962  26.584  33.107  12.559
30637W        W 2963   8.375  24.982   3.339
30638W        W 2964  29.586   6.776   0.398
30639W        W 2965  14.819  33.048   4.183
30640W        W 2966  26.019  13.201  11.462
30641W        W 2967   3.286  25.167  13.510
30642W        W 2968  25.580  22.695   0.313
30643W        W 2969   1.264  21.572  10.471
30644W        W 2970  44.383  33.955  13.413
30645W        W 2971  39.559  38.467  11.118
30646W        W 2972  16.736   0.760  11.468
30647W        W 2973   0.308  23.174  13.948
30648W        W 2974  37.433  16.106   4.602
30649W        W 2975  14.167   7.229   1.906
30650W        W 2976   7.713  38.950  11.523
30651W        W 2977   3.386  35.534  13.447
30652W        W 2978  44.284  33.433   0.315
30653W        W 2979  31.028  30.469   2.417
30654W        W 2980   2.753  13.727   0.409
30655W        W 2981  41.515   8.309  13.379
30656W        W 2982  29.622  17.801   0.957
30657W        W 2983   3.885  11.841  10.641
30658W        W 2984   0.308  17.299   2.818
30659W        W 2985  42.991  28.159   2.417
30660W        W 2986  24.103  12.154  10.598
30661W        W 2987  28.969   3.749   0.311
30662W        W 2988  39.403   4.329   3.643
30663W        W 2989  43.902  27.623  14.972
30664W        W 2990  22.014  16.723   9.672
30665W        W 2991  40.881  32.595  13.982
30666W        W 2992  17.566   6.831   4.278
30667W        W 2993  28.025  33.559  12.559
30668W        W 2994  42.948  15.084   4.114
30669W        W 2995  26.575  36.843   2.850
30670W        W 2996   7.290  26.627   4.786
30671W        W 2997   6.343  36.877   2.376
30672W        W 2998  21.242   0.973   2.211
30673W        W 2999  41.820  37.522   1.841
30674W        W 3000   9.865  22.174  14.856
30675W        W 3001   0.826  14.109   3.762
30676W        W 3002  17.583  35.360   4.226
30677W        W 3003  43.515   1.874   4.683
30678W        W 3004  28.045  40.054   5.296
30679W        W 3005  23.027   3.413   1.406
30680W        W 3006  20.638  33.606  10.461
30681W        W 3007  23.137   4.320  10.568
30682W        W 3008  15.312   8.372   0.402
30683W        W 3009  21.109   0.353   5.223
30684W        W 3010  29.514  35.043  12.996
30685W        W 3011   9.847  23.543   3.325
30686W        W 3012  31.896   8.774   1.744
30687W        W 3013  18.592  12.679   2.239
30688W        W 3014  33.466   5.342   2.240
30689W        W 3015  32.534  40.967  14.780
30690W        W 3016  25.669  38.444   2.696
30691W        W 3017  35.947   8.846   3.846
30692W        W 3018  34.493  18.726  11.872
30693W        W 3019  15.660  12.275  13.901
30694W        W 3020   4.737   0.864   3.237
30695W        W 3021  38.074  40.855  10.964
30696W        W 3022  41.508  38.975   1.896
30697W        W 3023  34.471  34.389  11.128
30698W        W 3024   0.789  43.376   3.701
30699W        W 3025  16.729  35.398   2.887
30700W        W 3026  28.532  11.645   4.828
30701W        W 3027  17.147  28.124   2.417
30702W        W 3028   6.826  22.590   3.201
30703W        W 3029  30.054   4.772  10.520
30704W        W 3030  44.859  30.150   3.158
30705W        W 3031   0.397  34.472  10.986
30706W        W 3032  31.138  42.406  13.530
30707W        W 3033  41.956   3.276  14.819
30708W        W 3034  40.936  15.086  12.444
30709W        W 3035  36.346  21.629   1.377
30710W        W 3036  26.558  27.525   1.695
30711W        W 3037  24.112  38.534  14.297
30712W        W 3038  12.192  18.567  12.015
30713W        W 3039  11.209  19.673   3.237
30714W        W 3040  23.046  40.943   4.243
30715W        W 3041  13.239  43.978   1.912
30716W        W 3042  23.657  18.700   5.181
30717W        W 3043  30.477  41.034  14.892
30718W        W 3044  12.140  12.621  14.965
30719W        W 3045   3.797  34.515   4.176
30720W        W 3046   2.843   2.886  13.496
30721W        W 3047  43.335  35.933  13.437
30722W        W 3048  15.738  41.431  10.094
30723W        W 3049  34.097  29.578  12.830
30724W        W 3050  17.583  11.276   0.348
30725W        W 3051  40.407  38.010   3.799
30726W        W 3052   1.353  43.298   2.853
30727W        W 3053  20.591  17.204   4.198
30728W        W 3054  31.414  15.152  11.962
30729W        W 3055  22.542  18.262   3.688
30730W        W 3056  17.735  37.482   1.339
30731W        W 3057  39.429  30.163   4.760
30732W        W 3058   2.732   9.886   2.237
30733W        W 3059   6.750  25.088  11.572
30734W        W 3060  18.252  33.473   3.297
30735W        W 3061  26.064  17.703  10.566
30736W        W 3062  18.708  27.022  11.880
30737W        W 3063  37.922  13.796   2.363
30738W        W 3064  38.325  20.531  14.012
30739W        W 3065   4.889   0.912  11.559
30740W        W 3066   2.878   3.869   0.287
30741W        W 3067  13.350   1.391   0.744
30742W        W 3068  35.540  22.077   1.786
30743W        W 3069  27.504  16.664   4.639
30744W        W 3070  20.591  22.670   4.118
30745W        W 3071  13.728  12.851  13.860
30746W        W 3072  37.974  19.539   1.724
30747W        W 3073  36.909  21.020  11.445
30748W        W 3074  43.306  30.565   3.862
30749W        W 3075  20.033  31.905   3.249
30750W        W 3076   9.368  15.751   9.926
30751W        W 3077  26.135  26.676  14.321
30752W        W 3078   7.198  19.217  14.413
30753W        W 3079  24.153  25.010   3.158
30754W        W 3080  24.021  39.494   4.211
30755W        W 3081  10.292  28.171   3.779
30756W        W 3082   3.271  10.690   3.687
30757W        W 3083  43.292  10.339   2.215
30758W        W 3084  44.815  32.007  14.769
30759W        W 3085  18.285  28.486   3.766
30760W        W 3086  14.727  21.533   0.420
30761W        W 3087  13.313  25.644   0.805
30762W        W 3088  32.481  18.126   0.364
30763W        W 3089   2.348  28.079   3.266
30764W        W 3090  10.676  43.932   0.409
30765W        W 3091  31.607  41.043  14.889
30766W        W 3092  12.271  27.145  14.985
30767W        W 3093  37.052  28.464  11.410
30768W        W 3094  11.300  35.420  10.488
30769W        W 3095  33.540  18.727   4.774
30770W        W 3096   6.812  23.231   1.846
30771W        W 3097  43.929  35.534  10.625
30772W        W 3098  41.373  43.508  10.424
30773W        W 3099  38.925  34.106   2.798
30774W        W 3100  16.740   8.331  14.452
30775W        W 3101  12.852  36.063  10.077
30776W        W 3102  31.022  23.097  14.804
30777W        W 3103  25.705  39.045   9.950
30778W        W 3104  31.968  21.104  13.034
30779W        W 3105  13.825  13.612   4.691
30780W        W 3106   1.839   3.836  10.921
30781W        W 3107   1.850  31.994  13.421
30782W        W 3108  22.698  42.984  13.530
30783W        W 3109  42.990  37.832   0.244
30784W        W 3110  37.546  22.072  14.463
30785W        W 3111   6.318  36.012   3.205
30786W        W 3112  16.745  34.391  12.466
30787W        W 3113  26.497  36.456  10.430
30788W        W 3114   8.387  35.551   0.264
30789W        W 3115   3.799   8.265   0.836
30790W        W 3116  43.402   4.345   0.258
30791W        W 3117  28.111  28.987  10.072
30792W        W 3118  41.956  16.145   3.250
30793W        W 3119  16.203  13.289  14.326
30794W        W 3120   1.347   7.414  11.087
30795W        W 3121   3.930  26.981   0.865
30796W        W 3122  13.695  29.962   3.154
30797W        W 3123   6.374  34.469   2.775
30798W        W 3124  22.247   2.748  10.609
30799W        W 3125  35.538  39.476   1.285
30800W        W 3126  23.073  30.418  13.920
30801W        W 3127   6.246   4.802   1.221
30802W        W 3128  22.233   5.872   3.230
30803W        W 3129  44.841   1.899  12.341
30804W        W 3130  25.163  21.755  11.088
30805W        W 3131  34.427   6.868   0.759
30806W        W 3132   1.338  25.963   3.691
30807W        W 3133   9.654  32.577   2.751
30808W        W 3134  28.185  18.777  14.391
30809W        W 3135  10.158   0.423   1.735
30810W        W 3136  42.489   7.836   1.355
30811W        W 3137  41.916  30.498   4.146
30812W        W 3138  21.569  11.179   3.147
30813W        W 3139  18.181  31.563  11.047
30814W        W 3140  33.002  16.597   4.713
30815W        W 3141  21.719   2.959  11.549
30816W        W 3142   8.694  40.366   2.202
30817W        W 3143   7.259  24.703  12.458
30818W        W 3144  20.524   3.799   1.296
30819W        W 3145  30.516  40.392  10.567
30820W        W 3146  40.545  29.958  10.991
30821W        W 3147  32.079  15.619   1.283
30822W        W 3148  16.188  37.533  13.848
30823W        W 3149  26.051   3.237  12.894
30824W        W 3150  40.957  41.829   2.808
30825W        W 3151   0.247  22.012   3.170
30826W        W 3152  44.346  37.940   3.235
30827W        W 3153  24.029  40.909  10.503
30828W        W 3154   3.810  22.021  10.474
30829W        W 3155   0.386  30.976   2.865
30830W        W 3156  34.534  28.185  11.526
30831W        W 3157  34.917  27.524  13.513
30832W        W 3158   9.667  14.652   4.229
30833W        W 3159   1.902   9.382  13.370
30834W        W 3160   2.377  18.747  12.043
30835W        W 3161  11.798  11.275   4.281
30836W        W 3162  37.046   8.333   0.844
30837W        W 3163  14.681  44.798   1.931
30838W        W 3164   2.889   5.798  13.443
30839W        W 3165  17.094  22.713  14.891
30840W        W 3166  18.586  18.632  10.491
30841W        W 3167  28.534   5.226  10.601
30842W        W 3168  32.081  23.999   2.276
30843W        W 3169  14.764  31.994  11.917
30844W        W 3170  27.045  28.669   9.465
30845W        W 3171  11.863  13.673  13.523
30846W        W 3172  40.964  15.189  10.630
30847W        W 3173   4.747  17.157  11.518
30848W        W 3174  14.597  21.600  13.511
30849W        W 3175  30.083   3.724   0.808
30850W        W 3176  16.280   0.381   3.806
30851W        W 3177   0.405  17.707  11.575
30852W        W 3178  29.066  34.054  12.413
30853W        W 3179  20.559  42.381   0.357
30854W        W 3180  28.128  44.442   4.691
30855W        W 3181  19.684  19.249  11.067
30856W        W 3182  37.495  27.143  11.964
30857W        W 3183   5.822   0.321   1.732
30858W        W 3184  15.253  12.149   3.336
30859W        W 3185  23.513   2.433   0.362
30860W        W 3186   5.284   6.423  13.356
30861W        W 3187  28.038  29.077   1.383
30862W        W 3188   2.880   4.888   1.808
30863W        W 3189  18.664  33.903   1.346
30864W        W 3190   9.805  42.920   4.653
30865W        W 3191  43.428   3.283  13.935
30866W        W 3192  44.966   8.259  12.949
30867W        W 3193  43.794   8.870  13.824
30868W        W 3194  20.256  23.528  11.945
30869W        W 3195  41.879  28.035   0.811
30870W        W 3196   7.732   7.840  14.334
30871W        W 3197  31.904  42.997  14.414
30872W        W 3198  11.782  23.065   0.443
30873W        W 3199  32.970  36.895  10.580
30874W        W 3200  37.571  31.567   1.409
30875W        W 3201  14.747  16.652  11.042
30876W        W 3202   7.714  30.609   3.750
30877W        W 3203  44.380  31.461   4.704
30878W        W 3204  20.755  18.289   4.653
30879W        W 3205   7.768   5.410  14.785
30880W        W 3206  26.557  21.585   4.189
30881W        W 3207  17.606  15.130  12.857
30882W        W 3208   1.755   0.431  11.882
30883W        W 3209  38.482  41.509   1.899
30884W        W 3210  28.067  19.191   3.708
30885W        W 3211  41.993  27.692  13.035
30886W        W 3212  25.084  19.206  11.859
30887W        W 3213   7.865  18.547   2.341
30888W        W 3214  40.857   3.234   4.656
30889W        W 3215   9.234  31.122  14.440
30890W        W 3216  12.763  43.328  11.573
30891W        W 3217  30.432  44.800  13.862
30892W        W 3218  41.793   1.827  11.019
30893W        W 3219  44.440  43.794  14.935
30894W        W 3220  25.585   8.880  11.027
30895W        W 3221  24.177  20.617   3.361
30896W        W 3222   7.791  30.446  13.457
30897W        W 3223  28.099  20.623   0.387
30898W        W 3224  42.393  37.872   0.303
30899W        W 3225   7.388   9.361   4.253
30900W        W 3226  12.827   8.892  14.436
30901W        W 3227  41.967  18.756   1.830
30902W        W 3228  18.163   2.743   2.298
30903W        W 3229  42.448  17.183  11.518
30904W        W 3230  30.620  39.947  10.505
30905W        W 3231  22.648   1.755  14.443
30906W        W 3232   2.429  31.129  12.537
30907W        W 3233  35.975  28.029   4.831
30908W        W 3234   7.800  11.687   1.858
30909W        W 3235  38.421   4.886   4.810
30910W        W 3236  38.022  44.864  13.341
30911W        W 3237  31.087  12.161   0.454
30912W        W 3238  30.025  35.397  13.882
30913W        W 3239  42.832  15.675  10.956
30914W        W 3240  13.185  26.026  10.440
30915W        W 3241  21.574   4.262  10.443
30916W        W 3242   4.223   2.242  10.111
30917W        W 3243  43.833  18.099  13.855
30918W        W 3244  10.267   0.332  11.874
30919W        W 3245  42.440  26.576  10.989
30920W        W 3246   7.297  38.369   3.207
30921W        W 3247   5.925   9.741   3.186
30922W        W 3248  39.955  36.570  13.030
30923W        W 3249  44.278   6.876  14.430
30924W        W 3250  17.099  19.597   5.300
30925W        W 3251  13.615  40.442  13.401
30926W        W 3252  14.829  35.397   2.383
30927W        W 3253   7.754  20.679   0.356
30928W        W 3254  33.539  39.440  12.387
30929W        W 3255   8.255  41.870   0.771
30930W        W 3256   4.203  41.406  12.339
30931W        W 3257  39.957  18.658  14.929
30932W        W 3258  28.649  25.634  13.334
30933W        W 3259  34.539  13.751   1.799
30934W        W 3260   7.749  42.470  10.894
30935W        W 3261  38.030  15.648   1.294
30936W        W 3262  31.059  28.436  14.503
30937W        W 3263  15.739  17.160   4.701
30938W        W 3264   5.784  38.402  14.780
30939W        W 3265   3.379   2.382   0.864
30940W        W 3266  34.446  37.349  10.906
30941W        W 3267  34.863  21.261   0.336
30942W        W 3268  15.230  38.055  13.965
30943W        W 3269  31.616   2.722   2.774
30944W        W 3270  43.322  20.575   0.457
30945W        W 3271  18.572   1.275   1.391
30946W        W 3272  36.373  10.844  14.420
30947W        W 3273   5.892  27.078   1.737
30948W        W 3274  36.581  44.317   4.117
30949W        W 3275  24.049  40.497  10.487
30950W        W 3276  10.220  31.988   3.309
30951W        W 3277  38.824   4.433   1.880
30952W        W 3278  36.530  40.521   2.267
30953W        W 3279  36.859  28.668  12.853
30954W        W 3280  23.500  11.170   0.447
30955W        W 3281   4.861   2.959   0.438
30956W        W 3282  15.233  31.477   0.460
30957W        W 3283   8.169   7.319  13.470
30958W        W 3284  24.686   7.244   4.757
30959W        W 3285  16.113   2.862   0.782
30960W        W 3286  23.542  43.778  14.496
30961W        W 3287  20.598  44.409   3.636
30962W        W 3288  27.659  44.274   1.913
30963W        W 3289   0.314  12.738   0.862
30964W        W 3290  28.026  22.210  14.850
30965W        W 3291  16.083  21.634  12.497
30966W        W 3292  19.197  40.458  14.943
30967W        W 3293  11.221  11.819  12.923
30968W        W 3294   4.768  21.197  10.581
30969W        W 3295  15.585   1.970  14.433
30970W        W 3296  21.725  31.433  11.609
30971W        W 3297  12.663  13.641   1.384
30972W        W 3298  35.593   6.404   0.770
30973W        W 3299  26.046  23.547  14.882
30974W        W 3300  32.611  40.834  11.998
30975W        W 3301  33.904  35.854  13.914
30976W        W 3302  31.565  36.849   1.840
30977W        W 3303   8.750  17.306   4.175
30978W        W 3304  11.729  37.050  14.927
30979W        W 3305  18.788  43.481  10.644
30980W        W 3306  23.510  25.180  13.049
30981W        W 3307  18.117  12.776  14.763
30982W        W 3308  31.985  18.122   0.849
30983W        W 3309   0.980  24.625   2.786
30984W        W 3310  23.528  29.106   1.911
30985W        W 3311   8.829  11.323  12.985
30986W        W 3312  25.695  12.783  14.341
30987W        W 3313  17.665   2.784  10.509
30988W        W 3314  32.979  35.085   9.534
30989W        W 3315  22.585  25.511  11.591
30990W        W 3316  24.617  23.129  12.371
30991W        W 3317  34.527  11.233   0.396
30992W        W 3318  42.971  15.092  11.397
30993W        W 3319  16.574  16.767  13.341
30994W        W 3320  34.887  44.814  14.988
30995W        W 3321  35.094   1.828   4.677
30996W        W 3322  17.717  10.209  13.350
30997W        W 3323   4.306  23.187   9.922
30998W        W 3324  38.838  23.166   3.765
30999W        W 3325  27.019  42.376  11.039
31000W        W 3326   1.376  33.085   2.219
31001W        W 3327  22.615  34.568  11.508
31002W        W 3328  17.291  13.160   5.278
31003W        W 3329   9.836   8.268   2.205
31004W        W 3330  36.576  41.948  12.893
31005W        W 3331  19.265  29.568   2.278
31006W        W 3332  32.097  41.416   2.783
31007W        W 3333   6.718  13.782  11.880
31008W        W 3334  28.991  41.807   4.299
31009W        W 3335   1.922  26.082  11.460
31010W        W 3336  22.038  44.994  11.990
31011W        W 3337  43.312  19.216   0.386
31012W        W 3338  11.288  22.648  14.919
31013W        W 3339  35.359   8.860   1.235
31014W        W 3340  34.098  30.573  11.545
31015W        W 3341  14.169  19.157  12.004
31016W        W 3342  19.097  42.847  12.004
31017W        W 3343  22.131  10.867  13.909
31018W        W 3344  43.514  43.913   3.172
31019W        W 3345  10.643  29.485  13.014
31020W        W 3346   3.906  37.048  13.986
31021W        W 3347  43.828  28.652   1.786
31022W        W 3348   4.829  14.218  13.463
31023W        W 3349  35.425  30.514  13.049
31024W        W 3350  28.657   0.919   4.719
31025W        W 3351  27.983   4.337  13.478
31026W        W 3352  41.939  44.836   1.763
31027W        W 3353  44.786  20.562   0.807
31028W        W 3354   5.312   3.822  11.068
31029W        W 3355  16.147  25.156   2.693
31030W        W 3356  10.638  14.105  11.086
31031W        W 3357  31.931  26.588   2.342
31032W        W 3358   8.821  17.711  13.941
31033W        W 3359  11.699  39.328  13.007
31034W        W 3360  20.763  17.069  11.883
31035W        W 3361   5.768  26.683  13.923
31036W        W 3362   9.248  15.229  13.994
31037W        W 3363   8.333   9.807   2.279
31038W        W 3364  22.501  44.774   0.731
31039W        W 3365  30.095  11.651   1.935
31040W        W 3366  23.008  14.234   0.793
31041W        W 3367  19.564  22.997  12.386
31042W        W 3368  36.042  16.568  10.534
31043W        W 3369   7.298  22.175   1.387
31044W        W 3370  12.291  31.927   0.914
31045W        W 3371  10.312   5.411   2.286
31046W        W 3372   0.423  41.902   3.370
31047W        W 3373  23.650  17.106   1.377
31048W        W 3374  41.864   5.828   4.806
31049W        W 3375   9.851   0.258   0.467
31050W        W 3376  44.871  32.548   0.947
31051W        W 3377  36.431   9.818   1.926
31052W        W 3378  38.857  19.561   0.427
31053W        W 3379  11.654  15.787   9.963
31054W        W 3380  34.044  24.994  12.026
31055W        W 3381  39.499  36.843   0.851
31056W        W 3382  15.616   4.434  11.092
31057W        W 3383   2.226  27.123   1.769
31058W        W 3384  32.084  23.179   1.809
31059W        W 3385  24.534  20.565   3.358
31060W        W 3386  19.220   1.894   4.813
31061W        W 3387  16.144  20.044  13.890
31062W        W 3388   8.261  27.519   2.403
31063W        W 3389  34.880  23.544   4.122
31064W        W 3390   2.809  41.327   2.408
31065W        W 3391  15.809  22.174   1.223
31066W        W 3392   9.351  38.853  14.414
31067W        W 3393  33.029  26.144   2.405
31068W        W 3394  40.005  28.589   1.344
31069W        W 3395  10.675  32.473  11.547
31070W        W 3396  35.485  22.063   4.780
31071W        W 3397  44.005  42.422   3.327
31072W        W 3398   2.441  16.634  13.410
31073W        W 3399  16.077  31.638   1.213
31074W        W 3400  15.161  44.973   1.335
31075W        W 3401  20.249  10.331   2.809
31076W        W 3402   5.392  13.262   1.910
31077W        W 3403   7.362   6.278   0.278
31078W        W 3404  39.447  29.081  14.915
31079W        W 3405   9.800  36.373  13.981
31080W        W 3406  18.284   3.259   3.710
31081W        W 3407  14.721  29.125   0.355
31082W        W 3408  42.392   7.374  12.096
31083W        W 3409  34.595   2.317  10.497
31084W        W 3410   5.907   8.270  11.005
31085W        W 3411  33.490   0.949  14.978
31086W        W 3412   3.377   9.843  11.076
31087W        W 3413   8.350  16.711   0.327
31088W        W 3414   3.863  11.651   0.908
31089W        W 3415  11.773   3.368   0.895
31090W        W 3416  14.702  31.585   4.793
31091W        W 3417  26.568  14.656   4.765
31092W        W 3418  36.872   7.794  13.354
31093W        W 3419  21.247  35.097   3.787
31094W        W 3420  29.510   8.724   2.865
31095W        W 3421   7.749   6.214   1.831
31096W        W 3422  25.545  20.723  12.940
31097W        W 3423  24.677  15.319   4.781
31098W        W 3424  44.853  20.271  11.448
31099W        W 3425  35.371  41.836  13.918
31100W        W 3426  39.439  41.422  13.357
31101W        W 3427  33.117  40.024  14.515
31102W        W 3428   4.440  10.365   1.837
31103W        W 3429   9.652  11.237  14.994
31104W        W 3430   3.433   9.175   4.238
31105W        W 3431  21.579  32.481  10.442
31106W        W 3432   9.209  39.388  12.923
31107W        W 3433   8.283  20.576   1.866
31108W        W 3434  33.926   7.844   1.782
31109W        W 3435  11.316  42.450   0.368
31110W        W 3436  16.105  34.593  11.077
31111W        W 3437  22.158  20.216  14.412
31112W        W 3438  44.968  15.309   4.671
31113W        W 3439  38.549   5.218  11.025
31114W        W 3440   1.418   8.774  11.518
31115W        W 3441  10.283   8.894  14.876
31116W        W 3442  16.647   2.310  11.109
31117W        W 3443  24.600  13.840  13.336
31118W        W 3444   4.908  28.147   3.713
31119W        W 3445  25.219   3.257   4.215
31120W        W 3446  40.324  20.568  12.563
31121W        W 3447  31.424  17.151   4.720
31122W        W 3448  33.476   7.868  13.930
31123W        W 3449  11.326  22.144   2.373
31124W        W 3450  11.133   1.870  14.896
31125W        W 3451  33.563   7.332  14.512
31126W        W 3452  34.106  26.146  14.461
31127W        W 3453  24.574  40.961  13.373
31128W        W 3454   8.688  10.714   0.399
31129W        W 3455  31.564  28.614   4.807
31130W        W 3456  40.460  33.487  12.914
31131W        W 3457  14.235  31.993  10.891
31132W        W 3458   4.365  42.316   2.736
31133W        W 3459  16.308  36.018   0.325
31134W        W 3460  42.796  25.481  12.463
31135W        W 3461  26.589  36.525   5.200
31136W        W 3462  32.402  21.743   3.678
31137W        W 3463   1.473   8.787   1.327
31138W        W 3464   2.307  39.953  13.852
31139W        W 3465  27.103  22.251  12.851
31140W        W 3466   3.245   6.242   1.845
31141W        W 3467  42.429   6.899  12.086
31142W        W 3468   7.672  17.243   2.236
31143W        W 3469   8.365  41.026  13.797
31144W        W 3470  30.576  31.942  12.451
31145W        W 3471  26.066  28.560   1.860
31146W        W 3472  15.162  18.168   1.723
31147W        W 3473  24.106   9.823  12.379
31148W        W 3474  25.514   0.815  15.000
31149W        W 3475  38.938  35.578   1.769
31150W        W 3476  23.714  23.668   1.908
31151W        W 3477  35.414  20.755   2.783
31152W        W 3478  10.175  28.545   0.271
31153W        W 3479  22.680  36.959  12.491
31154W        W 3480   9.701  27.093  12.985
31155W        W 3481  32.518  27.189   3.205
31156W        W 3482  41.390  17.205  13.851
31157W        W 3483  26.130  26.105   1.854
31158W        W 3484   5.246  44.880   3.182
31159W        W 3485  19.161   9.779  12.339
31160W        W 3486  33.899  36.417   5.653
31161W        W 3487  15.648  15.189  13.490
31162W        W 3488  19.154  17.245   2.704
31163W        W 3489   7.743  41.475  13.878
31164W        W 3490  34.984   0.932  11.876
31165W        W 3491  32.125   5.709  10.488
31166W        W 3492   1.284  23.598   0.455
31167W        W 3493  32.571  34.028  13.525
31168W        W 3494  29.476  18.283  12.495
31169W        W 3495   3.826  16.303   0.732
31170W        W 3496   3.776  43.880  11.512
31171W        W 3497  37.922  16.690   0.282
31172W        W 3498  26.119  42.825  13.822
31173W        W 3499  19.069  40.994   2.299
31174W        W 3500  24.063  23.131   4.819
31175W        W 3501  43.870   1.274   2.234
31176W        W 3502  35.868  32.556  14.880
31177W        W 3503   3.832  16.089   2.782
31178W        W 3504  11.823  35.589  12.070
31179W        W 3505  35.060   3.426  14.281
31180W        W 3506  40.882  41.376   0.470
31181W        W 3507  34.569  31.960   3.303
31182W        W 3508  42.016  11.746   0.841
31183W        W 3509   5.291  19.070   2.858
31184W        W 3510  24.078   5.784   1.437
31185W        W 3511   8.674  31.919  11.890
31186W        W 3512  22.700  26.161  10.499
31187W        W 3513  33.994  21.639  10.495
31188W        W 3514  22.073  21.532   3.280
31189W        W 3515  42.925  15.647   1.788
31190W        W 3516  43.444  27.084   4.171
31191W        W 3517  41.378  11.692  12.899
31192W        W 3518  25.589   4.849  13.010
31193W        W 3519  24.998   4.365  14.012
31194W        W 3520  38.992  39.845  11.918
31195W        W 3521  27.096  35.049   1.849
31196W        W 3522  26.957  34.535   1.785
31197W        W 3523  10.741  12.698   2.796
31198W        W 3524  13.313   2.956  11.402
31199W        W 3525  42.319  37.336   2.875
31200W        W 3526  24.084  23.236   3.744
31201W        W 3527  12.617  11.279  12.899
31202W        W 3528  12.834  39.818  12.092
31203W        W 3529   8.387   4.364  13.372
31204W        W 3530  20.741  40.422   0.469
31205W        W 3531  10.822  21.083   3.377
31206W        W 3532  10.353  10.773   4.315
31207W        W 3533  22.066  29.667  12.530
31208W        W 3534  32.074  40.407   5.218
31209W        W 3535  16.199  42.775   4.211
31210W        W 3536  10.850  25.109   1.356
31211W        W 3537  27.488  38.851  14.460
31212W        W 3538  25.467  37.490  10.521
31213W        W 3539  20.152   1.748  12.852
31214W        W 3540   7.862  10.823   0.894
31215W        W 3541  35.900  18.248  12.570
31216W        W 3542  44.901  17.721   1.887
31217W        W 3543  41.039   2.767  11.543
31218W        W 3544   6.242  16.163   3.671
31219W        W 3545   1.800  22.156  11.100
31220W        W 3546  24.577  35.003   4.187
31221W        W 3547  24.230  36.909   2.228
31222W        W 3548  17.704  30.567  13.026
31223W        W 3549   7.807  18.234   9.929
31224W        W 3550  14.613  19.743  12.521
31225W        W 3551   4.254  14.314   1.837
31226W        W 3552   7.768  33.556   0.839
31227W        W 3553  23.022  23.183   2.343
31228W        W 3554  13.624  31.415  11.043
31229W        W 3555  28.175   7.387  11.915
31230W        W 3556  32.918  20.725   2.875
31231W        W 3557  43.885  35.927  12.945
31232W        W 3558   3.848   7.393   0.958
31233W        W 3559  26.054  39.922  10.537
31234W        W 3560   7.671  44.449  12.862
31235W        W 3561  31.019  19.210   1.816
31236W        W 3562  19.169  29.174  13.367
31237W        W 3563  33.511  17.145   2.776
31238W        W 3564  15.633  42.418   4.723
31239W        W 3565  11.180  39.887  14.986
31240W        W 3566  37.936  31.647  12.447
31241W        W 3567  19.157  42.387  14.893
31242W        W 3568  43.992   4.291  10.993
31243W        W 3569   7.183  32.447  10.592
31244W        W 3570  43.460  38.524  10.898
31245W        W 3571  31.497  28.052  14.280
31246W        W 3572   3.343  13.269  11.914
31247W        W 3573   9.348  15.108  10.457
31248W        W 3574  31.566  29.476   0.449
31249W        W 3575  16.694  14.644  12.846
31250W        W 3576   7.313  15.238   0.828
31251W        W 3577   4.800  25.200  10.141
31252W        W 3578   2.845  14.227   0.845
31253W        W 3579  12.796  13.242   4.123
31254W        W 3580  20.035  40.982   3.661
31255W        W 3581  13.659  37.028  13.312
31256W        W 3582  14.096  21.020  10.511
31257W        W 3583   9.311  11.199   0.255
31258W        W 3584   0.769  13.701   4.130
31259W        W 3585   3.254   9.290  11.066
31260W        W 3586  20.579  15.251   1.413
31261W        W 3587  24.204  35.891  13.868
31262W        W 3588  37.083  40.458   1.443
31263W        W 3589  20.549  11.268   3.752
31264W        W 3590  37.989  35.923   3.761
31265W        W 3591  19.592  15.168   4.600
31266W        W 3592   4.329  11.651  14.288
31267W        W 3593  32.400  36.021   2.257
31268W        W 3594  13.174  14.603  13.324
31269W        W 3595  32.596   3.709  13.803
31270W        W 3596   1.903  42.354   3.385
31271W        W 3597  29.036  28.446   2.184
31272W        W 3598  37.084  38.017  11.880
31273W        W 3599  24.161  16.089  10.019
31274W        W 3600  37.962  28.640   4.654
31275W        W 3601  24.222  36.405   2.367
31276W        W 3602   7.899  16.179  11.855
31277W        W 3603  17.216   4.375  14.761
31278W        W 3604  34.601   1.917   0.278
31279W        W 3605  23.629  24.695  14.459
31280W        W 3606  14.131  17.064  11.012
31281W        W 3607   4.263  38.568   4.299
31282W        W 3608   8.844  13.259  10.542
31283W        W 3609  29.490   4.348   3.644
31284W        W 3610  19.667  29.937   3.233
31285W        W 3611   4.283  40.528  12.924
31286W        W 3612   8.679  31.056  11.469
31287W        W 3613  24.689   5.423  12.541
31288W        W 3614  30.416  33.550  12.847
31289W        W 3615  18.755  21.703   3.167
31290W        W 3616  15.714  35.071   2.189
31291W        W 3617   1.322  10.783  14.380
31292W        W 3618  33.124   1.751  12.527
31293W        W 3619  36.045  16.733  13.407
31294W        W 3620   8.395  29.430   4.308
31295W        W 3621  39.844  36.529   0.815
31296W        W 3622  13.798  25.605   1.709
31297W        W 3623  24.704  26.614   3.186
31298W        W 3624  18.074  33.438  11.056
31299W        W 3625  11.152   8.872   1.393
31300W        W 3626  42.783  18.680   0.350
31301W        W 3627   9.254  36.461   1.303
31302W        W 3628  18.280  25.049  10.641
31303W        W 3629   7.343  13.635  10.621
31304W        W 3630  22.061   7.846  14.850
31305W        W 3631   8.775  15.145   1.703
31306W        W 3632  33.485  33.921   1.426
31307W        W 3633  31.077  12.227   4.320
31308W        W 3634  40.988  27.648  10.969
31309W        W 3635  34.025  14.310   4.332
31310W        W 3636  33.591  31.580   0.431
31311W        W 3637   3.429  19.718   4.126
31312W        W 3638  12.161  43.384  10.487
31313W        W 3639  11.195  35.937   4.792
31314W        W 3640  41.796  25.625   4.820
31315W        W 3641   8.698  10.201  13.379
31316W        W 3642   9.748  22.667   2.419
31317W        W 3643  12.684  22.632   0.729
31318W        W 3644   2.796  33.955  14.895
31319W        W 3645  39.445  21.127  11.481
31320W        W 3646  22.069  12.261   4.307
31321W        W 3647  19.646  39.525   2.345
31322W        W 3648   6.751   0.455  11.373
31323W        W 3649  21.085   0.463  10.505
31324W        W 3650  36.090   0.886  14.892
31325W        W 3651  31.472  15.603  11.003
31326W        W 3652  40.345  29.484  11.466
31327W        W 3653  12.852  43.848   0.478
31328W        W 3654  19.163   1.845   1.256
31329W        W 3655  10.755  20.159  12.373
31330W        W 3656  18.654  44.259   0.755
31331W        W 3657  27.474  38.552   0.961
31332W        W 3658  43.810  22.196   4.157
31333W        W 3659  17.294  38.893   3.355
31334W        W 3660   9.785  29.467   2.234
31335W        W 3661  27.533  35.602   0.272
31336W        W 3662  14.792  40.525  13.808
31337W        W 3663  23.534  18.092  14.395
31338W        W 3664  14.706  23.500  14.821
31339W        W 3665   1.477  21.070  11.966
31340W        W 3666  13.771   2.944   3.351
31341W        W 3667   7.695  27.126   0.777
31342W        W 3668  38.565  12.319   5.102
31343W        W 3669  13.607  40.884  12.494
31344W        W 3670  23.194  42.799  12.570
31345W        W 3671  43.785  15.665  13.464
31346W        W 3672   8.692  27.666  10.126
31347W        W 3673  11.326  16.165  12.388
31348W        W 3674  22.243  14.619  13.024
31349W        W 3675  15.752  38.382  13.522
31350W        W 3676  13.138  25.479   0.308
31351W        W 3677  35.388  32.894   4.724
31352W        W 3678  22.519  34.967  10.547
31353W        W 3679   2.370  42.910  13.536
31354W        W 3680  42.419   1.868  14.818
31355W        W 3681  21.225  32.480  14.475
31356W        W 3682   8.223  30.420   2.894
31357W        W 3683   8.700  22.554   3.732
31358W        W 3684  37.539  21.721  11.582
31359W        W 3685  20.607  23.508  14.890
31360W        W 3686  27.102   3.363  13.511
31361W        W 3687  17.636  15.112  14.979
31362W        W 3688  23.728  36.437  13.907
31363W        W 3689  38.879  23.507  13.063
31364W        W 3690  14.300  24.186  11.004
31365W        W 3691  36.099  24.586   4.233
31366W        W 3692   8.779  43.424  11.900
31367W        W 3693  10.712  21.650   2.418
31368W        W 3694  24.175   4.237   0.310
31369W        W 3695  39.842  29.580  12.842
31370W        W 3696   5.427  42.339  14.459
31371W        W 3697   0.294  35.918   4.689
31372W        W 3698  14.620  41.927  14.395
31373W        W 3699  26.575  14.670   1.277
31374W        W 3700  19.635  30.971   3.179
31375W        W 3701  18.097  18.568  10.421
31376W        W 3702  21.748   6.219  11.910
31377W        W 3703  19.194  20.688  12.943
31378W        W 3704   3.307  16.178   2.797
31379W        W 3705  17.773  20.189  13.954
31380W        W 3706  29.131   8.886   5.150
31381W        W 3707  14.098  22.116  14.003
31382W        W 3708  11.367  31.496  11.123
31383W        W 3709  21.097  30.496  10.454
31384W        W 3710  23.230  15.131   3.245
31385W        W 3711  35.592  39.951   1.832
31386W        W 3712  24.027  14.275   1.744
31387W        W 3713  33.534  14.291   4.335
31388W        W 3714   5.294  24.709   1.344
31389W        W 3715   8.289  22.062  12.381
31390W        W 3716  31.481  42.330   0.796
31391W        W 3717  38.846  19.576  10.555
31392W        W 3718  14.231  12.791   0.739
31393W        W 3719  28.657  18.784   4.741
31394W        W 3720  19.763   0.927   2.317
31395W        W 3721  39.959  15.251  10.949
31396W        W 3722  14.622  42.013   1.253
31397W        W 3723  21.163  43.945   1.251
31398W        W 3724   9.267  38.547  11.569
31399W        W 3725  26.183   1.882   1.245
31400W        W 3726  28.435   2.797   3.311
31401W        W 3727  42.945   5.425   2.673
31402W        W 3728  15.308  14.777   4.333
31403W        W 3729  14.638  12.148  11.576
31404W        W 3730  17.072  23.533  13.991
31405W        W 3731  33.011  35.553   0.965
31406W        W 3732  26.613  32.925  13.415
31407W        W 3733  12.262  38.913   2.679
31408W        W 3734  18.578  24.151   5.289
31409W        W 3735   2.807  30.502  11.415
31410W        W 3736  11.216  23.071   2.763
31411W        W 3737   2.720  31.125   0.875
31412W        W 3738  13.199  31.013  12.466
31413W        W 3739  31.086  14.138   1.908
31414W        W 3740   3.342  21.523  10.437
31415W        W 3741  11.727  13.807   4.259
31416W        W 3742  33.111  37.418  11.393
31417W        W 3743  36.860  32.904   3.387
31418W        W 3744  43.466  38.412   2.878
31419W        W 3745   0.842  24.038  10.890
31420W        W 3746  39.809   2.394   4.142
31421W        W 3747   8.753   9.842  14.805
31422W        W 3748  25.097  40.396  12.522
31423W        W 3749  28.617  30.978   0.890
31424W        W 3750   2.742   9.820  12.378
31425W        W 3751  43.431  10.792  14.787
31426W        W 3752  43.013  26.562  10.531
31427W        W 3753  11.846  43.516  13.835
31428W        W 3754  35.935   6.710  11.597
31429W        W 3755  15.202  36.958   1.845
31430W        W 3756  12.169  37.880  14.362
31431W        W 3757  31.632  33.573   4.743
31432W        W 3758   4.937  11.157   1.898
31433W        W 3759  42.511  39.814   1.324
31434W        W 3760  15.159  37.490   0.818
31435W        W 3761  25.184  23.681   4.219
31436W        W 3762   0.277  29.040  11.121
31437W        W 3763   1.286  44.450  12.876
31438W        W 3764  26.980  10.362  11.576
31439W        W 3765  17.568  34.609   3.215
31440W        W 3766  44.425  17.128  11.473
31441W        W 3767   2.299  39.521  11.862
31442W        W 3768  22.664  14.240  10.071
31443W        W 3769  33.943   9.164   1.716
31444W        W 3770   5.717  32.978   0.923
31445W        W 3771  17.621  42.382   2.766
31446W        W 3772  39.541  44.443  11.583
31447W        W 3773   1.279  18.221   0.422
31448W        W 3774  44.004  24.632  13.364
31449W        W 3775  37.006  36.450  14.325
31450W        W 3776  39.985  19.643  10.447
31451W        W 3777  10.211   6.221   1.787
31452W        W 3778  15.230  22.172  10.557
31453W        W 3779  41.473  21.150  10.633
31454W        W 3780  38.972   3.729   1.765
31455W        W 3781  28.990  37.903   2.357
31456W        W 3782  19.696  37.428   3.366
31457W        W 3783  31.049  38.392  10.638
31458W        W 3784  25.609  40.334  14.372
31459W        W 3785  27.140   6.796  11.422
31460W        W 3786  38.935  17.555   3.655
31461W        W 3787  10.765   0.943  12.031
31462W        W 3788  44.885  35.995   3.671
31463W        W 3789  21.569  13.819  10.909
31464W        W 3790  20.213  38.557   0.416
31465W        W 3791   5.732  25.151   3.226
31466W        W 3792  19.672  39.478  13.915
31467W        W 3793  27.177  30.437  13.885
31468W        W 3794   4.706  38.028  12.007
31469W        W 3795   4.390  18.706   0.805
31470W        W 3796  40.885  29.630   3.226
31471W        W 3797  40.852  30.939  13.887
31472W        W 3798  30.934  24.544   1.820
31473W        W 3799  44.456  41.319   1.827
31474W        W 3800  44.292  41.918   4.283
31475W        W 3801  33.008   2.463   4.125
31476W        W 3802  17.242  28.170  14.998
31477W        W 3803  41.319  18.719   1.338
31478W        W 3804  24.192   9.793   2.862
31479W        W 3805  24.073  22.515   3.302
31480W        W 3806  22.531  18.691  13.978
31481W        W 3807  24.125   3.217   1.277
31482W        W 3808  40.372   9.378   2.259
31483W        W 3809  26.522  41.905  11.407
31484W        W 3810  22.243  15.176   1.822
31485W        W 3811  37.343  14.765   3.769
31486W        W 3812  26.524  44.278   3.649
31487W        W 3813  33.093  30.079   0.901
31488W        W 3814   1.879  21.193   1.759
31489W        W 3815  16.205  33.019  12.451
31490W        W 3816  44.910  40.423  13.040
31491W        W 3817  21.030   5.237  12.091
31492W        W 3818  37.018  43.980   0.250
31493W        W 3819   5.908  36.429  14.370
31494W        W 3820  25.130  30.604   4.311
31495W        W 3821  39.403  43.799  11.608
31496W        W 3822  31.529  26.549  10.979
31497W        W 3823   8.749  10.797   3.373
31498W        W 3824  42.453  19.045   3.337
31499W        W 3825  24.224  11.245  14.347
31500W        W 3826  28.575  18.727  11.422
31501W        W 3827  24.009  35.911  12.547
31502W        W 3828  10.286   8.703  12.849
31503W        W 3829  27.042   0.894   0.789
31504W        W 3830  14.775  18.198  13.982
31505W        W 3831  42.504  15.211   4.680
31506W        W 3832  13.607   8.662  11.450
31507W        W 3833  30.145  15.196   1.800
31508W        W 3834  33.026  26.504  11.583
31509W        W 3835  11.855   6.204  12.032
31510W        W 3836  30.550   2.946   0.843
31511W        W 3837  27.567  12.810  13.006
31512W        W 3838  43.427  40.817   1.744
31513W        W 3839   9.173  34.956   4.727
31514W        W 3840  39.330  38.976   3.666
31515W        W 3841  26.992  25.658   4.156
31516W        W 3842  25.055  20.658   4.813
31517W        W 3843  17.214  28.617   1.311
31518W        W 3844  25.000   8.271  13.047
31519W        W 3845  10.719  30.113  14.995
31520W        W 3846  18.598  17.745   3.810
31521W        W 3847  12.830  38.929  11.609
31522W        W 3848  12.703  38.897  14.313
31523W        W 3849  28.655   0.899  14.430
31524W        W 3850  22.221  23.019  10.543
31525W        W 3851  36.380  37.885   2.352
31526W        W 3852  19.605   5.823  12.009
31527W        W 3853  10.717  32.396  12.441
31528W        W 3854  21.553   4.896  11.955
31529W        W 3855  26.585  33.433   4.278
31530W        W 3856  40.342  31.644  12.937
31531W        W 3857   8.333   2.247  14.322
31532W        W 3858  35.862  10.176  12.449
31533W        W 3859   9.648  41.843  12.436
31534W        W 3860  42.775   4.860  10.629
31535W        W 3861  39.892  28.950  12.899
31536W        W 3862  11.317  42.293  14.790
31537W        W 3863  18.790  23.614  10.159
31538W        W 3864  41.500   2.372  10.990
31539W        W 3865  40.303  15.821   1.346
31540W        W 3866  15.767  25.196   0.285
31541W        W 3867  44.319   6.681   4.804
31542W        W 3868  20.230   9.281   3.234
31543W        W 3869  12.175   8.219   3.743
31544W        W 3870  23.664  33.477   0.824
31545W        W 3871  43.466  34.105  13.350
31546W        W 3872   3.367  26.086   1.397
31547W        W 3873  12.310  35.020  11.108
31548W        W 3874  35.993  35.075   4.769
31549W        W 3875   0.424  29.482  13.901
31550W        W 3876  13.325  26.659  12.429
31551W        W 3877  10.198   1.345   4.647
31552W        W 3878  29.587  22.169  11.009
31553W        W 3879  24.040   4.382  12.084
31554W        W 3880  16.248  13.139   4.344
31555W        W 3881   1.748  37.453   2.810
31556W        W 3882  44.424  20.220   4.629
31557W        W 3883   9.255  38.901  11.893
31558W        W 3884  12.133  19.724   4.263
31559W        W 3885  32.595  12.684  12.888
31560W        W 3886   4.809  21.711  13.895
31561W        W 3887  40.930   7.694  12.504
31562W        W 3888  42.796  31.120  11.122
31563W        W 3889  22.631  14.205   2.239
31564W        W 3890  15.764  42.828  10.431
31565W        W 3891   3.291  30.635   0.885
31566W        W 3892  41.452  44.845   2.324
31567W        W 3893   6.678  15.751  12.344
31568W        W 3894  39.530   9.153   0.448
31569W        W 3895   8.357  40.898   1.234
31570W        W 3896  41.396   9.733   0.428
31571W        W 3897  42.344  27.183  11.533
31572W        W 3898   6.278  21.099   4.196
31573W        W 3899  37.373  15.316   3.782
31574W        W 3900  14.306  35.503  10.898
31575W        W 3901   5.402  26.470  14.498
31576W        W 3902  37.510  31.015   0.858
31577W        W 3903  11.634  31.073   2.680
31578W        W 3904  12.199  35.543  12.521
31579W        W 3905  29.071  12.747   3.723
31580W        W 3906  38.412  14.182  11.928
31581W        W 3907  34.071  31.067   0.836
31582W        W 3908  20.746   0.910  13.494
31583W        W 3909  18.240   8.823  12.065
31584W        W 3910  21.086  43.852   3.650
31585W        W 3911  23.201  12.761   2.791
31586W        W 3912  14.283  13.156   3.855
31587W        W 3913  40.910  18.245  11.414
31588W        W 3914  11.814  24.037  12.358
31589W        W 3915  11.204  16.567  11.870
31590W        W 3916  19.050  10.163   0.856
31591W        W 3917  34.528  15.714  14.844
31592W        W 3918  15.758  12.728  11.951
31593W        W 3919  40.836   9.842  11.528
31594W        W 3920  33.550   6.373  13.961
31595W        W 3921   1.768  13.316   0.897
31596W        W 3922  26.544   0.898  14.344
31597W        W 3923  21.115   5.248   2.270
31598W        W 3924  24.499  15.610   3.182
31599W        W 3925  31.640  34.002  14.850
31600W        W 3926  38.360  20.628  14.330
31601W        W 3927   3.928   1.345   1.873
31602W        W 3928  11.132   4.385  13.432
31603W        W 3929   8.764  18.250  13.403
31604W        W 3930   1.341   3.709   3.217
31605W        W 3931  20.572  40.334  11.440
31606W        W 3932   4.705  16.277  11.995
31607W        W 3933  15.239  11.686   1.431
31608W        W 3934  36.853   2.231   4.159
31609W        W 3935  16.766  21.019  13.979
31610W        W 3936  34.972  41.027  10.626
31611W        W 3937  12.276  11.760  14.294
31612W        W 3938  33.098  38.966   3.233
31613W        W 3939   7.676  25.057   4.605
31614W        W 3940  15.755  32.440   4.625
31615W        W 3941  34.565   3.243   3.741
31616W        W 3942   5.708  32.003   0.966
31617W        W 3943   6.809  26.071   4.655
31618W        W 3944  30.946   2.256  10.970
31619W        W 3945  41.325  31.625   3.150
31620W        W 3946  28.530  26.688  11.867
31621W        W 3947   1.973  18.662   3.723
31622W        W 3948   3.951   3.925  11.454
31623W        W 3949   4.395   4.378  10.065
31624W        W 3950  25.194  24.571   0.855
31625W        W 3951   9.654  22.234   1.887
31626W        W 3952   2.842   5.365  10.456
31627W        W 3953  22.580  20.708   3.845
31628W        W 3954  26.593  18.129  12.865
31629W        W 3955   2.951  29.968   2.206
31630W        W 3956  32.447  19.765  11.557
31631W        W 3957   6.861  15.113   2.663
31632W        W 3958  41.876   6.783   0.808
31633W        W 3959  33.947  29.022   2.882
31634W        W 3960  30.488  27.528  13.809
31635W        W 3961  44.866   6.263   3.158
31636W        W 3962  41.380   3.367  11.856
31637W        W 3963  22.233  13.725  10.956
31638W        W 3964  29.155  25.983  13.954
31639W        W 3965  23.199   1.457   1.699
31640W        W 3966  44.422  29.612  11.860
31641W        W 3967  19.546  29.595   0.793
31642W        W 3968   3.755  30.161   4.734
31643W        W 3969  15.792   7.387   2.315
31644W        W 3970  42.801  11.373   3.313
31645W        W 3971  10.724  22.226  13.999
31646W        W 3972   6.408  42.793   3.220
31647W        W 3973  21.578   7.784  11.418
31648W        W 3974  41.363  41.315   4.836
31649W        W 3975  30.140   5.329   2.393
31650W        W 3976   9.257  23.990   1.270
31651W        W 3977  40.348  41.291  11.602
31652W        W 3978   3.239  17.127  10.424
31653W        W 3979   2.266  42.785  11.391
31654W        W 3980   2.799  30.657   2.239
31655W        W 3981  18.239   1.915   2.775
31656W        W 3982  32.580  38.453  12.020
31657W        W 3983  23.517  37.457   0.314
31658W        W 3984  24.997  43.309  14.784
31659W        W 3985  28.008   8.347   3.816
31660W        W 3986  21.257  12.758  12.964
31661W        W 3987  23.094   5.286   0.342
31662W        W 3988  17.131  19.601   0.381
31663W        W 3989  11.715  38.325   1.300
31664W        W 3990   7.257  40.817   4.687
31665W        W 3991   3.372  40.827   4.609
31666W        W 3992  24.073  15.180  14.407
31667W        W 3993   6.864   8.666  13.317
31668W        W 3994   4.399  36.440  12.968
31669W        W 3995  24.206  26.052   3.667
31670W        W 3996  13.700  17.753   1.700
31671W        W 3997  34.992  22.514  13.966
31672W        W 3998  10.138  26.032   5.209
31673W        W 3999  23.658  24.113  12.510
31674W        W 4000   0.385  22.113  11.554
31675W        W 4001  20.693   0.808   4.686
31676W        W 4002  34.496  23.641   1.387
31677W        W 4003   0.875  41.441  12.888
31678W        W 4004  11.217  18.075  11.024
31679W        W 4005  14.110  33.877  13.404
31680W        W 4006   3.781   6.349   0.244
31681W        W 4007  26.027  27.054  12.549
31682W        W 4008  40.918   7.300   0.891
31683W        W 4009  18.768  24.525   1.820
31684W        W 4010  24.980   2.302  11.612
31685W        W 4011  20.169  44.768  12.552
31686W        W 4012  38.937  12.333   0.873
31687W        W 4013   0.933  38.491  11.945
31688W        W 4014  29.055  15.763  10.961
31689W        W 4015  30.621  11.257   3.679
31690W        W 4016  13.283   7.799  12.386
31691W        W 4017  17.252   4.438   2.226
31692W        W 4018  23.509  14.272  12.917
31693W        W 4019  31.455  21.696  12.044
31694W        W 4020   6.419  17.084  12.068
31695W        W 4021  40.347   8.391   4.829
31696W        W 4022  11.731  43.275   3.859
31697W        W 4023   4.258  37.382  11.541
31698W        W 4024   9.802  28.961   0.870
31699W        W 4025   6.397  27.012   3.824
31700W        W 4026  22.215  28.078  10.437
31701W        W 4027  32.618  15.301  11.882
31702W        W 4028   9.803   3.440   3.775
31703W        W 4029  10.853  34.979  14.462
31704W        W 4030  21.185  37.357  12.994
31705W        W 4031  11.343   8.726   2.887
31706W        W 4032  37.453  19.282   0.761
31707W        W 4033  38.376  32.577   2.356
31708W        W 4034  39.929  27.639   3.666
31709W        W 4035  36.446  18.718  14.926
31710W        W 4036  13.272   3.848  11.444
31711W        W 4037  33.075  16.234   0.447
31712W        W 4038  18.253  28.668   4.754
31713W        W 4039  42.909  37.386   4.126
31714W        W 4040  40.531  36.089   3.189
31715W        W 4041   0.364  30.991  11.936
31716W        W 4042  36.045  16.314   3.356
31717W        W 4043  30.575  10.831   3.265
31718W        W 4044   7.758  27.151   3.699
31719W        W 4045   4.403  11.141  10.641
31720W        W 4046   5.211  19.656   0.339
31721W        W 4047  25.486  26.093  12.424
31722W        W 4048  16.666  23.513  10.951
31723W        W 4049  24.180  32.905   1.772
31724W        W 4050  43.782  28.599   3.161
31725W        W 4051  35.967  30.468   1.286
31726W        W 4052  20.108  24.160   4.259
31727W        W 4053   8.737   1.919   0.325
31728W        W 4054   7.330  29.656  14.299
31729W        W 4055  17.212  38.467   2.889
31730W        W 4056  41.524  19.256  12.389
31731W        W 4057  14.162  13.643   0.802
31732W        W 4058  30.155  32.531   0.299
31733W        W 4059   5.831  28.006  11.474
31734W        W 4060  16.221  17.570  13.003
31735W        W 4061  44.895  22.660  10.502
31736W        W 4062  33.481   0.353   0.771
31737W        W 4063   2.928  38.509   0.900
31738W        W 4064   5.721  26.980   4.194
31739W        W 4065  37.424  30.002  12.578
31740W        W 4066  22.529   5.846  13.435
31741W        W 4067  43.279  13.808   1.393
31742W        W 4068  16.592  10.802  13.042
31743W        W 4069   4.336  29.008   1.850
31744W        W 4070  23.985   1.387  12.395
31745W        W 4071  12.247  32.568  13.850
31746W        W 4072  42.407  17.565   1.933
31747W        W 4073  39.039  14.761   2.887
31748W        W 4074  36.415   9.170   1.847
31749W        W 4075  16.193  38.907  12.883
31750W        W 4076  17.204  42.487  12.997
31751W        W 4077   9.257  23.059  10.483
31752W        W 4078  30.914  22.197   4.160
31753W        W 4079  29.514  37.345   2.349
31754W        W 4080  36.534  23.224  12.498
31755W        W 4081   4.857  38.008   3.234
31756W        W 4082  17.146  22.058  13.056
31757W        W 4083  35.937  29.948  14.384
31758W        W 4084   2.293   2.294  11.976
31759W        W 4085  22.126  41.407   3.826
31760W        W 4086  13.127  26.054   1.904
31761W        W 4087  39.028  12.259  10.154
31762W        W 4088   6.333  43.881   4.768
31763W        W 4089  32.462  10.843  14.022
31764W        W 4090   2.371  17.776   2.781
31765W        W 4091  38.853   3.709  12.352
31766W        W 4092   6.755   3.934   1.728
31767W        W 4093  34.879  13.764  11.128
31768W        W 4094  36.356   0.829  13.844
31769W        W 4095   0.452  10.807  10.900
31770W        W 4096  15.199  42.840   4.174
31771W        W 4097  32.427  36.588  14.307
31772W        W 4098  17.108   5.378  11.094
31773W        W 4099  13.259   5.249   0.946
31774W        W 4100   5.714  30.126   3.310
31775W        W 4101  15.766  34.475  10.001
31776W        W 4102  35.070   9.739  14.793
31777W        W 4103   4.213   9.701  14.961
31778W        W 4104   1.912  28.107  10.595
31779W        W 4105  13.271  43.447  13.446
31780W        W 4106   2.303  36.008  14.905
31781W        W 4107  44.329  34.952   2.314
31782W        W 4108  37.988  12.177  11.899
31783W        W 4109  11.312  42.855   2.189
31784W        W 4110  24.516   8.670  14.489
31785W        W 4111   0.934  25.050   1.802
31786W        W 4112   7.302  37.852   0.795
31787W        W 4113   8.748  44.293   3.283
31788W        W 4114   5.717  21.153   2.321
31789W        W 4115   0.285  21.199   2.367
31790W        W 4116  20.092  15.206  13.478
31791W        W 4117  42.456  37.868   3.334
31792W        W 4118  36.873  24.609  11.443
31793W        W 4119  18.085  23.691  14.400
31794W        W 4120  38.964  30.978  14.306
31795W        W 4121   9.177  29.044   1.307
31796W        W 4122  24.082   0.920   4.753
31797W        W 4123  35.379   5.352   4.829
31798W        W 4124  24.221  38.071   5.233
31799W        W 4125   4.318   4.431  14.311
31800W        W 4126  16.812  18.278  11.406
31801W        W 4127  39.432   3.270  14.329
31802W        W 4128   9.751   2.410   2.770
31803W        W 4129   5.729  33.127   3.224
31804W        W 4130  24.207   8.851  14.923
31805W        W 4131  23.191   2.772  13.817
31806W        W 4132  35.041  30.104   1.449
31807W        W 4133   4.914  32.600  12.507
31808W        W 4134  33.007  39.549   1.901
31809W        W 4135  27.020  33.599   3.187
31810W        W 4136  26.161  23.071   1.342
31811W        W 4137  18.638  29.579   1.381
31812W        W 4138  28.633  38.554   1.369
31813W        W 4139   5.220  22.233   4.762
31814W        W 4140  33.573  11.253  10.046
31815W        W 4141   5.862  11.159   1.845
31816W        W 4142  10.281   1.832  14.344
31817W        W 4143  23.636  25.018  11.873
31818W        W 4144   3.275  17.274   1.711
31819W        W 4145  28.494  16.075   2.772
31820W        W 4146  15.590  28.552   4.191
31821W        W 4147  23.702  22.529   0.393
31822W        W 4148  29.045   7.408   4.241
31823W        W 4149   2.465  34.961   5.133
31824W        W 4150  19.540  41.533  12.974
31825W        W 4151  31.955  32.961   3.295
31826W        W 4152  12.642  15.761   3.351
31827W        W 4153  23.018  37.393   2.197
31828W        W 4154   1.416  10.220   0.457
31829W        W 4155   2.431   5.798  10.100
31830W        W 4156  22.744  39.980   1.373
31831W        W 4157  44.910  34.091  14.513
31832W        W 4158   9.197  36.521   2.312
31833W        W 4159  31.918  38.027  11.527
31834W        W 4160  23.631  42.419   3.817
31835W        W 4161  30.148  23.726  11.946
31836W        W 4162  23.149   5.804   4.195
31837W        W 4163   2.443  10.170   3.253
31838W        W 4164  11.705  31.135  10.907
31839W        W 4165  32.450   5.399   3.337
31840W        W 4166  32.561  27.171   0.385
31841W        W 4167  23.158  40.395   9.652
31842W        W 4168   3.719   8.772  10.088
31843W        W 4169   9.728  42.295   4.730
31844W        W 4170   7.362  37.394   4.668
31845W        W 4171  27.586  27.093  11.412
31846W        W 4172  17.724   7.912   3.861
31847W        W 4173   6.770   5.828  11.060
31848W        W 4174  37.454  32.559  13.538
31849W        W 4175  37.857  26.143   4.673
31850W        W 4176  11.168  34.111  14.393
31851W        W 4177  31.143  22.595   0.947
31852W        W 4178  18.619   5.224  12.007
31853W        W 4179  37.378  31.636   3.313
31854W        W 4180  26.051  26.203   0.363
31855W        W 4181  17.289  43.804  13.947
31856W        W 4182  30.501   9.291   1.814
31857W        W 4183  31.905  42.797  11.093
31858W        W 4184  23.044  16.266   9.985
31859W        W 4185   1.446  12.791   2.813
31860W        W 4186  38.959   4.824   4.137
31861W        W 4187   7.830  12.694   0.790
31862W        W 4188  31.556  32.913  10.911
31863W        W 4189  16.760  31.104   0.833
31864W        W 4190  26.009  13.247  13.048
31865W        W 4191  28.025  29.949   1.330
31866W        W 4192  29.424  29.550   0.314
31867W        W 4193  29.490   0.773  14.432
31868W        W 4194  17.117  17.257   5.229
31869W        W 4195   7.242  14.683  12.530
31870W        W 4196  43.886  25.092  12.555
31871W        W 4197  28.529  38.862   2.803
31872W        W 4198   5.249  11.370  11.998
31873W        W 4199  14.735  36.026   5.755
31874W        W 4200  10.865  30.931   1.799
31875W        W 4201  24.975  32.573  11.059
31876W        W 4202  43.857   0.449   4.159
31877W        W 4203  18.665  34.417   3.297
31878W        W 4204  33.950   1.366   0.378
31879W        W 4205   3.385   2.879  10.916
31880W        W 4206  23.580   2.940  14.329
31881W        W 4207   8.237  40.442  13.027
31882W        W 4208  27.002  12.721   1.706
31883W        W 4209   3.713  29.136   0.409
31884W        W 4210   3.892  10.859   0.282
31885W        W 4211  14.218  10.204  11.441
31886W        W 4212  13.105  14.240  10.008
31887W        W 4213   5.754  41.933  12.046
31888W        W 4214  35.486  32.922   4.206
31889W        W 4215  37.918  38.951  12.930
31890W        W 4216  13.177  18.592  12.823
31891W        W 4217  25.198  40.833   2.235
31892W        W 4218  28.565  28.181  13.488
31893W        W 4219  15.639   1.301   4.817
31894W        W 4220   6.383  40.821  14.349
31895W        W 4221   7.750   0.446   3.804
31896W        W 4222   1.799  41.014  13.888
31897W        W 4223   0.854  33.924  14.402
31898W        W 4224   5.202   2.410   4.667
31899W        W 4225  13.307   7.889   2.302
31900W        W 4226   2.277  25.069  13.816
31901W        W 4227   2.889  37.908  12.070
31902W        W 4228   4.784  29.567  10.634
31903W        W 4229  42.839   8.701   0.850
31904W        W 4230  14.660  32.925   0.864
31905W        W 4231  12.716  34.585  12.414
31906W        W 4232  32.583  41.947  14.915
31907W        W 4233   4.851  22.199  11.033
31908W        W 4234  38.947   7.284  11.470
31909W        W 4235  39.382   0.382  11.397
31910W        W 4236  25.039  40.990   1.872
31911W        W 4237  24.066  40.514   1.222
31912W        W 4238  33.034  26.202  14.942
31913W        W 4239  38.563  26.199  13.980
31914W        W 4240  40.418  28.101  12.073
31915W        W 4241   6.709  35.041   1.408
31916W        W 4242  41.030   7.797   3.765
31917W        W 4243  27.458  34.395  12.354
31918W        W 4244  27.684  28.181  13.329
31919W        W 4245  14.700  17.690  10.527
31920W        W 4246  17.099  19.601  13.317
31921W        W 4247   2.814  44.342   1.234
31922W        W 4248  33.924   1.905  13.387
31923W        W 4249  12.636  42.501  12.904
31924W        W 4250  29.137  21.537   4.230
31925W        W 4251  14.645   1.847  12.536
31926W        W 4252   3.742  14.179  12.069
31927W        W 4253  13.219  12.326  13.891
31928W        W 4254  35.925  17.616   2.312
31929W        W 4255  27.459  27.150   1.435
31930W        W 4256  17.247   6.382   1.377
31931W        W 4257  25.668  43.343  13.308
31932W        W 4258  23.666  37.873   1.904
31933W        W 4259  15.303  10.752   4.296
31934W        W 4260  34.919  29.590   4.628
31935W        W 4261  20.711   7.849  14.436
31936W        W 4262   9.863  28.178  13.377
31937W        W 4263  34.571  14.726  14.463
31938W        W 4264  17.793   9.302  13.015
31939W        W 4265  10.765  32.463   2.876
31940W        W 4266   8.718  19.546  11.503
31941W        W 4267  36.979  19.068  11.870
31942W        W 4268  38.351  40.961  11.882
31943W        W 4269  22.031   3.307   2.262
31944W        W 4270  31.645  39.022   3.826
31945W        W 4271  10.651  32.415  10.464
31946W        W 4272  42.408  15.088  14.412
31947W        W 4273  33.882   1.964   1.714
31948W        W 4274  22.247  22.574  10.892
31949W        W 4275  10.311  18.091   2.272
31950W        W 4276   0.810  30.516  10.522
31951W        W 4277  32.482  23.239  13.849
31952W        W 4278  35.957   1.758  14.854
31953W        W 4279  37.464  21.242  12.568
31954W        W 4280  12.715  17.767  13.059
31955W        W 4281  41.942   6.791  10.540
31956W        W 4282   3.937  42.524   0.353
31957W        W 4283  18.585   3.391   4.726
31958W        W 4284  26.022   2.921  10.581
31959W        W 4285   9.291   1.432   3.764
31960W        W 4286  21.643  37.548   3.153
31961W        W 4287  29.594  35.547  10.492
31962W        W 4288  42.424  36.398  14.840
31963W        W 4289  36.856   8.309   4.608
31964W        W 4290  43.414  31.035   1.376
31965W        W 4291  23.530  17.744   4.185
31966W        W 4292  36.468  23.069  14.767
31967W        W 4293  12.718   0.849  13.028
31968W        W 4294  44.291  41.468   2.751
31969W        W 4295  12.185  10.381   0.831
31970W        W 4296  36.860   9.770   3.296
31971W        W 4297   6.216  31.621  12.369
31972W        W 4298  38.496  33.081  12.543
31973W        W 4299  10.724  23.054   1.288
31974W        W 4300  42.338   7.887   4.723
31975W        W 4301  27.971  36.566  14.014
31976W        W 4302   1.417  21.574   3.634
31977W        W 4303   2.409  37.977   2.237
31978W        W 4304  40.825  11.356   1.791
31979W        W 4305   3.811   5.394  12.554
31980W        W 4306  19.179  40.868  10.998
31981W        W 4307  16.104  24.139   1.743
31982W        W 4308  33.413   3.387   3.160
31983W        W 4309  14.100  39.811   2.285
31984W        W 4310   3.347  32.129   1.760
31985W        W 4311  29.600  15.131   3.250
31986W        W 4312  23.102  33.579  11.460
31987W        W 4313  14.219  43.940   2.700
31988W        W 4314  17.691  15.287   3.335
31989W        W 4315  26.091  13.712   2.213
31990W        W 4316  26.992   8.375  11.872
31991W        W 4317  13.703  28.023  13.011
31992W        W 4318  28.541  10.352   2.412
31993W        W 4319  15.204  32.442   1.295
31994W        W 4320  16.811  32.589  12.865
31995W        W 4321  19.752   0.895  11.102
31996W        W 4322  24.684  18.093  11.049
31997W        W 4323   5.880  29.424   2.308
31998W        W 4324   7.230  33.998  14.918
31999W        W 4325  21.153  37.840  11.066
32000W        W 4326  40.049   6.719  12.043
32001W        W 4327  24.069  38.971   0.908
32002W        W 4328  14.183  25.058   0.962
32003W        W 4329  21.517  18.172   1.825
32004W        W 4330  15.205   2.932  14.406
32005W        W 4331  32.133   8.661  11.965
32006W        W 4332  42.320  21.661   1.338
32007W        W 4333  40.842  12.335   4.785
32008W        W 4334  27.663  15.178  10.624
32009W        W 4335   1.379   8.878   3.357
32010W        W 4336  18.736  26.203   3.764
32011W        W 4337  16.281  25.517  10.971
32012W        W 4338  18.789  19.565   4.239
32013W        W 4339   9.655  14.712  12.920
32014W        W 4340  15.262  28.991   1.852
32015W        W 4341   6.413  32.929   0.316
32016W        W 4342   1.345  41.339   1.784
32017W        W 4343   2.454  22.553   4.834
32018W        W 4344  37.444  13.326   2.860
32019W        W 4345  42.013  15.111  12.350
32020W        W 4346  42.446  16.637   2.317
32021W        W 4347  40.952  41.380   3.689
32022W        W 4348  27.079  13.340  10.500
32023W        W 4349   0.758   7.716   2.856
32024W        W 4350   2.735   4.373   9.486
32025W        W 4351  22.252   4.718  12.559
32026W        W 4352  27.570  42.506   3.731
32027W        W 4353  29.107  12.237   3.188
32028W        W 4354   1.936  21.131  10.895
32029W        W 4355  19.629   3.375  13.364
32030W        W 4356  25.178  38.822  12.546
32031W        W 4357  17.137   7.263   1.323
32032W        W 4358  17.786  41.995   1.256
32033W        W 4359  35.939  40.867   4.625
32034W        W 4360  22.546  35.482   4.270
32035W        W 4361  40.053  13.740  11.126
32036W        W 4362  21.609  25.692   0.287
32037W        W 4363   4.870   0.794   3.635
32038W        W 4364   7.214  15.109   2.203
32039W        W 4365  10.815  16.080  13.876
32040W        W 4366  18.279  30.512  12.955
32041W        W 4367  11.711  31.647   2.806
32042W        W 4368  25.213  15.729   3.723
32043W        W 4369   7.719   0.757  13.998
32044W        W 4370  35.472   9.698  13.319
32045W        W 4371   2.838   7.812   4.248
32046W        W 4372  31.616  20.269   1.233
32047W        W 4373  35.580   0.492  10.903
32048W        W 4374  16.212  28.499  14.822
32049W        W 4375  42.361  20.255   3.647
32050W        W 4376  33.091  23.078   1.915
32051W        W 4377  43.342  32.890  12.991
32052W        W 4378  38.874  37.926  13.017
32053W        W 4379  40.894  15.151   2.410
32054W        W 4380  18.612  14.113  14.474
32055W        W 4381   3.256  40.897   0.812
32056W        W 4382   0.814   6.710   4.793
32057W        W 4383  16.791  37.468  11.431
32058W        W 4384  35.106  31.125  12.361
32059W        W 4385  28.141  15.281   3.382
32060W        W 4386  12.148  11.353  11.607
32061W        W 4387   3.454  12.764   0.464
32062W        W 4388  18.790  33.102   4.773
32063W        W 4389   1.351   7.757   0.419
32064W        W 4390  27.478  35.083   2.394
32065W        W 4391  27.505   5.806  10.941
32066W        W 4392  25.204  30.650  10.920
32067W        W 4393  30.631  29.062   0.482
32068W        W 4394  42.900  15.814   4.728
32069W        W 4395  16.142   3.401  11.605
32070W        W 4396  39.836  16.283   1.258
32071W        W 4397  43.282  16.251  14.367
32072W        W 4398  29.515   2.349  10.928
32073W        W 4399  14.812  27.678  11.883
32074W        W 4400  41.523   4.272  13.408
32075W        W 4401  30.043  41.299   0.434
32076W        W 4402  36.592  40.459   4.220
32077W        W 4403  24.575  42.319  10.541
32078W        W 4404  17.174  15.682   2.415
32079W        W 4405   0.325   6.286   4.729
32080W        W 4406  42.895  27.127  11.116
32081W        W 4407  10.325  22.091  12.066
32082W        W 4408   2.965   1.951  12.826
32083W        W 4409  33.506  12.288  10.459
32084W        W 4410  28.024  10.755   4.783
32085W        W 4411  26.032   7.172   3.353
32086W        W 4412  35.480   6.777   2.283
32087W        W 4413   6.892   2.902  12.411
32088W        W 4414  24.538  20.530   0.728
32089W        W 4415  19.612   2.441   2.713
32090W        W 4416  31.594  32.998   3.790
32091W        W 4417   1.299  34.545  14.008
32092W        W 4418   0.950  24.670  14.998
32093W        W 4419  42.354  44.948   1.772
32094W        W 4420  21.054  38.855   3.651
32095W        W 4421   8.840  11.335  12.505
32096W        W 4422  30.080   0.751  11.916
32097W        W 4423  40.354   4.282  11.604
32098W        W 4424   9.295  16.081   3.283
32099W        W 4425  11.828  38.056   1.287
32100W        W 4426  21.058  33.087  12.453
32101W        W 4427  39.831  24.984   3.729
32102W        W 4428  34.872  32.935  14.902
32103W        W 4429  12.241  37.071   5.272
32104W        W 4430   7.669  37.560  11.884
32105W        W 4431  14.180  40.549  13.946
32106W        W 4432  10.368  14.646  14.358
32107W        W 4433   3.837  20.096  13.920
32108W        W 4434  14.257  28.935  11.384
32109W        W 4435   1.923  40.519  10.545
32110W        W 4436   8.323   4.840   2.705
32111W        W 4437   4.879   0.763   1.329
32112W        W 4438  19.656  20.246  10.488
32113W        W 4439  10.659  14.271  14.890
32114W        W 4440  36.950   8.183   2.661
32115W        W 4441  40.433  28.972   4.137
32116W        W 4442  17.590  23.219   3.184
32117W        W 4443  40.941  20.148  14.474
32118W        W 4444  39.895  11.743  11.017
32119W        W 4445  15.784   0.951  13.472
32120W        W 4446  27.974   0.844   2.879
32121W        W 4447  33.009  18.681  13.055
32122W        W 4448  29.508  41.840   3.849
32123W        W 4449  32.505  17.650  12.860
32124W        W 4450   9.772  42.484  14.434
32125W        W 4451  21.237  41.467   5.245
32126W        W 4452  44.502  24.540   1.296
32127W        W 4453   7.386   5.750  11.516
32128W        W 4454  12.135  44.993  12.019
32129W        W 4455  44.909  38.388  14.285
32130W        W 4456   1.824   2.861  13.341
32131W        W 4457   4.410   4.334   0.282
32132W        W 4458  39.330  32.115  14.015
32133W        W 4459  23.491  29.496  13.853
32134W        W 4460   2.334  25.618   0.940
32135W        W 4461   4.209   3.439  10.898
32136W        W 4462  17.652  44.762  11.005
32137W        W 4463  17.661  26.131   4.278
32138W        W 4464   4.419   8.809   2.677
32139W        W 4465  12.120  15.726  12.426
32140W        W 4466  19.663  20.038  11.380
32141W        W 4467   7.292   1.380  14.831
32142W        W 4468  25.710  14.816  11.463
32143W        W 4469   2.722  17.119   0.481
32144W        W 4470  12.214  43.996  12.425
32145W        W 4471  19.139  39.934  12.489
32146W        W 4472  36.422  13.199  13.350
32147W        W 4473  40.831  22.022  11.117
32148W        W 4474  36.844  37.361   2.369
32149W        W 4475  39.880  40.319  11.033
32150W        W 4476  32.890  17.256  13.464
32151W        W 4477  23.689  11.262   3.365
32152W        W 4478   5.867  41.488  12.579
32153W        W 4479  42.986  21.178  14.878
32154W        W 4480  28.531  30.578  14.347
32155W        W 4481  29.984  41.922   1.856
32156W        W 4482  12.651  22.705   2.280
32157W        W 4483   7.324  26.134   4.695
32158W        W 4484  41.319  28.609   2.329
32159W        W 4485  30.557  25.627  13.318
32160W        W 4486   3.815  29.637   0.327
32161W        W 4487   3.750  19.161  11.937
32162W        W 4488  12.672   2.741   1.709
32163W        W 4489  13.789   3.783  10.920
32164W        W 4490  14.255  22.088  11.508
32165W        W 4491  21.676  37.941   2.861
32166W        W 4492  41.827  24.521  10.478
32167W        W 4493   2.950  11.276   9.658
32168W        W 4494  23.720  16.278   4.299
32169W        W 4495  27.137   5.830   1.415
32170W        W 4496  19.733  40.025  10.998
32171W        W 4497   6.808  33.111   0.352
32172W        W 4498  23.050  15.743   0.464
32173W        W 4499  44.851  34.394  11.381
32174W        W 4500  15.143   0.368  11.527
32175W        W 4501   3.340  40.336  13.877
32176W        W 4502  39.837  24.689   3.767
32177W        W 4503  20.130  10.715  10.429
32178W        W 4504  12.259  19.172  13.936
32179W        W 4505   5.902   2.459   3.312
32180W        W 4506  17.098  40.351  11.068
32181W        W 4507  42.894  10.709   1.343
32182W        W 4508   5.244  16.297  13.447
32183W        W 4509   0.875   9.696  13.877
32184W        W 4510  30.141   9.325  14.389
32185W        W 4511   2.808  13.127   4.333
32186W        W 4512  44.397   4.309  10.471
32187W        W 4513   1.809  41.908   4.350
32188W        W 4514   8.784  17.166  10.488
32189W        W 4515  40.898  18.557   4.291
32190W        W 4516   3.871  22.710   0.402
32191W        W 4517   7.328   7.188   3.317
32192W        W 4518   1.974  35.366   3.364
32193W        W 4519  14.755  15.206   2.894
32194W        W 4520  17.115  12.677  12.407
32195W        W 4521  41.528   7.180  13.926
32196W        W 4522   0.879  20.689  13.022
32197W        W 4523  19.095  24.692  12.037
32198W        W 4524  10.264   7.890  12.359
32199W        W 4525  17.207  35.516  10.568
32200W        W 4526  43.834   4.845   2.413
32201W        W 4527  32.889  23.181  14.891
32202W        W 4528   3.873  12.668   4.765
32203W        W 4529  42.481   0.458  11.078
32204W        W 4530   9.690   4.903   0.862
32205W        W 4531  28.606   4.923   2.899
32206W        W 4532  13.684  28.164   0.838
32207W        W 4533  17.066  21.100  14.445
32208W        W 4534  28.970   7.893   3.808
32209W        W 4535  30.079  18.679   1.729
32210W        W 4536   9.683  30.114   2.396
32211W        W 4537  20.739  26.652  11.958
32212W        W 4538  22.114   5.236   0.767
32213W        W 4539  28.156   0.806  11.407
32214W        W 4540  18.255  17.141   4.776
32215W        W 4541   3.363  20.600   0.482
32216W        W 4542  25.155  40.325  11.903
32217W        W 4543  44.407  12.716  13.878
32218W        W 4544  35.082  16.608  14.359
32219W        W 4545   3.428   0.982   2.797
32220W        W 4546  38.918   0.364  12.468
32221W        W 4547  24.078  17.799  10.572
32222W        W 4548  19.230   2.768   3.856
32223W        W 4549  20.202  18.266   2.215
32224W        W 4550  10.207  16.086  13.879
32225W        W 4551  39.507   6.202  11.538
32226W        W 4552  15.816  20.103  12.343
32227W        W 4553   8.899  14.599  14.302
32228W        W 4554  20.112  18.248  11.544
32229W        W 4555   6.711   8.288  10.409
32230W        W 4556   5.828   7.876  11.926
32231W        W 4557  21.179  43.303   3.683
32232W        W 4558  10.186  30.473   2.806
32233W        W 4559  13.325  16.768   2.260
32234W        W 4560  10.172  38.860   2.711
32235W        W 4561  31.981   4.796  13.028
32236W        W 4562  43.918  26.999   3.711
32237W        W 4563  42.874  21.089   3.712
32238W        W 4564   4.869  26.531   0.960
32239W        W 4565  31.967   5.411  13.521
32240W        W 4566  43.363  36.848  11.037
32241W        W 4567  27.570  12.133  12.944
32242W        W 4568  39.343  40.904   2.867
32243W        W 4569  39.000  25.021  10.491
32244W        W 4570   6.415  28.027  13.818
32245W        W 4571  10.803  27.481  13.473
32246W        W 4572  23.529   7.675  14.821
32247W        W 4573  27.527  15.103  12.975
32248W        W 4574   5.910  30.004  11.034
32249W        W 4575  25.000  24.099  13.009
32250W        W 4576  42.921  12.726   0.265
32251W        W 4577   8.233  34.095  13.827
32252W        W 4578  22.688  30.077   3.350
32253W        W 4579  18.581  16.739  10.593
32254W        W 4580  37.020  41.493   0.850
32255W        W 4581  43.445  15.589   2.308
32256W        W 4582  39.870   5.694  10.507
32257W        W 4583  31.083  33.936  14.888
32258W        W 4584  26.109  39.940  12.826
32259W        W 4585   0.258   4.720   1.303
32260W        W 4586  12.215  24.066  11.976
32261W        W 4587  11.172  35.408   0.764
32262W        W 4588   4.812  20.726   2.828
32263W        W 4589  42.399  43.778   4.800
32264W        W 4590  31.483   0.477   2.811
32265W        W 4591   1.913  13.234  13.055
32266W        W 4592  40.828  17.586   1.450
32267W        W 4593   7.860  17.110   4.637
32268W        W 4594  26.134   7.325  14.980
32269W        W 4595  24.010  14.101  10.055
32270W        W 4596  39.910   1.904   3.300
32271W        W 4597  28.599  34.881  12.891
32272W        W 4598  13.275  40.033  14.827
32273W        W 4599   6.220  10.180  13.974
32274W        W 4600  40.483  39.537   3.696
32275W        W 4601  12.846  19.177  11.088
32276W        W 4602  23.492   3.845  14.450
32277W        W 4603  14.125  23.568  12.981
32278W        W 4604  12.789  16.257   1.852
32279W        W 4605   7.228   3.437   1.863
32280W        W 4606   3.899  16.121   1.339
32281W        W 4607   0.793   2.451  13.822
32282W        W 4608  17.109  25.029  14.882
32283W        W 4609  34.529  12.785  14.802
32284W        W 4610   3.846  11.171  10.596
32285W        W 4611   0.352  15.676  12.824
32286W        W 4612  23.019  35.522   1.298
32287W        W 4613  16.192   7.280   1.884
32288W        W 4614  23.619   3.832  13.863
32289W        W 4615  27.529  43.345   4.173
32290W        W 4616  44.322  37.397   2.819
32291W        W 4617   6.374  14.615   1.754
32292W        W 4618  23.133  40.926  11.476
32293W        W 4619  21.514  31.122   0.944
32294W        W 4620  20.169  33.554  12.936
32295W        W 4621  16.694  14.658  12.405
32296W        W 4622  31.125   9.664  11.925
32297W        W 4623  24.181  11.789  14.027
32298W        W 4624   4.769  12.130   4.154
32299W        W 4625   4.884  34.920   3.261
32300W        W 4626  44.463   5.724  10.614
32301W        W 4627  15.604   9.221   1.233
32302W        W 4628   5.862  29.452   4.216
32303W        W 4629  24.517  13.740  14.781
32304W        W 4630  28.971   9.778   3.774
32305W        W 4631  40.037  33.007  12.877
32306W        W 4632   9.798  14.277   2.838
32307W        W 4633  11.278  11.210  10.953
32308W        W 4634  23.643  39.542   4.748
32309W        W 4635   4.234  14.190   3.364
32310W        W 4636  34.011  11.748   3.634
32311W        W 4637  27.453  11.710   2.714
32312W        W 4638  13.277  41.902   0.727
32313W        W 4639   4.266  34.427  11.855
32314W        W 4640  36.560  35.874   3.774
32315W        W 4641  37.562  17.621  14.803
32316W        W 4642  11.756  40.974  13.974
32317W        W 4643  22.024  38.392   1.860
32318W        W 4644  37.862  40.450   1.916
32319W        W 4645  35.580  31.413   1.728
32320W        W 4646  27.453  26.541  11.126
32321W        W 4647  33.550  22.052   1.770
32322W        W 4648  13.604  27.948  11.104
32323W        W 4649  39.413  21.109  11.099
32324W        W 4650  15.306  23.200   0.944
32325W        W 4651   1.754  22.559  11.084
32326W        W 4652  33.383  32.906  14.468
32327W        W 4653   4.929  19.603   4.243
32328W        W 4654   5.311  18.228   0.325
32329W        W 4655  20.734   9.664  14.400
32330W        W 4656   4.265  43.337  10.550
32331W        W 4657  15.118  19.743  10.944
32332W        W 4658  30.617  11.829   0.897
32333W        W 4659  41.966   5.859   2.855
32334W        W 4660  25.111  34.970   0.733
32335W        W 4661  31.559  24.535  12.536
32336W        W 4662  38.049  35.913  12.915
32337W        W 4663  28.577   3.389  13.815
32338W        W 4664  44.846  25.531   1.214
32339W        W 4665  16.276  35.594   1.369
32340W        W 4666   2.784  37.935   3.849
32341W        W 4667  30.156  44.484  10.495
32342W        W 4668  41.482  10.210   1.393
32343W        W 4669   4.797  44.818  11.873
32344W        W 4670  30.975  33.383  11.604
32345W        W 4671  36.559  22.628   9.970
32346W        W 4672  24.050  27.642   4.786
32347W        W 4673  30.557  41.947   3.333
32348W        W 4674   0.331  34.573  12.967
32349W        W 4675  23.020  23.193   1.232
32350W        W 4676  13.133  43.485   1.263
32351W        W 4677  39.339   2.795   0.355
32352W        W 4678  36.537  20.616  13.919
32353W        W 4679  14.636   3.337  11.592
32354W        W 4680   9.764  20.694   4.301
32355W        W 4681  33.522   9.350  10.114
32356W        W 4682   2.307  30.484   5.213
32357W        W 4683  11.174  44.325  10.635
32358W        W 4684   9.650  30.943  11.872
32359W        W 4685  19.276   8.392  12.927
32360W        W 4686   8.286  26.660  14.873
32361W        W 4687  14.246  27.535  10.495
32362W        W 4688  30.504   2.320   3.184
32363W        W 4689  38.548  12.212  10.544
32364W        W 4690   4.390  35.884  14.816
32365W        W 4691  29.571  40.848   4.148
32366W        W 4692  11.634  10.694  11.003
32367W        W 4693  36.991  37.463   1.760
32368W        W 4694  21.190   0.954  12.556
32369W        W 4695   2.819   8.746   4.818
32370W        W 4696  12.212  28.950   4.694
32371W        W 4697  36.877  18.050   4.619
32372W        W 4698   2.890  40.497  14.842
32373W        W 4699  18.128  40.445  12.836
32374W        W 4700   0.390  15.677   1.905
32375W        W 4701  23.006  17.568  10.051
32376W        W 4702  32.563  12.613   3.285
32377W        W 4703  19.271   9.285  13.448
32378W        W 4704  10.818  22.592   1.910
32379W        W 4705  33.925  27.463   2.764
32380W        W 4706  32.115  16.812   0.880
32381W        W 4707  42.876  37.834  14.862
32382W        W 4708  19.618  40.993   0.778
32383W        W 4709  28.024  37.338   1.398
32384W        W 4710  10.695  21.145   1.726
32385W        W 4711  11.355  32.395   2.367
32386W        W 4712  37.544   6.293   4.740
32387W        W 4713  30.512   6.833  14.441
32388W        W 4714  35.106   4.805  11.458
32389W        W 4715  21.219  42.819  14.439
32390W        W 4716  15.149   6.248  11.431
32391W        W 4717  37.421  17.580   0.460
32392W        W 4718  10.157  26.570   9.993
32393W        W 4719   5.380  22.708   9.960
32394W        W 4720  44.436  39.550  11.467
32395W        W 4721  36.854  24.558  11.068
32396W        W 4722  17.636  13.611  14.393
32397W        W 4723  42.952  24.062  12.951
32398W        W 4724   7.799  24.617  12.980
32399W        W 4725  27.033   3.292   0.282
32400W        W 4726  29.923   7.249  11.562
32401W        W 4727  14.136  42.472  13.827
32402W        W 4728  11.139   9.374   3.747
32403W        W 4729  33.118  14.791  14.979
32404W        W 4730  22.640  35.489   1.838
32405W        W 4731   6.252  25.498   3.829
32406W        W 4732  41.315   4.726  14.837
32407W        W 4733  17.142  33.393   2.825
32408W        W 4734  38.449  37.081   2.835
32409W        W 4735   9.183  34.914  10.898
32410W        W 4736  35.604  10.643   1.800
32411W        W 4737  18.149   2.731  10.571
32412W        W 4738   7.760  10.707   4.131
32413W        W 4739  19.584  22.199  12.865
32414W        W 4740  12.232  29.662  11.535
32415W        W 4741  26.584  35.423  11.005
32416W        W 4742   1.789  32.956  14.502
32417W        W 4743  10.207   3.386   9.981
32418W        W 4744  12.192   0.774   1.415
32419W        W 4745  36.527  37.518   1.694
32420W        W 4746  14.815  18.139   0.279
32421W        W 4747  21.530  37.376  12.839
32422W        W 4748  22.505  38.470  12.895
32423W        W 4749  11.675  22.599  14.944
32424W        W 4750   5.885  32.095  13.913
32425W        W 4751  39.843  35.011  11.119
32426W        W 4752   3.844  13.217   1.388
32427W        W 4753  33.494  16.188  14.897
32428W        W 4754  30.142   2.727  13.345
32429W        W 4755  12.205   6.900  11.998
32430W        W 4756   7.707  14.181   4.803
32431W        W 4757   0.337   2.965  12.429
32432W        W 4758  17.617  12.764  14.466
32433W        W 4759  16.590  37.913  13.319
32434W        W 4760  37.962  16.259  14.315
32435W        W 4761  12.132  35.978   4.302
32436W        W 4762  20.570  14.284   5.249
32437W        W 4763  14.641   4.930  14.431
32438W        W 4764  14.236  12.342  14.514
32439W        W 4765  19.645  19.632   4.239
32440W        W 4766  34.550  40.370   4.656
32441W        W 4767  35.444  24.697  13.449
32442W        W 4768   8.187   0.345   2.730
32443W        W 4769  38.558  35.876  12.920
32444W        W 4770  36.080  23.990  14.419
32445W        W 4771  40.313  41.818   2.856
32446W        W 4772  41.371  15.268  13.885
32447W        W 4773  16.605  15.156   1.808
32448W        W 4774   1.452  44.416  13.873
32449W        W 4775  38.472  27.689   4.666
32450W        W 4776   1.392  41.010  14.496
32451W        W 4777   5.369  25.153  11.432
32452W        W 4778   1.453  25.131  10.917
32453W        W 4779  23.550  23.175  14.479
32454W        W 4780  10.782  31.535   3.330
32455W        W 4781  12.758  27.162  13.507
32456W        W 4782  21.034  10.692  12.357
32457W        W 4783  28.184  33.445   3.155
32458W        W 4784  33.582   0.283  12.011
32459W        W 4785  27.504  14.726   2.779
32460W        W 4786  38.885  13.607   0.913
32461W        W 4787  34.575  43.841   4.636
32462W        W 4788  36.846  39.028  13.479
32463W        W 4789  41.384   8.770   1.711
32464W        W 4790  38.842  25.012  11.501
32465W        W 4791  19.057  32.097   3.241
32466W        W 4792  28.096  37.834  13.527
32467W        W 4793  18.191  40.001   1.307
32468W        W 4794  17.176  30.959   2.411
32469W        W 4795  33.431  35.584   5.304
32470W        W 4796  38.052  25.138  11.010
32471W        W 4797  20.151   9.155   2.186
32472W        W 4798  25.492  33.510   0.954
32473W        W 4799  34.512  33.059   1.224
32474W        W 4800  24.193  41.928  13.909
32475W        W 4801  44.280  24.640  11.504
32476W        W 4802  44.420  27.037  13.473
32477W        W 4803  28.535  20.124   4.278
32478W        W 4804   7.671  32.089   0.312
32479W        W 4805  23.537   6.914   4.769
32480W        W 4806  39.442  21.645  14.960
32481W        W 4807   3.263  38.363  12.576
32482W        W 4808  22.627  17.733  11.072
32483W        W 4809  28.073  40.497   0.364
32484W        W 4810   0.954  37.427  11.390
32485W        W 4811  14.625  29.032  11.385
32486W        W 4812  36.919  42.490   3.729
32487W        W 4813  12.807  21.250   4.180
32488W        W 4814  32.580   5.779  12.043
32489W        W 4815  40.859  36.911   1.410
32490W        W 4816  27.668  20.560  14.317
32491W        W 4817  39.422  32.562   0.358
32492W        W 4818  18.592   0.869  11.087
32493W        W 4819   8.761   0.976  14.399
32494W        W 4820  12.172   0.424   4.269
32495W        W 4821  15.155   9.248  14.948
32496W        W 4822  33.427   3.355   4.148
32497W        W 4823  20.262  18.586   5.245
32498W        W 4824  28.531   7.228   4.304
32499W        W 4825  14.118  24.676  13.365
32500W        W 4826  30.463  12.178   0.929
32501W        W 4827  44.878   9.698  13.839
32502W        W 4828  17.725   2.723   1.436
32503W        W 4829  43.868  30.658   2.297
32504W        W 4830   9.343  38.548   2.193
32505W        W 4831  31.531  29.104   2.358
32506W        W 4832   9.830  17.691   4.813
32507W        W 4833   3.953  37.010   1.728
32508W        W 4834  11.181  30.994   1.424
32509W        W 4835  27.020  27.495   0.746
32510W        W 4836  10.639   6.877   0.854
32511W        W 4837   7.190   4.723  12.481
32512W        W 4838   8.844   6.913   4.749
32513W        W 4839  38.377   4.275   2.812
32514W        W 4840  42.875  22.092  14.468
32515W        W 4841  30.082  41.420   2.314
32516W        W 4842  44.325  35.883   3.803
32517W        W 4843   9.742  33.391   4.141
32518W        W 4844  25.487  42.325   0.417
32519W        W 4845   2.367  36.375   4.236
32520W        W 4846  43.467  32.113   1.307
32521W        W 4847  27.494  15.275  12.391
32522W        W 4848  19.214  29.095   1.799
32523W        W 4849  16.638  35.434   3.264
32524W        W 4850   8.732  22.246  11.600
32525W        W 4851  38.378  30.503  13.884
32526W        W 4852  28.438   6.809   1.378
32527W        W 4853  32.950  40.308   2.182
32528W        W 4854  12.638  33.916   1.266
32529W        W 4855   4.293  18.122  12.983
32530W        W 4856  19.117  25.126  11.599
32531W        W 4857  44.838  34.934  14.880
32532W        W 4858   1.826  19.059  12.503
32533W        W 4859  13.351  36.467  11.014
32534W        W 4860  28.957   2.908   4.770
32535W        W 4861  43.334  23.512  14.828
32536W        W 4862   9.271  40.503  12.344
32537W        W 4863  37.892   8.382  12.375
32538W        W 4864   5.299   7.382   0.262
32539W        W 4865   9.664   6.348  14.997
32540W        W 4866   6.334  17.233  11.388
32541W        W 4867  27.477  29.519   3.706
32542W        W 4868   2.281  33.545  10.530
32543W        W 4869  41.957  16.123   0.961
32544W        W 4870  32.557  41.526  10.538
32545W        W 4871  19.556  23.212   4.238
32546W        W 4872  14.184  11.626   5.321
32547W        W 4873  26.041  22.031  14.889
32548W        W 4874  38.476   6.901  14.784
32549W        W 4875  23.134  14.227  13.994
32550W        W 4876  10.798   5.690   0.468
32551W        W 4877  27.597  41.884   4.256
32552W        W 4878  23.145  10.724  11.911
32553W        W 4879  21.236  37.353  14.963
32554W        W 4880  23.174  13.657   0.418
32555W        W 4881  16.698   5.311   2.219
32556W        W 4882   3.826  16.263  13.518
32557W        W 4883  42.327   6.356  14.932
32558W        W 4884  19.618   9.714   2.812
32559W        W 4885  39.320  16.120  11.605
32560W        W 4886  25.966  31.019   3.266
32561W        W 4887   7.193  12.352   4.824
32562W        W 4888  20.575  19.266  11.388
32563W        W 4889   6.840  16.098  14.979
32564W        W 4890  12.245  44.993  12.849
32565W        W 4891  12.350   0.900   2.353
32566W        W 4892  34.963  35.969   0.730
32567W        W 4893  13.679   1.477   1.403
32568W        W 4894  11.355  44.966  12.058
32569W        W 4895   1.762  43.288   2.305
32570W        W 4896   6.391  34.375   0.278
32571W        W 4897  23.040  42.332  11.411
32572W        W 4898  33.998  32.551  13.045
32573W        W 4899  41.957  18.675  13.799
32574W        W 4900  44.813  35.556  14.829
32575W        W 4901  33.468  25.686   0.837
32576W        W 4902  10.182  35.030  11.075
32577W        W 4903  44.336  40.445  12.020
32578W        W 4904  34.915  25.091   5.215
32579W        W 4905  17.594   5.860   1.315
32580W        W 4906  44.962  29.427   0.881
32581W        W 4907   9.180  13.309   0.465
32582W        W 4908  38.530   9.200   1.360
32583W        W 4909  23.170  42.440   1.774
32584W        W 4910   4.449  31.583  13.925
32585W        W 4911   5.782  26.144  10.958
32586W        W 4912  43.015  41.027   4.720
32587W        W 4913  24.524  42.814   0.886
32588W        W 4914  31.123  17.189  14.455
32589W        W 4915  23.550   1.917   2.195
32590W        W 4916  28.444  11.747   1.451
32591W        W 4917  43.878  17.660   1.364
32592W        W 4918   0.343  11.186  14.858
32593W        W 4919   6.723  27.994   0.398
32594W        W 4920  16.166   4.942  14.926
32595W        W 4921   7.794  43.293  14.989
32596W        W 4922   2.436   5.812  11.515
32597W        W 4923  38.924  42.851   2.737
32598W        W 4924  30.136  22.184   0.947
32599W        W 4925  22.036  32.038   2.344
32600W        W 4926  10.164   5.706  12.434
32601W        W 4927  18.251  21.725  11.062
32602W        W 4928  18.644  14.250  10.567
32603W        W 4929  32.120   6.836  10.889
32604W        W 4930   5.380  22.020  11.037
32605W        W 4931   9.704   3.712  12.564
32606W        W 4932   3.752  33.404  13.399
32607W        W 4933  25.071  44.500  11.994
32608W        W 4934  38.037  27.116   3.630
32609W        W 4935  40.344  13.631   0.414
32610W        W 4936  22.146  14.290   4.829
32611W        W 4937  41.336  39.546  13.353
32612W        W 4938  35.914  27.134  11.542
32613W        W 4939  35.407  21.237   2.277
32614W        W 4940  43.288  39.446   4.697
32615W        W 4941  15.098  29.670   4.767
32616W        W 4942  16.573  36.430  12.428
32617W        W 4943   1.396  25.999  13.910
32618W        W 4944  15.722  37.066  13.938
32619W        W 4945  27.126  31.947  11.027
32620W        W 4946  44.996  13.701  13.403
32621W        W 4947  28.505  14.221   0.813
32622W        W 4948  32.906  11.239   1.709
32623W        W 4949  25.063   1.298  10.459
32624W        W 4950  21.543  37.432   4.662
32625W        W 4951  42.853   7.683  14.888
32626W        W 4952  16.626  10.382  10.093
32627W        W 4953  22.202   5.791  11.598
32628W        W 4954   1.345   7.262   3.867
32629W        W 4955   2.449  20.145  13.369
32630W        W 4956  24.600  39.866   4.649
32631W        W 4957  32.443  41.900   0.258
32632W        W 4958   2.925  26.992  10.998
32633W        W 4959  41.450  23.728  12.981
32634W        W 4960   0.780  22.515   4.714
32635W        W 4961   1.959  13.825  13.977
32636W        W 4962  20.078  40.528  14.885
32637W        W 4963   3.287  38.014   4.623
32638W        W 4964  10.260  25.521   2.714
32639W        W 4965  11.187  37.503   5.316
32640W        W 4966   3.364  43.339  14.410
32641W        W 4967  15.212  30.451   2.379
32642W        W 4968  43.457   5.826  11.996
32643W        W 4969   3.248  38.477  12.863
32644W        W 4970  35.976  37.916   0.851
32645W        W 4971  18.242  25.022  11.564
32646W        W 4972  33.959  22.548  14.021
32647W        W 4973   8.820  10.214  10.013
32648W        W 4974   9.702  30.512   0.470
32649W        W 4975  39.426  25.472   0.781
32650W        W 4976  41.403  20.129   4.173
32651W        W 4977   4.342  18.077   0.467
32652W        W 4978  27.543  39.834  14.825
32653W        W 4979  26.671  40.023   1.261
32654W        W 4980  42.982  21.706  10.923
32655W        W 4981  16.743  43.380   1.808
32656W        W 4982   8.794  16.808  13.335
32657W        W 4983  36.471  22.091   3.308
32658W        W 4984  31.095  36.479   2.349
32659W        W 4985  14.765  28.528  10.405
32660W        W 4986  26.085   1.420  10.585
32661W        W 4987  41.490   1.908   1.712
32662W        W 4988  29.012  41.870  10.457
32663W        W 4989  35.582  29.985  14.302
32664W        W 4990   1.313  17.155  11.121
32665W        W 4991   7.305  22.542  12.371
32666W        W 4992  38.372  22.612   4.169
32667W        W 4993  43.491   1.437  11.983
32668W        W 4994  16.135  30.659   2.858
32669W        W 4995   7.398  35.393   1.282
32670W        W 4996  20.209  24.227   2.704
32671W        W 4997  12.119  43.819  13.866
32672W        W 4998  21.625  39.443   5.153
32673W        W 4999  19.118   7.393   1.407
32674W        W 5000  22.075   8.826   4.742
32675W        W 5001  37.886  22.226   3.322
32676W        W 5002  39.487  16.313   4.250
32677W        W 5003   4.256  10.139   2.293
32678W        W 5004  33.552  43.294  11.970
32679W        W 5005  35.519  15.228   0.842
32680W        W 5006  11.309   4.357   0.943
32681W        W 5007  12.357  24.066   9.595
32682W        W 5008  10.246  37.855   2.274
32683W        W 5009  19.729  27.032  13.352
32684W        W 5010  30.045  43.510   3.777
32685W        W 5011  31.635   8.164   0.377
32686W        W 5012  27.059  31.554   0.316
32687W        W 5013  23.986   2.367  11.401
32688W        W 5014   2.762   6.348   0.883
32689W        W 5015  12.256  15.083   1.897
32690W        W 5016   3.335  24.042   3.850
32691W        W 5017  12.247   1.418   2.765
32692W        W 5018  33.944  44.262  13.512
32693W        W 5019  25.201  29.998  14.477
32694W        W 5020  16.648  28.118   3.166
32695W        W 5021   3.319  26.690   3.778
32696W        W 5022  17.217  12.825   0.427
32697W        W 5023  28.096   3.415   4.683
32698W        W 5024   3.461  26.118  11.564
32699W        W 5025  17.285  44.994  14.766
32700W        W 5026  31.127  40.800   4.227
32701W        W 5027  36.477  21.588   4.622
32702W        W 5028  44.808  20.190   3.767
32703W        W 5029  16.698  23.535   0.737
32704W        W 5030   1.894  42.801   4.307
32705W        W 5031  11.269  26.060  14.508
32706W        W 5032  31.626  27.059   4.325
32707W        W 5033  27.650  40.828   2.812
32708W        W 5034   9.320  23.029  13.041
32709W        W 5035  20.692  32.044   3.330
32710W        W 5036  28.044  36.585  13.476
32711W        W 5037   0.360  13.142   4.708
32712W        W 5038  15.257   2.303  11.612
32713W        W 5039  26.677   8.773   3.732
32714W        W 5040  36.020  42.523  14.284
32715W        W 5041  11.804  36.578  11.082
32716W        W 5042  23.993   3.827  11.095
32717W        W 5043  21.644  32.091  12.901
32718W        W 5044   0.977  42.502   0.966
32719W        W 5045   5.438  20.193   2.258
32720W        W 5046  23.117   5.255  11.089
32721W        W 5047  31.619  20.214  13.968
32722W        W 5048  31.611  23.723   0.334
32723W        W 5049  38.509  13.170   2.798
32724W        W 5050   7.856   7.256  13.849
32725W        W 5051  39.544  28.565  11.986
32726W        W 5052  18.263   0.978  14.936
32727W        W 5053  20.599  21.066   4.314
32728W        W 5054   5.694  43.463  13.498
32729W        W 5055  36.510  23.583   1.898
32730W        W 5056  11.310  27.007   5.091
32731W        W 5057  11.752  26.061   5.233
32732W        W 5058  38.521  15.620   3.226
32733W        W 5059  17.089  20.566   2.199
32734W        W 5060   6.757  18.212  12.084
32735W        W 5061  23.220   8.196  12.441
32736W        W 5062   9.657  44.946  11.529
32737W        W 5063  24.029   7.213  14.493
32738W        W 5064  23.631  20.247  12.525
32739W        W 5065  12.724   2.404  13.891
32740W        W 5066  21.072   2.956   4.165
32741W        W 5067  39.023  44.767   2.322
32742W        W 5068  24.557  41.423   3.834
32743W        W 5069  18.243  13.788   2.673
32744W        W 5070  37.574  36.987   0.255
32745W        W 5071  21.666   8.767  14.973
32746W        W 5072  38.833  29.500  13.040
32747W        W 5073   8.306  23.191  13.439
32748W        W 5074   4.320   2.345   4.212
32749W        W 5075  23.538  29.938  11.612
32750W        W 5076  14.678  22.746   0.855
32751W        W 5077   5.912  44.361   2.894
32752W        W 5078   8.340  38.336  13.985
32753W        W 5079   7.196  40.534   0.273
32754W        W 5080  18.720  17.240  12.909
32755W        W 5081  32.076  32.565   0.465
32756W        W 5082  44.453  13.247   4.183
32757W        W 5083  11.711  26.982   0.825
32758W        W 5084  19.227  17.747  11.954
32759W        W 5085  44.772  37.927  12.085
32760W        W 5086  25.596  29.519  10.549
32761W        W 5087  21.095  14.834   3.359
32762W        W 5088  33.126  34.596   4.137
32763W        W 5089  39.055  13.629   0.413
32764W        W 5090   5.769  37.368  11.455
32765W        W 5091  19.125  16.743  14.970
32766W        W 5092  20.115   7.744  12.008
32767W        W 5093  13.311   8.364  11.600
32768W        W 5094   1.880  23.656  13.054
32769W        W 5095   1.428   8.807  10.446
32770W        W 5096  28.516  27.045   3.680
32771W        W 5097   7.763  43.863  12.876
32772W        W 5098  44.969  23.044   4.659
32773W        W 5099  19.696   6.250  12.845
32774W        W 5100   6.255  21.117   5.140
32775W        W 5101  38.380  16.713  12.826
32776W        W 5102  15.213  35.024   3.804
32777W        W 5103  15.689  19.174   3.246
32778W        W 5104  22.094   7.834  13.539
32779W        W 5105   9.334  30.114   0.849
32780W        W 5106  25.696  21.044   1.330
32781W        W 5107   7.728  11.663   3.735
32782W        W 5108  32.026  13.678   4.124
32783W        W 5109  40.544  13.320   1.296
32784W        W 5110  28.610  34.964  12.461
32785W        W 5111   7.829  10.338   3.313
32786W        W 5112  37.955  41.871  13.054
32787W        W 5113  41.419  35.375   0.828
32788W        W 5114  30.982  43.381  12.009
32789W        W 5115  44.932  15.318  14.469
32790W        W 5116  36.396   1.841   5.211
32791W        W 5117  41.840   3.363  10.576
32792W        W 5118  17.160  39.559  11.372
32793W        W 5119  14.753  15.111  10.948
32794W        W 5120  20.237  25.704   2.786
32795W        W 5121  39.349  32.511  10.923
32796W        W 5122  23.719  34.402  11.610
32797W        W 5123  31.928  20.105   1.368
32798W        W 5124  21.076   9.816  14.314
32799W        W 5125  29.110  30.984  11.005
32800W        W 5126  32.524  37.555  14.962
32801W        W 5127   0.285   8.332  10.489
32802W        W 5128   0.951  33.076  14.930
32803W        W 5129  37.422   7.170   2.212
32804W        W 5130  14.223  44.361  11.514
32805W        W 5131   1.870  21.074  10.044
32806W        W 5132  15.085  39.983  11.457
32807W        W 5133  44.949   0.386  14.433
32808W        W 5134   4.210   9.281  13.311
32809W        W 5135  18.094  23.567  11.115
32810W        W 5136  40.884  29.146   2.892
32811W        W 5137  36.008  19.711   1.211
32812W        W 5138  20.088  26.985   0.949
32813W        W 5139  26.202  24.055  14.922
32814W        W 5140   3.815  28.670   4.295
32815W        W 5141  37.361  33.887  11.395
32816W        W 5142   3.229  10.842   2.814
32817W        W 5143  44.865  33.078   3.644
32818W        W 5144  43.000  23.639   4.206
32819W        W 5145   4.350  40.809   2.285
32820W        W 5146  33.936  12.785   1.895
32821W        W 5147  10.147   0.324  10.457
32822W        W 5148  13.757  11.628   3.269
32823W        W 5149  28.625   7.174   1.831
32824W        W 5150   2.893  14.743  14.454
32825W        W 5151   2.721   2.232  12.406
32826W        W 5152   8.823   5.866  13.981
32827W        W 5153  31.466  31.421  10.989
32828W        W 5154  31.987  35.886  10.640
32829W        W 5155  38.901  43.817   2.186
32830W        W 5156   4.441  39.057   1.766
32831W        W 5157  33.593  11.248   4.335
32832W        W 5158  26.698  28.450   2.867
32833W        W 5159  28.605  11.128   0.863
32834W        W 5160  28.045  39.967  11.520
32835W        W 5161  22.136   1.926  13.893
32836W        W 5162  29.627  22.227  11.432
32837W        W 5163  26.504  20.612   1.421
32838W        W 5164  41.035  10.701  14.851
32839W        W 5165  37.943   5.262   3.194
32840W        W 5166  25.039  27.083   1.845
32841W        W 5167  37.528  15.297   2.686
32842W        W 5168  12.669  18.720   0.842
32843W        W 5169   7.735   3.322  11.024
32844W        W 5170  31.567   1.345   2.256
32845W        W 5171   5.256   1.814   2.807
32846W        W 5172  42.925  26.196  13.541
32847W        W 5173  25.491  19.557  13.904
32848W        W 5174  35.950  44.954   4.802
32849W        W 5175  19.742  24.571   1.299
32850W        W 5176  37.451  17.731   3.730
32851W        W 5177  14.682   1.447  12.877
32852W        W 5178  18.108  34.957   1.924
32853W        W 5179   1.308   2.468  14.779
32854W        W 5180  10.221  16.730  13.536
32855W        W 5181  14.762  13.652  12.352
32856W        W 5182  16.629  21.027   4.308
32857W        W 5183  10.337   0.259  13.318
32858W        W 5184  28.069  34.870  10.953
32859W        W 5185  39.836  24.197   2.709
32860W        W 5186   8.375   8.222   1.702
32861W        W 5187  19.546  13.781   3.792
32862W        W 5188  27.472  22.083  14.023
32863W        W 5189  16.712  29.968   2.869
32864W        W 5190  42.397  19.623   0.930
32865W        W 5191  20.243  31.943  11.602
32866W        W 5192  15.766  44.352   4.784
32867W        W 5193  44.892  24.160   2.392
32868W        W 5194   3.712  43.396   4.175
32869W        W 5195  36.949  13.702  10.005
32870W        W 5196  36.085  44.760  14.951
32871W        W 5197  17.296   3.786   3.650
32872W        W 5198  12.724  19.129  13.924
32873W        W 5199  31.564   7.325  14.839
32874W        W 5200   3.335  13.174  14.980
32875W        W 5201  38.330   3.271  11.384
32876W        W 5202  34.931  16.736  12.090
32877W        W 5203   4.931   5.774  12.888
32878W        W 5204  38.890  15.618  11.500
32879W        W 5205  38.018  12.776  10.061
32880W        W 5206  17.278  26.138   2.236
32881W        W 5207  12.214   4.449  13.888
32882W        W 5208  29.029  23.508  12.504
32883W        W 5209  33.564   9.257   3.834
32884W        W 5210  27.670  29.531   4.653
32885W        W 5211  24.151  23.223  10.936
32886W        W 5212  21.571  19.196  11.552
32887W        W 5213  41.824  12.142   0.784
32888W        W 5214  18.178  10.818  12.844
32889W        W 5215  33.087  36.432   0.402
32890W        W 5216  33.495  33.436  14.393
32891W        W 5217   6.229   8.174   2.300
32892W        W 5218  32.059   0.459  10.440
32893W        W 5219  14.772  33.118   0.346
32894W        W 5220   1.767   1.363  12.464
32895W        W 5221  15.247  27.075   0.271
32896W        W 5222  36.388  14.747   3.317
32897W        W 5223   6.367  12.794  14.869
32898W        W 5224   7.185  27.638  12.408
32899W        W 5225   6.801  38.327   0.480
32900W        W 5226  26.136  38.551  13.888
32901W        W 5227  33.094  20.748   0.767
32902W        W 5228  23.112  34.401   4.168
32903W        W 5229  39.934  11.682  11.451
32904W        W 5230  22.674   6.243  14.501
32905W        W 5231  15.178  42.491  14.018
32906W        W 5232  27.062  25.610  12.343
32907W        W 5233  36.423   2.841   2.709
32908W        W 5234  17.610  14.768   4.332
32909W        W 5235   7.910  38.023  11.483
32910W        W 5236   6.214  25.631   3.204
32911W        W 5237   0.468  22.625  13.434
32912W        W 5238  44.395  28.021  13.413
32913W        W 5239   9.351  23.713   3.299
32914W        W 5240  29.575  41.816  13.929
32915W        W 5241   3.755  27.054   4.166
32916W        W 5242   2.867  20.070   2.737
32917W        W 5243  19.673   4.209   4.321
32918W        W 5244  13.825  19.733   3.829
32919W        W 5245  24.608  31.032  11.107
32920W        W 5246  36.479  10.167   0.267
32921W        W 5247   2.447  27.133   4.260
32922W        W 5248   4.448  31.638   0.299
32923W        W 5249  24.002   9.670   1.858
32924W        W 5250  35.897   9.310  11.568
32925W        W 5251  23.153  34.893   4.823
32926W        W 5252  21.607  35.029   4.701
32927W        W 5253  10.857  26.967  10.955
32928W        W 5254  35.540   2.962  14.376
32929W        W 5255  44.499   7.184  10.622
32930W        W 5256   8.278  22.660   4.731
32931W        W 5257   7.905  31.142   2.726
32932W        W 5258  27.466  17.129   0.401
32933W        W 5259  27.019  16.578  10.523
32934W        W 5260  34.519  22.245  11.945
32935W        W 5261  20.075  40.525   4.353
32936W        W 5262  27.995  31.566   3.230
32937W        W 5263   7.683  18.143   0.294
32938W        W 5264   8.679  11.816   1.851
32939W        W 5265  40.850  34.933   1.417
32940W        W 5266  39.520  28.039  11.009
32941W        W 5267  13.299  35.093   1.418
32942W        W 5268  12.219   7.903  13.317
32943W        W 5269  24.674   2.908  10.473
32944W        W 5270   9.826  15.231  13.890
32945W        W 5271  40.382  38.485   1.277
32946W        W 5272  11.805  25.076   1.808
32947W        W 5273   9.804  31.126  10.515
32948W        W 5274   1.786   3.453   4.300
32949W        W 5275  25.617  37.533  13.039
32950W        W 5276  14.788  42.294   4.121
32951W        W 5277  20.755  22.027  11.452
32952W        W 5278   6.188  34.086  11.430
32953W        W 5279  41.493   4.800   3.280
32954W        W 5280  39.005  23.992   0.433
32955W        W 5281   1.816   2.783  14.028
32956W        W 5282  40.479  33.610  11.016
32957W        W 5283   4.291  11.361   4.181
32958W        W 5284  41.359  42.519   0.271
32959W        W 5285  42.425  37.429  14.918
32960W        W 5286  43.377  23.077   4.682
32961W        W 5287  37.932  43.805  13.481
32962W        W 5288  33.489  36.970   2.880
32963W        W 5289  39.475  30.579   2.299
32964W        W 5290  29.046  20.757   1.825
32965W        W 5291  29.609   8.744  13.944
32966W        W 5292  14.818  22.018   3.634
32967W        W 5293  40.026  38.350  14.437
32968W        W 5294   0.402  17.073   0.800
32969W        W 5295  11.626   8.389   4.166
32970W        W 5296  28.123  20.615  12.094
32971W        W 5297  19.193  44.408  11.612
32972W        W 5298   1.751  33.899  14.867
32973W        W 5299  38.854   6.247  12.893
32974W        W 5300  37.009  22.029  12.960
32975W        W 5301  32.992  25.491  10.940
32976W        W 5302  16.195  22.734   4.628
32977W        W 5303  32.942  10.836   3.248
32978W        W 5304  30.996   9.857  12.541
32979W        W 5305  33.122   2.789  10.426
32980W        W 5306   8.306  17.276  10.516
32981W        W 5307  27.105  11.155   1.239
32982W        W 5308  31.536  19.599  11.456
32983W        W 5309  44.880   1.259  12.068
32984W        W 5310  22.571  44.332   4.196
32985W        W 5311   0.480  26.005  12.836
32986W        W 5312   0.417  29.499   1.367
32987W        W 5313  36.886   6.776   2.413
32988W        W 5314  13.827  40.016   4.350
32989W        W 5315  27.659  29.164   1.340
32990W        W 5316   8.718  44.844   2.690
32991W        W 5317  37.556   6.875  12.441
32992W        W 5318  17.257  30.992  14.844
32993W        W 5319  19.689   6.910  10.446
32994W        W 5320  42.362   1.336   0.864
32995W        W 5321  40.373  18.571   1.828
32996W        W 5322  43.775  36.047   4.230
32997W        W 5323   8.344  20.043   1.727
32998W        W 5324   4.730  44.286  13.447
32999W        W 5325   1.957  15.625   4.683
33000W        W 5326  19.147   7.212  12.002
33001W        W 5327  24.657  15.780  12.481
33002W        W 5328  13.788   9.210  12.530
33003W        W 5329   1.430  18.148  14.820
33004W        W 5330  32.023  23.050  13.054
33005W        W 5331  13.751  16.759   2.772
33006W        W 5332   6.215  39.889   0.287
33007W        W 5333  39.334  16.801   4.292
33008W        W 5334  20.193  29.498  14.279
33009W        W 5335   1.775   3.225  11.408
33010W        W 5336   0.747  17.198  12.841
33011W        W 5337  24.030   2.360   1.316
33012W        W 5338   4.784   5.766   4.199
33013W        W 5339  15.184  22.611   3.301
33014W        W 5340  32.910  34.058   4.122
33015W        W 5341  20.594  19.743   4.709
33016W        W 5342  37.506   2.810  10.912
33017W        W 5343  23.515  28.994  10.615
33018W        W 5344  34.420   8.727  12.380
33019W        W 5345  18.120   7.782   0.245
33020W        W 5346  37.535  10.640   2.314
33021W        W 5347  24.156   7.174  12.385
33022W        W 5348  40.351  30.994  12.934
33023W        W 5349   8.819  16.613   0.321
33024W        W 5350   4.353  30.057  14.405
33025W        W 5351   0.412  14.099  11.997
33026W        W 5352  43.335  14.301  11.109
33027W        W 5353  42.963   7.218  12.895
33028W        W 5354  31.617  39.007  13.932
33029W        W 5355  30.131  30.957  11.935
33030W        W 5356   2.882  20.567  11.417
33031W        W 5357  10.677  16.573  13.924
33032W        W 5358  27.650  38.926  14.762
33033W        W 5359  40.417  37.012  12.898
33034W        W 5360  24.547  23.180  13.319
33035W        W 5361  21.138   5.723   1.916
33036W        W 5362   9.870  10.297   1.810
33037W        W 5363  44.926  38.912   4.248
33038W        W 5364  30.954  29.433   0.867
33039W        W 5365   0.953  26.540   1.286
33040W        W 5366   1.909  16.748   0.956
33041W        W 5367  34.990  16.274   2.813
33042W        W 5368  22.042  38.991   2.670
33043W        W 5369  19.554  29.994   2.742
33044W        W 5370  20.700  41.419   4.646
33045W        W 5371   8.871  44.782   0.474
33046W        W 5372   4.385   7.295   1.398
33047W        W 5373  38.483  23.122  10.971
33048W        W 5374   1.785  20.271   0.277
33049W        W 5375  14.621  24.657  11.105
33050W        W 5376   8.221  10.356  12.552
33051W        W 5377   5.813   4.285   3.717
33052W        W 5378  12.809  19.086   2.342
33053W        W 5379   6.182  38.513  10.538
33054W        W 5380  18.645   2.407  12.345
33055W        W 5381  36.080  10.367  14.938
33056W        W 5382  26.696  40.037  10.529
33057W        W 5383  23.995   3.913   2.813
33058W        W 5384  29.457  43.365   1.831
33059W        W 5385  20.533  22.728  13.915
33060W        W 5386  30.627  13.215   0.453
33061W        W 5387  40.030  17.155   1.218
33062W        W 5388  34.611  27.955   2.319
33063W        W 5389  25.560  30.934  11.095
33064W        W 5390  42.877   4.914  14.849
33065W        W 5391  24.172  28.598  10.974
33066W        W 5392  24.631  26.999  12.446
33067W        W 5393  35.561   0.267  14.921
33068W        W 5394  40.339  39.420  13.025
33069W        W 5395  14.103  16.195  14.815
33070W        W 5396   0.260  39.017  14.011
33071W        W 5397   0.424   7.248   1.282
33072W        W 5398  39.920   8.243  10.905
33073W        W 5399  29.659   7.354  12.096
33074W        W 5400  14.790  43.286   2.400
33075W        W 5401  42.313  13.171   1.388
33076W        W 5402   2.884  20.582   9.505
33077W        W 5403   7.877  43.808   1.270
33078W        W 5404  14.744   6.831   0.845
33079W        W 5405  36.447  29.133  12.484
33080W        W 5406  30.415  34.479   3.862
33081W        W 5407  22.191  43.018  11.937
33082W        W 5408  16.645   8.246  13.980
33083W        W 5409   2.750  10.691   4.627
33084W        W 5410   1.274  26.133  13.013
33085W        W 5411   9.358  33.090   1.835
33086W        W 5412  11.755  12.838  10.061
33087W        W 5413  31.497  28.966  10.505
33088W        W 5414  19.102  27.665  10.985
33089W        W 5415  38.053   4.233   4.651
33090W        W 5416   3.938   2.949   2.241
33091W        W 5417  23.014  38.017   2.390
33092W        W 5418   4.847  20.712  12.042
33093W        W 5419  24.194  17.269   2.377
33094W        W 5420   9.761  42.514   1.898
33095W        W 5421  44.448   5.271  11.931
33096W        W 5422  18.645  16.260   2.679
33097W        W 5423   8.356  19.046  14.928
33098W        W 5424  18.219  35.076  14.514
33099W        W 5425   6.705   7.750  13.998
33100W        W 5426  11.359  16.653  10.998
33101W        W 5427  36.002  24.057   4.231
33102W        W 5428  30.160  44.314  12.444
33103W        W 5429  36.418   2.910  13.879
33104W        W 5430  37.036  36.453   4.709
33105W        W 5431   0.746   5.311   1.277
33106W        W 5432  34.458  23.550  14.891
33107W        W 5433  25.612   4.906   0.450
33108W        W 5434   5.344  26.570   2.339
33109W        W 5435   2.465  26.042   3.333
33110W        W 5436  20.621  12.736  11.943
33111W        W 5437  36.075   5.309  11.891
33112W        W 5438  44.476  24.982   1.382
33113W        W 5439  14.162  40.025  14.956
33114W        W 5440  10.847  35.578  11.524
33115W        W 5441  36.022  30.988   0.729
33116W        W 5442  27.167  15.727  14.347
33117W        W 5443  43.935  40.979  12.079
33118W        W 5444  14.655   3.247   1.271
33119W        W 5445  37.875  39.376   3.177
33120W        W 5446  21.104   3.226  10.596
33121W        W 5447  42.903   8.786   3.162
33122W        W 5448  29.440  28.556   2.773
33123W        W 5449  17.714   7.892   1.255
33124W        W 5450  33.036  19.253  11.119
33125W        W 5451   3.410  25.087  12.030
33126W        W 5452  23.509  15.742   3.794
33127W        W 5453   3.319  44.274   0.308
33128W        W 5454  28.031  15.116  11.119
33129W        W 5455  18.770  25.193   1.303
33130W        W 5456  27.951  19.608   1.717
33131W        W 5457  16.192  34.077  12.024
33132W        W 5458  30.659  43.308  13.013
33133W        W 5459   6.229  29.663   0.468
33134W        W 5460  17.592  10.266   2.405
33135W        W 5461  26.527   4.370   2.285
33136W        W 5462  34.087  42.467   3.797
33137W        W 5463  12.727  16.245  11.435
33138W        W 5464  26.964  36.993  13.983
33139W        W 5465  35.947  28.653  13.359
33140W        W 5466  10.380  11.252  10.459
33141W        W 5467   6.811  16.305   1.280
33142W        W 5468   6.862  44.439  13.352
33143W        W 5469  10.160  37.554  13.406
33144W        W 5470  32.999  40.916   1.308
33145W        W 5471  26.539  44.350   1.242
33146W        W 5472  20.030  13.725   0.761
33147W        W 5473  35.107  35.953   3.807
33148W        W 5474   0.382  18.291   1.273
33149W        W 5475  43.277  27.446  14.958
33150W        W 5476   1.353   4.933   4.211
33151W        W 5477  21.744  38.962   5.598
33152W        W 5478   1.964   8.325  13.801
33153W        W 5479  18.742  15.602  12.530
33154W        W 5480  32.466   3.310  10.983
33155W        W 5481  36.579  26.198  10.964
33156W        W 5482   7.828  19.085   4.216
33157W        W 5483   4.298  25.153  11.981
33158W        W 5484  13.687   3.846  10.574
33159W        W 5485  14.295  20.730  13.864
33160W        W 5486   7.230  38.549   2.770
33161W        W 5487  35.478  37.961  14.963
33162W        W 5488   8.205   8.189  14.946
33163W        W 5489  30.499  27.524  11.579
33164W        W 5490  24.106  15.705  14.989
33165W        W 5491  29.000   0.257  10.949
33166W        W 5492  29.480  30.633   0.273
33167W        W 5493  30.595  16.223  10.545
33168W        W 5494  23.993  29.052  10.030
33169W        W 5495  26.526   8.860  12.002
33170W        W 5496  10.856  24.539   4.623
33171W        W 5497   5.336   2.458   3.236
33172W        W 5498  26.487  20.562   2.405
33173W        W 5499  35.473  22.129   3.711
33174W        W 5500  43.415  42.335   2.418
33175W        W 5501  12.734  25.124  10.901
33176W        W 5502  44.407  40.524  14.853
33177W        W 5503  14.146  40.327  11.579
33178W        W 5504  18.138   5.745  12.999
33179W        W 5505  37.027  13.263   2.238
33180W        W 5506  39.394   9.278   0.795
33181W        W 5507  23.200  28.146  12.885
33182W        W 5508  18.634  35.988   1.373
33183W        W 5509  25.552  34.474  13.500
33184W        W 5510  28.514  11.653  13.995
33185W        W 5511  21.128  44.895  14.853
33186W        W 5512  16.600  18.234   2.370
33187W        W 5513  27.964   9.281  11.896
33188W        W 5514  44.785   2.779   4.350
33189W        W 5515  26.029  11.698  12.034
33190W        W 5516  10.659  40.023   3.786
33191W        W 5517  43.981  15.708  12.353
33192W        W 5518  41.826  35.553  14.924
33193W        W 5519  16.774  18.256  13.025
33194W        W 5520  25.499  22.111  12.023
33195W        W 5521  28.506   3.278   5.177
33196W        W 5522  13.789  29.593   4.151
33197W        W 5523   9.182  32.514   4.746
33198W        W 5524   1.765  29.657  12.521
33199W        W 5525  10.338  27.626  14.817
33200W        W 5526  26.107   9.165   4.180
33201W        W 5527  20.154   3.741   1.388
33202W        W 5528  26.131  41.496  14.407
33203W        W 5529   0.296  10.664   5.221
33204W        W 5530  43.829  35.910  13.981
33205W        W 5531  33.001   8.732   4.142
33206W        W 5532  11.638  25.671   1.358
33207W        W 5533   3.774  33.985   4.278
33208W        W 5534  14.822   6.831   1.861
33209W        W 5535  34.982  11.799   5.198
33210W        W 5536  25.962  20.248   3.225
33211W        W 5537  24.672  21.124  13.878
33212W        W 5538  32.540   5.358  12.926
33213W        W 5539  23.724  39.948  11.069
33214W        W 5540  12.144  21.657  14.955
33215W        W 5541   7.717  41.455   1.408
33216W        W 5542  39.391   2.448  14.969
33217W        W 5543   3.882  36.918  12.440
33218W        W 5544   8.851   2.237   1.930
33219W        W 5545  21.148   3.944  14.859
33220W        W 5546  27.585  39.046   4.158
33221W        W 5547  39.028  18.274  11.908
33222W        W 5548  43.493   1.458  12.946
33223W        W 5549  26.124  21.214   5.121
33224W        W 5550   9.277  44.333  10.987
33225W        W 5551  14.104   4.439   0.342
33226W        W 5552   0.934   5.752   4.272
33227W        W 5553   0.956  44.419  11.378
33228W        W 5554   6.781   4.929   1.342
33229W        W 5555  17.248  13.243  12.888
33230W        W 5556  20.626  21.150  14.461
33231W        W 5557  27.166   9.748  13.007
33232W        W 5558   7.756  18.207   3.146
33233W        W 5559  40.833   6.185   2.194
33234W        W 5560  13.109   4.272   2.764
33235W        W 5561  32.101   0.326   1.381
33236W        W 5562  42.370   7.321   2.889
33237W        W 5563   6.296  27.686   2.809
33238W        W 5564  11.271   7.743  10.480
33239W        W 5565  33.496  34.884   1.379
33240W        W 5566  23.581  18.190   9.967
33241W        W 5567  27.463  17.086   2.314
33242W        W 5568  10.202   9.650   1.700
33243W        W 5569  22.622  16.666   0.876
33244W        W 5570  32.567  12.309   2.865
33245W        W 5571  29.611  23.505   0.845
33246W        W 5572  41.505  33.052  14.290
33247W        W 5573  27.016  14.747   1.447
33248W        W 5574   8.673  40.015  12.910
33249W        W 5575  33.395  28.496  14.948
33250W        W 5576  40.525  27.628  12.049
33251W        W 5577  12.319  30.419  13.028
33252W        W 5578  32.606  17.750   3.373
33253W        W 5579  36.521   0.285  14.344
33254W        W 5580  13.680  22.567  14.391
33255W        W 5581   0.290  40.051  12.873
33256W        W 5582  17.777  34.938   4.144
33257W        W 5583  13.844  36.865  10.618
33258W        W 5584  30.990  11.313  12.529
33259W        W 5585  18.106   1.878  10.427
33260W        W 5586   7.363  16.191  14.461
33261W        W 5587  10.181  43.773   5.254
33262W        W 5588  19.746  13.725   2.749
33263W        W 5589  28.114  19.653   0.915
33264W        W 5590  34.955   5.307  11.384
33265W        W 5591  30.139  16.173  11.116
33266W        W 5592  38.440  12.139   1.234
33267W        W 5593  17.260  38.873   2.849
33268W        W 5594  10.168   3.359  11.465
33269W        W 5595  41.303   9.167   3.693
33270W        W 5596   2.858  25.550  11.478
33271W        W 5597   1.964  14.198   0.329
33272W        W 5598  16.243  16.294  11.998
33273W        W 5599  15.169  32.611  13.933
33274W        W 5600   1.779  42.777  11.904
33275W        W 5601  41.439  34.981  13.860
33276W        W 5602  20.738  44.464  12.342
33277W        W 5603  31.497  35.382  14.013
33278W        W 5604  39.473  27.640  13.482
33279W        W 5605  26.498   7.341   3.763
33280W        W 5606   1.316  16.221   1.305
33281W        W 5607  25.059  17.675   0.398
33282W        W 5608  13.609  22.718  11.938
33283W        W 5609   6.729  13.839  13.321
33284W        W 5610  43.460  12.688  12.379
33285W        W 5611  38.931  41.475  11.033
33286W        W 5612  32.130  15.658  13.964
33287W        W 5613  20.049  25.635   1.240
33288W        W 5614   3.445  27.077  11.902
33289W        W 5615  30.137  43.271  10.997
33290W        W 5616  17.704  25.072  10.950
33291W        W 5617  37.941  10.373   3.325
33292W        W 5618  11.737  38.873  12.403
33293W        W 5619  14.669   0.806  14.906
33294W        W 5620   6.321  13.816   1.282
33295W        W 5621  17.243  23.165  14.315
33296W        W 5622   3.413  31.126  11.426
33297W        W 5623  36.463   2.338   2.679
33298W        W 5624  43.381  27.943   2.365
33299W        W 5625  24.668  36.877  13.808
33300W        W 5626  42.986  31.079  11.590
33301W        W 5627  20.196  27.619  13.836
33302W        W 5628  44.798   5.828  10.565
33303W        W 5629  39.980   8.298  14.446
33304W        W 5630  44.288  18.772   1.761
33305W        W 5631   6.746  35.459  12.454
33306W        W 5632  42.328  17.780   4.229
33307W        W 5633  20.572  12.847   3.869
33308W        W 5634   5.234   2.445  14.369
33309W        W 5635  13.191   6.703   1.307
33310W        W 5636   5.748  17.704   1.862
33311W        W 5637  34.923  33.018  13.340
33312W        W 5638  31.615  14.122  10.612
33313W        W 5639   8.350  11.804   1.414
33314W        W 5640  24.987  21.740   1.907
33315W        W 5641  20.595   4.320  12.406
33316W        W 5642  41.017  36.912  13.914
33317W        W 5643   2.732  14.231  12.554
33318W        W 5644  40.013  25.129  13.051
33319W        W 5645  21.239  36.900  11.883
33320W        W 5646  23.570  12.276   0.729
33321W        W 5647  26.694  35.414   4.642
33322W        W 5648  30.153  19.107  12.909
33323W        W 5649  16.082  29.921   0.939
33324W        W 5650   4.735  42.960   2.194
33325W        W 5651  24.541  35.962  12.059
33326W        W 5652  19.275  10.243   3.171
33327W        W 5653  27.958   1.779   3.280
33328W        W 5654  18.549  28.513   2.306
33329W        W 5655  23.555   0.466  12.946
33330W        W 5656  42.792  21.622  11.980
33331W        W 5657  37.555  38.008  14.429
33332W        W 5658   8.721  39.518   0.831
33333W        W 5659  31.916   1.260  14.913
33334W        W 5660   2.943   4.347  11.909
33335W        W 5661  35.917  36.088  10.489
33336W        W 5662  14.300  22.667   1.428
33337W        W 5663  44.462  36.955  10.432
33338W        W 5664  18.610  28.042  10.564
33339W        W 5665  30.150  21.558  11.424
33340W        W 5666  34.983  40.326  14.456
33341W        W 5667  38.477  31.476  11.484
33342W        W 5668  43.435  14.157  11.916
33343W        W 5669  42.392   9.848   2.734
33344W        W 5670  25.212  19.115  13.833
33345W        W 5671  41.946  32.586   4.288
33346W        W 5672  43.411   9.316  13.362
33347W        W 5673  23.096  28.991   3.341
33348W        W 5674  17.638   9.806   0.269
33349W        W 5675  42.909  14.097   4.622
33350W        W 5676  17.742  32.402   4.643
33351W        W 5677  17.187  22.737  12.547
33352W        W 5678   8.248   5.270  13.867
33353W        W 5679   1.428   5.253   1.697
33354W        W 5680  36.048  33.397  13.958
33355W        W 5681  37.063   7.229   4.323
33356W        W 5682  27.627  13.119  12.347
33357W        W 5683  32.573  42.881   4.142
33358W        W 5684   1.352  15.665  14.394
33359W        W 5685  17.146  29.502  14.509
33360W        W 5686   4.427  14.641   4.771
33361W        W 5687  29.089  25.134  13.430
33362W        W 5688  24.517   1.456   0.760
33363W        W 5689  12.123  20.633   2.376
33364W        W 5690  32.044  17.589  12.867
33365W        W 5691  14.598  26.574   3.797
33366W        W 5692  38.407  13.639   3.871
33367W        W 5693  23.601  13.129   4.354
33368W        W 5694  21.038  33.526  12.075
33369W        W 5695  33.495  40.896   0.932
33370W        W 5696  16.309  31.036  13.947
33371W        W 5697  25.588  33.939  14.473
33372W        W 5698   1.743  25.103   3.202
33373W        W 5699  24.480  40.304   2.333
33374W        W 5700  41.833  20.135  10.905
33375W        W 5701  14.631  19.731  13.373
33376W        W 5702  15.219  21.137  11.509
33377W        W 5703  39.886  38.978  12.088
33378W        W 5704  17.798  36.896  12.547
33379W        W 5705  27.588  22.212  12.411
33380W        W 5706  20.163  19.724   0.283
33381W        W 5707  18.070   4.763   3.644
33382W        W 5708  44.957  15.602  13.914
33383W        W 5709  23.196  44.288   9.930
33384W        W 5710  10.228  32.993  11.911
33385W        W 5711   1.351  10.644   2.326
33386W        W 5712  23.208  32.474  10.590
33387W        W 5713   3.946  30.125   4.296
33388W        W 5714  28.556   1.270   2.296
33389W        W 5715  14.790   6.380  11.500
33390W        W 5716  44.970  12.728  12.086
33391W        W 5717  37.959  24.058   1.694
33392W        W 5718  28.463  15.131  10.406
33393W        W 5719  12.678  28.453   1.870
33394W        W 5720  26.078   0.471   0.785
33395W        W 5721  23.167   1.467   4.696
33396W        W 5722  24.699   6.884  14.294
33397W        W 5723  37.087  25.151   0.812
33398W        W 5724   1.895  42.464   4.254
33399W        W 5725  37.434   7.315   4.330
33400W        W 5726   3.322   1.802   0.374
33401W        W 5727  32.075   2.791  11.021
33402W        W 5728   6.841   8.169   0.874
33403W        W 5729  17.061   7.205   2.842
33404W        W 5730  31.917  19.657  13.928
33405W        W 5731  42.796   0.870  14.875
33406W        W 5732  14.783   2.408  11.578
33407W        W 5733   0.249  44.338   2.813
33408W        W 5734  25.050  24.054  11.906
33409W        W 5735   6.286  28.082  10.605
33410W        W 5736  18.727  36.848   3.342
33411W        W 5737  32.021  28.029   1.842
33412W        W 5738  33.073  38.880  13.418
33413W        W 5739   6.190   1.476   0.948
33414W        W 5740  20.671  10.240   2.827
33415W        W 5741  15.749  21.569  12.360
33416W        W 5742  31.645  27.626  14.499
33417W        W 5743   2.924   1.397  14.480
33418W        W 5744  13.830  25.593   0.779
33419W        W 5745  12.277  20.757  11.530
33420W        W 5746  25.513  35.006   1.351
33421W        W 5747  21.643  12.154   4.272
33422W        W 5748  30.988  42.317  14.400
33423W        W 5749  35.437   6.419   0.398
33424W        W 5750   0.255   3.242   2.763
33425W        W 5751   1.251  25.158  12.557
33426W        W 5752  24.110  23.173   4.354
33427W        W 5753  22.155   7.227  13.473
33428W        W 5754  21.200  13.726  11.973
33429W        W 5755  39.362   0.280   3.632
33430W        W 5756   5.773  35.396  13.840
33431W        W 5757   7.233  14.302  11.071
33432W        W 5758  29.966  30.960   0.341
33433W        W 5759   3.745   3.830   5.209
33434W        W 5760  33.105   2.244   3.755
33435W        W 5761  32.086  23.219   3.693
33436W        W 5762  23.074  29.533  12.527
33437W        W 5763  19.750  15.232  14.932
33438W        W 5764  15.186  39.317  12.982
33439W        W 5765  28.489  41.486  12.386
33440W        W 5766   3.714  19.171   4.717
33441W        W 5767  32.993   7.722   2.685
33442W        W 5768   2.895  43.320  14.960
33443W        W 5769  20.606  28.138   4.354
33444W        W 5770  20.134  31.019   0.882
33445W        W 5771  30.466  31.493   4.795
33446W        W 5772  14.106  11.253  10.612
33447W        W 5773  24.709  38.420   4.243
33448W        W 5774   5.833  17.778   2.365
33449W        W 5775  12.736  15.795  10.422
33450W        W 5776   4.349  21.629   3.728
33451W        W 5777   1.800  40.328  14.395
33452W        W 5778  41.892   5.713  13.403
33453W        W 5779  18.604   5.694   2.710
33454W        W 5780   2.748  21.648   0.388
33455W        W 5781  42.497  16.224   4.160
33456W        W 5782   1.840   0.902  13.519
33457W        W 5783  42.026   3.833  10.943
33458W        W 5784  18.264   3.898  13.059
33459W        W 5785   1.455  12.769  11.469
33460W        W 5786   3.461  17.143  11.855
33461W        W 5787  36.989  20.600   3.315
33462W        W 5788  44.936   4.249   0.243
33463W        W 5789  38.444   7.788   3.701
33464W        W 5790  44.266  13.659  14.966
33465W        W 5791  24.031  23.078   1.727
33466W        W 5792  25.999  35.421  10.903
33467W        W 5793  19.545   4.256   1.384
33468W        W 5794   2.963  35.564  13.372
33469W        W 5795  32.894  42.373   3.281
33470W        W 5796  35.046  36.924  10.403
33471W        W 5797  43.872  41.008  10.940
33472W        W 5798  11.261  12.823  10.542
33473W        W 5799   7.187  18.295  13.994
33474W        W 5800  31.415  25.016   1.288
33475W        W 5801   0.478  21.127   4.733
33476W        W 5802  32.440  38.968  10.112
33477W        W 5803   9.348  42.434   4.317
33478W        W 5804  38.546  12.775   9.937
33479W        W 5805  23.094   0.903   0.270
33480W        W 5806  44.875  12.144   0.297
33481W        W 5807  30.452  14.703   0.870
33482W        W 5808  16.281  21.084  12.445
33483W        W 5809  42.872  44.450   2.679
33484W        W 5810  24.612   7.195   0.869
33485W        W 5811  25.211  28.478  12.340
33486W        W 5812  32.487  29.156   3.649
33487W        W 5813  36.047   5.759   1.760
33488W        W 5814  37.580   6.747   4.716
33489W        W 5815  30.044  30.113   1.920
33490W        W 5816  30.156  13.761  14.900
33491W        W 5817  32.396  10.675   1.879
33492W        W 5818   5.272  18.684   0.412
33493W        W 5819  25.114  20.227   3.254
33494W        W 5820  27.566   8.231  11.515
33495W        W 5821   3.952  20.575  11.091
33496W        W 5822   0.291   6.309  12.011
33497W        W 5823   2.288  34.956  12.486
33498W        W 5824  35.107  11.773  12.495
33499W        W 5825   7.294  38.005   1.336
33500W        W 5826  43.376  34.099   0.808
33501W        W 5827  30.942  32.408   4.702
33502W        W 5828  25.478   1.479  10.588
33503W        W 5829  15.278  24.981   0.248
33504W        W 5830   7.416  35.944   0.882
33505W        W 5831  37.973  29.571  11.524
33506W        W 5832  22.690  33.624   2.390
33507W        W 5833  31.622   9.740   0.321
33508W        W 5834   0.374  21.152  14.898
33509W        W 5835   3.266  35.918   4.671
33510W        W 5836  15.699   7.263  14.398
33511W        W 5837  35.993  40.327  11.942
33512W        W 5838  28.116   9.777   1.741
33513W        W 5839  42.977  11.844   5.207
33514W        W 5840   7.741  15.253  13.031
33515W        W 5841  23.023   8.887   3.149
33516W        W 5842  11.189   2.395  11.412
33517W        W 5843  13.722  31.148   4.296
33518W        W 5844   2.816   1.737  14.402
33519W        W 5845  30.621  44.381   2.766
33520W        W 5846   3.227  25.985   2.780
33521W        W 5847  34.435  41.514   4.199
33522W        W 5848   9.776   1.900  12.827
33523W        W 5849  32.606  11.178  13.906
33524W        W 5850   4.724  26.146   3.704
33525W        W 5851  37.484  42.441  11.981
33526W        W 5852  39.867  44.793   3.705
33527W        W 5853  42.435  11.760  14.860
33528W        W 5854  44.824  29.660  11.481
33529W        W 5855   8.826   3.953  12.895
33530W        W 5856  33.573  26.955   1.750
33531W        W 5857   5.255   2.441   3.686
33532W        W 5858  19.054  22.007  11.550
33533W        W 5859  13.742   7.861   1.733
33534W        W 5860  28.092   2.780  12.413
33535W        W 5861   8.817   6.734   2.354
33536W        W 5862   4.363  24.719  12.411
33537W        W 5863  40.003   7.261  13.391
33538W        W 5864  40.035   8.680   0.870
33539W        W 5865  28.969  34.118  13.428
33540W        W 5866  34.982  36.433   3.678
33541W        W 5867   8.813  29.605  10.949
33542W        W 5868  37.472  27.011   1.898
33543W        W 5869  19.137   5.888  10.971
33544W        W 5870  40.923  18.562   4.833
33545W        W 5871  25.479  36.411  14.373
33546W        W 5872  12.263  34.872  13.036
33547W        W 5873  18.715  25.013  10.410
33548W        W 5874  29.989  42.975  10.613
33549W        W 5875   7.813  31.621  11.876
33550W        W 5876  35.378  29.551  14.983
33551W        W 5877  43.936  17.097   3.371
33552W        W 5878  13.786  19.264  14.438
33553W        W 5879  35.550  27.989   4.633
33554W        W 5880   2.782  24.652  12.844
33555W        W 5881  22.131   5.922   2.700
33556W        W 5882  24.719  18.746   5.146
33557W        W 5883  19.756  39.527  12.361
33558W        W 5884  28.933  12.633   0.933
33559W        W 5885   0.483   8.888   4.639
33560W        W 5886  10.317  42.456  10.548
33561W        W 5887  44.954  17.260  11.017
33562W        W 5888  24.599  29.019   0.417
33563W        W 5889  36.069  29.083   2.828
33564W        W 5890  11.352  40.360   0.822
33565W        W 5891  31.604  21.093   3.671
33566W        W 5892   6.692  32.407  11.937
33567W        W 5893  22.583  18.755  12.365
33568W        W 5894  24.519   8.202   4.730
33569W        W 5895  15.814  44.996   1.920
33570W        W 5896  36.954  38.904   0.846
33571W        W 5897   6.187  37.055   2.751
33572W        W 5898  40.456  23.572  14.333
33573W        W 5899  22.019  18.077  12.078
33574W        W 5900   0.857  27.105   2.830
33575W        W 5901   7.373  21.153  12.521
33576W        W 5902  14.817  34.498   2.872
33577W        W 5903   1.446   6.747  13.423
33578W        W 5904  18.293   1.777  12.096
33579W        W 5905  26.976  33.472   0.742
33580W        W 5906  28.969  18.269   0.326
33581W        W 5907  17.617   6.916  13.812
33582W        W 5908  41.842   2.942   2.226
33583W        W 5909  39.440  37.909  12.960
33584W        W 5910  34.384   0.903  11.522
33585W        W 5911   1.354  36.502  12.362
33586W        W 5912  12.749  17.219   2.691
33587W        W 5913  25.667  26.605   5.229
33588W        W 5914  12.162  26.499  14.762
33589W        W 5915  33.997  23.712   1.749
33590W        W 5916   6.276  39.508  10.998
33591W        W 5917   9.809  13.735   0.383
33592W        W 5918  38.383  26.676  14.853
33593W        W 5919  11.682  10.731  13.965
33594W        W 5920  25.041   4.837   2.889
33595W        W 5921  21.038  21.197  14.813
33596W        W 5922   8.327   9.149  12.958
33597W        W 5923  23.995  31.129  14.501
33598W        W 5924  23.169   7.894   0.358
33599W        W 5925  19.554   7.401  12.079
33600W        W 5926  43.316  34.905  11.538
33601W        W 5927  19.660  23.509   4.229
33602W        W 5928  18.149  42.396  13.869
33603W        W 5929  25.195  20.549  13.454
33604W        W 5930  21.261  41.013   1.403
33605W        W 5931  26.664  21.627   3.254
33606W        W 5932  16.122   7.758   3.168
33607W        W 5933  40.006  24.176  10.643
33608W        W 5934  14.124  16.787  13.503
33609W        W 5935  27.672  11.186   2.851
33610W        W 5936  37.083   2.729   1.894
33611W        W 5937  41.455  31.969  13.447
33612W        W 5938   8.819  30.512  12.936
33613W        W 5939  16.290  17.064   3.834
33614W        W 5940  15.700  24.580  10.456
33615W        W 5941  13.764  24.544  10.487
33616W        W 5942   1.932  10.289  14.000
33617W        W 5943  30.950  28.040  11.574
33618W        W 5944  22.577  17.086   2.733
33619W        W 5945  29.106  12.346   2.289
33620W        W 5946   7.820  16.171  12.492
33621W        W 5947  31.590   7.802   1.762
33622W        W 5948  32.994   5.402   1.808
33623W        W 5949  31.127  38.856  11.551
33624W        W 5950   5.831   5.385   4.677
33625W        W 5951  31.596  35.024  13.544
33626W        W 5952   8.737   5.688   1.413
33627W        W 5953  23.210  44.436  11.942
33628W        W 5954  15.582   4.941   2.362
33629W        W 5955   9.155  25.686  14.980
33630W        W 5956   9.657   0.439  14.942
33631W        W 5957  17.799  15.238  11.937
33632W        W 5958  43.997  41.513  13.925
33633W        W 5959  37.850  39.405  14.801
33634W        W 5960  37.001   2.823   3.200
33635W        W 5961  24.065  25.629   2.374
33636W        W 5962   0.369  44.843   1.916
33637W        W 5963   9.315  11.237  13.896
33638W        W 5964  11.282  18.659   3.307
33639W        W 5965  11.320  27.664   2.838
33640W        W 5966  37.863   7.343  12.946
33641W        W 5967  14.253   0.972  11.582
33642W        W 5968  30.625  44.446  13.827
33643W        W 5969   5.898   5.878   2.833
33644W        W 5970   2.759  38.991   2.684
33645W        W 5971  28.097  18.229   4.765
33646W        W 5972   8.746  31.411   2.811
33647W        W 5973  30.125  10.782   1.357
33648W        W 5974  42.929  32.496  11.999
33649W        W 5975  17.266  11.163  10.949
33650W        W 5976  12.232   4.905  12.837
33651W        W 5977  42.913  38.953  10.945
33652W        W 5978  18.286   8.798  14.489
33653W        W 5979  11.131   5.415   2.381
33654W        W 5980  26.650   1.968  14.315
33655W        W 5981   9.884  41.022   2.886
33656W        W 5982  25.643  33.909  13.879
33657W        W 5983  11.732  19.221   1.432
33658W        W 5984   3.235   5.420   2.229
33659W        W 5985  17.091  18.114   4.654
33660W        W 5986  28.078   6.750  12.390
33661W        W 5987  14.211  11.761  11.452
33662W        W 5988  33.386  16.316  11.974
33663W        W 5989  16.631  27.142  11.889
33664W        W 5990  43.474  29.171   4.248
33665W        W 5991  42.367  23.177  11.965
33666W        W 5992  21.710  16.757   4.603
33667W        W 5993  32.513  15.687  14.864
33668W        W 5994  43.512  24.553  14.339
33669W        W 5995  38.989   4.745   0.349
33670W        W 5996  10.145  29.995  10.992
33671W        W 5997  32.443  17.614   2.416
33672W        W 5998  22.230  10.354   1.306
33673W        W 5999  26.952   3.436  14.838
33674W        W 6000   8.879   0.461  11.454
33675W        W 6001  29.649   3.844   3.705
33676W        W 6002  13.297  38.352  14.891
33677W        W 6003  38.411   5.229  12.034
33678W        W 6004  18.677   7.720  13.009
33679W        W 6005  34.554   7.746  11.109
33680W        W 6006  35.501  37.921   2.361
33681W        W 6007  26.977  26.972  12.844
33682W        W 6008  17.219  11.760   0.887
33683W        W 6009  40.449  13.282   2.327
33684W        W 6010  20.141  33.395  14.894
33685W        W 6011  33.890  34.033  11.435
33686W        W 6012  16.578   9.239  14.019
33687W        W 6013  42.982   1.477  13.500
33688W        W 6014   7.877  23.722  12.491
33689W        W 6015   8.189  13.671   3.665
33690W        W 6016   6.773   1.811   4.186
33691W        W 6017  40.515  41.036  14.777
33692W        W 6018  12.170  28.446  12.934
33693W        W 6019  15.811  32.084  12.911
33694W        W 6020   1.819  43.823   1.826
33695W        W 6021   1.302  14.212   0.405
33696W        W 6022  30.585  35.557  11.581
33697W        W 6023  31.010  26.674   0.780
33698W        W 6024  10.213  30.987   1.307
33699W        W 6025  18.642   9.781   4.605
33700W        W 6026   3.914  12.164  11.080
33701W        W 6027  13.725   5.704   0.933
33702W        W 6028   4.867  14.273  14.497
33703W        W 6029  21.692  39.930   1.444
33704W        W 6030   1.298   4.302   1.353
33705W        W 6031  17.727   1.787  11.960
33706W        W 6032  24.565  28.077  11.518
33707W        W 6033  26.633  28.112  11.534
33708W        W 6034  43.445  17.266   4.618
33709W        W 6035  25.979   0.893  10.633
33710W        W 6036   3.843  23.013   5.617
33711W        W 6037   8.743  15.203  14.381
33712W        W 6038  19.569  17.162  12.972
33713W        W 6039   9.208  15.799  11.976
33714W        W 6040  29.068  33.956  10.986
33715W        W 6041   3.897   3.933  11.075
33716W        W 6042  23.117  36.036  10.891
33717W        W 6043  33.512  25.203  10.906
33718W        W 6044  22.649  22.640   4.643
33719W        W 6045   6.697   5.865  13.530
33720W        W 6046   6.267   6.384  11.465
33721W        W 6047   7.894  32.125  12.055
33722W        W 6048  43.905  39.330   4.228
33723W        W 6049   3.421   5.869  12.018
33724W        W 6050  23.097  36.562   2.214
33725W        W 6051  36.470  34.377   1.295
33726W        W 6052  32.528  26.084   4.738
33727W        W 6053  38.447   2.910  14.306
33728W        W 6054  14.230  36.559   5.141
33729W        W 6055  28.630   4.257  11.056
33730W        W 6056  28.578  15.683  14.320
33731W        W 6057   9.317  11.805   1.349
33732W        W 6058   1.761  41.966   0.931
33733W        W 6059  34.487   2.326   3.635
33734W        W 6060  12.122  16.733  10.468
33735W        W 6061  10.750  18.659   1.700
33736W        W 6062  29.550  12.796  10.596
33737W        W 6063  43.975  41.910   1.359
33738W        W 6064  17.647  41.939  14.382
33739W        W 6065  28.005  42.987   1.296
33740W        W 6066  33.474  34.456   2.852
33741W        W 6067   2.954  43.362   2.397
33742W        W 6068  12.643  31.942  13.020
33743W        W 6069  43.405  27.675   2.798
33744W        W 6070   4.251  32.018  12.364
33745W        W 6071  42.009   8.805   4.318
33746W        W 6072  17.215   2.850  14.789
33747W        W 6073  28.528  39.433  11.473
33748W        W 6074  32.889   0.283  11.414
33749W        W 6075  33.514  23.195   4.719
33750W        W 6076  13.846  41.391  13.381
33751W        W 6077  20.682  38.901  10.058
33752W        W 6078   9.211   7.361   4.346
33753W        W 6079  20.121  13.337  12.965
33754W        W 6080  16.777  31.013   0.268
33755W        W 6081  11.368  25.136  10.564
33756W        W 6082  35.387   5.880  14.817
33757W        W 6083  12.843  31.153  13.818
33758W        W 6084   0.859  10.280  13.437
33759W        W 6085  34.977  13.676   2.689
33760W        W 6086  40.523  13.185   2.768
33761W        W 6087  35.500   7.891   0.286
33762W        W 6088  42.872  25.656   0.458
33763W        W 6089  10.382  17.154   1.220
33764W        W 6090  11.766  17.692   4.631
33765W        W 6091  20.647  37.460  11.416
33766W        W 6092  19.717  12.844  11.127
33767W        W 6093   5.260  35.382   0.342
33768W        W 6094  34.442  27.667   2.795
33769W        W 6095  18.572  15.103  12.363
33770W        W 6096   1.337  19.195  14.799
33771W        W 6097  11.289  13.625  14.842
33772W        W 6098  15.260  23.102  14.789
33773W        W 6099   9.371  10.204   2.665
33774W        W 6100   8.724  13.291   3.784
33775W        W 6101  36.095  44.005  13.879
33776W        W 6102  22.660  23.185   2.355
33777W        W 6103  32.040  19.536  12.500
33778W        W 6104  24.552  30.612  14.818
33779W        W 6105   7.859  44.823   1.748
33780W        W 6106  20.598  23.710  11.883
33781W        W 6107  17.169  34.417   1.732
33782W        W 6108   6.882  36.875  14.965
33783W        W 6109  28.966  20.063  14.894
33784W        W 6110  26.477   5.357   0.771
33785W        W 6111   8.253  12.174  14.921
33786W        W 6112  35.586  17.154  11.435
33787W        W 6113  21.757  16.103  13.484
33788W        W 6114  10.714   8.233  13.803
33789W        W 6115  33.022  31.133   2.683
33790W        W 6116   6.858  16.153   0.390
33791W        W 6117  13.222  30.954  12.906
33792W        W 6118  35.603  11.648  13.821
33793W        W 6119  26.133  20.066  12.479
33794W        W 6120  40.545  36.478   0.753
33795W        W 6121  23.054  30.053  13.315
33796W        W 6122  32.016  38.351  12.427
33797W        W 6123  10.307  33.501   4.336
33798W        W 6124  23.168  33.619   2.286
33799W        W 6125  28.944  19.252   2.776
33800W        W 6126  17.164  26.485   1.801
33801W        W 6127  25.036  15.816  11.994
33802W        W 6128  26.962   1.433   2.330
33803W        W 6129  42.994   2.883   0.731
33804W        W 6130   1.364   1.320   0.798
33805W        W 6131   8.871   7.337   2.861
33806W        W 6132   5.318  20.202  12.553
33807W        W 6133   2.332  25.541  11.408
33808W        W 6134  39.058  42.390   0.905
33809W        W 6135  31.633  19.261  13.919
33810W        W 6136   3.948  39.009  12.550
33811W        W 6137   3.941  44.839  11.936
33812W        W 6138  13.111  32.110   2.274
33813W        W 6139  35.472  29.968  13.981
33814W        W 6140  35.407   9.698   3.366
33815W        W 6141  22.227  28.591   0.301
33816W        W 6142  28.077   5.352   3.339
33817W        W 6143   3.942  11.783   4.791
33818W        W 6144  16.196  15.619   3.291
33819W        W 6145  10.222  23.040   1.909
33820W        W 6146  33.438  18.119  14.790
33821W        W 6147  39.022  19.747   4.245
33822W        W 6148  37.882   7.272   0.366
33823W        W 6149  16.731  11.263   3.727
33824W        W 6150  25.592  27.051  13.405
33825W        W 6151  36.856  41.462  11.102
33826W        W 6152  42.469  32.534  11.905
33827W        W 6153  24.203  20.729  12.381
33828W        W 6154  27.080  28.147  10.050
33829W        W 6155   3.841   1.949   1.930
33830W        W 6156   2.296   6.693  10.938
33831W        W 6157   4.341  43.020   1.280
33832W        W 6158  21.215  38.071   1.761
33833W        W 6159  13.632  28.555   1.450
33834W        W 6160  37.086  37.853   2.825
33835W        W 6161   8.666  36.949   2.261
33836W        W 6162  25.962  40.046   4.208
33837W        W 6163  24.114  38.336   2.781
33838W        W 6164  23.576  23.718   4.242
33839W        W 6165  12.247  14.759   3.715
33840W        W 6166  21.527  14.714   1.875
33841W        W 6167  28.515   7.717  14.473
33842W        W 6168  35.400  18.233  13.896
33843W        W 6169  18.734   0.315  10.628
33844W        W 6170  25.569  38.360  12.444
33845W        W 6171   6.299  10.632  14.995
33846W        W 6172  32.133  18.703   3.350
33847W        W 6173  13.741  22.743   1.431
33848W        W 6174  28.565   8.789  10.440
33849W        W 6175  22.169  25.629   2.268
33850W        W 6176  25.104  30.475  12.402
33851W        W 6177   1.445   9.760   5.116
33852W        W 6178  38.521   9.821   2.412
33853W        W 6179  10.160   0.951   3.373
33854W        W 6180  30.459  12.137  12.866
33855W        W 6181  25.646  37.072   3.304
33856W        W 6182   5.752  28.486  14.906
33857W        W 6183  12.153  40.824   1.348
33858W        W 6184  14.756  21.090   3.793
33859W        W 6185  27.563  37.892   3.747
33860W        W 6186   9.758  34.463  14.305
33861W        W 6187  15.160   5.851   2.373
33862W        W 6188  10.862  21.176  11.089
33863W        W 6189  20.719  21.739   0.257
33864W        W 6190   1.306  44.454   0.732
33865W        W 6191  37.941  36.365  13.510
33866W        W 6192  38.513   7.235   3.739
33867W        W 6193  18.551  15.260  13.337
33868W        W 6194   6.892  33.561  11.434
33869W        W 6195   5.330  19.234   2.280
33870W        W 6196  44.912  18.657  12.573
33871W        W 6197  21.667   0.761   4.667
33872W        W 6198  25.126  43.447   0.336
33873W        W 6199   0.906  39.010  11.971
33874W        W 6200   2.724   9.832  11.589
33875W        W 6201  25.656  23.575   3.377
33876W        W 6202  21.067   7.318   1.807
33877W        W 6203  39.534   0.370   3.385
33878W        W 6204  33.506  15.590   2.399
33879W        W 6205  42.861  26.029  10.553
33880W        W 6206  20.563  27.474   4.667
33881W        W 6207   4.360  14.164  11.011
33882W        W 6208   5.737  20.077   2.697
33883W        W 6209  27.004  28.102   2.711
33884W        W 6210  37.860  39.891  10.492
33885W        W 6211  13.316  15.123   1.772
33886W        W 6212  25.712  22.172   1.428
33887W        W 6213  30.055  29.638   1.365
33888W        W 6214  39.428  11.255  11.463
33889W        W 6215  44.345  19.143   4.773
33890W        W 6216  16.593  17.773  13.512
33891W        W 6217  21.721   1.741   1.807
33892W        W 6218  39.882  21.017  10.975
33893W        W 6219  10.737  22.119  14.327
33894W        W 6220  22.673   7.869  10.926
33895W        W 6221  26.581  38.837  11.548
33896W        W 6222  34.118  26.205  13.056
33897W        W 6223  19.760  18.727  11.525
33898W        W 6224  32.139  36.487   2.226
33899W        W 6225   8.395   3.326   4.745
33900W        W 6226  44.431   9.149   2.251
33901W        W 6227  16.712   2.279   3.825
33902W        W 6228   4.337   9.888  13.862
33903W        W 6229  36.925  28.161   2.393
33904W        W 6230  25.073  14.626   3.748
33905W        W 6231  29.095  33.032  11.113
33906W        W 6232  16.145  31.534   1.770
33907W        W 6233  28.493  31.999   4.210
33908W        W 6234   8.170   5.920   4.353
33909W        W 6235  42.387  23.637  14.895
33910W        W 6236   6.317   9.679   4.642
33911W        W 6237  23.528  43.929  11.909
33912W        W 6238   0.742  16.812  12.945
33913W        W 6239  16.713  39.873   2.183
33914W        W 6240  23.553  40.925   4.679
33915W        W 6241  26.615   6.311  11.566
33916W        W 6242  39.991  26.524  12.060
33917W        W 6243  24.054  33.021  11.047
33918W        W 6244  20.763  25.565  10.480
33919W        W 6245  21.717  29.577  10.960
33920W        W 6246  12.337  11.727  12.425
33921W        W 6247  18.604  10.787   3.358
33922W        W 6248   8.814  30.570   0.340
33923W        W 6249  12.116  38.489   2.815
33924W        W 6250  42.783  39.975  10.920
33925W        W 6251  16.276  20.046   3.342
33926W        W 6252  38.019  36.849  11.400
33927W        W 6253  38.886   6.324   1.398
33928W        W 6254  41.845  42.972   2.726
33929W        W 6255  29.153  24.154   0.764
33930W        W 6256   0.359   5.202  11.860
33931W        W 6257  37.412  17.277   4.707
33932W        W 6258   1.266   9.381  12.907
33933W        W 6259  26.507   4.236  10.456
33934W        W 6260  21.128  22.693   2.318
33935W        W 6261  44.879  35.549  10.936
33936W        W 6262  35.417  28.961  13.410
33937W        W 6263  20.242  27.128   0.394
33938W        W 6264   3.771  23.063   1.920
33939W        W 6265  38.482   1.866   3.183
33940W        W 6266   1.393   2.370   5.602
33941W        W 6267  34.386  43.507   4.337
33942W        W 6268  25.532  30.960  11.596
33943W        W 6269  19.285  23.070   1.911
33944W        W 6270  15.287  16.727   0.252
33945W        W 6271  25.153  15.727   1.301
33946W        W 6272  16.614  12.142   4.797
33947W        W 6273  10.291  20.526   3.242
33948W        W 6274   4.872  20.090   1.768
33949W        W 6275  29.508   1.755  14.340
33950W        W 6276  42.877  19.169  11.924
33951W        W 6277  31.015  10.734   3.681
33952W        W 6278  32.424  41.365  11.535
33953W        W 6279  22.251  13.345   0.735
33954W        W 6280  26.486   9.297  10.478
33955W        W 6281  40.983  29.070  11.918
33956W        W 6282   3.436  27.125  11.122
33957W        W 6283  14.185   8.786  12.350
33958W        W 6284  30.582   0.791   1.408
33959W        W 6285  10.367  39.452   4.279
33960W        W 6286  32.002   3.927   0.404
33961W        W 6287  26.589  39.965   0.807
33962W        W 6288   9.169   0.784  11.442
33963W        W 6289   0.937   3.877   5.797
33964W        W 6290  42.423   8.833  12.401
33965W        W 6291  14.267  30.116   3.224
33966W        W 6292  21.026  44.899   3.268
33967W        W 6293  29.972  27.112   0.453
33968W        W 6294  24.223  42.009   1.353
33969W        W 6295  35.393  28.033   1.323
33970W        W 6296  26.207  14.111  13.002
33971W        W 6297  14.147   9.165   0.791
33972W        W 6298  16.696  40.437   4.340
33973W        W 6299  41.925  36.449  11.917
33974W        W 6300  29.995  37.967  10.462
33975W        W 6301   2.839  39.465   2.309
33976W        W 6302   0.892  17.228   3.820
33977W        W 6303  26.643  34.103   2.202
33978W        W 6304  26.694  11.632   3.225
33979W        W 6305  44.839  14.718   1.400
33980W        W 6306   7.267   6.299  10.562
33981W        W 6307  44.792  28.988  10.427
33982W        W 6308  16.640  14.204  13.438
33983W        W 6309   3.855  43.823  14.928
33984W        W 6310  30.454  25.071  14.018
33985W        W 6311  15.150  30.947  10.945
33986W        W 6312  27.535  16.596   1.811
33987W        W 6313   9.796  42.805  14.507
33988W        W 6314  18.181  24.028  13.954
33989W        W 6315   1.281   1.283  12.088
33990W        W 6316  23.115   3.417  10.635
33991W        W 6317   9.249   9.386  13.520
33992W        W 6318  33.935  26.987   2.407
33993W        W 6319   7.857  21.541  12.828
33994W        W 6320  20.051  12.274  12.917
33995W        W 6321  35.070  10.141  14.806
33996W        W 6322  35.439  19.147  10.604
33997W        W 6323  37.024  28.935   3.164
33998W        W 6324  20.580  28.173  13.406
33999W        W 6325   1.366  36.561   4.679
34000W        W 6326  27.162  25.683   0.460
34001W        W 6327  15.583  44.840  12.833
34002W        W 6328  35.016  27.648  13.011
34003W        W 6329  20.590   6.824  14.309
34004W        W 6330  24.204   6.331   1.882
34005W        W 6331  30.469  20.623  11.969
34006W        W 6332   8.274  14.768   3.756
34007W        W 6333  27.044  42.947   4.200
34008W        W 6334  35.407  34.548   1.799
34009W        W 6335  31.534   0.988  12.937
34010W        W 6336  40.322   6.905  12.938
34011W        W 6337  17.691   8.836  10.423
34012W        W 6338  22.999  40.813   5.770
34013W        W 6339  10.240  17.088   1.928
34014W        W 6340   1.341  34.110  13.052
34015W        W 6341  38.958  21.191   5.264
34016W        W 6342  42.907  14.639  12.871
34017W        W 6343  14.654  24.514   3.686
34018W        W 6344  11.322  26.577   1.356
34019W        W 6345  10.369  14.166  11.443
34020W        W 6346  32.444  30.621   1.375
34021W        W 6347  11.166  44.331  13.324
34022W        W 6348  24.592  41.428   3.149
34023W        W 6349  28.655  41.877   3.844
34024W        W 6350  12.726  13.616  13.476
34025W        W 6351   7.858  20.642   2.268
34026W        W 6352   8.238  39.908   0.428
34027W        W 6353  37.837  31.154   0.427
34028W        W 6354   5.321  10.735   4.669
34029W        W 6355   4.436  22.643   2.196
34030W        W 6356  34.075   6.206  14.375
34031W        W 6357   8.861   5.742   4.229
34032W        W 6358  42.895  34.086  10.998
34033W        W 6359  20.154  25.000   5.307
34034W        W 6360   0.438  25.137  11.050
34035W        W 6361  44.846   0.756  12.441
34036W        W 6362  44.449  14.815   4.735
34037W        W 6363   7.173  26.000  11.116
34038W        W 6364   7.740  42.426  12.404
34039W        W 6365  23.679  35.065   1.697
34040W        W 6366  39.452  37.515   1.407
34041W        W 6367  15.186  33.996   3.214
34042W        W 6368  36.520  14.285  14.385
34043W        W 6369   2.937  38.881  14.818
34044W        W 6370  29.537  13.201  13.938
34045W        W 6371  35.987  23.207  11.947
34046W        W 6372  22.562   3.893   1.280
34047W        W 6373  38.542  28.522  12.840
34048W        W 6374  35.047  38.873  10.516
34049W        W 6375  21.229  18.633  13.951
34050W        W 6376  37.560  23.037   2.753
34051W        W 6377  15.700  13.707  11.406
34052W        W 6378   3.813  30.588  13.977
34053W        W 6379  41.451  34.401   0.897
34054W        W 6380  32.994  32.958  13.973
34055W        W 6381  19.649  24.209  14.952
34056W        W 6382  42.932  10.746   2.416
34057W        W 6383   9.669  40.877  13.350
34058W        W 6384  24.604  26.538  12.038
34059W        W 6385  17.185  26.979  13.957
34060W        W 6386  42.969  25.615  13.933
34061W        W 6387  16.171  39.860   1.284
34062W        W 6388  36.908  22.206   1.795
34063W        W 6389   9.733   0.956  10.503
34064W        W 6390  24.723  14.760  10.435
34065W        W 6391  42.518  25.708   1.266
34066W        W 6392   3.302  36.845  12.065
34067W        W 6393  27.950   8.860  11.474
34068W        W 6394   5.280  16.668   4.194
34069W        W 6395  10.255  32.397  13.451
34070W        W 6396  35.572  31.557  12.544
34071W        W 6397  14.101  38.415  14.030
34072W        W 6398  41.457  21.054   2.847
34073W        W 6399  44.842  37.935   3.683
34074W        W 6400   4.426  14.734  10.529
34075W        W 6401   4.773  33.098  13.539
34076W        W 6402   2.755  43.352  11.535
34077W        W 6403   1.389   1.303  13.438
34078W        W 6404  22.592   5.387  12.058
34079W        W 6405  12.670  40.406   4.793
34080W        W 6406   5.258   4.289   0.265
34081W        W 6407   4.934  15.770  12.352
34082W        W 6408  17.241  30.522   0.339
34083W        W 6409  16.140  42.899  10.987
34084W        W 6410  38.995  17.081   9.986
34085W        W 6411   0.326  25.488  13.429
34086W        W 6412  39.520   6.684  13.896
34087W        W 6413   0.400  26.526   1.325
34088W        W 6414  44.352  24.633   4.694
34089W        W 6415  11.829  44.758   2.789
34090W        W 6416   3.422  12.768  14.770
34091W        W 6417   9.180  20.140   0.814
34092W        W 6418  10.686  17.280   2.874
34093W        W 6419  30.462  24.642  14.978
34094W        W 6420  13.766  42.323  11.940
34095W        W 6421   1.870   8.695  14.476
34096W        W 6422  39.457   2.951   1.437
34097W        W 6423   3.225   4.920   1.719
34098W        W 6424  17.172  11.135  12.021
34099W        W 6425  31.981  10.247  10.986
34100W        W 6426  30.969  24.539  11.375
34101W        W 6427   0.853  27.946   0.768
34102W        W 6428  34.369  12.848  11.999
34103W        W 6429  16.768  25.704   0.426
34104W        W 6430  20.128   7.401  11.919
34105W        W 6431  34.397  25.491  14.932
34106W        W 6432  40.492  19.197  11.078
34107W        W 6433  13.751  23.095  14.393
34108W        W 6434  13.771  18.737   1.825
34109W        W 6435  15.109   2.950  13.812
34110W        W 6436   1.787  42.388  14.013
34111W        W 6437   2.442   4.421   3.311
34112W        W 6438  10.303  43.327  12.947
34113W        W 6439  21.199  22.092  12.419
34114W        W 6440  10.193  41.532  11.572
34115W        W 6441   4.892  22.540  10.552
34116W        W 6442  16.126  22.578  11.540
34117W        W 6443  41.004  44.455   1.904
34118W        W 6444  40.950  34.993  11.492
34119W        W 6445   6.830  26.186   2.744
34120W        W 6446  24.718  19.732  14.412
34121W        W 6447   7.875  22.721   0.851
34122W        W 6448  32.037  31.516   0.252
34123W        W 6449  18.257   6.200   2.201
34124W        W 6450   1.862   0.980  11.465
34125W        W 6451   5.418  39.404   1.323
34126W        W 6452  42.503  26.973   4.206
34127W        W 6453  22.228  32.460   0.941
34128W        W 6454  23.185  39.461  10.629
34129W        W 6455  44.452  20.749   0.933
34130W        W 6456   4.741  29.117  12.926
34131W        W 6457  17.104   0.829   3.710
34132W        W 6458  38.915  21.217  13.888
34133W        W 6459   6.229  33.951   0.737
34134W        W 6460  14.302  18.118  13.023
34135W        W 6461  36.975  25.064   3.166
34136W        W 6462  17.601  43.356  11.459
34137W        W 6463  33.604  12.643   1.262
34138W        W 6464  39.533   4.762  13.947
34139W        W 6465  15.106   1.395   3.354
34140W        W 6466  39.436  15.143   2.283
34141W        W 6467  32.116  18.609  14.777
34142W        W 6468   0.862  15.672  12.882
34143W        W 6469  36.533  36.409  10.564
34144W        W 6470  43.508  22.580   4.672
34145W        W 6471  36.062  44.470   2.269
34146W        W 6472  14.632  30.069  13.441
34147W        W 6473  22.567   7.197   2.395
34148W        W 6474  28.673  16.572   3.276
34149W        W 6475  22.113  41.398  11.129
34150W        W 6476  17.564   5.838  12.979
34151W        W 6477  14.768  36.461  13.337
34152W        W 6478  15.636   4.816   0.847
34153W        W 6479  25.473  43.343  13.932
34154W        W 6480  24.591  43.373  14.929
34155W        W 6481  16.237  32.608  10.600
34156W        W 6482  29.656   0.854   3.769
34157W        W 6483   4.852  17.293  11.090
34158W        W 6484   9.786  18.086  14.805
34159W        W 6485   1.334  14.741   3.332
34160W        W 6486  19.071  24.162   3.679
34161W        W 6487  40.819  16.602  14.391
34162W        W 6488  20.136  21.127  14.939
34163W        W 6489   7.873  26.000  14.002
34164W        W 6490  32.011  12.195  10.475
34165W        W 6491  23.584  22.717  11.507
34166W        W 6492   8.848  39.403   3.704
34167W        W 6493  10.749  12.829   5.314
34168W        W 6494  21.607  17.771  11.401
34169W        W 6495  42.416  38.938   3.723
34170W        W 6496   5.750  35.950  14.013
34171W        W 6497  21.235   7.404  10.137
34172W        W 6498  42.822  10.183   2.402
34173W        W 6499   5.258  28.625   0.400
34174W        W 6500  27.077  33.997   1.442
34175W        W 6501  32.064  12.841  10.908
34176W        W 6502  22.635  12.809  14.807
34177W        W 6503  10.705  26.508  11.442
34178W        W 6504  25.490  11.296  14.984
34179W        W 6505  22.060   0.365   0.849
34180W        W 6506  19.075  33.545   3.840
34181W        W 6507  43.352   9.381  11.023
34182W        W 6508  10.351   7.780   3.832
34183W        W 6509  35.466  42.373   3.341
34184W        W 6510  14.748  36.415  11.972
34185W        W 6511  38.419  13.761   0.821
34186W        W 6512  15.732  41.971  13.884
34187W        W 6513  11.177  29.980   1.427
34188W        W 6514  33.983  37.558   2.822
34189W        W 6515  44.952  39.033  10.063
34190W        W 6516  10.183  16.318  11.953
34191W        W 6517  32.439  38.997  11.407
34192W        W 6518  44.361  37.485  11.993
34193W        W 6519   4.413  10.316   9.935
34194W        W 6520   6.316  24.056   3.249
34195W        W 6521  12.794  20.651  14.303
34196W        W 6522  23.684  24.099  10.970
34197W        W 6523  23.046  22.570  13.383
34198W        W 6524  28.627  11.744   9.934
34199W        W 6525   8.192  27.197   3.770
34200W        W 6526  20.241  30.613  11.581
34201W        W 6527  13.185  32.954   0.393
34202W        W 6528  20.053  20.043  11.001
34203W        W 6529   7.300  26.463  13.996
34204W        W 6530  24.224  16.628   4.278
34205W        W 6531  41.472   2.927   1.414
34206W        W 6532   5.871  26.194   2.791
34207W        W 6533  20.724  13.243  13.907
34208W        W 6534  24.986   8.208  14.448
34209W        W 6535   0.391  39.005  14.324
34210W        W 6536  41.423  44.264   1.811
34211W        W 6537   9.827  25.545   3.239
34212W        W 6538  27.164  15.159   0.484
34213W        W 6539   4.768  33.505   3.361
34214W        W 6540  11.351   0.451  13.446
34215W        W 6541  38.014  18.143  12.549
34216W        W 6542   3.346   0.423   4.345
34217W        W 6543   6.781  15.274   3.866
34218W        W 6544  30.416  23.670  11.026
34219W        W 6545  23.050  16.791  13.812
34220W        W 6546  28.979  43.360   2.780
34221W        W 6547  15.806  10.795  11.552
34222W        W 6548  42.987  39.057  10.609
34223W        W 6549  20.157   6.865  13.809
34224W        W 6550  25.630  14.199   9.991
34225W        W 6551   1.872  30.530   1.326
34226W        W 6552   6.242  33.476  10.028
34227W        W 6553  18.252  32.124  14.995
34228W        W 6554  19.080  27.994   0.395
34229W        W 6555  34.942   3.734   3.692
34230W        W 6556  41.365  27.626  12.936
34231W        W 6557   0.793  18.268   0.766
34232W        W 6558  17.196  42.973   3.639
34233W        W 6559   6.217  39.828  11.522
34234W        W 6560  21.596  20.545   2.682
34235W        W 6561  34.077   3.405  12.872
34236W        W 6562  43.356  10.698   0.413
34237W        W 6563  24.575   0.272  14.824
34238W        W 6564  15.316  40.360   1.370
34239W        W 6565  44.411  30.622   3.197
34240W        W 6566  29.631  32.407  11.924
34241W        W 6567   0.343   6.209   2.673
34242W        W 6568  17.190  43.339   2.231
34243W        W 6569  32.102   2.917  10.422
34244W        W 6570  29.607  36.095   1.303
34245W        W 6571   5.763  24.621   4.753
34246W        W 6572  22.606  11.833  13.035
34247W        W 6573  25.499   2.745   4.664
34248W        W 6574  20.635  35.003   1.806
34249W        W 6575  41.449  12.176   2.293
34250W        W 6576  28.074  14.251   3.660
34251W        W 6577  16.269   6.694  10.466
34252W        W 6578  27.563   8.281  13.339
34253W        W 6579  21.713  38.986  11.041
34254W        W 6580  31.607  11.126   4.212
34255W        W 6581  42.340  34.408  11.014
34256W        W 6582  10.248  24.112  12.460
34257W        W 6583  43.816   7.381   3.640
34258W        W 6584   6.328  16.760   1.418
34259W        W 6585  23.217   8.688   1.427
34260W        W 6586  22.128  37.831  13.816
34261W        W 6587  38.403  37.373  14.970
34262W        W 6588   9.748   1.304  11.922
34263W        W 6589  10.177   9.864   3.169
34264W        W 6590   4.436  27.132  14.761
34265W        W 6591   7.345  19.095   4.201
34266W        W 6592   8.405  41.412   0.842
34267W        W 6593  30.011  40.518  11.112
34268W        W 6594  37.445  33.017  11.538
34269W        W 6595   0.306  29.547   2.862
34270W        W 6596   4.702  40.498  14.809
34271W        W 6597   3.842  23.003   2.240
34272W        W 6598  16.584   3.842  13.943
34273W        W 6599  43.927   5.402  12.897
34274W        W 6600  17.801   2.786   4.139
34275W        W 6601   6.393  34.077   3.648
34276W        W 6602  33.948  35.098  10.592
34277W        W 6603  33.022  29.601  12.037
34278W        W 6604  34.020  17.160  10.934
34279W        W 6605  37.473   2.279  12.997
34280W        W 6606  33.974  23.592   3.707
34281W        W 6607  24.075  36.471   1.377
34282W        W 6608  19.700  42.358   1.817
34283W        W 6609  16.085  36.967  11.991
34284W        W 6610   2.436  20.676   1.275
34285W        W 6611  38.876  26.691   4.792
34286W        W 6612  39.899  26.112   3.155
34287W        W 6613  28.657  33.959   4.120
34288W        W 6614  21.631  23.614  10.527
34289W        W 6615  34.031  28.102  12.912
34290W        W 6616  12.182  17.183  13.791
34291W        W 6617  35.417  41.382   3.716
34292W        W 6618  13.200  36.373  10.022
34293W        W 6619  44.279   5.373   0.482
34294W        W 6620  11.244  40.466  13.042
34295W        W 6621   2.817   2.228   1.855
34296W        W 6622  20.062  20.069   1.834
34297W        W 6623  21.044  15.774  13.920
34298W        W 6624  23.000  23.137  12.346
34299W        W 6625  32.396  24.212  10.583
34300W        W 6626  39.881  25.505  12.373
34301W        W 6627  35.037  18.150  10.892
34302W        W 6628   4.402  32.953   0.756
34303W        W 6629  39.042   9.675   1.893
34304W        W 6630  20.050  21.624   2.238
34305W        W 6631  42.479   8.268   2.381
34306W        W 6632  19.085  12.753   0.955
34307W        W 6633   8.721  22.660   0.961
34308W        W 6634  33.510  29.986   2.341
34309W        W 6635  30.093  16.752   3.837
34310W        W 6636  39.449   6.412  11.094
34311W        W 6637   1.802  35.919  10.992
34312W        W 6638  40.317   6.282  13.999
34313W        W 6639  29.043  26.072   9.947
34314W        W 6640  41.854  10.271  12.442
34315W        W 6641  14.177  32.612  11.918
34316W        W 6642  43.328  16.105  11.581
34317W        W 6643  10.722  42.443   1.307
34318W        W 6644  35.511   5.791   4.626
34319W        W 6645  13.762  12.159   0.323
34320W        W 6646  13.252  44.344  14.891
34321W        W 6647  40.435  11.647   0.273
34322W        W 6648  28.069  38.451  14.444
34323W        W 6649  43.810   3.222   2.388
34324W        W 6650  22.176  33.614   3.344
34325W        W 6651   8.206  15.634   0.283
34326W        W 6652  12.803   9.741   3.230
34327W        W 6653  35.550  39.508  13.907
34328W        W 6654   0.918  24.113   1.386
34329W        W 6655   1.762   8.234  12.392
34330W        W 6656  15.138  30.469   4.318
34331W        W 6657   0.767  17.131   0.889
34332W        W 6658  28.985  34.890   0.250
34333W        W 6659   4.909  20.526  14.284
34334W        W 6660  20.187  38.051   0.467
34335W        W 6661  41.893  23.048   3.157
34336W        W 6662  11.281  43.274   2.663
34337W        W 6663   2.295  27.452  12.943
34338W        W 6664  34.914   7.331  14.429
34339W        W 6665  13.831  35.367   2.185
34340W        W 6666  29.126  25.967   1.849
34341W        W 6667  30.938  11.286  14.014
34342W        W 6668   6.785  22.152  13.522
34343W        W 6669   8.299  15.197  11.018
34344W        W 6670   2.931   1.340   9.942
34345W        W 6671  19.600   4.380   3.653
34346W        W 6672  42.426  41.463  11.947
34347W        W 6673  22.579  36.378  10.475
34348W        W 6674  15.718  10.230  14.795
34349W        W 6675  34.445  10.771  14.802
34350W        W 6676  23.606  35.017   3.653
34351W        W 6677  35.389   6.304   3.792
34352W        W 6678  23.173   1.969  12.566
34353W        W 6679  22.137  16.662   3.727
34354W        W 6680   7.722  41.016   1.241
34355W        W 6681   2.909  30.491  12.494
34356W        W 6682  29.028  19.609   3.656
34357W        W 6683  24.015   9.390  11.953
34358W        W 6684   1.905  41.864  11.503
34359W        W 6685  25.104  39.995  10.571
34360W        W 6686  27.457   9.654   3.177
34361W        W 6687  17.691  11.347   4.213
34362W        W 6688  27.633  23.181   2.745
34363W        W 6689  30.090  18.552  11.561
34364W        W 6690  42.492  28.016  13.981
34365W        W 6691  15.274  17.750   2.814
34366W        W 6692  20.637   3.887  11.968
34367W        W 6693  19.167  17.746   1.786
34368W        W 6694  18.760   9.330  11.922
34369W        W 6695  32.115  32.984  10.632
34370W        W 6696   9.363  39.533  12.062
34371W        W 6697  29.438  23.528  12.382
34372W        W 6698  23.642  17.633  14.778
34373W        W 6699  26.571  10.651  12.555
34374W        W 6700   5.858  43.932   1.862
34375W        W 6701   2.853  41.380   1.765
34376W        W 6702  12.611  38.987   3.152
34377W        W 6703   7.186   4.334  14.842
34378W        W 6704  37.064   2.849  12.088
34379W        W 6705  32.492  42.365   0.928
34380W        W 6706   7.756  14.767  11.507
34381W        W 6707  23.722  27.457   0.407
34382W        W 6708  28.600  37.565  12.064
34383W        W 6709  17.681  39.050  14.476
34384W        W 6710  36.051  32.909   0.247
34385W        W 6711  16.604  20.691   2.666
34386W        W 6712   8.163   8.313  10.595
34387W        W 6713  43.767  23.209  12.527
34388W        W 6714  12.228  18.127  11.446
34389W        W 6715   1.405  44.803  10.458
34390W        W 6716  38.991  15.785   3.750
34391W        W 6717  12.191  18.194  12.042
34392W        W 6718  16.178  44.886   0.422
34393W        W 6719  25.070  24.203   5.217
34394W        W 6720  33.599  27.452   2.226
34395W        W 6721  37.989  25.200   4.163
34396W        W 6722  34.940  35.523   0.382
34397W        W 6723  35.975  13.133  11.067
34398W        W 6724  40.818  25.625   3.213
34399W        W 6725  27.609  35.361   1.288
34400W        W 6726  27.995   1.472   3.337
34401W        W 6727  32.110  39.875   4.307
34402W        W 6728  30.063  39.495  14.851
34403W        W 6729  22.242  27.451  10.977
34404W        W 6730  43.944  13.786  13.342
34405W        W 6731  41.024  44.379  13.415
34406W        W 6732  39.005  34.490  14.781
34407W        W 6733  34.445  15.581  14.420
34408W        W 6734  24.052  34.555   1.239
34409W        W 6735  27.124  43.936  13.331
34410W        W 6736  13.106  11.351   0.291
34411W        W 6737   3.230  20.196   3.793
34412W        W 6738  20.728  11.152   4.160
34413W        W 6739  28.635  17.069   1.359
34414W        W 6740  29.046  32.099  14.865
34415W        W 6741   0.413  15.207   0.354
34416W        W 6742  33.970  19.203  14.512
34417W        W 6743  25.496  25.157  10.424
34418W        W 6744  23.602  29.504   4.713
34419W        W 6745  33.097  27.631  13.521
34420W        W 6746  40.929  23.571   2.889
34421W        W 6747  15.199   8.248   3.202
34422W        W 6748  34.999  44.830  12.985
34423W        W 6749  31.103  41.834  10.464
34424W        W 6750  14.190  41.527  11.941
34425W        W 6751  20.690  44.916   4.720
34426W        W 6752  40.422  15.166  12.873
34427W        W 6753  36.504  18.136   0.436
34428W        W 6754   7.786   9.835  11.592
34429W        W 6755   4.219  41.364  11.569
34430W        W 6756   0.839  34.013   2.312
34431W        W 6757  31.047  40.850   3.694
34432W        W 6758  35.565  42.510  14.971
34433W        W 6759  30.050   1.780  10.505
34434W        W 6760  26.653  29.632  10.623
34435W        W 6761   5.784  20.655  12.421
34436W        W 6762  36.588  41.527  14.373
34437W        W 6763  17.283   7.829  13.452
34438W        W 6764  31.971  43.346   0.275
34439W        W 6765  10.323  24.998  11.598
34440W        W 6766   5.737  10.641   3.761
34441W        W 6767  30.534  30.992   0.854
34442W        W 6768  10.756  38.522  10.592
34443W        W 6769  18.221  11.344   3.841
34444W        W 6770  38.056  26.046  10.476
34445W        W 6771   1.828  23.575   9.920
34446W        W 6772  43.304   6.915   0.747
34447W        W 6773  29.129  25.983  14.426
34448W        W 6774   3.323  31.993   1.380
34449W        W 6775   0.789  17.289   2.347
34450W        W 6776  19.278  28.616  11.535
34451W        W 6777  18.602  26.538   1.797
34452W        W 6778  16.117  32.951  14.470
34453W        W 6779  27.474  38.027  14.011
34454W        W 6780  13.265  37.963   1.873
34455W        W 6781  43.387  36.433   4.745
34456W        W 6782  32.559  12.232   2.350
34457W        W 6783  40.393  21.545  12.085
34458W        W 6784   8.838  37.840   3.216
34459W        W 6785  34.074  30.003  10.596
34460W        W 6786  19.177   9.742  11.547
34461W        W 6787  36.965  36.003   4.798
34462W        W 6788   3.305  30.907  13.046
34463W        W 6789   5.278  11.727   4.186
34464W        W 6790  12.299  19.093  10.904
34465W        W 6791  27.997  23.162  10.559
34466W        W 6792  10.804  42.281  14.922
34467W        W 6793  22.659  10.157  10.596
34468W        W 6794   1.393  17.715   2.233
34469W        W 6795   9.660  11.841   1.409
34470W        W 6796  41.331  10.843  13.932
34471W        W 6797  17.723  10.365   2.756
34472W        W 6798  34.970  38.005  14.347
34473W        W 6799  39.452  24.170  11.089
34474W        W 6800   2.232  24.574  12.457
34475W        W 6801  33.043  37.446  12.963
34476W        W 6802   0.765  33.936  12.393
34477W        W 6803   3.375  24.083  13.043
34478W        W 6804   3.309  18.087  12.046
34479W        W 6805  21.525  34.076   0.342
34480W        W 6806  41.840  37.985   0.956
34481W        W 6807  31.597  17.293   3.757
34482W        W 6808  15.303   4.211  13.455
34483W        W 6809  12.846  20.144  10.998
34484W        W 6810   6.424  11.840  12.417
34485W        W 6811  30.581  44.773  14.364
34486W        W 6812  43.933  18.732   4.118
34487W        W 6813  27.524  33.894  14.939
34488W        W 6814  39.871  36.384   2.667
34489W        W 6815   0.363   2.305   3.153
34490W        W 6816   1.976  24.174   1.722
34491W        W 6817   0.799  17.572   3.173
34492W        W 6818  30.979  15.738  11.855
34493W        W 6819  22.659   9.881   4.721
34494W        W 6820  15.580  38.395   1.833
34495W        W 6821   3.410  15.656   1.360
34496W        W 6822   0.254  17.307  12.544
34497W        W 6823  23.688  12.627  14.825
34498W        W 6824  22.111  28.151  10.972
34499W        W 6825  10.858   3.318  11.116
34500W        W 6826   3.394  30.937  14.290
34501W        W 6827   1.361  32.619   0.292
34502W        W 6828  39.378  42.498  12.350
34503W        W 6829   1.389  15.303  14.478
34504W        W 6830  39.065  33.003  12.091
34505W        W 6831  37.519  16.801  13.368
34506W        W 6832   8.388   2.270  10.559
34507W        W 6833   6.322  34.075   4.701
34508W        W 6834  37.437  36.963   3.666
34509W        W 6835  42.891  38.973   0.833
34510W        W 6836   1.258  31.514   3.184
34511W        W 6837  41.998  27.947  14.325
34512W        W 6838  43.399  42.437  11.928
34513W        W 6839  40.900  24.207   3.326
34514W        W 6840  23.146  35.569   0.882
34515W        W 6841  19.191  32.551   3.252
34516W        W 6842   1.301  24.514   0.928
34517W        W 6843  30.473  25.569  10.631
34518W        W 6844  24.666  33.386  11.073
34519W        W 6845  16.678  16.318  12.564
34520W        W 6846  39.990  18.220   4.123
34521W        W 6847  12.720  37.443  12.843
34522W        W 6848  30.081  27.160  11.601
34523W        W 6849  27.621  33.471  14.343
34524W        W 6850  17.742  25.527   3.178
34525W        W 6851  27.072  22.747   1.224
34526W        W 6852   2.722  41.972  12.477
34527W        W 6853  33.502   0.282  12.545
34528W        W 6854  33.539  22.235  12.374
34529W        W 6855   0.771  18.682  13.495
34530W        W 6856  31.129   5.420   4.750
34531W        W 6857  19.570  19.276   4.262
34532W        W 6858  43.804  44.316  11.532
34533W        W 6859  29.576  10.300  11.032
34534W        W 6860   5.370  20.686   2.703
34535W        W 6861  30.031  20.186  14.330
34536W        W 6862  17.061  34.034  14.411
34537W        W 6863  22.211  41.439  10.492
34538W        W 6864  38.842  24.096   2.189
34539W        W 6865  28.055  41.798   1.905
34540W        W 6866  29.513   4.427  13.911
34541W        W 6867   7.812  19.729  12.033
34542W        W 6868  12.709  16.745   3.701
34543W        W 6869  13.614  36.571   4.679
34544W        W 6870  13.233   9.784   4.623
34545W        W 6871  14.712  37.485   2.233
34546W        W 6872  10.325   4.863   3.724
34547W        W 6873   1.946  31.413   2.233
34548W        W 6874  16.238   5.254  13.349
34549W        W 6875  16.134  26.056  13.426
34550W        W 6876  22.668  31.548   1.805
34551W        W 6877  35.945  39.508  11.436
34552W        W 6878   7.792  31.999   1.371
34553W        W 6879   5.226  43.919  11.401
34554W        W 6880   6.334  18.728   3.749
34555W        W 6881  39.955  36.075  10.557
34556W        W 6882  26.512  15.196  10.553
34557W        W 6883  24.001  17.655   4.819
34558W        W 6884  17.241  13.695   9.961
34559W        W 6885   5.824  11.308  11.874
34560W        W 6886  29.959  40.369   1.336
34561W        W 6887  36.067  28.154  12.014
34562W        W 6888   5.889   8.196   2.734
34563W        W 6889  33.991  17.198   3.351
34564W        W 6890  30.551  27.993   5.084
34565W        W 6891  13.771  22.092  11.058
34566W        W 6892  20.229  29.977  12.918
34567W        W 6893   3.830  20.226  10.948
34568W        W 6894  10.823  22.724  14.900
34569W        W 6895   1.273  18.722  13.433
34570W        W 6896  33.589  25.217   1.882
34571W        W 6897  13.177  21.051   3.655
34572W        W 6898  16.096   2.386  14.862
34573W        W 6899  37.503  37.993   0.394
34574W        W 6900   8.800  24.517   3.199
34575W        W 6901  13.172  40.816  11.473
34576W        W 6902  37.549  15.651   3.707
34577W        W 6903  43.844  44.303  11.968
34578W        W 6904   8.313  12.731   2.717
34579W        W 6905   8.256   8.359   0.474
34580W        W 6906   1.310  17.248  14.812
34581W        W 6907  21.527   0.323  14.025
34582W        W 6908  36.082  41.966  10.632
34583W        W 6909  26.135  21.068  12.949
34584W        W 6910  18.241   7.858   2.709
34585W        W 6911  15.192  19.096   4.258
34586W        W 6912  23.015   1.388   3.866
34587W        W 6913  35.922  23.564   0.328
34588W        W 6914  14.097   5.342  12.476
34589W        W 6915  35.897  38.493   4.602
34590W        W 6916  38.019  24.095  11.881
34591W        W 6917   9.384  44.366  10.405
34592W        W 6918  10.240  43.002   2.263
34593W        W 6919  43.935  32.530  13.841
34594W        W 6920  28.053   7.182  13.875
34595W        W 6921  27.598  32.961  14.512
34596W        W 6922  16.578  39.017  10.482
34597W        W 6923  18.711  38.441   4.226
34598W        W 6924  33.383  13.718  11.077
34599W        W 6925  30.597  35.871   0.952
34600W        W 6926  18.279   4.289   0.254
34601W        W 6927  16.791  31.456  12.833
34602W        W 6928  39.335  35.361   3.833
34603W        W 6929  40.542  28.167   0.888
34604W        W 6930   2.734  41.294  12.516
34605W        W 6931   5.885  18.781   3.161
34606W        W 6932  42.344  39.906   3.169
34607W        W 6933   0.320  25.217  14.768
34608W        W 6934  30.927  44.379  11.550
34609W        W 6935  26.983  21.659   2.787
34610W        W 6936  42.414   2.250  14.023
34611W        W 6937  17.088   0.970  12.083
34612W        W 6938  25.098  20.701  13.875
34613W        W 6939   1.970  27.142   0.364
34614W        W 6940  26.129  36.392  12.557
34615W        W 6941  41.322  19.208  14.443
34616W        W 6942  42.816   3.356   3.171
34617W        W 6943   8.376  19.102   1.718
34618W        W 6944  17.077  39.005   9.999
34619W        W 6945  32.416  13.206  11.010
34620W        W 6946  12.684  24.028   0.773
34621W        W 6947  16.080  42.807   3.647
34622W        W 6948  44.299   2.856  11.909
34623W        W 6949  27.605  41.522  11.092
34624W        W 6950  44.450  42.990  10.065
34625W        W 6951  35.086   5.293  10.645
34626W        W 6952   0.760  23.502  14.483
34627W        W 6953  38.410  21.518  12.354
34628W        W 6954  24.625  28.624   1.864
34629W        W 6955  23.218  18.129  11.099
34630W        W 6956  32.919   7.274   0.819
34631W        W 6957   6.183   7.352   1.797
34632W        W 6958  27.132  37.531   0.259
34633W        W 6959  20.262  21.250  11.114
34634W        W 6960   7.757   8.296  12.848
34635W        W 6961   3.252  12.619  12.488
34636W        W 6962  44.419  20.703  13.887
34637W        W 6963  18.618   9.303   4.788
34638W        W 6964  15.140   8.167   1.449
34639W        W 6965   5.200  14.640   1.398
34640W        W 6966  34.473  31.514  10.569
34641W        W 6967   1.761   7.894  12.843
34642W        W 6968  27.516  17.156  10.986
34643W        W 6969  33.090   7.338   3.673
34644W        W 6970  16.604  22.573  12.000
34645W        W 6971  25.623  28.093  10.536
34646W        W 6972  24.169  32.025   4.231
34647W        W 6973  11.693   7.884  10.524
34648W        W 6974  14.737   2.327   0.911
34649W        W 6975  24.653  13.826   1.799
34650W        W 6976  27.142  28.549   4.655
34651W        W 6977   3.430  33.978   4.662
34652W        W 6978  35.995   8.197   1.821
34653W        W 6979  21.116   9.178  10.624
34654W        W 6980  31.101  29.007   4.203
34655W        W 6981  37.952   4.208  12.481
34656W        W 6982  21.071  31.027  13.448
34657W        W 6983  21.170  39.333   3.167
34658W        W 6984  16.810  28.108  12.359
34659W        W 6985  26.457  28.522   9.958
34660W        W 6986  29.988  20.524   3.781
34661W        W 6987  12.238  18.776   4.802
34662W        W 6988  25.129  15.140  10.139
34663W        W 6989  37.370   5.225   3.328
34664W        W 6990  29.048   8.354   0.777
34665W        W 6991  13.729   8.672   4.141
34666W        W 6992  36.984   8.754   4.664
34667W        W 6993  35.364  25.998  10.508
34668W        W 6994  13.212  18.657  13.941
34669W        W 6995  20.246  44.860  10.524
34670W        W 6996  37.551  24.699  14.866
34671W        W 6997   2.786  39.901   1.415
34672W        W 6998   5.343   8.406  11.001
34673W        W 6999  28.959  28.075   3.679
34674W        W 7000  32.625  14.302   4.756
34675W        W 7001  19.548   9.725  14.983
34676W        W 7002  44.323   5.800   1.850
34677W        W 7003  42.313  28.959  13.956
34678W        W 7004  14.335   8.243   2.891
34679W        W 7005  41.848  24.214  12.422
34680W        W 7006   6.308  26.049  10.994
34681W        W 7007   4.917  17.649   5.263
34682W        W 7008  10.791   6.226  12.828
34683W        W 7009  38.360  26.508   4.744
34684W        W 7010  25.150  44.816   0.362
34685W        W 7011  14.110  10.755   1.843
34686W        W 7012   2.723  25.618   1.228
34687W        W 7013   4.310  40.827   3.198
34688W        W 7014  19.261  17.628  13.971
34689W        W 7015  27.176  22.571   3.825
34690W        W 7016  22.098  25.040  10.493
34691W        W 7017  13.114  13.732   0.942
34692W        W 7018  37.558  32.903  12.415
34693W        W 7019  37.040   2.809   4.830
34694W        W 7020  14.279  10.864   3.282
34695W        W 7021  28.455  25.080  13.456
34696W        W 7022  26.562   8.732   1.292
34697W        W 7023  20.710  16.682  12.344
34698W        W 7024  43.457   2.841  13.349
34699W        W 7025  26.980  33.427  14.382
34700W        W 7026  25.056  35.864   2.684
34701W        W 7027   4.204   0.812  12.008
34702W        W 7028  29.038  28.580  14.913
34703W        W 7029  25.011  12.735   2.217
34704W        W 7030  13.334  33.044   5.294
34705W        W 7031  27.942  33.044  13.470
34706W        W 7032  11.128  10.252   2.811
34707W        W 7033   5.311  30.917  13.989
34708W        W 7034   1.761  37.010   1.245
34709W        W 7035  36.872   0.449  12.927
34710W        W 7036  18.685  27.950   0.246
34711W        W 7037   9.710  43.421   4.202
34712W        W 7038  44.806   1.434   4.222
34713W        W 7039  28.980  20.758  14.403
34714W        W 7040   9.289   2.911   3.654
34715W        W 7041   0.834  17.760  10.639
34716W        W 7042  15.778   2.817   1.362
34717W        W 7043  35.466  31.440   2.213
34718W        W 7044  37.422  14.777   1.728
34719W        W 7045   3.351  44.819  11.049
34720W        W 7046  28.673  22.544  14.777
34721W        W 7047  10.357  34.427   0.346
34722W        W 7048  14.619  12.116   0.927
34723W        W 7049  27.177  23.117   4.294
34724W        W 7050  24.190  20.098  10.511
34725W        W 7051  36.845  32.475   1.359
34726W        W 7052   0.358  15.679   4.134
34727W        W 7053  15.124  28.510   1.296
34728W        W 7054  25.571  42.333  13.458
34729W        W 7055  41.865   8.875   4.751
34730W        W 7056  11.669  32.924  12.057
34731W        W 7057  42.336  23.623  14.365
34732W        W 7058  34.026  15.587  13.015
34733W        W 7059   7.805  21.547   3.812
34734W        W 7060   0.877  38.956  12.929
34735W        W 7061  32.578  41.430   0.949
34736W        W 7062  16.310  19.181   4.255
34737W        W 7063  42.341   8.272   1.922
34738W        W 7064  15.118  19.097  10.462
34739W        W 7065  41.015   2.426   2.403
34740W        W 7066  11.796  31.564   4.280
34741W        W 7067  26.620  34.934  13.990
34742W        W 7068  36.562   9.269  13.314
34743W        W 7069   4.338   8.386  13.903
34744W        W 7070  12.272  41.464   2.243
34745W        W 7071   8.217  23.509   0.364
34746W        W 7072  26.090   0.291  10.414
34747W        W 7073  33.128  13.613  10.583
34748W        W 7074  35.043  20.061  10.980
34749W        W 7075  17.639  40.454  12.467
34750W        W 7076  32.466  21.638   0.887
34751W        W 7077  43.363   6.863  12.563
34752W        W 7078  23.564  43.469  14.879
34753W        W 7079  20.266  42.456   2.788
34754W        W 7080  43.357  32.634  11.930
34755W        W 7081   5.830   9.339   4.219
34756W        W 7082   5.393  30.646  13.489
34757W        W 7083  15.591  22.076   4.765
34758W        W 7084  31.529   3.430  14.843
34759W        W 7085  21.037  44.774  13.396
34760W        W 7086   1.261  21.719   1.432
34761W        W 7087  41.018  39.912  10.452
34762W        W 7088  23.532  29.080  14.024
34763W        W 7089  33.128  41.442   2.194
34764W        W 7090  12.239  44.278  11.092
34765W        W 7091   7.200  30.001   0.318
34766W        W 7092  22.017  16.199   4.256
34767W        W 7093  31.583  20.579  11.595
34768W        W 7094  35.913  28.576   1.446
34769W        W 7095   5.295   5.285  13.408
34770W        W 7096  14.738  22.056  12.489
34771W        W 7097  36.492  22.582  14.443
34772W        W 7098  40.459  14.321  10.595
34773W        W 7099  12.352   0.913  13.456
34774W        W 7100   3.770  13.761  11.470
34775W        W 7101  24.055   0.799  11.054
34776W        W 7102  26.569  42.848   5.111
34777W        W 7103  19.216   0.939   1.935
34778W        W 7104  16.234  43.381   2.408
34779W        W 7105   9.876  26.681   0.838
34780W        W 7106  38.448  10.180  10.405
34781W        W 7107  19.080  14.146   0.359
34782W        W 7108  27.480   0.337   1.762
34783W        W 7109  14.169  33.057  10.428
34784W        W 7110  30.120  23.197   2.705
34785W        W 7111  16.215  14.212   1.787
34786W        W 7112   2.786  21.155   0.853
34787W        W 7113  26.168  32.549   3.677
34788W        W 7114  39.491  35.400  12.829
34789W        W 7115  20.232  41.849   3.260
34790W        W 7116  38.419  33.469  14.345
34791W        W 7117   3.906  39.908   4.207
34792W        W 7118  18.784  35.093   2.274
34793W        W 7119  32.466  22.014  10.638
34794W        W 7120  38.873  12.851   1.344
34795W        W 7121   3.339  30.991  10.419
34796W        W 7122  21.121  29.649   2.855
34797W        W 7123  23.204  36.466   1.213
34798W        W 7124  11.154  40.806  11.029
34799W        W 7125  24.122  27.047   0.422
34800W        W 7126   5.827  42.960  13.045
34801W        W 7127   4.444  12.173   0.733
34802W        W 7128  28.624   1.285  12.045
34803W        W 7129   5.804  34.943  13.806
34804W        W 7130  42.335  43.958  11.907
34805W        W 7131  11.289   0.970   0.325
34806W        W 7132   7.795   4.928   2.803
34807W        W 7133  42.444  20.640   1.802
34808W        W 7134  33.099  30.997   2.400
34809W        W 7135   4.888  31.561   4.736
34810W        W 7136  28.467  27.099  14.291
34811W        W 7137  28.027  37.537   9.971
34812W        W 7138   9.237  37.847  12.823
34813W        W 7139  14.309  23.183  12.996
34814W        W 7140  17.691  39.041  12.492
34815W        W 7141  34.983   9.272  14.362
34816W        W 7142  42.860   6.834   1.379
34817W        W 7143   2.898  22.549   4.135
34818W        W 7144  44.410   2.724   0.797
34819W        W 7145  38.835  41.292   1.891
34820W        W 7146  35.994  34.565   1.829
34821W        W 7147  41.897   9.284  13.534
34822W        W 7148   9.795  23.165   4.330
34823W        W 7149  10.187  42.372   3.354
34824W        W 7150  18.638  30.606  13.914
34825W        W 7151  27.118  30.464   4.231
34826W        W 7152   8.317  27.991   0.730
34827W        W 7153  18.659  10.261   3.667
34828W        W 7154  25.509  39.354   0.819
34829W        W 7155  12.809   1.809  13.795
34830W        W 7156  20.617  35.894  10.439
34831W        W 7157  10.868   7.721  13.040
34832W        W 7158  44.448   3.844   3.305
34833W        W 7159  39.931   6.854  10.948
34834W        W 7160  14.157  40.915  14.022
34835W        W 7161  14.741  42.827  14.352
34836W        W 7162  42.921   1.471   2.383
34837W        W 7163  34.982  34.087   1.847
34838W        W 7164  24.507   9.837   3.161
34839W        W 7165  44.480  44.368   4.246
34840W        W 7166   4.935   6.228   4.709
34841W        W 7167  15.677  34.078  11.995
34842W        W 7168  13.159  39.323   1.233
34843W        W 7169  11.675   9.387  11.468
34844W        W 7170  10.811   1.268   3.360
34845W        W 7171  42.462  31.541   1.405
34846W        W 7172  15.744  35.881  11.858
34847W        W 7173   2.320   4.916   3.639
34848W        W 7174   8.842  42.898   0.408
34849W        W 7175  17.571  38.545   4.830
34850W        W 7176  11.785  41.513   2.398
34851W        W 7177  20.266  28.581   0.808
34852W        W 7178   2.362  29.552  10.434
34853W        W 7179  23.701  16.766   2.756
34854W        W 7180   5.861  10.309   1.232
34855W        W 7181  11.188  19.211   1.821
34856W        W 7182  28.650  41.981   0.366
34857W        W 7183  15.717   3.452   4.684
34858W        W 7184   1.309  13.734  11.405
34859W        W 7185  33.892  18.596  13.813
34860W        W 7186  11.808   3.816   0.450
34861W        W 7187  14.818  29.658  13.959
34862W        W 7188  33.964  24.157   1.923
34863W        W 7189  14.179   5.215  12.916
34864W        W 7190  28.567  11.269   2.283
34865W        W 7191   5.315  29.493  13.807
34866W        W 7192  32.071  25.063  14.001
34867W        W 7193  42.863  19.114   1.714
34868W        W 7194   6.803   4.265   2.883
34869W        W 7195  37.571  13.224   9.982
34870W        W 7196   1.864  20.538  11.918
34871W        W 7197  16.709  26.115   1.912
34872W        W 7198  41.484  29.145  13.853
34873W        W 7199   6.396   5.814  14.484
34874W        W 7200  29.968  26.049  14.901
34875W        W 7201  27.666  15.784   3.802
34876W        W 7202   4.345  11.722  13.389
34877W        W 7203   6.235  37.957  14.914
34878W        W 7204  24.679  15.232   0.736
34879W        W 7205  34.024  22.140  11.599
34880W        W 7206   9.879   5.862  10.972
34881W        W 7207  14.161  14.247   3.274
34882W        W 7208  37.345  30.119   3.793
34883W        W 7209  19.113  43.983   1.323
34884W        W 7210  35.383   1.443   4.303
34885W        W 7211  25.073   9.712  11.864
34886W        W 7212  23.201   2.758   2.337
34887W        W 7213  21.141  13.142   4.333
34888W        W 7214   0.481  31.902  11.880
34889W        W 7215   9.685   9.712   0.454
34890W        W 7216  19.074  18.547  10.989
34891W        W 7217   0.905   2.231  12.484
34892W        W 7218  41.998  31.990   4.664
34893W        W 7219  18.614  39.984   3.207
34894W        W 7220  14.335  44.771   2.891
34895W        W 7221  13.179  24.004  12.893
34896W        W 7222  28.589  22.135   0.866
34897W        W 7223  31.457  39.963  14.926
34898W        W 7224   6.334   8.358  13.054
34899W        W 7225  31.039  14.248   3.719
34900W        W 7226  44.862  10.804   2.328
34901W        W 7227  44.483  22.566  12.939
34902W        W 7228   1.840   1.765   4.701
34903W        W 7229   5.884   5.733  12.011
34904W        W 7230  17.303  17.144   1.760
34905W        W 7231  42.522  13.603   4.828
34906W        W 7232   2.806  12.116  11.438
34907W        W 7233  11.740  25.076   0.317
34908W        W 7234  43.468  18.603   4.335
34909W        W 7235   5.253  20.033   1.872
34910W        W 7236  12.693  24.129  14.947
34911W        W 7237  35.853   9.346   2.687
34912W        W 7238   8.716   5.239   0.435
34913W        W 7239  23.611  10.149  11.895
34914W        W 7240  44.329  20.629   2.712
34915W        W 7241   4.765  13.337   1.708
34916W        W 7242  30.057  18.586  14.943
34917W        W 7243  42.451   7.361  13.822
34918W        W 7244  13.698  18.744   1.362
34919W        W 7245  31.406  26.951  11.036
34920W        W 7246  19.098  44.933   3.332
34921W        W 7247  41.502   6.217   0.299
34922W        W 7248   9.265  42.354  11.867
34923W        W 7249   9.773  28.568   3.701
34924W        W 7250   8.404  20.042   1.442
34925W        W 7251  37.916  23.689   3.699
34926W        W 7252   2.963  24.518  12.493
34927W        W 7253   7.808  31.406  12.576
34928W        W 7254  19.066  17.679  12.519
34929W        W 7255   0.895  31.053  12.350
34930W        W 7256  21.208  16.677   0.801
34931W        W 7257  44.457  26.511  11.081
34932W        W 7258  40.360  27.115  14.976
34933W        W 7259  39.970  44.413   4.307
34934W        W 7260  13.251  23.725  10.493
34935W        W 7261  12.750  19.559  12.556
34936W        W 7262  27.018   7.193  11.081
34937W        W 7263  29.105  17.691  12.900
34938W        W 7264  37.072   2.430   3.293
34939W        W 7265  13.678  29.097   4.803
34940W        W 7266  14.122  13.133   2.267
34941W        W 7267  23.582  17.227   2.783
34942W        W 7268  13.283  16.315   1.217
34943W        W 7269  16.074   0.981  13.535
34944W        W 7270  17.580  27.159  11.549
34945W        W 7271  17.264  23.734  10.515
34946W        W 7272  39.397  17.773   0.883
34947W        W 7273  14.213  36.976   0.841
34948W        W 7274  38.968  30.153   0.865
34949W        W 7275   5.382  44.336  13.835
34950W        W 7276  39.422   6.748   4.129
34951W        W 7277  21.623  24.546  12.845
34952W        W 7278  16.099  16.695   4.755
34953W        W 7279   4.233  13.224   1.304
34954W        W 7280  41.820  38.831   0.964
34955W        W 7281  19.709   9.769   3.760
34956W        W 7282   7.292  36.048  13.309
34957W        W 7283  44.914  21.542  12.972
34958W        W 7284   7.768   9.256  10.494
34959W        W 7285  22.170   1.772   0.406
34960W        W 7286   5.872  33.874   2.332
34961W        W 7287   9.219  10.685  10.436
34962W        W 7288  15.784  44.380  11.106
34963W        W 7289  36.090   5.900  13.938
34964W        W 7290  23.032  24.662  14.992
34965W        W 7291   5.911  44.325  14.299
34966W        W 7292  32.404  26.698   4.124
34967W        W 7293   1.289  31.437   3.714
34968W        W 7294  18.175  26.588  12.063
34969W        W 7295  35.487  34.003  12.348
34970W        W 7296   5.237  12.611  14.855
34971W        W 7297  37.492  23.993   4.206
34972W        W 7298  21.226  40.429  11.956
34973W        W 7299   8.807  15.200   0.413
34974W        W 7300   5.732   6.209  14.445
34975W        W 7301   2.457  18.714   4.318
34976W        W 7302   8.403  43.442   4.791
34977W        W 7303  30.156  26.023  13.871
34978W        W 7304  33.384   4.308   9.936
34979W        W 7305   0.333  15.785  14.941
34980W        W 7306  17.782  13.837  13.359
34981W        W 7307  13.188  16.680  13.886
34982W        W 7308  32.086  23.224  11.548
34983W        W 7309   9.374  30.035  10.897
34984W        W 7310  29.989  20.552   0.847
34985W        W 7311  30.440  41.015   4.331
34986W        W 7312  44.388  23.135  11.882
34987W        W 7313  30.945  14.626  11.928
34988W        W 7314   7.772  10.768  14.779
34989W        W 7315  41.806  22.725  13.863
34990W        W 7316  12.168   3.426   2.203
34991W        W 7317  12.657   4.385   0.461
34992W        W 7318  21.668  40.420   4.245
34993W        W 7319  27.574  13.805   0.290
34994W        W 7320  11.804   2.386  14.308
34995W        W 7321  42.340  41.357   4.213
34996W        W 7322   8.231  18.055   3.248
34997W        W 7323  36.403  35.411   5.796
34998W        W 7324  18.613  29.157   3.235
34999W        W 7325  21.691  27.052   4.642
35000W        W 7326  11.283  29.933  10.480
35001W        W 7327  29.619  41.917  13.414
35002W        W 7328  30.132  35.484  14.771
35003W        W 7329  17.277  32.136   1.760
35004W        W 7330  25.517   4.408  11.395
35005W        W 7331   4.937  18.728   0.383
35006W        W 7332  23.006   8.838  11.531
35007W        W 7333  43.978  10.376  11.125
35008W        W 7334   8.242   6.704  10.641
35009W        W 7335  27.533  42.973   2.766
35010W        W 7336  14.714  42.409  14.891
35011W        W 7337  26.046  28.005   3.676
35012W        W 7338   0.872  44.411  13.870
35013W        W 7339  44.883  14.096   5.237
35014W        W 7340  15.254  32.097   0.811
35015W        W 7341  24.010  43.843  14.282
35016W        W 7342   4.749  36.888   0.751
35017W        W 7343  40.346  41.815  10.491
35018W        W 7344   6.692  10.791   4.799
35019W        W 7345  11.866  27.144  11.555
35020W        W 7346  39.943   5.726   0.763
35021W        W 7347  14.726   0.379  13.450
35022W        W 7348  26.631   8.678   0.444
35023W        W 7349  42.331  16.797  13.889
35024W        W 7350  23.601  10.820   4.211
35025W        W 7351   3.711  21.219  14.394
35026W        W 7352   6.255   1.908   3.868
35027W        W 7353  21.216   4.286   2.266
35028W        W 7354   2.307  39.451   1.426
35029W        W 7355  39.467  35.927   4.352
35030W        W 7356   5.417  30.916  10.935
35031W        W 7357  25.014  21.178   1.233
35032W        W 7358  32.587  21.744  14.449
35033W        W 7359  35.452  11.202  13.826
35034W        W 7360   9.823  23.497  14.805
35035W        W 7361  13.780  36.078  11.977
35036W        W 7362  26.203  22.548   1.384
35037W        W 7363  21.682  29.453   0.283
35038W        W 7364  12.140  18.277   2.809
35039W        W 7365  43.859   0.363  13.940
35040W        W 7366  32.566  35.101  14.998
35041W        W 7367  44.929  10.802  12.054
35042W        W 7368  19.266  26.027   0.948
35043W        W 7369  34.458  36.928  14.848
35044W        W 7370  33.523  12.841  13.926
35045W        W 7371  18.121  32.118   4.177
35046W        W 7372  43.939  37.087   1.254
35047W        W 7373  44.426  26.588   2.206
35048W        W 7374   1.778  23.612   4.650
35049W        W 7375   0.260  21.752   1.441
35050W        W 7376   0.358  13.164   0.382
35051W        W 7377  39.978  29.171   2.396
35052W        W 7378  42.913  10.730   3.281
35053W        W 7379  37.887   8.802  14.001
35054W        W 7380  10.379  15.213  13.803
35055W        W 7381  26.479  37.866   3.287
35056W        W 7382  11.835  34.015   3.718
35057W        W 7383   9.694  25.997   1.449
35058W        W 7384  29.030  43.299  11.923
35059W        W 7385  31.417   2.293  14.783
35060W        W 7386  25.531  30.925   4.811
35061W        W 7387  24.555  42.031   4.740
35062W        W 7388  29.046  29.435   0.895
35063W        W 7389  15.200  42.312   3.351
35064W        W 7390  33.558  11.191   1.353
35065W        W 7391  43.004  34.067   3.267
35066W        W 7392   0.307  27.159   1.872
35067W        W 7393  32.912  15.247  11.611
35068W        W 7394  24.573  19.776  14.845
35069W        W 7395  35.433  15.628  12.399
35070W        W 7396   8.191  28.130   4.188
35071W        W 7397  36.441  41.860   3.252
35072W        W 7398   1.380   1.451   3.381
35073W        W 7399  33.468  11.179   0.316
35074W        W 7400  14.120  20.249   2.373
35075W        W 7401  36.020  32.426   1.750
35076W        W 7402  16.178  12.784  11.871
35077W        W 7403  20.671  32.888   1.702
35078W        W 7404  39.454  25.996   4.221
35079W        W 7405  36.976  21.743   4.739
35080W        W 7406   7.261  41.351  13.990
35081W        W 7407   7.216  17.687  14.762
35082W        W 7408  42.009   9.319   4.830
35083W        W 7409  39.420   2.426   4.680
35084W        W 7410  20.163  16.694  13.844
35085W        W 7411  26.990  30.059  13.059
35086W        W 7412   3.414   9.827  12.452
35087W        W 7413  17.616  21.263   9.997
35088W        W 7414   0.296  39.326   4.273
35089W        W 7415  39.338  39.936   1.928
35090W        W 7416  31.035  20.549  14.421
35091W        W 7417  13.150  17.615  14.474
35092W        W 7418   5.850  37.422   1.880
35093W        W 7419   7.189  16.771  13.435
35094W        W 7420  43.446   9.205   1.220
35095W        W 7421  12.685   9.707  12.412
35096W        W 7422  39.872   6.427   0.470
35097W        W 7423   6.255  37.911  11.009
35098W        W 7424  33.997  23.138  13.001
35099W        W 7425  19.234  11.810   2.298
35100W        W 7426  23.234  41.848   0.309
35101W        W 7427  37.349  10.156   9.672
35102W        W 7428  28.973   9.214  10.559
35103W        W 7429  37.960  29.562   1.393
35104W        W 7430  21.130  35.028  14.300
35105W        W 7431  42.463  30.978  10.962
35106W        W 7432  15.243  25.468  14.816
35107W        W 7433  32.118   6.226  12.829
35108W        W 7434  14.263  37.935  14.811
35109W        W 7435  23.507   4.714   4.719
35110W        W 7436  32.412  28.454  14.001
35111W        W 7437   5.757  26.618   4.836
35112W        W 7438   8.163  38.069  14.471
35113W        W 7439  31.990  18.591  12.025
35114W        W 7440  24.717   3.262   1.809
35115W        W 7441  17.175  19.270   2.396
35116W        W 7442  29.084  27.152  11.927
35117W        W 7443  18.712  11.129   2.392
35118W        W 7444  20.259  16.286  10.917
35119W        W 7445  32.612   4.410   0.931
35120W        W 7446  17.664  41.040   3.293
35121W        W 7447  23.156  14.195  12.083
35122W        W 7448  38.339  22.569   0.911
35123W        W 7449  35.952  39.972   3.307
35124W        W 7450  25.161  31.532  13.312
35125W        W 7451   2.889  17.187   1.338
35126W        W 7452  15.626   9.796  13.463
35127W        W 7453  26.198  15.657  10.473
35128W        W 7454   9.291   8.833  12.345
35129W        W 7455   9.751  25.052   3.222
35130W        W 7456  29.580  29.933   2.884
35131W        W 7457   1.922  43.505   3.237
35132W        W 7458  14.272  41.870  13.396
35133W        W 7459  44.314  13.239  14.476
35134W        W 7460  34.873  38.947  13.379
35135W        W 7461  37.528  41.442  14.022
35136W        W 7462  10.290   7.382  14.406
35137W        W 7463  19.205   0.922  12.368
35138W        W 7464  33.030   0.978  12.551
35139W        W 7465  37.892   1.816  10.415
35140W        W 7466   9.741  25.042  10.551
35141W        W 7467   6.197  17.645  10.482
35142W        W 7468  40.493   2.281   4.684
35143W        W 7469  10.300  16.756  11.990
35144W        W 7470  13.608  29.552  11.374
35145W        W 7471  12.747  31.480   3.644
35146W        W 7472  14.622  32.438   4.246
35147W        W 7473  12.825  20.131   4.162
35148W        W 7474  37.866   1.902   3.866
35149W        W 7475  10.660   3.843   4.741
35150W        W 7476  28.572  26.048  13.986
35151W        W 7477  12.339   3.949   1.923
35152W        W 7478   1.841  37.998  14.466
35153W        W 7479  41.456  15.816  14.943
35154W        W 7480  25.080   9.728   4.640
35155W        W 7481   6.850  32.595   4.717
35156W        W 7482  37.522   8.835   5.101
35157W        W 7483  17.659  41.805  11.589
35158W        W 7484  25.197   9.813   3.180
35159W        W 7485  26.144   2.837  13.846
35160W        W 7486  39.437  36.412   3.635
35161W        W 7487  19.043   8.666   0.277
35162W        W 7488  13.663  23.630  11.083
35163W        W 7489  44.998  23.166  14.416
35164W        W 7490  11.652   3.898  14.925
35165W        W 7491  11.220  44.848  11.538
35166W        W 7492  40.316  40.524  13.471
35167W        W 7493  19.562  15.671  14.356
35168W        W 7494  34.539  43.442  12.445
35169W        W 7495  11.837   4.701  12.541
35170W        W 7496  37.996  13.143  10.110
35171W        W 7497  13.619  38.514  12.449
35172W        W 7498  34.512  30.595  10.634
35173W        W 7499  34.443  16.299  12.032
35174W        W 7500  34.970  23.598   5.191
35175W        W 7501   1.800  24.214   4.710
35176W        W 7502  34.955  26.522  12.532
35177W        W 7503  24.100  24.049  10.520
35178W        W 7504   6.313  30.025  12.017
35179W        W 7505   5.282  27.450   4.268
35180W        W 7506  13.346   3.256   0.406
35181W        W 7507  21.677  10.868  10.489
35182W        W 7508   9.323  29.109   4.156
35183W        W 7509  42.410  11.137  10.537
35184W        W 7510   1.473  33.086   4.346
35185W        W 7511  37.957  18.098   0.413
35186W        W 7512  30.073  12.800   0.455
35187W        W 7513  36.380  18.079   5.252
35188W        W 7514  36.877   3.753  11.117
35189W        W 7515  31.143  33.939  14.449
35190W        W 7516  43.489   2.237   3.336
35191W        W 7517  25.546  39.465  10.409
35192W        W 7518  38.827  34.481  12.443
35193W        W 7519  11.693  27.486  14.514
35194W        W 7520  35.501  12.636   0.829
35195W        W 7521   1.351  22.056   3.635
35196W        W 7522  14.638   0.318  13.825
35197W        W 7523  23.702  35.573   2.190
35198W        W 7524  28.119  24.505  14.881
35199W        W 7525  20.594  27.118  14.009
35200W        W 7526  28.095  29.575  12.871
35201W        W 7527  20.184   1.240  14.930
35202W        W 7528  17.123  33.595   5.162
35203W        W 7529  28.530  10.848   2.840
35204W        W 7530  39.423  17.131  14.357
35205W        W 7531  26.069   6.207  13.381
35206W        W 7532  19.259  19.144  14.358
35207W        W 7533  11.650  20.208   0.909
35208W        W 7534  39.521  30.084   2.316
35209W        W 7535  31.427  24.638   3.360
35210W        W 7536   2.286  25.995  10.429
35211W        W 7537  26.081  41.395  14.020
35212W        W 7538  43.911   6.910   1.765
35213W        W 7539  44.271   6.879   0.733
35214W        W 7540  30.655  23.543   1.784
35215W        W 7541  36.081   1.375   3.178
35216W        W 7542  11.766   5.729   1.919
35217W        W 7543   0.789  29.477  14.369
35218W        W 7544  42.976   5.388  11.897
35219W        W 7545  15.097  40.526  14.351
35220W        W 7546  11.165   8.716  13.497
35221W        W 7547   6.344  30.058  12.992
35222W        W 7548  11.665  14.129   4.146
35223W        W 7549  43.985  16.728   1.750
35224W        W 7550  17.661  33.546   1.310
35225W        W 7551  11.302  33.536   4.345
35226W        W 7552   1.443  38.958   3.772
35227W        W 7553  22.055  39.948   1.251
35228W        W 7554  28.079   8.403  11.068
35229W        W 7555  13.811  39.848   1.820
35230W        W 7556  33.008  28.180   2.190
35231W        W 7557  29.115  16.157  12.490
35232W        W 7558  15.774  28.150   3.648
35233W        W 7559  13.167   9.302   4.758
35234W        W 7560   3.376   5.318  11.114
35235W        W 7561   9.318  19.663   2.869
35236W        W 7562   3.349   9.239  13.935
35237W        W 7563  14.792  10.182  14.758
35238W        W 7564  19.142  35.413  12.573
35239W        W 7565  44.298   3.836   0.924
35240W        W 7566  41.377  38.504  13.532
35241W        W 7567  26.477  36.872  10.889
35242W        W 7568  22.160  42.927  13.057
35243W        W 7569  35.016  21.230  10.635
35244W        W 7570  10.364  23.191  10.953
35245W        W 7571   2.404   3.382   1.870
35246W        W 7572   4.883  25.688   4.682
35247W        W 7573   3.761  19.717   2.414
35248W        W 7574  11.627  18.175   0.770
35249W        W 7575   6.387  42.938   0.273
35250W        W 7576  42.945  31.634   4.326
35251W        W 7577  28.124  40.348   5.319
35252W        W 7578  41.464  25.102   4.199
35253W        W 7579  44.308  28.449   4.245
35254W        W 7580  18.132  39.849  12.823
35255W        W 7581  22.150  26.559   3.799
35256W        W 7582  10.792  19.116  11.443
35257W        W 7583   1.875  21.018   3.819
35258W        W 7584  30.153  27.575   0.786
35259W        W 7585  11.628   1.895  13.030
35260W        W 7586  32.495  31.638  13.913
35261W        W 7587  24.043  24.579   1.778
35262W        W 7588   4.741   6.761   5.096
35263W        W 7589   2.903  20.153  10.547
35264W        W 7590   0.798  41.849   1.835
35265W        W 7591  44.821  26.159   2.253
35266W        W 7592  14.818  27.545   4.743
35267W        W 7593  14.102  12.184  13.948
35268W        W 7594   5.785  43.915   3.375
35269W        W 7595  37.536  25.148   1.421
35270W        W 7596  36.909  38.421   3.695
35271W        W 7597  17.244  19.624   2.371
35272W        W 7598  23.582   7.323   2.894
35273W        W 7599  25.567  35.916   4.633
35274W        W 7600   4.746   6.799  14.401
35275W        W 7601  12.202  40.316   2.258
35276W        W 7602  37.032  42.356   0.277
35277W        W 7603  24.157   4.248  14.898
35278W        W 7604  33.887  27.105  12.431
35279W        W 7605  23.190   9.741  11.580
35280W        W 7606   3.367  29.145  11.577
35281W        W 7607  13.802   9.217   0.951
35282W        W 7608  44.483   4.799   1.403
35283W        W 7609  25.213  36.581   1.255
35284W        W 7610   2.450  34.020   4.798
35285W        W 7611   9.253  27.004   4.761
35286W        W 7612  19.077   1.860   1.876
35287W        W 7613  44.450   1.433   0.768
35288W        W 7614  28.107  39.502  11.072
35289W        W 7615  38.925  14.290   9.992
35290W        W 7616   1.467   7.781   3.382
35291W        W 7617  24.980   3.913  14.801
35292W        W 7618  25.117   2.833   0.261
35293W        W 7619   3.328   4.759  13.828
35294W        W 7620  34.379   3.785   2.209
35295W        W 7621  32.501  23.028   4.733
35296W        W 7622  13.346  27.654   4.312
35297W        W 7623   7.797  14.103   3.675
35298W        W 7624  16.281  11.690   3.182
35299W        W 7625  29.452  28.640   0.377
35300W        W 7626  21.108  19.542  13.322
35301W        W 7627  40.019  39.987  12.999
35302W        W 7628   8.320  36.039  14.824
35303W        W 7629   8.330  32.972   3.744
35304W        W 7630  24.517   8.694  14.832
35305W        W 7631  26.027  33.444  14.306
35306W        W 7632  20.660  35.566   4.212
35307W        W 7633  37.439  38.034   3.290
35308W        W 7634  16.251  11.239   4.742
35309W        W 7635  29.552   4.805  12.087
35310W        W 7636  39.885  22.664   0.778
35311W        W 7637  25.121   5.297  14.381
35312W        W 7638  14.329  41.027  14.835
35313W        W 7639  30.136   7.798   3.712
35314W        W 7640  14.237  14.312   2.418
35315W        W 7641  32.392  43.790  14.019
35316W        W 7642  11.346   1.396  10.568
35317W        W 7643  34.375  21.205  10.408
35318W        W 7644  20.229  41.854   4.279
35319W        W 7645   5.347  36.463  11.017
35320W        W 7646   3.787  19.231  14.424
35321W        W 7647  20.090  12.687   4.200
35322W        W 7648   4.288  21.561  10.558
35323W        W 7649  20.257  42.391   2.256
35324W        W 7650  43.975  21.519  10.419
35325W        W 7651  28.075   7.290   4.694
35326W        W 7652  44.375  32.506   2.769
35327W        W 7653  19.700   7.252  10.615
35328W        W 7654  23.105  29.122  12.934
35329W        W 7655  16.684  21.657  10.900
35330W        W 7656  43.815  40.909  14.989
35331W        W 7657  35.863  24.129   2.231
35332W        W 7658   2.814  16.311   2.719
35333W        W 7659  14.167  38.971   5.169
35334W        W 7660   0.262  43.456   2.730
35335W        W 7661  22.036   3.947  11.610
35336W        W 7662   1.320  17.579  10.926
35337W        W 7663  41.396  17.110   0.832
35338W        W 7664  28.105   3.723   4.267
35339W        W 7665  13.835   3.759   3.313
35340W        W 7666  20.665  29.501   1.306
35341W        W 7667  43.851   3.427   1.441
35342W        W 7668  41.538   7.349   2.259
35343W        W 7669  17.084  18.290   1.302
35344W        W 7670  29.964  25.677   3.679
35345W        W 7671   1.834  20.609   4.123
35346W        W 7672  41.503   6.835   2.744
35347W        W 7673  23.213   6.227  14.319
35348W        W 7674  42.875  24.145   2.188
35349W        W 7675  16.209  36.571  12.521
35350W        W 7676  39.008   0.318  12.027
35351W        W 7677  27.524  37.382   0.957
35352W        W 7678  17.076  37.006  12.983
35353W        W 7679  24.592   7.854   2.674
35354W        W 7680  13.680  24.058   4.220
35355W        W 7681  33.542  23.592   0.375
35356W        W 7682  11.311   1.766  12.889
35357W        W 7683   7.768  12.307  13.997
35358W        W 7684  33.409  12.210  13.841
35359W        W 7685   6.183  43.305  11.946
35360W        W 7686  41.942  27.615  13.812
35361W        W 7687  20.144  43.875   3.192
35362W        W 7688  38.908  20.621  12.501
35363W        W 7689  29.627  18.561  14.324
35364W        W 7690  12.724   2.283   2.869
35365W        W 7691  32.908  29.542   2.829
35366W        W 7692  14.290   2.874   1.744
35367W        W 7693  20.056  40.540  11.101
35368W        W 7694  11.790  13.712   2.719
35369W        W 7695  24.629  23.046   1.747
35370W        W 7696  34.023   6.738  14.346
35371W        W 7697  44.993   9.299   3.209
35372W        W 7698  32.604  39.871   4.807
35373W        W 7699  41.297  18.660   3.748
35374W        W 7700  43.487  21.668   4.274
35375W        W 7701  18.210   2.726   1.335
35376W        W 7702  23.999  42.514  10.923
35377W        W 7703   8.194  30.153  13.311
35378W        W 7704  41.946  38.867  10.905
35379W        W 7705  18.069  14.645   3.830
35380W        W 7706   1.894  36.930   0.391
35381W        W 7707  16.229   3.234  10.483
35382W        W 7708  33.471   8.257   1.446
35383W        W 7709  35.388  15.681   4.216
35384W        W 7710  27.145  27.118  10.063
35385W        W 7711  37.003  38.546  11.531
35386W        W 7712  39.848  31.072   4.636
35387W        W 7713  34.507  33.446   0.736
35388W        W 7714  40.510   1.865  11.032
35389W        W 7715  32.109  14.299  13.411
35390W        W 7716  43.319  42.427  10.547
35391W        W 7717  44.316   6.736  11.433
35392W        W 7718  35.959  43.952  14.962
35393W        W 7719  32.604  31.023   1.931
35394W        W 7720   9.225  11.809  10.971
35395W        W 7721  11.699  24.125  13.471
35396W        W 7722  14.743  22.559  14.341
35397W        W 7723  42.868  11.854  14.846
35398W        W 7724  30.042   1.893   0.855
35399W        W 7725   8.896  11.172   4.705
35400W        W 7726  38.538  25.128  11.603
35401W        W 7727  14.815  25.671   2.675
35402W        W 7728   4.445  39.044  10.635
35403W        W 7729  25.044  29.006  12.952
35404W        W 7730  28.186   7.270   1.329
35405W        W 7731  38.426  21.160   2.818
35406W        W 7732  32.031  26.009   4.154
35407W        W 7733   4.719  28.531   2.295
35408W        W 7734  32.613  23.993   3.325
35409W        W 7735  22.109  10.208   4.790
35410W        W 7736  10.637   0.396  10.497
35411W        W 7737  35.858  32.081  11.869
35412W        W 7738   5.414   6.316   4.139
35413W        W 7739  16.757  14.126   0.470
35414W        W 7740   9.708  33.617  13.343
35415W        W 7741  22.522  15.214   3.249
35416W        W 7742   3.766  23.153   1.354
35417W        W 7743   5.706   9.808  13.510
35418W        W 7744  18.289  31.491  14.344
35419W        W 7745  40.454  26.498   1.311
35420W        W 7746  42.777   5.381   1.423
35421W        W 7747  21.120   5.690   0.404
35422W        W 7748   2.751  26.579   0.343
35423W        W 7749  11.199   0.270  12.893
35424W        W 7750  16.185  12.174  14.993
35425W        W 7751  13.277  32.961   2.894
35426W        W 7752  43.848  30.451  14.353
35427W        W 7753  11.857   9.358  13.451
35428W        W 7754  11.151  41.421   2.807
35429W        W 7755  14.762  21.667  12.978
35430W        W 7756  33.884   9.794  12.086
35431W        W 7757  38.484   3.430   5.094
35432W        W 7758   1.771  14.102  11.996
35433W        W 7759  40.521  31.630  14.869
35434W        W 7760  43.308  15.222  10.623
35435W        W 7761  11.333  43.467   1.308
35436W        W 7762  17.621  38.876   3.675
35437W        W 7763  15.088   7.248   1.717
35438W        W 7764  14.615  10.870  12.505
35439W        W 7765  30.643   4.843  11.525
35440W        W 7766   8.226  12.139   0.767
35441W        W 7767  43.322   3.459  11.039
35442W        W 7768  34.454  34.040   0.816
35443W        W 7769   2.387  18.271  14.023
35444W        W 7770  39.382  35.462   0.742
35445W        W 7771  14.229  38.894   1.269
35446W        W 7772  22.549  14.179  12.460
35447W        W 7773  37.469  37.421  11.882
35448W        W 7774  34.007  24.560  14.936
35449W        W 7775  32.581  10.804   1.252
35450W        W 7776  26.646  28.509  14.443
35451W        W 7777  31.475  30.534   3.847
35452W        W 7778   8.748  42.019  14.428
35453W        W 7779  41.904  23.199   0.324
35454W        W 7780  40.525  11.244  14.452
35455W        W 7781  14.749  32.476  14.015
35456W        W 7782  25.526  37.477   0.912
35457W        W 7783  33.536  26.135   0.290
35458W        W 7784  22.592  28.006  14.381
35459W        W 7785  25.152  31.018   0.863
35460W        W 7786  33.393  20.147   0.963
35461W        W 7787   4.762  29.026  14.380
35462W        W 7788  38.914  31.101  12.859
35463W        W 7789  26.592  29.962   1.894
35464W        W 7790  15.196  22.041   0.449
35465W        W 7791  10.283  29.018  12.842
35466W        W 7792  13.751   5.900   3.161
35467W        W 7793   1.356   3.789   2.281
35468W        W 7794   9.697   5.431   3.187
35469W        W 7795   8.733  13.782   3.184
35470W        W 7796   2.262   8.332  12.008
35471W        W 7797  39.886   2.379  13.829
35472W        W 7798  38.026  19.750  10.593
35473W        W 7799  22.048  36.388   0.465
35474W        W 7800   5.306  37.028   2.690
35475W        W 7801  17.666  24.109  12.388
35476W        W 7802  36.949  25.633  11.608
35477W        W 7803  11.749   1.879   3.318
35478W        W 7804  39.002  28.637   3.696
35479W        W 7805  13.147  23.113   0.772
35480W        W 7806  39.928   2.868  12.880
35481W        W 7807  28.975   3.407  12.471
35482W        W 7808   9.372  14.099  14.970
35483W        W 7809  41.904  14.643   0.256
35484W        W 7810  28.645   8.675  12.985
35485W        W 7811  20.531  18.186  12.831
35486W        W 7812   4.355  38.555  10.529
35487W        W 7813  43.963  12.299   4.761
35488W        W 7814  18.783   5.200   4.242
35489W        W 7815  37.384  14.643  12.545
35490W        W 7816  31.453  35.385  14.928
35491W        W 7817  25.177  34.499   0.415
35492W        W 7818  19.613  31.946  11.472
35493W        W 7819  40.051  36.539   4.697
35494W        W 7820  38.508  31.519  12.851
35495W        W 7821  33.570  41.445   5.194
35496W        W 7822  38.446  13.604  13.877
35497W        W 7823   8.331  14.262  12.036
35498W        W 7824  36.563  37.419   0.910
35499W        W 7825  22.646   7.301   3.324
35500W        W 7826  28.124  10.267   4.175
35501W        W 7827  40.509  37.518  12.048
35502W        W 7828  42.007  44.427  14.787
35503W        W 7829  32.536  30.158   2.342
35504W        W 7830  13.204  23.083   2.331
35505W        W 7831  33.949  43.407   2.407
35506W        W 7832  35.011  31.120   0.246
35507W        W 7833   3.399   7.256  12.832
35508W        W 7834  11.799  27.454  10.637
35509W        W 7835  39.388  14.768  10.594
35510W        W 7836  26.488  14.303  11.584
35511W        W 7837  32.446  13.783   1.333
35512W        W 7838  28.525   2.911   3.818
35513W        W 7839  17.787  20.667  12.520
35514W        W 7840  36.097  27.447  10.594
35515W        W 7841  18.220  11.371  13.863
35516W        W 7842  30.023   3.396   2.711
35517W        W 7843  16.590  44.456  10.071
35518W        W 7844   6.202  41.903  10.910
35519W        W 7845  14.661  44.313   0.804
35520W        W 7846   1.774  33.058  10.574
35521W        W 7847   8.223  34.042   0.911
35522W        W 7848  36.507  30.146   4.310
35523W        W 7849  39.018  16.089  11.021
35524W        W 7850   2.419  44.312  10.926
35525W        W 7851  10.365  40.909  12.873
35526W        W 7852  20.643  12.229   2.750
35527W        W 7853  22.517   0.941  14.795
35528W        W 7854  14.732  23.729  13.334
35529W        W 7855  43.494  11.168  11.029
35530W        W 7856   0.440   5.215   3.313
35531W        W 7857  41.828  40.985   3.771
35532W        W 7858   8.286   6.717   2.284
35533W        W 7859  16.770   9.768  13.028
35534W        W 7860  22.557   5.393   2.287
35535W        W 7861  11.844  34.613   0.353
35536W        W 7862   5.730  32.397   3.722
35537W        W 7863  39.547  43.814  12.825
35538W        W 7864  17.216  34.017  12.051
35539W        W 7865  18.777  43.019   2.213
35540W        W 7866  28.599  41.448   3.840
35541W        W 7867   0.914  21.242  12.504
35542W        W 7868  22.185  26.075   0.811
35543W        W 7869  26.517  38.998   0.407
35544W        W 7870   7.258  15.140   4.183
35545W        W 7871  18.674  12.267  13.042
35546W        W 7872  38.488  35.422   3.147
35547W        W 7873  21.577  10.209  13.031
35548W        W 7874   4.832  30.503  12.546
35549W        W 7875  44.766  24.644  11.056
35550W        W 7876  30.150   4.791  14.307
35551W        W 7877  36.049  31.925  11.385
35552W        W 7878  14.251  32.614   1.746
35553W        W 7879   2.398   1.883   2.853
35554W        W 7880  30.565   8.396  11.490
35555W        W 7881  27.042  42.896  14.855
35556W        W 7882  24.082  11.139  10.930
35557W        W 7883  25.713  27.099  13.010
35558W        W 7884  24.189  26.031  12.998
35559W        W 7885   1.732  33.041  12.341
35560W        W 7886  43.296  19.274   4.822
35561W        W 7887  19.692  41.328   3.689
35562W        W 7888  43.350  24.519   2.274
35563W        W 7889  32.137  35.511  10.524
35564W        W 7890  42.291  18.611  11.929
35565W        W 7891  20.702   6.766  11.015
35566W        W 7892  35.433  26.180  13.419
35567W        W 7893   9.285   4.363  14.280
35568W        W 7894  24.199  18.102   5.263
35569W        W 7895  30.611  21.162   0.762
35570W        W 7896  29.491   9.250   2.792
35571W        W 7897  20.693  12.652  10.453
35572W        W 7898  22.686   6.276   4.736
35573W        W 7899  39.896  14.653   2.375
35574W        W 7900   8.694   5.200  12.827
35575W        W 7901   0.763  21.245  10.930
35576W        W 7902   7.222   1.792  14.415
35577W        W 7903  33.989  27.042   0.390
35578W        W 7904  38.509  16.669   1.367
35579W        W 7905  19.059  19.708  11.475
35580W        W 7906   1.449  44.811  14.417
35581W        W 7907  29.947   7.857   1.701
35582W        W 7908  13.689  38.006  10.973
35583W        W 7909  40.315  10.237  12.553
35584W        W 7910   7.173  15.171  11.926
35585W        W 7911  24.099   0.983  14.804
35586W        W 7912  38.441  27.984  13.830
35587W        W 7913  26.536  20.109   1.748
35588W        W 7914  33.594  14.157  14.760
35589W        W 7915   6.836  19.684  14.453
35590W        W 7916  44.429  36.422  12.412
35591W        W 7917  11.185  30.483  14.482
35592W        W 7918   5.234  16.654   1.697
35593W        W 7919  13.349  42.331   4.146
35594W        W 7920   7.725  38.062  14.989
35595W        W 7921  11.366  39.855   3.272
35596W        W 7922  37.434  44.004   2.395
35597W        W 7923   6.353  33.522  11.473
35598W        W 7924  40.994  12.839   1.729
35599W        W 7925  14.251   5.871   0.426
35600W        W 7926   8.174  34.399  12.563
35601W        W 7927  25.698  34.424   1.436
35602W        W 7928   0.813  34.414  13.431
35603W        W 7929  36.975  39.404   4.679
35604W        W 7930  20.523   0.274  11.108
35605W        W 7931  41.041  29.174   0.376
35606W        W 7932  21.029   1.440   0.933
35607W        W 7933  38.482  28.490  12.537
35608W        W 7934  14.637  17.205   3.183
35609W        W 7935  36.449  42.515   4.744
35610W        W 7936  31.589   2.238   2.714
35611W        W 7937  37.852  13.640  10.045
35612W        W 7938  20.588  35.407   1.807
35613W        W 7939  22.116   3.349  13.803
35614W        W 7940  25.105   5.898  11.978
35615W        W 7941  27.540  36.050   4.799
35616W        W 7942  44.995  21.046   2.882
35617W        W 7943  19.760  18.673   2.869
35618W        W 7944  17.130   7.202  10.155
35619W        W 7945  38.906   3.247   4.352
35620W        W 7946  35.903   7.780   0.311
35621W        W 7947  41.807   4.225  13.927
35622W        W 7948  14.176  34.081  14.406
35623W        W 7949  39.477  15.819   1.879
35624W        W 7950   1.384  31.538  12.855
35625W        W 7951  25.474  38.445  11.443
35626W        W 7952   6.749  31.584   2.760
35627W        W 7953   0.828   1.467  12.899
35628W        W 7954  43.395  21.696  10.931
35629W        W 7955   1.805  40.915  11.603
35630W        W 7956  42.313  27.636  11.005
35631W        W 7957  31.145   6.322   0.462
35632W        W 7958  25.981  12.180  11.062
35633W        W 7959  26.548  14.278  12.928
35634W        W 7960  26.641   7.758  13.042
35635W        W 7961   2.372  13.260  12.037
35636W        W 7962   4.722  16.251  11.487
35637W        W 7963   7.238   2.816   1.307
35638W        W 7964  20.541  38.971  11.587
35639W        W 7965   4.429  29.112   2.367
35640W        W 7966  43.295  41.375  11.469
35641W        W 7967  28.038  10.180   3.319
35642W        W 7968  16.173  44.420   2.300
35643W        W 7969  21.119  43.444   3.150
35644W        W 7970  13.619  21.595  11.029
35645W        W 7971  29.557  32.102   4.133
35646W        W 7972   4.335   8.818   1.807
35647W        W 7973  43.909  41.519  11.058
35648W        W 7974  30.449  33.531  12.427
35649W        W 7975  39.023   2.831  14.357
35650W        W 7976  20.146  16.670  13.053
35651W        W 7977  21.732  32.931   4.138
35652W        W 7978  22.193   1.809   3.314
35653W        W 7979  12.142  25.153  12.973
35654W        W 7980  37.972  23.233  11.495
35655W        W 7981  16.588  40.900  11.087
35656W        W 7982  14.629   7.355   0.349
35657W        W 7983   7.201  41.453   2.678
35658W        W 7984  17.185   9.796   3.672
35659W        W 7985  34.420  43.932  11.118
35660W        W 7986  29.100   7.744  10.500
35661W        W 7987  41.892  17.118   3.151
35662W        W 7988  29.926  38.509   0.821
35663W        W 7989  10.248   3.331   4.824
35664W        W 7990   5.228   9.162  13.836
35665W        W 7991  29.468   3.790  13.425
35666W        W 7992  43.839  36.384   1.698
35667W        W 7993  18.232  21.127   0.863
35668W        W 7994  28.123  37.082  13.366
35669W        W 7995  14.661  17.670  11.977
35670W        W 7996   6.751  41.370   4.617
35671W        W 7997   7.802   6.366   1.410
35672W        W 7998  35.591  27.570  11.083
35673W        W 7999  12.851  39.967  12.408
35674W        W 8000  15.620   3.343   3.656
35675W        W 8001  27.447  28.017   0.820
35676W        W 8002   9.709  17.582   1.846
35677W        W 8003  30.003  40.019  14.447
35678W        W 8004  38.926  27.066   4.339
35679W        W 8005  27.535  29.101   3.272
35680W        W 8006  37.034  22.604   0.357
35681W        W 8007  20.636  28.470   2.404
35682W        W 8008  18.097  41.426  12.454
35683W        W 8009  23.650  21.709   0.791
35684W        W 8010  29.467  35.543  10.931
35685W        W 8011  12.274   2.391   1.357
35686W        W 8012  41.932  21.621   0.384
35687W        W 8013  23.103  18.688  10.966
35688W        W 8014  38.508  29.043  13.469
35689W        W 8015  20.642  43.463   4.670
35690W        W 8016  10.357  17.663   4.301
35691W        W 8017   9.777  33.124  12.526
35692W        W 8018  25.209  28.441  13.795
35693W        W 8019  13.322  35.463  14.453
35694W        W 8020  34.492  43.923  13.830
35695W        W 8021  34.067  10.689  10.493
35696W        W 8022  23.656  38.372  12.040
35697W        W 8023  41.314  14.683   1.416
35698W        W 8024  20.736  35.517   3.213
35699W        W 8025  30.099  21.622   2.349
35700W        W 8026   2.377  21.742  13.412
35701W        W 8027   5.809  36.557   1.377
35702W        W 8028  18.294   2.237  13.810
35703W        W 8029  31.959  30.523   2.231
35704W        W 8030  11.262  12.799   2.896
35705W        W 8031  39.516  14.254   2.404
35706W        W 8032  37.070  32.474  12.892
35707W        W 8033  42.017  40.816  12.091
35708W        W 8034   2.378   4.812  12.483
35709W        W 8035   8.348   2.339   1.395
35710W        W 8036  40.508   4.808  13.051
35711W        W 8037  26.083  36.061  13.820
35712W        W 8038  17.714  32.064  13.430
35713W        W 8039  40.988  35.557   0.470
35714W        W 8040  41.958  22.537   1.696
35715W        W 8041  13.615  28.115  13.324
35716W        W 8042  29.610   5.258   2.259
35717W        W 8043  41.037  37.025   0.864
35718W        W 8044  37.992  35.568  13.463
35719W        W 8045  25.642  35.577   3.276
35720W        W 8046  41.971  11.336   4.671
35721W        W 8047  12.262  17.089   3.198
35722W        W 8048  23.117  15.188  14.811
35723W        W 8049   4.895  11.234  14.447
35724W        W 8050  24.231  39.062   2.814
35725W        W 8051  28.681  11.862  14.510
35726W        W 8052  16.717  21.618   1.323
35727W        W 8053  35.954  33.075  11.546
35728W        W 8054  12.301  12.626   0.270
35729W        W 8055  30.511  26.575  11.987
35730W        W 8056  20.242  23.645   2.825
35731W        W 8057  34.477   7.197   1.239
35732W        W 8058  34.401  25.035  11.408
35733W        W 8059   5.305  21.109   5.291
35734W        W 8060  27.091  23.690   1.300
35735W        W 8061  32.956  40.403  14.974
35736W        W 8062  26.601  10.782  11.077
35737W        W 8063  11.727  40.367   2.292
35738W        W 8064  10.719  23.078   2.383
35739W        W 8065  42.868  16.802  14.301
35740W        W 8066   3.279  15.661   2.206
35741W        W 8067  30.025  16.678  13.475
35742W        W 8068  13.830   5.210   4.676
35743W        W 8069   4.359  29.582   4.150
35744W        W 8070  27.584  41.499  13.980
35745W        W 8071  26.967  18.061   3.699
35746W        W 8072   2.320  38.354  13.435
35747W        W 8073  43.330   2.752  11.509
35748W        W 8074  10.763  23.629  11.400
35749W        W 8075   4.233  27.636  12.416
35750W        W 8076  40.373  34.569   0.483
35751W        W 8077  44.842  41.878   2.840
35752W        W 8078  26.511   6.393  13.825
35753W        W 8079   1.897   3.429  13.896
35754W        W 8080  20.123  37.522   3.724
35755W        W 8081   2.768  13.116  13.062
35756W        W 8082  28.676  23.137   3.254
35757W        W 8083   6.800   3.802   3.357
35758W        W 8084  26.638  11.742  13.820
35759W        W 8085  16.655  31.973   1.854
35760W        W 8086   7.373  37.475   2.226
35761W        W 8087   6.421  41.029  11.398
35762W        W 8088  44.478  14.708   2.212
35763W        W 8089   6.194  28.019   5.091
35764W        W 8090  18.581  32.105  13.536
35765W        W 8091   9.384  23.158   2.684
35766W        W 8092  43.958  30.459  11.992
35767W        W 8093  39.924  44.459  11.898
35768W        W 8094   1.310  32.598   3.641
35769W        W 8095  42.905  15.822   3.732
35770W        W 8096  29.630  25.193   4.318
35771W        W 8097  16.790   1.950  10.635
35772W        W 8098  34.478  37.831  14.451
35773W        W 8099  21.715  29.143   0.356
35774W        W 8100  14.220  36.913  14.988
35775W        W 8101  13.736  32.490  12.944
35776W        W 8102   5.718  32.449   0.392
35777W        W 8103  34.865  24.616  13.441
35778W        W 8104  21.601  30.563   0.358
35779W        W 8105  23.629  22.178  11.472
35780W        W 8106  37.922  37.895   0.269
35781W        W 8107   6.361   9.198   4.710
35782W        W 8108  12.676  26.995   5.096
35783W        W 8109  14.311   3.779  14.359
35784W        W 8110  42.385   4.342  13.050
35785W        W 8111  33.434  10.652  12.892
35786W        W 8112   2.472  36.352   2.717
35787W        W 8113  34.413  37.527   0.474
35788W        W 8114  39.491  28.509  14.864
35789W        W 8115  35.480   4.361   2.846
35790W        W 8116  42.370  15.743   3.181
35791W        W 8117   5.932  21.138   4.240
35792W        W 8118   5.397   0.308   3.176
35793W        W 8119   2.781  39.932  12.383
35794W        W 8120   0.433  20.522  11.906
35795W        W 8121  13.660  22.023  13.861
35796W        W 8122  28.019  40.989   3.226
35797W        W 8123  43.015  34.465  10.970
35798W        W 8124   0.454  16.285   4.646
35799W        W 8125   2.725  41.014   0.882
35800W        W 8126   3.425  31.612  12.070
35801W        W 8127  10.681  34.875   2.706
35802W        W 8128  36.442  27.069  11.536
35803W        W 8129  31.568  10.287  14.994
35804W        W 8130  12.270  36.530  14.903
35805W        W 8131  25.482  10.805   4.236
35806W        W 8132  36.918  32.475   4.745
35807W        W 8133  13.284  39.855   1.809
35808W        W 8134  20.077  16.120   4.739
35809W        W 8135   4.325  40.517   0.361
35810W        W 8136  18.769   6.740  13.360
35811W        W 8137   4.937  16.114   1.435
35812W        W 8138   1.413  22.098  14.931
35813W        W 8139   7.766  30.652   9.926
35814W        W 8140  37.910  35.469   2.219
35815W        W 8141  18.590  25.166  14.304
35816W        W 8142  33.530  23.512   0.906
35817W        W 8143  18.677  34.518  10.009
35818W        W 8144  37.944  30.562  11.949
35819W        W 8145  17.689  18.575   3.687
35820W        W 8146   7.262  14.155  12.530
35821W        W 8147  26.979   1.909   0.365
35822W        W 8148  23.063   0.375   3.191
35823W        W 8149  31.076  24.668   3.814
35824W        W 8150  14.259  31.051   0.909
35825W        W 8151  32.979  30.506  13.409
35826W        W 8152  15.196   7.411   4.621
35827W        W 8153  27.615   6.804   0.939
35828W        W 8154  11.823  36.092  12.905
35829W        W 8155  12.346  30.538   2.742
35830W        W 8156  28.110  28.510  11.959
35831W        W 8157  25.070  26.641  14.820
35832W        W 8158  21.214  22.076  14.373
35833W        W 8159  14.629  15.752   1.255
35834W        W 8160   9.700  30.105   2.873
35835W        W 8161  41.390  11.210  11.855
35836W        W 8162  41.343   4.871  12.865
35837W        W 8163  40.357  15.622  12.846
35838W        W 8164  10.723  44.343  14.769
35839W        W 8165  28.043   8.772  10.907
35840W        W 8166  44.401   9.777   3.827
35841W        W 8167  14.833   4.354  12.928
35842W        W 8168  28.608  31.920  11.094
35843W        W 8169  32.964  32.059  14.294
35844W        W 8170  22.222   9.837   3.868
35845W        W 8171  30.484  11.324   4.113
35846W        W 8172  28.572   1.863  12.891
35847W        W 8173  17.144  34.114   4.228
35848W        W 8174  42.911  37.059   2.334
35849W        W 8175  16.585  25.696  13.456
35850W        W 8176  25.043  30.008   2.709
35851W        W 8177   2.395  23.734   3.290
35852W        W 8178  21.186  10.790  11.451
35853W        W 8179  10.686   4.351   4.624
35854W        W 8180  32.505   6.304  12.569
35855W        W 8181   5.330   0.768  14.829
35856W        W 8182  23.676  37.051   3.800
35857W        W 8183  32.952  18.262  13.915
35858W        W 8184   4.894  40.358   9.919
35859W        W 8185   4.794  40.885  10.623
35860W        W 8186  42.827  18.125  10.585
35861W        W 8187  39.917  28.176  11.602
35862W        W 8188  15.094   1.936   2.249
35863W        W 8189   0.483   1.251  13.351
35864W        W 8190  26.163  21.753   0.472
35865W        W 8191  12.746   6.423  11.410
35866W        W 8192   2.344  42.937  14.990
35867W        W 8193  11.240   9.778  11.060
35868W        W 8194   2.848  33.033   0.266
35869W        W 8195  11.319   0.759  13.497
35870W        W 8196  23.596  20.261  14.881
35871W        W 8197   2.427  33.414  11.991
35872W        W 8198   2.951   8.248  13.020
35873W        W 8199  42.916  26.480   4.221
35874W        W 8200  43.370  44.259  10.568
35875W        W 8201  36.507  21.206  10.611
35876W        W 8202  10.307  25.608   0.841
35877W        W 8203   3.460  16.261   1.917
35878W        W 8204  16.311  17.708  13.973
35879W        W 8205  24.501  44.990  11.050
35880W        W 8206  34.011  33.008   4.313
35881W        W 8207   7.908  23.138  10.610
35882W        W 8208  34.406  21.242   3.716
35883W        W 8209  28.465  21.134   2.340
35884W        W 8210  20.555  10.793  10.990
35885W        W 8211  11.143  26.667   0.774
35886W        W 8212  25.690   4.726   4.774
35887W        W 8213  44.893  10.272  10.569
35888W        W 8214  36.074   8.404   4.132
35889W        W 8215  29.584  41.970  12.015
35890W        W 8216  22.202  15.182  14.405
35891W        W 8217  10.304  35.488  13.024
35892W        W 8218  40.888  24.200   4.618
35893W        W 8219  13.690   4.241  10.627
35894W        W 8220  40.490  20.182   0.302
35895W        W 8221  43.295   6.322   3.249
35896W        W 8222  23.058   4.862  11.029
35897W        W 8223   8.233   6.358  14.309
35898W        W 8224  41.404  10.139   0.414
35899W        W 8225  12.200   2.852   1.399
35900W        W 8226  35.047  14.321  10.977
35901W        W 8227  25.478   1.331   0.368
35902W        W 8228  12.136  14.712   1.830
35903W        W 8229   9.301  12.754   2.316
35904W        W 8230  21.232  19.276   4.203
35905W        W 8231  11.344  42.781  14.465
35906W        W 8232  23.029  27.125  14.024
35907W        W 8233  31.610  28.546  12.544
35908W        W 8234  22.135  11.331   4.778
35909W        W 8235   3.444  11.149  11.952
35910W        W 8236  15.237  36.056   3.158
35911W        W 8237  37.934  18.125  12.845
35912W        W 8238  14.201   7.746  12.009
35913W        W 8239  31.956  13.270   2.747
35914W        W 8240  36.878  41.892  13.890
35915W        W 8241  18.279  41.021  10.502
35916W        W 8242  21.536  31.449   1.787
35917W        W 8243  17.783  44.793   4.347
35918W        W 8244  27.657  26.653  12.955
35919W        W 8245  23.076  12.169   3.377
35920W        W 8246  10.259  32.011   0.919
35921W        W 8247   2.946  10.665  14.442
35922W        W 8248  30.439  13.265  14.784
35923W        W 8249   2.381   5.390   5.107
35924W        W 8250   7.295  25.033   4.668
35925W        W 8251  30.163   9.334  12.017
35926W        W 8252  17.788  31.145   0.965
35927W        W 8253  43.308  15.621   2.751
35928W        W 8254  11.213  42.872  10.446
35929W        W 8255  26.009   6.760  11.405
35930W        W 8256  44.265  43.282  11.383
35931W        W 8257  43.486  17.284  13.537
35932W        W 8258   0.828  41.401   0.927
35933W        W 8259  16.694  26.510  13.061
35934W        W 8260   2.786  35.492   4.296
35935W        W 8261   7.218  10.362  13.809
35936W        W 8262  42.852   1.890  11.044
35937W        W 8263  22.169  44.305  11.120
35938W        W 8264  37.894   0.848   4.331
35939W        W 8265  11.333  23.657  12.902
35940W        W 8266   6.847  15.186   0.273
35941W        W 8267  30.120  11.360   2.876
35942W        W 8268  16.708  18.710   1.935
35943W        W 8269   8.832  42.937   2.774
35944W        W 8270  42.010  27.000   3.243
35945W        W 8271  31.900  15.191   4.814
35946W        W 8272  35.033   6.852  11.062
35947W        W 8273  23.674  39.402   4.202
35948W        W 8274  12.273  12.805  10.612
35949W        W 8275  25.203  18.597   1.769
35950W        W 8276  18.109   6.835   4.288
35951W        W 8277  19.705  13.340   2.875
35952W        W 8278  38.335  32.034   0.356
35953W        W 8279   7.852  31.044   0.263
35954W        W 8280   4.723   8.360   1.791
35955W        W 8281  11.159   7.780   2.741
35956W        W 8282  35.946   8.799   1.837
35957W        W 8283  40.891  22.045  11.895
35958W        W 8284  17.792  31.442  13.456
35959W        W 8285   7.770  23.010   0.336
35960W        W 8286   4.363  44.764  13.964
35961W        W 8287  39.317  29.463   0.346
35962W        W 8288   7.332  40.399  10.632
35963W        W 8289  31.048  39.920  11.399
35964W        W 8290   4.769  17.641  14.304
35965W        W 8291   7.335  21.679  14.406
35966W        W 8292  14.256   2.333   5.093
35967W        W 8293   7.695  15.605   4.763
35968W        W 8294  43.496   3.361  14.905
35969W        W 8295  26.543  11.212  11.103
35970W        W 8296  23.154   0.808  13.915
35971W        W 8297   3.280  20.114   3.265
35972W        W 8298  35.937  27.666   3.279
35973W        W 8299  11.817  34.915  10.463
35974W        W 8300  32.985  13.599  12.525
35975W        W 8301  37.041   9.229  13.894
35976W        W 8302  10.261   5.715   2.878
35977W        W 8303   2.726  19.202  14.459
35978W        W 8304   1.324  17.724  10.629
35979W        W 8305  44.917  11.139   0.389
35980W        W 8306   8.899  38.460  13.916
35981W        W 8307  10.685  34.373  11.535
35982W        W 8308   1.375  14.285   4.735
35983W        W 8309  24.695   4.225  13.860
35984W        W 8310  28.086  37.920  13.031
35985W        W 8311  12.766  40.871  13.887
35986W        W 8312  39.896   5.698   1.436
35987W        W 8313  20.101   4.324   2.400
35988W        W 8314  35.108  34.869   4.354
35989W        W 8315   3.303  38.851   1.358
35990W        W 8316  27.192  33.606  13.034
35991W        W 8317  11.237  12.144  14.879
35992W        W 8318  17.291  44.822   4.686
35993W        W 8319  31.494   3.261   0.357
35994W        W 8320  24.578  41.498  11.892
35995W        W 8321  26.653  19.552   2.897
35996W        W 8322  19.707   7.315  11.067
35997W        W 8323  42.360   5.885  13.009
35998W        W 8324  12.233   0.838  12.863
35999W        W 8325  19.258  43.808   0.917
36000W        W 8326  14.771  28.184   0.829
36001W        W 8327  16.266  33.909   4.692
36002W        W 8328  11.128  23.014  14.969
36003W        W 8329  23.651  23.696   1.271
36004W        W 8330  13.184  16.751  10.550
36005W        W 8331  22.602  26.033   1.265
36006W        W 8332  32.927  15.615   4.123
36007W        W 8333   9.686  19.548   3.665
36008W        W 8334  43.415  10.739  12.488
36009W        W 8335  22.626  32.579   2.399
36010W        W 8336  39.853  39.359   4.773
36011W        W 8337   5.323  33.580   2.303
36012W        W 8338  13.789  17.299   1.324
36013W        W 8339   4.868  23.553   3.637
36014W        W 8340  13.741  22.727  14.764
36015W        W 8341   7.344  18.737  14.429
36016W        W 8342  21.610  24.643  11.881
36017W        W 8343   9.797  20.152   1.261
36018W        W 8344  16.579  17.678   1.260
36019W        W 8345  14.270  39.550  11.083
36020W        W 8346  24.526  19.062  11.933
36021W        W 8347  36.903  10.727   3.364
36022W        W 8348   9.264  31.912   3.346
36023W        W 8349  29.935  42.955   4.200
36024W        W 8350  22.179  16.803   1.799
36025W        W 8351  24.067  42.340   0.894
36026W        W 8352  21.544  40.013  12.903
36027W        W 8353  22.609  41.508   4.670
36028W        W 8354  28.628  10.306   0.748
36029W        W 8355   8.757  18.652   5.134
36030W        W 8356  14.108  25.518   5.777
36031W        W 8357  19.183  24.135   0.291
36032W        W 8358   6.785  42.310   3.369
36033W        W 8359  29.621  29.102   3.283
36034W        W 8360   9.222  13.696   4.256
36035W        W 8361   1.295  43.440  11.902
36036W        W 8362   5.872  34.420   2.721
36037W        W 8363  30.552  43.813  12.433
36038W        W 8364  20.184  19.143  14.494
36039W        W 8365   9.713  30.131  11.868
36040W        W 8366  24.550  17.760   4.229
36041W        W 8367  28.657  41.851   2.198
36042W        W 8368  16.180  12.802  12.824
36043W        W 8369   0.324  27.607  13.947
36044W        W 8370   8.287   3.360  11.920
36045W        W 8371  42.799  22.239   2.765
36046W        W 8372  23.163  25.998  11.399
36047W        W 8373  13.752  38.474   3.727
36048W        W 8374  44.430  25.129  10.405
36049W        W 8375  44.921  11.278  10.458
36050W        W 8376  32.488   6.719   2.187
36051W        W 8377   3.412  26.579  13.423
36052W        W 8378   2.439  40.001  11.913
36053W        W 8379  34.484  21.068   3.266
36054W        W 8380   5.774  25.509  14.455
36055W        W 8381  10.179   0.964  12.504
36056W        W 8382  43.830  20.580  14.951
36057W        W 8383  22.175   6.762   1.724
36058W        W 8384  28.137  36.851  12.464
36059W        W 8385  11.679  24.554   0.343
36060W        W 8386  30.434  24.988   1.831
36061W        W 8387  35.041  40.805  12.031
36062W        W 8388  18.788  23.732  11.956
36063W        W 8389  27.079  30.977  10.636
36064W        W 8390   7.759  14.097  12.412
36065W        W 8391  13.217  33.078  11.983
36066W        W 8392  29.009  44.281  11.862
36067W        W 8393  37.565  25.698  12.954
36068W        W 8394   4.939   1.411  14.020
36069W        W 8395  17.075  41.788   1.700
36070W        W 8396  30.045   3.460   4.174
36071W        W 8397  24.992  12.764  12.528
36072W        W 8398   9.166  24.008  11.519
36073W        W 8399  36.086  32.138  14.994
36074W        W 8400  20.708   9.887  14.889
36075W        W 8401  32.952  44.830   0.774
36076W        W 8402  36.468  17.081  12.861
36077W        W 8403   3.396  42.400   0.821
36078W        W 8404  38.885  39.383  14.373
36079W        W 8405   4.832  11.357  12.971
36080W        W 8406  28.116  19.694  14.772
36081W        W 8407  27.947  42.819   4.280
36082W        W 8408  34.583  44.288   0.783
36083W        W 8409  41.034  32.438   1.352
36084W        W 8410  40.548   1.975  10.631
36085W        W 8411   0.445  40.854   4.332
36086W        W 8412  32.432  10.267   4.626
36087W        W 8413  32.993  25.070   4.733
36088W        W 8414   2.344  41.820   4.705
36089W        W 8415  20.727   8.296  10.455
36090W        W 8416  24.488  28.505  10.460
36091W        W 8417  39.377  29.590   1.307
36092W        W 8418  44.760  10.716   4.714
36093W        W 8419  18.777  39.433  10.552
36094W        W 8420  21.098   6.321  13.848
36095W        W 8421  24.218  19.703   3.310
36096W        W 8422  28.540  27.037   3.256
36097W        W 8423  24.229  19.596  10.473
36098W        W 8424  17.198   2.357  13.024
36099W        W 8425  36.026  29.165  10.433
36100W        W 8426   4.820   4.889  10.069
36101W        W 8427  23.085   8.740   4.828
36102W        W 8428  41.901  19.561   4.248
36103W        W 8429  42.480  20.724   0.393
36104W        W 8430  16.730  20.559  14.774
36105W        W 8431   4.840  19.252   3.188
36106W        W 8432  37.080  44.932   4.224
36107W        W 8433  20.072   4.449   1.885
36108W        W 8434   9.866   0.874   0.890
36109W        W 8435  12.258  23.513   1.326
36110W        W 8436   1.770  41.961   3.784
36111W        W 8437  30.561  37.467  10.988
36112W        W 8438  33.032  39.560   3.187
36113W        W 8439  36.513  25.610  11.086
36114W        W 8440  17.151  36.520  11.969
36115W        W 8441  41.874  18.283   1.213
36116W        W 8442  44.009  18.087  11.008
36117W        W 8443  18.214  30.626  11.492
36118W        W 8444  43.501  39.912  11.384
36119W        W 8445   6.265  38.979   5.281
36120W        W 8446  22.157   9.674  14.849
36121W        W 8447  11.755  36.556   3.270
36122W        W 8448  28.187  18.211   4.154
36123W        W 8449  16.761  15.745   0.881
36124W        W 8450  35.935  12.663  13.816
36125W        W 8451  11.859  21.070  11.575
36126W        W 8452  13.178  34.406   0.772
36127W        W 8453   0.456  26.075   1.395
36128W        W 8454  12.356  32.099   0.377
36129W        W 8455  13.199   7.385  12.371
36130W        W 8456   3.894   4.910  11.104
36131W        W 8457  23.710  28.974   4.243
36132W        W 8458  35.882  21.587   0.378
36133W        W 8459   6.209   2.804  12.407
36134W        W 8460  20.107  15.309   0.352
36135W        W 8461   1.254   4.877  13.847
36136W        W 8462  28.542  33.551   2.382
36137W        W 8463  38.522  27.142   0.859
36138W        W 8464  14.313  19.201   0.449
36139W        W 8465  27.508   3.751  14.966
36140W        W 8466  43.301   1.750   2.705
36141W        W 8467  24.630  27.951   4.215
36142W        W 8468   0.467  30.118   2.845
36143W        W 8469  29.163  18.600  11.125
36144W        W 8470  28.559   0.275  11.900
36145W        W 8471   3.383  37.431  10.153
36146W        W 8472  34.458  11.780   3.854
36147W        W 8473  32.483   7.787  12.542
36148W        W 8474  37.530  24.061   1.699
36149W        W 8475  27.542   2.746  13.803
36150W        W 8476  37.441  41.468  13.017
36151W        W 8477  18.163   2.784   4.773
36152W        W 8478  22.189  30.487  11.520
36153W        W 8479  16.648  15.231   3.639
36154W        W 8480  18.247  14.745   0.752
36155W        W 8481  41.415  35.049   0.434
36156W        W 8482  32.959   4.734  11.573
36157W        W 8483   7.204   3.868  10.570
36158W        W 8484  26.078  30.516  11.011
36159W        W 8485  17.062  36.093  14.835
36160W        W 8486  30.580  41.477  13.974
36161W        W 8487  14.655  21.528  11.423
36162W        W 8488  38.538  37.868  13.388
36163W        W 8489  29.458   3.815   0.359
36164W        W 8490  17.648  27.672  13.390
36165W        W 8491  21.621   8.329   1.428
36166W        W 8492  32.464  33.580  14.326
36167W        W 8493  26.629   4.885  13.497
36168W        W 8494  33.922  10.832   3.692
36169W        W 8495   2.805  36.467  13.476
36170W        W 8496  40.962   1.409  11.527
36171W        W 8497  34.867   3.790  13.869
36172W        W 8498  29.606  27.029  14.827
36173W        W 8499  20.679  43.329   1.319
36174W        W 8500  38.340  42.800  11.471
36175W        W 8501  15.099  41.488   0.319
36176W        W 8502   3.332  43.992   1.817
36177W        W 8503   8.790  43.902  11.412
36178W        W 8504  20.190   2.463   2.389
36179W        W 8505  25.550   5.240  12.002
36180W        W 8506  35.394  12.639   0.261
36181W        W 8507  43.938   5.216   2.736
36182W        W 8508  25.066  14.812  11.942
36183W        W 8509   4.715  14.674   3.729
36184W        W 8510  24.023  15.287   1.915
36185W        W 8511  16.090  16.102  10.433
36186W        W 8512  23.693   2.853  14.966
36187W        W 8513   4.833  37.922   2.819
36188W        W 8514  32.892  40.975   1.906
36189W        W 8515  28.609  33.097   0.348
36190W        W 8516  18.559  37.516  12.026
36191W        W 8517  32.934  36.530  14.932
36192W        W 8518  39.504   7.791   0.407
36193W        W 8519  22.640  42.929   4.788
36194W        W 8520  29.039  40.034   1.879
36195W        W 8521  27.585  18.748  10.967
36196W        W 8522   9.836   1.312   1.730
36197W        W 8523  23.522  13.625   3.692
36198W        W 8524  19.162  33.076   0.872
36199W        W 8525   7.743  42.812   1.919
36200W        W 8526  38.532  19.226   4.331
36201W        W 8527  41.451  19.211  13.415
36202W        W 8528   2.414  14.744  14.853
36203W        W 8529  24.699  27.673   3.784
36204W        W 8530  31.993   5.894  14.918
36205W        W 8531  22.705   2.330   5.270
36206W        W 8532  28.658  30.103   0.427
36207W        W 8533  24.116  23.562   4.255
36208W        W 8534  42.876  40.027   2.899
36209W        W 8535  38.947   7.892  14.455
36210W        W 8536   7.301  32.130   2.684
36211W        W 8537   2.869  44.906  13.862
36212W        W 8538   8.197  31.532  10.590
36213W        W 8539  11.853  37.362   3.745
36214W        W 8540  37.911   8.840  14.448
36215W        W 8541  25.503  37.960  12.376
36216W        W 8542  32.526  24.211  13.530
36217W        W 8543  25.639  32.494   3.335
36218W        W 8544   2.966  25.620   4.753
36219W        W 8545  22.027  18.285  11.580
36220W        W 8546  38.907  32.937  14.932
36221W        W 8547   3.256  42.908  11.525
36222W        W 8548  42.825  41.869  12.895
36223W        W 8549   4.344  23.597   2.247
36224W        W 8550   4.356  41.848   1.834
36225W        W 8551   8.264  20.082  11.868
36226W        W 8552  14.320  12.147   4.632
36227W        W 8553   6.730  35.945  12.473
36228W        W 8554  20.743  19.160   2.864
36229W        W 8555  23.172  11.801  11.599
36230W        W 8556  26.458  27.670  12.413
36231W        W 8557  33.112  17.184   2.723
36232W        W 8558  33.956  33.893   2.725
36233W        W 8559   7.185  17.696  13.994
36234W        W 8560  38.019  20.236   2.318
36235W        W 8561  33.012  23.989  10.991
36236W        W 8562   2.941  15.282   2.689
36237W        W 8563  16.735  11.174   1.428
36238W        W 8564   0.311  20.037  14.332
36239W        W 8565  29.459  17.152  12.968
36240W        W 8566   9.763  35.943  11.586
36241W        W 8567  18.611  31.929   5.166
36242W        W 8568  38.933   7.811  12.854
36243W        W 8569  38.995   1.410   3.811
36244W        W 8570   8.841  36.392  14.399
36245W        W 8571   3.945  39.449   2.286
36246W        W 8572   9.209  28.486   0.442
36247W        W 8573  34.578  34.413   2.691
36248W        W 8574  27.973  12.840   3.698
36249W        W 8575  31.527  36.507  12.417
36250W        W 8576   0.792  14.277   1.288
36251W        W 8577  12.212   0.760   1.700
36252W        W 8578  31.898  20.101   0.306
36253W        W 8579  28.110   5.210   0.778
36254W        W 8580  31.631  32.404  11.594
36255W        W 8581  30.121   2.727  10.571
36256W        W 8582  43.351  28.450  12.571
36257W        W 8583  40.030  26.515  11.441
36258W        W 8584  34.516  16.716  11.979
36259W        W 8585  25.071  38.037  11.390
36260W        W 8586  38.352  39.320  13.050
36261W        W 8587   6.382  39.938  12.351
36262W        W 8588  31.139  22.137   3.267
36263W        W 8589  31.451  28.975  11.516
36264W        W 8590  13.710  25.207   3.699
36265W        W 8591  14.743  12.835   3.153
36266W        W 8592  39.887  41.975   4.161
36267W        W 8593   7.841  36.555  12.081
36268W        W 8594  22.581  35.998   3.328
36269W        W 8595   2.795  39.387   3.740
36270W        W 8596   4.240  16.095   4.823
36271W        W 8597  22.109  21.107   3.696
36272W        W 8598  13.831   0.863  12.564
36273W        W 8599  11.224  23.685   0.391
36274W        W 8600  25.565  40.485   3.287
36275W        W 8601  37.042  29.575   1.918
36276W        W 8602  18.617  26.112  14.297
36277W        W 8603  12.780  43.397   2.218
36278W        W 8604   3.834  21.732   9.555
36279W        W 8605   4.761  24.656  12.456
36280W        W 8606  40.049   3.448  11.594
36281W        W 8607  32.553  33.585  11.933
36282W        W 8608  21.244  39.436   3.846
36283W        W 8609  36.374  36.482  11.054
36284W        W 8610  32.527  12.781  14.826
36285W        W 8611  15.301   2.786  14.773
36286W        W 8612  20.671   5.368  14.879
36287W        W 8613   1.395  40.468  13.022
36288W        W 8614  33.521  18.595   2.382
36289W        W 8615   9.733  39.530  12.484
36290W        W 8616  15.634  19.175   2.191
36291W        W 8617  38.340  26.550  10.505
36292W        W 8618   9.648   5.366   2.257
36293W        W 8619  33.488  12.162  14.778
36294W        W 8620  44.003   2.298   3.766
36295W        W 8621  31.439  38.392  10.625
36296W        W 8622  22.998  22.053   1.710
36297W        W 8623  19.205  15.740  12.373
36298W        W 8624  12.340  23.174  11.496
36299W        W 8625  42.504  21.262  12.410
36300W        W 8626  21.583  36.515  11.905
36301W        W 8627  14.740  35.902   0.733
36302W        W 8628   4.723   7.376   2.314
36303W        W 8629  13.161   2.960  10.548
36304W        W 8630   8.217  43.919  14.032
36305W        W 8631   3.351  14.665  10.979
36306W        W 8632  17.076  43.849  14.797
36307W        W 8633  12.288   3.457  13.331
36308W        W 8634  12.773  16.707  14.809
36309W        W 8635   0.943  10.179   4.637
36310W        W 8636  24.180  36.413   3.785
36311W        W 8637  24.714  12.334   0.480
36312W        W 8638  27.609  40.876  11.075
36313W        W 8639  35.496   1.875  14.985
36314W        W 8640  44.996  39.507  13.362
36315W        W 8641  41.036  23.096   1.225
36316W        W 8642  28.616   1.816  11.032
36317W        W 8643  13.805  39.915  14.476
36318W        W 8644  40.984  26.045  11.419
36319W        W 8645  32.398   8.379   4.238
36320W        W 8646  43.798  17.165   3.815
36321W        W 8647  29.052  16.627   3.695
36322W        W 8648   4.225  28.036  11.581
36323W        W 8649  12.744  13.778  11.496
36324W        W 8650  16.669  10.348  13.833
36325W        W 8651  18.550   6.919   0.759
36326W        W 8652   4.914  15.620   0.874
36327W        W 8653  35.057  23.012  13.433
36328W        W 8654  32.491  29.137  14.313
36329W        W 8655  35.041  17.604   1.834
36330W        W 8656   3.379  34.607  12.932
36331W        W 8657  21.601  14.216  14.831
36332W        W 8658  38.505  33.547   1.824
36333W        W 8659  18.556  28.480   3.733
36334W        W 8660  38.487  43.320  11.054
36335W        W 8661  16.163  42.363  12.049
36336W        W 8662  33.531   7.833   0.402
36337W        W 8663  23.028  16.230   3.671
36338W        W 8664   9.378  15.232  11.945
36339W        W 8665  39.009  17.271  13.441
36340W        W 8666  36.476  44.768  12.944
36341W        W 8667   5.310  20.565   0.892
36342W        W 8668  34.374   1.740   4.677
36343W        W 8669  44.842   6.790  14.803
36344W        W 8670   6.899  18.627   3.328
36345W        W 8671  35.544  29.097  12.484
36346W        W 8672  40.971  15.098  14.835
36347W        W 8673   8.208  42.376   2.873
36348W        W 8674  16.247  22.548  12.962
36349W        W 8675  37.960  22.662  12.494
36350W        W 8676  30.425  34.047  12.050
36351W        W 8677  18.588   8.255   0.896
36352W        W 8678  11.354  39.013  11.887
36353W        W 8679  13.159  21.207  10.004
36354W        W 8680   3.415  41.796   2.370
36355W        W 8681  26.630   8.403   0.317
36356W        W 8682   5.760   8.812   1.249
36357W        W 8683  40.414  12.814   4.656
36358W        W 8684  15.601   0.439   2.195
36359W        W 8685  21.158   9.702   4.651
36360W        W 8686  42.386  33.578   1.828
36361W        W 8687  20.709  16.739   1.915
36362W        W 8688  34.116  43.956   2.187
36363W        W 8689  41.429  36.957   2.900
36364W        W 8690  33.103  38.874   1.697
36365W        W 8691  15.180  33.624  12.562
36366W        W 8692  18.726   3.801   2.833
36367W        W 8693  15.292  13.677  10.638
36368W        W 8694   6.813  33.968   4.658
36369W        W 8695  10.340   8.717   2.200
36370W        W 8696   7.362  23.185   3.822
36371W        W 8697   0.900  16.155  11.398
36372W        W 8698  21.578  16.248  14.458
36373W        W 8699  18.146  12.213  14.027
36374W        W 8700  22.052  13.698  11.425
36375W        W 8701  34.924  37.564  14.288
36376W        W 8702  15.306  39.538   2.181
36377W        W 8703   3.850  12.810   2.819
36378W        W 8704  29.639   3.385  12.060
36379W        W 8705  21.043   0.291   0.778
36380W        W 8706  43.459  24.696   1.419
36381W        W 8707   4.388   9.650   0.916
36382W        W 8708  29.143  16.163   0.454
36383W        W 8709   2.923  34.982  11.553
36384W        W 8710   9.873  38.468   3.711
36385W        W 8711  33.528  16.686   0.302
36386W        W 8712  42.883   2.344  12.535
36387W        W 8713  43.388  28.465  13.794
36388W        W 8714  31.983  22.052   1.915
36389W        W 8715  13.197  41.418   1.344
36390W        W 8716  26.971   1.808   4.727
36391W        W 8717   3.881  42.990   2.829
36392W        W 8718  10.781  37.368  13.899
36393W        W 8719  42.860   6.682  12.392
36394W        W 8720  38.515  13.204   2.397
36395W        W 8721  14.254  24.203   2.751
36396W        W 8722  15.265  29.463   1.306
36397W        W 8723  14.331  44.870  13.497
36398W        W 8724  29.538   4.862   4.770
36399W        W 8725  14.098  30.597  11.998
36400W        W 8726  30.426  33.527  14.908
36401W        W 8727  15.822  16.092  13.350
36402W        W 8728  12.329  36.086  11.875
36403W        W 8729  19.648  30.431  13.309
36404W        W 8730  31.603  38.071   4.817
36405W        W 8731  43.302  17.568  14.308
36406W        W 8732  24.081  15.642   2.363
36407W        W 8733   8.864  40.508   1.276
36408W        W 8734  22.633  42.997  14.912
36409W        W 8735  18.142  39.003  13.061
36410W        W 8736  44.293  20.541   3.719
36411W        W 8737  34.924   0.853   3.185
36412W        W 8738  21.526  28.096   1.818
36413W        W 8739  27.664  41.042  11.565
36414W        W 8740   1.373  15.587  14.001
36415W        W 8741  26.021  41.003  13.350
36416W        W 8742   9.218  14.629  11.948
36417W        W 8743  20.227  29.532  11.050
36418W        W 8744  23.541  39.432  11.452
36419W        W 8745   7.869  33.513   1.800
36420W        W 8746  29.005  21.240  12.537
36421W        W 8747   7.210  32.527  12.954
36422W        W 8748  32.516  37.025  13.909
36423W        W 8749  41.864  40.307   4.792
36424W        W 8750  30.082  38.405   2.687
36425W        W 8751  18.114  34.868   0.430
36426W        W 8752   1.468   7.369   1.702
36427W        W 8753  41.005  20.092   2.721
36428W        W 8754  12.172  18.737   0.822
36429W        W 8755  12.198  30.029  11.989
36430W        W 8756  42.779  24.202  14.485
36431W        W 8757  12.627  24.567  10.418
36432W        W 8758   7.249  44.484   2.739
36433W        W 8759  11.277   6.262   1.811
36434W        W 8760  18.663  34.938   1.810
36435W        W 8761  39.457  32.134  12.480
36436W        W 8762  34.466  37.050   9.647
36437W        W 8763  29.631  39.063   1.374
36438W        W 8764  20.237  32.064   0.889
36439W        W 8765  18.683  25.106   4.125
36440W        W 8766   0.280  34.056   3.748
36441W        W 8767  41.293  15.303  12.083
36442W        W 8768  42.843  21.181  13.893
36443W        W 8769   8.859  31.942  13.965
36444W        W 8770  26.088  36.976   2.748
36445W        W 8771  36.088  10.776  10.074
36446W        W 8772  35.943   1.312   4.754
36447W        W 8773  40.341  32.547   3.229
36448W        W 8774  24.624  43.866   4.657
36449W        W 8775   0.275   4.223  14.416
36450W        W 8776  36.462  34.954   9.606
36451W        W 8777  44.289  37.993   0.778
36452W        W 8778  24.167  39.431  10.019
36453W        W 8779  13.140  18.119  12.343
36454W        W 8780   4.877  36.367   3.233
36455W        W 8781   4.744  14.596  12.080
36456W        W 8782  21.607  23.494   4.660
36457W        W 8783  39.498   9.686   0.881
36458W        W 8784  27.680  17.287   4.761
36459W        W 8785   2.812  35.495   0.422
36460W        W 8786  43.020  27.131   4.768
36461W        W 8787  29.128   2.917  13.357
36462W        W 8788   1.264  24.001  13.502
36463W        W 8789  15.192   2.898  10.492
36464W        W 8790  34.408  22.162  13.049
36465W        W 8791   9.381   7.866  10.420
36466W        W 8792  42.801   4.742   5.156
36467W        W 8793  18.130  23.035   3.301
36468W        W 8794  42.282  14.689  12.966
36469W        W 8795  38.894   4.235  11.968
36470W        W 8796  28.160  37.379   4.241
36471W        W 8797   2.383  40.835  13.521
36472W        W 8798  15.105  13.735   1.859
36473W        W 8799  35.551  15.322   4.186
36474W        W 8800  11.318   2.235   0.263
36475W        W 8801   3.845  14.662  12.371
36476W        W 8802   5.919  38.052   1.810
36477W        W 8803  39.007  17.232   1.774
36478W        W 8804  25.522  30.577   5.249
36479W        W 8805  41.017  24.541  14.957
36480W        W 8806  16.739  27.995  13.896
36481W        W 8807  25.986  31.928  10.948
36482W        W 8808  38.076  20.088  13.464
36483W        W 8809  20.221  35.416   4.652
36484W        W 8810  31.997   4.330   0.450
36485W        W 8811  12.649  21.676   4.234
36486W        W 8812  21.185  18.787   0.385
36487W        W 8813   1.321   4.381  10.580
36488W        W 8814  44.861  40.896   3.830
36489W        W 8815  26.672  20.711  10.511
36490W        W 8816  38.359  38.529   0.327
36491W        W 8817   5.312  26.665   4.608
36492W        W 8818  33.917  41.443  13.929
36493W        W 8819   4.702  28.066  13.397
36494W        W 8820   6.391  22.149  14.334
36495W        W 8821  21.037  26.495  12.530
36496W        W 8822   3.400  26.130  14.388
36497W        W 8823  31.487  41.877   0.802
36498W        W 8824  27.940   5.325  11.527
36499W        W 8825  18.699   7.176  10.931
36500W        W 8826  36.953  28.012   3.281
36501W        W 8827  10.175  39.815  14.322
36502W        W 8828  38.495  36.046   0.426
36503W        W 8829  26.033   0.779  12.898
36504W        W 8830   6.387  26.126   1.300
36505W        W 8831  42.417   6.393  12.035
36506W        W 8832   5.735  19.199   1.343
36507W        W 8833  14.823   7.266   1.384
36508W        W 8834  16.622   9.174  10.614
36509W        W 8835  10.706   3.354  12.509
36510W        W 8836  13.767  36.517  13.963
36511W        W 8837  37.029  10.343   1.886
36512W        W 8838   5.759  17.114   0.329
36513W        W 8839   9.224  39.817  13.820
36514W        W 8840  22.013  37.073  11.517
36515W        W 8841   2.733   5.239  13.819
36516W        W 8842  31.480  15.660   1.243
36517W        W 8843  34.980  32.054  10.424
36518W        W 8844  34.887  27.014  11.993
36519W        W 8845  40.442  22.223  14.893
36520W        W 8846  11.822  43.764   3.362
36521W        W 8847  38.896  40.833  12.907
36522W        W 8848  44.492  30.041  11.610
36523W        W 8849  24.139  33.913  13.870
36524W        W 8850   3.872   5.863   4.122
36525W        W 8851  30.022  17.567  10.951
36526W        W 8852  13.723  28.553  14.384
36527W        W 8853  37.567  12.775  10.565
36528W        W 8854  12.738  41.472   4.605
36529W        W 8855  25.492  26.546   0.390
36530W        W 8856  37.086  35.021   3.363
36531W        W 8857  15.663   5.262   2.715
36532W        W 8858   9.817  35.100  13.442
36533W        W 8859  13.718  13.303  12.088
36534W        W 8860  19.662  26.032   4.255
36535W        W 8861   2.848   5.362  14.323
36536W        W 8862  12.362  14.608   2.715
36537W        W 8863  23.653  24.976   0.433
36538W        W 8864  42.458   0.275  14.881
36539W        W 8865  42.844   6.218  10.490
36540W        W 8866   4.728  34.920  12.443
36541W        W 8867  36.489  37.510   2.267
36542W        W 8868  27.551  16.169  14.367
36543W        W 8869  23.662  38.997   9.995
36544W        W 8870  40.426   8.829  12.497
36545W        W 8871  38.934  12.818  14.925
36546W        W 8872  31.477  44.442   1.350
36547W        W 8873  34.950  15.823  10.988
36548W        W 8874  36.462  14.764   0.364
36549W        W 8875  41.422  35.954   3.666
36550W        W 8876   5.739  13.624  10.981
36551W        W 8877  31.012  31.131  10.631
36552W        W 8878  21.729  29.560   1.306
36553W        W 8879  25.713  18.213  14.871
36554W        W 8880   0.490  22.589   3.183
36555W        W 8881  29.969  11.259  13.888
36556W        W 8882   5.866  23.074  12.500
36557W        W 8883  35.975  23.635   0.888
36558W        W 8884  30.506  34.441   0.347
36559W        W 8885  24.001   6.869  10.476
36560W        W 8886  10.878  39.499  11.924
36561W        W 8887  40.022   6.309   4.257
36562W        W 8888  44.974  21.683   0.376
36563W        W 8889  21.758  12.701  13.435
36564W        W 8890  37.540  40.022  10.469
36565W        W 8891  11.783   3.719   0.760
36566W        W 8892  21.740  18.578  10.962
36567W        W 8893  22.165   5.388  12.831
36568W        W 8894  19.253   4.397   2.293
36569W        W 8895  36.432  25.528  10.425
36570W        W 8896   8.375  15.822   4.159
36571W        W 8897  12.334  37.535  13.443
36572W        W 8898  44.397   9.240  13.961
36573W        W 8899  15.238   2.360   1.362
36574W        W 8900   7.860   1.747   1.213
36575W        W 8901   5.837  18.135  10.445
36576W        W 8902  43.500  18.157  11.506
36577W        W 8903  16.172  37.860   4.282
36578W        W 8904  11.355   5.308   2.708
36579W        W 8905  15.695  44.925   1.323
36580W        W 8906  19.599  44.983   3.347
36581W        W 8907  14.195  32.543   0.393
36582W        W 8908   0.371  14.341   0.799
36583W        W 8909  22.175  21.088  11.033
36584W        W 8910  28.053   7.830   5.309
36585W        W 8911  37.408  25.996  10.616
36586W        W 8912  35.916   9.211  11.040
36587W        W 8913   8.663  18.122   3.630
36588W        W 8914  37.855  35.417  12.872
36589W        W 8915  25.078  20.100   0.294
36590W        W 8916  12.118   2.433   3.789
36591W        W 8917  42.910  40.344  13.901
36592W        W 8918  13.658  40.806  12.059
36593W        W 8919  19.627  34.034   2.190
36594W        W 8920   5.402  14.157  10.910
36595W        W 8921  31.571  11.653   2.190
36596W        W 8922  16.606  16.700   4.604
36597W        W 8923  37.084  41.449  13.506
36598W        W 8924  11.371  22.697   0.272
36599W        W 8925  13.748  35.998   1.904
36600W        W 8926   5.222  18.664  11.442
36601W        W 8927  12.199  39.997   2.696
36602W        W 8928   9.768   7.833   3.281
36603W        W 8929  41.393  11.339   0.913
36604W        W 8930   5.317  15.688   3.188
36605W        W 8931   6.325  17.105   1.332
36606W        W 8932  20.037  25.498  12.931
36607W        W 8933  25.216   4.207   0.948
36608W        W 8934  33.549  27.140  13.525
36609W        W 8935  14.688  25.123   2.723
36610W        W 8936   2.421  20.638   0.954
36611W        W 8937   7.889  10.335   2.336
36612W        W 8938  36.348   4.702  10.478
36613W        W 8939  29.575  14.156   1.210
36614W        W 8940  23.093  10.854  11.539
36615W        W 8941  42.865   3.401  13.371
36616W        W 8942   2.769  12.235  10.440
36617W        W 8943  38.475   1.282  10.458
36618W        W 8944  17.116  19.695  13.010
36619W        W 8945   9.874  15.786   4.178
36620W        W 8946  25.120  20.557   1.281
36621W        W 8947  14.822  31.508  11.588
36622W        W 8948  10.346  14.153  10.545
36623W        W 8949  34.082  27.681   3.843
36624W        W 8950  26.500  18.755  12.834
36625W        W 8951   3.433   4.206   2.353
36626W        W 8952  16.119  22.119   1.742
36627W        W 8953  35.549   2.233  14.508
36628W        W 8954   9.870  11.242   2.901
36629W        W 8955  28.968  15.606  12.544
36630W        W 8956  25.679  23.016  13.823
36631W        W 8957  12.741  18.691  13.945
36632W        W 8958   4.317  18.192  13.415
36633W        W 8959  43.901  32.038  11.509
36634W        W 8960  18.759  24.671  10.988
36635W        W 8961  41.943  26.136   1.355
36636W        W 8962  27.497  10.741  13.904
36637W        W 8963  33.534  34.438  12.868
36638W        W 8964  12.742  24.981  10.548
36639W        W 8965  13.139  38.997  10.597
36640W        W 8966   9.357  35.026  12.014
36641W        W 8967   5.262   6.246  12.940
36642W        W 8968  40.326  13.258   3.170
36643W        W 8969  37.451   5.795  10.059
36644W        W 8970  32.627  20.717   1.733
36645W        W 8971  41.411  26.638  12.954
36646W        W 8972  20.041  11.323  13.948
36647W        W 8973  35.519  34.002   2.301
36648W        W 8974  27.642  19.243   0.371
36649W        W 8975  29.518   3.369  12.536
36650W        W 8976  42.024  10.877   4.189
36651W        W 8977  19.119  40.480  11.886
36652W        W 8978  41.851  39.348   3.724
36653W        W 8979  15.743  39.509  12.080
36654W        W 8980  40.472   1.965   2.222
36655W        W 8981  16.106  36.859  13.342
36656W        W 8982   6.692  11.751  13.395
36657W        W 8983  27.637  13.759   0.777
36658W        W 8984  10.727  25.608   3.829
36659W        W 8985   7.381  35.104   4.310
36660W        W 8986   9.696  23.181   1.226
36661W        W 8987  26.137  30.912   2.326
36662W        W 8988  44.946  20.144  12.368
36663W        W 8989  37.081  20.035  14.929
36664W        W 8990   7.193   1.946   1.422
36665W        W 8991  21.258  20.529   4.767
36666W        W 8992   0.374  31.036  13.800
36667W        W 8993   3.393   0.796   2.413
36668W        W 8994  24.580   4.412   0.771
36669W        W 8995   1.870   5.868  10.407
36670W        W 8996  10.636   0.856  12.525
36671W        W 8997  41.391  31.051  11.868
36672W        W 8998  16.221  41.306   3.770
36673W        W 8999  38.461  31.099  14.017
36674W        W 9000  36.083  28.100   3.641
36675W        W 9001  12.257  32.518   0.340
36676W        W 9002  36.900  36.478  14.799
36677W        W 9003  29.593   0.404   0.332
36678W        W 9004  23.551  39.505   3.148
36679W        W 9005   8.873  18.673  12.407
36680W        W 9006  14.803   0.947  12.518
36681W        W 9007  10.690  42.491   4.158
36682W        W 9008   6.255  41.502   0.352
36683W        W 9009  44.778  35.450   4.629
36684W        W 9010  33.112  14.166  12.883
36685W        W 9011  24.979  23.065   1.911
36686W        W 9012   7.893  27.553   3.373
36687W        W 9013  25.690  24.976   2.200
36688W        W 9014  31.485   9.315  13.928
36689W        W 9015  32.047   7.805   1.724
36690W        W 9016   8.802  40.428   2.702
36691W        W 9017  42.299  21.649  10.963
36692W        W 9018  24.029  43.893   2.868
36693W        W 9019  39.358  31.144   0.406
36694W        W 9020  14.227  18.738  10.535
36695W        W 9021  35.550  35.041  11.567
36696W        W 9022  23.131  22.118  13.952
36697W        W 9023   1.919  44.933  10.938
36698W        W 9024  11.725  34.466   4.804
36699W        W 9025  33.115  15.207   3.219
36700W        W 9026  21.552  28.450  14.369
36701W        W 9027  12.119   7.718  10.985
36702W        W 9028   4.359  13.231   4.778
36703W        W 9029  17.068  10.140   0.308
36704W        W 9030  13.283  27.508   1.300
36705W        W 9031   9.834   2.317  14.361
36706W        W 9032  21.724   5.768   2.861
36707W        W 9033  14.605   2.951   1.813
36708W        W 9034  18.187   0.283   2.192
36709W        W 9035  32.083  16.791   2.734
36710W        W 9036  21.078  41.030   2.232
36711W        W 9037  21.568  22.635   4.754
36712W        W 9038  10.204  29.602  14.766
36713W        W 9039  18.261  20.595  14.396
36714W        W 9040  33.480  12.228  11.916
36715W        W 9041   7.746   4.726   0.800
36716W        W 9042  36.480   1.809   0.823
36717W        W 9043  15.751  14.709  11.969
36718W        W 9044   6.373  30.571  13.430
36719W        W 9045   0.984  20.595   0.317
36720W        W 9046  24.004  44.854   0.726
36721W        W 9047  18.066  16.665  11.091
36722W        W 9048   4.424  21.549   4.825
36723W        W 9049  21.685  39.435  11.454
36724W        W 9050  15.149  14.720  13.969
36725W        W 9051  29.452  35.929   0.962
36726W        W 9052  31.539  30.590  11.547
36727W        W 9053  18.108  19.724   4.776
36728W        W 9054  31.470  11.748  14.029
36729W        W 9055   5.220   2.867  12.525
36730W        W 9056  19.243   5.881   1.257
36731W        W 9057  35.595  44.306  14.976
36732W        W 9058  34.970  26.678  11.537
36733W        W 9059  13.325  42.399  12.501
36734W        W 9060  30.628  33.942   2.832
36735W        W 9061  19.697   5.292   0.243
36736W        W 9062   0.915  25.604  11.609
36737W        W 9063  18.555   5.311   0.750
36738W        W 9064  14.791   5.788   0.791
36739W        W 9065  23.011   7.273   0.923
36740W        W 9066   6.756  29.005   2.859
36741W        W 9067  17.799   2.236  13.448
36742W        W 9068   8.882  21.153   4.245
36743W        W 9069   1.384   7.248  13.378
36744W        W 9070  34.523   7.910  14.915
36745W        W 9071  18.222  15.765   1.391
36746W        W 9072   3.826  44.350  12.000
36747W        W 9073  10.381  21.208   0.921
36748W        W 9074   5.432  33.531   2.762
36749W        W 9075   5.218  44.988   1.435
36750W        W 9076   5.274  40.307   2.192
36751W        W 9077  24.721  33.959  12.989
36752W        W 9078   9.818   6.857   3.845
36753W        W 9079  10.369  19.733  13.994
36754W        W 9080  42.506  10.331  12.837
36755W        W 9081  42.438  13.345  12.556
36756W        W 9082   5.253  22.183  12.884
36757W        W 9083   5.829   0.752  13.409
36758W        W 9084  40.876  40.919   3.306
36759W        W 9085  38.843  39.438   0.957
36760W        W 9086  39.027   1.940  12.950
36761W        W 9087  40.355  11.804  13.960
36762W        W 9088   3.915  29.106   1.914
36763W        W 9089   9.851  19.170   3.308
36764W        W 9090  13.215  10.147  13.964
36765W        W 9091  15.771  30.024   2.673
36766W        W 9092   9.742  10.353   4.618
36767W        W 9093   5.924  35.927   0.460
36768W        W 9094  20.551  41.817  10.947
36769W        W 9095  35.399  35.549  14.423
36770W        W 9096  34.429  35.572  12.874
36771W        W 9097  12.698  40.840  11.569
36772W        W 9098   9.758   4.832   2.243
36773W        W 9099   1.463  30.936   4.666
36774W        W 9100   0.975  41.974   4.271
36775W        W 9101  22.558  36.914   0.295
36776W        W 9102  31.600   4.417   2.822
36777W        W 9103  31.150   7.382   3.190
36778W        W 9104  35.438  40.472   3.282
36779W        W 9105  13.800   0.488   0.909
36780W        W 9106  25.080   6.819  12.553
36781W        W 9107  29.029  22.116  12.842
36782W        W 9108  20.202   0.899   4.200
36783W        W 9109  39.426  20.086   3.826
36784W        W 9110  25.607  22.187  14.785
36785W        W 9111  12.631  15.143  11.969
36786W        W 9112  10.670  43.467  14.936
36787W        W 9113  24.584   2.854   4.144
36788W        W 9114  43.967  16.724  13.538
36789W        W 9115  14.738  36.354  12.969
36790W        W 9116  27.171   0.439  13.995
36791W        W 9117  38.375  12.289   1.871
36792W        W 9118  11.289  19.566   4.698
36793W        W 9119  23.554   9.797  13.957
36794W        W 9120  23.492  26.201  11.950
36795W        W 9121  20.268   4.333   0.963
36796W        W 9122   3.815   2.252  11.512
36797W        W 9123   3.394  17.683  12.547
36798W        W 9124  36.436  18.605  14.295
36799W        W 9125  28.149  38.938   4.658
36800W        W 9126  11.641   4.909  13.453
36801W        W 9127   2.745  26.033   1.810
36802W        W 9128   7.373  26.681   4.216
36803W        W 9129   8.673  30.427  12.535
36804W        W 9130   0.907  41.417  12.446
36805W        W 9131   6.406   1.970  14.980
36806W        W 9132  22.583  26.096  13.874
36807W        W 9133  31.488   2.759   1.338
36808W        W 9134  38.883  13.759  11.006
36809W        W 9135  30.969  21.525  14.977
36810W        W 9136  25.149  32.061   1.701
36811W        W 9137  37.928  32.099   3.302
36812W        W 9138  37.577   8.768  11.437
36813W        W 9139  19.771  36.588   3.835
36814W        W 9140  29.482  33.959  13.834
36815W        W 9141  12.702  24.527  10.071
36816W        W 9142  15.218  18.606  13.945
36817W        W 9143  16.786   1.833   3.328
36818W        W 9144   0.332  34.102   0.288
36819W        W 9145  43.311   3.825  12.357
36820W        W 9146  26.615  26.480  14.351
36821W        W 9147  13.147  17.612  13.061
36822W        W 9148  25.537  24.564   2.867
36823W        W 9149   0.948  23.137  13.058
36824W        W 9150  14.603  33.932   1.214
36825W        W 9151  44.981  30.525  14.934
36826W        W 9152   8.367   7.844  14.502
36827W        W 9153   3.818   4.351   2.193
36828W        W 9154  44.471  28.091   5.257
36829W        W 9155   3.904  27.953   1.769
36830W        W 9156  10.834   7.328   4.643
36831W        W 9157  39.397   0.360  11.869
36832W        W 9158  40.995   6.272   1.913
36833W        W 9159  17.106   0.365   4.149
36834W        W 9160  30.117  12.180   0.412
36835W        W 9161  39.332  17.716  14.927
36836W        W 9162  24.542   5.196  13.970
36837W        W 9163   8.733  31.955   4.242
36838W        W 9164  40.385  16.810  11.466
36839W        W 9165  12.792  30.027   0.264
36840W        W 9166  28.639  44.922   1.826
36841W        W 9167   9.276  44.807   4.814
36842W        W 9168  17.271  44.262  13.949
36843W        W 9169  35.432  31.643   0.909
36844W        W 9170   0.433  10.145  14.014
36845W        W 9171   8.276  10.833   4.210
36846W        W 9172  31.915  21.260   0.255
36847W        W 9173  23.196  19.632   1.922
36848W        W 9174  29.589  23.672   3.665
36849W        W 9175  43.358  36.408  14.826
36850W        W 9176  39.536  28.165   3.869
36851W        W 9177  31.965  31.598   3.183
36852W        W 9178   9.729   9.704  10.637
36853W        W 9179  16.680  39.941   1.425
36854W        W 9180   4.391  39.043  14.789
36855W        W 9181  38.831  40.990   1.279
36856W        W 9182   4.894   3.406   3.798
36857W        W 9183  25.675  29.073   2.323
36858W        W 9184   8.313  39.004  11.896
36859W        W 9185  36.850   1.284  12.376
36860W        W 9186  22.704  33.441  14.510
36861W        W 9187  17.069  15.246   4.209
36862W        W 9188  41.984   7.303  14.766
36863W        W 9189  12.267  21.116   3.166
36864W        W 9190  10.368   1.401  13.417
36865W        W 9191  40.012  15.177  10.546
36866W        W 9192  42.453  22.127  13.798
36867W        W 9193  17.692  13.248  13.407
36868W        W 9194  17.251   3.302  14.949
36869W        W 9195   4.422  34.604   4.835
36870W        W 9196  31.149  21.519   1.212
36871W        W 9197  43.321  11.757   1.803
36872W        W 9198   6.285  21.068  14.454
36873W        W 9199  10.148  44.448   3.643
36874W        W 9200  12.722  28.104  14.359
36875W        W 9201  38.545  43.383   1.369
36876W        W 9202  10.859  41.498  10.521
36877W        W 9203   8.788  24.979  13.942
36878W        W 9204  14.789  31.450  10.412
36879W        W 9205  17.145   5.414   1.908
36880W        W 9206  27.991  15.607  12.916
36881W        W 9207  35.025  34.099  13.340
36882W        W 9208  22.726  19.571  11.525
36883W        W 9209   9.839  19.168   4.637
36884W        W 9210  42.815   3.896  12.032
36885W        W 9211  35.587  32.970  14.297
36886W        W 9212  39.473  42.400   1.405
36887W        W 9213  32.629  33.129  10.610
36888W        W 9214  43.807  31.021  12.058
36889W        W 9215  12.615   8.707   1.776
36890W        W 9216  44.971  41.310  13.322
36891W        W 9217  37.465   8.321  13.412
36892W        W 9218  18.649  26.638   3.760
36893W        W 9219  43.406  44.486  13.486
36894W        W 9220  37.352   6.325  12.961
36895W        W 9221   3.413  25.472   0.846
36896W        W 9222  43.998  23.498  11.427
36897W        W 9223  12.702  32.009   4.304
36898W        W 9224  13.319  14.098  12.492
36899W        W 9225  14.738  37.979   3.743
36900W        W 9226  21.119  39.881  10.100
36901W        W 9227  33.035  41.468  13.795
36902W        W 9228  15.685  15.713   0.814
36903W        W 9229  31.097   7.855  10.969
36904W        W 9230  39.905  29.093   3.718
36905W        W 9231  28.544  31.078  11.391
36906W        W 9232  30.959  31.030   1.397
36907W        W 9233  26.041  20.184   0.903
36908W        W 9234   9.674  29.585  13.514
36909W        W 9235  18.242  24.060   1.747
36910W        W 9236  12.206  44.478   0.795
36911W        W 9237   1.431  21.222   0.799
36912W        W 9238  31.139  23.039   1.767
36913W        W 9239   8.332   4.856   0.458
36914W        W 9240  12.741  38.413  14.930
36915W        W 9241  27.452  15.175  14.504
36916W        W 9242   0.305   3.798  10.505
36917W        W 9243  16.573   1.271   0.882
36918W        W 9244   6.806   1.887  12.839
36919W        W 9245   3.433  16.209  14.874
36920W        W 9246  41.984  32.615  10.528
36921W        W 9247  20.157   1.928  14.373
36922W        W 9248   7.311  37.014  12.954
36923W        W 9249   3.811   9.258   2.899
36924W        W 9250  10.335  15.712   5.278
36925W        W 9251  43.342  23.111  14.317
36926W        W 9252  15.125  37.558   4.282
36927W        W 9253  33.940   2.792  12.956
36928W        W 9254   9.259  18.641   2.281
36929W        W 9255   5.701  43.964  14.488
36930W        W 9256  10.149  10.366  12.964
36931W        W 9257  11.370  26.485   4.290
36932W        W 9258   9.266  11.643  14.299
36933W        W 9259  20.173  30.986  11.083
36934W        W 9260  38.555   8.184   2.872
36935W        W 9261  11.197   2.425   2.354
36936W        W 9262  16.580   4.829  10.931
36937W        W 9263  40.964  16.202   2.398
36938W        W 9264   8.172  10.737  13.931
36939W        W 9265  14.303  21.061   1.723
36940W        W 9266  18.766  29.941  14.812
36941W        W 9267   5.313  20.202   4.727
36942W        W 9268  17.731  23.732  11.406
36943W        W 9269  20.085  18.572   1.708
36944W        W 9270   5.209   5.903  12.945
36945W        W 9271   8.244  37.831  13.341
36946W        W 9272   6.316  33.588   3.861
36947W        W 9273  17.114  10.231  13.414
36948W        W 9274  20.563  17.726   0.962
36949W        W 9275  40.913  26.113  10.944
36950W        W 9276  26.198  17.263   9.565
36951W        W 9277  12.277  33.600   0.962
36952W        W 9278   3.792   4.366   0.431
36953W        W 9279  21.527  33.015  13.341
36954W        W 9280  16.773  40.880  14.015
36955W        W 9281  34.018   4.856  11.461
36956W        W 9282  31.407  30.153  12.565
36957W        W 9283   9.348   9.256   1.789
36958W        W 9284  25.112  44.491  13.476
36959W        W 9285  37.920  24.695  13.956
36960W        W 9286  21.644  39.860  11.095
36961W        W 9287   4.405  30.594  10.626
36962W        W 9288   4.776  10.680   3.696
36963W        W 9289  11.697  32.959   1.873
36964W        W 9290   8.232  32.096  14.512
36965W        W 9291  43.942  26.580  12.883
36966W        W 9292  41.467  18.584  10.411
36967W        W 9293   2.777  20.075   4.673
36968W        W 9294   6.227  14.793  13.539
36969W        W 9295  21.566  28.082   4.728
36970W        W 9296  18.074  11.201   4.299
36971W        W 9297   9.858  18.565  10.995
36972W        W 9298  33.386  15.753   4.347
36973W        W 9299   2.424  19.686  10.977
36974W        W 9300   9.204  29.526   2.287
36975W        W 9301  18.600  10.668  11.925
36976W        W 9302  10.855   1.303  11.420
36977W        W 9303  34.023  27.072  13.513
36978W        W 9304  28.480  20.540  14.826
36979W        W 9305  29.131  30.018   1.420
36980W        W 9306   5.734   4.758  11.527
36981W        W 9307   1.248  38.426  12.451
36982W        W 9308  35.982   9.669   1.263
36983W        W 9309  42.403   2.272   1.752
36984W        W 9310  12.332  10.155  10.962
36985W        W 9311  33.905  44.924  14.856
36986W        W 9312  43.869  27.665   2.685
36987W        W 9313   6.794  42.385  10.531
36988W        W 9314  15.657   5.365   2.224
36989W        W 9315  11.683   9.879  10.509
36990W        W 9316   7.815  10.651   2.273
36991W        W 9317  44.467  31.024   9.936
36992W        W 9318  43.417  17.089  11.511
36993W        W 9319  27.549  29.474   1.787
36994W        W 9320   4.375   1.263  11.388
36995W        W 9321   9.362   9.386  10.887
36996W        W 9322  35.058   7.170   0.453
36997W        W 9323  12.800  29.061  13.903
36998W        W 9324  38.010   8.882   3.643
36999W        W 9325  35.517  23.534   2.419
37000W        W 9326  35.068  11.297  11.027
37001W        W 9327  26.670   9.766  11.932
37002W        W 9328  24.712  38.392   3.177
37003W        W 9329  17.290  30.929   0.894
37004W        W 9330  39.826  27.447   0.904
37005W        W 9331   4.371  13.636  12.852
37006W        W 9332  18.738  29.538   3.807
37007W        W 9333  42.778  36.062  13.874
37008W        W 9334  31.078  27.164  11.531
37009W        W 9335  42.820  28.621  11.429
37010W        W 9336  28.133   2.816  11.032
37011W        W 9337  41.329  27.016   2.712
37012W        W 9338  28.481   0.378   0.832
37013W        W 9339  27.646  10.172   2.359
37014W        W 9340   5.814  12.706  12.041
37015W        W 9341   1.390  30.968  13.002
37016W        W 9342   0.960  39.329  14.359
37017W        W 9343  27.080   8.775   0.417
37018W        W 9344  38.551   7.354  11.978
37019W        W 9345   3.255  31.417   1.813
37020W        W 9346   7.809   1.418  14.298
37021W        W 9347  15.703   1.904   1.250
37022W        W 9348  27.033  19.749  14.942
37023W        W 9349   4.865  32.042   3.293
37024W        W 9350  11.278  26.607   9.640
37025W        W 9351   7.285   7.233  14.819
37026W        W 9352  20.760  29.075  12.428
37027W        W 9353   1.414  34.013  11.883
37028W        W 9354  36.459  26.070   1.289
37029W        W 9355  11.641   4.374  11.862
37030W        W 9356  39.059   4.719  14.290
37031W        W 9357  28.480  44.310   3.836
37032W        W 9358  20.033  27.127  14.844
37033W        W 9359   3.822  29.513   4.114
37034W        W 9360  32.885  37.960  12.922
37035W        W 9361   4.365  43.291   3.150
37036W        W 9362   0.400  40.945   1.388
37037W        W 9363  43.919   4.370   2.820
37038W        W 9364  23.558   4.708   1.433
37039W        W 9365  27.557   0.456   0.435
37040W        W 9366  14.137  40.000   3.183
37041W        W 9367  29.434  21.119  13.027
37042W        W 9368  12.699  13.313   3.234
37043W        W 9369   9.745   5.730  11.604
37044W        W 9370  15.129  15.270   3.720
37045W        W 9371  44.305  21.251  11.880
37046W        W 9372  25.527  29.625  11.494
37047W        W 9373  15.813  43.944   1.253
37048W        W 9374  43.955  28.156   4.277
37049W        W 9375  24.708  39.362   1.224
37050W        W 9376  19.586  12.633   3.643
37051W        W 9377  10.843  21.606  14.367
37052W        W 9378  34.096   0.748   3.676
37053W        W 9379  24.218   3.432  12.090
37054W        W 9380  27.020  40.538   1.253
37055W        W 9381   7.669   8.166   4.799
37056W        W 9382   9.874  38.469  12.527
37057W        W 9383   3.337  11.723   1.384
37058W        W 9384  20.604   0.759   1.306
37059W        W 9385  32.089  28.532  10.481
37060W        W 9386   3.944  15.812  14.967
37061W        W 9387   3.769  30.976  14.322
37062W        W 9388  24.643  11.185  13.998
37063W        W 9389   4.885  23.650  11.462
37064W        W 9390   6.830  11.686  11.987
37065W        W 9391  37.928  12.832   1.278
37066W        W 9392  19.762  36.084   4.322
37067W        W 9393  32.455  27.188   3.838
37068W        W 9394  34.405  14.803  11.857
37069W        W 9395   8.802  18.618  13.006
37070W        W 9396  26.487  15.161  11.020
37071W        W 9397  19.040   8.212   1.923
37072W        W 9398  31.054  39.029  10.427
37073W        W 9399   3.238   0.745  13.918
37074W        W 9400  27.092  36.891  12.412
37075W        W 9401  39.965  38.925  11.499
37076W        W 9402  18.703  33.979   3.367
37077W        W 9403  33.521   3.884   1.929
37078W        W 9404   3.954   1.273  10.488
37079W        W 9405  11.161  10.749   2.833
37080W        W 9406  22.651  28.008  12.451
37081W        W 9407  35.071  13.758  13.417
37082W        W 9408  20.043  16.607   2.397
37083W        W 9409  36.483  13.160  11.401
37084W        W 9410  32.887  27.108  14.967
37085W        W 9411  11.763  35.371   1.270
37086W        W 9412  14.739  43.769  14.506
37087W        W 9413  21.635  26.956   2.216
37088W        W 9414  15.648  29.551   3.203
37089W        W 9415  25.688  35.946  14.470
37090W        W 9416   9.252  31.917   5.191
37091W        W 9417  36.394   1.237  14.368
37092W        W 9418   2.342  39.469   2.222
37093W        W 9419  24.219  17.295   5.283
37094W        W 9420  34.933  36.453  14.798
37095W        W 9421  33.464   0.380  11.425
37096W        W 9422   7.308  27.542  10.535
37097W        W 9423   0.483  36.593  12.470
37098W        W 9424  10.237  32.971   5.140
37099W        W 9425  18.560  20.691   3.782
37100W        W 9426  19.677  21.656  10.511
37101W        W 9427  27.116  19.661  11.998
37102W        W 9428  10.200   6.900   2.396
37103W        W 9429  23.221  23.697   1.749
37104W        W 9430   4.205  12.787  12.900
37105W        W 9431  31.498  17.708   3.171
37106W        W 9432  41.998  25.669   1.806
37107W        W 9433  26.462   1.453   0.362
37108W        W 9434  39.513  37.474   0.319
37109W        W 9435  23.699  34.457  14.833
37110W        W 9436  15.136  42.300  10.559
37111W        W 9437   2.433  21.263  11.979
37112W        W 9438   2.911  26.656  13.826
37113W        W 9439  31.560   7.782   4.639
37114W        W 9440  23.997  27.515  12.547
37115W        W 9441  31.410  40.519   0.282
37116W        W 9442  40.520  39.324   1.754
37117W        W 9443  42.517  25.120  12.522
37118W        W 9444   3.225   2.397  12.049
37119W        W 9445   1.271  43.319  12.377
37120W        W 9446  18.677   5.899  10.033
37121W        W 9447  31.955  13.691  12.020
37122W        W 9448  22.564  39.983   5.578
37123W        W 9449  32.480   4.260   4.811
37124W        W 9450  18.611  29.627  10.927
37125W        W 9451  34.606  26.187  12.365
37126W        W 9452  18.768  20.223  12.006
37127W        W 9453  27.095  35.006   4.304
37128W        W 9454  42.380   5.691  13.911
37129W        W 9455   4.251  38.441  14.911
37130W        W 9456  10.820   7.873  14.899
37131W        W 9457  33.621  32.520   5.241
37132W        W 9458   8.255  17.287  14.403
37133W        W 9459  11.245  35.424   9.561
37134W        W 9460   1.454  29.437  11.094
37135W        W 9461   2.389   6.692  14.381
37136W        W 9462   5.695  42.366  11.581
37137W        W 9463  16.745  26.690  12.021
37138W        W 9464  12.663  13.813  13.939
37139W        W 9465  26.690  33.447   2.278
37140W        W 9466  42.033  34.946  13.002
37141W        W 9467  19.745  27.074  14.493
37142W        W 9468   3.866   6.801   3.174
37143W        W 9469  23.653  24.723  11.377
37144W        W 9470  15.738   2.226   1.770
37145W        W 9471  44.416  39.544  10.955
37146W        W 9472  20.229  13.305   4.779
37147W        W 9473  37.831   3.349   5.150
37148W        W 9474  42.363   3.849  13.927
37149W        W 9475   3.248  36.082  13.877
37150W        W 9476  36.956   3.863  14.391
37151W        W 9477  19.603  26.003  10.455
37152W        W 9478  36.997  21.527   2.178
37153W        W 9479   5.793  26.963  13.866
37154W        W 9480  31.942  29.638  13.481
37155W        W 9481   3.368  24.691  12.481
37156W        W 9482   6.813  12.702   3.699
37157W        W 9483  38.967  28.511   1.846
37158W        W 9484  30.634  16.155   1.848
37159W        W 9485   8.753   9.859   1.851
37160W        W 9486  38.402  41.531   2.184
37161W        W 9487  38.391  16.581  14.793
37162W        W 9488  11.222  15.175   4.611
37163W        W 9489  37.364  44.350   1.831
37164W        W 9490  23.086  43.361  10.962
37165W        W 9491  36.843  38.383  11.980
37166W        W 9492  20.653   8.736   4.219
37167W        W 9493  22.199  33.126  14.342
37168W        W 9494   7.322  30.513  13.854
37169W        W 9495  14.612  34.489  13.355
37170W        W 9496   1.781  25.538   2.404
37171W        W 9497   8.311  16.801  11.063
37172W        W 9498  16.632   5.813  14.414
37173W        W 9499   3.428  32.513   1.863
37174W        W 9500  38.991  18.676  11.048
37175W        W 9501  11.797   2.883  11.106
37176W        W 9502  23.996   4.906   4.806
37177W        W 9503   2.418  19.129   3.301
37178W        W 9504  37.543   5.424  11.566
37179W        W 9505  11.811  43.319   4.791
37180W        W 9506  32.617  17.163  12.847
37181W        W 9507   2.296  39.354  13.832
37182W        W 9508  42.802  41.514  14.494
37183W        W 9509  35.551   5.286  10.965
37184W        W 9510  29.632  23.588   0.282
37185W        W 9511  12.687  20.641   0.329
37186W        W 9512  13.182  42.338   2.738
37187W        W 9513  17.738   4.281  12.368
37188W        W 9514  14.199  40.016  12.900
37189W        W 9515  30.433  18.128   3.870
37190W        W 9516   3.721  14.626   1.736
37191W        W 9517  27.064  38.455  13.798
37192W        W 9518   0.965  17.239   4.258
37193W        W 9519  34.959  33.098  10.449
37194W        W 9520  35.998  18.674  13.832
37195W        W 9521   7.829  22.522   2.800
37196W        W 9522  32.892  16.154   1.869
37197W        W 9523  39.506  31.095  11.521
37198W        W 9524   5.285  11.186   2.721
37199W        W 9525  14.180  13.224   3.191
37200W        W 9526  14.738  31.513   2.267
37201W        W 9527  36.403  22.649   4.642
37202W        W 9528  25.042  10.863   2.736
37203W        W 9529  37.079   3.880  11.511
37204W        W 9530  12.336  15.160  13.527
37205W        W 9531   2.342  40.879  11.376
37206W        W 9532  33.989   8.305  13.419
37207W        W 9533  14.593  24.545   0.820
37208W        W 9534   0.362  33.952  14.332
37209W        W 9535  24.066  37.361  11.517
37210W        W 9536  20.740  19.699  12.938
37211W        W 9537   9.312   8.710   0.476
37212W        W 9538  35.516  16.125  14.797
37213W        W 9539   5.710  12.646  11.531
37214W        W 9540  17.125  24.212   2.788
37215W        W 9541   1.272  17.064   3.797
37216W        W 9542  11.651  24.489   5.179
37217W        W 9543  44.010  35.043   4.756
37218W        W 9544   1.793  43.477  10.635
37219W        W 9545  31.495   5.925   1.362
37220W        W 9546  36.383   3.875  10.437
37221W        W 9547  20.255  40.928   0.880
37222W        W 9548  22.114  34.552   2.200
37223W        W 9549   9.275  29.616   1.756
37224W        W 9550   8.309  32.475  11.378
37225W        W 9551  12.144  15.636  10.932
37226W        W 9552  26.680  19.085   1.317
37227W        W 9553  22.730  26.177  11.436
37228W        W 9554   6.766  39.033  13.505
37229W        W 9555   1.814  43.510   4.645
37230W        W 9556  18.705  41.358   3.196
37231W        W 9557  17.162  26.159  11.013
37232W        W 9558  22.092  44.420   0.399
37233W        W 9559  14.185  41.390   1.740
37234W        W 9560  24.667  16.671  10.014
37235W        W 9561  28.083  31.977   5.231
37236W        W 9562  38.864  44.894  13.515
37237W        W 9563   8.170  29.454   4.732
37238W        W 9564  22.229   8.352  11.025
37239W        W 9565  34.597   9.651  14.931
37240W        W 9566  33.039  11.860   0.812
37241W        W 9567  18.564  43.950   4.712
37242W        W 9568  27.526   5.269   0.930
37243W        W 9569  11.765  43.445  13.350
37244W        W 9570  11.829   4.894  10.962
37245W        W 9571  36.910  35.458  13.954
37246W        W 9572  14.622  14.762  14.843
37247W        W 9573  34.023  11.804   0.754
37248W        W 9574  25.582  44.475   3.691
37249W        W 9575  28.114   8.710   9.942
37250W        W 9576  13.842  38.906  10.935
37251W        W 9577  10.830  43.903   2.193
37252W        W 9578  25.188  20.718   4.215
37253W        W 9579  43.979   5.226   0.771
37254W        W 9580  13.287  33.040  13.902
37255W        W 9581  12.653  23.728  11.863
37256W        W 9582  22.674  18.665  12.920
37257W        W 9583   7.230  14.600  11.608
37258W        W 9584   2.932  25.172  12.403
37259W        W 9585   6.299  14.332  13.416
37260W        W 9586  43.769  15.111   3.718
37261W        W 9587  14.256  35.494   4.638
37262W        W 9588  23.097   4.392   0.331
37263W        W 9589   7.403  30.915  14.797
37264W        W 9590  16.117  20.743  13.427
37265W        W 9591  13.748   1.770  14.462
37266W        W 9592   8.252  30.565   4.153
37267W        W 9593  10.214  12.854   0.381
37268W        W 9594   4.418  20.636  12.909
37269W        W 9595   5.793  38.962  14.892
37270W        W 9596  39.523  15.181   1.756
37271W        W 9597  32.060  10.657   3.759
37272W        W 9598  10.726  38.515  11.918
37273W        W 9599   1.978  34.901   4.680
37274W        W 9600  10.681   1.895   3.870
37275W        W 9601   5.205  42.814  11.397
37276W        W 9602  38.937  17.154  13.987
37277W        W 9603  43.409  28.626   2.896
37278W        W 9604  31.026  43.012  13.318
37279W        W 9605  26.971  21.526  13.981
37280W        W 9606   7.715  42.853  13.537
37281W        W 9607   5.889  20.265  13.490
37282W        W 9608  34.926  26.990   0.737
37283W        W 9609  25.205  34.972   1.752
37284W        W 9610   4.788  22.035   4.173
37285W        W 9611  11.191  18.728  10.488
37286W        W 9612  29.637  12.362   0.805
37287W        W 9613  35.086   1.765   1.442
37288W        W 9614  39.020  10.745   3.286
37289W        W 9615  26.113  31.449  12.372
37290W        W 9616  40.032  10.696  14.870
37291W        W 9617   4.233  43.291   1.437
37292W        W 9618  35.544  23.157  11.598
37293W        W 9619  42.924  21.219  14.279
37294W        W 9620   0.914   3.396  11.387
37295W        W 9621  26.128  33.957  11.993
37296W        W 9622  25.618   9.216  10.456
37297W        W 9623  12.205  23.051  11.967
37298W        W 9624  20.186   7.683   3.695
37299W        W 9625   7.741   2.362  13.525
37300W        W 9626  43.277  12.831  11.901
37301W        W 9627   7.187  41.493  14.922
37302W        W 9628  33.082  42.863   3.242
37303W        W 9629  32.892   8.725  10.618
37304W        W 9630   4.864  38.919  14.861
37305W        W 9631  28.929  33.063  11.887
37306W        W 9632  35.980  34.013   3.775
37307W        W 9633  34.495  18.263   2.322
37308W        W 9634  42.429  18.602   3.181
37309W        W 9635   5.292  23.010  12.953
37310W        W 9636  17.692  39.875   4.626
37311W        W 9637   4.284   5.342  14.814
37312W        W 9638   3.272  30.439  13.537
37313W        W 9639  35.932   2.860   0.743
37314W        W 9640   5.365   9.701  13.921
37315W        W 9641  36.892  23.499  10.617
37316W        W 9642  38.023  20.538  14.000
37317W        W 9643  44.416  18.232   3.249
37318W        W 9644  38.553  34.873   2.673
37319W        W 9645  13.194  42.516  14.382
37320W        W 9646  15.142  13.681   2.672
37321W        W 9647   5.235  37.878  14.927
37322W        W 9648  12.218   1.971  14.352
37323W        W 9649  35.023  17.211  14.790
37324W        W 9650  28.635  41.292  13.907
37325W        W 9651  27.448  24.529   2.833
37326W        W 9652  33.916  18.147  13.435
37327W        W 9653  27.490  39.517   2.751
37328W        W 9654  19.740  24.515  13.424
37329W        W 9655  16.319  34.500   0.425
37330W        W 9656   1.461  38.543  10.954
37331W        W 9657   0.466  13.264  12.047
37332W        W 9658  14.208  36.543   2.233
37333W        W 9659   8.667  19.749   0.412
37334W        W 9660  37.036   1.277   3.337
37335W        W 9661  34.462  33.891  14.361
37336W        W 9662  13.249  40.549   1.928
37337W        W 9663   9.678   9.353   3.254
37338W        W 9664  42.911  33.626   3.800
37339W        W 9665   5.301  33.907  10.429
37340W        W 9666  25.667   6.278   0.778
37341W        W 9667   3.854  32.887  10.470
37342W        W 9668   1.414  28.943   4.742
37343W        W 9669  43.511  38.382   4.130
37344W        W 9670   8.175   3.459   3.311
37345W        W 9671  18.257  36.090   0.330
37346W        W 9672  17.206  24.624  11.914
37347W        W 9673  38.348  40.394   4.229
37348W        W 9674  33.502  35.069   5.649
37349W        W 9675  29.423  44.308   2.392
37350W        W 9676  12.310   2.450  10.557
37351W        W 9677  23.585  40.400   1.790
37352W        W 9678  26.526  22.206   2.270
37353W        W 9679  19.775  14.106  13.528
37354W        W 9680  42.478  26.016  11.390
37355W        W 9681  34.017  42.394  10.545
37356W        W 9682  28.962  20.065   1.853
37357W        W 9683   7.254   4.877  13.038
37358W        W 9684   0.864   4.210  10.084
37359W        W 9685  19.615   7.316   1.896
37360W        W 9686  29.093   8.714  13.060
37361W        W 9687  20.085  41.842   0.407
37362W        W 9688  39.892  43.769   4.602
37363W        W 9689  24.594  10.251   2.891
37364W        W 9690  15.737  11.362  12.346
37365W        W 9691   2.821  42.392   1.429
37366W        W 9692   2.351   5.827   3.655
37367W        W 9693   8.665  35.988   0.346
37368W        W 9694  30.639  14.134   1.304
37369W        W 9695  12.615  33.005   3.194
37370W        W 9696   4.873  42.956   4.223
37371W        W 9697  10.808  15.642  12.573
37372W        W 9698   7.404  21.616   4.723
37373W        W 9699  25.979  15.692   2.180
37374W        W 9700  41.794   4.832   1.804
37375W        W 9701   0.822  37.079   2.890
37376W        W 9702  31.945  33.540  12.378
37377W        W 9703  11.811  23.141   2.866
37378W        W 9704  32.946  31.642   4.675
37379W        W 9705  24.076   9.220   0.875
37380W        W 9706  33.390   5.251  11.121
37381W        W 9707  32.948  35.496   2.761
37382W        W 9708  40.957  26.047   3.259
37383W        W 9709  14.631  32.065  11.510
37384W        W 9710  35.054  19.118  11.899
37385W        W 9711   5.406  17.727   0.873
37386W        W 9712   6.763  37.573  11.577
37387W        W 9713  38.822  25.605   0.760
37388W        W 9714  12.212  36.029  12.986
37389W        W 9715  38.335  41.420   2.776
37390W        W 9716  29.590  10.327  14.940
37391W        W 9717   4.835  28.648   4.690
37392W        W 9718   8.390  34.370  11.036
37393W        W 9719  23.690  37.436   3.766
37394W        W 9720  10.787  14.182   1.309
37395W        W 9721  40.828  42.339  10.553
37396W        W 9722  41.402  35.456  12.401
37397W        W 9723  17.231  24.163  10.637
37398W        W 9724   6.274  28.578  13.018
37399W        W 9725  15.168  38.071  14.379
37400W        W 9726  14.293  29.142   0.892
37401W        W 9727  36.970  19.546  13.369
37402W        W 9728  24.054   1.395   3.837
37403W        W 9729  32.887   7.203  13.002
37404W        W 9730  20.253  11.769   3.819
37405W        W 9731  18.183  43.801   4.661
37406W        W 9732  40.317  37.917   4.810
37407W        W 9733  26.566  20.554   3.800
37408W        W 9734  37.371  43.791  12.078
37409W        W 9735  28.617  44.300   2.307
37410W        W 9736   1.857  32.633   1.256
37411W        W 9737  34.544  30.119   1.360
37412W        W 9738  18.150  42.841  12.979
37413W        W 9739  30.971  22.116   2.879
37414W        W 9740   0.434   3.862  11.920
37415W        W 9741  10.799  33.556  14.836
37416W        W 9742  25.580  11.205   2.329
37417W        W 9743   2.463  39.354  12.470
37418W        W 9744  13.672  36.585  14.488
37419W        W 9745  23.689   2.277   2.671
37420W        W 9746  30.123  19.214  14.485
37421W        W 9747  21.161  30.562   0.429
37422W        W 9748  15.162   9.718  13.392
37423W        W 9749  14.614  14.230   1.873
37424W        W 9750  24.076  19.128  10.469
37425W        W 9751  19.276  24.667  13.921
37426W        W 9752  35.098  38.942   4.139
37427W        W 9753  12.631  43.297   1.358
37428W        W 9754   2.791   0.940   3.224
37429W        W 9755  17.207  10.744  11.524
37430W        W 9756  39.853  36.871   3.345
37431W        W 9757  15.186  39.060   2.765
37432W        W 9758  41.316  19.679   0.965
37433W        W 9759  33.386   4.910  13.931
37434W        W 9760  10.272  43.309  13.478
37435W        W 9761  23.582  27.141   1.255
37436W        W 9762   5.303  30.561  11.092
37437W        W 9763  15.149  21.031   9.940
37438W        W 9764  35.001  33.973   4.653
37439W        W 9765  13.115  26.629  11.944
37440W        W 9766  19.161   8.760  13.355
37441W        W 9767  44.805  43.765  13.396
37442W        W 9768  37.887  12.826  12.567
37443W        W 9769  24.984   7.860   1.870
37444W        W 9770  18.742  19.144  11.062
37445W        W 9771  25.630  15.804  14.800
37446W        W 9772  16.179  19.690  11.492
37447W        W 9773   6.678  13.776  14.428
37448W        W 9774  34.959   7.679   2.760
37449W        W 9775  31.115  33.073  11.481
37450W        W 9776  20.244  30.058   3.752
37451W        W 9777  21.215  33.901   3.269
37452W        W 9778  34.526  25.588   0.424
37453W        W 9779  26.681   0.943  13.330
37454W        W 9780  38.442  31.514  13.968
37455W        W 9781  15.220  30.574  11.028
37456W        W 9782  20.235   7.333  10.098
37457W        W 9783   4.901  41.361  14.885
37458W        W 9784  22.718  14.161   0.828
37459W        W 9785  18.192  10.643   0.924
37460W        W 9786   0.896   5.837   2.281
37461W        W 9787  31.985  28.062  12.375
37462W        W 9788  37.452  30.062   0.277
37463W        W 9789  22.566   9.163   0.323
37464W        W 9790  13.779   2.736   1.378
37465W        W 9791   7.346  40.395   2.288
37466W        W 9792  15.158  14.685  12.425
37467W        W 9793  22.600  12.323   2.251
37468W        W 9794  33.531  27.585   0.751
37469W        W 9795  36.858  39.355  13.989
37470W        W 9796  35.357  27.500  12.511
37471W        W 9797  28.087  16.278  14.835
37472W        W 9798  20.247   0.454  12.345
37473W        W 9799  38.337  36.470  11.527
37474W        W 9800  29.508  13.645  14.324
37475W        W 9801   7.186  26.143  13.459
37476W        W 9802  29.050  22.224  10.520
37477W        W 9803  25.533  12.845  11.501
37478W        W 9804  25.475  21.689   1.906
37479W        W 9805  36.574  34.497   1.781
37480W        W 9806  39.462  31.065   3.169
37481W        W 9807  35.015  28.454  14.902
37482W        W 9808  37.944  23.712  14.397
37483W        W 9809  26.557   1.316   0.836
37484W        W 9810  42.904  13.127   0.776
37485W        W 9811   0.759  17.234  12.085
37486W        W 9812   1.404  18.728   3.251
37487W        W 9813  37.971  25.569  10.903
37488W        W 9814   5.813  30.975  10.519
37489W        W 9815  21.639  27.998   2.843
37490W        W 9816  32.962  44.799   1.361
37491W        W 9817  30.958  24.713  11.911
37492W        W 9818  29.612  11.812   2.390
37493W        W 9819  21.188  11.684  10.619
37494W        W 9820  36.533  31.549   1.697
37495W        W 9821  13.240  23.986   1.415
37496W        W 9822  16.727  20.086   2.267
37497W        W 9823  41.032   9.724   4.670
37498W        W 9824   1.316  27.987  13.375
37499W        W 9825  35.990  33.511  14.384
37500W        W 9826  32.623  36.862   4.745
37501W        W 9827  14.644   7.799  14.772
37502W        W 9828  15.660  17.123   2.258
37503W        W 9829   1.940   3.755   3.662
37504W        W 9830   3.833   6.825  10.951
37505W        W 9831  15.324  43.777  12.052
37506W        W 9832  42.935  17.180  14.789
37507W        W 9833  14.806  34.003  12.572
37508W        W 9834  21.184  11.217   1.809
37509W        W 9835  38.026  29.981   4.223
37510W        W 9836  11.664   5.887   0.385
37511W        W 9837  25.191  39.341  13.381
37512W        W 9838  40.967  22.571   1.246
37513W        W 9839  11.225   3.435   2.405
37514W        W 9840  43.767  16.582   0.804
37515W        W 9841   5.308  32.465  14.363
37516W        W 9842  30.060   3.329   0.783
37517W        W 9843  39.944  33.929  14.799
37518W        W 9844  35.884  11.127   1.240
37519W        W 9845  27.572  39.877   1.316
37520W        W 9846  29.160  33.966  10.581
37521W        W 9847  14.314   0.413   2.688
37522W        W 9848  17.078   1.865  11.572
37523W        W 9849  26.195  28.499  11.567
37524W        W 9850  13.294  25.121   1.784
37525W        W 9851  44.468  19.551   2.671
37526W        W 9852  34.532  32.903  11.592
37527W        W 9853  17.249  43.424   3.335
37528W        W 9854  25.516  13.342   2.336
37529W        W 9855  12.284   1.941   0.904
37530W        W 9856  15.150  24.211  12.470
37531W        W 9857  11.244  27.977  11.080
37532W        W 9858  30.477  43.321   0.357
37533W        W 9859  39.017  10.755  11.008
37534W        W 9860  25.617   3.329  13.307
37535W        W 9861  28.444  24.990  10.536
37536W        W 9862  19.606  19.253   3.826
37537W        W 9863  21.159   4.791  11.448
37538W        W 9864   2.412  31.446  13.396
37539W        W 9865  27.039   8.162   0.772
37540W        W 9866  42.856  41.844  11.038
37541W        W 9867  18.250  15.251  10.508
37542W        W 9868  20.108  27.535  10.928
37543W        W 9869   1.379  38.376   4.659
37544W        W 9870   8.671  44.385  10.544
37545W        W 9871  20.675   9.188   3.342
37546W        W 9872   3.855  35.935   5.132
37547W        W 9873  30.477  35.489   4.677
37548W        W 9874  17.261  35.095   2.731
37549W        W 9875  25.056   2.297  12.547
37550W        W 9876  20.090  22.166   2.417
37551W        W 9877   8.822  20.175  12.345
37552W        W 9878  12.321  10.643   1.809
37553W        W 9879  40.345  34.413  12.053
37554W        W 9880  10.801  42.515  13.346
37555W        W 9881  39.485  10.247  11.520
37556W        W 9882   4.704  41.433  12.542
37557W        W 9883  14.180  21.662   0.303
37558W        W 9884  20.681  27.448   0.932
37559W        W 9885  21.057  34.974  11.483
37560W        W 9886  33.127   4.794  14.440
37561W        W 9887   6.919   7.355   0.368
37562W        W 9888  20.182   0.462  11.015
37563W        W 9889  33.499  36.092   5.163
37564W        W 9890  41.321  12.239  14.380
37565W        W 9891  42.370  29.156   3.379
37566W        W 9892  13.260  33.892  11.083
37567W        W 9893   3.270  35.902  12.381
37568W        W 9894   9.801  35.083   3.286
37569W        W 9895   3.744  34.968  12.901
37570W        W 9896  39.474  36.464   1.779
37571W        W 9897  41.350   3.235   1.924
37572W        W 9898  35.855  38.472  11.857
37573W        W 9899  19.734   3.796  11.397
37574W        W 9900   9.743  39.039  11.968
37575W        W 9901  39.872  38.004  11.477
37576W        W 9902  24.523  39.994   0.254
37577W        W 9903  35.083  44.274   2.893
37578W        W 9904   1.441   0.266   2.255
37579W        W 9905  39.528  27.639   1.821
37580W        W 9906   7.778  44.930  10.553
37581W        W 9907  44.493  19.642  10.891
37582W        W 9908   7.253   5.193  13.842
37583W        W 9909   0.976   3.860  14.476
37584W        W 9910  26.525  40.942   1.257
37585W        W 9911   8.234   5.809  13.886
37586W        W 9912  30.136  39.851  12.904
37587W        W 9913  28.661  25.607   4.740
37588W        W 9914  43.909  21.519  12.999
37589W        W 9915  16.702  44.476  13.851
37590W        W 9916   3.222  32.454  12.917
37591W        W 9917  24.059  30.944   1.434
37592W        W 9918  34.592  32.049   0.309
37593W        W 9919  41.318   0.489  13.465
37594W        W 9920  39.336  29.019   4.659
37595W        W 9921  23.070  21.260  11.488
37596W        W 9922  11.851  35.470  13.929
37597W        W 9923  10.283  42.362   2.334
37598W        W 9924  39.474  17.268   2.252
37599W        W 9925   3.338  35.414   0.930
37600W        W 9926  30.932   0.957  10.102
37601W        W 9927  37.061  25.135  11.904
37602W        W 9928  23.724  29.154  12.886
37603W        W 9929  21.210  15.189  13.531
37604W        W 9930  28.144  38.476  11.611
37605W        W 9931  18.580  13.744  13.438
37606W        W 9932  30.625   3.353   4.289
37607W        W 9933  41.347   1.412   1.425
37608W        W 9934  25.207  22.201  14.304
37609W        W 9935  38.362  14.329   4.320
37610W        W 9936  11.657  40.998   4.163
37611W        W 9937  39.938  41.923   1.839
37612W        W 9938  22.640  38.377   2.785
37613W        W 9939  15.197  15.741  13.040
37614W        W 9940   4.760  20.036   0.777
37615W        W 9941  37.897  22.627  11.088
37616W        W 9942   2.448  41.013  14.332
37617W        W 9943  25.500  39.544   4.775
37618W        W 9944  33.524   5.193  14.514
37619W        W 9945  18.672  38.452   3.819
37620W        W 9946   2.459  42.398   2.267
37621W        W 9947  17.167  31.126  10.604
37622W        W 9948  44.362  30.086   4.733
37623W        W 9949   9.262  41.445   5.193
37624W        W 9950  17.238  34.066  11.475
37625W        W 9951  31.046  44.815  10.921
37626W        W 9952  30.002  43.342  14.457
37627W        W 9953  42.379  24.122  11.506
37628W        W 9954   3.217  31.067  13.979
37629W        W 9955  31.437  29.036   1.350
37630W        W 9956  31.507  22.180  13.999
37631W        W 9957  24.492  42.793   2.892
37632W        W 9958   8.726  22.736   1.256
37633W        W 9959  22.009  23.025   1.877
37634W        W 9960  30.484  20.196  10.921
37635W        W 9961   6.244  36.493  14.969
37636W        W 9962  31.143  21.140   3.198
37637W        W 9963  43.797   6.881   1.220
37638W        W 9964  42.830  19.697  13.998
37639W        W 9965  18.294  38.526   4.294
37640W        W 9966   0.760  15.605   0.926
37641W        W 9967   8.765  29.107  12.040
37642W        W 9968  21.632  24.045   4.290
37643W        W 9969   2.720  10.342   1.428
37644W        W 9970  21.733   8.270  14.929
37645W        W 9971  37.896  42.776  12.053
37646W        W 9972  20.746  35.388   0.762
37647W        W 9973  41.800  20.125   4.188
37648W        W 9974  35.964  21.185  14.794
37649W        W 9975  10.784  12.191   2.774
37650W        W 9976  42.311  17.239  11.910
37651W        W 9977  33.506  24.151   2.828
37652W        W 9978   7.298  24.525   3.249
37653W        W 9979  28.953   5.402  13.852
37654W        W 9980   1.876   7.283  10.439
37655W        W 9981  12.800  25.652   4.236
37656W        W 9982  35.059   2.854  10.482
37657W        W 9983   8.389   8.817  12.347
37658W        W 9984   4.254  41.831  11.612
37659W        W 9985  34.950  20.531   0.364
37660W        W 9986  21.027  39.460   4.786
37661W        W 9987  40.402  17.233   4.815
37662W        W 9988   2.364  29.164   0.312
37663W        W 9989  33.392  33.062  10.988
37664W        W 9990  44.907  27.578   1.734
37665W        W 9991  24.037  16.698   2.217
37666W        W 9992  13.825  38.832  12.533
37667W        W 9993  41.385  12.150   3.371
37668W        W 9994  40.358  26.180  13.518
37669W        W 9995  32.107  43.870  11.115
37670W        W 9996  15.820  37.556  14.361
37671W        W 9997  18.272  37.032  14.911
37672W        W 9998   6.678  12.838  12.352
37673W        W 9999  39.450  13.336  13.354
37674W        W10000  38.483  22.143   0.739
37675W        W10001   0.312  18.678   3.769
37676W        W10002  35.555  17.196  12.370
37677W        W10003  25.625   4.707  10.486
37678W        W10004  16.633  23.521  11.921
37679W        W10005  20.240   2.818  12.536
37680W        W10006   5.827  28.649  13.052
37681W        W10007  25.983  12.692  10.575
37682W        W10008  10.312  41.871   2.797
37683W        W10009   2.406  22.080   1.766
37684W        W10010  15.655  24.673  12.979
37685W        W10011  17.271  13.318   4.316
37686W        W10012  44.483  10.723   3.360
37687W        W10013  25.689  39.011  14.419
37688W        W10014  25.567   7.894  12.518
37689W        W10015  22.715  32.997   0.412
37690W        W10016  16.679  38.335  14.513
37691W        W10017  12.169   0.300  14.012
37692W        W10018  33.931  17.175  13.022
37693W        W10019   4.250  38.512  13.955
37694W        W10020  16.158  19.068   3.682
37695W        W10021  38.999   2.270   1.898
37696W        W10022  29.574  28.509   3.706
37697W        W10023  28.675  12.612  11.603
37698W        W10024  10.870  15.730  12.895
37699W        W10025  40.960   0.805  14.312
37700W        W10026  18.648   3.847   3.772
37701W        W10027  11.674   0.292   0.761
37702W        W10028  16.742   3.349   4.288
37703W        W10029   0.817  26.015   2.807
37704W        W10030  42.898   9.291   2.358
37705W        W10031   6.302  25.187   5.286
37706W        W10032  31.938  37.506   2.794
37707W        W10033  44.316   3.322   4.602
37708W        W10034  40.412  17.090   1.341
37709W        W10035  12.744  33.503   9.639
37710W        W10036  28.985  20.202   3.665
37711W        W10037  17.737  16.157   0.788
37712W        W10038  33.399   7.717   1.416
37713W        W10039  30.033   8.756  11.117
37714W        W10040   5.286  41.293  10.636
37715W        W10041  16.107  36.856  11.590
37716W        W10042  14.615   6.305  12.574
37717W        W10043  10.809  22.713   4.698
37718W        W10044  37.978  23.095   0.479
37719W        W10045  42.362  17.795  14.278
37720W        W10046  33.052  39.990  14.785
37721W        W10047  37.361  25.592  13.423
37722W        W10048  24.702  44.435   3.702
37723W        W10049  12.840   4.233  10.912
37724W        W10050  37.011   3.301  11.598
37725W        W10051  43.880   2.960  14.349
37726W        W10052  36.572  26.486   1.376
37727W        W10053  43.817  21.622   2.223
37728W        W10054  10.369   0.284   0.791
37729W        W10055  12.744  34.885  10.561
37730W        W10056  38.351  31.983   1.435
37731W        W10057  36.080  38.442  14.362
37732W        W10058   4.234   6.753  12.085
37733W        W10059  38.877  20.655   0.443
37734W        W10060  27.659   0.835   4.678
37735W        W10061  14.094   6.746   2.769
37736W        W10062   4.287  36.425  13.405
37737W        W10063  14.252  10.755   1.248
37738W        W10064   0.451   5.695  13.901
37739W        W10065  17.242  28.549   1.809
37740W        W10066  30.656  40.451  13.886
37741W        W10067  21.671   2.265   2.233
37742W        W10068  17.604  23.130  11.986
37743W        W10069  43.835  29.601   3.235
37744W        W10070   0.986  27.012   0.882
37745W        W10071  12.709  37.927  13.356
37746W        W10072  42.486  31.582  14.839
37747W        W10073  37.461  24.577   4.654
37748W        W10074  43.962   2.338  11.048
37749W        W10075  41.524  25.539   2.254
37750W        W10076   4.236  34.089  12.979
37751W        W10077  15.814   4.778  12.869
37752W        W10078  31.590  23.037   3.662
37753W        W10079  44.399  37.498   1.287
37754W        W10080  15.792  33.537  13.982
37755W        W10081  28.573  26.672  13.379
37756W        W10082  39.855  38.399  11.390
37757W        W10083  32.029  43.885   2.779
37758W        W10084  22.687  36.980  12.922
37759W        W10085  34.423  38.042   3.868
37760W        W10086  25.602  39.363  12.536
37761W        W10087  10.254  35.423  12.524
37762W        W10088  31.616  22.606  11.892
37763W        W10089  44.367  40.812   4.649
37764W        W10090  10.307  40.414   2.208
37765W        W10091  41.445  27.685  11.391
37766W        W10092  13.762   1.945  12.532
37767W        W10093  15.116  19.137  13.856
37768W        W10094  42.968   8.354   2.764
37769W        W10095  23.533  43.949   3.738
37770W        W10096   6.202  35.089   3.246
37771W        W10097  21.112  16.813  14.376
37772W        W10098  12.213  14.633  13.965
37773W        W10099  31.618  28.528   4.127
37774W        W10100  18.567  26.077   2.326
37775W        W10101  17.219   8.239  11.570
37776W        W10102  22.099  20.097   1.381
37777W        W10103  33.540  26.185  11.550
37778W        W10104  15.322  28.119  14.431
37779W        W10105   0.758  15.164  14.975
37780W        W10106  44.457   0.268   0.912
37781W        W10107  17.098   8.261  10.508
37782W        W10108   5.229  28.461  11.500
37783W        W10109  37.937   1.870  11.003
37784W        W10110   6.424  29.941  10.497
37785W        W10111   6.334   6.211   3.858
37786W        W10112  32.129   4.408  13.319
37787W        W10113  30.075  11.726  14.280
37788W        W10114  43.993   7.683  11.005
37789W        W10115  15.699  22.194   1.728
37790W        W10116  28.066   0.363  10.014
37791W        W10117  12.616  23.175   1.246
37792W        W10118  39.477  25.964  10.923
37793W        W10119  26.126   7.171  14.453
37794W        W10120  35.372  18.603   0.388
37795W        W10121   8.823  22.708   4.214
37796W        W10122  39.463  21.192   1.293
37797W        W10123  12.278  20.689   1.452
37798W        W10124  41.500   7.710   4.162
37799W        W10125  44.328  21.133   3.150
37800W        W10126  15.617   4.224   0.428
37801W        W10127  40.401  41.452  11.063
37802W        W10128  29.501  22.621   2.240
37803W        W10129   6.867  25.711   2.812
37804W        W10130  29.038   5.406   2.366
37805W        W10131  30.922  21.549   4.160
37806W        W10132   3.825  30.114   0.267
37807W        W10133  11.181  37.066  14.300
37808W        W10134  40.367   2.810  13.843
37809W        W10135  14.095   4.723  14.802
37810W        W10136  14.647   3.271   4.677
37811W        W10137  10.215   5.311   1.295
37812W        W10138  11.697   1.976   2.766
37813W        W10139   4.411  38.014  12.984
37814W        W10140  26.060   0.485   3.223
37815W        W10141  13.345  20.084  13.381
37816W        W10142  24.174  25.159  10.035
37817W        W10143  41.294  27.134  14.426
37818W        W10144  32.442  38.468   3.366
37819W        W10145  33.072  37.943   1.440
37820W        W10146  14.178  25.640   4.770
37821W        W10147  18.642  13.800   3.748
37822W        W10148  33.075  37.449  11.002
37823W        W10149   7.883   7.671  10.944
37824W        W10150  35.852   9.752   2.668
37825W        W10151   5.341  22.093   1.217
37826W        W10152  14.824  25.499   5.222
37827W        W10153  37.579   7.709  10.924
37828W        W10154   7.210   8.830   0.297
37829W        W10155  11.785  12.633  13.027
37830W        W10156  25.991  24.680   2.777
37831W        W10157  42.971   2.868   1.934
37832W        W10158  23.494  41.369  12.553
37833W        W10159  35.403  30.586  13.377
37834W        W10160  23.183  28.035   2.254
37835W        W10161  23.676  32.088  14.772
37836W        W10162  12.274   2.415  13.063
37837W        W10163  22.150  29.939  13.048
37838W        W10164  26.084  37.937  13.987
37839W        W10165   2.936  21.586   5.648
37840W        W10166   7.859  14.101  12.970
37841W        W10167  40.863  10.769   0.437
37842W        W10168  21.040  30.455   4.214
37843W        W10169  11.846  38.345   3.186
37844W        W10170  30.560  25.046  14.762
37845W        W10171  11.679   1.959   9.989
37846W        W10172  19.196  42.446  13.334
37847W        W10173   4.821  13.284  13.364
37848W        W10174  38.531  32.073  11.518
37849W        W10175  21.262  28.604   3.308
37850W        W10176  40.439  39.379   0.425
37851W        W10177  10.147  22.038  14.940
37852W        W10178   8.378  21.595  14.826
37853W        W10179   5.272  44.325   0.256
37854W        W10180  43.288   7.704  11.606
37855W        W10181  13.229   0.313   1.260
37856W        W10182   6.881  28.557  13.812
37857W        W10183  43.014   1.836  10.000
37858W        W10184  21.714   3.867  12.853
37859W        W10185  17.192  38.507  12.340
37860W        W10186   0.350  12.188  14.830
37861W        W10187   0.383  33.123  12.904
37862W        W10188  11.797  43.840   0.481
37863W        W10189  35.910   0.359   3.632
37864W        W10190  27.191  13.752   1.716
37865W        W10191  18.618   0.955   3.252
37866W        W10192   1.903   7.837  13.325
37867W        W10193  40.424  44.775   0.814
37868W        W10194  22.052  27.969  13.056
37869W        W10195   0.263  24.673   4.204
37870W        W10196  11.196   7.279   3.289
37871W        W10197   1.857  39.898  11.928
37872W        W10198  16.250   8.182  14.389
37873W        W10199  27.944  29.152  11.063
37874W        W10200  40.483  10.373  14.003
37875W        W10201   9.229  23.565  12.558
37876W        W10202   1.874  19.697  13.463
37877W        W10203  10.194  18.196   0.902
37878W        W10204  42.816  39.321  13.434
37879W        W10205  40.435  37.503   3.218
37880W        W10206   5.236  22.240   3.652
37881W        W10207   0.891  29.644   3.704
37882W        W10208  14.834  15.801  14.324
37883W        W10209  26.090  28.652   3.767
37884W        W10210  16.667   0.796   3.281
37885W        W10211   6.799  38.025  14.355
37886W        W10212  36.987  40.478   0.829
37887W        W10213  44.979  42.835  12.412
37888W        W10214  43.381  10.216   3.152
37889W        W10215   1.293   4.826   3.745
37890W        W10216  38.470   1.270  11.467
37891W        W10217  22.704  20.083  10.933
37892W        W10218  11.760   0.301  11.973
37893W        W10219   6.714  44.968  12.495
37894W        W10220  31.505  44.953  14.395
37895W        W10221   6.232  11.180   3.666
37896W        W10222  29.041  40.357   1.239
37897W        W10223  32.474  24.498  11.002
37898W        W10224  13.622  44.476  13.323
37899W        W10225   1.910  37.078  10.595
37900W        W10226   3.401  17.795   0.274
37901W        W10227  18.236  19.052   3.387
37902W        W10228  13.339  44.369   3.663
37903W        W10229  17.193  11.778   0.479
37904W        W10230   3.367   4.889   2.409
37905W        W10231   5.227  30.418   4.715
37906W        W10232   6.356  19.748   3.731
37907W        W10233  44.358   1.250  10.522
37908W        W10234  29.476  22.630  10.928
37909W        W10235   5.400  38.534   0.916
37910W        W10236  11.789  10.175   5.227
37911W        W10237  44.796  33.413  13.326
37912W        W10238  39.879  39.931   0.400
37913W        W10239  16.670   6.311  10.944
37914W        W10240  35.031  28.612   2.218
37915W        W10241  31.962  38.379  14.394
37916W        W10242   6.231  29.597   3.761
37917W        W10243  15.207   8.318   3.814
37918W        W10244  32.596   5.745  13.467
37919W        W10245   9.702  28.031   3.186
37920W        W10246  36.554  40.843   1.340
37921W        W10247  41.794  33.622  12.019
37922W        W10248  11.260   9.218   0.353
37923W        W10249   4.807  39.459   0.253
37924W        W10250  40.985  41.788   1.214
37925W        W10251  21.698   2.419   1.340
37926W        W10252   5.392  31.953  12.980
37927W        W10253  11.835  24.973  11.890
37928W        W10254  20.051  23.526   3.251
37929W        W10255   1.943  40.805   1.428
37930W        W10256  11.202  43.911  14.764
37931W        W10257   0.388   3.859   0.297
37932W        W10258  15.188  27.598   1.754
37933W        W10259  28.495  25.009   4.642
37934W        W10260  16.103  11.229   3.866
37935W        W10261  43.995  12.833  13.027
37936W        W10262  26.633   0.489  14.335
37937W        W10263  20.089  35.044  13.443
37938W        W10264  18.244   3.807   2.391
37939W        W10265  41.848  11.203  11.032
37940W        W10266  15.194   3.350  13.921
37941W        W10267  14.283  35.026  10.465
37942W        W10268  15.096  43.475   3.755
37943W        W10269  12.259   4.917  14.380
37944W        W10270  13.626   3.863   2.203
37945W        W10271  11.754  16.213  14.457
37946W        W10272  11.158  37.026   2.844
37947W        W10273  19.674   3.336   1.417
37948W        W10274  12.239  40.898   3.721
37949W        W10275  19.244  41.509   2.328
37950W        W10276  10.664  32.438  10.965
37951W        W10277   4.855  37.935   1.741
37952W        W10278  41.804  39.861  10.452
37953W        W10279  22.074  42.929   0.851
37954W        W10280  44.801  12.330   1.788
37955W        W10281  30.143  12.337   1.901
37956W        W10282  40.039  23.135  14.023
37957W        W10283  14.697  14.686   1.711
37958W        W10284   6.191   5.218  11.947
37959W        W10285   0.386  38.449  13.814
37960W        W10286  15.599   2.764  13.345
37961W        W10287   7.235  38.552  13.830
37962W        W10288  32.551  41.821  14.399
37963W        W10289  31.995  18.743   1.369
37964W        W10290   5.391  21.118   3.146
37965W        W10291  15.265  30.430   4.673
37966W        W10292  44.488  28.034   1.894
37967W        W10293  31.505  25.155  11.410
37968W        W10294  11.282  23.612  12.468
37969W        W10295   2.960   2.927  10.487
37970W        W10296   9.681  41.300   1.240
37971W        W10297  10.352  41.315  14.856
37972W        W10298  17.682  24.178  14.942
37973W        W10299  34.878  19.780  11.563
37974W        W10300  40.371  30.132  11.900
37975W        W10301  39.967  28.165  13.946
37976W        W10302  15.098  23.224  14.411
37977W        W10303  26.624  23.678  10.067
37978W        W10304  41.407   4.850  11.006
37979W        W10305  28.995  30.030   3.680
37980W        W10306  43.334   2.738  12.090
37981W        W10307  34.090  27.029   2.784
37982W        W10308  30.601  30.092   4.685
37983W        W10309  20.039  36.066  11.890
37984W        W10310  28.035  34.933   2.364
37985W        W10311  22.648  20.588   2.199
37986W        W10312  24.980  23.005   4.819
37987W        W10313  26.594  25.100   1.749
37988W        W10314  42.508  11.194   1.222
37989W        W10315  43.823  23.710   3.652
37990W        W10316  27.495   6.845   3.211
37991W        W10317  14.310  37.451   0.916
37992W        W10318  26.153  16.168   1.862
37993W        W10319   2.963  38.822  14.362
37994W        W10320  40.845  36.499  10.560
37995W        W10321  38.521  26.573  12.004
37996W        W10322   8.218   8.825   0.375
37997W        W10323  23.541  14.809   4.836
37998W        W10324  39.491  15.595   1.397
37999W        W10325   9.163  27.158  11.449
38000W        W10326  42.939  19.075  12.515
38001W        W10327  23.498  26.637   0.291
38002W        W10328  29.474  23.546   1.255
38003W        W10329   1.428  30.121   4.670
38004W        W10330  32.621  16.614  10.928
38005W        W10331   9.372  24.190   9.946
38006W        W10332   2.874  30.656  10.641
38007W        W10333  43.006  37.855  13.958
38008W        W10334  25.120  19.760   0.474
38009W        W10335  15.261  19.116  11.598
38010W        W10336  36.933  24.136   2.324
38011W        W10337  10.666  31.971  12.410
38012W        W10338   9.247   0.282  14.398
38013W        W10339   7.214  34.480   0.736
38014W        W10340  31.600   0.832   3.772
38015W        W10341  18.181  29.066  12.485
38016W        W10342   0.293  35.884  12.879
38017W        W10343  39.478  24.161   0.475
38018W        W10344  40.433  28.016   2.345
38019W        W10345  20.155   7.750   3.174
38020W        W10346   0.777  26.956  13.310
38021W        W10347  10.235  40.041  12.039
38022W        W10348  31.092   1.347  14.468
38023W        W10349   5.750   2.754  13.022
38024W        W10350  36.946  19.562   1.846
38025W        W10351  15.595  24.993   3.660
38026W        W10352  41.991  33.417  12.887
38027W        W10353  22.240  34.389  13.842
38028W        W10354  16.149   0.851   4.239
38029W        W10355  24.186  33.109  12.432
38030W        W10356  19.701  41.934  14.777
38031W        W10357  37.344  19.261  14.024
38032W        W10358  24.123  21.056   0.807
38033W        W10359  14.638  16.182   3.708
38034W        W10360  21.084   4.716  13.393
38035W        W10361  28.984  31.517   0.395
38036W        W10362  42.482  36.917   1.232
38037W        W10363  20.161  35.553  11.416
38038W        W10364  21.692  28.119   0.941
38039W        W10365  21.712  41.537   3.681
38040W        W10366  35.555  18.695   1.395
38041W        W10367  25.118  17.668   5.175
38042W        W10368   9.760  12.315  11.985
38043W        W10369  18.722   8.883   2.350
38044W        W10370  32.424  34.057  13.825
38045W        W10371  38.393   8.875  11.519
38046W        W10372  20.759  20.752  12.852
38047W        W10373  15.628  26.131  13.832
38048W        W10374  32.124  13.308   4.625
38049W        W10375  18.711  19.682   9.953
38050W        W10376  31.613  30.128  14.358
38051W        W10377   6.245   5.264   1.275
38052W        W10378  13.775  14.723  12.088
38053W        W10379   0.445  22.246  12.857
38054W        W10380   3.830   5.799   3.759
38055W        W10381  12.341  27.977   4.345
38056W        W10382   9.773  38.376  10.501
38057W        W10383  17.121  21.200  10.010
38058W        W10384   2.842  11.217  14.516
38059W        W10385   9.873  40.440   3.672
38060W        W10386  34.876  11.739   0.881
38061W        W10387  30.518  11.306  13.983
38062W        W10388  16.294   7.179   2.358
38063W        W10389   7.838  12.133  10.971
38064W        W10390   4.317  12.642  11.074
38065W        W10391  11.358  21.045  12.879
38066W        W10392  15.782  11.167  13.313
38067W        W10393   9.360  19.570   2.247
38068W        W10394  22.649  32.599  10.583
38069W        W10395   2.776  11.179   4.605
38070W        W10396  18.133  29.555  13.465
38071W        W10397  25.489  28.666   4.812
38072W        W10398  20.039  20.557   1.704
38073W        W10399  34.065  32.614  11.407
38074W        W10400  36.479  16.259  13.848
38075W        W10401  23.717  27.961  12.901
38076W        W10402  34.584  42.943  12.009
38077W        W10403  30.128   5.782  10.642
38078W        W10404  37.558  19.727  14.431
38079W        W10405  25.013  10.828   4.175
38080W        W10406  38.542  15.795   3.753
38081W        W10407   5.266   1.839  13.453
38082W        W10408  12.631  34.986   2.388
38083W        W10409  28.007  22.560  11.071
38084W        W10410  39.968   8.764   4.720
38085W        W10411   5.424   5.748   2.336
38086W        W10412  42.967  36.874  14.995
38087W        W10413  18.059  20.539  14.908
38088W        W10414   7.254  30.948  11.489
38089W        W10415   7.404  28.458   1.810
38090W        W10416  30.623  28.490  12.458
38091W        W10417  20.253  43.320  11.372
38092W        W10418   7.367   3.862  13.509
38093W        W10419  14.234  11.731  12.055
38094W        W10420   4.382  38.859   0.926
38095W        W10421  14.121   1.301  10.433
38096W        W10422   9.739  30.016  12.348
38097W        W10423   7.674  27.168  14.791
38098W        W10424  30.620  18.597   2.303
38099W        W10425  34.543  27.520  14.469
38100W        W10426   9.887  19.256   0.324
38101W        W10427  22.705   0.975   2.788
38102W        W10428  30.448  27.061  13.001
38103W        W10429  27.644  19.564   2.290
38104W        W10430   7.694  17.102   1.886
38105W        W10431  34.008   2.797   0.470
38106W        W10432  18.606   6.197   3.268
38107W        W10433  38.857  10.263   0.733
38108W        W10434  30.642   3.291  14.342
38109W        W10435  31.080  21.577  13.398
38110W        W10436  20.200   1.276  10.934
38111W        W10437  42.945  24.994  12.892
38112W        W10438  33.589  37.021  12.094
38113W        W10439  37.893  12.850   5.191
38114W        W10440  28.486  38.557   3.825
38115W        W10441  36.452   7.319  11.415
38116W        W10442  34.913  26.053  12.437
38117W        W10443  20.545  10.799  10.597
38118W        W10444  27.023  20.151   2.787
38119W        W10445  17.652  19.102  10.492
38120W        W10446  12.819  22.609  11.531
38121W        W10447  35.574  14.319   5.312
38122W        W10448  40.459  13.649  13.516
38123W        W10449  16.716  16.275   3.293
38124W        W10450  14.626  13.833   1.287
38125W        W10451  40.447  36.993   4.220
38126W        W10452   4.734   5.789  14.857
38127W        W10453   6.379  11.305  13.386
38128W        W10454   8.374  24.525   3.253
38129W        W10455  38.839   7.741   9.958
38130W        W10456  44.457  10.187   0.809
38131W        W10457  25.060   6.331   3.220
38132W        W10458  17.797  14.164   0.347
38133W        W10459  33.127   8.215   4.327
38134W        W10460  22.995  32.570  12.351
38135W        W10461  34.980  42.398   4.801
38136W        W10462  19.223  10.658  14.379
38137W        W10463  21.037  29.066  10.538
38138W        W10464   3.823  10.838  14.278
38139W        W10465   2.942  38.902  11.887
38140W        W10466  44.410  40.929   1.792
38141W        W10467  15.709  24.224  11.429
38142W        W10468  34.534  44.792  10.476
38143W        W10469  35.882   2.830  10.587
38144W        W10470  13.676  12.332  11.921
38145W        W10471   9.657  15.687   3.334
38146W        W10472   7.287  15.196   0.253
38147W        W10473   3.834  10.280  13.981
38148W        W10474  34.932  37.084   1.221
38149W        W10475  40.880  17.260  13.793
38150W        W10476  24.064   4.724  14.291
38151W        W10477   4.385   3.353   2.186
38152W        W10478  41.940  15.097  14.815
38153W        W10479  27.616  21.238  11.484
38154W        W10480  38.882  22.514  14.278
38155W        W10481  21.725  24.695  12.433
38156W        W10482  21.098  33.586  14.295
38157W        W10483   5.839  11.346   4.334
38158W        W10484   6.873  10.756  12.524
38159W        W10485  30.968   3.909  13.312
38160W        W10486  16.239  33.898  11.516
38161W        W10487  17.304  37.052   2.255
38162W        W10488  18.102  40.837  14.469
38163W        W10489  27.121  18.157  12.850
38164W        W10490  43.288  41.893   2.253
38165W        W10491  41.354  19.282  14.772
38166W        W10492   7.829  33.883  10.565
38167W        W10493  30.078   3.309  10.578
38168W        W10494  19.590  15.286   0.846
38169W        W10495  44.386  23.162  14.365
38170W        W10496  10.803  38.922  14.828
38171W        W10497  37.063  25.555  10.643
38172W        W10498  40.392  14.173   4.625
38173W        W10499  12.668   9.368   0.875
38174W        W10500  34.036   0.476   2.187
38175W        W10501  43.359  29.953  14.859
38176W        W10502  32.410  42.963   1.233
38177W        W10503   9.269  36.984  13.966
38178W        W10504  22.112   2.285   2.207
38179W        W10505  37.358  39.524  12.023
38180W        W10506  42.297  31.131  14.843
38181W        W10507  37.554  10.365   5.794
38182W        W10508  21.705  10.209   2.258
38183W        W10509  25.064  31.647   0.405
38184W        W10510  18.760  23.530  12.408
38185W        W10511   3.801  14.626  11.582
38186W        W10512  32.394   1.374   2.779
38187W        W10513  29.950  36.500   2.818
38188W        W10514  13.171  39.913   0.283
38189W        W10515  42.778  20.672   3.723
38190W        W10516  31.498  14.767   4.658
38191W        W10517   3.935  44.873   0.259
38192W        W10518  29.038  44.979  12.418
38193W        W10519  29.974   8.271  10.601
38194W        W10520  23.003   4.889   1.833
38195W        W10521  23.073   7.730   2.318
38196W        W10522   8.720  29.994  12.400
38197W        W10523  12.779  37.552  14.973
38198W        W10524  38.850  44.501   2.349
38199W        W10525   5.223   3.324  14.379
38200W        W10526  32.048  41.437  11.970
38201W        W10527   0.320   8.255  13.019
38202W        W10528  27.173  14.697   4.232
38203W        W10529  17.103  41.836  10.511
38204W        W10530  19.591   4.382   2.234
38205W        W10531  35.029  36.492   3.279
38206W        W10532  41.809  13.193  13.924
38207W        W10533  27.183  24.990   5.276
38208W        W10534  22.577  35.053   0.389
38209W        W10535  12.789  22.199  12.949
38210W        W10536  28.950   3.854  10.962
38211W        W10537  43.985   6.394   3.217
38212W        W10538  15.728  42.426  14.355
38213W        W10539  31.932   0.436   2.887
38214W        W10540  40.384  31.529  12.425
38215W        W10541  27.947   5.708  12.938
38216W        W10542  17.662   7.387   1.877
38217W        W10543  13.137  30.009  14.314
38218W        W10544  18.593  40.333   3.785
38219W        W10545  25.016  27.164  14.867
38220W        W10546   9.741  31.529   4.652
38221W        W10547  40.816   1.755  13.911
38222W        W10548   0.357  11.787   2.321
38223W        W10549  25.024  33.966  12.835
38224W        W10550  12.245  26.122  13.039
38225W        W10551   5.808  16.698  11.461
38226W        W10552  43.285  14.208   4.682
38227W        W10553   5.888  16.663  13.506
38228W        W10554  26.550  15.264  12.845
38229W        W10555  22.095  18.581   3.382
38230W        W10556  13.614  42.026  12.381
38231W        W10557  10.812  25.121   3.316
38232W        W10558  29.553  14.828   1.737
38233W        W10559   4.877  24.557  14.491
38234W        W10560   6.372  28.664  14.904
38235W        W10561  27.187  41.024  12.361
38236W        W10562   8.355  26.119  12.006
38237W        W10563  20.614   3.412  11.926
38238W        W10564  21.674  37.083   5.217
38239W        W10565  31.900  31.603  11.407
38240W        W10566  31.401   5.238  10.416
38241W        W10567  13.156   6.863  12.555
38242W        W10568  41.410   2.459  13.373
38243W        W10569   4.396  41.466   0.855
38244W        W10570  32.570   6.224  14.326
38245W        W10571  43.427   6.194  14.823
38246W        W10572  37.397  11.271  11.493
38247W        W10573  33.042  40.519   2.666
38248W        W10574  15.156  38.026   2.697
38249W        W10575   7.698   7.701  12.422
38250W        W10576   5.271  42.894   4.624
38251W        W10577  14.755  10.815   1.826
38252W        W10578   4.822  10.750  13.042
38253W        W10579  43.973  18.764  14.884
38254W        W10580  19.268  37.021   4.188
38255W        W10581  13.707  16.184   0.946
38256W        W10582   3.805  13.778   2.402
38257W        W10583  29.427  14.813   3.337
38258W        W10584   3.769  23.195  13.044
38259W        W10585  21.617   1.243   0.340
38260W        W10586  16.612   8.241  12.948
38261W        W10587  39.331   2.452   0.866
38262W        W10588  41.516  38.479   4.726
38263W        W10589  40.940  37.972   0.405
38264W        W10590   2.964  21.203   2.403
38265W        W10591  43.333  24.602  12.999
38266W        W10592  28.005  11.823  12.090
38267W        W10593  34.972  35.090   0.283
38268W        W10594  11.297   0.905   3.734
38269W        W10595   6.327  12.156  12.549
38270W        W10596  39.512   2.852  14.836
38271W        W10597  29.659  18.269   4.283
38272W        W10598  26.580  26.094  11.509
38273W        W10599  17.596  40.985   2.199
38274W        W10600   5.329   1.326  10.936
38275W        W10601  17.770  15.289   4.295
38276W        W10602   0.387   4.245   2.309
38277W        W10603   0.763   8.203  11.975
38278W        W10604   7.372  18.672  12.027
38279W        W10605  20.220  18.118   4.127
38280W        W10606  42.334  24.504   2.407
38281W        W10607  28.509  20.662   4.226
38282W        W10608  44.849  16.709   4.236
38283W        W10609   0.342  11.819   2.684
38284W        W10610  34.038   7.755   0.766
38285W        W10611   6.837   5.306   1.832
38286W        W10612  25.219  31.037   2.241
38287W        W10613   2.417  36.542   3.366
38288W        W10614   9.263  34.592  12.989
38289W        W10615  36.417  15.645  13.037
38290W        W10616  17.727  32.394   0.772
38291W        W10617  33.879  42.336  14.019
38292W        W10618  12.244  11.741  13.031
38293W        W10619   4.435   3.279   9.570
38294W        W10620  39.549  29.077  14.018
38295W        W10621  17.566   9.762   1.449
38296W        W10622  23.186  33.120  10.452
38297W        W10623  43.976  41.009   2.751
38298W        W10624  22.538   4.746   4.314
38299W        W10625  33.047   9.670  13.470
38300W        W10626  12.194  11.373  11.066
38301W        W10627  14.327  20.138   4.178
38302W        W10628  41.891  11.715  10.038
38303W        W10629  11.200  18.291  12.840
38304W        W10630  28.573  34.898  11.107
38305W        W10631   5.902  23.986   0.269
38306W        W10632  25.668   5.909  12.925
38307W        W10633  31.061  43.440  13.355
38308W        W10634   7.730  36.497  13.887
38309W        W10635  42.862  27.137  11.398
38310W        W10636   5.805  43.989  11.912
38311W        W10637  38.549  42.481  14.485
38312W        W10638  12.654  16.640  12.496
38313W        W10639  23.001  15.247   5.776
38314W        W10640  27.619   0.787  14.304
38315W        W10641  17.668   3.910  10.950
38316W        W10642   7.391  27.511   1.394
38317W        W10643  40.810   0.388   1.694
38318W        W10644  10.683  36.458   3.866
38319W        W10645  37.436   1.901   1.847
38320W        W10646   6.707   3.283  13.528
38321W        W10647   3.253   7.885  10.524
38322W        W10648  38.498  38.897   1.836
38323W        W10649  25.167  25.533   1.695
38324W        W10650  25.082  40.852   3.774
38325W        W10651  28.123  34.539  11.591
38326W        W10652  43.929  13.731  11.597
38327W        W10653  41.015  40.813  11.877
38328W        W10654  40.527   1.765   1.706
38329W        W10655   4.713   9.321  11.012
38330W        W10656  42.782  44.336  12.918
38331W        W10657  24.031  26.616   1.896
38332W        W10658  28.508  42.821  12.910
38333W        W10659  14.594  40.918  11.967
38334W        W10660  12.727   0.886   0.814
38335W        W10661  43.473  14.212  13.361
38336W        W10662  20.189  22.072   1.886
38337W        W10663  18.086   1.455   2.247
38338W        W10664  39.528  11.373  13.926
38339W        W10665  16.238   3.848   2.664
38340W        W10666  20.689   9.712  10.494
38341W        W10667  44.273  14.337  13.390
38342W        W10668  19.728  41.382   2.855
38343W        W10669   5.202  25.028   1.282
38344W        W10670  24.593  44.810  13.943
38345W        W10671  37.366  25.110  13.476
38346W        W10672  22.535  32.538  12.538
38347W        W10673  35.887  25.104   3.298
38348W        W10674  38.839   5.201  12.466
38349W        W10675  24.171   2.232  13.870
38350W        W10676  13.160  12.633   4.149
38351W        W10677  20.655  35.058  13.436
38352W        W10678  16.593  16.199  14.391
38353W        W10679  24.004  37.567   4.322
38354W        W10680  27.559   0.951   3.679
38355W        W10681   2.744  11.309  13.402
38356W        W10682  31.935  20.615  14.976
38357W        W10683  20.747  26.149  13.862
38358W        W10684  38.870  26.654  10.097
38359W        W10685  30.560  14.130  13.047
38360W        W10686  39.960  41.041   1.809
38361W        W10687  34.999   8.803   5.218
38362W        W10688  27.610  22.706   3.723
38363W        W10689  30.459  31.052   4.251
38364W        W10690  32.046  32.135  14.000
38365W        W10691  27.619  27.664   4.656
38366W        W10692   9.804   0.249   4.353
38367W        W10693  35.547  27.647   1.707
38368W        W10694  21.111  11.275   2.799
38369W        W10695  15.156  24.685   1.258
38370W        W10696  18.775   5.854  14.830
38371W        W10697  35.939  26.534  14.356
38372W        W10698  33.969  20.273   1.266
38373W        W10699   4.759  34.413  13.471
38374W        W10700   7.895  27.499   2.350
38375W        W10701  17.281  15.815  13.425
38376W        W10702  28.058  37.472   5.103
38377W        W10703   5.414   6.765   0.904
38378W        W10704  13.637   7.178  13.378
38379W        W10705  11.142   8.165  13.322
38380W        W10706   8.182  28.993  12.340
38381W        W10707  38.513  34.576   4.725
38382W        W10708   2.300  32.412   2.363
38383W        W10709   4.358   9.863   3.869
38384W        W10710  13.641   1.339   0.422
38385W        W10711  11.290   6.693   2.720
38386W        W10712  35.525  18.707   4.793
38387W        W10713  40.867  18.294   2.787
38388W        W10714  28.508  19.545  13.940
38389W        W10715  11.242  43.933  12.068
38390W        W10716  36.511  25.674   3.803
38391W        W10717  38.912  25.494  13.829
38392W        W10718   8.367  11.755  10.563
38393W        W10719  17.120  44.900  14.409
38394W        W10720  40.397  34.970  14.032
38395W        W10721  11.136  11.755   4.162
38396W        W10722  34.595   7.801   1.310
38397W        W10723  17.164  22.540  10.927
38398W        W10724  12.319   5.790  12.045
38399W        W10725  16.773  12.683   4.117
38400W        W10726   0.954  15.230  13.518
38401W        W10727  20.666  39.002   4.174
38402W        W10728   5.691  29.432   3.716
38403W        W10729   6.298  44.358  11.473
38404W        W10730  20.709  39.863  14.499
38405W        W10731  41.429  39.854   4.685
38406W        W10732  40.797  27.520  12.989
38407W        W10733  43.969  41.823   0.786
38408W        W10734  37.014   7.223   3.183
38409W        W10735  25.584   9.782  13.413
38410W        W10736  17.654  31.404  14.340
38411W        W10737  34.063  16.572  14.346
38412W        W10738   2.749   4.310  13.451
38413W        W10739   4.861  18.288   2.401
38414W        W10740   4.263  28.098  14.999
38415W        W10741   8.701  30.475  11.052
38416W        W10742  33.506  17.800   4.732
38417W        W10743  23.170  37.431  12.345
38418W        W10744  13.326  31.125  11.013
38419W        W10745  35.898  12.226   4.749
38420W        W10746  36.487  28.538   2.669
38421W        W10747  22.734  27.485  10.461
38422W        W10748  17.142  32.566   3.771
38423W        W10749  26.659  23.022   0.845
38424W        W10750   5.917  11.314   4.675
38425W        W10751   0.357   5.372  13.404
38426W        W10752  44.331  24.223   1.821
38427W        W10753  31.532  31.607   1.380
38428W        W10754  34.542  15.611  12.507
38429W        W10755   0.310  26.158   3.734
38430W        W10756  42.794  43.476  13.882
38431W        W10757   6.867  43.430  13.989
38432W        W10758  15.644  18.785   0.800
38433W        W10759  17.104   8.654   4.663
38434W        W10760   2.796   4.401   5.581
38435W        W10761  29.663   8.290   4.802
38436W        W10762  19.188  37.337  12.575
38437W        W10763  20.751  15.124   1.893
38438W        W10764   8.350  24.201  10.614
38439W        W10765  35.393  14.277  11.919
38440W        W10766  15.676  23.590  12.377
38441W        W10767   3.826  41.520   0.289
38442W        W10768  43.369  37.025   1.406
38443W        W10769   7.310  28.933  14.002
38444W        W10770  18.123  32.612   4.241
38445W        W10771  30.984   5.279   3.743
38446W        W10772  22.735  27.994  12.891
38447W        W10773  34.374  26.531  12.456
38448W        W10774  34.877   0.910   3.714
38449W        W10775   2.227   8.711  10.138
38450W        W10776  10.141  35.050  12.375
38451W        W10777  44.499  27.145   3.695
38452W        W10778  17.092  24.571  14.825
38453W        W10779  35.584  40.905  10.470
38454W        W10780   0.351   5.705   1.907
38455W        W10781   6.711  36.574   2.894
38456W        W10782   8.899  15.320  13.464
38457W        W10783  21.112  31.427   3.664
38458W        W10784   2.351  37.957  14.871
38459W        W10785  26.587  25.134   1.399
38460W        W10786   9.839  18.602   4.125
38461W        W10787  31.619  12.119  10.471
38462W        W10788  19.271   4.763  13.386
38463W        W10789  42.805  26.523   2.829
38464W        W10790  14.686  15.216  11.860
38465W        W10791  40.342  38.833  13.479
38466W        W10792  44.452   3.925  13.840
38467W        W10793  43.791  31.978   2.690
38468W        W10794  35.499   3.365   3.380
38469W        W10795   0.878  14.165   1.799
38470W        W10796   0.866  33.398   1.738
38471W        W10797   1.761   1.791  11.127
38472W        W10798  20.636  21.686   4.822
38473W        W10799  16.799  30.159  10.455
38474W        W10800  19.070  11.760   3.249
38475W        W10801  22.644  11.140   0.306
38476W        W10802   1.289  37.407  14.778
38477W        W10803  37.059  22.552  12.381
38478W        W10804  34.614  21.618   1.930
38479W        W10805  22.523  24.534   0.254
38480W        W10806  24.110  32.397  10.937
38481W        W10807  14.269  23.595   1.302
38482W        W10808  40.531   7.243   5.148
38483W        W10809  13.138  30.069  14.903
38484W        W10810   2.245  20.175  12.451
38485W        W10811  28.626  43.448   4.272
38486W        W10812  12.722   1.359   2.254
38487W        W10813  15.670   5.304  11.470
38488W        W10814  18.764  25.189   3.350
38489W        W10815  20.199  36.471   2.875
38490W        W10816   2.417  22.660  11.572
38491W        W10817  30.127  26.594   0.461
38492W        W10818   4.212  10.717  13.496
38493W        W10819   5.364   0.472   2.689
38494W        W10820  41.020  26.954   3.808
38495W        W10821  22.728  34.440  12.432
38496W        W10822  29.611   1.328   1.314
38497W        W10823   6.419  28.512   3.262
38498W        W10824  26.987  27.000   5.273
38499W        W10825  11.832  34.049   4.118
38500W        W10826   2.887   6.220   1.785
38501W        W10827  32.543  28.607   3.745
38502W        W10828   7.208  30.551  10.917
38503W        W10829  19.666  34.368   4.723
38504W        W10830   5.701  19.769  12.357
38505W        W10831  33.442   7.731  14.805
38506W        W10832   4.829  19.260   3.752
38507W        W10833  37.533   6.221   3.684
38508W        W10834  16.796  19.199  11.027
38509W        W10835  23.492  32.129  13.931
38510W        W10836  18.066  35.965  10.433
38511W        W10837  36.924  41.970   0.344
38512W        W10838  39.355  14.123   3.180
38513W        W10839  43.472  31.017  14.388
38514W        W10840   0.868  14.207  13.406
38515W        W10841  20.632  19.283  12.047
38516W        W10842  33.501  21.128   1.359
38517W        W10843  29.618   5.933  13.369
38518W        W10844  21.672  20.099  11.554
38519W        W10845   8.820   8.793   2.837
38520W        W10846  12.621  14.209  13.423
38521W        W10847  26.571  40.945   2.718
38522W        W10848  33.576  34.061   0.801
38523W        W10849   0.884  36.389   3.150
38524W        W10850   4.389  19.132   3.755
38525W        W10851  38.071  15.105  12.439
38526W        W10852  32.979  17.627   0.445
38527W        W10853  39.887  35.901  13.309
38528W        W10854  44.856  19.766  13.393
38529W        W10855  28.096  29.985  11.918
38530W        W10856  38.372  40.532  11.104
38531W        W10857  22.018  22.113   2.841
38532W        W10858  25.696  16.594  10.485
38533W        W10859  13.269  12.334  14.379
38534W        W10860   3.726  41.823   0.868
38535W        W10861   5.894  21.156  13.959
38536W        W10862  36.945  10.670  11.613
38537W        W10863   5.423   2.745   4.314
38538W        W10864  41.360  33.993  13.929
38539W        W10865  36.909  32.967   4.207
38540W        W10866  41.877  40.798  13.419
38541W        W10867  32.977  34.049   9.940
38542W        W10868  22.683  43.932   1.307
38543W        W10869  34.908  27.447  12.030
38544W        W10870  22.045   2.724   2.761
38545W        W10871  20.051  22.056   0.295
38546W        W10872   6.725  23.495   0.387
38547W        W10873   5.789  39.435   3.774
38548W        W10874   2.828  21.735  10.448
38549W        W10875  43.290  41.295   0.866
38550W        W10876  39.399  10.830   3.209
38551W        W10877   3.329   1.944  12.423
38552W        W10878  40.342  19.123  12.547
38553W        W10879   7.886  32.895   1.870
38554W        W10880   6.318  16.072   3.295
38555W        W10881   8.169   1.839   2.332
38556W        W10882  35.502   4.855  10.901
38557W        W10883   0.974   1.320   0.962
38558W        W10884  12.795   6.217   4.634
38559W        W10885  20.094  32.566   3.692
38560W        W10886  39.058  35.438  12.409
38561W        W10887  12.631   7.752   2.379
38562W        W10888  25.539  25.214   2.781
38563W        W10889  26.965  41.501  13.539
38564W        W10890  20.081  34.418  10.423
38565W        W10891   6.380  39.454  12.361
38566W        W10892  34.056  28.165   1.759
38567W        W10893  18.140  36.083  14.462
38568W        W10894  42.851  21.651   2.879
38569W        W10895  42.524  28.561  12.922
38570W        W10896  28.653  21.221  10.570
38571W        W10897  32.953  36.887  12.395
38572W        W10898  30.421   5.387   4.740
38573W        W10899   0.293  20.143   0.966
38574W        W10900  44.428  41.471  10.144
38575W        W10901  20.159   1.768  10.090
38576W        W10902  36.360  21.019   2.385
38577W        W10903  34.528  33.963   2.225
38578W        W10904  39.960  33.546  14.393
38579W        W10905  31.542  15.166   3.824
38580W        W10906   8.894  32.963  11.517
38581W        W10907  41.837  33.016  14.848
38582W        W10908   7.850   9.385  10.973
38583W        W10909  20.656   6.259  11.954
38584W        W10910  23.505   7.787   0.372
38585W        W10911   4.404  23.531  11.102
38586W        W10912  26.163  14.739   2.216
38587W        W10913  39.555  39.520  14.512
38588W        W10914  26.043   6.837  12.974
38589W        W10915  28.527   0.856   0.854
38590W        W10916  30.466   4.944   1.254
38591W        W10917  26.081  26.153  10.508
38592W        W10918  39.970  36.515  10.892
38593W        W10919  43.938  34.523  12.468
38594W        W10920   9.339  13.322  13.434
38595W        W10921  15.646  12.612   2.306
38596W        W10922  17.179   8.275   4.659
38597W        W10923  35.031  28.456  11.499
38598W        W10924   0.411  39.016   3.789
38599W        W10925  38.969  13.749   2.180
38600W        W10926   2.418  36.904   4.820
38601W        W10927   6.762   4.731   3.168
38602W        W10928  38.033   9.695  14.910
38603W        W10929  37.507  28.601  11.578
38604W        W10930  36.072  12.717   4.242
38605W        W10931   4.371  33.968  11.465
38606W        W10932   6.880  33.976   1.374
38607W        W10933  44.367  34.523   2.748
38608W        W10934  12.742  43.914  13.963
38609W        W10935  44.444   4.250   4.268
38610W        W10936  40.491   0.250  13.431
38611W        W10937  32.483  16.725   1.889
38612W        W10938  28.618   1.478   0.946
38613W        W10939  12.848   9.269  11.031
38614W        W10940  13.681  37.058  11.425
38615W        W10941  24.706  14.772  13.377
38616W        W10942  26.606  12.828  14.439
38617W        W10943  44.849  31.603   2.251
38618W        W10944  12.164  26.517  13.925
38619W        W10945  39.345  44.805   4.284
38620W        W10946  43.423  36.987  13.528
38621W        W10947   5.895  18.229  12.514
38622W        W10948  31.044  38.479  11.993
38623W        W10949  17.130  14.685  14.977
38624W        W10950   5.281  28.580   2.365
38625W        W10951  31.411  18.223  13.419
38626W        W10952  25.197  10.877   3.702
38627W        W10953  13.118  24.678  13.444
38628W        W10954  36.552  16.078   0.961
38629W        W10955   7.877  37.510   5.321
38630W        W10956  10.347  36.995  13.347
38631W        W10957   9.288  37.489   3.211
38632W        W10958   2.264  44.972   0.885
38633W        W10959  30.988  35.073  12.941
38634W        W10960   4.260  19.748   4.330
38635W        W10961   7.831   4.427   0.438
38636W        W10962  23.213  21.693   0.386
38637W        W10963  13.779  19.239  11.989
38638W        W10964   4.272  22.695   3.786
38639W        W10965  14.639  20.253  14.820
38640W        W10966   3.298  41.837   3.652
38641W        W10967   5.897  36.961  10.563
38642W        W10968  40.501  37.932  14.858
38643W        W10969  35.051   5.806   0.734
38644W        W10970  12.703  10.782  13.953
38645W        W10971  23.163   6.692   0.940
38646W        W10972  15.788   5.348   1.384
38647W        W10973  20.184   1.405  11.507
38648W        W10974   0.355   4.849  14.885
38649W        W10975  13.629  16.666   1.294
38650W        W10976  21.190  30.459  11.469
38651W        W10977  13.760  35.507  10.455
38652W        W10978   5.358   0.758  10.161
38653W        W10979  17.224  21.235   3.183
38654W        W10980  39.949   4.286   0.298
38655W        W10981   5.792  38.922  10.438
38656W        W10982  10.661  22.120  10.507
38657W        W10983  40.534  11.312   3.297
38658W        W10984  27.491  22.630  13.325
38659W        W10985  32.548  33.874   0.415
38660W        W10986  30.079  40.361  12.980
38661W        W10987  19.616  11.638  12.845
38662W        W10988  36.955  11.832   1.292
38663W        W10989  12.267  29.541   2.255
38664W        W10990   2.303   9.377  12.540
38665W        W10991   2.273  33.423   5.291
38666W        W10992  44.810  41.410   3.669
38667W        W10993  36.991  36.531  13.477
38668W        W10994  23.529  33.469  13.465
38669W        W10995  25.196  24.047   0.292
38670W        W10996  41.859  35.079   4.667
38671W        W10997  33.889  42.440   4.217
38672W        W10998  28.578  41.501   2.682
38673W        W10999   3.792  17.607  13.337
38674W        W11000  12.271  40.368   4.661
38675W        W11001  39.349  19.698   4.824
38676W        W11002   2.904   0.899  14.939
38677W        W11003  43.826  37.852   1.351
38678W        W11004  34.534  43.275  13.824
38679W        W11005  25.129  29.099  14.775
38680W        W11006  15.661  37.569  10.998
38681W        W11007   8.275  14.220   1.859
38682W        W11008  21.750  42.897  13.805
38683W        W11009  22.027  29.438   3.185
38684W        W11010  19.205  18.125  14.767
38685W        W11011  21.237   6.347   4.269
38686W        W11012  38.420  29.979   1.313
38687W        W11013  30.957  34.482  12.559
38688W        W11014  32.480   0.813  10.898
38689W        W11015  28.063   1.257  12.446
38690W        W11016  32.885  35.385  11.057
38691W        W11017  16.092  13.142   4.826
38692W        W11018  32.396  21.151  10.939
38693W        W11019   6.204  40.464  12.062
38694W        W11020   7.743  40.474   5.187
38695W        W11021   6.774   4.302   4.197
38696W        W11022  35.020  42.458  14.889
38697W        W11023  32.403   2.229   2.202
38698W        W11024  30.514  19.703  12.987
38699W        W11025   0.979   9.286   2.209
38700W        W11026   6.763  35.444  11.993
38701W        W11027  30.038  23.730  13.535
38702W        W11028  35.999  37.481  12.371
38703W        W11029  11.669   9.852   4.212
38704W        W11030   0.254   0.763  12.924
38705W        W11031  24.579  37.043  12.072
38706W        W11032  26.952  21.192   2.726
38707W        W11033  44.346  41.792  11.602
38708W        W11034  43.772  18.741   0.465
38709W        W11035  43.334  44.986   4.746
38710W        W11036  29.473  17.713   2.352
38711W        W11037  28.541  36.451  10.473
38712W        W11038   7.365  39.407  12.984
38713W        W11039  13.207  19.769   4.824
38714W        W11040  33.127   3.749   0.328
38715W        W11041  31.066  16.766   1.417
38716W        W11042   2.356  21.699  11.479
38717W        W11043   2.915   1.308   2.286
38718W        W11044   2.829   3.299   3.713
38719W        W11045  38.488  39.328   2.801
38720W        W11046  29.493  39.894  12.038
38721W        W11047  34.886  28.526   3.844
38722W        W11048  32.467  20.040   4.803
38723W        W11049  44.914   1.413  14.968
38724W        W11050  36.357  42.978   4.748
38725W        W11051  16.291   2.406   4.615
38726W        W11052   0.844  38.051   0.337
38727W        W11053  22.742  39.390   5.735
38728W        W11054  13.800  23.571   0.929
38729W        W11055  29.077  13.677   1.915
38730W        W11056  12.844  35.445  10.598
38731W        W11057  41.455  28.084   0.871
38732W        W11058  15.189   0.852   1.383
38733W        W11059  24.556  36.469   1.384
38734W        W11060  32.034  16.579  12.538
38735W        W11061  20.542  16.110  11.878
38736W        W11062   1.853  15.717  12.409
38737W        W11063  30.446   8.706  14.804
38738W        W11064  17.754  11.729  12.056
38739W        W11065   6.358  42.305  14.879
38740W        W11066  12.793   3.368  10.526
38741W        W11067  31.430  42.928  10.939
38742W        W11068  11.256  25.577   1.896
38743W        W11069  39.884   1.955   4.828
38744W        W11070  37.567   4.796   0.476
38745W        W11071  34.524   2.383  11.908
38746W        W11072  27.151  20.127   1.410
38747W        W11073  20.538  14.749  14.867
38748W        W11074   0.404  18.572  11.920
38749W        W11075  15.765  11.197   1.713
38750W        W11076  41.401   6.194  13.845
38751W        W11077  10.142   1.237   3.210
38752W        W11078  37.033   0.745  14.779
38753W        W11079   5.830  44.285   4.791
38754W        W11080   1.899  35.514  13.510
38755W        W11081  15.225  35.473   9.938
38756W        W11082  26.003  34.893  14.958
38757W        W11083  39.423   3.817  11.475
38758W        W11084  38.038   3.798  12.442
38759W        W11085  42.402  32.940  11.933
38760W        W11086   0.897  11.729  12.891
38761W        W11087   6.259  23.070   3.150
38762W        W11088   8.793  39.038   1.255
38763W        W11089   9.313  24.146  13.960
38764W        W11090  36.015   3.730   3.171
38765W        W11091  12.323  44.810   2.753
38766W        W11092   5.794  31.567  10.916
38767W        W11093  11.201   1.825  11.016
38768W        W11094  17.118  40.851  14.939
38769W        W11095  29.446  30.130  10.501
38770W        W11096  36.096  33.506  13.354
38771W        W11097   8.749  44.471   3.847
38772W        W11098  10.363   3.436   2.852
38773W        W11099   1.836  42.907  14.357
38774W        W11100   5.302  12.283   4.680
38775W        W11101  35.484  39.519  10.959
38776W        W11102  14.748   5.407   2.802
38777W        W11103  35.423  23.605  12.398
38778W        W11104  40.458   4.765  14.429
38779W        W11105  11.740  13.251   1.376
38780W        W11106   7.198  18.074   0.253
38781W        W11107  34.432  14.199  13.992
38782W        W11108  19.125  31.094  10.959
38783W        W11109  26.965  11.278  14.814
38784W        W11110  34.468   9.735   0.940
38785W        W11111  44.389  27.621  10.468
38786W        W11112   1.755  22.545  14.277
38787W        W11113   2.244  43.795  13.969
38788W        W11114   5.228   5.386   0.297
38789W        W11115  25.706  22.148  13.845
38790W        W11116  12.656  42.323  11.000
38791W        W11117  38.872   8.729  14.433
38792W        W11118  43.340  22.197  13.023
38793W        W11119  42.475  29.622  12.959
38794W        W11120  20.117  20.606  13.535
38795W        W11121  27.080  33.116  13.903
38796W        W11122   9.793   3.284   0.755
38797W        W11123  25.056  35.940  10.534
38798W        W11124  44.259  38.021   0.473
38799W        W11125  20.591  20.747   0.743
38800W        W11126  23.687   7.283  14.862
38801W        W11127  43.934  33.029   3.711
38802W        W11128  10.184  43.502   4.298
38803W        W11129   9.165   7.357   3.263
38804W        W11130  13.279  41.519  13.330
38805W        W11131  38.548  30.093   3.213
38806W        W11132  18.628  44.761  12.063
38807W        W11133  33.532  20.601   3.347
38808W        W11134  21.677  19.718   1.777
38809W        W11135  23.168   3.415   0.303
38810W        W11136  38.886   9.312  13.419
38811W        W11137  25.511  44.793  11.479
38812W        W11138  26.198  38.531   0.771
38813W        W11139  26.183  18.753  14.302
38814W        W11140  40.429  12.648  14.812
38815W        W11141  15.264  34.368   4.172
38816W        W11142  36.904  20.740   4.191
38817W        W11143  13.274  10.290  10.613
38818W        W11144  33.418   2.458  12.094
38819W        W11145  25.107  44.444  14.498
38820W        W11146  36.441  26.668   3.315
38821W        W11147  25.482  20.072   3.366
38822W        W11148  17.177  31.408  12.082
38823W        W11149  13.690  35.997   2.417
38824W        W11150  12.290   2.857  11.041
38825W        W11151  36.055  39.454  11.084
38826W        W11152   9.672   4.415   3.859
38827W        W11153   6.848  44.908   1.314
38828W        W11154  18.787  18.256   1.420
38829W        W11155  21.031  21.245  13.345
38830W        W11156  34.938  10.354  14.468
38831W        W11157   1.976  25.098   4.125
38832W        W11158   1.781  20.199   4.158
38833W        W11159  29.027  34.939  12.499
38834W        W11160  35.901  42.801  13.867
38835W        W11161  41.393  27.069  11.881
38836W        W11162   2.240  14.657   0.346
38837W        W11163  41.493   8.781  14.454
38838W        W11164   2.419  42.884  10.597
38839W        W11165  25.091  19.607  10.984
38840W        W11166   8.654  25.987   0.960
38841W        W11167  40.498  22.618   0.884
38842W        W11168  22.579  14.157  11.961
38843W        W11169  34.508  12.340   1.416
38844W        W11170  24.511  26.022  11.933
38845W        W11171  17.584  36.461   3.216
38846W        W11172  40.400  28.492  14.903
38847W        W11173   5.809  13.817  10.472
38848W        W11174  39.481   0.321   4.599
38849W        W11175   0.822   0.405  14.946
38850W        W11176   3.253  41.418  14.814
38851W        W11177  40.011  20.699  11.482
38852W        W11178   4.830   0.423  11.990
38853W        W11179  29.659  31.629   3.257
38854W        W11180   7.412  15.594  14.980
38855W        W11181  42.948  38.495  12.457
38856W        W11182  24.058  41.406  14.907
38857W        W11183  41.861  12.744  12.457
38858W        W11184  44.754  14.700  11.099
38859W        W11185  12.220   1.321   1.238
38860W        W11186  38.927  21.186  12.826
38861W        W11187  24.644  18.640   2.278
38862W        W11188  40.008   9.271  14.814
38863W        W11189  30.129  19.552  14.778
38864W        W11190  29.483  19.619   1.352
38865W        W11191  31.985  31.152  14.858
38866W        W11192   3.270  24.591  11.934
38867W        W11193  27.576  14.130   0.316
38868W        W11194  29.434  19.667  11.490
38869W        W11195  18.289  30.019  10.926
38870W        W11196  43.924  25.635  11.463
38871W        W11197  42.522  11.837   2.390
38872W        W11198   9.346   0.918  10.897
38873W        W11199  15.222  36.480  12.900
38874W        W11200  12.667   5.886  14.281
38875W        W11201  14.648  40.508   1.289
38876W        W11202  21.692   5.768   1.335
38877W        W11203  28.650  36.963   4.780
38878W        W11204   1.959  18.706   0.945
38879W        W11205  16.779  27.096   2.219
38880W        W11206   2.934   4.724   4.649
38881W        W11207  42.386   8.270   2.853
38882W        W11208  36.863  12.767  13.413
38883W        W11209  15.120  35.077   1.442
38884W        W11210  41.990  33.510   4.635
38885W        W11211  36.417   1.929   1.880
38886W        W11212   9.712   6.199   3.639
38887W        W11213  24.532   0.814  14.790
38888W        W11214  37.418   6.724  11.931
38889W        W11215  30.517  12.360  14.007
38890W        W11216  17.250  32.473   4.618
38891W        W11217  44.446  17.195   3.723
38892W        W11218  39.959  44.278  10.639
38893W        W11219   9.268  17.080   0.827
38894W        W11220  26.566   8.839  13.450
38895W        W11221  17.231   4.929   4.683
38896W        W11222  25.694  44.822   2.182
38897W        W11223  26.171  38.349  14.764
38898W        W11224  44.342  44.992  12.856
38899W        W11225  42.402   7.212  13.009
38900W        W11226  39.404  37.076   4.339
38901W        W11227   2.364  29.464   3.198
38902W        W11228  32.951   0.300  11.961
38903W        W11229  22.556   0.388  12.096
38904W        W11230  27.031   1.258   4.805
38905W        W11231  40.476  39.329  13.995
38906W        W11232  36.916  21.113   2.267
38907W        W11233   2.380  11.713   3.155
38908W        W11234  19.676  44.504  10.567
38909W        W11235  11.662  26.975  12.843
38910W        W11236   3.247  31.503   3.174
38911W        W11237  31.134   4.235  13.321
38912W        W11238  39.502   5.353   4.776
38913W        W11239  12.654  23.689  10.034
38914W        W11240   3.265  18.256   2.780
38915W        W11241  10.260  38.562  15.000
38916W        W11242   3.719  20.182  14.468
38917W        W11243  32.944  23.683   2.858
38918W        W11244   5.923   7.894  13.869
38919W        W11245   5.258  38.481   3.806
38920W        W11246  40.303  37.434   2.319
38921W        W11247  19.705  11.651   4.612
38922W        W11248  22.567  13.642  12.349
38923W        W11249   4.435   0.488   2.234
38924W        W11250   5.800  13.824   3.768
38925W        W11251   3.289  39.412   4.295
38926W        W11252  29.140  41.343   4.338
38927W        W11253  11.355   9.644  13.913
38928W        W11254   4.933  21.618   2.690
38929W        W11255  31.116  36.492   1.890
38930W        W11256  23.693  15.640  11.985
38931W        W11257  31.947  14.303  11.942
38932W        W11258  43.942  12.851  11.476
38933W        W11259  29.509  38.566  10.995
38934W        W11260   7.813  31.067  10.914
38935W        W11261  14.165  41.039   2.413
38936W        W11262  33.393  17.192  11.419
38937W        W11263  37.581  18.695  11.088
38938W        W11264   6.411  11.291   3.309
38939W        W11265  12.309  18.134  11.104
38940W        W11266  10.809  44.469  11.541
38941W        W11267  44.417   7.842  14.794
38942W        W11268   6.324  43.269  10.009
38943W        W11269  18.126  13.165  13.436
38944W        W11270  30.946  40.357   0.288
38945W        W11271   7.333  37.867  13.946
38946W        W11272   3.772  35.530   4.796
38947W        W11273  38.430  24.563   4.735
38948W        W11274  25.671  19.118   2.281
38949W        W11275  35.458  38.996  10.538
38950W        W11276   0.482  42.922   2.323
38951W        W11277  44.848   9.201   1.736
38952W        W11278  19.117  40.045   4.703
38953W        W11279  25.028  24.975  12.868
38954W        W11280  31.490  39.330  14.863
38955W        W11281   7.837   1.253  13.979
38956W        W11282  44.803   9.299  13.965
38957W        W11283   8.680   9.219   3.671
38958W        W11284  38.967  32.469  13.441
38959W        W11285  28.079  10.741   3.839
38960W        W11286  20.269   8.171   2.735
38961W        W11287  44.796  21.542  12.568
38962W        W11288  15.226   9.814   1.250
38963W        W11289  23.179  36.974   9.675
38964W        W11290  39.021  31.139   0.307
38965W        W11291  33.495  31.603   3.733
38966W        W11292  26.978  38.947  11.571
38967W        W11293  16.775   3.269  11.981
38968W        W11294  33.034  28.108   0.419
38969W        W11295  22.025  38.891  12.024
38970W        W11296  23.212   5.835  13.967
38971W        W11297  33.562  11.216  13.309
38972W        W11298  13.151  22.559   4.825
38973W        W11299  18.273  31.522  13.490
38974W        W11300  19.251  12.347  10.531
38975W        W11301  13.231  20.673  12.554
38976W        W11302  17.784  31.906  11.481
38977W        W11303  43.921  24.711  11.119
38978W        W11304  27.144  31.555  14.987
38979W        W11305  11.782   9.238   1.805
38980W        W11306  23.029  12.223  14.840
38981W        W11307  43.327  39.443   0.846
38982W        W11308  39.508  37.565  12.580
38983W        W11309  21.165  41.364  12.343
38984W        W11310  26.631  16.618  12.556
38985W        W11311  43.916  14.111   3.650
38986W        W11312  36.095  36.961   3.706
38987W        W11313  12.751  13.194  12.511
38988W        W11314   5.312  38.469  12.568
38989W        W11315  17.135  29.645  10.923
38990W        W11316   4.328  20.632   1.933
38991W        W11317  10.634  21.617  10.594
38992W        W11318  17.655  21.042   4.786
38993W        W11319  22.716  39.845  11.123
38994W        W11320  24.687  15.724   3.688
38995W        W11321   7.254  12.328  11.379
38996W        W11322  11.842  13.671   3.293
38997W        W11323  44.282   0.404  13.392
38998W        W11324  44.770  29.549  10.524
38999W        W11325   7.809  36.386   4.141
39000W        W11326  41.300  43.819  10.996
39001W        W11327  28.657   1.462   3.832
39002W        W11328  40.841   9.650  12.340
39003W        W11329  32.112   1.302   0.862
39004W        W11330  33.895  27.094  14.446
39005W        W11331  10.873   9.816   4.827
39006W        W11332   1.770   7.723   0.840
39007W        W11333  11.797  25.183   5.169
39008W        W11334  14.638  14.253   4.335
39009W        W11335  27.153   8.393  11.385
39010W        W11336  15.712  21.608  12.830
39011W        W11337  40.834  43.343  12.960
39012W        W11338  40.933   0.452  12.916
39013W        W11339  43.832  25.571   4.256
39014W        W11340  25.999  18.704  13.387
39015W        W11341  43.831   8.899  13.349
39016W        W11342  18.267  31.092  14.437
39017W        W11343  43.439  39.052  10.631
39018W        W11344  15.158  15.114   0.919
39019W        W11345  21.229  31.531   2.874
39020W        W11346  22.573  37.394  13.955
39021W        W11347  14.209  30.950   3.205
39022W        W11348  42.367  32.410   3.342
39023W        W11349  27.065   0.784   3.703
39024W        W11350  32.056  20.682  13.798
39025W        W11351  24.663  41.832   4.167
39026W        W11352  16.579   9.155   1.365
39027W        W11353  11.264   1.389  12.462
39028W        W11354  18.548  29.963   3.222
39029W        W11355   6.350   3.927   1.929
39030W        W11356  44.919  16.779   0.441
39031W        W11357  12.224   4.385  10.966
39032W        W11358   8.686  14.731  12.011
39033W        W11359  27.133  41.841   2.211
39034W        W11360  12.647  17.731   1.822
39035W        W11361  13.835  43.807  12.453
39036W        W11362  40.963  30.539   2.742
39037W        W11363  26.002   3.942   2.318
39038W        W11364  37.031  23.136  14.917
39039W        W11365  12.750  14.253   0.386
39040W        W11366  42.418  29.490   0.854
39041W        W11367  11.834  20.768   0.351
39042W        W11368  20.152   6.898   3.280
39043W        W11369  21.203  26.547  10.473
39044W        W11370  41.513   8.754  11.509
39045W        W11371   0.967  23.118   2.309
39046W        W11372  36.445   2.790  10.995
39047W        W11373  14.201  21.198  14.352
39048W        W11374  41.339  23.102  11.971
39049W        W11375  35.525  23.140   0.753
39050W        W11376   2.375  25.219   0.251
39051W        W11377  26.139   9.285   2.833
39052W        W11378  19.546  30.453   4.801
39053W        W11379  21.674   1.762   2.834
39054W        W11380   2.965  43.434  10.485
39055W        W11381  15.798  14.767   2.689
39056W        W11382  11.331   5.758  14.871
39057W        W11383   1.870  18.214  14.802
39058W        W11384  14.745  21.025  11.523
39059W        W11385   1.422  32.951   3.256
39060W        W11386   9.767  27.104  13.791
39061W        W11387   4.925  14.621   4.597
39062W        W11388  34.523  27.039  12.409
39063W        W11389  15.229  34.948  12.955
39064W        W11390  21.019   8.161   0.278
39065W        W11391  35.534  11.161  13.363
39066W        W11392  43.807  31.945   4.660
39067W        W11393  29.544  18.562  12.460
39068W        W11394  19.606  22.204   0.481
39069W        W11395   2.742  23.503  14.006
39070W        W11396  41.941  44.922  12.068
39071W        W11397   5.227  27.008  14.769
39072W        W11398  29.508  36.876   3.354
39073W        W11399   0.774   0.965  12.866
39074W        W11400   2.782   7.348  11.390
39075W        W11401   6.811  31.113   2.894
39076W        W11402  18.598  13.729   0.930
39077W        W11403  29.976   7.791  14.321
39078W        W11404  44.402  24.974  10.010
39079W        W11405  24.230  18.127   9.436
39080W        W11406   3.399   2.400  14.831
39081W        W11407   3.769  19.123  13.430
39082W        W11408  23.207  29.918   1.333
39083W        W11409  10.302  43.892   1.893
39084W        W11410  19.141  20.229   1.709
39085W        W11411  19.772  35.041   4.701
39086W        W11412  16.784   0.946  14.378
39087W        W11413   3.267  44.473   1.839
39088W        W11414  38.914  34.454   3.658
39089W        W11415  21.175  41.823  13.512
39090W        W11416  10.873  36.964   4.716
39091W        W11417  27.611  39.039  12.413
39092W        W11418   6.885   5.715  10.630
39093W        W11419  15.225   8.780  13.878
39094W        W11420   4.759  44.889  12.567
39095W        W11421  17.283  42.346   2.880
39096W        W11422  34.897   5.843  12.488
39097W        W11423  26.174  40.998   4.650
39098W        W11424  29.949  18.553   3.710
39099W        W11425  41.954  21.186   4.823
39100W        W11426  31.101  26.519   1.798
39101W        W11427  40.336  21.060   0.355
39102W        W11428  44.485  18.055   3.826
39103W        W11429  30.937  29.958  11.901
39104W        W11430   2.265  21.589   0.318
39105W        W11431  39.053  18.246   1.251
39106W        W11432  17.245  19.711   2.806
39107W        W11433   1.797  28.636  12.842
39108W        W11434  22.728  29.466  12.351
39109W        W11435  14.778  38.520   3.780
39110W        W11436  42.948  19.705  14.370
39111W        W11437  29.459  40.388  11.544
39112W        W11438  44.853  28.141  14.414
39113W        W11439  38.488   6.315   2.232
39114W        W11440   7.197   9.794   3.743
39115W        W11441  22.588  28.093   0.771
39116W        W11442  29.056  33.499   1.871
39117W        W11443  32.399  11.738   1.256
39118W        W11444  13.215  15.762   0.453
39119W        W11445  29.631  18.054  14.457
39120W        W11446   2.336  17.655  13.489
39121W        W11447   1.429  32.111  14.016
39122W        W11448  29.117  39.349   0.417
39123W        W11449  30.428  20.613   2.762
39124W        W11450  10.310  36.094  10.024
39125W        W11451  35.854  40.483   3.822
39126W        W11452   1.794   3.846   3.367
39127W        W11453   6.247   5.362  12.997
39128W        W11454  20.101  13.248  11.962
39129W        W11455  14.632  24.587  12.575
39130W        W11456   8.331  26.138   2.895
39131W        W11457  40.402  42.775  13.376
39132W        W11458  18.614  40.456  14.360
39133W        W11459   2.396  41.790   0.753
39134W        W11460  32.526  35.585   0.877
39135W        W11461  39.002  34.582   1.725
39136W        W11462   3.450  39.862   2.305
39137W        W11463  13.750  20.032   2.723
39138W        W11464   0.280  29.951  11.445
39139W        W11465  17.575  35.547  11.046
39140W        W11466  42.884  34.879   1.234
39141W        W11467  33.455  15.177  10.557
39142W        W11468  30.040   5.412  14.014
39143W        W11469  31.015  42.492  12.545
39144W        W11470  29.438  44.854  12.829
39145W        W11471  30.494  20.525   3.808
39146W        W11472  28.479  40.488  14.894
39147W        W11473  36.852   1.250   2.686
39148W        W11474  28.458  15.756   3.756
39149W        W11475   4.800  17.695  13.964
39150W        W11476  18.211  11.162   1.271
39151W        W11477  19.048  27.992  13.464
39152W        W11478  13.298  33.919  14.467
39153W        W11479  23.672  25.475   4.324
39154W        W11480  31.082  41.448  12.055
39155W        W11481  37.577  29.071  10.472
39156W        W11482  39.054   0.396  14.493
39157W        W11483  42.404  23.548   3.631
39158W        W11484   8.291  19.171   0.786
39159W        W11485  33.016  20.035   4.245
39160W        W11486  44.967  23.219   3.160
39161W        W11487  17.729  25.080   4.211
39162W        W11488  19.648  15.242  10.622
39163W        W11489   7.368   3.387  11.885
39164W        W11490  37.558  42.478   1.325
39165W        W11491  32.613  23.193  11.490
39166W        W11492  44.952  34.038  10.517
39167W        W11493  26.012   0.780  12.455
39168W        W11494  40.009  42.377   2.283
39169W        W11495  19.101  20.043  14.965
39170W        W11496  33.005  42.436   0.257
39171W        W11497  23.072  44.876   1.706
39172W        W11498   1.890   8.304  12.850
39173W        W11499  39.436  34.511   1.389
39174W        W11500   0.791  40.459  11.870
39175W        W11501   3.271  20.590   1.912
39176W        W11502  37.870  15.782  14.001
39177W        W11503  13.222  12.784  13.795
39178W        W11504  27.497  33.000  11.488
39179W        W11505  21.530  25.698  13.872
39180W        W11506  33.431  10.207   0.381
39181W        W11507  43.437  22.546   3.312
39182W        W11508  25.469   6.185   4.207
39183W        W11509  36.092  35.006   3.341
39184W        W11510  34.533  10.221  12.008
39185W        W11511  42.403   2.285  10.588
39186W        W11512  42.886  38.952  11.959
39187W        W11513  31.032  38.483   2.381
39188W        W11514  25.099  19.633   1.444
39189W        W11515   1.457  34.978   0.357
39190W        W11516  37.573  22.664   3.177
39191W        W11517  44.458  29.577   2.184
39192W        W11518  14.151   8.174  12.980
39193W        W11519   7.902  27.149  12.071
39194W        W11520   6.833   0.427   1.792
39195W        W11521   2.879  41.973   3.223
39196W        W11522  24.995  14.096   3.285
39197W        W11523  41.518  41.319   2.900
39198W        W11524   3.264  24.538   2.672
39199W        W11525   7.784  11.314   2.323
39200W        W11526  21.638   2.236  12.437
39201W        W11527  42.030  33.403  10.074
39202W        W11528  36.591  12.836   4.291
39203W        W11529  33.433   2.901  14.891
39204W        W11530  30.141  20.648  13.531
39205W        W11531  32.573  25.085  13.978
39206W        W11532   4.312  41.448  14.388
39207W        W11533  16.101  32.102  12.995
39208W        W11534  12.333  23.038  14.890
39209W        W11535   2.238  33.624  12.949
39210W        W11536  25.539  39.954   4.687
39211W        W11537   4.396  44.474   2.412
39212W        W11538   8.194  37.526  11.874
39213W        W11539   7.264  25.197   0.347
39214W        W11540  33.071   5.872   1.911
39215W        W11541   6.272  24.528   2.388
39216W        W11542   6.806  25.985   3.834
39217W        W11543  29.047  13.664   2.853
39218W        W11544  41.351   1.868  13.310
39219W        W11545  18.767  43.425  13.032
39220W        W11546  12.141  44.830  13.951
39221W        W11547  42.290  25.986  13.523
39222W        W11548   0.446  32.519   4.321
39223W        W11549  13.156  19.583   2.853
39224W        W11550  25.035  23.693   2.288
39225W        W11551  35.893   0.869  10.987
39226W        W11552  32.061   0.323  13.893
39227W        W11553  27.545   4.311   4.634
39228W        W11554  27.044  33.922   0.797
39229W        W11555  41.411  13.225   5.138
39230W        W11556   2.421  34.466  14.474
39231W        W11557  29.981   1.806   1.878
39232W        W11558  41.013  36.917  14.790
39233W        W11559   2.914  31.053  10.589
39234W        W11560  34.545  17.679  11.896
39235W        W11561   9.729  25.551   4.830
39236W        W11562   8.769   2.312  11.918
39237W        W11563  30.009  17.238   1.343
39238W        W11564  37.406  37.505   2.851
39239W        W11565  38.453   6.735  14.313
39240W        W11566  14.294  20.072   3.368
39241W        W11567  30.936  42.285   1.375
39242W        W11568   2.377  41.977  12.931
39243W        W11569  39.455   7.261   4.728
39244W        W11570  35.551   0.281   0.425
39245W        W11571   9.798   1.955   4.235
39246W        W11572  25.133  31.563   2.214
39247W        W11573  39.990  13.139  14.814
39248W        W11574  41.931  36.497   4.145
39249W        W11575  34.942  36.844   0.796
39250W        W11576  29.098  40.831  13.878
39251W        W11577   3.460  42.973   1.382
39252W        W11578  29.018  24.605  14.467
39253W        W11579  11.366  12.855   4.249
39254W        W11580  33.046   8.300  10.526
39255W        W11581   0.419  26.011   2.756
39256W        W11582   2.353  31.646  11.493
39257W        W11583  20.247   2.300   0.784
39258W        W11584  28.440  41.463  13.526
39259W        W11585  40.999  33.493  14.364
39260W        W11586   8.660  23.642  12.361
39261W        W11587  37.476  19.054   1.300
39262W        W11588   1.922   2.856   3.674
39263W        W11589  39.810  26.543  12.540
39264W        W11590  31.538  20.744   1.335
39265W        W11591  17.562  33.053   2.798
39266W        W11592  28.506   8.866   5.317
39267W        W11593  33.997  37.846  10.918
39268W        W11594  19.132  24.596  12.423
39269W        W11595  19.739  32.401   1.232
39270W        W11596   5.914  22.084   2.251
39271W        W11597  40.016   4.442  14.364
39272W        W11598  26.608  32.062  10.606
39273W        W11599  15.305  13.117   1.900
39274W        W11600  43.836   0.807  10.887
39275W        W11601  17.758  43.860   2.343
39276W        W11602  29.450  24.010   0.907
39277W        W11603  40.037  11.841   1.334
39278W        W11604   8.293  16.264   0.356
39279W        W11605  35.997  17.261   0.880
39280W        W11606   1.950  40.879  10.580
39281W        W11607  20.250  10.638  10.903
39282W        W11608  28.535   8.274  13.798
39283W        W11609  24.547  16.080   2.286
39284W        W11610  36.514  32.432  11.385
39285W        W11611  15.753  20.261   2.683
39286W        W11612  26.698  36.483   0.379
39287W        W11613  41.879  14.609  13.058
39288W        W11614  17.167  40.851   1.287
39289W        W11615   5.400  17.615   2.205
39290W        W11616   1.791  30.136  13.499
39291W        W11617  29.136  27.485  14.489
39292W        W11618  20.198  23.024  14.327
39293W        W11619  29.062   5.269  14.838
39294W        W11620  43.460  34.606  10.070
39295W        W11621  17.271   8.747  14.319
39296W        W11622  12.140  13.253  13.965
39297W        W11623  26.988  24.554   0.445
39298W        W11624  17.668  15.592  12.387
39299W        W11625  40.410  19.145   4.233
39300W        W11626  37.003   9.673  12.021
39301W        W11627  25.589   2.256   3.329
39302W        W11628  19.240  40.962  14.416
39303W        W11629  36.081  39.337   3.281
39304W        W11630  33.994   6.778  11.081
39305W        W11631  28.186  29.125  10.644
39306W        W11632  24.592   5.378   1.275
39307W        W11633  32.599   5.772   1.884
39308W        W11634  33.496   5.193   4.118
39309W        W11635  42.396  19.657  11.128
39310W        W11636  42.933   7.413   1.831
39311W        W11637   7.208  29.498   4.713
39312W        W11638  39.542   8.873   4.134
39313W        W11639  24.684  19.235   0.460
39314W        W11640  36.456  10.858   2.396
39315W        W11641  14.170  17.122  10.538
39316W        W11642  13.156  37.008   5.219
39317W        W11643  42.786  34.450  12.891
39318W        W11644  37.922  11.707  10.003
39319W        W11645  33.962   0.428   0.263
39320W        W11646  28.499  20.693  11.964
39321W        W11647  35.434  43.439   0.831
39322W        W11648   3.430  17.065  12.339
39323W        W11649  38.381  14.252  11.032
39324W        W11650  21.179  11.372  13.948
39325W        W11651   6.920  40.321  13.910
39326W        W11652   6.305  27.509  11.475
39327W        W11653  30.937  13.200   4.271
39328W        W11654  38.536  36.871   3.366
39329W        W11655  21.024  37.086  13.450
39330W        W11656  44.394  30.979  11.957
39331W        W11657  36.940  28.573   3.326
39332W        W11658  34.045  26.657  11.911
39333W        W11659  14.314  22.627   1.813
39334W        W11660  19.559  44.898  10.895
39335W        W11661   5.800  18.114   4.610
39336W        W11662  33.049   4.271   3.694
39337W        W11663  36.510  16.233  12.494
39338W        W11664  35.547  39.035   3.174
39339W        W11665  26.011  19.595   0.870
39340W        W11666  39.432  39.522  12.495
39341W        W11667  27.472  12.257  10.592
39342W        W11668  33.979  17.752  12.937
39343W        W11669  10.722  44.791   1.874
39344W        W11670  43.865  17.677  14.404
39345W        W11671  44.769  25.535  11.113
39346W        W11672  15.790  40.332   3.639
39347W        W11673   4.701  13.212  11.093
39348W        W11674  42.992  19.098   4.355
39349W        W11675   1.248  16.588   1.781
39350W        W11676   9.327  16.114   0.392
39351W        W11677  43.271  38.548   3.864
39352W        W11678  18.673  11.265   0.915
39353W        W11679  36.942   9.278  12.846
39354W        W11680  25.134  16.273  13.512
39355W        W11681  13.723  40.414   3.643
39356W        W11682  26.970  41.835   2.788
39357W        W11683   6.379  39.042  10.160
39358W        W11684  13.700  30.149  14.300
39359W        W11685  42.829   4.373   4.781
39360W        W11686  20.094  15.157  14.325
39361W        W11687   4.220  21.189  12.569
39362W        W11688  27.457  21.729   1.859
39363W        W11689  23.712  19.689  10.619
39364W        W11690  33.586  26.615   5.226
39365W        W11691  22.185  25.048  13.405
39366W        W11692  35.911  28.098   0.791
39367W        W11693  20.614  30.151   1.366
39368W        W11694  19.776  13.230  13.513
39369W        W11695  18.681   1.387  14.472
39370W        W11696  35.997  15.761  11.042
39371W        W11697  15.800   8.279  12.563
39372W        W11698  37.913  17.584   0.272
39373W        W11699  24.546   5.362   2.856
39374W        W11700   5.294  18.083  11.497
39375W        W11701  33.565  26.199   2.875
39376W        W11702  27.014  32.542   2.810
39377W        W11703   5.345  21.674   2.193
39378W        W11704  28.983  24.677  10.445
39379W        W11705  34.614  44.770   1.807
39380W        W11706  33.038   0.469   2.404
39381W        W11707  18.237   7.790  11.048
39382W        W11708  25.141  41.357  13.516
39383W        W11709  22.246  44.875   4.342
39384W        W11710  11.860  31.533  14.423
39385W        W11711  25.038  23.615   3.635
39386W        W11712  26.112  44.783   2.780
39387W        W11713  23.987  15.160  13.923
39388W        W11714  32.612   0.342  12.558
39389W        W11715  33.408  44.259   0.331
39390W        W11716   6.282  10.801  11.527
39391W        W11717   1.807  28.160   3.245
39392W        W11718  26.688  22.096   4.342
39393W        W11719   6.283  40.032   1.748
39394W        W11720  29.500  40.828  11.877
39395W        W11721   9.763   7.874  11.505
39396W        W11722  40.524  42.486   2.351
39397W        W11723  22.521  40.010   2.788
39398W        W11724  32.128   8.338   0.272
39399W        W11725   4.382  25.978   1.255
39400W        W11726  42.455  42.892   1.821
39401W        W11727   0.409   0.486  13.535
39402W        W11728  42.031  16.699   3.760
39403W        W11729  42.494  22.100   0.815
39404W        W11730  12.791  17.733   4.738
39405W        W11731  23.202  17.254   4.125
39406W        W11732   3.449   2.237  11.446
39407W        W11733  33.525   3.726  14.884
39408W        W11734   0.341  31.433   4.323
39409W        W11735  12.676  12.804   3.869
39410W        W11736  12.266  20.098  12.520
39411W        W11737   6.251  11.226   4.609
39412W        W11738   7.869  10.194   4.114
39413W        W11739   5.869  27.067  12.573
39414W        W11740  11.640   5.291   0.414
39415W        W11741  21.556  37.071   3.325
39416W        W11742  22.545  40.849   4.656
39417W        W11743  16.150  10.159   1.880
39418W        W11744  17.280  44.423  14.932
39419W        W11745  41.871  29.972   3.676
39420W        W11746  25.476  44.296  13.490
39421W        W11747  14.718   2.767   2.874
39422W        W11748   3.832  38.044  14.830
39423W        W11749  34.037  14.757  10.514
39424W        W11750   7.761  43.272   3.216
39425W        W11751  36.960   6.352  10.499
39426W        W11752  19.147   3.341   1.431
39427W        W11753  20.079  28.078  10.107
39428W        W11754  14.639  15.812   4.199
39429W        W11755  41.501  43.839  12.942
39430W        W11756  30.971  13.793  11.554
39431W        W11757  16.236   6.425  13.925
39432W        W11758  26.079  10.744   2.208
39433W        W11759  39.458  31.001   0.808
39434W        W11760  17.108  10.275  13.801
39435W        W11761   2.274  26.694   2.869
39436W        W11762   3.460  32.118  11.899
39437W        W11763  13.306  19.614  12.365
39438W        W11764  21.732  36.483  14.301
39439W        W11765   3.450  39.385  14.816
39440W        W11766  22.541  34.420   0.352
39441W        W11767  27.008  22.508   1.800
39442W        W11768  17.738  43.965   0.962
39443W        W11769  10.822  29.988  13.901
39444W        W11770  19.236  35.404   0.901
39445W        W11771  10.323   3.944  14.379
39446W        W11772  26.489  26.674   4.344
39447W        W11773  24.164  11.236  13.839
39448W        W11774  15.083   6.690   1.919
39449W        W11775   9.382  38.053  10.982
39450W        W11776  40.324  14.292  11.386
39451W        W11777  10.323   2.909  14.491
39452W        W11778  24.149  25.572   1.443
39453W        W11779  12.834  43.492   4.756
39454W        W11780  31.033  12.683  12.524
39455W        W11781  36.003  44.818  11.474
39456W        W11782  29.941  43.774  10.894
39457W        W11783  24.494  27.143  13.462
39458W        W11784  40.834  34.878  10.558
39459W        W11785  23.222   0.878  14.471
39460W        W11786  17.765  37.933  13.878
39461W        W11787  16.726  38.979  11.415
39462W        W11788  13.667  29.118   2.207
39463W        W11789   2.357  37.452   2.878
39464W        W11790  22.611  21.662   1.888
39465W        W11791   4.368   1.754   2.403
39466W        W11792  32.483  11.759   4.264
39467W        W11793  19.615  29.957  14.391
39468W        W11794  15.315  18.132  13.459
39469W        W11795   9.809  34.557  11.916
39470W        W11796   3.718  18.629  12.978
39471W        W11797  10.865   1.398   1.403
39472W        W11798   1.799  35.977  11.585
39473W        W11799   2.469  18.608  12.889
39474W        W11800   8.314   5.736   1.737
39475W        W11801  38.467  33.475  10.638
39476W        W11802  44.961  35.968   3.324
39477W        W11803  32.092  12.632  13.380
39478W        W11804  24.186  40.995   0.792
39479W        W11805  12.726  39.383   4.332
39480W        W11806   9.660   6.850   3.230
39481W        W11807  29.653  35.098   5.183
39482W        W11808  38.045  11.744   2.678
39483W        W11809  10.843  37.938  11.861
39484W        W11810  25.995  28.548  13.028
39485W        W11811  34.088  40.903   2.266
39486W        W11812  11.243  26.983   3.635
39487W        W11813  31.117  42.851   0.943
39488W        W11814   8.898   9.736  11.376
39489W        W11815  24.156  23.530   3.748
39490W        W11816  36.439  35.049   3.291
39491W        W11817  27.555   2.336   2.355
39492W        W11818  20.558   0.331   4.169
39493W        W11819  20.731  24.514   1.917
39494W        W11820  38.568  12.843   2.221
39495W        W11821  30.630  41.030  10.963
39496W        W11822  14.299  23.999   0.731
39497W        W11823  41.448  36.061   1.366
39498W        W11824   3.800  23.622  13.425
39499W        W11825  18.748  19.694  11.125
39500W        W11826   2.797  27.461  11.429
39501W        W11827  34.437   7.752  13.459
39502W        W11828  15.806  26.687  13.836
39503W        W11829  32.066  10.771   1.407
39504W        W11830  43.334  32.132   2.297
39505W        W11831  33.098  25.104   0.464
39506W        W11832   3.712  17.650   4.730
39507W        W11833  28.476  41.038   0.256
39508W        W11834  17.269  31.639   4.727
39509W        W11835  34.004   8.684  14.024
39510W        W11836  41.946  34.369   2.893
39511W        W11837  31.137  42.778  11.081
39512W        W11838  19.572  35.933  13.375
39513W        W11839   7.747  11.340   3.173
39514W        W11840   2.405  24.216   5.209
39515W        W11841  24.103  44.275   1.876
39516W        W11842  36.016  35.417   5.783
39517W        W11843  36.369  20.125  12.933
39518W        W11844  40.323   6.399  11.062
39519W        W11845  33.006  36.043   0.296
39520W        W11846  20.182   2.360  14.870
39521W        W11847   0.864  27.147  11.895
39522W        W11848  19.123  18.239  11.556
39523W        W11849  31.971  38.478  13.898
39524W        W11850  17.793  23.045   0.926
39525W        W11851  18.621   8.170  11.441
39526W        W11852  39.928  31.425   1.328
39527W        W11853  43.363  28.454   0.822
39528W        W11854  13.742  11.253  14.856
39529W        W11855  11.754   8.882   1.346
39530W        W11856  38.546   2.329  12.564
39531W        W11857  34.478   6.221   1.769
39532W        W11858  39.406   4.316  13.877
39533W        W11859  30.064  24.708   2.811
39534W        W11860  30.125  30.611  12.567
39535W        W11861   0.827  34.466   3.870
39536W        W11862   2.807  44.948   4.199
39537W        W11863  37.369   9.283  11.056
39538W        W11864  39.502  40.890  13.456
39539W        W11865  23.640  16.642  11.040
39540W        W11866  16.163   9.346   2.780
39541W        W11867  41.382  15.163   2.409
39542W        W11868  22.248  36.566   2.739
39543W        W11869   6.820  31.079  10.578
39544W        W11870  21.747  22.240  10.582
39545W        W11871  26.103  24.585  10.578
39546W        W11872  28.571  44.443   2.804
39547W        W11873  29.166  31.611   2.303
39548W        W11874  36.037  34.987   0.960
39549W        W11875  29.029  22.189  12.436
39550W        W11876  31.013  38.871   3.177
39551W        W11877   1.300  36.449  13.854
39552W        W11878  41.440  40.799   4.315
39553W        W11879  44.440  14.169   2.376
39554W        W11880  25.967  27.572  10.962
39555W        W11881   1.856  21.101  12.554
39556W        W11882   2.791   2.758  10.131
39557W        W11883  10.750  34.571  13.003
39558W        W11884  33.952  42.999  10.512
39559W        W11885  36.940  33.986  13.060
39560W        W11886  14.158  23.564   3.837
39561W        W11887  30.530  23.632  11.551
39562W        W11888  29.519  44.981  11.462
39563W        W11889  30.100   0.388   3.287
39564W        W11890   9.353   9.647  14.311
39565W        W11891  33.514  40.819   3.672
39566W        W11892  36.513  16.087   4.750
39567W        W11893   3.440   6.868  12.487
39568W        W11894  26.697  34.955  12.943
39569W        W11895  16.078  19.260  11.530
39570W        W11896  44.289   1.858  14.294
39571W        W11897  24.154  23.583  10.041
39572W        W11898  14.755  25.055   0.421
39573W        W11899  14.674  15.707   2.275
39574W        W11900  19.751  11.149  11.475
39575W        W11901  30.500  17.588   2.187
39576W        W11902   3.869  36.434   2.209
39577W        W11903   6.834  10.176  13.347
39578W        W11904  31.898  40.506  14.943
39579W        W11905  21.167  16.148   3.305
39580W        W11906  31.599  15.158  14.956
39581W        W11907  33.480   7.268  11.908
39582W        W11908  18.703  30.565   3.859
39583W        W11909  30.495  27.502  12.353
39584W        W11910   6.724   3.884   0.306
39585W        W11911  26.461   9.792  14.481
39586W        W11912  19.227  14.631  12.072
39587W        W11913  40.027   3.895   1.410
39588W        W11914   2.920  16.682  14.819
39589W        W11915  26.110  20.136   2.749
39590W        W11916  37.018   4.840   4.292
39591W        W11917  14.692   8.381   3.296
39592W        W11918  23.020  27.154  10.568
39593W        W11919  20.234  32.086  13.404
39594W        W11920   4.283  24.487   2.260
39595W        W11921  21.188  19.744   2.790
39596W        W11922  30.093  26.583  14.330
39597W        W11923  16.771  36.375  13.546
39598W        W11924  44.438  28.089  14.340
39599W        W11925  44.794  19.741   0.471
39600W        W11926   5.202  15.228  10.898
39601W        W11927  41.312  40.512   0.400
39602W        W11928  33.000  10.219  14.363
39603W        W11929  42.481   9.284  13.364
39604W        W11930  28.508  37.942  10.567
39605W        W11931  14.767   3.219  10.471
39606W        W11932  23.645  29.066  13.472
39607W        W11933   7.726   0.957   3.146
39608W        W11934  41.965  41.411   1.706
39609W        W11935  35.096  22.130   1.892
39610W        W11936  35.501  35.052  10.018
39611W        W11937  21.033  30.039  13.378
39612W        W11938  42.355  36.025   4.643
39613W        W11939  39.989   7.265   1.755
39614W        W11940  15.646  39.451  12.947
39615W        W11941  15.228  31.047  14.379
39616W        W11942   6.335   3.816  10.499
39617W        W11943  26.552  43.873  14.309
39618W        W11944  27.662   6.312   3.159
39619W        W11945  40.497   1.483  14.515
39620W        W11946   9.349   4.819  13.852
39621W        W11947   8.406  39.818  11.897
39622W        W11948  30.095  20.701   3.277
39623W        W11949  14.323   9.335   1.765
39624W        W11950  14.715  15.698   0.931
39625W        W11951  14.723   6.190   1.355
39626W        W11952  34.977  15.113  14.986
39627W        W11953   4.772  20.692   1.895
39628W        W11954  31.621  15.580  13.357
39629W        W11955  21.538  40.053   3.636
39630W        W11956   6.310  19.623   0.868
39631W        W11957  25.546  15.690  12.093
39632W        W11958  34.389  31.431   0.918
39633W        W11959  31.082  24.112   3.385
39634W        W11960  41.035  13.187   4.220
39635W        W11961  39.890  19.757   3.291
39636W        W11962   4.862  22.007   1.805
39637W        W11963   3.297   0.249  12.536
39638W        W11964  32.619   0.802  12.392
39639W        W11965  36.947  27.148  12.031
39640W        W11966  30.130  33.073   4.660
39641W        W11967   5.839  29.133   1.355
39642W        W11968  40.361   4.915   5.308
39643W        W11969  28.629  30.998   4.736
39644W        W11970  19.166  31.455   0.249
39645W        W11971   0.909  11.348   0.272
39646W        W11972  42.786  34.529  10.588
39647W        W11973   7.853  35.109  14.302
39648W        W11974  43.992  12.169  13.506
39649W        W11975  22.050   8.188   3.855
39650W        W11976  43.836   3.262   4.685
39651W        W11977  31.405  31.629  13.946
39652W        W11978  35.875  18.779   1.286
39653W        W11979  24.604  35.445   2.282
39654W        W11980   3.454  14.340  12.961
39655W        W11981  39.551   3.362   0.329
39656W        W11982   7.188  27.122   3.698
39657W        W11983   8.390  24.167  12.021
39658W        W11984  26.123  37.984  11.124
39659W        W11985   6.396   0.380  14.831
39660W        W11986   5.895  20.097  10.536
39661W        W11987  25.530  18.679   2.248
39662W        W11988   3.231   8.837   1.829
39663W        W11989  10.246  19.590   4.305
39664W        W11990  41.969  37.937  11.486
39665W        W11991   3.281  29.656   1.797
39666W        W11992  23.219  32.462  14.911
39667W        W11993  11.337   1.805  12.574
39668W        W11994  35.388  15.255  11.013
39669W        W11995  24.110  23.158  14.957
39670W        W11996   9.701  22.721   3.780
39671W        W11997  16.759  44.847  12.900
39672W        W11998   5.697  23.558  14.938
39673W        W11999  18.185   6.354   0.948
39674W        W12000  37.981  35.017  13.360
39675W        W12001  15.251  32.962   3.727
39676W        W12002   4.310  17.151  10.507
39677W        W12003  44.839  40.929  11.498
39678W        W12004   7.769  21.181  11.516
39679W        W12005  15.651   4.836  10.905
39680W        W12006  25.087  20.755  14.956
39681W        W12007  24.180  10.766   1.353
39682W        W12008  41.476  13.623   3.327
39683W        W12009  11.809  23.615  13.838
39684W        W12010  16.576   0.388  11.447
39685W        W12011   6.761   5.916  12.415
39686W        W12012   0.876  16.812   3.687
39687W        W12013   1.787  14.330  13.971
39688W        W12014  33.545  16.789   3.179
39689W        W12015   4.706   9.873   4.338
39690W        W12016  36.897  21.652   3.690
39691W        W12017  32.636  32.453   1.426
39692W        W12018   5.847  26.102   2.270
39693W        W12019  12.842  21.563  12.886
39694W        W12020   4.255   4.941  14.395
39695W        W12021  32.455  11.292  10.530
39696W        W12022  18.610  33.597  14.359
39697W        W12023  28.932  32.043  11.961
39698W        W12024   1.836  37.495   5.095
39699W        W12025  43.493  42.028   2.796
39700W        W12026  41.022  21.098   1.319
39701W        W12027  20.533   6.831  11.871
39702W        W12028  17.182  17.780  11.459
39703W        W12029  33.390  37.424  14.497
39704W        W12030  32.510  24.633   0.840
39705W        W12031  24.560  44.787   3.150
39706W        W12032  28.974  39.548  12.556
39707W        W12033  18.288  24.644   0.263
39708W        W12034  12.338  17.774   0.285
39709W        W12035   2.786  14.309  10.932
39710W        W12036  22.019   3.339  11.998
39711W        W12037  27.678  13.331   1.901
39712W        W12038  22.532   2.251  12.990
39713W        W12039  26.206  16.575   1.377
39714W        W12040   8.757  25.133   4.602
39715W        W12041  22.137   0.982  10.937
39716W        W12042   7.332  26.962  13.901
39717W        W12043  10.734   9.715  12.568
39718W        W12044  13.108  21.017   2.362
39719W        W12045  36.916  15.759  12.489
39720W        W12046  33.553  22.669   4.235
39721W        W12047   9.258  16.798   2.840
39722W        W12048  36.549  27.652   3.211
39723W        W12049  28.552  17.270  12.378
39724W        W12050  44.331  22.632   0.255
39725W        W12051  39.448  42.404  11.501
39726W        W12052   0.771  14.188   2.275
39727W        W12053  14.139   1.248  14.437
39728W        W12054   9.165  25.134  13.848
39729W        W12055  13.195  18.610   0.903
39730W        W12056   2.359  20.196   3.216
39731W        W12057  30.559  31.590  11.386
39732W        W12058   5.343  35.552   3.813
39733W        W12059  35.921  29.656   0.770
39734W        W12060  21.757  30.557  12.940
39735W        W12061   4.385   2.808   9.664
39736W        W12062  42.496  22.582   1.303
39737W        W12063   5.927   2.863   0.449
39738W        W12064   6.808  10.231  13.835
39739W        W12065  40.325  20.636  12.998
39740W        W12066  30.456   4.720   1.712
39741W        W12067   1.248  19.647   5.172
39742W        W12068  25.203   4.840   3.707
39743W        W12069  11.782  34.931   3.338
39744W        W12070   3.892   0.846  13.443
39745W        W12071  11.755  36.521   4.262
39746W        W12072  30.432  24.085   4.612
39747W        W12073  43.942   6.253   4.206
39748W        W12074  36.399  15.586   9.981
39749W        W12075  23.703   1.245  10.439
39750W        W12076  36.887   1.467   0.429
39751W        W12077  34.919  29.639   1.780
39752W        W12078   5.776   2.854  14.452
39753W        W12079  25.682  29.583  10.940
39754W        W12080  27.970   2.761  14.515
39755W        W12081  44.789   2.319   0.876
39756W        W12082  29.513   9.771   0.882
39757W        W12083   7.695  38.878  12.937
39758W        W12084  10.279   3.237   0.305
39759W        W12085  37.391  13.148   0.270
39760W        W12086   6.331  32.116  13.822
39761W        W12087  11.779  11.772   2.679
39762W        W12088  20.736  42.782   1.220
39763W        W12089   8.391   0.318   0.456
39764W        W12090   7.311  37.985  14.444
39765W        W12091  43.906  13.127   3.732
39766W        W12092  34.491  22.088   1.903
39767W        W12093   8.211  35.475  13.800
39768W        W12094  29.537  22.537  11.996
39769W        W12095  44.915  19.569   2.287
39770W        W12096   8.710   1.251   0.253
39771W        W12097  15.213  13.231  12.844
39772W        W12098  32.089  11.185  14.882
39773W        W12099   6.366   0.862  10.429
39774W        W12100   1.942   2.919   2.198
39775W        W12101  28.958  23.089  14.002
39776W        W12102  23.642   4.329  12.832
39777W        W12103   9.392   6.772  13.891
39778W        W12104  30.570  31.607  13.903
39779W        W12105  11.652   7.710   2.841
39780W        W12106   7.773   1.819  11.941
39781W        W12107  16.808  25.003   0.308
39782W        W12108   3.870  36.591  10.623
39783W        W12109  41.989  15.237  14.009
39784W        W12110  43.313  18.700   0.787
39785W        W12111   3.761   7.869   3.668
39786W        W12112   9.384  24.589   2.418
39787W        W12113  13.306   9.220  10.603
39788W        W12114   9.785  42.941   1.771
39789W        W12115  21.536  22.136  11.857
39790W        W12116  30.583  10.716   2.882
39791W        W12117  25.970  33.994   3.758
39792W        W12118  29.048  14.099  14.970
39793W        W12119  20.259  17.129   3.716
39794W        W12120  10.828   0.357   4.766
39795W        W12121  34.883  29.947   3.259
39796W        W12122  38.470  29.114  14.802
39797W        W12123   8.245  43.915  14.481
39798W        W12124   0.311  35.930  14.859
39799W        W12125   3.721  38.463   2.221
39800W        W12126  37.868  18.175  14.855
39801W        W12127  28.464   5.238   3.217
39802W        W12128   1.341  39.937  10.440
39803W        W12129  14.629  12.232  14.915
39804W        W12130  11.158  16.796   0.458
39805W        W12131  12.622  29.164   4.205
39806W        W12132   1.825  30.593   0.292
39807W        W12133  44.399  40.017  14.426
39808W        W12134  28.565  11.816   3.322
39809W        W12135  21.061  35.861  11.922
39810W        W12136  14.177   5.819  12.909
39811W        W12137  27.559   0.480   2.324
39812W        W12138  27.029   3.269  14.463
39813W        W12139  44.396  44.322   2.773
39814W        W12140   3.821   0.340   4.282
39815W        W12141  35.926   1.243   0.351
39816W        W12142  13.650  33.950   4.272
39817W        W12143  43.834  22.521  13.483
39818W        W12144  40.038  29.626  10.623
39819W        W12145  20.711  14.252  12.063
39820W        W12146  41.042  17.676  11.023
39821W        W12147  26.517  35.440  11.528
39822W        W12148  22.564  30.470  10.936
39823W        W12149  23.026   9.804  11.880
39824W        W12150  18.661  22.650  13.500
39825W        W12151   2.904  25.484   3.358
39826W        W12152  33.439   3.356   0.911
39827W        W12153   0.903   5.256   3.386
39828W        W12154  13.698  33.450   9.579
39829W        W12155  37.523  13.160  13.856
39830W        W12156  32.898  34.528   0.386
39831W        W12157  13.312  42.438  13.346
39832W        W12158  43.927  44.434  14.494
39833W        W12159   4.262  33.573   2.811
39834W        W12160  16.287   3.432  13.503
39835W        W12161  14.772  33.054   1.382
39836W        W12162  13.740  38.907  14.502
39837W        W12163   8.780  18.649   3.382
39838W        W12164  11.220  35.414   2.786
39839W        W12165  28.550  15.237   3.850
39840W        W12166   8.896  11.149   0.749
39841W        W12167   5.746  27.545   1.928
39842W        W12168  30.083   4.885  12.881
39843W        W12169  42.937  41.868   2.194
39844W        W12170   4.914  10.149  12.483
39845W        W12171  38.851  43.360   3.681
39846W        W12172  32.952  20.068  14.358
39847W        W12173   8.346  14.805   2.682
39848W        W12174  14.212  19.205   1.261
39849W        W12175  44.466  29.158   1.759
39850W        W12176   4.407  28.630   4.811
39851W        W12177  12.617   3.364   0.912
39852W        W12178  42.508  42.365   0.831
39853W        W12179  32.477  13.302  14.959
39854W        W12180  39.055  14.647  12.359
39855W        W12181  17.170  10.154  11.428
39856W        W12182   7.307  34.398   1.403
39857W        W12183  22.204  37.518  11.914
39858W        W12184  42.794  12.672   4.677
39859W        W12185  40.916   7.867   4.126
39860W        W12186   1.450  36.974   2.228
39861W        W12187  24.556  30.076   2.292
39862W        W12188  29.127  35.544  12.039
39863W        W12189  24.083  16.226   2.376
39864W        W12190  14.258  13.113   2.833
39865W        W12191  33.102  16.220  11.981
39866W        W12192  12.295  15.227   0.754
39867W        W12193  20.646  15.115   0.887
39868W        W12194  42.978   3.799   2.317
39869W        W12195  29.464  29.434  11.063
39870W        W12196  28.568  31.411  10.617
39871W        W12197  35.360  30.640   3.284
39872W        W12198  20.671  13.227   3.731
39873W        W12199  28.090  14.212  13.506
39874W        W12200  19.606  34.070  14.309
39875W        W12201  14.609  25.496  13.867
39876W        W12202   1.800  12.744   1.829
39877W        W12203  25.989   6.226   1.367
39878W        W12204   1.753  31.554   4.809
39879W        W12205  22.192  31.562   1.772
39880W        W12206   3.412  23.521  12.403
39881W        W12207   9.738  36.850  13.545
39882W        W12208   7.360  10.720   3.221
39883W        W12209  28.450  30.607   4.802
39884W        W12210   6.859  42.929  14.381
39885W        W12211  30.511   3.893  10.484
39886W        W12212  22.717  23.697  11.423
39887W        W12213  31.037  18.105  11.932
39888W        W12214   5.785  15.615  13.060
39889W        W12215  12.191  15.187   0.398
39890W        W12216  13.805   0.264  12.837
39891W        W12217   4.438  30.078   3.335
39892W        W12218  31.117  43.777   2.386
39893W        W12219  30.654   0.814   0.828
39894W        W12220   3.937  10.807   3.384
39895W        W12221  41.292   3.306   3.281
39896W        W12222  44.006  33.503  11.894
39897W        W12223  14.126  32.008  13.445
39898W        W12224  19.188  36.482  13.315
39899W        W12225  39.415   4.401  10.482
39900W        W12226  14.095  35.895   4.772
39901W        W12227  18.654  34.383  12.578
39902W        W12228  29.158  22.160   1.297
39903W        W12229  33.550  31.605  10.536
39904W        W12230  15.780  23.103   0.301
39905W        W12231   7.256  33.019   0.326
39906W        W12232  39.371  43.349   4.714
39907W        W12233  23.650  34.035   2.204
39908W        W12234  27.948  31.943   2.354
39909W        W12235  29.597  41.412  14.385
39910W        W12236   0.255  22.117   5.770
39911W        W12237   4.254  28.520   0.785
39912W        W12238  24.625  44.998  11.980
39913W        W12239   9.731  42.856   2.699
39914W        W12240   5.303  31.506   0.845
39915W        W12241  42.798   4.263   1.234
39916W        W12242  30.034  11.629   0.422
39917W        W12243  19.284  32.404  12.076
39918W        W12244   6.856   2.754  11.893
39919W        W12245  15.782   5.273  10.925
39920W        W12246  10.289  35.381   2.713
39921W        W12247   7.894  28.576   1.333
39922W        W12248  44.860  32.918   2.753
39923W        W12249  30.908   5.274  14.414
39924W        W12250   1.281  36.965   1.379
39925W        W12251   0.747  44.007   0.348
39926W        W12252  27.037   9.787   4.170
39927W        W12253   1.258  14.656  13.960
39928W        W12254   1.775  34.094  13.460
39929W        W12255   8.191  44.850  11.858
39930W        W12256  29.151  11.238  14.855
39931W        W12257  20.695  22.087   2.701
39932W        W12258  28.679  41.895  14.291
39933W        W12259  43.339  27.584  12.537
39934W        W12260  34.908   9.266   0.825
39935W        W12261  23.538  28.667  14.296
39936W        W12262   6.706  32.528   3.759
39937W        W12263  10.297  20.645  12.923
39938W        W12264  15.723  31.123   1.750
39939W        W12265   9.320   1.864  14.904
39940W        W12266   7.279  41.941   0.760
39941W        W12267  41.944  10.330   0.956
39942W        W12268  22.048   7.825  10.981
39943W        W12269  26.058  43.379   2.277
39944W        W12270  14.717  18.062   2.745
39945W        W12271  29.947  20.114  13.407
39946W        W12272   4.700  31.145   0.460
39947W        W12273  25.528   6.860   3.826
39948W        W12274  31.468  29.933  11.414
39949W        W12275  38.474  25.983  10.594
39950W        W12276  39.361  14.233  14.021
39951W        W12277  31.648  13.706  12.844
39952W        W12278  16.286  21.515   3.151
39953W        W12279  26.097   2.815   4.213
39954W        W12280  42.455  17.263   0.369
39955W        W12281  32.469  44.324   2.275
39956W        W12282  14.635  34.482   0.886
39957W        W12283  12.671  23.557  14.389
39958W        W12284  43.980   8.402  13.981
39959W        W12285  32.533  42.517   4.354
39960W        W12286  33.113  26.080  11.598
39961W        W12287  33.583  16.811   4.716
39962W        W12288   6.371   1.849  10.458
39963W        W12289  24.676  34.599   1.772
39964W        W12290  22.174  28.553  11.929
39965W        W12291  14.298  29.943  11.401
39966W        W12292  36.463   0.352  13.829
39967W        W12293  21.533  29.081  12.875
39968W        W12294  21.223  41.361   2.269
39969W        W12295   5.259  37.007  13.056
39970W        W12296  15.586   7.273   4.244
39971W        W12297   1.960  27.596  13.024
39972W        W12298  24.676  37.948  11.582
39973W        W12299   8.361  12.187   3.691
39974W        W12300  35.898   7.759   1.428
39975W        W12301  27.008  19.675   0.737
39976W        W12302   1.417  18.210   4.669
39977W        W12303  22.246  13.714  12.542
39978W        W12304   1.358  20.244  12.478
39979W        W12305  33.037  13.174  12.579
39980W        W12306   8.243  30.461   3.732
39981W        W12307  20.204   8.388  14.919
39982W        W12308  38.020   7.199  14.779
39983W        W12309   4.798   1.812  14.337
39984W        W12310  12.156   7.848   1.794
39985W        W12311  18.641  17.151   2.685
39986W        W12312  13.217  35.039  11.958
39987W        W12313  42.989  26.133  14.862
39988W        W12314  10.167  15.097  11.443
39989W        W12315  41.402  24.155   0.776
39990W        W12316  17.090  30.111   2.820
39991W        W12317   0.896   7.815   2.230
39992W        W12318  42.382  26.625  13.975
39993W        W12319  21.536  40.316   2.232
39994W        W12320  34.421  24.722  13.827
39995W        W12321  32.112  29.134   3.297
39996W        W12322  11.768  19.230  12.901
39997W        W12323  11.683  27.535   0.931
39998W        W12324  24.492  11.262   4.221
39999W        W12325  34.999   4.854  14.293
40000W        W12326  37.873  29.939   3.708
40001W        W12327  27.615  22.707  14.311
40002W        W12328  29.593  17.640  14.928
40003W        W12329  23.673   5.324   2.872
40004W        W12330  20.224  31.092  14.821
40005W        W12331   6.252   1.839   4.317
40006W        W12332   2.279  32.552  13.387
40007W        W12333  42.882  44.770   4.819
40008W        W12334  15.676  30.412   2.198
40009W        W12335  38.459  35.490  10.524
40010W        W12336  29.940  11.829   1.436
40011W        W12337  35.067  15.223   3.355
40012W        W12338  23.565  38.016   0.258
40013W        W12339  10.179   2.743   0.305
40014W        W12340  43.411  20.641   4.121
40015W        W12341  32.464  40.380  12.874
40016W        W12342  28.641   1.300   3.341
40017W        W12343  29.509  42.796  10.428
40018W        W12344   3.354  17.225  12.876
40019W        W12345  34.958  19.273  11.504
40020W        W12346  13.655  23.670   1.873
40021W        W12347   0.860  31.958  14.813
40022W        W12348  36.895  23.997   2.790
40023W        W12349  21.093  13.611  13.309
40024W        W12350  26.015  11.213   1.722
40025W        W12351  19.677  11.274   0.926
40026W        W12352   8.894  29.012  11.011
40027W        W12353  17.783   6.222  12.093
40028W        W12354   2.748  12.317   4.693
40029W        W12355  11.708  14.228  13.061
40030W        W12356   2.903   7.835  12.481
40031W        W12357  16.680  20.218   1.416
40032W        W12358  31.006  13.139   3.167
40033W        W12359  17.304  25.597  12.378
40034W        W12360  14.220  29.563  10.583
40035W        W12361  35.520  31.109   0.871
40036W        W12362  21.709  25.005  11.871
40037W        W12363  20.243  16.578   0.921
40038W        W12364  23.606   3.345  14.760
40039W        W12365  29.065  31.411   3.686
40040W        W12366  30.109  23.151  12.341
40041W        W12367  37.339   2.796  13.360
40042W        W12368   7.739  26.192   3.694
40043W        W12369  26.090   6.772   1.777
40044W        W12370  41.327   4.917  13.840
40045W        W12371   4.317  41.012  12.388
40046W        W12372   6.279  39.908  14.933
40047W        W12373   2.914  29.952   0.885
40048W        W12374  24.566  32.938  10.409
40049W        W12375  19.143  33.567   4.295
40050W        W12376  16.276  21.535   0.777
40051W        W12377  13.214  23.713   2.360
40052W        W12378  14.158  38.357  12.351
40053W        W12379   2.313   4.873  14.407
40054W        W12380  30.620  29.484   4.230
40055W        W12381  27.619  22.222   1.711
40056W        W12382  34.976  39.512   1.352
40057W        W12383  11.231  38.864   2.881
40058W        W12384   0.266  13.199  14.760
40059W        W12385  10.314  35.500  13.423
40060W        W12386  41.851   1.327  11.424
40061W        W12387  43.870  27.063   2.774
40062W        W12388  24.034  33.588  11.015
40063W        W12389  38.427  26.181  11.399
40064W        W12390  37.515  18.736   3.217
40065W        W12391  40.983   8.799  14.393
40066W        W12392  22.597  40.961  11.053
40067W        W12393  10.295  31.088  12.954
40068W        W12394  29.945   1.733  11.969
40069W        W12395   6.242  44.454   4.173
40070W        W12396  15.721   3.327  13.836
40071W        W12397  17.191  26.481   0.737
40072W        W12398  43.375   9.661   0.377
40073W        W12399   4.867   1.763  12.908
40074W        W12400  19.570  36.007  10.927
40075W        W12401  17.572  24.645  10.924
40076W        W12402  23.500  40.469   3.363
40077W        W12403  19.703  40.321  11.060
40078W        W12404  25.570   8.396  13.421
40079W        W12405   9.795  28.973   1.911
40080W        W12406  14.770   8.230  11.476
40081W        W12407  16.211  22.044   0.893
40082W        W12408  24.042  31.475   2.390
40083W        W12409  35.861  41.889   4.299
40084W        W12410  34.559  17.643  11.100
40085W        W12411  15.812  16.206  14.299
40086W        W12412  37.486  13.621  12.886
40087W        W12413   5.362  42.884   3.333
40088W        W12414  12.183  41.445  10.418
40089W        W12415  12.243  31.927  14.447
40090W        W12416  31.906  16.736   1.433
40091W        W12417  25.167  27.448   4.754
40092W        W12418  30.501  30.101  11.449
40093W        W12419  33.065  32.041   0.864
40094W        W12420   8.184   3.777   1.273
40095W        W12421  28.527  24.696  14.871
40096W        W12422  43.948   7.903  11.974
40097W        W12423  19.765  30.007   0.355
40098W        W12424  39.836  11.274  13.334
40099W        W12425  36.891  32.509  14.305
40100W        W12426  35.916  20.723   0.812
40101W        W12427   2.276   7.818  11.460
40102W        W12428  44.355  26.589  14.497
40103W        W12429  40.884  40.026   0.731
40104W        W12430  31.438  32.550  14.890
40105W        W12431  18.282   9.219   1.921
40106W        W12432  36.029  30.609   0.950
40107W        W12433   0.388  43.370  14.893
40108W        W12434  38.556  27.536  13.030
40109W        W12435  26.481  26.193   4.644
40110W        W12436  30.458   4.327  10.988
40111W        W12437  21.545  34.014   4.322
40112W        W12438  38.500   0.271  10.516
40113W        W12439  19.619  26.180   3.207
40114W        W12440  18.160  31.123   4.774
40115W        W12441  29.083  38.424   3.229
40116W        W12442   7.321   3.245  13.798
40117W        W12443   0.341  10.378  10.979
40118W        W12444  11.683  11.843  11.401
40119W        W12445  36.891  16.776  14.477
40120W        W12446   4.729  19.738   0.403
40121W        W12447  31.991   2.940   1.932
40122W        W12448  30.602  31.592   2.706
40123W        W12449   2.958   3.742  12.862
40124W        W12450  25.587  23.654   4.695
40125W        W12451  10.728  16.289   1.214
40126W        W12452   8.877  43.330   0.794
40127W        W12453   8.813  21.068  10.153
40128W        W12454  30.526   1.443  11.864
40129W        W12455  40.501  44.890  13.816
40130W        W12456  24.682  41.484  14.897
40131W        W12457  18.145  30.959  10.963
40132W        W12458  25.626  15.153  10.895
40133W        W12459  12.163  39.549   3.753
40134W        W12460  35.085  19.704   2.274
40135W        W12461  44.495  15.083   1.718
40136W        W12462   5.231  17.686  14.944
40137W        W12463  34.116   9.821  11.456
40138W        W12464  36.548  40.931   0.326
40139W        W12465  12.311  33.423   2.270
40140W        W12466  23.153  25.170   1.254
40141W        W12467  13.669   2.961  14.430
40142W        W12468  12.287   3.849  14.799
40143W        W12469   8.257  19.751  11.984
40144W        W12470  42.901  29.489   4.655
40145W        W12471  35.563   2.781   2.371
40146W        W12472   6.350  24.093  11.600
40147W        W12473  23.557   0.768  13.001
40148W        W12474   6.898   1.972  12.433
40149W        W12475  36.953  36.375  11.988
40150W        W12476  14.678  37.459   5.216
40151W        W12477  19.105  23.588   1.259
40152W        W12478  26.493   6.840   3.793
40153W        W12479  39.883   8.717  10.523
40154W        W12480  18.555   3.273   0.389
40155W        W12481  39.429  44.416   3.191
40156W        W12482   7.668   8.338   1.388
40157W        W12483  42.394  41.989  13.330
40158W        W12484  23.179  32.948   3.858
40159W        W12485  27.447  10.257   9.937
40160W        W12486  15.241  28.488  12.927
40161W        W12487   5.243  18.258   0.960
40162W        W12488  10.249  44.441   4.653
40163W        W12489  13.349  21.087   4.802
40164W        W12490  23.229  41.931   1.810
40165W        W12491  44.895  17.129  10.569
40166W        W12492  31.946  31.052   5.315
40167W        W12493   0.944  28.623  10.021
40168W        W12494  40.955   4.404   2.383
40169W        W12495   6.836  21.111  14.853
40170W        W12496  24.198  42.935  11.977
40171W        W12497  26.079  13.134   3.815
40172W        W12498  29.106  15.740   4.617
40173W        W12499  40.053  30.001   2.347
40174W        W12500  42.007  23.003   2.816
40175W        W12501  18.050  15.313   1.907
40176W        W12502  19.263   7.346  11.572
40177W        W12503  25.704  24.547  14.823
40178W        W12504  33.004  25.597  12.991
40179W        W12505  20.057  31.444  13.893
40180W        W12506  31.420  44.289  11.938
40181W        W12507   8.777  35.564   3.771
40182W        W12508  12.282  11.776   1.811
40183W        W12509  36.493  28.638   3.729
40184W        W12510  39.464   8.818   2.178
40185W        W12511   0.364   5.195   1.840
40186W        W12512  20.680  21.037   1.330
40187W        W12513   1.748  42.804  14.029
40188W        W12514  29.525  20.548   3.861
40189W        W12515  11.175  31.404   1.707
40190W        W12516   5.373   0.906   2.382
40191W        W12517  15.695   9.360   2.344
40192W        W12518  39.445  29.930   1.419
40193W        W12519  41.876  30.980  11.980
40194W        W12520   6.747  30.075  12.946
40195W        W12521  27.193  10.644  13.001
40196W        W12522  12.150  29.620  11.936
40197W        W12523  25.100  36.549   4.293
40198W        W12524  33.937  14.803   3.656
40199W        W12525  27.984   8.692   2.895
40200W        W12526  21.118  44.980  12.968
40201W        W12527  30.437   4.402   4.226
40202W        W12528  33.903  28.131   2.362
40203W        W12529  30.593  27.985  12.926
40204W        W12530  23.169   4.699  13.388
40205W        W12531  18.264  28.044  10.432
40206W        W12532  28.060  33.531   2.374
40207W        W12533   5.772  14.606  12.464
40208W        W12534  13.754  20.702   4.749
40209W        W12535  22.602  14.591   3.176
40210W        W12536   2.746  12.266   4.291
40211W        W12537  33.541  39.350  11.069
40212W        W12538  24.168  24.124   3.305
40213W        W12539  11.355  16.169   0.472
40214W        W12540   7.717  19.223  10.427
40215W        W12541  12.730   3.449  12.885
40216W        W12542  28.938  33.524   0.734
40217W        W12543  43.391   5.248  14.321
40218W        W12544  39.001  15.129  13.396
40219W        W12545  14.237  18.063  11.465
40220W        W12546  25.112  44.400   2.373
40221W        W12547   8.675  43.434   1.411
40222W        W12548  32.954  40.869   0.846
40223W        W12549  37.523  20.033  14.993
40224W        W12550  37.947   3.832   0.834
40225W        W12551   0.289  33.110  11.039
40226W        W12552  34.483  12.802   1.444
40227W        W12553  35.568  17.109   4.725
40228W        W12554  27.513  42.027   4.641
40229W        W12555  10.728  14.639   1.857
40230W        W12556  37.900  29.077   3.269
40231W        W12557  44.981  31.439   0.958
40232W        W12558   0.258  32.452  11.425
40233W        W12559  35.019  34.596  10.070
40234W        W12560  18.079   6.678   2.398
40235W        W12561   0.955  34.021  13.916
40236W        W12562  18.152  19.069  14.801
40237W        W12563  43.793  44.884   4.187
40238W        W12564  21.207  34.500   0.953
40239W        W12565  30.627  27.506   0.864
40240W        W12566   4.204  34.449   3.757
40241W        W12567   9.306  13.218   2.405
40242W        W12568  12.683  33.972   2.672
40243W        W12569  32.970   2.964   0.857
40244W        W12570   8.773  12.681  11.066
40245W        W12571  28.943  39.880  14.953
40246W        W12572   5.409  28.049   1.917
40247W        W12573  30.515  11.647   3.672
40248W        W12574  15.312  26.629  12.875
40249W        W12575   8.855  40.466  10.583
40250W        W12576  11.185  11.800  12.388
40251W        W12577   3.855  32.520   0.470
40252W        W12578  10.144  37.552   3.312
40253W        W12579  27.517  22.996  10.957
40254W        W12580  29.937  34.938  13.848
40255W        W12581   6.223  33.963   4.308
40256W        W12582   5.204   4.928   1.871
40257W        W12583  37.980  40.507  10.978
40258W        W12584  14.201  35.947  11.867
40259W        W12585  17.191  32.453  11.987
40260W        W12586  41.397  25.684  12.931
40261W        W12587  36.377  29.500   3.272
40262W        W12588   4.731  32.026  10.098
40263W        W12589   1.441  20.031   2.265
40264W        W12590  16.726  39.898  12.951
40265W        W12591  19.729  33.545  12.462
40266W        W12592  23.115  19.625   2.411
40267W        W12593   5.721  35.028   4.671
40268W        W12594  19.553  18.567   1.703
40269W        W12595  29.003  31.048  13.509
40270W        W12596  32.570   6.814  11.040
40271W        W12597  11.189  34.056   2.813
40272W        W12598  21.221   0.810  13.922
40273W        W12599  39.453  27.049  10.497
40274W        W12600  41.407  39.902  10.959
40275W        W12601  44.761  39.440  13.051
40276W        W12602  41.843  35.933   0.462
40277W        W12603  12.176   6.866   1.789
40278W        W12604   0.940  13.843   0.287
40279W        W12605  43.981  41.001   0.451
40280W        W12606  29.570  19.593   4.718
40281W        W12607  44.811  24.536  12.862
40282W        W12608  21.186   0.808  14.474
40283W        W12609   3.307  28.077   2.282
40284W        W12610  43.998  38.899  11.562
40285W        W12611  29.115  15.670   1.738
40286W        W12612  36.457  26.580  11.091
40287W        W12613   4.725  32.434  11.482
40288W        W12614   0.327  41.413  13.950
40289W        W12615  39.996  40.364   3.834
40290W        W12616  44.369  43.878   3.796
40291W        W12617  18.222   0.314  10.575
40292W        W12618  37.055  19.220   3.188
40293W        W12619  10.734  17.638   3.190
40294W        W12620  37.041  31.067  14.022
40295W        W12621  38.995  39.350  11.058
40296W        W12622  43.792  29.534  11.441
40297W        W12623  16.204  17.237  12.875
40298W        W12624  15.663   2.855   3.700
40299W        W12625  34.086  13.624  12.919
40300W        W12626  44.011  27.035  14.870
40301W        W12627  42.299  31.571  14.304
40302W        W12628  24.610  18.601   4.791
40303W        W12629  14.693   0.773   1.252
40304W        W12630  40.844  10.634  10.994
40305W        W12631  27.576   5.271   1.891
40306W        W12632   0.808  32.115   4.746
40307W        W12633  30.484   7.700  13.346
40308W        W12634  35.852   9.786   4.141
40309W        W12635  38.909   9.267   5.283
40310W        W12636  34.572  26.014  14.772
40311W        W12637   9.226  28.587   4.814
40312W        W12638  37.045  12.258  14.316
40313W        W12639  43.821  30.929   4.290
40314W        W12640  27.565   7.402  13.987
40315W        W12641  12.799  44.923   3.165
40316W        W12642  20.206  15.746   9.928
40317W        W12643  29.037  12.833  11.119
40318W        W12644   0.913  22.114   9.580
40319W        W12645  42.799  13.169   1.710
40320W        W12646  37.844  33.534  14.985
40321W        W12647  21.192   3.375   1.268
40322W        W12648  11.809  17.179   1.339
40323W        W12649  11.209  19.238   0.436
40324W        W12650   2.317  28.470  12.415
40325W        W12651   0.764  18.200   4.351
40326W        W12652  24.716   3.814   3.834
40327W        W12653  31.035  34.372   2.900
40328W        W12654   1.839  15.580  10.486
40329W        W12655   0.429   9.712  12.385
40330W        W12656   8.245  11.363  14.897
40331W        W12657  14.818  26.204  11.528
40332W        W12658  39.824  21.539   1.917
40333W        W12659  12.178   7.256  13.532
40334W        W12660  25.622  14.814   2.900
40335W        W12661  26.602  23.120   2.254
40336W        W12662   6.795  43.828   4.297
40337W        W12663  13.834  13.220  12.425
40338W        W12664  22.109  33.383  13.481
40339W        W12665  27.168  16.197  14.988
40340W        W12666  33.922  15.596  12.034
40341W        W12667  19.092  35.588   3.348
40342W        W12668  21.186   6.700  10.418
40343W        W12669  33.488   0.808  11.396
40344W        W12670  32.491   9.361   1.408
40345W        W12671  20.569   9.782  11.977
40346W        W12672  33.623  39.488  13.020
40347W        W12673   4.314  15.324   0.766
40348W        W12674  21.521  33.080  11.398
40349W        W12675   8.332  21.745   3.243
40350W        W12676  23.578  19.208  14.341
40351W        W12677  40.399  21.052   1.332
40352W        W12678   4.315  20.566  12.059
40353W        W12679  16.778  38.501  11.511
40354W        W12680  38.055  22.209  10.484
40355W        W12681  31.957  14.242   3.661
40356W        W12682  31.609  29.593  11.016
40357W        W12683  42.452   9.178  10.498
40358W        W12684   0.434  16.612  12.063
40359W        W12685   1.808  15.783  12.081
40360W        W12686  44.924   2.271  13.398
40361W        W12687   6.815   9.271   4.283
40362W        W12688  18.095   1.447   1.809
40363W        W12689  31.493  38.967  14.764
40364W        W12690   6.219  32.408   1.817
40365W        W12691   3.263  16.133   0.764
40366W        W12692  40.392  32.513  10.486
40367W        W12693  22.686  30.576  11.512
40368W        W12694  25.055  33.558  12.086
40369W        W12695  23.495  40.384   0.872
40370W        W12696  19.273  26.549  14.460
40371W        W12697   9.206  13.605  10.902
40372W        W12698  42.359  16.781   2.747
40373W        W12699   5.829  14.253  14.970
40374W        W12700  12.167  37.960   3.704
40375W        W12701   6.389  24.155  10.445
40376W        W12702   2.332   2.448   1.426
40377W        W12703   3.331   9.243  11.964
40378W        W12704   7.858  23.648   0.908
40379W        W12705  11.751   6.281  13.842
40380W        W12706  42.899  22.518  11.089
40381W        W12707  41.796   1.368  12.458
40382W        W12708   1.819  10.292   0.799
40383W        W12709  37.877   6.358   3.633
40384W        W12710   4.363  25.697   4.209
40385W        W12711  26.109   1.826   3.370
40386W        W12712  31.949  24.147   3.275
40387W        W12713  44.267  17.754   0.839
40388W        W12714   5.816  35.464   4.164
40389W        W12715  39.383  23.228  10.444
40390W        W12716  25.489  38.888   2.198
40391W        W12717  17.290  12.248  13.460
40392W        W12718   0.850  28.120   2.783
40393W        W12719  31.553  37.446   0.888
40394W        W12720  43.779  20.528  12.570
40395W        W12721  42.875  35.439   4.319
40396W        W12722  14.166   2.933   3.832
40397W        W12723  40.929  19.738   3.824
40398W        W12724   6.293   4.430   4.670
40399W        W12725   4.356  27.065   4.772
40400W        W12726  23.171  24.483   1.769
40401W        W12727   6.271  39.055   4.239
40402W        W12728  17.758  43.289  10.994
40403W        W12729  24.640  29.938  11.905
40404W        W12730   8.233   3.811   3.739
40405W        W12731   1.296   3.792  10.605
40406W        W12732  14.339  39.424   1.296
40407W        W12733  29.476  32.016  11.457
40408W        W12734  16.295  40.533   0.308
40409W        W12735   5.395   3.284   5.286
40410W        W12736  37.577  40.919   2.671
40411W        W12737  18.080  10.241  14.773
40412W        W12738  33.961  14.621  13.339
40413W        W12739  17.795  25.629  13.497
40414W        W12740  43.914  19.220   3.185
40415W        W12741  21.040  44.761  12.362
40416W        W12742  40.450  10.659  10.907
40417W        W12743  13.256  33.522  11.419
40418W        W12744  42.842  23.519  11.118
40419W        W12745  43.892  14.604  10.505
40420W        W12746  27.014  22.503   4.672
40421W        W12747   1.824  26.500   1.449
40422W        W12748  16.117   6.229   4.352
40423W        W12749  43.438  31.011   4.253
40424W        W12750  29.070  14.303  14.006
40425W        W12751  24.019  44.443   1.369
40426W        W12752  25.689   2.266   4.625
40427W        W12753  42.288   8.225   4.820
40428W        W12754   3.263  14.638   5.157
40429W        W12755  24.119  24.082   0.344
40430W        W12756  37.574  42.321   4.704
40431W        W12757  41.357  44.823   0.376
40432W        W12758   3.312  32.028   4.330
40433W        W12759  11.204  38.000  14.299
40434W        W12760  43.819  36.076   1.382
40435W        W12761  18.740   5.414   3.170
40436W        W12762  34.602  29.948   0.362
40437W        W12763  16.264  27.190   1.336
40438W        W12764  11.703  36.501   0.297
40439W        W12765  29.114  38.361  12.507
40440W        W12766   1.784  21.552   9.439
40441W        W12767   4.438  19.771   0.297
40442W        W12768  14.783  11.221  13.051
40443W        W12769  13.165  24.013  13.900
40444W        W12770  21.194   9.830  14.975
40445W        W12771  15.702  23.022   2.903
40446W        W12772  37.560  15.175   0.287
40447W        W12773  15.659  28.116  12.496
40448W        W12774  23.073  24.117  14.906
40449W        W12775  43.905   6.743  12.010
40450W        W12776  22.134   6.391  11.429
40451W        W12777  42.858   3.309   4.239
40452W        W12778  28.078  15.249   0.362
40453W        W12779  14.787  25.585   2.199
40454W        W12780  41.795  40.954   0.312
40455W        W12781  29.150  40.303   3.180
40456W        W12782   3.875  25.132  12.052
40457W        W12783  30.644  25.513  14.332
40458W        W12784  24.064  39.456   0.430
40459W        W12785  26.194  19.720  11.938
40460W        W12786  32.441  19.560   3.218
40461W        W12787  13.153   1.828  12.403
40462W        W12788   7.748   4.436  12.984
40463W        W12789  36.884  29.038   0.393
40464W        W12790  41.966  19.655  14.835
40465W        W12791   4.806  30.137  14.445
40466W        W12792   5.379  39.354  11.939
40467W        W12793   8.352  15.688  13.844
40468W        W12794  20.187  10.174   1.804
40469W        W12795  10.743   5.850  12.555
40470W        W12796  21.149  18.147   2.203
40471W        W12797  14.096  17.194   3.749
40472W        W12798  10.777  10.176  12.830
40473W        W12799  21.600  26.560   4.685
40474W        W12800  32.432  38.384  11.382
40475W        W12801  21.669  33.524  10.995
40476W        W12802  38.512  25.089   4.754
40477W        W12803  15.119   5.372  12.075
40478W        W12804  22.097  21.530   4.130
40479W        W12805  18.276   6.371   3.830
40480W        W12806  25.588  31.454  12.035
40481W        W12807   3.274  11.212   5.188
40482W        W12808  14.189  29.054   4.217
40483W        W12809   6.793   2.765   1.864
40484W        W12810  37.958  22.526  11.904
40485W        W12811  44.426  31.098  13.877
40486W        W12812  32.082  25.188   4.261
40487W        W12813  27.958  27.057  12.556
40488W        W12814   6.328  42.366  13.938
40489W        W12815  10.299   9.745   3.767
40490W        W12816  26.512  13.713   3.692
40491W        W12817  15.132  39.022   3.707
40492W        W12818  21.055  33.953   4.261
40493W        W12819  14.660  39.884  11.503
40494W        W12820  18.170  31.012   1.935
40495W        W12821  33.962  39.423  12.564
40496W        W12822  17.300  43.925  10.624
40497W        W12823  39.456   5.819   1.435
40498W        W12824  40.958   7.281  12.011
40499W        W12825  13.685  39.834   3.713
40500W        W12826  23.989  29.109  12.854
40501W        W12827  24.638  14.742   5.677
40502W        W12828  25.057  26.129   0.947
40503W        W12829  25.641  26.968   3.377
40504W        W12830  34.450  17.192  14.377
40505W        W12831  19.604  16.745  13.482
40506W        W12832   8.337  31.426  13.416
40507W        W12833   7.191  43.965   4.343
40508W        W12834   2.800  16.692   4.615
40509W        W12835  34.477  29.595   2.178
40510W        W12836  34.598  30.950   3.718
40511W        W12837   1.912  31.096  14.319
40512W        W12838  22.720   6.304   3.676
40513W        W12839  40.537  10.373   9.962
40514W        W12840   1.351  14.166  11.084
40515W        W12841  43.323  35.098   4.607
40516W        W12842  15.635  17.210   4.315
40517W        W12843  35.918  16.186  11.568
40518W        W12844  19.713   0.785  11.985
40519W        W12845  28.937  18.123   1.283
40520W        W12846  11.170  28.634  12.084
40521W        W12847  14.322  36.986  13.953
40522W        W12848  10.787  31.509  14.376
40523W        W12849  15.308  36.475  13.865
40524W        W12850  43.284  40.942  12.423
40525W        W12851  43.834  41.996   2.390
40526W        W12852  12.731   8.171   1.766
40527W        W12853  21.547   9.684   0.261
40528W        W12854  24.158  15.088   9.453
40529W        W12855  40.506  10.831   4.784
40530W        W12856  31.410  43.960   2.695
40531W        W12857  28.642  14.823  13.869
40532W        W12858   3.279  39.041  11.001
40533W        W12859  20.138  43.443   3.822
40534W        W12860  22.133  30.457   1.754
40535W        W12861  25.640  25.613   1.363
40536W        W12862  24.659  14.623  14.032
40537W        W12863  30.534   2.305   1.346
40538W        W12864  42.281  33.976   0.877
40539W        W12865  14.272  28.138  12.495
40540W        W12866  17.789  19.060  10.897
40541W        W12867  30.989  26.121  10.504
40542W        W12868  31.504  34.110   0.364
40543W        W12869   4.775  30.124  11.124
40544W        W12870  11.860  19.039   4.278
40545W        W12871  33.574  28.935   2.191
40546W        W12872  29.641  37.428  12.039
40547W        W12873  21.749  34.456  12.480
40548W        W12874  32.960  26.538  10.066
40549W        W12875  29.919  33.038  12.063
40550W        W12876  22.662  10.289   4.744
40551W        W12877  17.753  33.411   1.885
40552W        W12878  34.048  12.207   2.742
40553W        W12879   7.677  20.533   3.813
40554W        W12880   1.869  41.532   1.272
40555W        W12881  28.556  22.550  13.936
40556W        W12882  15.604  18.150  14.769
40557W        W12883  36.979   2.862   4.323
40558W        W12884  12.204  23.659  14.762
40559W        W12885  16.121  37.400  12.377
40560W        W12886  19.620   8.315  14.909
40561W        W12887  43.384  11.223  14.860
40562W        W12888  10.717   1.787  13.457
40563W        W12889  21.062  17.164  10.611
40564W        W12890  41.538   9.886   4.266
40565W        W12891  14.155  13.795   1.753
40566W        W12892  25.577   1.807   1.280
40567W        W12893  38.893  25.040   1.869
40568W        W12894   2.429   6.275   2.415
40569W        W12895   3.381  37.923   4.204
40570W        W12896  31.023  12.157  13.390
40571W        W12897  39.973   4.756   3.725
40572W        W12898  36.528   0.450  10.567
40573W        W12899  15.611  19.638   0.824
40574W        W12900  15.182   1.847  12.859
40575W        W12901   9.866  38.466   0.261
40576W        W12902   4.938  23.641  12.082
40577W        W12903  38.922   9.667  11.405
40578W        W12904  15.117  44.967  12.339
40579W        W12905  42.392  20.192   1.319
40580W        W12906  34.430   5.706   1.414
40581W        W12907  31.487  35.004  12.971
40582W        W12908  21.686  22.043  12.475
40583W        W12909  37.995  23.658  11.442
40584W        W12910  17.567  27.051  10.893
40585W        W12911  27.032  43.274  14.834
40586W        W12912  40.004  22.608   2.179
40587W        W12913  31.086  36.914   4.831
40588W        W12914   4.309  17.578  12.441
40589W        W12915   2.832  34.942  13.903
40590W        W12916  33.601   2.239  14.896
40591W        W12917   3.325  25.030   1.347
40592W        W12918  33.382  38.376  13.038
40593W        W12919  30.449  12.150   3.368
40594W        W12920  41.412  23.587  11.602
40595W        W12921  26.060  32.914  11.456
40596W        W12922  41.827  17.641   0.373
40597W        W12923  24.572  32.021   4.608
40598W        W12924   7.371  40.882   4.119
40599W        W12925  22.167  26.052   3.385
40600W        W12926  21.122  14.718  13.005
40601W        W12927   5.929  27.181   2.785
40602W        W12928  29.029  28.514   1.366
40603W        W12929   8.740  11.339   1.712
40604W        W12930  26.043   3.839   0.330
40605W        W12931  21.244  26.554   3.735
40606W        W12932  13.161  24.057  10.542
40607W        W12933  18.678  25.000  13.014
40608W        W12934  35.378  21.030  13.517
40609W        W12935  24.599   6.787  11.061
40610W        W12936  43.412  28.101   2.869
40611W        W12937  42.005  26.165  13.421
40612W        W12938   9.834   0.291   1.740
40613W        W12939   7.177   9.763  13.460
40614W        W12940  14.596  18.688  13.931
40615W        W12941  16.620   3.390   2.801
40616W        W12942  40.885  34.095  12.500
40617W        W12943  12.754   0.811   2.277
40618W        W12944   0.463  37.404  14.386
40619W        W12945   9.710  43.985  12.367
40620W        W12946  30.968  40.872  10.934
40621W        W12947  19.109  29.575  14.830
40622W        W12948  29.439  39.057  10.564
40623W        W12949  36.011   4.703   0.883
40624W        W12950  21.523  22.226   4.724
40625W        W12951   6.206  28.000   0.736
40626W        W12952  25.690  25.714   3.194
40627W        W12953  14.161  41.027  10.427
40628W        W12954  44.293  18.061   4.271
40629W        W12955  29.028  32.926   4.221
40630W        W12956  34.438  19.753   0.319
40631W        W12957  30.985  19.127  13.470
40632W        W12958  36.847   5.396   1.789
40633W        W12959  19.081  38.366  11.096
40634W        W12960  19.683  39.359   2.847
40635W        W12961  44.315  16.081  12.383
40636W        W12962  11.782   1.978   1.801
40637W        W12963  12.243  44.955  13.500
40638W        W12964  16.588  27.062  11.086
40639W        W12965   7.857  15.615   5.304
40640W        W12966  12.277  14.126   4.789
40641W        W12967  36.410  30.937   2.353
40642W        W12968  23.497   3.946  13.538
40643W        W12969  34.438  23.729  10.496
40644W        W12970  40.920   9.740   1.373
40645W        W12971   0.963   6.198   0.822
40646W        W12972  21.624  43.891   3.681
40647W        W12973  33.021  32.977  12.941
40648W        W12974   7.394  39.971   4.632
40649W        W12975   4.450   7.890   3.371
40650W        W12976   6.854  36.038   0.784
40651W        W12977  10.337  16.623  10.468
40652W        W12978   1.270  38.540  10.522
40653W        W12979  40.356  17.781   1.241
40654W        W12980  17.254  26.130   2.763
40655W        W12981  11.177   9.219   4.744
40656W        W12982  22.123  15.791   2.796
40657W        W12983  28.059  13.842   3.381
40658W        W12984  37.888   7.672  14.275
40659W        W12985   3.216  23.060   4.176
40660W        W12986   1.733  39.361  14.913
40661W        W12987   5.816  12.745  10.530
40662W        W12988   8.663  11.132  11.412
40663W        W12989   5.369  11.368  14.411
40664W        W12990  34.393  30.119  14.836
40665W        W12991  26.482  27.518   4.155
40666W        W12992  33.938  14.094   2.878
40667W        W12993  26.101   1.360  10.939
40668W        W12994   8.272  34.916  12.016
40669W        W12995  15.218   7.785  14.453
40670W        W12996  26.478   4.731   4.799
40671W        W12997  21.034   9.323  11.039
40672W        W12998  15.167  11.815   2.376
40673W        W12999  40.857  21.635  10.555
40674W        W13000   1.308  25.115  11.377
40675W        W13001  15.260  24.662  12.883
40676W        W13002  23.993  11.340  12.381
40677W        W13003  12.679  24.501  13.471
40678W        W13004  15.583  40.388  12.395
40679W        W13005  36.992   5.360   3.661
40680W        W13006  18.588  39.889   9.996
40681W        W13007  18.635  17.619   1.752
40682W        W13008  35.943  30.107   1.829
40683W        W13009  21.644  26.198   2.756
40684W        W13010  42.971  11.182  13.935
40685W        W13011  44.401   6.757   1.210
40686W        W13012   5.366   6.874   1.394
40687W        W13013   9.692   7.357   0.931
40688W        W13014  17.777  17.291   3.280
40689W        W13015  11.690  15.127   3.201
40690W        W13016  42.941  42.416   2.784
40691W        W13017  10.635  37.461   0.301
40692W        W13018  18.644   5.905  10.513
40693W        W13019  36.847  33.490   0.854
40694W        W13020   8.747  36.593  13.946
40695W        W13021  39.040  23.700  14.390
40696W        W13022   6.422  41.377  13.387
40697W        W13023  24.649   5.799   4.172
40698W        W13024   4.446  38.466  12.867
40699W        W13025   3.300  29.505  11.436
40700W        W13026  29.097  44.964  10.946
40701W        W13027   9.858  27.656  14.296
40702W        W13028  18.259  37.072   1.211
40703W        W13029  44.352  28.107   0.424
40704W        W13030  14.601  18.707   4.122
40705W        W13031  38.053  36.864  12.898
40706W        W13032  37.539   1.251   4.658
40707W        W13033  17.731  26.595  14.765
40708W        W13034  13.196  33.471  13.530
40709W        W13035   7.297  10.139  12.508
40710W        W13036  27.004  38.835   1.263
40711W        W13037  18.592  24.226  12.543
40712W        W13038  23.068   5.312  13.542
40713W        W13039  40.849   3.293  13.349
40714W        W13040  26.659  39.371  13.310
40715W        W13041   5.398   7.389  11.504
40716W        W13042  27.539  34.006  12.465
40717W        W13043   5.700  16.680  11.070
40718W        W13044  12.202   1.392   0.480
40719W        W13045  35.533  14.826   3.779
40720W        W13046  28.633  31.435   3.293
40721W        W13047  44.291  37.878  13.515
40722W        W13048   1.851  26.599  13.036
40723W        W13049   4.241  17.252  11.535
40724W        W13050  37.558  10.636  10.022
40725W        W13051  30.430   3.934  12.993
40726W        W13052  37.900   1.811   3.196
40727W        W13053  33.971   1.890  14.500
40728W        W13054   3.885  22.152  10.973
40729W        W13055  23.682  34.513   1.886
40730W        W13056  40.053  14.768   0.306
40731W        W13057  29.525  42.454  11.458
40732W        W13058  23.582   5.787   2.699
40733W        W13059   4.729  29.021   2.829
40734W        W13060  32.637  23.575   1.720
40735W        W13061  36.854  33.406   1.731
40736W        W13062  30.045  22.033   3.255
40737W        W13063   2.465  34.924   4.779
40738W        W13064   0.943  12.763  14.516
40739W        W13065  40.897  36.922   4.209
40740W        W13066  13.690  37.377   1.751
40741W        W13067  21.142  22.616   4.820
40742W        W13068  36.888  12.202   2.834
40743W        W13069   9.797  32.057   1.245
40744W        W13070  23.573  25.040  12.569
40745W        W13071  43.415  33.592   2.385
40746W        W13072  22.650  21.220   4.640
40747W        W13073  43.287  26.518  11.061
40748W        W13074  16.186  16.122   4.350
40749W        W13075  43.363   4.894  14.777
40750W        W13076  12.167   1.323  14.972
40751W        W13077  30.165   3.311  11.943
40752W        W13078  10.319  15.219  12.893
40753W        W13079  37.857   0.830   1.265
40754W        W13080  11.253  32.041  13.934
40755W        W13081  13.228   1.459  10.981
40756W        W13082  26.971  28.996  14.490
40757W        W13083  40.431   7.673  13.358
40758W        W13084  12.223  14.665  11.988
40759W        W13085  40.049   2.789  10.523
40760W        W13086  37.910   9.741   2.191
40761W        W13087  31.020  37.838   2.395
40762W        W13088  21.705  34.945  13.473
40763W        W13089  41.357   7.207  11.566
40764W        W13090  14.609  34.489  14.400
40765W        W13091  22.745  16.786  10.920
40766W        W13092   2.724  11.317   3.190
40767W        W13093  36.369  44.891  14.765
40768W        W13094  11.850   1.421  14.480
40769W        W13095  15.179  44.371  11.552
40770W        W13096  33.484  15.770   3.852
40771W        W13097  36.524  35.883   3.194
40772W        W13098  10.258  35.026  13.013
40773W        W13099  40.928  15.817   9.973
40774W        W13100  21.635  38.332  10.556
40775W        W13101  33.438   1.840  11.032
40776W        W13102   5.709  16.572   2.902
40777W        W13103  38.018  11.147   2.862
40778W        W13104  42.481  24.713   3.195
40779W        W13105  35.485  36.962   3.643
40780W        W13106   2.342  22.720  13.440
40781W        W13107  16.231   9.294   0.955
40782W        W13108  38.838  21.025   4.747
40783W        W13109  26.688   1.431  10.443
40784W        W13110  17.064   9.158  14.913
40785W        W13111  34.494  42.963   1.312
40786W        W13112  16.653   7.394  10.945
40787W        W13113  28.575  25.605   3.633
40788W        W13114  27.151   2.379  12.878
40789W        W13115   6.392  17.224  12.988
40790W        W13116  37.378  16.574  13.842
40791W        W13117   6.297  23.640  14.005
40792W        W13118  14.259  37.890   2.781
40793W        W13119  29.544  13.262   3.700
40794W        W13120  41.526  11.188   3.642
40795W        W13121  36.954  21.155   0.439
40796W        W13122   9.349  14.689   4.600
40797W        W13123  10.697  36.963   3.335
40798W        W13124  22.737  10.716   1.356
40799W        W13125   8.167  36.435   0.359
40800W        W13126  23.669  22.184  14.346
40801W        W13127  16.571  25.117   3.240
40802W        W13128   3.741   9.224   9.535
40803W        W13129  24.504  24.195  12.988
40804W        W13130  29.584  22.137  13.947
40805W        W13131  44.477  34.010  13.901
40806W        W13132  15.744   0.942  10.997
40807W        W13133  20.715   2.967   3.770
40808W        W13134   5.753  11.248   2.825
40809W        W13135  36.364  23.213   4.274
40810W        W13136  21.187  39.392  13.446
40811W        W13137  19.755  35.013  12.422
40812W        W13138   2.965  36.094  12.908
40813W        W13139  40.824  28.956  14.006
40814W        W13140  22.095   9.322   3.704
40815W        W13141   9.196  37.387  14.511
40816W        W13142   5.392  40.368   2.667
40817W        W13143   9.343  25.579  11.943
40818W        W13144   0.802  30.432   3.739
40819W        W13145  35.872  43.427   2.685
40820W        W13146  41.955   4.386  14.482
40821W        W13147  20.730  14.755  13.992
40822W        W13148  37.076  32.449  11.096
40823W        W13149  15.179  30.524   1.312
40824W        W13150  33.608  11.640   0.775
40825W        W13151  30.117  31.924   4.644
40826W        W13152  31.946  42.504   2.771
40827W        W13153  16.312   8.177  11.860
40828W        W13154   6.316   4.252  11.542
40829W        W13155  23.518  20.556   3.652
40830W        W13156  37.022  20.138  11.963
40831W        W13157   6.871  16.751   2.222
40832W        W13158  30.134  22.716  12.377
40833W        W13159   3.845  15.823  11.531
40834W        W13160  12.667   4.784  10.553
40835W        W13161   7.336  28.609  10.617
40836W        W13162  41.292  37.838  11.578
40837W        W13163  39.855  29.510   0.372
40838W        W13164  35.034   9.871  11.962
40839W        W13165  26.034  36.096   2.195
40840W        W13166  11.343  37.488   4.653
40841W        W13167  42.025  16.590   2.813
40842W        W13168  34.107  42.808  12.363
40843W        W13169  27.650  26.582  13.909
40844W        W13170  41.009  39.442   0.762
40845W        W13171  36.914   7.891   3.281
40846W        W13172  41.895  28.159   9.983
40847W        W13173   0.319  41.358  14.900
40848W        W13174  26.468  26.516  11.907
40849W        W13175  43.379  24.197  13.395
40850W        W13176  31.484  29.485  14.489
40851W        W13177  26.120   4.797  14.403
40852W        W13178  32.403   9.878  12.893
40853W        W13179  25.512  11.302   4.670
40854W        W13180  23.628  17.731   9.932
40855W        W13181   0.833  11.213  10.949
40856W        W13182   3.744   6.407  10.963
40857W        W13183  11.642  20.549  12.870
40858W        W13184  44.883  15.648   3.860
40859W        W13185  13.109  39.960   4.826
40860W        W13186   5.337  14.759   4.640
40861W        W13187  39.551  20.118   0.863
40862W        W13188  32.988  17.635   1.246
40863W        W13189  21.215   9.780   1.782
40864W        W13190  22.134  36.540  12.485
40865W        W13191  17.121  40.883   1.723
40866W        W13192   9.247  36.011   4.714
40867W        W13193  41.889   7.204  14.290
40868W        W13194  10.652  24.069  14.832
40869W        W13195  26.017  10.753   3.174
40870W        W13196  23.530  33.898   0.952
40871W        W13197  19.737  38.932  12.574
40872W        W13198  35.533   5.355  14.352
40873W        W13199  19.606  22.151  12.417
40874W        W13200  18.198  28.130   1.250
40875W        W13201   4.277  43.813   0.368
40876W        W13202  42.871  20.700  12.449
40877W        W13203   8.353   5.812  14.834
40878W        W13204  23.578   6.888  13.822
40879W        W13205   2.325  16.720  10.591
40880W        W13206  20.252  28.113  12.066
40881W        W13207  26.501  41.815  14.875
40882W        W13208  36.997  14.597  11.397
40883W        W13209  18.581  11.360  13.980
40884W        W13210   8.217  31.582  14.026
40885W        W13211  16.185  40.461  11.514
40886W        W13212  25.636  24.722   4.114
40887W        W13213   7.766  37.023  10.600
40888W        W13214   3.734  16.667   4.301
40889W        W13215  11.357  36.898   0.387
40890W        W13216   6.365  15.685   0.763
40891W        W13217  41.909  23.170  14.907
40892W        W13218  26.055  30.948  10.418
40893W        W13219  43.921  44.310   2.815
40894W        W13220  26.674   5.892   2.695
40895W        W13221  15.638  23.614  14.451
40896W        W13222   7.322  22.243  10.410
40897W        W13223   7.728   3.923   3.738
40898W        W13224  40.822  10.212  11.947
40899W        W13225   0.972   3.817  12.873
40900W        W13226  28.049  28.673  11.492
40901W        W13227  33.555  13.182  13.406
40902W        W13228  36.450   6.186   1.397
40903W        W13229  44.276  10.708   1.449
40904W        W13230  23.641  10.142  12.919
40905W        W13231  36.487   5.726   1.295
40906W        W13232  22.630  30.975  14.864
40907W        W13233  30.107  43.880   3.799
40908W        W13234  14.638  40.336   4.347
40909W        W13235  15.641  34.084   5.311
40910W        W13236   4.206  25.009  14.933
40911W        W13237  10.830  29.509  10.617
40912W        W13238   3.254  32.134  14.438
40913W        W13239  22.147  11.705  12.941
40914W        W13240   4.338  25.485  13.027
40915W        W13241  17.293  31.547   2.695
40916W        W13242  23.711  13.825   3.373
40917W        W13243  41.425   2.384   1.878
40918W        W13244  34.116  30.495   3.701
40919W        W13245  17.283   4.745  14.899
40920W        W13246  13.297  27.603   1.891
40921W        W13247  28.441  11.677  10.896
40922W        W13248  10.822  21.043  12.493
40923W        W13249  42.845  35.100   5.120
40924W        W13250  34.599  21.145   4.791
40925W        W13251   8.175  25.485  13.035
40926W        W13252   4.430  24.546  13.948
40927W        W13253  43.841  29.423   3.709
40928W        W13254  22.190   4.819  14.839
40929W        W13255   4.801  26.600  12.423
40930W        W13256  32.391  26.026   4.152
40931W        W13257   5.282  35.870   3.188
40932W        W13258  24.519  12.257   3.723
40933W        W13259  25.989  34.572  10.513
40934W        W13260  29.443  12.118   2.899
40935W        W13261  44.375   6.283  12.387
40936W        W13262  41.803  27.484  11.998
40937W        W13263  38.409   7.703  11.580
40938W        W13264  39.946  12.232   4.834
40939W        W13265  20.696  29.534  10.587
40940W        W13266  40.465  34.545  11.550
40941W        W13267   0.872  12.740  12.829
40942W        W13268  37.362  31.546   0.458
40943W        W13269  12.216  42.975   2.673
40944W        W13270  42.806  33.877   1.338
40945W        W13271  38.444  15.167  12.524
40946W        W13272  34.000  31.452  11.395
40947W        W13273   0.838   5.347  12.533
40948W        W13274  30.012  16.239   2.406
40949W        W13275  40.932  27.663   1.444
40950W        W13276  21.110  24.983  13.515
40951W        W13277   3.302   2.303   1.892
40952W        W13278  42.465  20.062   3.298
40953W        W13279  20.739  37.929   3.313
40954W        W13280   6.747   6.684   1.697
40955W        W13281  20.211  18.637   3.640
40956W        W13282  40.477  23.500   1.816
40957W        W13283  16.105  21.566  11.997
40958W        W13284  33.949  44.803  13.940
40959W        W13285  18.751  16.195  13.494
40960W        W13286  11.841  13.758  11.023
40961W        W13287  25.177  29.093   3.338
40962W        W13288  32.973  40.012  13.470
40963W        W13289  23.114  29.951  13.894
40964W        W13290  35.968  34.454  12.992
40965W        W13291  17.761  44.858  12.924
40966W        W13292  25.217   8.297   0.399
40967W        W13293   3.461  22.047  13.802
40968W        W13294   3.887  29.048   3.668
40969W        W13295  41.813  37.384  14.280
40970W        W13296  27.561  42.295  11.574
40971W        W13297  12.344  24.590   4.116
40972W        W13298  41.819  21.196   0.310
40973W        W13299   6.367  29.042  11.119
40974W        W13300  39.846  40.357   4.606
40975W        W13301  21.675  19.656  10.996
40976W        W13302   3.789   4.710  10.432
40977W        W13303  14.228  32.994   0.770
40978W        W13304   9.260  38.463   4.656
40979W        W13305  29.036  37.942  13.455
40980W        W13306  40.382  25.207  11.935
40981W        W13307  26.471  11.859  12.369
40982W        W13308   5.201   3.738  12.850
40983W        W13309  22.573  34.455  14.425
40984W        W13310  44.847  22.698  13.947
40985W        W13311  18.596  11.319  11.031
40986W        W13312  27.562  36.862  12.859
40987W        W13313   2.754  14.618  10.926
40988W        W13314  41.422  23.595   1.890
40989W        W13315  13.156  38.896   2.896
40990W        W13316   2.887   1.955  10.947
40991W        W13317  12.183  36.027   5.288
40992W        W13318  25.495  30.442  10.055
40993W        W13319  33.099   3.925  11.891
40994W        W13320  43.429  12.773   4.121
40995W        W13321   3.790  18.168   4.253
40996W        W13322  44.318  32.973  13.327
40997W        W13323  41.367  43.990   4.321
40998W        W13324  29.950  26.986   3.369
40999W        W13325  23.226   5.375   1.268
41000W        W13326  29.612  27.520   2.309
41001W        W13327   7.316  43.797   1.248
41002W        W13328   5.895  35.875  12.341
41003W        W13329   0.947  24.629   1.442
41004W        W13330  17.102  38.436  11.445
41005W        W13331   9.746  42.476  13.468
41006W        W13332  30.548  33.548  12.089
41007W        W13333   6.689   5.275   0.324
41008W        W13334   8.286   6.394   0.839
41009W        W13335  17.719   8.692  13.024
41010W        W13336  34.988   2.738  12.454
41011W        W13337   8.686   3.777  11.877
41012W        W13338  27.162  42.525   2.219
41013W        W13339  14.122  33.027  11.044
41014W        W13340  21.232  37.882   1.226
41015W        W13341  32.595  36.391  11.381
41016W        W13342  15.284   1.447  12.440
41017W        W13343  15.697  34.516  12.015
41018W        W13344  15.160  34.041   3.791
41019W        W13345  17.301  44.400  10.614
41020W        W13346  35.508  37.958  12.396
41021W        W13347  28.120   2.360   1.310
41022W        W13348  16.109  13.110  14.915
41023W        W13349  23.197  24.502  12.489
41024W        W13350  18.593  34.924  14.786
41025W        W13351  13.778  30.446   0.867
41026W        W13352  32.551  18.719   1.280
41027W        W13353   7.195  39.520   0.437
41028W        W13354  12.208   7.688  14.493
41029W        W13355   5.888  13.175   3.255
41030W        W13356  24.617   3.443   0.306
41031W        W13357  28.959  18.690  12.539
41032W        W13358  40.035  22.509   3.184
41033W        W13359  27.050  10.259   2.703
41034W        W13360  29.099  31.089   3.803
41035W        W13361   6.232  34.432  12.581
41036W        W13362  10.214  26.973  12.565
41037W        W13363  41.313  29.445   1.439
41038W        W13364  42.023  13.708  11.997
41039W        W13365  16.074   6.397   1.266
41040W        W13366  43.000  39.829   0.826
41041W        W13367  21.048   3.346   2.414
41042W        W13368  26.624  34.553  13.901
41043W        W13369  34.515  20.215  12.026
41044W        W13370   5.277  32.393  11.049
41045W        W13371  24.499  10.769   0.412
41046W        W13372   6.321  17.688   3.266
41047W        W13373  30.539  33.062  14.955
41048W        W13374  18.665  34.871   4.693
41049W        W13375  26.031  19.630   1.255
41050W        W13376  37.513  41.478  13.542
41051W        W13377   5.427  26.137  14.983
41052W        W13378  35.052  13.145   4.639
41053W        W13379  23.715  38.921   4.681
41054W        W13380  23.062  26.048   3.181
41055W        W13381  32.074  29.627   2.724
41056W        W13382  17.563  13.148  11.881
41057W        W13383  31.087  44.442   2.756
41058W        W13384  11.128  26.631  14.448
41059W        W13385   9.323   9.682   4.689
41060W        W13386   4.700  26.607   0.340
41061W        W13387   2.240   9.372   2.711
41062W        W13388  27.082   8.709  14.008
41063W        W13389  38.503  15.303  13.910
41064W        W13390  31.464  21.531   0.347
41065W        W13391   5.284  11.363   0.855
41066W        W13392  19.708  23.609  13.480
41067W        W13393  22.070  20.053   2.886
41068W        W13394   3.221  19.600   0.799
41069W        W13395   0.292  27.484  10.606
41070W        W13396  11.358  32.140   5.109
41071W        W13397  16.580  17.745   1.726
41072W        W13398  37.914   8.283   0.752
41073W        W13399  36.961  34.084  11.891
41074W        W13400  43.945   7.837  14.823
41075W        W13401  32.500  16.646   0.908
41076W        W13402  10.177  17.768  14.437
41077W        W13403  28.563  21.710   3.145
41078W        W13404  40.394  21.660   3.758
41079W        W13405   5.743   3.864   0.937
41080W        W13406   9.167  25.137   3.227
41081W        W13407  37.573  31.488  12.955
41082W        W13408   7.746  14.655   4.706
41083W        W13409  40.385  19.188   1.403
41084W        W13410   1.450  39.369   0.964
41085W        W13411   8.734  42.896   1.370
41086W        W13412  22.017  39.963  10.421
41087W        W13413  25.148  27.561  12.575
41088W        W13414  39.397  42.421  14.424
41089W        W13415  21.161  37.468   3.149
41090W        W13416  28.461  28.952  11.061
41091W        W13417  38.377  44.949   2.859
41092W        W13418  13.709  10.739   1.288
41093W        W13419  10.765   8.216   1.921
41094W        W13420  33.505  38.054  13.821
41095W        W13421  32.997  15.158  14.013
41096W        W13422  23.582  14.730  12.962
41097W        W13423  10.212  36.051  13.378
41098W        W13424  25.060  41.886   2.325
41099W        W13425  24.716   1.428  11.587
41100W        W13426  19.048   7.707  11.874
41101W        W13427  23.615  32.571   0.464
41102W        W13428  43.892  44.813  11.496
41103W        W13429  27.580  18.568  13.464
41104W        W13430   5.836  17.221   1.885
41105W        W13431  32.116  31.007   2.255
41106W        W13432  21.557  42.333  14.325
41107W        W13433  32.019   8.737   2.816
41108W        W13434   9.820   0.809  14.494
41109W        W13435  19.282  35.422   0.356
41110W        W13436  18.682  35.368   1.720
41111W        W13437  43.417  13.677   1.786
41112W        W13438  20.619  20.206   4.303
41113W        W13439  39.390  23.643   1.834
41114W        W13440  27.994  19.533   4.185
41115W        W13441  12.842  42.444  14.023
41116W        W13442  43.512  19.145  12.893
41117W        W13443  20.757   7.293   3.644
41118W        W13444  28.666  31.603   3.776
41119W        W13445  17.233  39.327   4.706
41120W        W13446  11.840  27.062   0.352
41121W        W13447  11.271  22.119  13.489
41122W        W13448  40.322  21.557   0.469
41123W        W13449  22.017  17.783   0.471
41124W        W13450   5.232  11.624   0.843
41125W        W13451  15.257   9.367  12.093
41126W        W13452  28.455  27.996   4.720
41127W        W13453  10.677  35.496  10.897
41128W        W13454  41.913  31.945  13.330
41129W        W13455  10.259   5.397   2.887
41130W        W13456  24.603   2.905   4.624
41131W        W13457  36.558  12.853  13.019
41132W        W13458  29.020  17.159   4.710
41133W        W13459   0.386  15.159  12.054
41134W        W13460  13.601  13.649   1.836
41135W        W13461  42.391  39.488  14.449
41136W        W13462  25.625   4.934   2.885
41137W        W13463  17.155   3.743   4.784
41138W        W13464  18.253  17.684   2.727
41139W        W13465   8.862  39.859   4.201
41140W        W13466   8.389  16.284   2.837
41141W        W13467  29.544  31.418  10.423
41142W        W13468   6.184  28.141  13.011
41143W        W13469  40.804  11.283  12.407
41144W        W13470   3.761  27.461   1.809
41145W        W13471  23.521  16.790  12.572
41146W        W13472  32.608   8.302   3.751
41147W        W13473  35.006  38.332   3.829
41148W        W13474  30.425  11.706  11.961
41149W        W13475   3.725  21.255  10.581
41150W        W13476  23.633   1.482   0.810
41151W        W13477  27.609  26.155   2.876
41152W        W13478   1.372  39.534   1.807
41153W        W13479   5.703  37.410   3.678
41154W        W13480  31.947  28.164   4.279
41155W        W13481  26.972  23.705   4.832
41156W        W13482   8.299  36.406   1.427
41157W        W13483  13.330  10.823  12.972
41158W        W13484   9.335  12.752  14.458
41159W        W13485  14.661  20.576  10.601
41160W        W13486  31.066   4.887  13.964
41161W        W13487  16.609   3.328   2.362
41162W        W13488  38.491  11.185   5.280
41163W        W13489  26.158   8.360  13.352
41164W        W13490  37.507  25.069  11.418
41165W        W13491   9.773  43.457   1.277
41166W        W13492  12.199  38.056  11.088
41167W        W13493  38.834  38.482  12.952
41168W        W13494   2.307  32.611   4.190
41169W        W13495  24.587  44.501   0.858
41170W        W13496  34.874  19.067   4.318
41171W        W13497  13.808  32.390   1.885
41172W        W13498  31.431   5.336  12.524
41173W        W13499  22.007   9.184  13.913
41174W        W13500   4.349   4.738   4.204
41175W        W13501  42.794  20.637  10.567
41176W        W13502  43.426  21.040  14.472
41177W        W13503  36.490  28.586   1.716
41178W        W13504  39.956  32.494   0.257
41179W        W13505  33.127  22.153   0.346
41180W        W13506  24.699  39.907   1.373
41181W        W13507  13.653  43.800  13.029
41182W        W13508   9.160  37.085  13.008
41183W        W13509  43.473   6.338  13.011
41184W        W13510   4.255  42.341   4.305
41185W        W13511  31.617   4.707  12.824
41186W        W13512  36.515  28.582   1.232
41187W        W13513  22.128  15.586  12.888
41188W        W13514   8.190  32.488   3.316
41189W        W13515  40.340   2.466  13.438
41190W        W13516  41.293  10.775  12.069
41191W        W13517  34.506  37.537   4.204
41192W        W13518   4.783  36.443   4.821
41193W        W13519  30.619   0.894   2.290
41194W        W13520  31.145  42.293  13.996
41195W        W13521  35.106  26.025  14.507
41196W        W13522  36.441  39.389  13.497
41197W        W13523  32.599  39.841  12.385
41198W        W13524  27.548  42.858  10.560
41199W        W13525  40.953  26.636  10.462
41200W        W13526   5.414  38.364   0.445
41201W        W13527  26.001  22.998  10.424
41202W        W13528   6.307  32.402  14.981
41203W        W13529  34.556   5.752   4.734
41204W        W13530  16.156   6.420   4.639
41205W        W13531  36.407  11.781  11.530
41206W        W13532   3.757  24.628   1.715
41207W        W13533   1.258   3.846  11.970
41208W        W13534  43.403  35.579  12.411
41209W        W13535  20.532   4.810   4.616
41210W        W13536  13.672   2.460  14.013
41211W        W13537  20.726  25.058   1.213
41212W        W13538  21.136   0.879  13.468
41213W        W13539  16.681  11.656  10.464
41214W        W13540   5.362  39.914   4.320
41215W        W13541  38.515  18.585  14.463
41216W        W13542  21.233   3.802  11.445
41217W        W13543   3.898  13.782   2.718
41218W        W13544  31.899  11.705   1.741
41219W        W13545  28.631  22.205  11.602
41220W        W13546  13.229   7.221   5.172
41221W        W13547  16.131  40.504  12.954
41222W        W13548  20.631   3.303   2.883
41223W        W13549  14.670  34.927   5.571
41224W        W13550  33.959  18.250  10.505
41225W        W13551  27.641  14.629  14.353
41226W        W13552   8.262  43.431   2.663
41227W        W13553  41.385  20.608  13.854
41228W        W13554  16.665  28.955   0.834
41229W        W13555   1.943  35.896   2.884
41230W        W13556  28.107  36.351   1.867
41231W        W13557   3.938  39.879   1.211
41232W        W13558  10.740  41.296   4.346
41233W        W13559  34.014  11.236   3.209
41234W        W13560  39.433   3.357   3.313
41235W        W13561  34.441   3.350  11.601
41236W        W13562   7.389  44.364  11.555
41237W        W13563  14.254  43.319   0.455
41238W        W13564  17.581  11.641   0.443
41239W        W13565  29.067  21.072   3.163
41240W        W13566  39.824   3.808  11.881
41241W        W13567  37.020  35.511  11.430
41242W        W13568  42.351  23.524   4.695
41243W        W13569  36.410   4.242  10.579
41244W        W13570  16.165  15.716   0.407
41245W        W13571  39.902  44.954  11.036
41246W        W13572   6.858   1.746  13.495
41247W        W13573  39.040  30.524   4.190
41248W        W13574  41.448   0.878  11.431
41249W        W13575  33.467  29.588   1.837
41250W        W13576  30.924   6.238   3.248
41251W        W13577   3.831  44.471   4.661
41252W        W13578  31.026  30.452   4.313
41253W        W13579  30.022  26.055   4.637
41254W        W13580  30.930  33.583   4.739
41255W        W13581  34.413  17.111  11.480
41256W        W13582  21.249  20.262  12.908
41257W        W13583  38.355  28.518   0.340
41258W        W13584  34.064  41.898  10.440
41259W        W13585   5.897  12.179  12.980
41260W        W13586  20.176  15.307  12.976
41261W        W13587  19.704  12.628  13.408
41262W        W13588  35.509  39.063   2.684
41263W        W13589  14.791  17.786   4.218
41264W        W13590   3.229  10.245  13.004
41265W        W13591   1.791   4.361  10.504
41266W        W13592  42.292  11.337   3.665
41267W        W13593  24.531   7.234  12.944
41268W        W13594   4.760  15.204  12.362
41269W        W13595  24.705  43.321   3.218
41270W        W13596  41.797   9.719  13.499
41271W        W13597  44.889  22.218  10.494
41272W        W13598   5.253   2.449  14.890
41273W        W13599   0.835  10.253   1.866
41274W        W13600  35.970  28.514  13.851
41275W        W13601  40.478  32.597   1.883
41276W        W13602  23.709  20.573  11.426
41277W        W13603  28.048  25.583   9.953
41278W        W13604  26.114  37.493   2.386
41279W        W13605  32.106   4.410   0.924
41280W        W13606  40.409  34.398  12.863
41281W        W13607  41.910  22.645   5.239
41282W        W13608  13.147  30.911  10.629
41283W        W13609   6.909  12.200  11.031
41284W        W13610   1.875  11.208   1.779
41285W        W13611  14.622  29.057  13.528
41286W        W13612  25.559   7.322  11.923
41287W        W13613  19.561  37.476  11.520
41288W        W13614  33.112  12.778   1.870
41289W        W13615  34.101  33.906  12.433
41290W        W13616  30.602  42.829   4.215
41291W        W13617  22.153  12.660  12.522
41292W        W13618  39.051  13.167   2.375
41293W        W13619  43.988  23.024  13.487
41294W        W13620   7.188   3.424  10.079
41295W        W13621  40.868  18.603  12.931
41296W        W13622  31.045  29.164   1.285
41297W        W13623  41.804  23.089   4.275
41298W        W13624  28.535  29.643  13.517
41299W        W13625  43.325  36.045  10.595
41300W        W13626  38.398  40.971   0.479
41301W        W13627  34.921  35.948   1.322
41302W        W13628  27.549  22.054  11.417
41303W        W13629  26.172  19.634  13.856
41304W        W13630  18.131   6.864  14.298
41305W        W13631  11.146  40.346   1.282
41306W        W13632   4.751  26.107  11.456
41307W        W13633   7.887  36.999  14.796
41308W        W13634  40.544  30.956  11.862
41309W        W13635  34.404  21.042   2.817
41310W        W13636  19.745  36.384   1.431
41311W        W13637  17.256  23.654   3.268
41312W        W13638   9.827  31.550   4.317
41313W        W13639  43.506  31.642   4.629
41314W        W13640  36.981  39.509  11.423
41315W        W13641  35.962   2.375  14.001
41316W        W13642   6.252  31.017   3.842
41317W        W13643  30.658  39.988  11.001
41318W        W13644  33.459  26.538  11.459
41319W        W13645   9.331   3.900   1.213
41320W        W13646  30.490  20.601   4.248
41321W        W13647   8.730  16.085   0.324
41322W        W13648  38.545  21.598  11.024
41323W        W13649  31.643  31.918  14.926
41324W        W13650  31.910   6.732   4.241
41325W        W13651  17.300  38.899   2.212
41326W        W13652   4.430   0.774   3.260
41327W        W13653  34.987   0.325   4.353
41328W        W13654  21.204  23.525  12.885
41329W        W13655  36.847  40.482   2.293
41330W        W13656  40.955  39.917   4.838
41331W        W13657   6.266  18.727  14.796
41332W        W13658   9.817  19.538   4.655
41333W        W13659  37.466  12.612  12.924
41334W        W13660  16.596  28.992  10.641
41335W        W13661   7.281  10.182   4.771
41336W        W13662  27.652  39.364   1.709
41337W        W13663  33.619  14.117  13.347
41338W        W13664  35.535  43.366   4.221
41339W        W13665  29.948  12.135   4.740
41340W        W13666  38.062  12.354  10.049
41341W        W13667  36.065  24.680   0.471
41342W        W13668  30.962  35.578  11.059
41343W        W13669  33.603  23.990   4.733
41344W        W13670  22.614   6.403   2.413
41345W        W13671   2.952   0.393   4.141
41346W        W13672   3.757  19.120   2.297
41347W        W13673  30.450  19.600   4.114
41348W        W13674  18.583   6.824   3.207
41349W        W13675  23.573   2.310  10.557
41350W        W13676  43.345  13.337   0.440
41351W        W13677  44.290  42.363   2.264
41352W        W13678  18.649  28.123  10.131
41353W        W13679   5.227  36.925   3.819
41354W        W13680  42.389  20.036   2.209
41355W        W13681   6.263  15.641   4.161
41356W        W13682  36.519  44.946   4.740
41357W        W13683  11.279  24.554  12.826
41358W        W13684  44.974   9.725   4.176
41359W        W13685  10.211   4.858   0.758
41360W        W13686   6.199  36.020  13.905
41361W        W13687  42.971  28.603   1.407
41362W        W13688  25.583  10.769  13.321
41363W        W13689  27.496  39.060  11.901
41364W        W13690   6.703  30.564   4.619
41365W        W13691  17.247   6.360   2.897
41366W        W13692   5.272  38.425  10.617
41367W        W13693   0.914  29.528   4.675
41368W        W13694  28.617  16.636   1.699
41369W        W13695  20.566  18.142  13.510
41370W        W13696  23.119   1.818   1.291
41371W        W13697   3.734   7.755  13.951
41372W        W13698  19.672  12.182   4.204
41373W        W13699  34.990  31.022  12.020
41374W        W13700  11.292  23.153  14.346
41375W        W13701   3.735  24.594   3.343
41376W        W13702   6.862  38.330  14.321
41377W        W13703  21.733  40.943  10.985
41378W        W13704   7.879   5.412  13.475
41379W        W13705  41.463  39.006   3.736
41380W        W13706   9.829  32.454   3.665
41381W        W13707  39.892  26.128   2.750
41382W        W13708  23.633  27.181   2.361
41383W        W13709  19.271  41.475  11.385
41384W        W13710  27.951  25.127  10.012
41385W        W13711  30.931  42.816   1.370
41386W        W13712  21.221   1.247   1.379
41387W        W13713  38.409  44.941   0.775
41388W        W13714   5.206  44.271   4.724
41389W        W13715  18.113  44.487   2.676
41390W        W13716   8.285  30.945   3.315
41391W        W13717   6.371  39.314  13.802
41392W        W13718   8.698   5.419   1.924
41393W        W13719  33.056  27.980  12.835
41394W        W13720  17.251  40.303  12.001
41395W        W13721  26.674  17.611   2.395
41396W        W13722  44.903  36.387   0.872
41397W        W13723  12.302   0.846   4.669
41398W        W13724  30.056  20.590   2.327
41399W        W13725  17.193  27.095  12.495
41400W        W13726  29.643  33.096   1.787
41401W        W13727  29.609  21.758  13.822
41402W        W13728   6.188  42.889  13.880
41403W        W13729  30.999  21.229  12.459
41404W        W13730  23.151  10.668  12.578
41405W        W13731  36.454  27.648   1.368
41406W        W13732  14.652  31.548   1.773
41407W        W13733  42.025  18.146  12.055
41408W        W13734  29.123  35.560   4.322
41409W        W13735   2.884  42.454  13.846
41410W        W13736   0.296  20.747  14.948
41411W        W13737  21.520  14.171   2.195
41412W        W13738   5.301   7.227  12.467
41413W        W13739   2.938  30.090  11.981
41414W        W13740  24.613  37.518   1.385
41415W        W13741  21.608  42.524  11.887
41416W        W13742   5.766  35.530   1.724
41417W        W13743   6.399  35.905   1.423
41418W        W13744  42.495  38.974  10.622
41419W        W13745   7.192  22.250   0.730
41420W        W13746  22.502  19.096  11.022
41421W        W13747  11.355  40.455   2.338
41422W        W13748  39.949  19.259  14.858
41423W        W13749  24.606  39.841  11.996
41424W        W13750  44.880   4.834  11.079
41425W        W13751   6.285  22.030   2.664
41426W        W13752  21.550  22.034   2.211
41427W        W13753   9.783  26.010   2.861
41428W        W13754   8.192  42.395   1.295
41429W        W13755   4.266  33.624  11.899
41430W        W13756  44.443  28.637   1.851
41431W        W13757  31.101  43.496   2.181
41432W        W13758  37.871  36.891   3.836
41433W        W13759  14.286  33.914   4.666
41434W        W13760  29.997  10.183  11.390
41435W        W13761  40.314  21.642  11.541
41436W        W13762   3.387  11.212  13.822
41437W        W13763  38.331  28.455   3.798
41438W        W13764  39.449  13.151  14.791
41439W        W13765  35.086  41.442  12.957
41440W        W13766  31.912  38.393  11.085
41441W        W13767  30.454   5.377   0.425
41442W        W13768   6.889  18.693  14.787
41443W        W13769  29.144  11.781  13.860
41444W        W13770  35.514  38.428  10.961
41445W        W13771   8.745  27.476   2.883
41446W        W13772  21.720  18.757   3.740
41447W        W13773  38.397  25.667  13.938
41448W        W13774  35.049   5.723  10.540
41449W        W13775  43.464  30.014   1.212
41450W        W13776   7.221  11.847  10.594
41451W        W13777  27.488  21.550  10.471
41452W        W13778   8.398  10.745   0.933
41453W        W13779  14.704  33.920  13.821
41454W        W13780  34.603   3.278  13.864
41455W        W13781  44.484  23.593  14.871
41456W        W13782  30.516  37.880   0.447
41457W        W13783   1.805  34.091  14.501
41458W        W13784  26.477  23.641  14.014
41459W        W13785  26.491  31.483   2.330
41460W        W13786  34.447  13.714  11.596
41461W        W13787  29.141  25.541   3.727
41462W        W13788  33.553  41.392  12.063
41463W        W13789  34.052  33.617   3.319
41464W        W13790  20.188  21.546  12.891
41465W        W13791  20.524  32.592  12.842
41466W        W13792  29.429  15.245  10.514
41467W        W13793   2.909   6.337  11.126
41468W        W13794  11.630  17.296  14.362
41469W        W13795  18.277  20.550  11.942
41470W        W13796  41.972  20.616  14.414
41471W        W13797  13.213   3.332  12.987
41472W        W13798  38.831  44.754  12.397
41473W        W13799  23.637   5.273  10.505
41474W        W13800  43.020   8.300   1.238
41475W        W13801  35.957  20.639   1.359
41476W        W13802  27.961  43.442  14.336
41477W        W13803  26.973  36.489  14.759
41478W        W13804   2.791  10.703   2.692
41479W        W13805  24.501   4.829   0.844
41480W        W13806  11.203   9.858   0.767
41481W        W13807  25.109   9.184  11.117
41482W        W13808   4.928  17.682   9.924
41483W        W13809  31.086   5.764   3.853
41484W        W13810  22.697  33.392   4.220
41485W        W13811   8.778  23.050  10.957
41486W        W13812   1.372  36.054  13.375
41487W        W13813  44.504  28.594  12.506
41488W        W13814  11.127   8.901  13.053
41489W        W13815  35.099  14.341   1.253
41490W        W13816  29.950  10.189  11.923
41491W        W13817   5.213   0.786   0.768
41492W        W13818  13.707  11.645  13.413
41493W        W13819  38.376  38.355   0.737
41494W        W13820  32.578   8.841   3.779
41495W        W13821  25.982  41.315  12.507
41496W        W13822  44.273  39.871  10.621
41497W        W13823  25.492  29.669  10.061
41498W        W13824  10.875  12.337   0.295
41499W        W13825  34.514   1.283  11.556
41500W        W13826   3.849  17.185  13.468
41501W        W13827   6.315  20.155  12.005
41502W        W13828  11.309  29.092   3.339
41503W        W13829  21.653  19.745   3.211
41504W        W13830  28.506   1.812   4.647
41505W        W13831  12.733   4.294  13.521
41506W        W13832  15.772  18.627   1.329
41507W        W13833  22.627  19.259  12.972
41508W        W13834  31.615  14.309   0.850
41509W        W13835  19.649  34.053  12.405
41510W        W13836  30.044  33.518  13.847
41511W        W13837  24.151  12.217   2.379
41512W        W13838  18.270  17.216   1.439
41513W        W13839   7.378  32.505   3.786
41514W        W13840   3.782   8.377   2.902
41515W        W13841  21.653  34.864   0.954
41516W        W13842   1.831  42.496   3.819
41517W        W13843  21.741  33.466   4.615
41518W        W13844  20.617  17.755  12.450
41519W        W13845  15.823  32.937   0.267
41520W        W13846  11.232   1.253  11.448
41521W        W13847  12.769  30.034  12.402
41522W        W13848  23.096   0.276   0.318
41523W        W13849  33.394  43.487   4.216
41524W        W13850  21.733   3.364   3.334
41525W        W13851   8.180   8.272   2.397
41526W        W13852  25.679   4.321  14.889
41527W        W13853  43.816  16.271   3.384
41528W        W13854   8.773   0.963   4.325
41529W        W13855  38.065  25.021   5.233
41530W        W13856  30.631  33.412   1.308
41531W        W13857  40.542  10.288   4.331
41532W        W13858  21.023  36.890   2.740
41533W        W13859  10.786  29.010   4.340
41534W        W13860  22.617   4.833   0.356
41535W        W13861   7.242  39.033  12.391
41536W        W13862  17.105  18.187  11.541
41537W        W13863  36.055  37.953   0.435
41538W        W13864  36.355  43.365   1.727
41539W        W13865  33.947  18.575  12.424
41540W        W13866  24.163   1.931   1.315
41541W        W13867  28.173   8.745   1.790
41542W        W13868  43.309   3.409  11.986
41543W        W13869  28.532  27.065  12.375
41544W        W13870   2.363  17.654  11.940
41545W        W13871  28.030  29.614   5.295
41546W        W13872  17.300   1.888  14.980
41547W        W13873  10.211  16.568  12.858
41548W        W13874  21.596   9.877   3.161
41549W        W13875   4.313  15.315   2.863
41550W        W13876  19.090  44.449  13.406
41551W        W13877  44.294  17.151   4.756
41552W        W13878  29.931  36.569   3.332
41553W        W13879  34.960  38.907  12.866
41554W        W13880  19.780  35.074  11.533
41555W        W13881   0.978  13.161  14.387
41556W        W13882   0.429  26.208  12.074
41557W        W13883  36.504  15.599  10.902
41558W        W13884  36.381  25.495   2.399
41559W        W13885  17.642   2.373   0.910
41560W        W13886  29.976  10.213   4.824
41561W        W13887  18.229  31.985   0.445
41562W        W13888  14.315   6.415   1.807
41563W        W13889  44.828  26.649   1.394
41564W        W13890   0.974   9.856   2.412
41565W        W13891  32.092  19.543   1.860
41566W        W13892  43.467  25.062   0.794
41567W        W13893  18.206   8.738   2.829
41568W        W13894  42.955  11.367  12.357
41569W        W13895  10.167   9.150  10.142
41570W        W13896   6.236  13.633   4.829
41571W        W13897  33.971  40.013  14.340
41572W        W13898  28.998  27.064   2.237
41573W        W13899  16.128  35.566  14.898
41574W        W13900  19.699  34.585   0.870
41575W        W13901  11.622  24.145   1.436
41576W        W13902   5.791  26.612  11.012
41577W        W13903  25.180  36.465  12.022
41578W        W13904  16.681  29.970   3.323
41579W        W13905   1.243  10.862  12.560
41580W        W13906  40.936  21.122  11.505
41581W        W13907  30.083   3.948   1.795
41582W        W13908  22.171  19.264  14.294
41583W        W13909  26.688   8.204   4.721
41584W        W13910  28.075  18.643  13.968
41585W        W13911  30.965   8.784   2.662
41586W        W13912  30.065  36.429  12.979
41587W        W13913  18.062  39.396   0.960
41588W        W13914  24.686  30.605  10.539
41589W        W13915  30.620   4.897  12.845
41590W        W13916  38.922  27.518  10.636
41591W        W13917   5.308   8.810  13.996
41592W        W13918  37.373  38.548  10.123
41593W        W13919  11.129  32.946   0.782
41594W        W13920  24.532   8.226   1.394
41595W        W13921   7.377   0.368  10.988
41596W        W13922  32.603   6.229   2.764
41597W        W13923  13.743  30.508   3.198
41598W        W13924  42.846  23.040   2.663
41599W        W13925  37.376   7.815   5.304
41600W        W13926  31.538  17.684   2.768
41601W        W13927  16.570  43.433  13.379
41602W        W13928  17.616  25.686  14.428
41603W        W13929  17.583  42.914  13.454
41604W        W13930  32.888  25.033  10.526
41605W        W13931  28.121  23.722   2.221
41606W        W13932  17.793  33.925   2.820
41607W        W13933   2.810  30.959  14.014
41608W        W13934  25.148   4.444   4.802
41609W        W13935  44.413  35.386   1.292
41610W        W13936  34.531  43.820   2.727
41611W        W13937  38.331  28.184   4.315
41612W        W13938  21.592  26.202   0.942
41613W        W13939  29.045  15.278   0.336
41614W        W13940  29.537   5.398  13.345
41615W        W13941  14.278   5.203   4.240
41616W        W13942  12.216  29.559  12.456
41617W        W13943  27.953  23.072   4.244
41618W        W13944  14.758   2.385  13.835
41619W        W13945  31.033  27.124  13.991
41620W        W13946   3.870  44.796   1.737
41621W        W13947  29.000  22.626  13.359
41622W        W13948  15.147  24.543  10.420
41623W        W13949  16.738  28.533  13.513
41624W        W13950   7.400  37.895  13.004
41625W        W13951  25.032  22.590   2.354
41626W        W13952  17.118  35.373  11.121
41627W        W13953  26.128  26.507  11.489
41628W        W13954  40.997  34.474  14.409
41629W        W13955   2.823  42.324  12.340
41630W        W13956   3.947  18.664  14.787
41631W        W13957  39.000  33.902   1.326
41632W        W13958  37.501   5.202  11.867
41633W        W13959  27.088  28.985   1.390
41634W        W13960  30.446  43.323  13.385
41635W        W13961  19.756  32.441  12.891
41636W        W13962  32.952   6.311   2.194
41637W        W13963  35.959  38.041  14.944
41638W        W13964  44.003  26.073   3.800
41639W        W13965  10.674  41.846  14.358
41640W        W13966  34.422  12.770  13.417
41641W        W13967  43.945  44.879  14.999
41642W        W13968  21.648   8.695   2.289
41643W        W13969  10.729  10.194  14.896
41644W        W13970   5.397  13.692  14.283
41645W        W13971  10.357  25.627   0.388
41646W        W13972   7.753  39.808  11.042
41647W        W13973  37.363  39.961  12.362
41648W        W13974  16.079  39.054   2.703
41649W        W13975  33.383  32.045  11.565
41650W        W13976  29.923  38.491   1.853
41651W        W13977  20.104  21.159   1.450
41652W        W13978  19.622  15.675   1.426
41653W        W13979  18.269   5.211  14.014
41654W        W13980  34.102   3.304   4.319
41655W        W13981  14.253  15.210  13.796
41656W        W13982   3.425  27.523  11.395
41657W        W13983  23.717  40.032  14.017
41658W        W13984  41.474  20.220   3.255
41659W        W13985  17.171  24.141  11.876
41660W        W13986  20.046  21.631   0.902
41661W        W13987   5.225  37.527   1.738
41662W        W13988  37.984   8.742   2.767
41663W        W13989  30.916   1.449  10.509
41664W        W13990  37.977  17.172  11.126
41665W        W13991  18.226   0.410  14.810
41666W        W13992  33.600  19.168   0.425
41667W        W13993   2.859  13.775  11.066
41668W        W13994  22.559  23.040   4.639
41669W        W13995  35.417   2.811   2.790
41670W        W13996   1.289  17.095  12.093
41671W        W13997  17.715  40.004  11.031
41672W        W13998  30.162  35.015  10.970
41673W        W13999  37.534  25.031  14.460
41674W        W14000  10.274  12.736  11.020
41675W        W14001  38.356   5.818   1.931
41676W        W14002   7.278  20.143   3.241
41677W        W14003  20.667  41.871   0.372
41678W        W14004  33.046  28.524   1.774
41679W        W14005  28.038  12.725  12.063
41680W        W14006  31.044  28.521   1.746
41681W        W14007  33.068  10.206   3.752
41682W        W14008  27.158   2.243   3.218
41683W        W14009  43.446  15.305  12.959
41684W        W14010  43.499   3.218   2.272
41685W        W14011  24.112   2.263  14.329
41686W        W14012  12.698  34.385   4.713
41687W        W14013  34.404   3.859   1.442
41688W        W14014  22.712  18.155  14.981
41689W        W14015  41.319  28.532   3.201
41690W        W14016   6.795  44.831  13.812
41691W        W14017   4.745  32.943  12.577
41692W        W14018  38.864  30.557   1.435
41693W        W14019  28.072   9.171   2.741
41694W        W14020  28.986  23.639  13.818
41695W        W14021  27.662  12.235  13.542
41696W        W14022  25.502  10.737  13.930
41697W        W14023  42.862  41.495  13.025
41698W        W14024   1.775  38.837  12.987
41699W        W14025  15.258  27.553   3.866
41700W        W14026  32.410  27.489   1.776
41701W        W14027  42.922  21.678   3.211
41702W        W14028  38.528  28.642  10.932
41703W        W14029  41.960  15.618   3.844
41704W        W14030   0.409   3.934  10.906
41705W        W14031  12.676  37.389   1.283
41706W        W14032   2.447  35.910   2.820
41707W        W14033   0.331  43.496   3.152
41708W        W14034  41.485  35.941   3.315
41709W        W14035   5.340  40.322   1.768
41710W        W14036  27.987  43.864   2.325
41711W        W14037  38.058  13.806   1.415
41712W        W14038   2.400  26.184  12.834
41713W        W14039   2.451  14.685   3.671
41714W        W14040  24.518  38.836   9.510
41715W        W14041  13.730  18.712   0.415
41716W        W14042  14.323   9.217  12.574
41717W        W14043  24.221  37.983   4.276
41718W        W14044  35.034  27.081   3.233
41719W        W14045  35.540  23.018   0.411
41720W        W14046  14.174  25.611   2.798
41721W        W14047  22.033  27.573   4.333
41722W        W14048  23.661  10.334   4.670
41723W        W14049  12.797   1.805   2.775
41724W        W14050  12.620   7.365   2.359
41725W        W14051  30.963  19.175  11.031
41726W        W14052   1.760  23.543  13.480
41727W        W14053  21.105  42.335  13.054
41728W        W14054  33.608  32.911   3.658
41729W        W14055   6.823  17.137   0.393
41730W        W14056  37.435  23.100   3.373
41731W        W14057   0.910   4.410  12.538
41732W        W14058  17.284  16.748  10.478
41733W        W14059  34.586  30.576  12.430
41734W        W14060  18.281   8.854   3.853
41735W        W14061  21.144  40.014   4.332
41736W        W14062  29.424   1.404  13.862
41737W        W14063  11.284   3.805   3.298
41738W        W14064  44.445  40.305   1.716
41739W        W14065  43.898  41.947  12.453
41740W        W14066  36.001  36.862   1.251
41741W        W14067  30.629  42.805   2.750
41742W        W14068  11.299  39.347   1.357
41743W        W14069  14.650   1.386   3.704
41744W        W14070   6.368   9.806  14.435
41745W        W14071  13.786  21.644   3.278
41746W        W14072  35.985  23.688   1.390
41747W        W14073  38.905  37.360  10.521
41748W        W14074  34.884  40.523   5.112
41749W        W14075  39.504  35.542  10.481
41750W        W14076  41.973   7.825   3.801
41751W        W14077  23.203  15.087   0.779
41752W        W14078  10.680  12.748  13.361
41753W        W14079  36.431  10.815   3.837
41754W        W14080  33.454  14.635  10.925
41755W        W14081  28.018   3.330  14.349
41756W        W14082   9.818  40.052  11.488
41757W        W14083   6.729  42.493   2.215
41758W        W14084  17.113   1.438   1.814
41759W        W14085   4.737  38.357   4.345
41760W        W14086   8.720  26.642  10.454
41761W        W14087  43.885  17.126   1.442
41762W        W14088  27.056   2.845   3.279
41763W        W14089   8.838  20.108  11.576
41764W        W14090  19.669  10.869  11.856
41765W        W14091   2.290  34.863   4.198
41766W        W14092  22.180  40.347   5.144
41767W        W14093   0.293  10.659  14.501
41768W        W14094  15.199  41.973  13.978
41769W        W14095  44.425  21.531   2.760
41770W        W14096   8.307   3.215   0.410
41771W        W14097   8.799  44.405  14.299
41772W        W14098  18.732  29.451  14.311
41773W        W14099  44.876  11.182   2.223
41774W        W14100  13.643  19.544  12.567
41775W        W14101  19.772  44.387   2.701
41776W        W14102  23.993  35.390  12.969
41777W        W14103  24.041  38.842   2.308
41778W        W14104  27.161  16.781  12.574
41779W        W14105   4.820   9.295  13.040
41780W        W14106  16.801   9.183  12.411
41781W        W14107  20.229  36.926  10.917
41782W        W14108  35.883  40.404   4.271
41783W        W14109  16.263  22.998  12.353
41784W        W14110  23.180  38.359  13.464
41785W        W14111  33.593   1.936   9.938
41786W        W14112  24.132  24.512  14.797
41787W        W14113  24.116   6.268  10.627
41788W        W14114  28.467  41.888  13.411
41789W        W14115  22.056  42.004  12.381
41790W        W14116  25.999  13.290   4.301
41791W        W14117  15.192  13.767  11.927
41792W        W14118  16.193  40.323  14.918
41793W        W14119   0.965   0.750  14.008
41794W        W14120   6.237   5.223   3.246
41795W        W14121   5.705  13.786  13.897
41796W        W14122  44.829  21.177  14.970
41797W        W14123   6.688  22.605   1.369
41798W        W14124  43.410  14.153   0.314
41799W        W14125  31.412  42.299  12.967
41800W        W14126   4.850   1.246  13.307
41801W        W14127  18.707  24.063  14.450
41802W        W14128  15.315  17.303  14.301
41803W        W14129   4.443   3.411  12.484
41804W        W14130  44.259  16.648  12.493
41805W        W14131  29.973  14.664  10.428
41806W        W14132  37.961  44.396  14.376
41807W        W14133   9.657  28.176   4.798
41808W        W14134  31.932  26.663  12.360
41809W        W14135  21.081  34.001   2.331
41810W        W14136  21.730  36.971   4.686
41811W        W14137   0.258  37.480  13.389
41812W        W14138  42.896  22.996   0.790
41813W        W14139  42.031  10.176   3.806
41814W        W14140  34.918  35.049   3.709
41815W        W14141  29.433   7.677  12.018
41816W        W14142  30.584  10.242  11.914
41817W        W14143  26.494   0.489  12.559
41818W        W14144  19.776   9.826  12.349
41819W        W14145  11.674  14.176   2.315
41820W        W14146   5.726  19.263   4.763
41821W        W14147  35.041  16.112  13.018
41822W        W14148  35.370  24.654  11.867
41823W        W14149  31.985  22.527  13.872
41824W        W14150  39.003  43.874   4.715
41825W        W14151  22.105  32.915  10.944
41826W        W14152  38.899  22.572  11.432
41827W        W14153   9.182  35.952   2.700
41828W        W14154  18.164   6.860  12.077
41829W        W14155  18.171  36.926   0.812
41830W        W14156  14.604  14.284   0.796
41831W        W14157  31.933  20.630   0.261
41832W        W14158  41.524   9.324  12.405
41833W        W14159   1.401   9.310   1.360
41834W        W14160  27.031  14.800  14.281
41835W        W14161  28.070  19.758   1.376
41836W        W14162   8.725   7.897  13.391
41837W        W14163  16.712  16.796   1.279
41838W        W14164  19.765  37.531  11.921
41839W        W14165  30.471  43.972  10.423
41840W        W14166  17.733   5.922  12.371
41841W        W14167  33.422  24.639   2.256
41842W        W14168   7.349  19.591   3.691
41843W        W14169  12.201  28.158   2.249
41844W        W14170  36.524  29.609  10.421
41845W        W14171  20.564  11.732   3.205
41846W        W14172   9.742  24.714   0.411
41847W        W14173  31.421   9.877   0.841
41848W        W14174   1.403  37.568   2.205
41849W        W14175  10.810  31.405   2.252
41850W        W14176   4.238   5.382  12.856
41851W        W14177  35.438   5.689  10.899
41852W        W14178  14.619  38.517   4.312
41853W        W14179  14.634  37.036   1.913
41854W        W14180  39.948  32.948   1.698
41855W        W14181  28.948  16.594  11.119
41856W        W14182  43.275  20.093   1.931
41857W        W14183  44.505  25.694  11.904
41858W        W14184   9.171  32.418   3.699
41859W        W14185  38.945  27.160  10.903
41860W        W14186  31.494   9.222  13.385
41861W        W14187  18.749  37.902   0.764
41862W        W14188  35.004  18.623  12.930
41863W        W14189  17.779  31.612   3.157
41864W        W14190  19.214  13.285  12.374
41865W        W14191  14.731   9.823  12.481
41866W        W14192  32.434  26.103   3.816
41867W        W14193  41.331   7.861  12.014
41868W        W14194   3.828  31.039   0.886
41869W        W14195   5.713  39.399  12.847
41870W        W14196  36.487  23.186  13.513
41871W        W14197  43.971  25.537  13.320
41872W        W14198   1.313  42.885   0.242
41873W        W14199  34.089  21.716  14.799
41874W        W14200  28.583  15.292  13.941
41875W        W14201  19.776  16.753   0.343
41876W        W14202  22.670   0.833   4.694
41877W        W14203  13.121  21.099  14.314
41878W        W14204   0.769  42.870  12.377
41879W        W14205  25.481  43.869   0.863
41880W        W14206  31.586  42.483  11.075
41881W        W14207  26.134  15.820   5.671
41882W        W14208  22.627  16.181   1.907
41883W        W14209  18.765  26.959   4.690
41884W        W14210  12.311   1.872  13.508
41885W        W14211   1.453  24.579   4.721
41886W        W14212  44.973  17.724  14.370
41887W        W14213  33.457  18.174   5.104
41888W        W14214  17.257  43.770   3.840
41889W        W14215   3.266   3.836   1.929
41890W        W14216  35.478   4.729   0.912
41891W        W14217  31.942  11.177  10.057
41892W        W14218  13.211   3.884  14.410
41893W        W14219  43.443   1.975  13.442
41894W        W14220  18.185  16.258  14.442
41895W        W14221  21.545  23.080  11.427
41896W        W14222  26.687  12.630   0.418
41897W        W14223   3.823   3.381  14.967
41898W        W14224  39.458   9.377  13.509
41899W        W14225  10.315  19.550   0.305
41900W        W14226  39.025  37.462  10.907
41901W        W14227  11.637  21.021   0.896
41902W        W14228  37.458  19.265   1.816
41903W        W14229  18.729  35.504   2.697
41904W        W14230  15.147  25.611   3.359
41905W        W14231   3.296  38.912   0.288
41906W        W14232  17.156  31.090  13.880
41907W        W14233   3.939  44.825   1.348
41908W        W14234  16.662  14.104   4.654
41909W        W14235   0.818  31.502   2.708
41910W        W14236  21.120  35.575   1.233
41911W        W14237   4.737  20.545  11.384
41912W        W14238  21.048  11.816   1.704
41913W        W14239  10.267  14.286   2.662
41914W        W14240  35.581  12.142   5.112
41915W        W14241  11.341  29.470  10.491
41916W        W14242  44.399   5.345  12.461
41917W        W14243  35.941   3.364  14.456
41918W        W14244   5.926  25.503  10.616
41919W        W14245  31.062   7.288  12.924
41920W        W14246  22.639   8.251  13.389
41921W        W14247  42.818  39.358  11.598
41922W        W14248  39.840  44.275   3.650
41923W        W14249  25.112   3.390   0.315
41924W        W14250   2.929  18.780   0.403
41925W        W14251  21.131  33.985  11.396
41926W        W14252  16.626  32.937   3.720
41927W        W14253  39.440  38.915   0.387
41928W        W14254  18.056  37.342  12.407
41929W        W14255   2.411  31.582   1.729
41930W        W14256   6.705  42.943  11.569
41931W        W14257  19.281  26.536  12.530
41932W        W14258  35.472   0.328  12.577
41933W        W14259  30.457  35.034   3.710
41934W        W14260  34.601  34.521  13.012
41935W        W14261  38.910  42.393   3.326
41936W        W14262   3.936  42.953   0.916
41937W        W14263   2.879  16.622   1.780
41938W        W14264  43.475  23.239  11.484
41939W        W14265  18.152  22.567  11.452
41940W        W14266  10.322  15.637   2.742
41941W        W14267  17.123  12.174   0.866
41942W        W14268   7.226   6.350  11.996
41943W        W14269  19.695  33.090  10.579
41944W        W14270  25.092  30.160   1.725
41945W        W14271  16.182   1.263  14.974
41946W        W14272  12.272  34.902  10.149
41947W        W14273  18.750  17.109   9.977
41948W        W14274  10.687  28.936  12.938
41949W        W14275  15.326  20.591   4.810
41950W        W14276  11.718  32.135  13.952
41951W        W14277  25.005  31.567  14.882
41952W        W14278   2.777  29.500   0.839
41953W        W14279  26.080  43.847  11.030
41954W        W14280  44.347   0.446   4.337
41955W        W14281  19.159   8.355   1.309
41956W        W14282  18.773  43.441   1.837
41957W        W14283  31.061  38.556  11.385
41958W        W14284  44.960  27.070   4.228
41959W        W14285  11.182  25.691  13.996
41960W        W14286   8.223  26.092   2.379
41961W        W14287  42.389  29.108  13.481
41962W        W14288  33.948   5.905   4.166
41963W        W14289  17.595  14.146   1.447
41964W        W14290  28.440  33.517   3.266
41965W        W14291  11.705   3.235  11.908
41966W        W14292   8.342  43.445   0.869
41967W        W14293   8.308  17.162   3.204
41968W        W14294  24.134  35.021  14.782
41969W        W14295  37.063   9.687  12.945
41970W        W14296  13.611  38.417   1.899
41971W        W14297  16.090  23.705  11.904
41972W        W14298  44.268  31.988  13.456
41973W        W14299  39.031  32.903  12.501
41974W        W14300  44.463  22.145   3.687
41975W        W14301  40.353  29.132   1.447
41976W        W14302   4.834  41.919   3.267
41977W        W14303  26.146  32.498   4.151
41978W        W14304  34.375  11.820  10.616
41979W        W14305   1.245  29.615   3.754
41980W        W14306  30.587   7.271  13.013
41981W        W14307   0.854  21.258   3.845
41982W        W14308   4.381  29.927   1.899
41983W        W14309  44.457  14.633   1.745
41984W        W14310  44.919  27.993  14.837
41985W        W14311  32.988   0.482  12.950
41986W        W14312   5.207  19.078   4.838
41987W        W14313  28.442   7.787   3.700
41988W        W14314  27.639  21.034   2.879
41989W        W14315  11.141   0.420   0.809
41990W        W14316  33.503  31.598  14.922
41991W        W14317  44.298  17.135  10.968
41992W        W14318   0.284  16.278  11.383
41993W        W14319  22.220  12.335   2.284
41994W        W14320  29.509  32.421   3.738
41995W        W14321  16.580  37.885   1.405
41996W        W14322   8.878  13.331   4.761
41997W        W14323  41.026  15.122  11.543
41998W        W14324  14.128  28.564   0.384
41999W        W14325  40.419  38.345   2.824
42000W        W14326  33.079  21.671   0.341
42001W        W14327  18.557  22.727  14.393
42002W        W14328  23.650  31.931   0.322
42003W        W14329  30.105   5.798   0.738
42004W        W14330  38.558  33.936  14.494
42005W        W14331   3.418  10.179  12.446
42006W        W14332  19.684  27.511   1.876
42007W        W14333  28.656  19.228  10.573
42008W        W14334  43.773  26.000   3.386
42009W        W14335  23.056  15.236   1.783
42010W        W14336  25.581  38.431   4.600
42011W        W14337  17.721   1.734  10.980
42012W        W14338  12.634  22.219   3.280
42013W        W14339   3.247  10.733   2.244
42014W        W14340  36.417  37.530  11.914
42015W        W14341  35.878  40.414   0.780
42016W        W14342  13.210  17.241  10.963
42017W        W14343   8.843  40.359   5.147
42018W        W14344  44.924   3.459  13.473
42019W        W14345  42.020  20.153  14.473
42020W        W14346   2.245  25.094   2.386
42021W        W14347  33.973   8.894   1.697
42022W        W14348  25.558  31.941   0.303
42023W        W14349   3.797   5.331   1.902
42024W        W14350  12.775   5.914   4.818
42025W        W14351  35.499  27.051   2.388
42026W        W14352  37.962  10.724  14.352
42027W        W14353  23.652  36.489  12.075
42028W        W14354  36.003   5.318   2.276
42029W        W14355  20.631   7.821   4.125
42030W        W14356  37.382  14.108  11.540
42031W        W14357  29.149  43.872   0.749
42032W        W14358   2.732  37.830  13.967
42033W        W14359  16.259  32.031  10.071
42034W        W14360  13.708  16.665   3.821
42035W        W14361  10.644  28.133  14.319
42036W        W14362   6.779  17.783  10.939
42037W        W14363  34.545  16.579  10.621
42038W        W14364   6.209  42.845  14.927
42039W        W14365   6.888  21.624   0.869
42040W        W14366  24.557  33.989   2.307
42041W        W14367  42.926  31.133   2.766
42042W        W14368  34.438  34.983  10.897
42043W        W14369  37.349  41.862  12.497
42044W        W14370  18.740  29.657   4.252
42045W        W14371  13.187  16.080  11.439
42046W        W14372   9.700   6.246   2.673
42047W        W14373   7.389  32.571   2.704
42048W        W14374   0.868   9.660   4.640
42049W        W14375  42.358  15.757  11.612
42050W        W14376   5.423  15.784  10.628
42051W        W14377  31.508  28.013  10.622
42052W        W14378  40.031   1.432  12.056
42053W        W14379  34.868  27.962   3.793
42054W        W14380  34.069  34.082  13.546
42055W        W14381  39.327  23.628  10.463
42056W        W14382  39.505  22.692  14.343
42057W        W14383  22.712   6.687  12.843
42058W        W14384   8.796   5.688   2.386
42059W        W14385  22.638  36.440   2.754
42060W        W14386  42.873  11.235  11.577
42061W        W14387  18.767  38.888  10.044
42062W        W14388   1.850  21.529  10.531
42063W        W14389  38.995   8.291  11.381
42064W        W14390  18.587  44.415   0.329
42065W        W14391  30.456   6.276   3.852
42066W        W14392  28.576  36.398  14.771
42067W        W14393  29.174  36.483   1.367
42068W        W14394  23.540  11.265   4.267
42069W        W14395  44.834  39.317  14.515
42070W        W14396   8.887  27.621  14.445
42071W        W14397  12.215   7.675   0.428
42072W        W14398  33.466   5.296  12.963
42073W        W14399  19.047  18.069   3.854
42074W        W14400  15.198  17.306  10.507
42075W        W14401  24.117  33.569  13.325
42076W        W14402  40.490  29.521  14.468
42077W        W14403  10.298  42.921   0.780
42078W        W14404  17.167  19.576   4.621
42079W        W14405  15.720   6.692  13.520
42080W        W14406  15.777  29.450   5.178
42081W        W14407  23.688  32.920   1.750
42082W        W14408  40.805  12.191  12.886
42083W        W14409  30.553  14.159   2.411
42084W        W14410  41.492   0.894   5.170
42085W        W14411  27.586  16.301   0.460
42086W        W14412  26.671   0.271   0.456
42087W        W14413  16.601   6.211  13.031
42088W        W14414  35.895  40.478  14.473
42089W        W14415  20.744  33.114   2.412
42090W        W14416   3.932  19.698  13.975
42091W        W14417  44.460  36.940  14.280
42092W        W14418  12.636  39.049  14.774
42093W        W14419  32.600  23.713   3.177
42094W        W14420  19.094   0.407  14.966
42095W        W14421  24.706  41.536   2.747
42096W        W14422  29.564  11.162  13.821
42097W        W14423  35.067  28.557   2.697
42098W        W14424   0.351  17.179  13.915
42099W        W14425  11.799  28.483  13.027
42100W        W14426  42.427  35.577   1.740
42101W        W14427  28.669  28.451   9.975
42102W        W14428  36.453   3.805  12.864
42103W        W14429  28.017  34.534  14.311
42104W        W14430  34.968  39.014   1.358
42105W        W14431  22.083  15.637   1.846
42106W        W14432  43.992  41.375  11.591
42107W        W14433  17.711  42.427  12.385
42108W        W14434  39.950  19.269   3.826
42109W        W14435  22.693  26.692   4.597
42110W        W14436   6.899  26.135   1.283
42111W        W14437  39.921  42.775  14.772
42112W        W14438  28.655  40.321   1.412
42113W        W14439   5.722  34.531  13.471
42114W        W14440   3.934  41.976  14.876
42115W        W14441   3.843  24.006   4.227
42116W        W14442  15.617  12.642  12.479
42117W        W14443  11.177  14.242   2.361
42118W        W14444  38.055  32.629  14.380
42119W        W14445   9.366  26.033   1.748
42120W        W14446  41.905  39.350   0.320
42121W        W14447  22.103  33.501   0.788
42122W        W14448  20.549  40.494   2.747
42123W        W14449   4.352  42.844  11.592
42124W        W14450   0.972  23.044   0.363
42125W        W14451  42.849  37.429  11.465
42126W        W14452  22.551  23.607  14.353
42127W        W14453  11.863   3.799  11.950
42128W        W14454   8.894  17.793  13.532
42129W        W14455   5.775   0.430   2.417
42130W        W14456  33.114   3.232  12.013
42131W        W14457  31.602   7.702  11.025
42132W        W14458   6.789   5.268  14.415
42133W        W14459  18.713   3.407   3.181
42134W        W14460  24.146  43.788  11.994
42135W        W14461  21.683  37.006  10.474
42136W        W14462  14.812   9.810   2.692
42137W        W14463  20.046   9.184  14.390
42138W        W14464  21.561  26.509   4.159
42139W        W14465  37.957   2.255   3.692
42140W        W14466  16.227  10.319  13.833
42141W        W14467  19.239  33.454  10.992
42142W        W14468  34.986  22.540  14.873
42143W        W14469  37.516  28.516  10.569
42144W        W14470  26.142  34.435  10.937
42145W        W14471  12.285  34.004   5.308
42146W        W14472  27.945  12.856  13.870
42147W        W14473   8.268  20.680   0.866
42148W        W14474  44.997  28.130   3.640
42149W        W14475  30.521  22.242   3.319
42150W        W14476  30.011  34.868   3.800
42151W        W14477   6.290   9.878  13.368
42152W        W14478   4.212  32.111   0.772
42153W        W14479  35.081  44.937  12.361
42154W        W14480   0.826   7.296   1.822
42155W        W14481   5.277   6.827  12.935
42156W        W14482  24.202  30.518  10.584
42157W        W14483  28.087  42.463   1.292
42158W        W14484  40.024  21.061   0.852
42159W        W14485   6.809  26.074   1.835
42160W        W14486   2.323  40.360   3.260
42161W        W14487  22.095   5.927   1.280
42162W        W14488  27.607  17.671   1.709
42163W        W14489  15.214  18.241  14.903
42164W        W14490  23.058   9.280  13.441
42165W        W14491  30.561  24.041  14.001
42166W        W14492  44.428  15.705  11.442
42167W        W14493  33.523  19.703  14.489
42168W        W14494  41.875  44.927   3.149
42169W        W14495   4.323  32.543   4.835
42170W        W14496  27.162  16.744   0.843
42171W        W14497  13.761  17.160   3.700
42172W        W14498  25.508  18.185  11.975
42173W        W14499  31.936  44.445   2.819
42174W        W14500  32.041  24.107   4.352
42175W        W14501  30.487  18.551   1.216
42176W        W14502  36.469  40.863   3.208
42177W        W14503  34.970  30.520  11.454
42178W        W14504  17.273   0.376  11.549
42179W        W14505  31.602   7.784  12.867
42180W        W14506  31.494  42.927   0.460
42181W        W14507   6.213  26.006   1.889
42182W        W14508  40.336  34.461  14.365
42183W        W14509  39.846  35.969   0.874
42184W        W14510   9.209  12.758   0.948
42185W        W14511  19.669  21.714  14.812
42186W        W14512   1.482  20.271  12.001
42187W        W14513   6.819  40.897  12.952
42188W        W14514  33.117   7.697  13.907
42189W        W14515  12.723  40.861  14.866
42190W        W14516  29.425   1.257   3.154
42191W        W14517  10.276   0.316   2.823
42192W        W14518  15.237   4.875  13.462
42193W        W14519  42.905   5.746  11.858
42194W        W14520  17.089   3.248   3.800
42195W        W14521  19.689  35.908   0.942
42196W        W14522   7.345   5.329  11.555
42197W        W14523   2.405  22.706   4.313
42198W        W14524  18.130  23.505   2.715
42199W        W14525  29.544  22.587   0.435
42200W        W14526  26.074  17.202   2.241
42201W        W14527  14.687  28.436  12.536
42202W        W14528  43.439  15.224   3.766
42203W        W14529  39.424   1.810   0.384
42204W        W14530   2.834  19.261   1.303
42205W        W14531  13.791  12.637   0.743
42206W        W14532   9.198   6.872   1.258
42207W        W14533  41.976   3.389   0.883
42208W        W14534  36.042   0.926  10.624
42209W        W14535  43.917  39.368  12.440
42210W        W14536  29.517   1.293   4.321
42211W        W14537  24.080  14.789   0.838
42212W        W14538  20.231  29.496  12.870
42213W        W14539   2.757  19.611  11.526
42214W        W14540  27.992  37.033   1.266
42215W        W14541  15.109  12.854   0.754
42216W        W14542   8.664   3.239  12.897
42217W        W14543  16.692  44.865   1.782
42218W        W14544  29.061  39.433  12.063
42219W        W14545  42.497   3.303   1.889
42220W        W14546   2.394  17.635   4.824
42221W        W14547   7.256  12.163  14.953
42222W        W14548  23.059  19.272   4.314
42223W        W14549  21.051  18.664  14.968
42224W        W14550  38.353  43.811   3.344
42225W        W14551   1.944  14.666  13.516
42226W        W14552  15.120  26.580   2.384
42227W        W14553  25.049  18.100   3.857
42228W        W14554   1.337   5.891   0.789
42229W        W14555  12.640  21.179   3.669
42230W        W14556  21.210  10.329  11.912
42231W        W14557  41.822  40.003   3.734
42232W        W14558  14.622  34.406  10.962
42233W        W14559  31.447  21.130   4.268
42234W        W14560  40.012  19.606  13.909
42235W        W14561  17.634   7.394  14.331
42236W        W14562  13.341  35.036   3.295
42237W        W14563  36.511  10.186   3.633
42238W        W14564   1.975  39.378   1.269
42239W        W14565  44.006  36.442   2.247
42240W        W14566   1.332  42.915   0.797
42241W        W14567  10.228   8.894   5.274
42242W        W14568  25.130  27.455   0.772
42243W        W14569  43.771   2.431   4.158
42244W        W14570  32.025  44.485  11.488
42245W        W14571   5.754  14.208   3.194
42246W        W14572  30.958  42.993   4.621
42247W        W14573  22.213  14.661   4.132
42248W        W14574  29.011   3.322   2.284
42249W        W14575  23.086  21.536  12.503
42250W        W14576  16.092  24.722   3.782
42251W        W14577  26.031  30.659   0.398
42252W        W14578   4.758  10.847  13.446
42253W        W14579  36.872   4.340   0.332
42254W        W14580   6.739  43.493  11.941
42255W        W14581  34.445  29.162  14.832
42256W        W14582   7.837  43.986   1.721
42257W        W14583   8.892  32.526  11.856
42258W        W14584  44.979  32.027  13.536
42259W        W14585  26.146  43.479  11.119
42260W        W14586   4.720  36.466   1.425
42261W        W14587  12.798  43.281  14.312
42262W        W14588  25.211  35.578  13.893
42263W        W14589  24.525   6.250   2.818
42264W        W14590   4.222  31.059  14.366
42265W        W14591  25.080   1.967  12.946
42266W        W14592  33.451  43.422  10.092
42267W        W14593  22.630  32.635   2.703
42268W        W14594  24.479  38.518   5.748
42269W        W14595  22.041  13.797  12.047
42270W        W14596  25.571  33.099  11.412
42271W        W14597  27.627  17.204  12.363
42272W        W14598  43.973   2.922   4.790
42273W        W14599  38.998  32.602   0.753
42274W        W14600  25.003  38.029  13.327
42275W        W14601  31.113  42.522   2.390
42276W        W14602  43.323  42.855  14.977
42277W        W14603   2.920  32.969  13.404
42278W        W14604  27.532   1.864  11.576
42279W        W14605  24.116  12.835   3.260
42280W        W14606  13.711  35.859   2.827
42281W        W14607   8.367  19.566  12.353
42282W        W14608  35.912  31.455  14.337
42283W        W14609   4.407  43.382  11.455
42284W        W14610  10.696  37.080   0.437
42285W        W14611  42.026   1.919   2.345
42286W        W14612   4.262  24.987   2.407
42287W        W14613  10.213  10.678  12.869
42288W        W14614  23.661  15.178  10.068
42289W        W14615  30.483   2.403   2.896
42290W        W14616  32.471  18.220   4.260
42291W        W14617  29.664  24.186  13.973
42292W        W14618  10.303  27.158  13.048
42293W        W14619  25.022   4.833   0.281
42294W        W14620  39.497  30.010  11.947
42295W        W14621  36.058  19.270   1.866
42296W        W14622  17.111  33.618  11.380
42297W        W14623  22.235  22.747  10.409
42298W        W14624  32.933  17.104   0.957
42299W        W14625  42.883  32.926  14.809
42300W        W14626  34.005  27.972  13.508
42301W        W14627   1.417   0.467   4.133
42302W        W14628  26.593  14.140   1.251
42303W        W14629  25.642  36.994  12.445
42304W        W14630  21.681   3.924  10.554
42305W        W14631  32.972  22.112  11.976
42306W        W14632   1.771   4.704   3.243
42307W        W14633   7.237   1.794   4.613
42308W        W14634  43.974  17.760  10.938
42309W        W14635  10.856   4.422   1.841
42310W        W14636  22.584  14.628   0.384
42311W        W14637  21.215  18.155   1.804
42312W        W14638  33.553  43.975   1.292
42313W        W14639  26.682  27.590  12.014
42314W        W14640  37.539  33.440   5.282
42315W        W14641  17.632  28.120   2.400
42316W        W14642  42.855  29.489  11.446
42317W        W14643   0.781  29.027   2.743
42318W        W14644   5.377  15.092   2.326
42319W        W14645  15.114  29.661  10.580
42320W        W14646  34.962  37.391  10.506
42321W        W14647   9.764  18.221   3.737
42322W        W14648  38.825   5.193   4.334
42323W        W14649  14.333   4.362   2.702
42324W        W14650  16.314  42.875   1.890
42325W        W14651   4.443  29.459  10.557
42326W        W14652   2.966  40.494   1.443
42327W        W14653  21.157  36.858   9.953
42328W        W14654  12.810   2.755   1.360
42329W        W14655  31.413   8.769   1.300
42330W        W14656  19.072  20.091   3.335
42331W        W14657   7.202  25.578  14.811
42332W        W14658  31.065  26.677   3.678
42333W        W14659  11.683  40.306   2.900
42334W        W14660  12.677  18.226  13.043
42335W        W14661  44.769  34.468   4.678
42336W        W14662  18.050   7.889  11.916
42337W        W14663  13.746  25.472   5.291
42338W        W14664  26.090  24.501  14.276
42339W        W14665  44.478  19.231   0.455
42340W        W14666   4.781  44.475  11.060
42341W        W14667  36.081  20.635  13.827
42342W        W14668  37.991   8.812   0.248
42343W        W14669  43.828  21.176   2.230
42344W        W14670  20.580  32.544   1.448
42345W        W14671   4.807  13.786  14.369
42346W        W14672  20.723  37.031   4.121
42347W        W14673  17.193  35.027  14.873
42348W        W14674   8.778  43.797  11.104
42349W        W14675  30.426  19.055   0.294
42350W        W14676  15.173  37.972  14.811
42351W        W14677  21.613  35.906  11.125
42352W        W14678  39.856  28.647   4.737
42353W        W14679  23.586  14.704  10.588
42354W        W14680  40.392   3.278  13.544
42355W        W14681  39.384  38.421  10.435
42356W        W14682  36.555  33.486   9.477
42357W        W14683  35.602  13.264   3.254
42358W        W14684  13.313  39.514  12.454
42359W        W14685   4.845  25.073  13.832
42360W        W14686  33.977  13.170  11.413
42361W        W14687  42.466   0.486   3.247
42362W        W14688   6.292   3.862   4.153
42363W        W14689  16.675  12.143   1.833
42364W        W14690   0.970  35.551   3.658
42365W        W14691  14.208  35.043   2.256
42366W        W14692  39.858  13.774  12.076
42367W        W14693  12.673   3.747   0.302
42368W        W14694   2.937   3.321   5.245
42369W        W14695   6.223  23.085   0.357
42370W        W14696  11.226  39.506   0.376
42371W        W14697  28.624  22.217   2.289
42372W        W14698  21.728   9.864  12.984
42373W        W14699  42.935  37.940   3.289
42374W        W14700  27.538  42.968  13.410
42375W        W14701  21.521  32.928   0.740
42376W        W14702  18.292  35.023   3.777
42377W        W14703  32.020  35.373   4.274
42378W        W14704  36.846  27.026   2.876
42379W        W14705  31.494   3.714  13.868
42380W        W14706  34.376  37.854   0.244
42381W        W14707  37.471   9.826  12.884
42382W        W14708  26.617  10.294  13.916
42383W        W14709  35.382   4.423   4.626
42384W        W14710   8.727   6.803  13.866
42385W        W14711  33.414  43.842   2.248
42386W        W14712  28.932  22.138  14.901
42387W        W14713   7.334   2.764  11.462
42388W        W14714   0.811  31.957  13.862
42389W        W14715  15.225   4.361   4.813
42390W        W14716   7.829   9.751  10.617
42391W        W14717  26.002   7.799  12.936
42392W        W14718  43.374  42.000  13.492
42393W        W14719  35.950  33.949   1.349
42394W        W14720  19.689  24.064   1.220
42395W        W14721   9.327  19.197   2.347
42396W        W14722  10.633  25.163  10.411
42397W        W14723  28.090  10.366   1.432
42398W        W14724  14.659  22.632   4.331
42399W        W14725   2.458   5.800   1.822
42400W        W14726  36.080   5.403   0.887
42401W        W14727  15.577   1.410   0.426
42402W        W14728  34.534  13.123  13.817
42403W        W14729   9.218  31.535  12.026
42404W        W14730  27.054   1.414  10.622
42405W        W14731  24.016  17.214  11.458
42406W        W14732  43.508  31.918  14.325
42407W        W14733  38.043  32.030  13.507
42408W        W14734  26.655  32.511  11.540
42409W        W14735  26.082  18.565  13.925
42410W        W14736  32.973  41.005  12.859
42411W        W14737  25.467  29.507  14.032
42412W        W14738  16.697  24.625   1.841
42413W        W14739  28.074  38.564  12.859
42414W        W14740  38.014  10.236   0.957
42415W        W14741  21.745  11.228  12.995
42416W        W14742  13.805  32.963   1.226
42417W        W14743  12.644  36.038  11.552
42418W        W14744  15.147  25.550   1.813
42419W        W14745  11.788  20.259  14.468
42420W        W14746   8.248  31.979  13.423
42421W        W14747  26.087  11.285   4.700
42422W        W14748  33.552  25.528  10.542
42423W        W14749  26.200   6.383  13.060
42424W        W14750  40.479  42.964  10.413
42425W        W14751  20.063  20.041   3.846
42426W        W14752   0.282  35.368   2.819
42427W        W14753  42.423  19.280  13.487
42428W        W14754  12.647   3.349   2.667
42429W        W14755  10.650   1.245   4.166
42430W        W14756   1.777  18.245   2.311
42431W        W14757  36.557   2.394   4.345
42432W        W14758  22.007  38.845   4.215
42433W        W14759  38.866  29.479   4.160
42434W        W14760  43.893   8.731   1.834
42435W        W14761  36.990   9.768   1.401
42436W        W14762   1.414  20.696   2.707
42437W        W14763   9.339  44.279  14.330
42438W        W14764  19.107  15.654   4.733
42439W        W14765  34.573  42.387  14.907
42440W        W14766  22.045   5.743  14.351
42441W        W14767  29.073  36.549  11.011
42442W        W14768   7.276  37.006   0.839
42443W        W14769  32.096  30.049   1.874
42444W        W14770  44.412  17.225   2.739
42445W        W14771  18.648  27.622  12.900
42446W        W14772  16.636  13.330  13.044
42447W        W14773  34.472   2.779   3.782
42448W        W14774  40.351  29.002   3.716
42449W        W14775  16.647  30.918  12.020
42450W        W14776  37.075  23.717   0.862
42451W        W14777   1.775  40.866   4.778
42452W        W14778   6.330  32.139   3.855
42453W        W14779   2.770  26.586   1.445
42454W        W14780  15.818   7.412  10.100
42455W        W14781  29.058  42.412   2.215
42456W        W14782  19.155  25.196  11.875
42457W        W14783  28.970  14.710  10.887
42458W        W14784  33.382  37.442  10.979
42459W        W14785  24.722  17.569  12.529
42460W        W14786  42.800  38.359   2.783
42461W        W14787  13.124  27.014   4.677
42462W        W14788   4.926  27.032   4.166
42463W        W14789  36.463  28.120   4.726
42464W        W14790  18.059  29.579  10.419
42465W        W14791  23.588  38.329   1.448
42466W        W14792  41.000  32.026  12.017
42467W        W14793  43.506  44.758   1.740
42468W        W14794  32.966  19.100  14.280
42469W        W14795   0.759  40.841   1.878
42470W        W14796   0.835  33.618   1.367
42471W        W14797  37.863  32.891   1.826
42472W        W14798  39.010  44.478   3.810
42473W        W14799  31.982  17.731   1.290
42474W        W14800  35.984  27.624   1.330
42475W        W14801  34.069  17.296  14.446
42476W        W14802   3.268  23.222  12.448
42477W        W14803  38.942  38.436   4.341
42478W        W14804  28.151  40.370  13.307
42479W        W14805  13.642  43.287   2.735
42480W        W14806  21.088  22.235   3.300
42481W        W14807  30.539   8.264  12.399
42482W        W14808  32.895  32.108   3.787
42483W        W14809  35.515  12.178  12.018
42484W        W14810   8.264  31.506  12.474
42485W        W14811  25.613   8.235  14.913
42486W        W14812  39.045  20.767  13.820
42487W        W14813   8.844  30.447   3.633
42488W        W14814  29.526   4.390   1.280
42489W        W14815   8.740   9.779   4.830
42490W        W14816  28.677  40.972  14.305
42491W        W14817  19.650  36.069  10.633
42492W        W14818  20.764  30.587   2.872
42493W        W14819   1.455  26.518   3.674
42494W        W14820  23.182  42.429   1.401
42495W        W14821  41.491   9.202  14.959
42496W        W14822  25.148  16.180  12.402
42497W        W14823  17.657  26.016   3.245
42498W        W14824  32.952  10.637   1.332
42499W        W14825   4.863  15.304   4.781
42500W        W14826   7.335  11.369  14.410
42501W        W14827  28.070   2.879   1.294
42502W        W14828   4.814  36.893  14.835
42503W        W14829  25.163  43.780  14.335
42504W        W14830  38.374   0.909   4.832
42505W        W14831  32.616  33.982  12.869
42506W        W14832  33.482  16.736  11.527
42507W        W14833  38.486  38.862   2.893
42508W        W14834  38.498  16.710  12.006
42509W        W14835  27.140   5.725   4.248
42510W        W14836   3.762  41.827  11.503
42511W        W14837  36.010   4.320  13.823
42512W        W14838  10.310   1.372  10.619
42513W        W14839  39.901  44.822  11.927
42514W        W14840   3.231   5.263   3.189
42515W        W14841  23.034  18.572  12.520
42516W        W14842  18.779   3.814  12.430
42517W        W14843  29.000  31.015   2.698
42518W        W14844  15.818  44.426  11.439
42519W        W14845   7.369   6.825   4.235
42520W        W14846  15.600   2.417  11.875
42521W        W14847   2.743  15.279   3.632
42522W        W14848   8.265  10.188   3.760
42523W        W14849  37.062   5.352  12.572
42524W        W14850  28.940  44.337   1.419
42525W        W14851  23.526  24.196  12.885
42526W        W14852  19.679  26.499   1.785
42527W        W14853  44.453  12.184   4.262
42528W        W14854   5.743  30.592  14.762
42529W        W14855  20.175   9.219   3.792
42530W        W14856  18.227  25.090  10.944
42531W        W14857  37.843  12.691  12.027
42532W        W14858   8.754   3.263   2.383
42533W        W14859  18.140  20.077   4.746
42534W        W14860  28.444  15.131  11.398
42535W        W14861  37.052  28.576   2.717
42536W        W14862  24.668   0.848  13.532
42537W        W14863  14.273   1.241  10.931
42538W        W14864  16.099  34.887   3.228
42539W        W14865  12.823  15.757  12.928
42540W        W14866  41.430  36.383   3.696
42541W        W14867  21.511  35.946   5.297
42542W        W14868  38.362  43.999   1.223
42543W        W14869  14.663   6.223   2.275
42544W        W14870  26.204   6.410  12.384
42545W        W14871  36.535   5.323   0.250
42546W        W14872  31.943  44.284  13.468
42547W        W14873  26.138  21.678  13.926
42548W        W14874  37.575   8.241  14.486
42549W        W14875  21.078   2.724  13.348
42550W        W14876   6.710  40.343   2.398
42551W        W14877  38.430  32.886  12.019
42552W        W14878  14.788  11.686  14.311
42553W        W14879   7.861  40.356  14.768
42554W        W14880   9.325  42.007   1.429
42555W        W14881  29.992  14.208  11.021
42556W        W14882  30.652  41.021  11.972
42557W        W14883  20.584  29.470  13.493
42558W        W14884  34.586   1.815  14.403
42559W        W14885  30.082  22.532   3.200
42560W        W14886   1.873  29.495  14.978
42561W        W14887  10.318  23.100  10.588
42562W        W14888  23.115  27.061   4.141
42563W        W14889  40.818   8.306  13.466
42564W        W14890   0.385  24.046   4.644
42565W        W14891  28.480  27.944   0.358
42566W        W14892   2.345   7.307  14.332
42567W        W14893  38.880  10.241   1.929
42568W        W14894  26.660  10.293  10.557
42569W        W14895  23.003  19.697  11.483
42570W        W14896   1.737  29.488  11.932
42571W        W14897  23.074  17.769  11.605
42572W        W14898  28.641  27.033   9.948
42573W        W14899  39.038  31.983   3.211
42574W        W14900  21.212  34.377  11.954
42575W        W14901  35.026  30.979  10.526
42576W        W14902  33.960  10.343   3.234
42577W        W14903  34.550   5.402  14.994
42578W        W14904  22.654  29.045  14.406
42579W        W14905   6.394  43.438  13.861
42580W        W14906  31.516   2.796   3.313
42581W        W14907  11.769   0.293   2.401
42582W        W14908  42.019  20.710   4.708
42583W        W14909  21.234   5.791  11.611
42584W        W14910  14.202  34.061   5.291
42585W        W14911  17.275  18.101  14.458
42586W        W14912  10.811  33.957   2.320
42587W        W14913  22.205  42.479   2.870
42588W        W14914   0.792  44.877   4.136
42589W        W14915  16.684   9.663   2.412
42590W        W14916  21.020  17.150   1.776
42591W        W14917   1.932  22.527   4.764
42592W        W14918  16.108   3.456   3.241
42593W        W14919  31.495   9.752  14.979
42594W        W14920   3.763  19.264   2.810
42595W        W14921  28.060   8.389   0.766
42596W        W14922   8.174  36.992   1.935
42597W        W14923   8.177  19.156  13.528
42598W        W14924  28.116  35.419   0.790
42599W        W14925  40.329  18.709  11.050
42600W        W14926  31.456   3.931   0.457
42601W        W14927  11.814  20.768   3.749
42602W        W14928  33.461   2.356   2.352
42603W        W14929   9.826  25.602  14.967
42604W        W14930  25.144  19.574   1.900
42605W        W14931  18.633  25.110  14.025
42606W        W14932   3.779  22.595  13.982
42607W        W14933  21.038  34.071   0.750
42608W        W14934   7.294  42.326  13.400
42609W        W14935  44.869   9.800   1.436
42610W        W14936  41.494   5.251   1.357
42611W        W14937  36.891  10.297   3.171
42612W        W14938  26.556   2.880   2.751
42613W        W14939  13.304   5.279   4.814
42614W        W14940  36.562   5.362  13.394
42615W        W14941  42.951   4.254  14.760
42616W        W14942   9.797  26.024  14.491
42617W        W14943   5.927  17.637  14.017
42618W        W14944  38.460  34.037  11.898
42619W        W14945   6.798  30.617  12.569
42620W        W14946  26.700  29.665   4.696
42621W        W14947   0.844   4.802   0.300
42622W        W14948  21.539  18.623   4.614
42623W        W14949  30.001  38.391  12.433
42624W        W14950  23.604  28.587  13.814
42625W        W14951  13.284  16.238  13.545
42626W        W14952   4.752  10.824  12.568
42627W        W14953  23.667  21.511  10.602
42628W        W14954  17.659  35.907  13.531
42629W        W14955   8.183  41.818   3.806
42630W        W14956  38.997  42.782   3.197
42631W        W14957  38.516  10.814  13.946
42632W        W14958   2.869  12.278  14.951
42633W        W14959  24.126  24.681   0.906
42634W        W14960   1.794  14.639   3.282
42635W        W14961  31.414   3.332   1.757
42636W        W14962  24.712  13.339  12.576
42637W        W14963  17.192  22.097  11.890
42638W        W14964  35.008  26.518  14.790
42639W        W14965  33.003  23.628   0.447
42640W        W14966  28.004  31.997  11.081
42641W        W14967   4.311  24.112   2.214
42642W        W14968  23.042  17.150  10.499
42643W        W14969  22.714  39.451   4.705
42644W        W14970  43.398  29.571  11.608
42645W        W14971  17.099  28.183   0.299
42646W        W14972  18.098  19.698  13.925
42647W        W14973  42.436  30.059   3.795
42648W        W14974  16.580   6.863   3.263
42649W        W14975  42.345  44.952   4.674
42650W        W14976  17.579  32.559   3.300
42651W        W14977  33.482  39.912  14.468
42652W        W14978  33.120  40.823  11.923
42653W        W14979  39.811  38.441  13.353
42654W        W14980  11.214   5.317   4.824
42655W        W14981  20.110  26.643   3.774
42656W        W14982  32.458   6.342  10.932
42657W        W14983  36.465  33.034   2.892
42658W        W14984  23.521  40.889   0.887
42659W        W14985  34.454   1.908  10.541
42660W        W14986   0.415   7.265  12.959
42661W        W14987  35.358   0.296  12.068
42662W        W14988  35.361  37.964  12.072
42663W        W14989  26.639  43.310  11.491
42664W        W14990  35.859   0.335   0.916
42665W        W14991   4.354   6.344   0.313
42666W        W14992  16.094   0.403  11.459
42667W        W14993  22.112   9.216  13.506
42668W        W14994  29.983  26.126  10.017
42669W        W14995  26.991  38.841  14.939
42670W        W14996  22.090  18.100  10.906
42671W        W14997   6.878  34.079   1.747
42672W        W14998  44.835  11.630  10.476
42673W        W14999   6.707  41.792   3.206
42674W        W15000  22.742  26.500   0.395
42675W        W15001   5.770  31.025   4.699
42676W        W15002  15.635  39.060  12.485
42677W        W15003   5.740   2.722  14.012
42678W        W15004  31.074  22.725   4.742
42679W        W15005  34.993  44.306   3.239
42680W        W15006  33.559   3.255  14.972
42681W        W15007  14.327  44.504   0.849
42682W        W15008  17.761  25.202   1.402
42683W        W15009  43.775  44.789   2.251
42684W        W15010  24.034  35.453  12.432
42685W        W15011  16.777  33.921  11.953
42686W        W15012   3.454  22.723   2.313
42687W        W15013  34.925  22.040   4.642
42688W        W15014  38.039  20.592  14.985
42689W        W15015  35.038  15.262   4.290
42690W        W15016  42.840   9.844  11.592
42691W        W15017   7.218  38.330  11.570
42692W        W15018   9.694  35.599  10.903
42693W        W15019  40.399  13.783   3.371
42694W        W15020  29.055  37.410  11.107
42695W        W15021  28.612   0.317  12.901
42696W        W15022  16.720   5.269   3.650
42697W        W15023  11.248   4.449  12.519
42698W        W15024  31.989  26.642   0.277
42699W        W15025   3.446   4.335  10.979
42700W        W15026  41.520  37.879  10.417
42701W        W15027   9.364  16.695   0.964
42702W        W15028  26.498  31.610   3.235
42703W        W15029  10.178  14.590  13.473
42704W        W15030  40.413  41.429   0.448
42705W        W15031   1.956  28.603  14.988
42706W        W15032  11.132   5.882   3.731
42707W        W15033   0.284  12.211   2.250
42708W        W15034  17.237  17.259  11.881
42709W        W15035  38.035  38.976  13.537
42710W        W15036  23.595   6.351  14.339
42711W        W15037  13.283  43.377  14.942
42712W        W15038  23.175  41.870   2.376
42713W        W15039  37.063  21.238   0.757
42714W        W15040   4.413  21.093  12.011
42715W        W15041  38.405   1.926  10.914
42716W        W15042  10.632  41.786   3.206
42717W        W15043  32.067  35.072  10.631
42718W        W15044   1.354  30.025   2.844
42719W        W15045  28.517  26.513   2.314
42720W        W15046   4.901  11.862   1.770
42721W        W15047   7.867  35.053  14.898
42722W        W15048  35.490   0.483  13.416
42723W        W15049  25.477   5.201   4.772
42724W        W15050  40.520  22.591   5.088
42725W        W15051  33.495  41.953   1.922
42726W        W15052  12.778  35.873  10.582
42727W        W15053  21.180  20.270  11.557
42728W        W15054  33.911   3.296  10.432
42729W        W15055  19.776  12.230  12.885
42730W        W15056  21.595  16.238   2.680
42731W        W15057   8.334  24.709   4.153
42732W        W15058  14.317  12.833  14.489
42733W        W15059   5.912  44.925   1.801
42734W        W15060  13.681  30.569   3.861
42735W        W15061  40.486  34.932   4.659
42736W        W15062  44.432  44.974  11.528
42737W        W15063  41.435  14.272   3.733
42738W        W15064  33.093  26.628  13.876
42739W        W15065  22.060   6.298  12.919
42740W        W15066   3.354  36.965  11.098
42741W        W15067   8.279  33.955   0.321
42742W        W15068  20.145   8.835   2.838
42743W        W15069   2.804   1.871  10.609
42744W        W15070  39.979  35.537  13.959
42745W        W15071   1.913  17.616  11.499
42746W        W15072  30.062  15.633  14.498
42747W        W15073  24.089  18.193   2.842
42748W        W15074  14.778  28.168  10.898
42749W        W15075  35.560  25.553  13.933
42750W        W15076  10.321  20.168   4.174
42751W        W15077  37.992  29.043  14.399
42752W        W15078  26.628  34.449   0.371
42753W        W15079   7.776  39.875   4.736
42754W        W15080   3.757   4.279  12.825
42755W        W15081  37.569  16.225  13.824
42756W        W15082  30.598  12.707   2.181
42757W        W15083  24.084   9.237   1.288
42758W        W15084  41.510  20.527   1.905
42759W        W15085  42.449  38.370  14.435
42760W        W15086  25.596  38.979  14.904
42761W        W15087  34.603  30.158  13.941
42762W        W15088  42.947  40.403  14.393
42763W        W15089   3.816  36.590   0.335
42764W        W15090   2.241  42.357  10.411
42765W        W15091  42.959  42.911  14.776
42766W        W15092  23.064  31.909  14.886
42767W        W15093  23.625   3.233   1.280
42768W        W15094  42.973   0.263  13.848
42769W        W15095   6.217  15.310   0.914
42770W        W15096  35.024  35.567   9.573
42771W        W15097  11.750  26.542   5.101
42772W        W15098   3.746  22.088  12.946
42773W        W15099  44.955  23.085  12.407
42774W        W15100  26.539  35.367  14.274
42775W        W15101  35.977  20.200  14.491
42776W        W15102   9.881  35.482  11.500
42777W        W15103  42.380  10.377   2.333
42778W        W15104  32.512  37.869   4.187
42779W        W15105  31.083  11.807  13.497
42780W        W15106   3.902  19.651   1.722
42781W        W15107   9.256  15.300   1.261
42782W        W15108  27.120   2.246   2.298
42783W        W15109   0.355  38.953  12.885
42784W        W15110  16.804  39.338   3.672
42785W        W15111  42.449   2.405  13.528
42786W        W15112  39.861  17.749   3.830
42787W        W15113  42.839   2.730  13.923
42788W        W15114   3.834  18.275  10.134
42789W        W15115  35.373  23.501   1.214
42790W        W15116  30.126  30.084   0.731
42791W        W15117  30.137  37.998   4.294
42792W        W15118   1.827   4.864  14.509
42793W        W15119  12.283   2.948  12.878
42794W        W15120  20.204  13.808   4.618
42795W        W15121  11.693  30.441  13.420
42796W        W15122  37.336  26.683   3.171
42797W        W15123  20.167  34.558   2.775
42798W        W15124  22.564  11.175  14.939
42799W        W15125  19.188  25.113   1.912
42800W        W15126  18.123  26.122  10.434
42801W        W15127  22.511  18.296   1.810
42802W        W15128  32.068  22.626   3.205
42803W        W15129  31.500  39.032  13.429
42804W        W15130  34.118  26.619  13.325
42805W        W15131   8.755  28.975  10.639
42806W        W15132  38.913  34.484   3.244
42807W        W15133  22.666   9.293   1.866
42808W        W15134  11.788  42.372   3.371
42809W        W15135  21.588  17.100   0.882
42810W        W15136  28.012  14.592   4.637
42811W        W15137  29.130  35.100  13.040
42812W        W15138  14.183  22.251  11.046
42813W        W15139  22.060  16.092   5.153
42814W        W15140   3.228  38.941  14.991
42815W        W15141  41.856  28.595  14.505
42816W        W15142  24.550  22.014   2.897
42817W        W15143  35.421   2.341   2.862
42818W        W15144  17.163  41.934   4.807
42819W        W15145  22.677  10.171   5.140
42820W        W15146  38.958  33.424   5.107
42821W        W15147  20.538  37.469  14.452
42822W        W15148  13.335  36.471  12.832
42823W        W15149   3.736  18.147   1.385
42824W        W15150  35.034  27.120   2.387
42825W        W15151  20.556  29.575  12.355
42826W        W15152  38.498  23.103  12.363
42827W        W15153   3.761  24.497  10.598
42828W        W15154  30.148  12.353   1.323
42829W        W15155   6.708  34.077  11.970
42830W        W15156   5.912  20.588  12.987
42831W        W15157  36.873  37.429   1.264
42832W        W15158  23.725  36.965   2.696
42833W        W15159  30.438  11.274  13.524
42834W        W15160  31.925  21.045   1.730
42835W        W15161  12.250  39.930   0.870
42836W        W15162  24.024  25.554   1.786
42837W        W15163  26.552  13.774   2.190
42838W        W15164  23.680  33.543  14.455
42839W        W15165   7.884   0.422  14.360
42840W        W15166   3.299  23.081  10.976
42841W        W15167  44.290  19.673   1.779
42842W        W15168   4.731  21.517   4.830
42843W        W15169  21.213  43.780   3.214
42844W        W15170  12.349  27.481  10.472
42845W        W15171  22.646  44.462  11.512
42846W        W15172  33.556  42.007  10.543
42847W        W15173   5.206   3.310   2.842
42848W        W15174  31.947  19.739   4.218
42849W        W15175  13.256  33.438   0.951
42850W        W15176   1.818  24.005   2.698
42851W        W15177  23.573   9.844   0.281
42852W        W15178  27.011  22.575  13.464
42853W        W15179  38.014   4.769  13.395
42854W        W15180  10.725   7.858   3.280
42855W        W15181  38.378  31.494   0.942
42856W        W15182  31.969  42.395  13.434
42857W        W15183   1.941  31.528  14.287
42858W        W15184  14.692   8.714   0.941
42859W        W15185  11.780  24.640   5.778
42860W        W15186  35.025   0.294  14.335
42861W        W15187  17.246  21.155   2.822
42862W        W15188  12.681  33.428  13.824
42863W        W15189   1.429  38.562   3.859
42864W        W15190  34.061   7.711  13.887
42865W        W15191  41.514  31.599  14.316
42866W        W15192   3.315  28.129  10.581
42867W        W15193   1.948   5.220   5.131
42868W        W15194  21.246  14.266   2.794
42869W        W15195  38.408  20.703  11.429
42870W        W15196  38.874  18.738   3.284
42871W        W15197  10.251  41.963  10.958
42872W        W15198  14.234  39.393   3.174
42873W        W15199  23.731  29.638  11.934
42874W        W15200  38.472  25.701  14.939
42875W        W15201  44.800  34.102   2.308
42876W        W15202  16.645  29.555  12.407
42877W        W15203  28.011  22.048   4.267
42878W        W15204  20.209  38.011   1.831
42879W        W15205  43.492  34.937  13.354
42880W        W15206  20.178  11.761   4.762
42881W        W15207  38.419  33.117  13.537
42882W        W15208  25.588  19.231  13.828
42883W        W15209  26.547  30.023   3.645
42884W        W15210  38.343   6.356  14.926
42885W        W15211   7.723  16.143   3.677
42886W        W15212  20.567  19.534   2.702
42887W        W15213  38.869  23.098   2.201
42888W        W15214  31.448  34.077  10.955
42889W        W15215   5.934   8.821   3.260
42890W        W15216  30.482  22.686  11.096
42891W        W15217  37.468  20.054  13.980
42892W        W15218  19.214  31.624   2.398
42893W        W15219  13.154  29.424  11.938
42894W        W15220   2.288  36.087  12.571
42895W        W15221  14.153  30.414   3.341
42896W        W15222  39.820  34.961   3.767
42897W        W15223  19.274  29.106  10.497
42898W        W15224   7.298  44.380  14.028
42899W        W15225  21.110   8.842   4.701
42900W        W15226  34.083  28.527  14.969
42901W        W15227  33.428  18.278  10.939
42902W        W15228   5.815  11.309  10.972
42903W        W15229  20.742  16.652   0.260
42904W        W15230  20.093  25.146   4.236
42905W        W15231  42.351  10.354   4.606
42906W        W15232  37.958   3.286   3.222
42907W        W15233  12.699  23.700  13.336
42908W        W15234  21.647  31.621  11.897
42909W        W15235  39.940  33.595  11.015
42910W        W15236  39.555   5.368   3.670
42911W        W15237  23.688  19.207  13.378
42912W        W15238   0.323  43.498   0.801
42913W        W15239  23.716  32.520   4.161
42914W        W15240   2.375   3.294  10.570
42915W        W15241   4.818  19.124  10.582
42916W        W15242  41.013  38.462   1.776
42917W        W15243   7.224   2.419   2.704
42918W        W15244  41.904  30.107  10.621
42919W        W15245   2.754  40.915  11.000
42920W        W15246  24.113  27.458  10.603
42921W        W15247  21.554  41.993  12.856
42922W        W15248   4.360  16.076  14.016
42923W        W15249  31.095  16.192   3.704
42924W        W15250   0.800  31.431   3.215
42925W        W15251  22.134  30.920   3.345
42926W        W15252   2.230  23.683   5.700
42927W        W15253  16.637  33.882   2.274
42928W        W15254  37.434  20.583  12.842
42929W        W15255  34.439  39.022   4.672
42930W        W15256  40.369  28.172   4.236
42931W        W15257  38.005  31.545  11.524
42932W        W15258  20.232  14.784   0.963
42933W        W15259  43.490   2.364   3.645
42934W        W15260  23.210  31.102   1.283
42935W        W15261  33.436   9.212   1.804
42936W        W15262  43.288   8.170   3.387
42937W        W15263  42.837   6.408   3.798
42938W        W15264  35.429  34.529   1.372
42939W        W15265  25.071  18.209  14.924
42940W        W15266  24.713  38.968   0.425
42941W        W15267  41.383  23.237  13.982
42942W        W15268   7.690  13.197  13.429
42943W        W15269  23.088  29.000   2.750
42944W        W15270  36.075  33.128  10.892
42945W        W15271  29.004   2.774   1.446
42946W        W15272   1.957  30.972   2.238
42947W        W15273   7.197  31.423   4.116
42948W        W15274  39.481   4.258  12.570
42949W        W15275  22.023  22.677   0.338
42950W        W15276  30.523  29.528   1.846
42951W        W15277  31.003  44.448  11.106
42952W        W15278  39.488   6.277  14.283
42953W        W15279  17.164  42.456  11.501
42954W        W15280   9.702  24.710   2.337
42955W        W15281  21.732  27.060  13.479
42956W        W15282  43.815  40.000   0.398
42957W        W15283  14.161  28.539  14.807
42958W        W15284  30.049   8.388   3.776
42959W        W15285  28.534  11.342  12.072
42960W        W15286  20.065  33.610  11.875
42961W        W15287   6.725  24.555  14.378
42962W        W15288   7.756  11.773  10.549
42963W        W15289  41.999  31.632   0.325
42964W        W15290  11.190  17.691  13.479
42965W        W15291   7.727  28.096  14.011
42966W        W15292  11.146  31.122  12.933
42967W        W15293  22.507  37.867  13.349
42968W        W15294   0.984  44.275   0.429
42969W        W15295  22.142  25.118   2.210
42970W        W15296  42.880  28.047  13.445
42971W        W15297  43.338  27.567   2.414
42972W        W15298   6.914  42.874   1.221
42973W        W15299  19.197   5.840  13.433
42974W        W15300  43.959   9.716  14.466
42975W        W15301  43.873   6.882   4.685
42976W        W15302  40.509  10.231   5.300
42977W        W15303  20.078  33.585   5.117
42978W        W15304  42.015  31.958  11.394
42979W        W15305  20.693   2.322   0.893
42980W        W15306  33.503  34.928  14.436
42981W        W15307  32.908   9.859   4.290
42982W        W15308  37.347  31.517   4.804
42983W        W15309   8.202  22.642   4.314
42984W        W15310  34.567  22.625   0.772
42985W        W15311   6.701  20.550   1.880
42986W        W15312  22.093  21.224   1.266
42987W        W15313  28.044  34.966   2.797
42988W        W15314   6.306  13.149  14.456
42989W        W15315  25.139  33.439  10.103
42990W        W15316  30.044  44.869   4.126
42991W        W15317  36.421  32.029  14.314
42992W        W15318  12.615  27.087   1.907
42993W        W15319  43.958  29.044   3.728
42994W        W15320  41.436  32.940   0.850
42995W        W15321   6.268  36.994   1.447
42996W        W15322  40.464  34.064  14.844
42997W        W15323   6.194  26.110  14.800
42998W        W15324  33.994  27.193   1.775
42999W        W15325  17.558  12.263   4.715
43000W        W15326   2.774  25.969  12.406
43001W        W15327  44.765  24.039   1.885
43002W        W15328   1.812  37.952   2.349
43003W        W15329  37.073   6.346   3.636
43004W        W15330  17.789  17.572  14.918
43005W        W15331   5.826  44.825   2.716
43006W        W15332  33.956   3.952  13.438
43007W        W15333   3.946  42.934   0.328
43008W        W15334  30.002  33.997  13.902
43009W        W15335  24.700  20.578   4.702
43010W        W15336   3.270  15.147   2.386
43011W        W15337   7.891  35.931   0.410
43012W        W15338  36.537  36.544  12.013
43013W        W15339  39.474  32.971  13.892
43014W        W15340  25.629  39.055   4.695
43015W        W15341   2.829  22.617  11.493
43016W        W15342   0.771  33.514   0.884
43017W        W15343   0.305  42.460  12.568
43018W        W15344  35.416  24.214   1.376
43019W        W15345  17.704  31.584  11.023
43020W        W15346  11.284  43.004  11.450
43021W        W15347  27.101  23.501  13.991
43022W        W15348  17.784  16.704  12.032
43023W        W15349  14.117  25.631   9.627
43024W        W15350  34.959  36.045   5.283
43025W        W15351  34.453  16.734  10.955
43026W        W15352  41.964  20.690  13.389
43027W        W15353  40.428  37.015   2.257
43028W        W15354  40.452  40.018  13.012
43029W        W15355  35.871  16.244  14.314
43030W        W15356   1.801  38.552   1.931
43031W        W15357  39.894  35.359   3.317
43032W        W15358  37.886   5.886   0.447
43033W        W15359  16.756  34.439   4.183
43034W        W15360  20.608  11.819  11.994
43035W        W15361  13.118  23.081   1.730
43036W        W15362  35.086  44.907  14.300
43037W        W15363   3.217   1.874   1.253
43038W        W15364   1.388  16.150  14.334
43039W        W15365  28.995  14.299  10.570
43040W        W15366  42.871  28.986  11.612
43041W        W15367  38.360   7.829  11.009
43042W        W15368  43.866  43.992  13.955
43043W        W15369  17.595  34.871   2.734
43044W        W15370  28.006  41.324  10.010
43045W        W15371  17.297  42.372  11.934
43046W        W15372  10.205  21.635   2.417
43047W        W15373   7.352  38.394  10.638
43048W        W15374  30.987  36.849  13.944
43049W        W15375  36.362  13.834   1.260
43050W        W15376  34.007  43.812  11.961
43051W        W15377  30.549  24.063  14.770
43052W        W15378  25.657  32.636   0.909
43053W        W15379  35.903  23.090   0.789
43054W        W15380  37.040  29.959  12.405
43055W        W15381  24.974  33.582  14.302
43056W        W15382  42.364  10.697   1.247
43057W        W15383  44.452  37.456  13.021
43058W        W15384   2.308  19.733  11.447
43059W        W15385  25.484   1.818  13.964
43060W        W15386  33.958  38.372  12.379
43061W        W15387   9.696  32.435  10.626
43062W        W15388  35.887   4.247  10.465
43063W        W15389  39.884  23.172  14.783
43064W        W15390  19.219  26.616  14.996
43065W        W15391   7.912  35.966   4.209
43066W        W15392  39.494  15.604   3.767
43067W        W15393  33.091  16.580  10.430
43068W        W15394  37.482  34.575  10.971
43069W        W15395  42.948  19.045   0.878
43070W        W15396   2.458  41.872   3.717
43071W        W15397  39.506  12.117  12.853
43072W        W15398   6.871  20.660  10.636
43073W        W15399  12.789  40.834   1.278
43074W        W15400   6.681  28.133  13.863
43075W        W15401   6.746   6.369   3.672
43076W        W15402  19.604  35.524  12.880
43077W        W15403  17.783  34.097  11.919
43078W        W15404  39.423  35.060  14.913
43079W        W15405  41.531  34.036  14.434
43080W        W15406  26.179  16.245  11.421
43081W        W15407   2.409   2.284   3.759
43082W        W15408  21.683  23.553  11.970
43083W        W15409  26.465  11.190  11.471
43084W        W15410  12.633  37.046   0.264
43085W        W15411  24.056   8.725   2.663
43086W        W15412  39.903  32.914   4.304
43087W        W15413  22.224  39.061   1.367
43088W        W15414  36.379  11.355  13.838
43089W        W15415   8.211  31.114   0.383
43090W        W15416  15.219   0.259   3.285
43091W        W15417  33.614  17.788   9.947
43092W        W15418  15.156  13.299   2.854
43093W        W15419  27.994  25.986  10.430
43094W        W15420  34.866   1.968   3.744
43095W        W15421   0.304  34.510   0.849
43096W        W15422  21.199   2.786   1.438
43097W        W15423  15.219  12.315  13.063
43098W        W15424  27.167  12.317  11.073
43099W        W15425  37.454  19.127   3.684
43100W        W15426  35.532   7.677   3.163
43101W        W15427  31.143  24.627   0.355
43102W        W15428  30.619  39.850   2.670
43103W        W15429  26.017  36.552   0.830
43104W        W15430   6.196  13.833  11.878
43105W        W15431  41.536  17.730   3.832
43106W        W15432  18.546  16.099   4.807
43107W        W15433  10.860   7.197  10.602
43108W        W15434   6.723  28.494   4.299
43109W        W15435  38.866  22.700   0.867
43110W        W15436  33.113  42.938   3.796
43111W        W15437  15.329  23.695   0.416
43112W        W15438  11.133  16.294   1.280
43113W        W15439  12.228   0.407  13.312
43114W        W15440  12.323  15.318  14.338
43115W        W15441   7.666  16.692  12.892
43116W        W15442  30.635  39.501   4.181
43117W        W15443  29.568  43.270  11.470
43118W        W15444  24.028  14.277   3.728
43119W        W15445  13.308  12.259  12.561
43120W        W15446  34.454  36.860  10.006
43121W        W15447   5.383   9.293   4.143
43122W        W15448  38.559  32.043   3.200
43123W        W15449   3.328  43.830   0.893
43124W        W15450  28.536  43.896   1.277
43125W        W15451   0.776  39.322  11.610
43126W        W15452   7.706  16.161   1.230
43127W        W15453  11.132  19.094   1.386
43128W        W15454   1.466   9.731   1.284
43129W        W15455  30.916   8.388   3.158
43130W        W15456  33.534  44.396   1.358
43131W        W15457   8.217  15.717  10.450
43132W        W15458  30.656  41.417  11.561
43133W        W15459  38.900  24.582   3.161
43134W        W15460  33.589  31.035   5.313
43135W        W15461  15.145   3.763   3.676
43136W        W15462  42.846  39.981  14.799
43137W        W15463  38.950  27.126  12.825
43138W        W15464  37.462  30.605   1.306
43139W        W15465  22.166   8.842  11.121
43140W        W15466  30.514  40.982   0.440
43141W        W15467  37.540   2.794   4.288
43142W        W15468  24.717  30.633  10.916
43143W        W15469  19.226   7.849   1.229
43144W        W15470  29.921   1.916   4.252
43145W        W15471  38.850  44.498   0.867
43146W        W15472  35.507   6.677  14.787
43147W        W15473   1.460  44.266  14.819
43148W        W15474  35.968  15.665  11.926
43149W        W15475   9.701  17.085  12.844
43150W        W15476  30.571  17.725   1.364
43151W        W15477  37.463   7.200   1.731
43152W        W15478  41.350  42.494  14.479
43153W        W15479  24.522  14.098   0.366
43154W        W15480   0.814  43.511   4.719
43155W        W15481  17.220  21.073  12.463
43156W        W15482   8.734  22.211  13.907
43157W        W15483  32.524  23.710  13.348
43158W        W15484   8.262  19.588  14.011
43159W        W15485  21.638  33.619   1.338
43160W        W15486   4.797  13.801  10.412
43161W        W15487   8.319  18.595  13.042
43162W        W15488  39.484  24.627  14.347
43163W        W15489   7.757  21.724  14.759
43164W        W15490  14.812  12.680   4.350
43165W        W15491  35.597  35.413   4.809
43166W        W15492   3.341   1.435  10.899
43167W        W15493  40.837  18.562  14.355
43168W        W15494  27.502  32.083  12.827
43169W        W15495  25.632   7.409   0.336
43170W        W15496   6.224   8.277  14.295
43171W        W15497  35.932   3.709   0.744
43172W        W15498  38.914   5.374  11.106
43173W        W15499  35.972  24.628   2.253
43174W        W15500  31.638  31.555  12.405
43175W        W15501   6.700  11.645  12.826
43176W        W15502  44.004  38.872   4.731
43177W        W15503   5.273  27.460  11.126
43178W        W15504  33.061  12.819   3.338
43179W        W15505   3.323  13.640  11.392
43180W        W15506  20.731   6.854   2.831
43181W        W15507  13.683  35.538  11.911
43182W        W15508   8.814  41.422   2.405
43183W        W15509   7.816  27.191  14.463
43184W        W15510  23.648   9.786   3.642
43185W        W15511  31.585  26.691   0.414
43186W        W15512   4.746  36.454  13.965
43187W        W15513  35.360   3.373   1.228
43188W        W15514  28.564   7.883   4.628
43189W        W15515   3.781   1.256  14.982
43190W        W15516  32.100   3.855  10.444
43191W        W15517  19.766  12.824  12.434
43192W        W15518  20.747  13.791   2.385
43193W        W15519  31.973  25.976  14.953
43194W        W15520  26.085  31.969  11.542
43195W        W15521   6.394   3.336   0.322
43196W        W15522  20.524  32.052   4.353
43197W        W15523  37.067  23.703  12.926
43198W        W15524  18.775  33.039  13.528
43199W        W15525  44.783  16.074  12.086
43200W        W15526  33.882   8.734   3.345
43201W        W15527  32.440  36.948  11.884
43202W        W15528  17.230   7.362   3.246
43203W        W15529  29.627  27.969   4.114
43204W        W15530  19.598  35.040   4.231
43205W        W15531  37.466   0.827  10.485
43206W        W15532  35.915   9.330  12.064
43207W        W15533  35.095  32.053   0.302
43208W        W15534  20.201   4.310  10.939
43209W        W15535  19.546  13.739  11.053
43210W        W15536  23.591   5.852   0.786
43211W        W15537  35.592  44.365   0.307
43212W        W15538  26.126  22.173   1.712
43213W        W15539  32.632   0.403  14.931
43214W        W15540  22.045  16.809  10.987
43215W        W15541   5.298   8.663  11.600
43216W        W15542  26.481   3.406   2.793
43217W        W15543  37.884  44.322  12.829
43218W        W15544  19.045  28.978   2.732
43219W        W15545  30.463  14.759  12.833
43220W        W15546  28.127  19.664  11.602
43221W        W15547  27.118  36.546  11.036
43222W        W15548  11.332  15.582   9.949
43223W        W15549  30.599  19.549   0.313
43224W        W15550  10.356   7.743   1.922
43225W        W15551  30.907  26.487  10.958
43226W        W15552  41.383  28.989   2.386
43227W        W15553  36.554  28.540  11.889
43228W        W15554  41.431   6.787   0.747
43229W        W15555  34.549  42.480  10.459
43230W        W15556  30.559  41.790   1.336
43231W        W15557  32.080  29.550   0.425
43232W        W15558  17.693   0.770  12.081
43233W        W15559  22.165  41.392  14.493
43234W        W15560  21.551   6.810   0.305
43235W        W15561  31.459  26.683   1.258
43236W        W15562  17.283   7.358   0.328
43237W        W15563  41.420  31.904  11.003
43238W        W15564   7.250  44.479   1.930
43239W        W15565  10.672  18.091   0.808
43240W        W15566  20.230  17.302   0.829
43241W        W15567  31.472   2.824  10.634
43242W        W15568  11.163  44.281  14.918
43243W        W15569   5.211   5.297   2.398
43244W        W15570  11.771  37.083  12.033
43245W        W15571  15.800  41.875   3.188
43246W        W15572  23.714  43.509   3.280
43247W        W15573  35.899  42.880   1.918
43248W        W15574   8.807  13.272  13.964
43249W        W15575  44.380  25.642   3.696
43250W        W15576  26.697   1.777   1.817
43251W        W15577  42.468  27.108  14.759
43252W        W15578  37.963  38.951   9.927
43253W        W15579  33.970  25.507   2.842
43254W        W15580  32.635  22.585  10.102
43255W        W15581  22.082  44.914   0.893
43256W        W15582  12.175   5.317  13.538
43257W        W15583  36.579   9.842   1.380
43258W        W15584   7.243  42.015  12.876
43259W        W15585  17.157  42.432  13.361
43260W        W15586   7.218   1.935  11.115
43261W        W15587  11.372   9.287  11.965
43262W        W15588   6.679  27.060   4.220
43263W        W15589  35.566  35.919  12.007
43264W        W15590   6.689  16.242  12.959
43265W        W15591  31.405  10.373   0.280
43266W        W15592  39.032  11.174  11.581
43267W        W15593   0.399  20.134  12.079
43268W        W15594  10.380  29.134   4.630
43269W        W15595  10.686  43.973   0.745
43270W        W15596  40.944  14.788   3.386
43271W        W15597  29.158  29.477   1.896
43272W        W15598  25.648   1.351  12.992
43273W        W15599   6.399  14.797  11.116
43274W        W15600  29.065  11.289   1.244
43275W        W15601   2.340   0.249   3.748
43276W        W15602  15.799  12.269  11.469
43277W        W15603  42.328  15.749  10.614
43278W        W15604   1.756  28.969  14.988
43279W        W15605  33.952  13.242   0.465
43280W        W15606  12.160  11.267   0.825
43281W        W15607   2.324   9.687  14.849
43282W        W15608  39.425  23.241   1.792
43283W        W15609  39.331  43.978   2.290
43284W        W15610  11.713  39.408  12.444
43285W        W15611  11.264  20.118  12.525
43286W        W15612  40.823  20.061   2.278
43287W        W15613   6.307  23.205  11.040
43288W        W15614   5.724  14.610  11.099
43289W        W15615  38.499  38.358   2.253
43290W        W15616  39.484  15.793  11.508
43291W        W15617  30.149   3.423  11.409
43292W        W15618   1.483   5.289  12.349
43293W        W15619   5.236  10.366   2.903
43294W        W15620  16.185  30.951   3.255
43295W        W15621   5.867  31.468   3.258
43296W        W15622   9.155  28.470   0.764
43297W        W15623  42.981   8.882  12.061
43298W        W15624   1.806  22.743   0.803
43299W        W15625  29.555   0.961   4.644
43300W        W15626  23.634  42.370  13.415
43301W        W15627  37.499   7.755   0.777
43302W        W15628   0.483  28.509  12.476
43303W        W15629  25.678  13.772  10.991
43304W        W15630  12.214  19.159  13.513
43305W        W15631  27.141   2.966  14.980
43306W        W15632  12.813   0.449  12.913
43307W        W15633  34.531   1.943  14.787
43308W        W15634  10.762  44.815  11.867
43309W        W15635  24.119  14.823  12.478
43310W        W15636   2.795  31.056   1.431
43311W        W15637  28.639  11.337   4.321
43312W        W15638  38.871  12.764   3.343
43313W        W15639  28.483  38.827   2.241
43314W        W15640  32.453   3.947  14.291
43315W        W15641  25.083  31.551  12.488
43316W        W15642  41.852  43.362   2.277
43317W        W15643   2.348  21.258  13.847
43318W        W15644  42.942  11.711   1.932
43319W        W15645  42.909   4.324  12.370
43320W        W15646   7.304  13.760  12.856
43321W        W15647  13.708   1.927   1.897
43322W        W15648  33.877  33.604  11.549
43323W        W15649  28.505  44.291  12.531
43324W        W15650  21.657   2.368   2.833
43325W        W15651  37.936   6.250  12.566
43326W        W15652  27.063  27.151  10.461
43327W        W15653  39.918  10.245   1.908
43328W        W15654  12.351  33.086  12.835
43329W        W15655   7.315  14.300   2.281
43330W        W15656  40.500   3.305   3.704
43331W        W15657  23.578  29.124   3.715
43332W        W15658  40.375   1.413  10.546
43333W        W15659  15.682  21.725  10.920
43334W        W15660  19.768  22.167   4.646
43335W        W15661   1.456  37.974   3.294
43336W        W15662  28.579  24.698   3.304
43337W        W15663  24.625   6.706  12.034
43338W        W15664  31.041  29.088  14.825
43339W        W15665  14.702  41.832   0.933
43340W        W15666  34.101   9.336  11.964
43341W        W15667  32.054  10.698  11.869
43342W        W15668  22.164   8.779   2.773
43343W        W15669  36.060  24.591  12.956
43344W        W15670   7.680  38.341   4.239
43345W        W15671  12.845   8.386   3.273
43346W        W15672  21.213  41.480  14.786
43347W        W15673  34.934  11.136  12.432
43348W        W15674  17.224  13.166   3.861
43349W        W15675   6.395   2.450  14.320
43350W        W15676   7.233  33.001   3.665
43351W        W15677  43.441  43.274  14.288
43352W        W15678  40.940  22.159  10.454
43353W        W15679  31.053  32.014   0.303
43354W        W15680  15.243   3.953  12.387
43355W        W15681  16.701  32.554   3.784
43356W        W15682  17.088  29.978  12.926
43357W        W15683  31.504  15.682  12.902
43358W        W15684  16.204  27.100   2.264
43359W        W15685  18.686  35.505  12.923
43360W        W15686  20.183  15.180  10.555
43361W        W15687  28.040  22.651   1.729
43362W        W15688   0.751   5.274  13.912
43363W        W15689  41.980  41.408  14.485
43364W        W15690  34.372  28.146   4.825
43365W        W15691  24.030  26.065   4.623
43366W        W15692  10.826  40.932  13.019
43367W        W15693   0.337  17.235   4.734
43368W        W15694   2.961  29.161  13.392
43369W        W15695  20.039   0.443   0.940
43370W        W15696  38.464  30.592   3.858
43371W        W15697  40.437  37.936  12.484
43372W        W15698  39.915  35.528  13.470
43373W        W15699  29.094  11.786  12.517
43374W        W15700  38.485  35.875  14.993
43375W        W15701  34.891  11.310  10.614
43376W        W15702   9.865  26.533  13.873
43377W        W15703  33.944  24.195   4.293
43378W        W15704  33.073  13.257  11.881
43379W        W15705  28.068  40.385  13.867
43380W        W15706   8.896  11.634  13.817
43381W        W15707  10.766  22.230  12.951
43382W        W15708  25.474  35.920   1.424
43383W        W15709   4.840  29.452  11.441
43384W        W15710  25.575  28.663   4.127
43385W        W15711   6.265  31.483  12.980
43386W        W15712  22.249  21.240  12.574
43387W        W15713   5.397  43.787  12.446
43388W        W15714  16.275   6.357  10.555
43389W        W15715  27.135  23.050  12.370
43390W        W15716  26.595  25.604   5.169
43391W        W15717  40.923  22.122   3.665
43392W        W15718  39.876  11.849  14.025
43393W        W15719   5.764  18.751   1.328
43394W        W15720  32.096  11.344  12.082
43395W        W15721  42.397  26.101  11.041
43396W        W15722   8.746  28.123   3.239
43397W        W15723  19.748  44.319  12.047
43398W        W15724   9.244  19.106  14.302
43399W        W15725  19.194  25.140  14.282
43400W        W15726  38.442  25.621  14.392
43401W        W15727   6.336  11.187  11.500
43402W        W15728   8.674  36.361   2.776
43403W        W15729  22.719  28.637   0.321
43404W        W15730   4.351  43.802  14.335
43405W        W15731  22.166  24.721  13.511
43406W        W15732   9.383  36.096   1.912
43407W        W15733  29.507   9.200   0.467
43408W        W15734  11.325  38.928  11.381
43409W        W15735  30.432  33.100  13.051
43410W        W15736  40.938  39.988  10.924
43411W        W15737  16.135  37.013   0.906
43412W        W15738  16.195  42.853  14.422
43413W        W15739  10.848   9.701  13.061
43414W        W15740  19.629  33.915   3.819
43415W        W15741  27.462  38.338  11.086
43416W        W15742  13.173  36.999   0.876
43417W        W15743  10.382  10.746   4.836
43418W        W15744   9.875  30.100  10.575
43419W        W15745  29.055  43.899   3.356
43420W        W15746   6.853   2.370  12.550
43421W        W15747  14.109  33.527  13.969
43422W        W15748  32.084  44.310   3.793
43423W        W15749  13.648   4.717  11.913
43424W        W15750  22.013  44.485  12.353
43425W        W15751  37.446   7.360  14.308
43426W        W15752   5.437   9.303  14.308
43427W        W15753  16.276   0.985  14.380
43428W        W15754   1.776   9.269   4.229
43429W        W15755  17.211  38.013   2.282
43430W        W15756  18.631  19.109   3.269
43431W        W15757  41.323  40.493   1.252
43432W        W15758   7.323  33.593   0.753
43433W        W15759  15.207  17.609  13.022
43434W        W15760   2.907  10.639  14.850
43435W        W15761  28.171   4.220   1.926
43436W        W15762  36.889   2.842   2.687
43437W        W15763  44.477  23.155   2.706
43438W        W15764  39.450   4.252  14.783
43439W        W15765  40.848  10.166   2.767
43440W        W15766   8.376  32.546  12.524
43441W        W15767  28.603  23.731   1.261
43442W        W15768  38.015  26.470   0.356
43443W        W15769  38.827  31.122  14.910
43444W        W15770  35.993  24.570  14.461
43445W        W15771  39.882  34.521  11.973
43446W        W15772   2.240   1.872  11.859
43447W        W15773  18.577  22.722   4.243
43448W        W15774  41.999  27.961   3.638
43449W        W15775  35.527  44.898  14.337
43450W        W15776  26.957   7.387   4.160
43451W        W15777  27.606   5.293   0.256
43452W        W15778  37.361  28.498  13.370
43453W        W15779  38.564  29.663   1.281
43454W        W15780  44.477   7.697   4.818
43455W        W15781  39.048  40.846  12.551
43456W        W15782  10.722  15.095  13.331
43457W        W15783  16.723   1.447  11.528
43458W        W15784  41.853  25.065  14.391
43459W        W15785  22.711  12.719   4.139
43460W        W15786  26.978  11.664   2.736
43461W        W15787  16.115  40.019  10.937
43462W        W15788   9.280  18.120   1.859
43463W        W15789   0.804  44.411   5.122
43464W        W15790  15.172   3.908   1.293
43465W        W15791  30.514  23.193   1.344
43466W        W15792  20.591  39.927  13.876
43467W        W15793  40.850  21.258   2.717
43468W        W15794  37.961  17.586   4.341
43469W        W15795   6.804  35.450   1.278
43470W        W15796  39.370  37.381  14.000
43471W        W15797  39.994  40.478   0.300
43472W        W15798   5.254  14.158   1.757
43473W        W15799   1.447  22.594   0.297
43474W        W15800  28.067  21.110   0.476
43475W        W15801  11.631  13.754   1.402
43476W        W15802  21.682   3.914  14.325
43477W        W15803  11.236  10.150  12.380
43478W        W15804  14.117  27.505   2.756
43479W        W15805  25.669   1.962  14.822
43480W        W15806   2.420  30.568   4.801
43481W        W15807  21.652  24.488  14.514
43482W        W15808  28.146  37.405  13.857
43483W        W15809   6.357  23.098   2.816
43484W        W15810  30.980  10.230   3.719
43485W        W15811  28.172  32.025   3.822
43486W        W15812  22.182  10.865   2.756
43487W        W15813  21.214  36.585  11.461
43488W        W15814  13.322   4.718  13.386
43489W        W15815  31.563   0.448  14.482
43490W        W15816  11.209  34.104  12.910
43491W        W15817   6.898   1.412   1.277
43492W        W15818  44.344  11.799  10.614
43493W        W15819  21.680  13.172  13.053
43494W        W15820  13.309  32.493  11.868
43495W        W15821  27.061  35.455  10.421
43496W        W15822  33.920  25.015   4.696
43497W        W15823  11.633   7.748  14.836
43498W        W15824   7.287  29.942  11.020
43499W        W15825   4.270  29.493  14.305
43500W        W15826  19.561   7.257   0.449
43501W        W15827  36.042  33.384   2.390
43502W        W15828   9.252  24.710   1.322
43503W        W15829  14.103  36.024   4.183
43504W        W15830  16.802   4.759   1.238
43505W        W15831  17.755  33.009   3.676
43506W        W15832  29.561  34.074  14.392
43507W        W15833  14.723  17.667  13.923
43508W        W15834  30.971  29.975   2.790
43509W        W15835  44.317   3.408  14.374
43510W        W15836   1.879  25.198  13.388
43511W        W15837  26.041  20.195  13.797
43512W        W15838  28.089  44.273  12.438
43513W        W15839   4.222   5.407  13.821
43514W        W15840   1.454   0.284   1.729
43515W        W15841  16.573  25.490   4.636
43516W        W15842  35.996  38.984  11.060
43517W        W15843  28.649  18.083   0.441
43518W        W15844   3.723  34.974  14.329
43519W        W15845   2.721  22.095   2.743
43520W        W15846  37.877  31.531  10.525
43521W        W15847   7.801  24.478   0.954
43522W        W15848  12.710  22.207   0.785
43523W        W15849  19.732  14.275  11.405
43524W        W15850  23.230  19.240  12.063
43525W        W15851  40.347  17.777  11.984
43526W        W15852  36.925  13.749   5.103
43527W        W15853  23.076  38.352  13.953
43528W        W15854  33.892  24.561   1.889
43529W        W15855  23.227   0.929  13.454
43530W        W15856  11.675  22.557  11.598
43531W        W15857   1.922  38.864  13.942
43532W        W15858  30.957  21.699  10.981
43533W        W15859  37.040   5.721  12.547
43534W        W15860  34.976  44.924   1.847
43535W        W15861  17.578  36.844  11.867
43536W        W15862  37.551   6.759  14.355
43537W        W15863  33.528  42.859  12.374
43538W        W15864  41.037  34.995  12.018
43539W        W15865  17.598  40.492   4.290
43540W        W15866   2.451   4.935   3.165
43541W        W15867  13.729  13.636  11.509
43542W        W15868   0.933  32.907   3.778
43543W        W15869  34.113  31.150   2.667
43544W        W15870  13.132  22.006  13.454
43545W        W15871   5.790  43.840  12.443
43546W        W15872  17.762  12.665   2.670
43547W        W15873   3.337  33.484  14.326
43548W        W15874  16.154  26.546  13.952
43549W        W15875  29.480   8.226  10.480
43550W        W15876  17.588  14.733  13.398
43551W        W15877  37.895   2.236  11.544
43552W        W15878  42.873  25.102   4.148
43553W        W15879  41.003  42.828   1.712
43554W        W15880   2.834   7.218  13.023
43555W        W15881  15.258  23.181   2.840
43556W        W15882  36.540  38.402  14.461
43557W        W15883  44.979  36.039  14.346
43558W        W15884  16.719   8.391   1.899
43559W        W15885  36.097  39.851  12.910
43560W        W15886  35.571   3.441   4.204
43561W        W15887  31.001  29.450   4.615
43562W        W15888  43.817  31.522   2.787
43563W        W15889  10.155  13.773   0.412
43564W        W15890  37.081  39.055   0.368
43565W        W15891  16.303  28.487   3.642
43566W        W15892  31.978   3.816  14.922
43567W        W15893   1.744  30.416   3.385
43568W        W15894   2.238  43.448   2.776
43569W        W15895  33.611  30.965  14.943
43570W        W15896  31.914   2.369   3.269
43571W        W15897   1.787  16.792  10.594
43572W        W15898  27.554  10.341  14.903
43573W        W15899  41.331  13.313   3.195
43574W        W15900   7.909  44.905   3.711
43575W        W15901   6.811   8.769  11.557
43576W        W15902  35.019   1.308  13.821
43577W        W15903  34.901   5.395   1.341
43578W        W15904   4.412  13.618   1.738
43579W        W15905   2.943  19.275  11.572
43580W        W15906  32.117  32.624  13.910
43581W        W15907  30.503  43.999   0.745
43582W        W15908  16.667   3.867  12.537
43583W        W15909  35.549  15.201  12.391
43584W        W15910  20.105   9.790   0.779
43585W        W15911   7.235  31.585   3.371
43586W        W15912  40.911  27.580  13.365
43587W        W15913  41.904  36.398  12.960
43588W        W15914  22.225  19.591  14.885
43589W        W15915   7.717  29.936   0.476
43590W        W15916  32.605  20.223  10.934
43591W        W15917   1.332  12.145  12.561
43592W        W15918   8.215   7.306  14.906
43593W        W15919  12.255  39.420  11.526
43594W        W15920  42.459  34.408   3.146
43595W        W15921  12.322  11.338  14.438
43596W        W15922   8.879  21.064   1.347
43597W        W15923  20.077  40.316   3.278
43598W        W15924   9.202  31.910  14.433
43599W        W15925  23.582  38.855   3.738
43600W        W15926   9.803  32.136  11.524
43601W        W15927   4.790  14.270  10.926
43602W        W15928  42.406  37.019  11.410
43603W        W15929  30.505  34.590   3.315
43604W        W15930  33.618  11.857  14.840
43605W        W15931   1.751  18.616  14.916
43606W        W15932  38.441  24.129   2.727
43607W        W15933  34.084  38.449   4.674
43608W        W15934  18.278   8.310  13.390
43609W        W15935  37.541   7.411  11.461
43610W        W15936  25.190  37.942   1.851
43611W        W15937  31.950  35.003  12.890
43612W        W15938  37.933  44.950   2.353
43613W        W15939  38.054  18.195   4.619
43614W        W15940  13.804   1.882  10.925
43615W        W15941   6.283  34.018  14.770
43616W        W15942   6.738   5.694   3.708
43617W        W15943  22.150   9.732  12.038
43618W        W15944  24.137  18.140   3.381
43619W        W15945  16.309  20.768  14.303
43620W        W15946  10.268   2.732   1.433
43621W        W15947  34.033  42.934  12.087
43622W        W15948  28.655   7.390  10.981
43623W        W15949  32.473  21.221   3.712
43624W        W15950  30.107  36.894  13.532
43625W        W15951   1.816  14.297   4.642
43626W        W15952  44.380  31.906   9.953
43627W        W15953  17.169  23.577   1.381
43628W        W15954   5.904  17.669   0.962
43629W        W15955   5.766  22.602   1.880
43630W        W15956  12.695  30.951  11.013
43631W        W15957  28.572  42.956   3.726
43632W        W15958  19.696  13.764  12.998
43633W        W15959   7.785  16.157  11.004
43634W        W15960  36.414  12.322   0.277
43635W        W15961  34.484   3.771   2.852
43636W        W15962   2.785  23.502  13.509
43637W        W15963  25.483  35.366  10.624
43638W        W15964  38.971  39.348   0.394
43639W        W15965  33.902  29.063   4.292
43640W        W15966   8.781  35.474  13.038
43641W        W15967   0.842  31.146   0.742
43642W        W15968  15.658  19.567   2.237
43643W        W15969  19.235  38.831   4.177
43644W        W15970  27.574  29.621  11.889
43645W        W15971   2.366  39.946   2.664
43646W        W15972  14.716  16.206   1.433
43647W        W15973  36.490   1.863   1.300
43648W        W15974  39.379   0.761   4.339
43649W        W15975  11.170  10.363  14.285
43650W        W15976  23.602  41.936  14.879
43651W        W15977  14.274  32.536  11.589
43652W        W15978  42.440  31.535  12.985
43653W        W15979  10.684  18.149   1.256
43654W        W15980  32.102  44.490  11.941
43655W        W15981   1.288   6.253  10.604
43656W        W15982  22.603  42.806   2.891
43657W        W15983  11.627  16.595  12.012
43658W        W15984  28.454  26.058   2.773
43659W        W15985  32.917  30.493  12.443
43660W        W15986   9.346  20.523   4.676
43661W        W15987  29.981  22.241  14.505
43662W        W15988   3.885  42.858  12.902
43663W        W15989  28.941   8.254  10.624
43664W        W15990  10.699  18.657  12.391
43665W        W15991   9.215  42.422   1.236
43666W        W15992  40.350  10.185   0.931
43667W        W15993  41.876   2.356   0.408
43668W        W15994   4.803   6.388   4.277
43669W        W15995   8.837   7.880   1.362
43670W        W15996  10.365  14.242   3.663
43671W        W15997  33.930  32.478  14.904
43672W        W15998  36.463  29.553  13.054
43673W        W15999  36.550  16.200  11.916
43674W        W16000  31.047   8.263  12.930
43675W        W16001   5.812  43.389  14.894
43676W        W16002   4.234  37.010  13.512
43677W        W16003  38.447   0.896   0.771
43678W        W16004  42.960  42.996  11.460
43679W        W16005  44.423  42.884  10.521
43680W        W16006   9.282  36.477   3.241
43681W        W16007  18.241  36.571  10.515
43682W        W16008  22.083  41.895   4.215
43683W        W16009  21.729  30.009  11.547
43684W        W16010  23.002  28.035  10.515
43685W        W16011  24.002   6.677   1.396
43686W        W16012   9.877  22.512  10.425
43687W        W16013   6.915   0.908  13.885
43688W        W16014  42.887  17.211   1.422
43689W        W16015   4.706   2.394   5.250
43690W        W16016  28.646  44.437  14.306
43691W        W16017   0.307  21.570   1.929
43692W        W16018  32.637  39.330  14.030
43693W        W16019   5.237  18.544  12.494
43694W        W16020  17.562  10.704   2.799
43695W        W16021   9.762  14.101  14.309
43696W        W16022  19.752  39.374  10.431
43697W        W16023  25.658  24.001  11.098
43698W        W16024  42.796   8.668  10.155
43699W        W16025  21.080  14.646  13.486
43700W        W16026   0.292  40.433  12.933
43701W        W16027  27.147  39.499   2.734
43702W        W16028  15.659  29.118  14.763
43703W        W16029  20.145   8.867   1.448
43704W        W16030  11.845  21.533   0.287
43705W        W16031  32.970  38.937  12.467
43706W        W16032  35.002  41.529  12.359
43707W        W16033  39.009  41.796  12.847
43708W        W16034  24.092   3.401  13.807
43709W        W16035   3.268  19.053   4.284
43710W        W16036  13.751   0.488  14.987
43711W        W16037   8.871  26.571   3.680
43712W        W16038  25.998  40.924  11.397
43713W        W16039  22.694  24.674  14.018
43714W        W16040  44.969   6.843  12.005
43715W        W16041  32.992  18.586  14.387
43716W        W16042  44.793  19.183   0.333
43717W        W16043  44.426  31.454  14.461
43718W        W16044  37.059  36.936  12.424
43719W        W16045  24.163  14.143  11.603
43720W        W16046  24.211  25.703   0.731
43721W        W16047  12.811  40.967  14.418
43722W        W16048  17.136  38.072   2.769
43723W        W16049  17.119   1.882   2.239
43724W        W16050  36.398  21.123  11.104
43725W        W16051  39.049  41.514   3.676
43726W        W16052   3.880   6.245   0.916
43727W        W16053  29.979  36.863   0.410
43728W        W16054   6.892  41.401   2.201
43729W        W16055  41.017  39.929   1.781
43730W        W16056   6.301  24.013  10.998
43731W        W16057   0.964  38.552  13.438
43732W        W16058   5.234  20.560  14.785
43733W        W16059  34.573  14.107  10.539
43734W        W16060   5.740  36.402   3.654
43735W        W16061  23.989  27.165  12.995
43736W        W16062   0.935   4.290  13.449
43737W        W16063  30.509   4.350   1.301
43738W        W16064  28.129  30.927  12.546
43739W        W16065  14.595   9.680  14.286
43740W        W16066   3.279  40.440   3.677
43741W        W16067  37.007  23.071  10.903
43742W        W16068  11.657   6.391   2.237
43743W        W16069   3.297  39.319  13.441
43744W        W16070  37.886  10.369  11.566
43745W        W16071  41.007   2.755  12.895
43746W        W16072  34.577   4.316  13.369
43747W        W16073  38.012   9.178  13.983
43748W        W16074   7.319  38.514   1.430
43749W        W16075  24.055  33.033   2.865
43750W        W16076   0.353  44.822  12.568
43751W        W16077  29.014   4.918  12.465
43752W        W16078   3.240   0.476   1.757
43753W        W16079  15.824  16.697  11.435
43754W        W16080  12.757  22.041  11.455
43755W        W16081  14.308  40.929  14.380
43756W        W16082   8.694  23.007   1.348
43757W        W16083   2.321  25.580  14.859
43758W        W16084  41.524  33.906  11.576
43759W        W16085  37.466  27.566  12.393
43760W        W16086  31.964  42.854  13.957
43761W        W16087  44.793  30.100  14.290
43762W        W16088  44.484  17.735   1.696
43763W        W16089  28.462  23.571   2.731
43764W        W16090  30.033   9.164   4.342
43765W        W16091  40.354  20.182  13.482
43766W        W16092  39.922  31.977  14.279
43767W        W16093  37.384  37.410   0.272
43768W        W16094   5.202  20.737  12.011
43769W        W16095  42.309  20.139  11.459
43770W        W16096  33.116  17.793   4.124
43771W        W16097  33.454  36.428  13.326
43772W        W16098   2.728   1.288   3.689
43773W        W16099  36.383  37.849   1.383
43774W        W16100  21.029  42.838  10.123
43775W        W16101  43.476   6.769  10.414
43776W        W16102  17.638  39.382  10.462
43777W        W16103  32.418  41.842   3.262
43778W        W16104  41.411  17.235  12.446
43779W        W16105   3.849  28.999   1.313
43780W        W16106   5.201   3.245   0.270
43781W        W16107   1.962  13.121  11.001
43782W        W16108  16.578  41.416   3.231
43783W        W16109  18.166   9.245   2.759
43784W        W16110  39.965  23.596  13.353
43785W        W16111  15.109   2.801   0.246
43786W        W16112  40.441   6.870  13.460
43787W        W16113  12.834  17.080  10.568
43788W        W16114   8.708  29.159  11.532
43789W        W16115   8.846  38.559  11.994
43790W        W16116  22.586  12.353  11.386
43791W        W16117  33.959   1.758  12.931
43792W        W16118   7.675   4.926  10.955
43793W        W16119  18.727  12.841   4.680
43794W        W16120  24.980  30.044  14.870
43795W        W16121  38.004  33.603   0.957
43796W        W16122  43.432  36.079   4.800
43797W        W16123  22.101  11.317   3.712
43798W        W16124   0.286  27.982   1.911
43799W        W16125  26.524  44.412   5.132
43800W        W16126  18.707   1.432   2.885
43801W        W16127   2.751  34.584  14.895
43802W        W16128  27.164  19.153  13.540
43803W        W16129   7.321   8.749  11.555
43804W        W16130  15.801  20.199   0.395
43805W        W16131  20.678  17.133  11.023
43806W        W16132   0.446   0.843  13.343
43807W        W16133  31.404  44.463   4.641
43808W        W16134  30.559  29.973  13.329
43809W        W16135  14.298  36.064  14.876
43810W        W16136  17.664  26.603   1.901
43811W        W16137  39.833   5.732  10.959
43812W        W16138   9.371  21.717   3.868
43813W        W16139  11.666   6.192  12.432
43814W        W16140  22.222  29.094   1.840
43815W        W16141  28.469  32.974  12.009
43816W        W16142   3.851  16.221  13.869
43817W        W16143  28.007  37.011   3.225
43818W        W16144  39.947   3.456   2.241
43819W        W16145  35.942  37.056   4.240
43820W        W16146  40.451  17.728   0.857
43821W        W16147   2.773   3.356  14.503
43822W        W16148  30.063  23.147  11.578
43823W        W16149  36.011   5.900  12.868
43824W        W16150  14.159  10.250  11.107
43825W        W16151  31.008  23.517   0.857
43826W        W16152  19.561  42.300   2.721
43827W        W16153  10.318  37.357  11.123
43828W        W16154  15.264  35.014   5.170
43829W        W16155  43.986  11.770   4.202
43830W        W16156  13.832   4.445  12.867
43831W        W16157  23.061  18.748  13.330
43832W        W16158   8.196  38.843  12.925
43833W        W16159  27.672   9.349  12.372
43834W        W16160  25.979  26.460   5.698
43835W        W16161  30.936  35.450   3.741
43836W        W16162  31.150   0.453   1.212
43837W        W16163   9.294  34.572   0.842
43838W        W16164  10.843  44.315  11.970
43839W        W16165  38.364   1.908  11.973
43840W        W16166  20.575  11.704   3.640
43841W        W16167  26.108   1.835   2.727
43842W        W16168  23.730  31.416  12.549
43843W        W16169  36.532  21.164  13.413
43844W        W16170  44.995  30.073  10.541
43845W        W16171  17.773   0.799   0.324
43846W        W16172  38.570  22.543  11.048
43847W        W16173  44.939  25.181  12.479
43848W        W16174  23.171  32.079   1.311
43849W        W16175  10.744  44.400   4.778
43850W        W16176  33.992  19.108  13.012
43851W        W16177  30.489  19.751   0.761
43852W        W16178   2.878  27.960  14.028
43853W        W16179  24.112  34.949  11.382
43854W        W16180   7.835   1.447   1.282
43855W        W16181   7.781  37.935   4.814
43856W        W16182  17.617  21.143   0.749
43857W        W16183  30.153   0.890   2.209
43858W        W16184  30.976  31.944  12.340
43859W        W16185  35.108   6.366  11.511
43860W        W16186  26.190  10.826   0.825
43861W        W16187  42.523  21.168   2.307
43862W        W16188  14.589   5.868  14.346
43863W        W16189  26.502  10.633  14.328
43864W        W16190  22.735  26.965   9.973
43865W        W16191  29.124  23.069  10.630
43866W        W16192  30.027  42.900  14.893
43867W        W16193  16.076  15.178   0.326
43868W        W16194  34.070  43.856   3.287
43869W        W16195  31.072   3.745  11.088
43870W        W16196  33.399   4.315   3.716
43871W        W16197  31.061  25.585   2.377
43872W        W16198  18.061  30.452  11.955
43873W        W16199  15.281  35.857   2.385
43874W        W16200  28.680  25.603   1.833
43875W        W16201  43.865   5.711   0.472
43876W        W16202  16.702  36.066  11.526
43877W        W16203  22.063  13.735  14.371
43878W        W16204  44.839   2.232  12.073
43879W        W16205  44.332   0.324   2.208
43880W        W16206   1.387  25.131  13.345
43881W        W16207   9.851  43.490  13.966
43882W        W16208  20.188  32.073   3.633
43883W        W16209  32.049  17.781   2.207
43884W        W16210  33.052  34.998   5.782
43885W        W16211  27.016  33.452   4.138
43886W        W16212  10.220   0.889  12.075
43887W        W16213  38.348  38.465   4.333
43888W        W16214  38.390  25.706   3.796
43889W        W16215  28.072  41.903  14.337
43890W        W16216  40.869  41.031  14.874
43891W        W16217  20.162  25.556  14.824
43892W        W16218  25.195   3.930  11.017
43893W        W16219  37.500   7.892   3.861
43894W        W16220  10.140  17.182   4.625
43895W        W16221  13.225  12.627  14.942
43896W        W16222  23.036   8.853  11.940
43897W        W16223  39.340   0.896   3.308
43898W        W16224  40.010  36.897  11.562
43899W        W16225  34.882  19.203  10.968
43900W        W16226   1.849  44.309  10.508
43901W        W16227  39.921  37.987  14.387
43902W        W16228  38.902  34.936  13.979
43903W        W16229  35.019  10.195   3.652
43904W        W16230  16.105  28.038  12.951
43905W        W16231  31.510  10.799   1.443
43906W        W16232  31.096   9.285   2.754
43907W        W16233   3.892  32.984  14.024
43908W        W16234   9.804  14.273  10.485
43909W        W16235  18.558  25.574   0.280
43910W        W16236  31.445  11.355   1.419
43911W        W16237  27.124  41.375   3.279
43912W        W16238  12.700   8.184  13.493
43913W        W16239  43.285  11.291   0.321
43914W        W16240  11.347   7.267   0.746
43915W        W16241  34.518  42.363  12.875
43916W        W16242   4.286  13.313   4.185
43917W        W16243  30.976  36.924  11.392
43918W        W16244  23.117   2.295  12.886
43919W        W16245  12.355   3.774   1.354
43920W        W16246  11.772  10.244   1.290
43921W        W16247  36.499  33.971   2.304
43922W        W16248  21.263  23.150  10.502
43923W        W16249   0.968   8.380  13.326
43924W        W16250  17.667   0.755   0.925
43925W        W16251   4.440  11.352  13.976
43926W        W16252  17.146  11.221   3.283
43927W        W16253  33.055  10.722  12.578
43928W        W16254   7.380  44.881   3.234
43929W        W16255  29.426  25.081   5.174
43930W        W16256  12.266   3.737  12.930
43931W        W16257   2.292  40.014  10.506
43932W        W16258  37.377   0.293  11.533
43933W        W16259  44.886  44.995  14.407
43934W        W16260  10.792   0.903  10.118
43935W        W16261  33.919  22.132   2.878
43936W        W16262  44.287   0.344  10.906
43937W        W16263   1.421  37.952  11.049
43938W        W16264   2.470  10.646  11.061
43939W        W16265  41.857  34.926   0.794
43940W        W16266   1.845  24.575  10.486
43941W        W16267  38.354   3.919   0.380
43942W        W16268   0.374  37.407   2.377
43943W        W16269  18.187  18.239   4.202
43944W        W16270   4.272  20.158  10.450
43945W        W16271  32.905  41.986   0.275
43946W        W16272   0.751  30.562  11.493
43947W        W16273  20.256  10.732  11.572
43948W        W16274  15.603  19.621   0.267
43949W        W16275  30.090   9.393   4.679
43950W        W16276  22.030  43.919   4.664
43951W        W16277  21.183  41.334  13.870
43952W        W16278  44.875  23.207  13.881
43953W        W16279  25.523  41.953  12.577
43954W        W16280  25.029  15.312  12.525
43955W        W16281  18.739  39.372   3.278
43956W        W16282  44.008  34.432  12.938
43957W        W16283  36.920   6.826  12.913
43958W        W16284   9.305  43.980  13.017
43959W        W16285  42.343  37.958  12.993
43960W        W16286   9.857  24.148  12.885
43961W        W16287  12.791   7.244   4.715
43962W        W16288   7.728  16.671  12.383
43963W        W16289  38.838  28.529  12.927
43964W        W16290  18.673  25.546   4.815
43965W        W16291  17.284  33.501   1.923
43966W        W16292  42.397  36.852   0.879
43967W        W16293  41.989  19.633  14.004
43968W        W16294   6.910   1.385   3.149
43969W        W16295  10.379  24.508  14.298
43970W        W16296  15.165  34.538  13.926
43971W        W16297  37.952  14.278  12.574
43972W        W16298  28.989  24.513  13.474
43973W        W16299  32.406   3.872  11.560
43974W        W16300   1.420  35.389   2.207
43975W        W16301  43.299  32.129   9.974
43976W        W16302  23.137  26.506   2.687
43977W        W16303  44.499  35.981   5.237
43978W        W16304  13.600   8.829  14.410
43979W        W16305  25.476  27.012   4.280
43980W        W16306   4.789  30.446   9.999
43981W        W16307   6.194  33.004  10.131
43982W        W16308   7.723  16.724  10.532
43983W        W16309   8.863  12.816  10.096
43984W        W16310   2.870  43.439   4.669
43985W        W16311  44.441  31.500   2.299
43986W        W16312   1.476  22.160   1.216
43987W        W16313  42.511  22.532   1.851
43988W        W16314  25.550  31.446  11.129
43989W        W16315  28.003  33.399   2.678
43990W        W16316  24.042   8.876  10.534
43991W        W16317  34.569  13.156   2.815
43992W        W16318  27.047   6.420   2.365
43993W        W16319  26.491  30.092   1.252
43994W        W16320  33.514  23.145  14.438
43995W        W16321  17.213  29.027   3.307
43996W        W16322  29.954  23.039   2.395
43997W        W16323  15.241  15.290   2.280
43998W        W16324  23.144  18.083   1.817
43999W        W16325  21.635  31.922   3.832
44000W        W16326  41.363   4.288   4.196
44001W        W16327  19.217  42.436   1.825
44002W        W16328  30.040  21.546  13.371
44003W        W16329  13.109  31.899  11.431
44004W        W16330  18.719  26.571  12.405
44005W        W16331  38.326  31.928   4.615
44006W        W16332   5.341  20.540  13.430
44007W        W16333   2.247  12.159   4.734
44008W        W16334  37.350  22.105   1.400
44009W        W16335  40.034   5.356   1.890
44010W        W16336  27.489  13.655  13.324
44011W        W16337   5.850  35.588   3.777
44012W        W16338   6.292  15.607  11.576
44013W        W16339  23.532   5.314   0.292
44014W        W16340  27.976  38.504   1.785
44015W        W16341  43.926  15.201   2.875
44016W        W16342   9.675  32.594   3.378
44017W        W16343  18.118  28.502  12.473
44018W        W16344   3.890  39.544   2.767
44019W        W16345  20.052   1.462  12.829
44020W        W16346  20.241   6.193  14.768
44021W        W16347   1.924  24.531  14.295
44022W        W16348  43.480  38.416  13.006
44023W        W16349   7.850  33.010  11.380
44024W        W16350  29.058  41.512  13.366
44025W        W16351  10.730  30.432   1.439
44026W        W16352  36.053  27.486   3.802
44027W        W16353  14.737  36.995  11.089
44028W        W16354   4.701   7.349   5.245
44029W        W16355   2.798   1.900   2.751
44030W        W16356  25.481  13.806  12.572
44031W        W16357   0.327  39.997  13.997
44032W        W16358   1.758  27.000   2.672
44033W        W16359  13.693  33.907   4.656
44034W        W16360  24.070   4.855  10.422
44035W        W16361   4.889  18.108  12.440
44036W        W16362  29.000  14.280   4.234
44037W        W16363   8.681  30.472   1.262
44038W        W16364  19.065   7.774  13.336
44039W        W16365   3.784  36.021   1.902
44040W        W16366  35.879  42.980   4.728
44041W        W16367  11.639  11.186  12.498
44042W        W16368  36.584  30.654  13.859
44043W        W16369  20.712  39.838   4.614
44044W        W16370  13.788  25.063   1.281
44045W        W16371  27.993  26.646   0.412
44046W        W16372  34.398  24.528  14.827
44047W        W16373  31.101  14.191  10.956
44048W        W16374  29.653   3.449   1.880
44049W        W16375   5.263  40.929   4.605
44050W        W16376  37.408  17.210   3.723
44051W        W16377  36.407  14.721  11.503
44052W        W16378   0.876  37.492  10.147
44053W        W16379  34.450  27.503  12.964
44054W        W16380  42.857  34.571  13.952
44055W        W16381  13.667  13.633  12.365
44056W        W16382  10.204  39.863   2.795
44057W        W16383  31.485  22.617  11.043
44058W        W16384  28.163   3.219   0.385
44059W        W16385  27.462   8.778   4.182
44060W        W16386  36.488  28.637  11.598
44061W        W16387  12.169  37.496  13.941
44062W        W16388  14.705  26.653   5.677
44063W        W16389  31.614  23.006   0.320
44064W        W16390  28.587  39.874  13.878
44065W        W16391  39.840  26.092   4.739
44066W        W16392  20.129   0.906  13.376
44067W        W16393  42.440   6.380   3.235
44068W        W16394  18.766  24.982  14.998
44069W        W16395  37.884  14.234   0.728
44070W        W16396  34.020  36.033  10.104
44071W        W16397  10.640  17.666   0.851
44072W        W16398  24.016  30.050  13.428
44073W        W16399   7.680  33.491   5.092
44074W        W16400  30.039  22.033  14.804
44075W        W16401  38.076  44.419  10.412
44076W        W16402   0.936  23.666   3.350
44077W        W16403   6.887  11.821   2.316
44078W        W16404  26.466   3.391   4.260
44079W        W16405  26.549  44.462  13.825
44080W        W16406  36.861  37.850  13.320
44081W        W16407   0.859  43.388  14.975
44082W        W16408   2.828  26.187   0.782
44083W        W16409  27.502  26.699   4.615
44084W        W16410  36.589   1.844  13.535
44085W        W16411  32.047  24.624  14.374
44086W        W16412  14.611   5.908   0.292
44087W        W16413  34.382   0.759   4.712
44088W        W16414  33.381   0.254  13.031
44089W        W16415  28.542  21.105  11.410
44090W        W16416  30.457  30.571   1.694
44091W        W16417  30.521  37.395  13.379
44092W        W16418  20.579  32.432  10.906
44093W        W16419   9.872  39.897  13.426
44094W        W16420  20.724  44.331  13.405
44095W        W16421  36.575   9.821  11.905
44096W        W16422  19.255  16.244  11.401
44097W        W16423  42.432   7.694  13.044
44098W        W16424  29.996   6.393   2.686
44099W        W16425  40.463  40.548  14.354
44100W        W16426   4.706  11.161  13.989
44101W        W16427   7.669  41.327   0.914
44102W        W16428  13.223  27.992  10.641
44103W        W16429  15.603  27.476   2.354
44104W        W16430  25.567  14.670  14.808
44105W        W16431  28.012  34.974   1.239
44106W        W16432  26.001   4.850   2.229
44107W        W16433   3.291  22.133   3.748
44108W        W16434  35.522  24.513  12.865
44109W        W16435   0.338  14.174  12.961
44110W        W16436   1.917   5.264  12.417
44111W        W16437  37.886  35.954  10.889
44112W        W16438   1.969  11.658   2.808
44113W        W16439  23.042  26.086  12.490
44114W        W16440  16.576  18.206  14.381
44115W        W16441   5.202  21.668  12.353
44116W        W16442   9.332   6.779  11.049
44117W        W16443  30.069  18.567  12.549
44118W        W16444  30.985   3.835   1.830
44119W        W16445  36.022  35.593  14.370
44120W        W16446  29.584  33.068  12.500
44121W        W16447   4.372  36.391  14.377
44122W        W16448  42.025   8.897   2.319
44123W        W16449  11.330  12.132   0.816
44124W        W16450  31.988  16.601   3.202
44125W        W16451  16.746   7.302   1.264
44126W        W16452   6.391  15.184   1.308
44127W        W16453  44.976  38.890  12.077
44128W        W16454  22.646   8.752   0.774
44129W        W16455  30.154  43.765  13.427
44130W        W16456  35.365  12.155   1.709
44131W        W16457   1.820  17.096   4.312
44132W        W16458  35.106  29.083   4.333
44133W        W16459  13.703  19.687  11.515
44134W        W16460  29.620  15.313  14.902
44135W        W16461  40.506   8.231   0.767
44136W        W16462  21.542  25.477   1.438
44137W        W16463  39.465  34.561  13.343
44138W        W16464  16.590  43.361   0.912
44139W        W16465  42.445  10.376   0.393
44140W        W16466   6.210  20.145   3.684
44141W        W16467  20.739  39.555   0.875
44142W        W16468  24.113  28.168  14.335
44143W        W16469  20.203   2.301  14.374
44144W        W16470  44.371  19.581  12.839
44145W        W16471  15.193   4.846   3.630
44146W        W16472  15.644   1.859  11.035
44147W        W16473  25.683   2.858  10.527
44148W        W16474  30.089  42.026  14.293
44149W        W16475  29.028  38.393  14.890
44150W        W16476  18.138  11.238  12.956
44151W        W16477  16.774   4.340   1.851
44152W        W16478  15.304   0.333   4.182
44153W        W16479   4.245  32.544  11.118
44154W        W16480   3.793  35.029   0.732
44155W        W16481  24.091  33.961  11.394
44156W        W16482  30.518  37.052  10.909
44157W        W16483  17.712  36.007   4.762
44158W        W16484  33.054   5.369   2.801
44159W        W16485  30.131  15.113  10.449
44160W        W16486   4.334  30.601  11.432
44161W        W16487  38.389  14.206  10.551
44162W        W16488  11.310  43.349  12.063
44163W        W16489  27.643  30.972  12.971
44164W        W16490  25.532  10.823   3.732
44165W        W16491  13.713  32.895  11.888
44166W        W16492  26.698   9.225  13.476
44167W        W16493   6.751  21.612  14.993
44168W        W16494  42.439   4.908   0.344
44169W        W16495   4.208   4.889   3.765
44170W        W16496  15.604  38.383   4.294
44171W        W16497  30.446  30.501  13.447
44172W        W16498   2.430  17.154  11.972
44173W        W16499  34.576  17.740   0.249
44174W        W16500  28.549   2.413  12.915
44175W        W16501   4.907  12.835   0.245
44176W        W16502  25.680  31.503   3.374
44177W        W16503  42.777  19.775   1.313
44178W        W16504   5.428  35.483  14.005
44179W        W16505  32.096  36.090   0.266
44180W        W16506   1.290  44.774   4.811
44181W        W16507  15.129  42.008   3.162
44182W        W16508  20.705   1.404   1.723
44183W        W16509  11.855  41.875  10.931
44184W        W16510  24.573   9.666  11.465
44185W        W16511  27.943   8.741  14.397
44186W        W16512   1.278   9.832  10.034
44187W        W16513  44.411   9.879  14.993
44188W        W16514  28.114  34.468   1.372
44189W        W16515  31.559  34.029  12.435
44190W        W16516   1.834  28.668  11.115
44191W        W16517  13.772  28.456  13.386
44192W        W16518   8.677  13.170   3.379
44193W        W16519  36.464  14.169   0.320
44194W        W16520  11.351  29.958   3.353
44195W        W16521  12.263  21.684  11.068
44196W        W16522  11.833  43.784  13.395
44197W        W16523  41.952  44.386  14.390
44198W        W16524   7.876  43.279   2.391
44199W        W16525  17.142  41.495  13.008
44200W        W16526  39.926  34.586   3.696
44201W        W16527  10.222  28.510  12.376
44202W        W16528  13.114  18.608   3.814
44203W        W16529  24.124   8.817   3.782
44204W        W16530   1.261  15.312   3.338
44205W        W16531  23.159   1.334  14.464
44206W        W16532  34.957   7.699  10.904
44207W        W16533  12.686   9.784  12.975
44208W        W16534  17.288  19.186  14.328
44209W        W16535   5.271  19.714   1.240
44210W        W16536  27.950   9.341  10.448
44211W        W16537   2.271  39.542   3.372
44212W        W16538  31.053  32.932   2.354
44213W        W16539  27.103  41.902  12.983
44214W        W16540   3.385   4.825  12.043
44215W        W16541   2.852  44.473   2.267
44216W        W16542   3.357  41.793   1.794
44217W        W16543  33.399  25.150   4.810
44218W        W16544  17.231   9.752  11.542
44219W        W16545  27.154  40.354   2.347
44220W        W16546  18.561  29.118   4.123
44221W        W16547   7.263  44.286  10.986
44222W        W16548  38.385  19.567  13.372
44223W        W16549  33.618  40.524  13.910
44224W        W16550   6.791  18.134  10.431
44225W        W16551  35.942  31.954   3.149
44226W        W16552   9.286   4.408  12.500
44227W        W16553   1.955  37.896   1.929
44228W        W16554  40.515  43.369  12.985
44229W        W16555  19.203   1.799  14.364
44230W        W16556   7.364   8.225   4.832
44231W        W16557  17.596  35.450   4.606
44232W        W16558  28.134  13.121   1.919
44233W        W16559  18.122  16.723   1.855
44234W        W16560  13.789  44.350  12.047
44235W        W16561  15.213   7.291  11.869
44236W        W16562  20.700  26.489   1.404
44237W        W16563  40.419  41.313  10.516
44238W        W16564  11.353   9.297   1.792
44239W        W16565  42.456  39.030  12.405
44240W        W16566   7.789  24.693  13.474
44241W        W16567  35.499  40.837   4.303
44242W        W16568  12.713   3.248  13.454
44243W        W16569  30.459   5.280  10.615
44244W        W16570  38.959   4.863  12.016
44245W        W16571  21.740  18.153  14.393
44246W        W16572   6.316  41.907   0.463
44247W        W16573  32.445  21.521   4.341
44248W        W16574  43.446  15.285   4.639
44249W        W16575  17.122  10.804   3.644
44250W        W16576   0.771  22.035  12.875
44251W        W16577  31.512  19.188   2.211
44252W        W16578  24.093  12.323   3.330
44253W        W16579  29.012  21.144   1.242
44254W        W16580  15.193  18.286  12.874
44255W        W16581   7.837   4.787   9.985
44256W        W16582  38.552  14.765  12.419
44257W        W16583  21.722  43.315  14.514
44258W        W16584  32.613  34.444  13.464
44259W        W16585  17.598  30.148  13.407
44260W        W16586  32.611  32.082   0.747
44261W        W16587  28.066  35.866  10.507
44262W        W16588  16.210  29.551   2.844
44263W        W16589  19.066  37.506   1.770
44264W        W16590   1.774   1.313  14.009
44265W        W16591  27.989   2.810   1.778
44266W        W16592  32.413  33.542   4.259
44267W        W16593  21.254  17.174  12.529
44268W        W16594   5.437  42.450  11.605
44269W        W16595  14.207   1.297  14.994
44270W        W16596  41.510  32.066  14.851
44271W        W16597  30.654  20.632  13.441
44272W        W16598  16.611  44.327  12.492
44273W        W16599  16.304  44.475  14.875
44274W        W16600  11.303  26.082   3.293
44275W        W16601   8.734  29.114  12.970
44276W        W16602  37.363  37.474   3.708
44277W        W16603   5.348  13.647   4.755
44278W        W16604  34.395   8.790  11.043
44279W        W16605   6.735  38.500   2.356
44280W        W16606   6.875  44.379   0.389
44281W        W16607   8.818  33.113   3.836
44282W        W16608  22.173  27.150   0.749
44283W        W16609   8.356  44.759   3.860
44284W        W16610  18.656  31.573   3.795
44285W        W16611  18.062  24.610  10.896
44286W        W16612  19.233  36.930   3.790
44287W        W16613  43.021  28.009  12.077
44288W        W16614  14.302   4.798   1.280
44289W        W16615   7.313   4.868   3.265
44290W        W16616  14.116  16.089   2.284
44291W        W16617  19.741  22.181   2.863
44292W        W16618  41.416  34.096   4.635
44293W        W16619  42.496  24.028   4.724
44294W        W16620   5.779   9.254   3.204
44295W        W16621  23.662  15.197   3.185
44296W        W16622  38.353  36.545   1.249
44297W        W16623  14.316  26.207   2.872
44298W        W16624  18.716  39.017   0.843
44299W        W16625  21.189   1.784  12.391
44300W        W16626   1.442  30.617  10.918
44301W        W16627  33.125  44.857  14.807
44302W        W16628  40.007  42.382  11.932
44303W        W16629  39.390  22.115  11.928
44304W        W16630  37.420  44.909   1.366
44305W        W16631  36.037   4.347   1.337
44306W        W16632   2.371  35.898   5.091
44307W        W16633   3.377  26.682   2.870
44308W        W16634  15.758   0.295  10.413
44309W        W16635  16.122  41.791   1.253
44310W        W16636  20.181  30.930  14.305
44311W        W16637   3.261  40.458  11.898
44312W        W16638  25.983  27.472  13.860
44313W        W16639  31.935  23.035  12.483
44314W        W16640  36.432   9.161  11.603
44315W        W16641  14.755  29.147  10.001
44316W        W16642  38.497  27.987   0.483
44317W        W16643  11.174  24.589   1.758
44318W        W16644  18.706  22.648   2.802
44319W        W16645  28.571   0.493   4.282
44320W        W16646  31.092   8.667  13.352
44321W        W16647  33.919  31.413   3.863
44322W        W16648  25.204  13.821   4.265
44323W        W16649  20.107  19.063  13.882
44324W        W16650  43.356  12.329   2.695
44325W        W16651   3.219  38.898   3.146
44326W        W16652  29.957  36.548   0.835
44327W        W16653   4.796  22.188  12.480
44328W        W16654   0.268  37.880  11.934
44329W        W16655  31.909  33.953   2.251
44330W        W16656  33.092  35.006  11.118
44331W        W16657  36.460  34.106  12.343
44332W        W16658   1.327  44.940   2.885
44333W        W16659  23.515  32.033  11.015
44334W        W16660  14.142  12.162  10.456
44335W        W16661  43.987   6.375   1.744
44336W        W16662  26.491  18.234   3.854
44337W        W16663  34.581  40.313  12.910
44338W        W16664  17.641   4.253   2.807
44339W        W16665  20.661  14.688  13.326
44340W        W16666  36.888  14.783   0.929
44341W        W16667   4.845  14.165   1.804
44342W        W16668  33.105  11.305   4.663
44343W        W16669  39.851  24.486  13.987
44344W        W16670  20.634   3.389  14.020
44345W        W16671  37.048  40.912   0.845
44346W        W16672  13.631  32.621   4.598
44347W        W16673  33.120  27.511   2.696
44348W        W16674  23.035   7.337  14.331
44349W        W16675  12.344  10.376  10.568
44350W        W16676  13.644   2.240   0.855
44351W        W16677  35.377  40.399  12.089
44352W        W16678  31.638   5.196  12.081
44353W        W16679  31.544  15.292  13.350
44354W        W16680   3.834  11.155  10.949
44355W        W16681  12.344  19.156  12.993
44356W        W16682  18.683  34.097  12.931
44357W        W16683  27.450  31.596   0.771
44358W        W16684  23.597  20.715   0.446
44359W        W16685  24.136  13.780  11.956
44360W        W16686   7.812  26.196   4.235
44361W        W16687  44.457   6.677   1.852
44362W        W16688  18.657  26.121  13.362
44363W        W16689   9.828  39.457  10.406
44364W        W16690  44.284  12.635   3.784
44365W        W16691  13.717  29.454  13.808
44366W        W16692  40.394  21.572   4.173
44367W        W16693   6.801   4.723  10.115
44368W        W16694  40.548  37.378  12.886
44369W        W16695  14.651   3.397  13.815
44370W        W16696  29.437  39.362   1.932
44371W        W16697   3.895  11.347   0.831
44372W        W16698  25.166   8.886  10.529
44373W        W16699   1.361  44.338   2.822
44374W        W16700   9.359  25.166   4.313
44375W        W16701  43.445   0.314   4.598
44376W        W16702   7.729  19.773   1.837
44377W        W16703   1.923  27.122   0.958
44378W        W16704  43.296  38.824  14.340
44379W        W16705   2.283  24.213  14.001
44380W        W16706  30.613  29.557  13.507
44381W        W16707  35.501  13.266   1.315
44382W        W16708  24.155  30.458  12.519
44383W        W16709   5.302   0.882   3.840
44384W        W16710  12.701  35.504  13.507
44385W        W16711  37.013  32.556  13.328
44386W        W16712  37.509   3.837   3.355
44387W        W16713   4.833   1.942  11.561
44388W        W16714   8.895  26.531  14.933
44389W        W16715  34.483   8.300  14.295
44390W        W16716  33.893  43.305   3.690
44391W        W16717  33.046  43.918  12.421
44392W        W16718  44.009  33.111   1.836
44393W        W16719   4.766  39.878   0.440
44394W        W16720  41.952   3.829  14.466
44395W        W16721   2.940  14.674  13.397
44396W        W16722  38.452  34.400   4.116
44397W        W16723  25.997  31.479   2.776
44398W        W16724  35.369  41.485   4.257
44399W        W16725  11.718  28.021  13.326
44400W        W16726   2.398  43.398  10.460
44401W        W16727  42.858  13.723  13.418
44402W        W16728   0.926  24.977   3.222
44403W        W16729  38.543   3.334  10.564
44404W        W16730  42.973  23.735  12.453
44405W        W16731  26.501  24.535   4.800
44406W        W16732  16.674   3.431  11.422
44407W        W16733   2.411  11.653  12.937
44408W        W16734   7.378   6.696   1.747
44409W        W16735   8.314  21.593   4.836
44410W        W16736  26.093  39.441   3.677
44411W        W16737  30.064  38.385  14.896
44412W        W16738  37.831   1.900   0.361
44413W        W16739   9.183  16.625   1.300
44414W        W16740  23.055  16.264   4.204
44415W        W16741  22.520   3.420  12.071
44416W        W16742  37.378  18.669   0.281
44417W        W16743  24.125  34.941  12.027
44418W        W16744  13.672  33.580  11.561
44419W        W16745  28.014  26.078   9.445
44420W        W16746  15.244  13.198  10.628
44421W        W16747  11.173  30.015  13.451
44422W        W16748  43.385   2.302  14.949
44423W        W16749  29.175  43.906  14.458
44424W        W16750  36.920  31.037   4.180
44425W        W16751  25.194   8.857   4.704
44426W        W16752  36.877   8.859  11.477
44427W        W16753  37.991  32.971  10.572
44428W        W16754  34.551  14.209  12.380
44429W        W16755  15.731  28.006  14.490
44430W        W16756   3.768  28.592  12.067
44431W        W16757  37.835  42.836   0.786
44432W        W16758  12.832  27.462   1.214
44433W        W16759  39.877  40.970   2.215
44434W        W16760  43.427   0.844   3.804
44435W        W16761   9.870  38.005  13.426
44436W        W16762  25.004  19.170   4.619
44437W        W16763   4.743  13.654   3.635
44438W        W16764  35.458   0.281   1.762
44439W        W16765  18.175  17.244  12.419
44440W        W16766  39.466  16.185   2.245
44441W        W16767  27.050  42.835  12.985
44442W        W16768  31.958  35.104   0.369
44443W        W16769   7.800  21.085   4.180
44444W        W16770  35.983   1.742  13.847
44445W        W16771  11.708  19.694   2.710
44446W        W16772   7.241  13.319  12.438
44447W        W16773  34.592   1.825   0.776
44448W        W16774  12.699  36.914   1.402
44449W        W16775   6.757  13.241   0.454
44450W        W16776  38.917  12.166  14.317
44451W        W16777  13.846   5.918  10.458
44452W        W16778  21.545   2.729  14.439
44453W        W16779  27.627  22.064   3.248
44454W        W16780  19.747  43.435   3.809
44455W        W16781  25.129  29.997   3.275
44456W        W16782  22.105  40.480  12.375
44457W        W16783   7.325  34.590  11.897
44458W        W16784   8.722  26.632   4.307
44459W        W16785  31.591  44.481  13.450
44460W        W16786  15.715  31.619   0.428
44461W        W16787  15.778  22.702  11.986
44462W        W16788  11.162  12.163   3.313
44463W        W16789  27.603   9.739   2.682
44464W        W16790  17.787   7.716   4.669
44465W        W16791  20.174  35.411   1.447
44466W        W16792  37.054  19.073  13.462
44467W        W16793  25.020  25.056  12.065
44468W        W16794  40.862  25.101   1.212
44469W        W16795  40.851  18.202  12.868
44470W        W16796  39.345  38.064  10.451
44471W        W16797  34.897  14.685  10.509
44472W        W16798  21.140  35.073   1.835
44473W        W16799  26.700  39.044  10.427
44474W        W16800  35.431   5.429   1.913
44475W        W16801  25.979  42.415  14.470
44476W        W16802   6.735   2.786   4.758
44477W        W16803  28.493  31.128  13.880
44478W        W16804  17.670  34.081  14.382
44479W        W16805   4.870   8.244   3.168
44480W        W16806  10.320   1.273   0.378
44481W        W16807  22.568  26.078  11.937
44482W        W16808  17.706  38.910  10.004
44483W        W16809  40.326  35.419   0.816
44484W        W16810  10.775   5.323  14.399
44485W        W16811   5.836  23.580  12.978
44486W        W16812  20.647   9.765   3.283
44487W        W16813  10.804  37.530   2.318
44488W        W16814   8.800  41.946  12.552
44489W        W16815  37.982  35.585  13.904
44490W        W16816   0.416  30.618   1.446
44491W        W16817   5.293  24.012  10.539
44492W        W16818  16.595   5.813  11.056
44493W        W16819  31.460   1.975   3.672
44494W        W16820   7.235  36.955   1.745
44495W        W16821  31.564  12.285  14.482
44496W        W16822   0.904  10.314   4.203
44497W        W16823  33.539  21.042   0.432
44498W        W16824  18.166  42.325  11.032
44499W        W16825  42.907  29.139  14.964
44500W        W16826   8.762  29.936  13.886
44501W        W16827   6.223  28.058   1.328
44502W        W16828   8.305  41.296   1.703
44503W        W16829  31.580   4.264  10.932
44504W        W16830   6.315  39.457   4.304
44505W        W16831   8.794  32.012  14.966
44506W        W16832  13.270   2.903   0.886
44507W        W16833  16.807  34.023   4.200
44508W        W16834  27.670  25.695   2.677
44509W        W16835  30.989  44.395  12.397
44510W        W16836  33.044  38.013   3.712
44511W        W16837  29.620  33.621   4.700
44512W        W16838  39.317  29.433  12.037
44513W        W16839   5.763  33.474   3.180
44514W        W16840  41.926   3.894  12.543
44515W        W16841  37.979   3.277   1.772
44516W        W16842  30.530  37.055   0.394
44517W        W16843  23.140  42.847   2.289
44518W        W16844   8.788  10.324  10.553
44519W        W16845  27.167   1.824  10.949
44520W        W16846  29.632   2.450   1.828
44521W        W16847   8.246  34.584   3.646
44522W        W16848  31.946  40.435   1.921
44523W        W16849   5.373  33.121  13.953
44524W        W16850  29.495   4.897   0.373
44525W        W16851  25.483  38.373   0.764
44526W        W16852  10.827  43.496   1.425
44527W        W16853  13.118  11.859   5.203
44528W        W16854  30.561  33.876   4.333
44529W        W16855  33.406  33.875  12.565
44530W        W16856  12.818   9.264  12.934
44531W        W16857   7.382  29.591   2.753
44532W        W16858  41.984  27.061   0.941
44533W        W16859  10.707  17.159  13.477
44534W        W16860  30.959  19.094  11.440
44535W        W16861  42.008  14.713  13.833
44536W        W16862   8.828  35.386   0.811
44537W        W16863  10.196  36.038   2.367
44538W        W16864  18.285  31.140   3.781
44539W        W16865  38.835  39.955   3.193
44540W        W16866   0.949   8.324   1.838
44541W        W16867  38.022  41.448  14.908
44542W        W16868  39.821  28.164   4.165
44543W        W16869  26.624   6.354   0.316
44544W        W16870   8.368  22.663  12.436
44545W        W16871   5.857   7.786   3.194
44546W        W16872  21.056   2.289   2.745
44547W        W16873   3.750  34.437   2.678
44548W        W16874  23.228  22.248   0.278
44549W        W16875  24.676  30.498  14.299
44550W        W16876  31.042  24.608  14.312
44551W        W16877  38.872  20.721  11.925
44552W        W16878  40.924  42.874  12.528
44553W        W16879  14.603   0.755  14.372
44554W        W16880  32.930   9.239   3.164
44555W        W16881  32.946  39.910  12.389
44556W        W16882  10.251  11.811   1.928
44557W        W16883  19.076   4.295  14.028
44558W        W16884  14.127  44.417  12.896
44559W        W16885  17.185   6.281  12.890
44560W        W16886   4.874  35.541  13.834
44561W        W16887  13.843  29.454  12.824
44562W        W16888  23.682   3.715  11.106
44563W        W16889  42.975   8.809   5.285
44564W        W16890   4.716   1.795  11.012
44565W        W16891  13.129  33.991   2.347
44566W        W16892  16.118  31.004  14.399
44567W        W16893  39.988   7.884   0.879
44568W        W16894  22.576  19.550  12.407
44569W        W16895  40.536  29.102  11.891
44570W        W16896  20.043  38.426   0.917
44571W        W16897  17.772   5.403   2.402
44572W        W16898   6.338  40.005  11.045
44573W        W16899   0.367  21.639  13.469
44574W        W16900   8.797   4.753   4.695
44575W        W16901  24.195  41.903  13.034
44576W        W16902   6.807  17.300  14.788
44577W        W16903  29.550  20.631   1.313
44578W        W16904  18.635  11.823   4.618
44579W        W16905  22.562  20.149   0.294
44580W        W16906  16.587  42.419  11.528
44581W        W16907  35.918  19.077   4.265
44582W        W16908  44.791  38.878   1.815
44583W        W16909  22.176  41.959   2.749
44584W        W16910  44.438  34.941  14.294
44585W        W16911  10.354   3.713  11.529
44586W        W16912   0.783  31.592  10.907
44587W        W16913   1.285  15.671  11.607
44588W        W16914  16.212  37.476   4.269
44589W        W16915  39.928  30.659   0.942
44590W        W16916  23.673  14.633  11.513
44591W        W16917  34.491  36.964  11.858
44592W        W16918  15.185  43.914  12.459
44593W        W16919  10.713  12.628  13.036
44594W        W16920  27.963  44.763  11.495
44595W        W16921  29.490  13.287   1.825
44596W        W16922  31.523  25.987  10.497
44597W        W16923  30.537  12.739  14.784
44598W        W16924   6.848  37.989  13.824
44599W        W16925  31.152  40.033   1.933
44600W        W16926   8.228   4.259   4.302
44601W        W16927  37.878  36.413  10.937
44602W        W16928  26.673  13.345   2.190
44603W        W16929   7.373  20.549   4.220
44604W        W16930  41.929  22.125  11.905
44605W        W16931  28.608  13.165  10.622
44606W        W16932  19.553  21.177   3.152
44607W        W16933  31.409   2.839  13.951
44608W        W16934  10.804   1.382  12.563
44609W        W16935  37.894  28.661  13.397
44610W        W16936  26.545   1.314   3.645
44611W        W16937  25.597  16.593   2.862
44612W        W16938  10.369  27.001  13.926
44613W        W16939  34.421   2.749  14.859
44614W        W16940  17.768  36.575   0.885
44615W        W16941  23.187  36.577  11.496
44616W        W16942   6.364   7.179  11.981
44617W        W16943  18.703  12.628   4.295
44618W        W16944  42.800  31.615   0.828
44619W        W16945   9.881  13.148   0.338
44620W        W16946   4.902  34.926  12.880
44621W        W16947  32.517  28.105   1.421
44622W        W16948  37.918  43.963  12.847
44623W        W16949  35.987  24.179   2.716
44624W        W16950  20.736   8.747   2.706
44625W        W16951  21.189  11.732  14.956
44626W        W16952  42.007  26.700   1.892
44627W        W16953  35.485  41.994   2.387
44628W        W16954  37.998  30.486  14.814
44629W        W16955  20.549  27.558  14.398
44630W        W16956  36.017  41.496  14.955
44631W        W16957  25.621   6.332   4.672
44632W        W16958   1.418  15.148   4.188
44633W        W16959  39.999  42.450   4.163
44634W        W16960   4.833  41.505  13.437
44635W        W16961   1.398  10.245  14.938
44636W        W16962  40.889   5.305  12.088
44637W        W16963  18.217  19.213   1.366
44638W        W16964  14.098   4.426  13.878
44639W        W16965  16.208   5.731  11.104
44640W        W16966  40.018  35.524   1.756
44641W        W16967  27.545  23.635  11.606
44642W        W16968  20.198  22.545   2.667
44643W        W16969  23.108  18.644   4.777
44644W        W16970  43.793  29.644   1.764
44645W        W16971  43.364  12.341   1.877
44646W        W16972   6.388   7.804   3.766
44647W        W16973  21.038  26.666  12.960
44648W        W16974  11.279  13.238   4.351
44649W        W16975  34.583   4.363   2.312
44650W        W16976  18.233  18.218  11.601
44651W        W16977  21.030  37.356  11.926
44652W        W16978  40.913  12.183  11.454
44653W        W16979  21.734  11.658   4.286
44654W        W16980  19.685  35.460   0.419
44655W        W16981  22.745  17.071   0.904
44656W        W16982  39.540  39.946   2.321
44657W        W16983  11.690  38.879  14.023
44658W        W16984   3.751  21.106   4.653
44659W        W16985  22.545  36.399  12.929
44660W        W16986  35.393  38.007  11.379
44661W        W16987   3.772   1.742  11.436
44662W        W16988  30.138  22.502  10.962
44663W        W16989  43.417   2.282  14.411
44664W        W16990  31.941  44.998  10.614
44665W        W16991   0.256   9.797   4.832
44666W        W16992  29.540  20.563   0.432
44667W        W16993  28.464  42.904  12.021
44668W        W16994   8.696   8.741  12.536
44669W        W16995  44.328  29.523  14.283
44670W        W16996  23.724  16.591  14.303
44671W        W16997  30.109  44.817  10.959
44672W        W16998  18.170  35.104   2.855
44673W        W16999  28.007  10.768  10.472
44674W        W17000  26.121  27.523   1.382
44675W        W17001  44.492  37.510  11.038
44676W        W17002  35.933  35.574  14.812
44677W        W17003  30.628   7.677  13.922
44678W        W17004  29.000  21.714  14.316
44679W        W17005  39.499  42.401  13.043
44680W        W17006  39.349  34.537   4.626
44681W        W17007  30.993  19.172  11.983
44682W        W17008  33.004  26.558   1.810
44683W        W17009  18.250   6.239  14.291
44684W        W17010  34.866  12.127   1.912
44685W        W17011  16.181  26.067  12.474
44686W        W17012  44.430   4.241   1.773
44687W        W17013   9.798   2.926  11.919
44688W        W17014   6.323  19.224   3.716
44689W        W17015  13.735  12.777  12.344
44690W        W17016  25.075   8.842   3.700
44691W        W17017  32.615  43.302  14.847
44692W        W17018  16.210  27.012  11.127
44693W        W17019  41.988  42.872   3.711
44694W        W17020   6.862  18.582  12.094
44695W        W17021  27.961  33.035  12.895
44696W        W17022   1.343  14.764  11.001
44697W        W17023   3.324   4.321   1.236
44698W        W17024  24.176  32.054   4.709
44699W        W17025  38.540  21.544  11.376
44700W        W17026  12.825   9.854  11.529
44701W        W17027   2.403  20.662   5.174
44702W        W17028  21.726  22.184  12.997
44703W        W17029  18.555  30.121  11.519
44704W        W17030  38.855   2.804   2.217
44705W        W17031   4.885  36.463  12.999
44706W        W17032  43.283  21.076   1.710
44707W        W17033   3.460   6.707   3.231
44708W        W17034  28.182  20.660   1.248
44709W        W17035  42.410  12.209   1.818
44710W        W17036  23.512  20.674   0.906
44711W        W17037  37.989  34.529   1.411
44712W        W17038  21.054  13.309  14.425
44713W        W17039   6.765  27.016   2.666
44714W        W17040  23.039   5.737   0.750
44715W        W17041  33.069  12.314   4.708
44716W        W17042   9.239  31.033  10.945
44717W        W17043   9.701   8.389   4.259
44718W        W17044  26.630  12.161  11.910
44719W        W17045  37.961  44.831   0.262
44720W        W17046   0.398  19.220   3.320
44721W        W17047  27.049  36.377   1.426
44722W        W17048  32.985  18.747  13.829
44723W        W17049  22.604  30.910  12.926
44724W        W17050  16.207  34.035   3.736
44725W        W17051   5.315  24.125  12.850
44726W        W17052  16.747  24.714   2.785
44727W        W17053  36.884  39.826   4.352
44728W        W17054  16.673  41.326  14.031
44729W        W17055  17.678  11.320   1.353
44730W        W17056  20.687  17.789  13.902
44731W        W17057   6.344  31.950  11.999
44732W        W17058  37.057  31.430  11.484
44733W        W17059  40.319  15.769  13.833
44734W        W17060  42.373  30.560   0.255
44735W        W17061  15.605   7.878   1.921
44736W        W17062   0.778   9.784  11.598
44737W        W17063  43.780   9.746  12.894
44738W        W17064  29.982  22.687   4.762
44739W        W17065  33.107  44.389  13.806
44740W        W17066   3.954   8.318   3.652
44741W        W17067  41.814  23.678   1.302
44742W        W17068  44.312  39.023   0.425
44743W        W17069  38.029   4.876   1.447
44744W        W17070  41.820  32.080   5.085
44745W        W17071   2.377  40.872   2.724
44746W        W17072  41.991   5.716  14.843
44747W        W17073  39.401  13.788   4.711
44748W        W17074   5.361  21.160   4.790
44749W        W17075   2.292  22.157   0.269
44750W        W17076   6.858  19.193  12.980
44751W        W17077   6.707   6.242   2.833
44752W        W17078   2.353   1.753  12.895
44753W        W17079  12.130   3.307   1.263
44754W        W17080   0.760   2.290  12.025
44755W        W17081  33.492  30.050  11.962
44756W        W17082  41.885  18.605   5.190
44757W        W17083  41.884  32.140   4.136
44758W        W17084  12.681   5.903  10.920
44759W        W17085   3.921   2.269   1.728
44760W        W17086  20.192  24.133   1.803
44761W        W17087   0.883  29.076  12.863
44762W        W17088  33.959   5.861  14.361
44763W        W17089  17.715  21.673  12.929
44764W        W17090   1.910   2.277   9.510
44765W        W17091  30.490  18.103  14.881
44766W        W17092  39.479  42.806  12.561
44767W        W17093  19.096  36.012   4.185
44768W        W17094  44.904  39.904  11.550
44769W        W17095  19.245   8.403   4.162
44770W        W17096  14.242   9.818   1.384
44771W        W17097  39.449  30.446   5.153
44772W        W17098  40.454  15.622   3.668
44773W        W17099  38.348  24.997  14.977
44774W        W17100  26.503  22.118   0.442
44775W        W17101  26.461  44.963  11.596
44776W        W17102  31.112  35.556  14.928
44777W        W17103  40.834  22.660   4.216
44778W        W17104   5.716  21.215   0.451
44779W        W17105   8.358  31.992  10.611
44780W        W17106   5.202  22.179  14.933
44781W        W17107  27.586  26.643   4.201
44782W        W17108  39.519  29.514  12.389
44783W        W17109   9.194  41.869   2.249
44784W        W17110  13.277   4.942  10.141
44785W        W17111  20.568  13.784  12.419
44786W        W17112  24.033  21.717   3.777
44787W        W17113  28.960  38.429   4.707
44788W        W17114  20.726  30.160   2.719
44789W        W17115   7.213  32.898  13.347
44790W        W17116  32.561  16.684   2.781
44791W        W17117  42.878  34.056  11.522
44792W        W17118   9.644  43.505   1.743
44793W        W17119  40.342  13.197  11.043
44794W        W17120  13.627  34.427   0.894
44795W        W17121  41.446  16.792   1.443
44796W        W17122  22.102  21.249  14.311
44797W        W17123  30.446   1.396   4.661
44798W        W17124  20.638  17.759  11.491
44799W        W17125  24.209   7.678   2.259
44800W        W17126  32.390   8.175  14.861
44801W        W17127  28.157  13.117  13.515
44802W        W17128   4.406  36.360   1.413
44803W        W17129  31.977  24.116  11.524
44804W        W17130   5.408  22.726  14.823
44805W        W17131  31.073   1.333  11.567
44806W        W17132  17.704  18.565  11.006
44807W        W17133  29.516  19.739   2.892
44808W        W17134   7.748  19.220   3.801
44809W        W17135  20.039  26.516  12.562
44810W        W17136  11.709  19.738  13.350
44811W        W17137   1.814  26.499   1.828
44812W        W17138   1.438  40.390  14.811
44813W        W17139  12.340  38.888  14.017
44814W        W17140  40.372  43.962   2.722
44815W        W17141   5.427   4.876   4.783
44816W        W17142  30.978  18.159   1.847
44817W        W17143  40.418  34.989  12.376
44818W        W17144  38.541   1.736   1.288
44819W        W17145   7.693   7.769   4.776
44820W        W17146  32.614  17.565  14.358
44821W        W17147  28.611  43.923  11.961
44822W        W17148  13.273  35.865   2.671
44823W        W17149  31.433  17.677  12.521
44824W        W17150   6.739  25.605   4.117
44825W        W17151  14.272  11.240   4.327
44826W        W17152  24.699  44.440  12.421
44827W        W17153  18.141  24.085  10.529
44828W        W17154  22.597  39.449  12.842
44829W        W17155  10.793  13.784   2.178
44830W        W17156   0.412  43.856   2.193
44831W        W17157  39.480  23.501  13.937
44832W        W17158  21.019  19.156   2.224
44833W        W17159  11.839  22.025  10.524
44834W        W17160  38.534  33.622   0.362
44835W        W17161  23.065  44.799  13.543
44836W        W17162  29.107  29.537   3.360
44837W        W17163   8.316  30.119   0.823
44838W        W17164  10.685  24.061   4.153
44839W        W17165   2.239  22.728   3.237
44840W        W17166  38.392  42.785  14.488
44841W        W17167  13.783  21.750  12.926
44842W        W17168  32.984  13.268   4.820
44843W        W17169  37.480   1.463  14.811
44844W        W17170   7.894   7.798  13.458
44845W        W17171  26.051   8.852  10.643
44846W        W17172  23.603  11.206  12.440
44847W        W17173  32.505  10.215  10.522
44848W        W17174  22.587  19.649   1.911
44849W        W17175  25.585  10.684   2.294
44850W        W17176  11.701   0.904   1.374
44851W        W17177   0.966   5.776   1.238
44852W        W17178  24.590  32.573   4.208
44853W        W17179   9.677  35.041   0.287
44854W        W17180  10.207   3.331   1.920
44855W        W17181  12.262  26.652  11.993
44856W        W17182   6.919  18.177   3.368
44857W        W17183   3.446  37.990   3.779
44858W        W17184  36.909   1.334   3.728
44859W        W17185  26.608  44.774   1.248
44860W        W17186  30.542  19.234  12.866
44861W        W17187  35.565  37.853  14.399
44862W        W17188   7.746  35.366   0.404
44863W        W17189  27.669  30.422  14.886
44864W        W17190   4.430   8.291   1.377
44865W        W17191  11.856  21.673  12.081
44866W        W17192  29.546  44.332   4.241
44867W        W17193  34.576  20.182  13.889
44868W        W17194  42.927  31.486  14.981
44869W        W17195  22.723  39.511   3.686
44870W        W17196  22.576  37.900   0.280
44871W        W17197  34.906  32.473   0.439
44872W        W17198  37.086  20.147  13.369
44873W        W17199   4.301  17.742   3.381
44874W        W17200  28.660   8.694   0.801
44875W        W17201  25.646  12.193  11.035
44876W        W17202   9.345  23.528  13.448
44877W        W17203  38.879  44.951   1.696
44878W        W17204   6.270  30.564   2.684
44879W        W17205  29.985  10.307   2.785
44880W        W17206  13.235  13.601   2.791
44881W        W17207  27.523  25.163  14.934
44882W        W17208  17.106  33.584  13.467
44883W        W17209  11.669   9.858   3.770
44884W        W17210  14.334  29.648  12.428
44885W        W17211   5.314  30.164  11.420
44886W        W17212  33.047  11.271  12.884
44887W        W17213  15.714  11.182   3.321
44888W        W17214  33.082  16.694   2.404
44889W        W17215  41.515  26.476   3.336
44890W        W17216  20.702  17.663   0.443
44891W        W17217   4.361  24.634  14.946
44892W        W17218  37.478   4.437  14.021
44893W        W17219  15.682  15.635  11.586
44894W        W17220   0.804   7.872  14.882
44895W        W17221   8.269  31.118  14.879
44896W        W17222  14.194  26.174  12.916
44897W        W17223  41.836   1.336   3.237
44898W        W17224  30.090  29.541  11.931
44899W        W17225  20.574  36.460  11.501
44900W        W17226  33.497  36.558   4.141
44901W        W17227   2.297  11.129  14.860
44902W        W17228   9.272  23.721   4.253
44903W        W17229   1.893  25.179   0.762
44904W        W17230   9.188  30.001   3.632
44905W        W17231  17.748   9.187   2.416
44906W        W17232  42.820  25.478  11.965
44907W        W17233  12.692  35.109  11.909
44908W        W17234  28.161  38.383   0.829
44909W        W17235  20.582  39.939  10.963
44910W        W17236   8.336  18.763  14.288
44911W        W17237   4.292  23.091   9.531
44912W        W17238  24.995  26.465   4.731
44913W        W17239   3.360  25.483   2.410
44914W        W17240  12.688  25.587  13.880
44915W        W17241  23.735   3.880  10.570
44916W        W17242  30.051  21.263   3.852
44917W        W17243  10.376  15.722   0.870
44918W        W17244  23.054   7.753   1.403
44919W        W17245  17.102  10.706  12.935
44920W        W17246  38.028  37.530  13.940
44921W        W17247  35.882  26.143   3.255
44922W        W17248   2.347  29.149  10.440
44923W        W17249  29.047   9.888   4.256
44924W        W17250  22.008  31.051   1.277
44925W        W17251   1.976  28.575  13.855
44926W        W17252  38.522  34.996   0.461
44927W        W17253   0.786  14.660  10.921
44928W        W17254  20.074  17.251  12.542
44929W        W17255  36.456  38.064  11.426
44930W        W17256   9.739  12.229   2.381
44931W        W17257  34.994  34.882   2.295
44932W        W17258  24.132  17.688  10.135
44933W        W17259  25.141  43.962  12.983
44934W        W17260   2.954   1.327  12.044
44935W        W17261  34.604   3.261  12.379
44936W        W17262  29.932  15.105   3.642
44937W        W17263  40.864   9.200   3.334
44938W        W17264   3.274  33.463  10.483
44939W        W17265  22.183  12.792  13.984
44940W        W17266   8.721  32.559   3.867
44941W        W17267  22.516   3.441   4.765
44942W        W17268  42.358  24.717   1.793
44943W        W17269  28.481  16.627  11.374
44944W        W17270  40.861  33.488  10.571
44945W        W17271  30.555   2.753  12.371
44946W        W17272  14.614  19.076   2.312
44947W        W17273  21.680  16.190  11.110
44948W        W17274  13.804  24.575  13.059
44949W        W17275   4.425  29.623   4.797
44950W        W17276  27.610  10.286   4.697
44951W        W17277  11.292  36.845   0.780
44952W        W17278  41.340   9.753   2.376
44953W        W17279   2.277  17.749   1.373
44954W        W17280  42.841  21.741  11.604
44955W        W17281  37.385  37.864   1.816
44956W        W17282  23.226  19.208  14.295
44957W        W17283  19.720   6.809  10.992
44958W        W17284  28.487  35.029   1.868
44959W        W17285  30.623  13.205  13.801
44960W        W17286   3.828   7.312   4.336
44961W        W17287  28.059  21.757   0.820
44962W        W17288   1.455  34.531   0.287
44963W        W17289  41.806  37.374  10.956
44964W        W17290  26.140  17.601  12.451
44965W        W17291  33.946  40.324  11.420
44966W        W17292  25.653   4.285   0.350
44967W        W17293  26.956  15.237  13.913
44968W        W17294  32.030   2.933   2.322
44969W        W17295   8.293  17.677   0.732
44970W        W17296  28.147  23.200  14.932
44971W        W17297  20.113  33.107  11.610
44972W        W17298  20.599   1.330  12.415
44973W        W17299  15.172  18.591  13.360
44974W        W17300  36.379   6.755   3.742
44975W        W17301  34.518  14.677  11.442
44976W        W17302  14.595  32.948  12.843
44977W        W17303   8.806  24.073  13.914
44978W        W17304  38.333  35.944   1.338
44979W        W17305  14.733   1.877   2.180
44980W        W17306   5.230  20.632  10.895
44981W        W17307  15.168  16.240   1.762
44982W        W17308  42.420  14.228   4.766
44983W        W17309   2.863  15.309   0.257
44984W        W17310  39.877  20.705  13.041
44985W        W17311  20.090  22.177  13.990
44986W        W17312  43.390   9.745  11.479
44987W        W17313  40.798  10.241  10.572
44988W        W17314   7.332   5.809   3.762
44989W        W17315  33.029  28.564  12.972
44990W        W17316  44.753   8.893  13.006
44991W        W17317  34.991   5.276  14.010
44992W        W17318  31.026  26.554  10.513
44993W        W17319  30.929  19.215   2.827
44994W        W17320  14.198   1.739  12.029
44995W        W17321  28.116   5.725  12.449
44996W        W17322  32.471   2.345   1.773
44997W        W17323   1.442  23.145  11.385
44998W        W17324  14.340  18.731   3.177
44999W        W17325  38.899  38.554  11.919
45000W        W17326  44.905  18.156   0.740
45001W        W17327  25.190  28.106  14.516
45002W        W17328  22.507   7.260  14.416
45003W        W17329   8.253   6.792  12.566
45004W        W17330   2.321  28.480   2.362
45005W        W17331  25.058  30.645   3.153
45006W        W17332  41.900  23.643  11.986
45007W        W17333  38.464  16.279  13.926
45008W        W17334  37.984  42.282   4.230
45009W        W17335  11.695  23.714  14.967
45010W        W17336  36.454  27.016   1.744
45011W        W17337  21.189  33.934  12.385
45012W        W17338   6.252  28.444   4.204
45013W        W17339   1.477   1.352   0.456
45014W        W17340   5.828  43.353  12.032
45015W        W17341  32.128  29.971  11.507
45016W        W17342  44.291   9.731   4.690
45017W        W17343  39.424  33.090  13.021
45018W        W17344   9.198   9.674  10.585
45019W        W17345  37.478  10.300   4.170
45020W        W17346  41.978  21.687   0.757
45021W        W17347  44.264   0.278   0.391
45022W        W17348  28.041  35.367   1.722
45023W        W17349  32.902  27.069   3.329
45024W        W17350  28.525  11.630   2.686
45025W        W17351  16.627  15.283   3.369
45026W        W17352  31.059   5.216   2.304
45027W        W17353  31.429  39.355  12.474
45028W        W17354  19.606  15.210  13.405
45029W        W17355  37.834  43.305  12.833
45030W        W17356  35.544  28.633  14.006
45031W        W17357  26.204   1.888  12.907
45032W        W17358  30.037  25.007   2.796
45033W        W17359   0.315  10.263   4.654
45034W        W17360   6.836  40.366  11.474
45035W        W17361  44.941  32.963  10.957
45036W        W17362  18.609  28.959  10.625
45037W        W17363  10.235  22.089  10.052
45038W        W17364   8.835  32.623  10.418
45039W        W17365  43.515  11.146   1.399
45040W        W17366  30.537  30.571   2.334
45041W        W17367   1.839  37.070   1.920
45042W        W17368  14.592  38.060  11.014
45043W        W17369  17.600  19.249  12.969
45044W        W17370  29.663  25.971   3.656
45045W        W17371  39.010  34.878  12.362
45046W        W17372  40.919  36.507   3.290
45047W        W17373  29.099   3.292  13.011
45048W        W17374   6.762  43.309  14.978
45049W        W17375  31.403  43.945  14.962
45050W        W17376  23.617   5.732  11.466
45051W        W17377  13.829  19.237   1.734
45052W        W17378  16.651   5.389  14.435
45053W        W17379  16.289   8.778   3.166
45054W        W17380  40.866  17.623  12.853
45055W        W17381   9.872  44.936   1.242
45056W        W17382   7.773  44.440  12.031
45057W        W17383  35.549  35.985   0.845
45058W        W17384  26.468  16.246  14.355
45059W        W17385  31.050  28.672   3.241
45060W        W17386  24.614  14.155  10.030
45061W        W17387  29.427  43.812   2.869
45062W        W17388  12.182  16.794  12.493
45063W        W17389  25.579  39.897   4.222
45064W        W17390  21.525  11.640  11.085
45065W        W17391  30.502  20.532   1.929
45066W        W17392  17.304  38.352   2.379
45067W        W17393  39.880  39.893   2.373
45068W        W17394  44.843   0.432   2.357
45069W        W17395  44.754  11.279   2.819
45070W        W17396  34.568  43.334   3.346
45071W        W17397   9.828   0.264  13.410
45072W        W17398  31.973   6.417   1.260
45073W        W17399  27.502  34.067   2.882
45074W        W17400  20.522  41.842   4.137
45075W        W17401  18.148  29.613  12.932
45076W        W17402  16.137  21.717  13.035
45077W        W17403  41.514  43.376  13.811
45078W        W17404  44.782  31.640  14.383
45079W        W17405  41.865  37.551   2.772
45080W        W17406  20.679  24.681   4.188
45081W        W17407  32.486  43.996   3.723
45082W        W17408  44.911  14.214  14.966
45083W        W17409  26.483  11.355  10.082
45084W        W17410  30.097  34.961  14.973
45085W        W17411  18.068  23.532   0.395
45086W        W17412   6.256  24.978  14.427
45087W        W17413  10.741  26.662   4.692
45088W        W17414  44.460   5.783  13.492
45089W        W17415  44.852  15.219   2.209
45090W        W17416  21.617  35.034   4.204
45091W        W17417  27.947  30.928   2.757
45092W        W17418  36.589  40.376  10.939
45093W        W17419   2.461  31.108   3.335
45094W        W17420  37.904  44.375  13.489
45095W        W17421  15.771  14.759  10.488
45096W        W17422  26.179  42.803   4.706
45097W        W17423   0.409  42.943   1.333
45098W        W17424  43.401  44.990  14.467
45099W        W17425   9.714  34.080  14.032
45100W        W17426  36.586  33.493  11.596
45101W        W17427  25.999  41.941  14.922
45102W        W17428  12.309  19.226   3.862
45103W        W17429  18.629  37.063  10.937
45104W        W17430  40.935  38.837   4.233
45105W        W17431  39.395  39.901   0.777
45106W        W17432   9.367  31.436   1.225
45107W        W17433  18.051  20.647   4.832
45108W        W17434  35.439  34.595  13.457
45109W        W17435   8.260  18.178  14.320
45110W        W17436  44.816  18.733   3.160
45111W        W17437   8.681  16.208   3.283
45112W        W17438  15.687  22.680   3.814
45113W        W17439  27.645  40.390   2.673
45114W        W17440  44.360  35.007  13.340
45115W        W17441   0.912  21.637   4.598
45116W        W17442  25.081   3.885   1.847
45117W        W17443  10.851  29.508   1.341
45118W        W17444   3.262  13.348  14.510
45119W        W17445  38.982  14.675   3.256
45120W        W17446  29.975  36.962   1.756
45121W        W17447  42.485   2.731   3.319
45122W        W17448  11.713  23.621   4.714
45123W        W17449  38.010  30.139   0.841
45124W        W17450  17.175  10.696  13.498
45125W        W17451  11.173  22.228   2.687
45126W        W17452  39.982  26.165   1.246
45127W        W17453  27.485   9.355   2.664
45128W        W17454  15.603  10.211   0.430
45129W        W17455  19.259  30.457   3.153
45130W        W17456   9.194  11.800  14.935
45131W        W17457  10.309  39.952  11.049
45132W        W17458   8.672  14.168  11.054
45133W        W17459   8.272  19.678  13.369
45134W        W17460   2.420  35.852   1.233
45135W        W17461  13.109   6.323  12.470
45136W        W17462  33.957  19.258  11.570
45137W        W17463  40.887  19.650  14.507
45138W        W17464  37.922   3.414  12.347
45139W        W17465  39.347  16.661   3.806
45140W        W17466  21.694  42.923   2.398
45141W        W17467  16.786  15.704   3.230
45142W        W17468   1.361   5.278  10.590
45143W        W17469  24.529  43.003   4.245
45144W        W17470  36.585  21.589  14.333
45145W        W17471  17.280   4.377  14.348
45146W        W17472   8.820  27.179  11.894
45147W        W17473  18.778  15.086  11.035
45148W        W17474  25.613   2.468  11.539
45149W        W17475   3.341  11.235  12.561
45150W        W17476  23.012  27.522   3.329
45151W        W17477  29.094  41.862   3.641
45152W        W17478  35.034  26.636   3.152
45153W        W17479  29.146  16.659   0.435
45154W        W17480  10.803  25.108  14.326
45155W        W17481  35.483   5.804   4.351
45156W        W17482   9.371  17.306  13.372
45157W        W17483  37.981  27.082   4.284
45158W        W17484  20.525  37.476  12.556
45159W        W17485   3.910  11.641   5.714
45160W        W17486   8.370  36.441  14.479
45161W        W17487  40.337  23.721  10.037
45162W        W17488   8.269   4.919  12.523
45163W        W17489  29.163  34.389   4.205
45164W        W17490  23.024   5.399  10.471
45165W        W17491   5.421   9.226   4.619
45166W        W17492  31.476  41.413   1.818
45167W        W17493  43.286  34.956   2.302
45168W        W17494  30.151  11.167   0.440
45169W        W17495  38.520  33.407  11.522
45170W        W17496  35.070  33.129   3.750
45171W        W17497  13.347  35.453   1.744
45172W        W17498  39.816  16.303   0.774
45173W        W17499  24.572  27.078   2.883
45174W        W17500   3.846   0.414  12.018
45175W        W17501  23.159  18.178   0.875
45176W        W17502  23.647  30.510   1.364
45177W        W17503  38.336  23.147  12.962
45178W        W17504  21.165  37.849  12.551
45179W        W17505  26.569  17.703  11.458
45180W        W17506   5.329  16.190   0.816
45181W        W17507  22.047  27.469   3.671
45182W        W17508  16.761  10.229   2.731
45183W        W17509  25.551  41.401   1.261
45184W        W17510  23.155   8.685   4.225
45185W        W17511  30.645  42.966   0.959
45186W        W17512  22.659  35.413  13.358
45187W        W17513  39.918  19.207   0.834
45188W        W17514   0.855  26.083   2.396
45189W        W17515  18.702  33.056   1.391
45190W        W17516  15.231  41.985   2.258
45191W        W17517  35.405  36.950  13.865
45192W        W17518  16.668   3.397  13.480
45193W        W17519   6.289  18.767  12.353
45194W        W17520  12.169  17.657  14.388
45195W        W17521  33.467  40.807  12.999
45196W        W17522  16.154  41.367   2.813
45197W        W17523  36.373   4.381   2.869
45198W        W17524  24.573  11.736  11.597
45199W        W17525  13.105  27.076  11.501
45200W        W17526   2.406  38.525   0.315
45201W        W17527  15.173  24.597   3.683
45202W        W17528  26.057  42.878  14.435
45203W        W17529  22.516  27.040  14.464
45204W        W17530  39.044  23.527   4.253
45205W        W17531  15.641   3.848  11.447
45206W        W17532  21.577  12.815   0.837
45207W        W17533   5.792  32.450  10.595
45208W        W17534  16.245  44.389   4.679
45209W        W17535  28.125   1.757   5.206
45210W        W17536  30.908  23.652  10.589
45211W        W17537  23.162  24.507  10.493
45212W        W17538  23.602   9.288  11.979
45213W        W17539  44.408  15.127  12.000
45214W        W17540  18.078  42.442  12.523
45215W        W17541  19.657  19.636  12.568
45216W        W17542  15.256  22.620   4.643
45217W        W17543  19.248  41.937  12.426
45218W        W17544  11.324  37.461  12.096
45219W        W17545  40.485  33.955  13.058
45220W        W17546  36.558  36.494  13.487
45221W        W17547   3.893  25.599   4.264
45222W        W17548  34.963  14.305   5.292
45223W        W17549  12.673  41.033   2.767
45224W        W17550  18.075  23.227   4.183
45225W        W17551  21.553  28.124  14.430
45226W        W17552  26.582  40.914  12.480
45227W        W17553  43.998   4.238   3.812
45228W        W17554  24.076  37.035   4.233
45229W        W17555  41.017   8.688  14.001
45230W        W17556  15.716   6.267  13.952
45231W        W17557  29.058  39.416  13.398
45232W        W17558  33.411  15.216   2.882
45233W        W17559  39.476   8.235   0.911
45234W        W17560  16.151   3.923   4.771
45235W        W17561  10.671  40.468  14.790
45236W        W17562  37.365   5.395   1.844
45237W        W17563   8.887   4.397  13.818
45238W        W17564   0.434  31.064  10.953
45239W        W17565  12.130  42.922   0.748
45240W        W17566  42.016  41.526  10.998
45241W        W17567   5.299  21.695   0.248
45242W        W17568  27.074  35.102   1.327
45243W        W17569   9.246  11.663  13.025
45244W        W17570  11.289  17.617  13.852
45245W        W17571  19.185  38.333   2.762
45246W        W17572  24.189  29.963  14.864
45247W        W17573   1.252  24.541   1.220
45248W        W17574  23.090   3.254   1.930
45249W        W17575  25.612   5.858  10.575
45250W        W17576   7.397   1.345   4.292
45251W        W17577   7.400   6.843  14.911
45252W        W17578  12.178  27.687  12.829
45253W        W17579  25.695  33.534  10.137
45254W        W17580  27.609  20.057  14.442
45255W        W17581   7.773   5.785   4.352
45256W        W17582  32.568  31.118  11.534
45257W        W17583  41.970  14.827   0.875
45258W        W17584  37.010  19.667   2.774
45259W        W17585  44.804   0.847  13.998
45260W        W17586   0.878  10.373  11.499
45261W        W17587  21.233  30.551   1.385
45262W        W17588  24.171  27.166   4.247
45263W        W17589  15.221   5.766  12.894
45264W        W17590  13.201  31.066   4.294
45265W        W17591   3.258  30.646   2.803
45266W        W17592  33.425  42.827   3.655
45267W        W17593  41.878   2.442  13.534
45268W        W17594   8.860  33.589   4.229
45269W        W17595  35.384   6.769   2.667
45270W        W17596  34.051  26.002   0.826
45271W        W17597  19.133   8.709  10.624
45272W        W17598   4.352  18.570   4.239
45273W        W17599  17.573  43.887  14.832
45274W        W17600   9.263  26.461   1.398
45275W        W17601  38.451  36.054  13.314
45276W        W17602  29.583  21.635   2.190
45277W        W17603  25.196   9.756   0.304
45278W        W17604  25.120  22.625   1.412
45279W        W17605  44.971  43.942  12.464
45280W        W17606   1.742   4.409   3.838
45281W        W17607  36.490  33.390  12.484
45282W        W17608   8.706  33.403  13.984
45283W        W17609   1.288  22.702  10.414
45284W        W17610  29.076  10.213   0.476
45285W        W17611   8.332  16.594  13.307
45286W        W17612   4.234   4.900  13.954
45287W        W17613   4.805  17.760   4.158
45288W        W17614  13.168   6.768  12.978
45289W        W17615  41.320  42.885  11.017
45290W        W17616  40.332  25.133   1.866
45291W        W17617   6.424  30.449  14.934
45292W        W17618  31.593   4.791   3.211
45293W        W17619  22.203  35.376  14.425
45294W        W17620  40.529   6.899   0.317
45295W        W17621  33.902  21.175   1.307
45296W        W17622   7.376  43.420  11.040
45297W        W17623  30.921   2.966   0.905
45298W        W17624  40.799   9.292   4.811
45299W        W17625  18.086  38.552   0.765
45300W        W17626   3.225  29.572  13.410
45301W        W17627  13.337   2.322  13.451
45302W        W17628  18.587  27.545   1.401
45303W        W17629  36.000   2.245  11.470
45304W        W17630   3.878  37.867   0.278
45305W        W17631  18.218  33.118  13.430
45306W        W17632  17.140  35.582  13.906
45307W        W17633  38.868   7.392   1.723
45308W        W17634   2.276  41.432  10.424
45309W        W17635   4.442  16.747   3.748
45310W        W17636   4.864  15.191   4.132
45311W        W17637  13.831  22.509  12.530
45312W        W17638  29.049   8.750   1.327
45313W        W17639  38.332  15.118  12.955
45314W        W17640  13.625  20.173   1.837
45315W        W17641   1.353   3.835   0.267
45316W        W17642  24.558  13.210  10.496
45317W        W17643   3.929  28.090   3.196
45318W        W17644   6.240  20.227  13.893
45319W        W17645  30.079  13.304   1.293
45320W        W17646  31.050  23.223   4.705
45321W        W17647  14.248  22.526  10.633
45322W        W17648  28.465  19.567  12.519
45323W        W17649  21.685  10.767  11.927
45324W        W17650  18.292  28.615  14.326
45325W        W17651  13.177   7.322  11.059
45326W        W17652  29.663   6.330   1.273
45327W        W17653   3.753   8.326  11.511
45328W        W17654  17.077   4.805   4.143
45329W        W17655   8.659  11.705  12.480
45330W        W17656   4.326   2.270   2.299
45331W        W17657  27.478  32.563  12.061
45332W        W17658  18.212   6.836  13.793
45333W        W17659  29.041  26.612  14.898
45334W        W17660  14.689  34.021   5.292
45335W        W17661  40.529  15.768   3.196
45336W        W17662  17.730  25.691  12.469
45337W        W17663  25.965  21.031   1.841
45338W        W17664  22.507  28.546  12.535
45339W        W17665  32.072  39.459  14.443
45340W        W17666  16.303  23.228  11.082
45341W        W17667   8.333   1.785  14.008
45342W        W17668  25.188  15.162  11.015
45343W        W17669  42.505   5.205   0.807
45344W        W17670  11.148  44.357  12.931
45345W        W17671  25.167  24.098  13.417
45346W        W17672  13.688  29.021  12.370
45347W        W17673   8.340  27.023  14.031
45348W        W17674  13.620   5.422   1.906
45349W        W17675   5.777  14.621  13.048
45350W        W17676  43.419   2.294   4.778
45351W        W17677  44.320   3.749   1.878
45352W        W17678   0.262  21.071  11.069
45353W        W17679  17.159  12.157  12.085
45354W        W17680  23.150  19.269   4.734
45355W        W17681  34.069  39.018  14.892
45356W        W17682  35.364   9.346  13.539
45357W        W17683   1.961  39.426  10.642
45358W        W17684  41.802  12.179  14.514
45359W        W17685  27.162  33.517  13.836
45360W        W17686   4.364   2.421   0.351
45361W        W17687  26.165  30.079  11.468
45362W        W17688   0.764   7.324  10.560
45363W        W17689  41.501   1.825   4.646
45364W        W17690  42.990  41.434   2.343
45365W        W17691   4.912  28.953  14.994
45366W        W17692  11.834  23.697  10.012
45367W        W17693  29.516  30.611  10.122
45368W        W17694  19.629  44.886   1.758
45369W        W17695  10.162  30.013   1.738
45370W        W17696  24.033  23.617  11.042
45371W        W17697  30.486   2.966   0.272
45372W        W17698   1.910  23.193  11.606
45373W        W17699   1.246  27.184  12.873
45374W        W17700  16.581  38.436   1.769
45375W        W17701  15.280  25.112   4.598
45376W        W17702  41.430  15.086   4.327
45377W        W17703   1.772  43.985  12.499
45378W        W17704  10.646  30.936   2.371
45379W        W17705   3.334  36.357   5.172
45380W        W17706  13.196   1.923   0.445
45381W        W17707  39.407  23.593   3.357
45382W        W17708  41.806  27.193  13.527
45383W        W17709  37.038  34.024   1.412
45384W        W17710  36.435  40.833  12.467
45385W        W17711  26.634   9.770   4.290
45386W        W17712  27.959  38.431  13.465
45387W        W17713  42.905  30.600   0.375
45388W        W17714  16.155   7.791  14.762
45389W        W17715  41.831  42.470  11.001
45390W        W17716  31.047  34.530  14.503
45391W        W17717  10.147  44.263  13.960
45392W        W17718  30.575  25.215  11.378
45393W        W17719  38.565  39.443  10.506
45394W        W17720  33.478  21.195   2.302
45395W        W17721  34.889  41.451   2.695
45396W        W17722  23.104  34.068   4.794
45397W        W17723  44.495  30.417   3.666
45398W        W17724  14.685   1.896   3.805
45399W        W17725  36.032  23.194  12.357
45400W        W17726  12.199   6.725   0.287
45401W        W17727   9.749  43.906  10.537
45402W        W17728  33.977  11.333  12.546
45403W        W17729  23.100  32.957  13.817
45404W        W17730  25.116  38.545   0.317
45405W        W17731  18.212  28.014   3.321
45406W        W17732   8.211  36.540   1.897
45407W        W17733  17.297  35.405   3.646
45408W        W17734  37.047  18.602   0.931
45409W        W17735   2.874  34.412   3.203
45410W        W17736  27.627  31.102  12.572
45411W        W17737   6.749  22.644  11.404
45412W        W17738  32.471  30.610   0.870
45413W        W17739  33.397  11.726   3.162
45414W        W17740  26.105  37.033   2.286
45415W        W17741  18.158   5.799  11.400
45416W        W17742  16.132  44.758  11.881
45417W        W17743   9.793  37.937  14.978
45418W        W17744  15.205  26.645   1.407
45419W        W17745  44.386  25.178  12.572
45420W        W17746  39.046  33.410  13.797
45421W        W17747   9.878  33.968   3.786
45422W        W17748  44.931   3.359  12.460
45423W        W17749  10.241  25.697  10.944
45424W        W17750  19.174  36.879  11.577
45425W        W17751  37.038  37.504   4.837
45426W        W17752  24.591  17.800  14.911
45427W        W17753  18.090  17.182   3.362
45428W        W17754   6.246  35.402  11.048
45429W        W17755   2.331   3.940  12.868
45430W        W17756  39.879  15.577  13.829
45431W        W17757  14.712  20.616  11.937
45432W        W17758  28.611  29.009   5.259
45433W        W17759  40.852  34.411  11.387
45434W        W17760  12.707  43.907   3.181
45435W        W17761   8.404   7.810  10.408
45436W        W17762  34.415  25.490  13.429
45437W        W17763  39.338  18.699  11.128
45438W        W17764  41.823  43.826   0.308
45439W        W17765  41.963  21.524   1.251
45440W        W17766   2.322  37.083  12.545
45441W        W17767  42.827  40.341   1.704
45442W        W17768  31.642  37.488  13.864
45443W        W17769   0.345  39.467   2.340
45444W        W17770  37.017  19.051   2.703
45445W        W17771  26.696   4.937  12.540
45446W        W17772  33.117  12.227   1.389
45447W        W17773  16.163  27.639  10.513
45448W        W17774  13.788  40.931  10.421
45449W        W17775  19.544  16.736   2.773
45450W        W17776  17.758  33.612   3.162
45451W        W17777  23.038  17.555  13.492
45452W        W17778   3.947  11.310   2.685
45453W        W17779  37.887  12.716  14.425
45454W        W17780  28.020  25.040  11.594
45455W        W17781  16.284  39.958   4.658
45456W        W17782   2.949   8.164   2.242
45457W        W17783  41.944  43.400  13.862
45458W        W17784  41.332  22.527  14.449
45459W        W17785  17.720   0.297   4.246
45460W        W17786  36.508  42.484  12.534
45461W        W17787  13.651  33.960   3.184
45462W        W17788  31.095   1.406   1.210
45463W        W17789   5.343  39.502  13.852
45464W        W17790  43.437  38.403   0.912
45465W        W17791  44.318  32.001  14.406
45466W        W17792  37.014   3.937  14.835
45467W        W17793  18.750  11.186   4.688
45468W        W17794   0.337  39.057  14.839
45469W        W17795  10.145  39.039   4.690
45470W        W17796  36.417  38.339  12.576
45471W        W17797  33.986  35.982   0.935
45472W        W17798  10.194  12.280   2.332
45473W        W17799  41.928   9.736   0.899
45474W        W17800   7.223   5.220  12.538
45475W        W17801  27.659  17.201  10.483
45476W        W17802   6.381  44.789   4.604
45477W        W17803  22.625   7.298  13.525
45478W        W17804  22.216   4.814  11.585
45479W        W17805  16.656  11.842   0.744
45480W        W17806  20.131  36.932  11.485
45481W        W17807   9.880  34.397   0.891
45482W        W17808   3.253  43.318   1.261
45483W        W17809   6.345  25.990  12.939
45484W        W17810  22.032   4.309   1.839
45485W        W17811  19.191  30.496  11.558
45486W        W17812  32.942  12.730   1.295
45487W        W17813   6.706  24.003  11.384
45488W        W17814  36.391  38.506  11.073
45489W        W17815  28.143  41.000  10.436
45490W        W17816  21.615  32.546  12.502
45491W        W17817  42.001  27.663   1.400
45492W        W17818  28.133  42.920  13.321
45493W        W17819   9.782  18.599  14.776
45494W        W17820  30.150  10.845  11.952
45495W        W17821  22.725  19.643  13.901
45496W        W17822  14.106  11.175   0.325
45497W        W17823  29.622  30.417   3.647
45498W        W17824  29.175  13.199   0.727
45499W        W17825  16.143   5.237  11.110
45500W        W17826   6.706   1.824   3.329
45501W        W17827  36.962  26.519   1.348
45502W        W17828   9.888  30.508  10.503
45503W        W17829   4.897  30.012   1.253
45504W        W17830  28.043  37.922   2.866
45505W        W17831  13.214  25.069  11.449
45506W        W17832  15.589   4.913   1.298
45507W        W17833  18.190  16.681  13.338
45508W        W17834  13.227   4.916  12.571
45509W        W17835  29.536  25.115   3.161
45510W        W17836  32.999  19.543   1.865
45511W        W17837  31.096  36.533   3.308
45512W        W17838  27.008  30.572   0.410
45513W        W17839  21.150  44.422  10.592
45514W        W17840  34.979  39.356   4.635
45515W        W17841  30.594  30.002  13.969
45516W        W17842   6.828  16.163   4.764
45517W        W17843  15.797  16.202  12.561
45518W        W17844  13.744  41.963  13.338
45519W        W17845  27.148  17.755   3.189
45520W        W17846  11.815  26.651  14.825
45521W        W17847  30.621  20.666  12.894
45522W        W17848  31.121  14.251   0.754
45523W        W17849  44.009  33.121   2.856
45524W        W17850  38.918  12.138   1.851
45525W        W17851  32.514   1.826   5.239
45526W        W17852  44.901  25.009  10.550
45527W        W17853  42.854  10.681  13.370
45528W        W17854  43.272   8.742  10.556
45529W        W17855  40.913  39.426  14.018
45530W        W17856  28.472   8.744   3.346
45531W        W17857  15.634  37.066   0.887
45532W        W17858  41.372  12.725   1.367
45533W        W17859  14.316   5.879   3.358
45534W        W17860  11.160  19.173  11.958
45535W        W17861  13.767  19.771  12.887
45536W        W17862  31.969  28.565  14.915
45537W        W17863  24.603   4.760  12.513
45538W        W17864   5.284  40.944   4.174
45539W        W17865  14.596  38.945   3.279
45540W        W17866  28.044  39.946   1.912
45541W        W17867   6.758  26.697   1.809
45542W        W17868  44.409  32.015   1.260
45543W        W17869  37.515  39.031   1.352
45544W        W17870  34.893  24.589  13.063
45545W        W17871  41.346  37.903   0.448
45546W        W17872  41.961   4.377   3.820
45547W        W17873  28.108   3.261  14.976
45548W        W17874  41.313  26.155  14.421
45549W        W17875  36.576  26.958   2.231
45550W        W17876  43.509   4.285  14.799
45551W        W17877  20.528  13.162  14.374
45552W        W17878  41.423  34.885   1.236
45553W        W17879  30.087  24.591   1.296
45554W        W17880  25.670  13.659   4.812
45555W        W17881  34.886   0.432  11.061
45556W        W17882   0.764  39.317   3.377
45557W        W17883  32.429  22.079  13.889
45558W        W17884  41.029   7.874  11.418
45559W        W17885   2.398  27.472  13.373
45560W        W17886  38.926  29.935  13.404
45561W        W17887  40.498   9.735  10.906
45562W        W17888  37.059  26.613  12.576
45563W        W17889   6.731   9.754   4.620
45564W        W17890  22.076  16.631   0.814
45565W        W17891  23.531  40.487  10.148
45566W        W17892  40.895   1.308  13.336
45567W        W17893  41.438  11.135   2.383
45568W        W17894  33.465  15.229  14.957
45569W        W17895  41.456  32.098  12.930
45570W        W17896  26.025  25.128  11.083
45571W        W17897  32.066   2.374  13.345
45572W        W17898  22.038  24.566   4.234
45573W        W17899  15.210  36.002   1.783
45574W        W17900   6.187  43.989   3.308
45575W        W17901   8.807  40.814  13.902
45576W        W17902  34.543   5.294  11.570
45577W        W17903   3.285  23.088  13.348
45578W        W17904   8.858  20.066  13.924
45579W        W17905   2.462  28.678  14.319
45580W        W17906  10.701   3.742  12.952
45581W        W17907  19.771  32.948   1.308
45582W        W17908  22.114  27.980  13.887
45583W        W17909  34.504  26.588  12.839
45584W        W17910  32.060  30.111   2.662
45585W        W17911   2.962  29.447  12.962
45586W        W17912  28.547  28.109  11.915
45587W        W17913  43.304   2.927   4.209
45588W        W17914  37.569  37.562  14.853
45589W        W17915  20.701  34.988  12.367
45590W        W17916  43.463  19.587   1.758
45591W        W17917  25.654  26.692  11.442
45592W        W17918   9.698  20.232  12.395
45593W        W17919  41.005  17.298  13.343
45594W        W17920  11.146   4.804  14.439
45595W        W17921  27.566  30.083   0.882
45596W        W17922   3.418  18.153   3.170
45597W        W17923  16.147  28.185   3.863
45598W        W17924   3.365  31.016  13.373
45599W        W17925  11.205  39.850  13.968
45600W        W17926  35.983  12.719   4.689
45601W        W17927  30.424  40.481  10.922
45602W        W17928  10.152  29.140   3.221
45603W        W17929  17.630  16.156  13.436
45604W        W17930  16.812  30.656  14.891
45605W        W17931  18.689   0.342   1.754
45606W        W17932   7.295  10.679  11.961
45607W        W17933   4.298  26.563  11.990
45608W        W17934  21.027  26.962   2.675
45609W        W17935  34.507   5.428   1.400
45610W        W17936  29.147   4.228   2.785
45611W        W17937  31.901  12.342   0.248
45612W        W17938   0.436   4.794   2.752
45613W        W17939   6.335  27.505  14.499
45614W        W17940  34.891  32.591   2.301
45615W        W17941  44.271  24.506  12.389
45616W        W17942  21.130   4.219   3.824
45617W        W17943   4.745  35.948  13.440
45618W        W17944  15.229  38.906  13.351
45619W        W17945  37.519  39.913  13.487
45620W        W17946   3.327  31.526  13.861
45621W        W17947   2.440  19.149   1.259
45622W        W17948  10.649  13.683  12.907
45623W        W17949  41.423   1.457  14.760
45624W        W17950  39.552  36.910   3.776
45625W        W17951  21.071  39.930   0.319
45626W        W17952  38.934   9.264  11.113
45627W        W17953  41.945  18.701   2.875
45628W        W17954  16.315  30.656  10.456
45629W        W17955   5.201  11.787  11.887
45630W        W17956  24.194  20.233   4.343
45631W        W17957   3.764  38.348  12.841
45632W        W17958  28.522  17.712   4.729
45633W        W17959  41.881  12.693   3.218
45634W        W17960  27.689  18.662   0.799
45635W        W17961   5.264  21.088  13.940
45636W        W17962  17.760  42.989  12.535
45637W        W17963   8.388  37.420  14.397
45638W        W17964  36.376   3.761   1.772
45639W        W17965  12.754  23.573   2.194
45640W        W17966  25.202  40.517  14.465
45641W        W17967  10.167  22.217  11.563
45642W        W17968   9.340  37.011   3.317
45643W        W17969  18.090  12.702  13.015
45644W        W17970   5.777  37.496   4.789
45645W        W17971  42.814  18.063  12.497
45646W        W17972   3.372   4.834   1.261
45647W        W17973  21.737  41.373  11.604
45648W        W17974  14.815   2.304  14.873
45649W        W17975  21.171  14.229  11.499
45650W        W17976   5.281  39.898  11.110
45651W        W17977   1.959   3.238  10.592
45652W        W17978  30.474   6.182   3.230
45653W        W17979   2.867   8.204  14.298
45654W        W17980  42.973  41.358   0.265
45655W        W17981  17.730   7.801  12.940
45656W        W17982  12.332   3.283  12.438
45657W        W17983   1.426  24.089   2.696
45658W        W17984  28.107  11.308   0.314
45659W        W17985   1.818  16.100  14.344
45660W        W17986  28.437   5.708  11.977
45661W        W17987   0.448  27.609   2.772
45662W        W17988  42.435  37.375   3.253
45663W        W17989   6.369  11.637   4.649
45664W        W17990  28.450  27.145   1.755
45665W        W17991  26.029   0.862  11.098
45666W        W17992  17.669   7.177  14.014
45667W        W17993  11.790  12.123  14.921
45668W        W17994  23.594  36.436   1.227
45669W        W17995   1.316   1.823   4.733
45670W        W17996  29.950  34.087  11.888
45671W        W17997   0.251  30.030   3.334
45672W        W17998  21.105  42.919  12.045
45673W        W17999  10.195  14.204  12.008
45674W        W18000  15.701   9.867   1.864
45675W        W18001  38.938  25.596  11.866
45676W        W18002  38.351  34.107  13.850
45677W        W18003  39.899  33.027   2.765
45678W        W18004  43.423  44.898  13.832
45679W        W18005   9.817  36.576  11.094
45680W        W18006   3.410  31.607  10.511
45681W        W18007  34.522  40.805  11.063
45682W        W18008  22.115  18.689  11.438
45683W        W18009  16.245  40.846  13.448
45684W        W18010  27.641   1.876   4.186
45685W        W18011  37.492  20.636   4.269
45686W        W18012  11.833   9.884   1.712
45687W        W18013  40.327  28.104  14.032
45688W        W18014  10.271  39.947  10.526
45689W        W18015  11.740   8.745  13.541
45690W        W18016  13.727   0.900   2.414
45691W        W18017   3.290   1.253  13.961
45692W        W18018  43.916  16.255  11.008
45693W        W18019  10.204   7.857  12.931
45694W        W18020   4.397  33.971  12.008
45695W        W18021  27.600  37.854   1.928
45696W        W18022  37.069   3.723   2.862
45697W        W18023   9.819   9.278  11.600
45698W        W18024  24.158  27.970  14.867
45699W        W18025   6.417  42.412   4.327
45700W        W18026  29.048   8.728  13.543
45701W        W18027  15.099  25.093   2.345
45702W        W18028  21.525  13.316  10.548
45703W        W18029   2.792  29.002  11.396
45704W        W18030   3.251   9.210   3.822
45705W        W18031  25.093  29.645   3.332
45706W        W18032  14.637  36.964   2.790
45707W        W18033  39.530  15.780  13.032
45708W        W18034   9.828   2.316  12.514
45709W        W18035  20.727   8.254  14.430
45710W        W18036  22.084  15.204   1.384
45711W        W18037  33.889  12.354   3.291
45712W        W18038  28.551   9.192  11.419
45713W        W18039  21.558  21.030   4.300
45714W        W18040  21.533  28.011  14.938
45715W        W18041  33.444  34.497   4.331
45716W        W18042  25.150  39.884  12.517
45717W        W18043  36.393  34.521  10.045
45718W        W18044  33.880  26.682   1.848
45719W        W18045  13.760  35.464  13.007
45720W        W18046  36.465   4.903  11.527
45721W        W18047  39.044  26.013  12.927
45722W        W18048  17.587  29.449  11.494
45723W        W18049   9.712  17.657   4.277
45724W        W18050   9.863  42.341  12.520
45725W        W18051   0.764  35.098  14.904
45726W        W18052  37.507  11.330   1.280
45727W        W18053  13.659  17.731   0.446
45728W        W18054  26.685  42.365  10.531
45729W        W18055  27.151  38.445   0.763
45730W        W18056  40.321  35.047   0.935
45731W        W18057  38.432   3.250   4.793
45732W        W18058  18.691  32.399  10.616
45733W        W18059  24.062  28.033   1.868
45734W        W18060  33.448  39.857  12.483
45735W        W18061  23.655  18.068  13.865
45736W        W18062  29.440  39.377   0.920
45737W        W18063  24.656   5.337   0.348
45738W        W18064  41.816  34.559  11.893
45739W        W18065  11.148  35.585  10.043
45740W        W18066   5.234  28.524  10.615
45741W        W18067   2.365   1.953  10.154
45742W        W18068  24.672  19.225   3.869
45743W        W18069  31.990  28.531  11.006
45744W        W18070   7.187  28.676  13.367
45745W        W18071   1.483  33.928   1.884
45746W        W18072  41.420   9.706  12.374
45747W        W18073   4.364  31.549  12.558
45748W        W18074  19.673  38.850   2.786
45749W        W18075  19.131   0.832   3.724
45750W        W18076  19.755  11.212   1.324
45751W        W18077  36.566  26.074   4.301
45752W        W18078   6.381  32.443  13.479
45753W        W18079  10.844  15.674  14.917
45754W        W18080  26.135  19.232   3.161
45755W        W18081  15.190  33.965   1.441
45756W        W18082  23.692  31.098  12.084
45757W        W18083  31.447  29.644  12.344
45758W        W18084  37.347  28.505   2.813
45759W        W18085   9.772  14.663   0.273
45760W        W18086  24.594   4.288   3.631
45761W        W18087  35.062   2.332   3.147
45762W        W18088   2.381   6.809  12.492
45763W        W18089  13.715   2.243   2.254
45764W        W18090  40.502   5.846   2.343
45765W        W18091  19.570  22.719  11.107
45766W        W18092  18.731  39.832  14.002
45767W        W18093  42.937   6.364  13.412
45768W        W18094   2.817  14.773   0.874
45769W        W18095  40.026  29.148   0.261
45770W        W18096   5.883  43.902   0.941
45771W        W18097  29.666  39.883  12.923
45772W        W18098  18.600  27.547  14.007
45773W        W18099  26.148  34.528  14.510
45774W        W18100  13.153  24.197  11.038
45775W        W18101  14.635  38.467  11.493
45776W        W18102  43.002   5.342   3.770
45777W        W18103  12.772  36.896  14.900
45778W        W18104  16.795   7.399  12.061
45779W        W18105   5.817  14.136   1.697
45780W        W18106  42.348  17.734  14.001
45781W        W18107  44.337   5.756   3.211
45782W        W18108   4.210  30.945  11.013
45783W        W18109  10.320   4.701   1.347
45784W        W18110   9.826  24.717   2.700
45785W        W18111  31.482  21.121  13.324
45786W        W18112  27.523  28.493  11.008
45787W        W18113   1.334  29.152  13.953
45788W        W18114  27.970  44.839   0.859
45789W        W18115  32.980   2.916   4.264
45790W        W18116  37.900  29.442   0.740
45791W        W18117  15.814  37.543   2.362
45792W        W18118  41.310  34.394  11.971
45793W        W18119  40.015   8.825   1.930
45794W        W18120  29.147   7.277   3.208
45795W        W18121  31.565  22.577   3.172
45796W        W18122  19.135  32.110   2.779
45797W        W18123   4.309  30.522   4.301
45798W        W18124   6.271  37.335   1.896
45799W        W18125   0.838  41.842  13.935
45800W        W18126   0.374  40.493   2.669
45801W        W18127  41.504  37.361  12.455
45802W        W18128  17.720  15.638   1.812
45803W        W18129  42.895  27.153   2.383
45804W        W18130  40.527  12.684  11.100
45805W        W18131   6.831  25.654  11.979
45806W        W18132  29.611  34.056   1.907
45807W        W18133  24.551  13.635   3.147
45808W        W18134  41.953   4.361  14.760
45809W        W18135   6.899  39.932  14.451
45810W        W18136  12.269  44.942  14.830
45811W        W18137  25.683   1.301   2.702
45812W        W18138  29.005  17.729  13.466
45813W        W18139  35.051  30.154  14.895
45814W        W18140  43.293  32.416  14.388
45815W        W18141   1.477  30.631   3.321
45816W        W18142  14.810  20.152  11.950
45817W        W18143  40.401  34.557   1.773
45818W        W18144  31.610   6.215   1.302
45819W        W18145   0.973  27.663   2.192
45820W        W18146   8.888  39.542   3.340
45821W        W18147  13.206  26.589   3.370
45822W        W18148   8.205   9.855   1.243
45823W        W18149  14.322  10.715   4.688
45824W        W18150  35.997  36.912  10.446
45825W        W18151  26.982  17.781   0.844
45826W        W18152  38.038  42.287   0.421
45827W        W18153  44.932  13.840  14.331
45828W        W18154  24.027  28.958   0.262
45829W        W18155  35.510  21.038   0.866
45830W        W18156   5.859   0.370   4.800
45831W        W18157  38.562   5.390   0.321
45832W        W18158  10.692   8.756  12.547
45833W        W18159  25.539  27.152   1.781
45834W        W18160  25.619  37.842   3.225
45835W        W18161  32.469  12.615   1.835
45836W        W18162  16.155  40.972   0.349
45837W        W18163  23.731  44.359   0.868
45838W        W18164   9.240  25.190  10.969
45839W        W18165   1.256  30.085  12.432
45840W        W18166  28.477  21.533   2.712
45841W        W18167  18.151  40.500   2.733
45842W        W18168  13.145  19.687   3.193
45843W        W18169  14.158   4.906  11.116
45844W        W18170  41.361  42.972   0.402
45845W        W18171  12.805  18.209  13.463
45846W        W18172   8.346  29.132   4.288
45847W        W18173  37.395   0.400  14.867
45848W        W18174   4.830  36.444   4.165
45849W        W18175  42.891  37.366  14.920
45850W        W18176  28.624   1.810   3.864
45851W        W18177  17.696  36.910   3.161
45852W        W18178  23.684  37.494  10.103
45853W        W18179  30.542  34.449   2.232
45854W        W18180  40.034  12.798   0.928
45855W        W18181   1.281  29.114   2.236
45856W        W18182   2.848  23.207   1.935
45857W        W18183   3.782  41.458  11.575
45858W        W18184  16.097  27.047   0.871
45859W        W18185  33.039  36.441  10.440
45860W        W18186  40.991   4.370  11.128
45861W        W18187  36.567  10.862  11.494
45862W        W18188  27.511  10.188  14.398
45863W        W18189  19.173  37.842  10.524
45864W        W18190   5.349  21.130   0.950
45865W        W18191  32.068  28.440   0.449
45866W        W18192  33.538  40.517   2.869
45867W        W18193   4.778  29.168  12.387
45868W        W18194  22.173  10.201  10.147
45869W        W18195  22.665  19.759  12.954
45870W        W18196  38.073  34.109   0.953
45871W        W18197  21.629  18.098  11.455
45872W        W18198  19.630   4.251  14.507
45873W        W18199  21.611  34.887  11.906
45874W        W18200   8.673  34.878   4.804
45875W        W18201  11.728  30.128   2.804
45876W        W18202   1.751  35.004  12.962
45877W        W18203  10.355   2.360  13.794
45878W        W18204  44.448   8.691  13.367
45879W        W18205  15.619  16.151   3.708
45880W        W18206  17.734  34.549  11.516
45881W        W18207  14.687   5.222   3.289
45882W        W18208  16.176  34.966  13.946
45883W        W18209  41.807  10.331   2.780
45884W        W18210   7.377  35.393   4.274
45885W        W18211  25.027   3.339  13.056
45886W        W18212  10.196  32.906   0.848
45887W        W18213  36.042  12.764   1.712
45888W        W18214  21.546   2.831   2.850
45889W        W18215  33.893  33.035   5.803
45890W        W18216  33.081  10.257   2.189
45891W        W18217   8.190  33.944  13.379
45892W        W18218  12.226  38.466   4.348
45893W        W18219  43.274   7.191  12.553
45894W        W18220  10.793  44.003   4.696
45895W        W18221  33.423  40.035  10.916
45896W        W18222  23.054  15.642   1.289
45897W        W18223  12.225  19.641   2.239
45898W        W18224  38.007  18.142   1.256
45899W        W18225  28.495  25.536   2.750
45900W        W18226  34.982  35.383   5.720
45901W        W18227  10.319  11.811   5.244
45902W        W18228   2.782  28.038  14.864
45903W        W18229   3.869   9.714   1.447
45904W        W18230  34.868  12.636  13.813
45905W        W18231  22.204  36.939   1.771
45906W        W18232  27.480   9.377   1.336
45907W        W18233   5.823   1.483   4.278
45908W        W18234   7.865   1.769  10.034
45909W        W18235  31.110  39.446   3.812
45910W        W18236  12.272   6.386   3.346
45911W        W18237  36.574  12.638   0.269
45912W        W18238  13.627  11.145   1.338
45913W        W18239  34.102  29.564  13.328
45914W        W18240  28.047  19.133  11.949
45915W        W18241  40.985   5.419   1.787
45916W        W18242  32.085  43.829  10.498
45917W        W18243  19.170   1.409   0.955
45918W        W18244  14.224   1.435   2.754
45919W        W18245  33.947  33.909   0.361
45920W        W18246  11.303  24.595   3.830
45921W        W18247  12.309  28.489  14.784
45922W        W18248   7.175   5.882  14.833
45923W        W18249  43.015   5.704   3.360
45924W        W18250  37.978   2.759  10.531
45925W        W18251  39.542  33.411   0.476
45926W        W18252   2.457  35.900   4.224
45927W        W18253  32.407  18.639  10.492
45928W        W18254   9.308   3.833   3.751
45929W        W18255  26.168  39.521  14.884
45930W        W18256  38.841  10.341   1.389
45931W        W18257  32.466  10.806   2.853
45932W        W18258  15.583   0.306   4.828
45933W        W18259   7.237  25.534  12.023
45934W        W18260  40.897  43.904  13.347
45935W        W18261   5.907   7.779  13.413
45936W        W18262   8.385   4.729   4.724
45937W        W18263  26.659  22.687  13.332
45938W        W18264  12.236  27.143   5.190
45939W        W18265  32.424  39.004   0.253
45940W        W18266  15.230   8.286  10.423
45941W        W18267  20.032  28.494  11.060
45942W        W18268  21.033  15.309   2.753
45943W        W18269  39.887  42.441   1.841
45944W        W18270  40.007   2.381  11.586
45945W        W18271  21.213  32.013   2.709
45946W        W18272   0.798  23.091  13.307
45947W        W18273  16.732   1.912  13.432
45948W        W18274  11.201  13.627   4.329
45949W        W18275  37.000  12.662   3.166
45950W        W18276  23.089  14.720  13.936
45951W        W18277   8.258   2.291   0.774
45952W        W18278  43.903  33.003  14.353
45953W        W18279  36.868  29.956  11.426
45954W        W18280  32.126  29.029   0.822
45955W        W18281  15.249  19.574  10.473
45956W        W18282  22.039   2.952  14.784
45957W        W18283  30.941  28.186  13.514
45958W        W18284  41.892  23.216  12.972
45959W        W18285  39.344  14.223  10.922
45960W        W18286  41.933   7.288   4.822
45961W        W18287  43.345  25.972   1.924
45962W        W18288  17.575  17.075  12.369
45963W        W18289   2.793  39.043   3.744
45964W        W18290  12.119  35.400  10.522
45965W        W18291  36.548   1.884  10.616
45966W        W18292  13.282  32.968   1.252
45967W        W18293  44.908  37.518   4.812
45968W        W18294  39.852  12.317   1.759
45969W        W18295   6.239  44.908   2.419
45970W        W18296   3.772  13.166   0.362
45971W        W18297  34.888  43.013  11.445
45972W        W18298  42.816  41.816  13.835
45973W        W18299  11.673   0.840   2.707
45974W        W18300  12.829  38.437   3.261
45975W        W18301  34.920  12.307  14.775
45976W        W18302  27.480  17.282  13.831
45977W        W18303  34.946  39.862  12.896
45978W        W18304   9.855  27.664   4.269
45979W        W18305  31.552  11.838  12.476
45980W        W18306  26.076  14.106   3.148
45981W        W18307  25.532   0.814   2.723
45982W        W18308   3.763  37.370   3.329
45983W        W18309  18.635   3.436  11.907
45984W        W18310  21.043  20.751   4.303
45985W        W18311   5.291  36.406  13.342
45986W        W18312  30.642  36.556  11.993
45987W        W18313  43.419  20.636  13.336
45988W        W18314  35.530  40.477  10.545
45989W        W18315  16.085  21.024   1.720
45990W        W18316   4.312  12.178   5.787
45991W        W18317  14.145   2.879   1.268
45992W        W18318  30.015  18.693  12.094
45993W        W18319  14.711   8.803   5.244
45994W        W18320   5.422  42.317  13.810
45995W        W18321  38.024  24.127   2.893
45996W        W18322  40.368  40.387   1.268
45997W        W18323  20.534   5.871  12.408
45998W        W18324  24.709  43.473   1.873
45999W        W18325  29.061   3.314  14.009
46000W        W18326  32.885  20.225  12.951
46001W        W18327   9.271  11.283  12.087
46002W        W18328  31.429   3.820   3.345
46003W        W18329  10.275   5.311   3.286
46004W        W18330  37.512  34.515  13.006
46005W        W18331  27.167  29.941   2.331
46006W        W18332   9.818  31.998  10.485
46007W        W18333  39.014   9.328  14.298
46008W        W18334  30.017  28.022   0.375
46009W        W18335   4.302  24.533  14.511
46010W        W18336  23.601  24.690  14.022
46011W        W18337   0.442  19.122  10.919
46012W        W18338  21.592  19.605  12.898
46013W        W18339   0.419   9.775  13.311
46014W        W18340  29.491   5.194   0.761
46015W        W18341  20.075   8.844  14.408
46016W        W18342  39.406   1.241  14.423
46017W        W18343  38.013  10.810  10.462
46018W        W18344   3.336  19.243   3.805
46019W        W18345  39.495   4.220  13.054
46020W        W18346  27.060  38.567   4.714
46021W        W18347  25.989  27.146  13.427
46022W        W18348  27.004   8.260  10.999
46023W        W18349   1.863  24.208  13.415
46024W        W18350  35.063  28.092  10.116
46025W        W18351  17.294  26.112   0.352
46026W        W18352  24.206  36.886   1.743
46027W        W18353  33.581  25.135   4.233
46028W        W18354  17.779  34.967  12.079
46029W        W18355   2.425  40.454  11.520
46030W        W18356  27.942  39.017   0.372
46031W        W18357  24.674   0.812   1.724
46032W        W18358  32.048   3.788  14.431
46033W        W18359  42.807  13.670   0.752
46034W        W18360  20.232   1.458   3.227
46035W        W18361  20.260  23.170  11.079
46036W        W18362  19.186  44.388  13.960
46037W        W18363  22.179  27.092   4.335
46038W        W18364  10.231   3.326   5.114
46039W        W18365  19.566  44.363   3.658
46040W        W18366  33.557  38.462  14.322
46041W        W18367  31.625  44.365   0.411
46042W        W18368  25.512  22.025   1.896
46043W        W18369  36.589  42.336   3.320
46044W        W18370  17.173   9.206   2.700
46045W        W18371  36.355  37.047   4.335
46046W        W18372  33.398   8.390   3.826
46047W        W18373   8.173  37.476  12.348
46048W        W18374   8.302  10.838  13.475
46049W        W18375  12.318  25.026   1.857
46050W        W18376  24.099   1.356   0.878
46051W        W18377  11.788  34.083   0.834
46052W        W18378  42.799   0.841   3.253
46053W        W18379  12.270  13.297   1.780
46054W        W18380  16.683  18.253  11.006
46055W        W18381  40.428   3.348   4.206
46056W        W18382  26.102  27.984   2.812
46057W        W18383  24.593  44.903   4.658
46058W        W18384   3.302  33.084   1.771
46059W        W18385  15.709  27.966   1.871
46060W        W18386  13.230  30.607  12.070
46061W        W18387  28.646   3.315   1.319
46062W        W18388  28.479  39.493   3.226
46063W        W18389   8.741  33.014   2.768
46064W        W18390  23.998  27.979   9.940
46065W        W18391  14.234  34.954  10.946
46066W        W18392   2.236  28.091   3.730
46067W        W18393   4.815   9.869   3.243
46068W        W18394   4.910  33.548  13.936
46069W        W18395   3.286  19.580  12.943
46070W        W18396   5.860  24.583  14.787
46071W        W18397  30.497   3.225   1.389
46072W        W18398   6.205  27.615   0.307
46073W        W18399  33.459  30.413  12.480
46074W        W18400  37.939   4.821   2.874
46075W        W18401  25.674  15.136  10.458
46076W        W18402   1.921  41.795   2.248
46077W        W18403  15.297  20.123   3.832
46078W        W18404  43.880  13.727  11.097
46079W        W18405  42.519  25.652  14.393
46080W        W18406  44.905   0.799   0.953
46081W        W18407  13.348  10.250   4.781
46082W        W18408  40.381  31.638   4.322
46083W        W18409  12.194  34.480  13.895
46084W        W18410  25.025  21.515  11.988
46085W        W18411  28.980  19.752   0.964
46086W        W18412   7.794  37.054  14.010
46087W        W18413   4.892  34.046  11.449
46088W        W18414  19.655   0.901   3.727
46089W        W18415  16.579  23.089   0.455
46090W        W18416   1.400  27.596  14.439
46091W        W18417  35.523  34.117   0.933
46092W        W18418   6.404  13.621  13.979
46093W        W18419  24.102  17.281   4.671
46094W        W18420  17.063  18.111   5.236
46095W        W18421   1.913   2.410  11.111
46096W        W18422  23.113  19.093  11.488
46097W        W18423  31.910  29.568  11.518
46098W        W18424  24.045   6.809  12.846
46099W        W18425  22.210  34.880  12.473
46100W        W18426  40.388  13.661  11.519
46101W        W18427  23.674   0.362   1.373
46102W        W18428  28.558  19.094  14.912
46103W        W18429  29.648  12.248   3.308
46104W        W18430  19.771  11.147   4.762
46105W        W18431   7.206  20.653  13.516
46106W        W18432  11.704  30.510   3.334
46107W        W18433  25.060  26.525  10.601
46108W        W18434   8.773  18.265   2.182
46109W        W18435  23.647   8.834  10.487
46110W        W18436  42.934   2.387   4.343
46111W        W18437  10.334  14.301   1.709
46112W        W18438   3.332  43.914   3.769
46113W        W18439  15.690  38.014  14.831
46114W        W18440  26.629  39.410  14.448
46115W        W18441  11.318  10.286  13.322
46116W        W18442   2.309  24.186   2.846
46117W        W18443  34.067  27.544  14.277
46118W        W18444  16.285  38.005   1.859
46119W        W18445  43.844  36.998   4.699
46120W        W18446  43.437  17.096   2.338
46121W        W18447   0.351   2.266  10.558
46122W        W18448  25.477  32.885   4.284
46123W        W18449  44.829   2.920  12.428
46124W        W18450  18.133  43.967  13.536
46125W        W18451   9.264  38.540   2.720
46126W        W18452  22.185  10.275  11.993
46127W        W18453  11.808  38.496  11.594
46128W        W18454  29.520  24.111   3.844
46129W        W18455   1.356  31.963   2.809
46130W        W18456  13.824  11.831  11.000
46131W        W18457  16.606  28.478  12.500
46132W        W18458   7.414  16.196   0.801
46133W        W18459   0.799  10.223   5.288
46134W        W18460  39.841  35.052   2.178
46135W        W18461   3.430  33.604  11.007
46136W        W18462  36.949  12.221   5.158
46137W        W18463  11.778  42.494  14.810
46138W        W18464  29.054  35.453   0.885
46139W        W18465  38.404  34.445  14.331
46140W        W18466   3.736  19.073   1.712
46141W        W18467  11.174   2.347   2.878
46142W        W18468  29.148  39.822   2.812
46143W        W18469   1.294   6.680  14.862
46144W        W18470  29.080  11.216   0.789
46145W        W18471  44.934  20.539   3.177
46146W        W18472  23.126  33.013  11.518
46147W        W18473  42.029  29.167  12.835
46148W        W18474  10.210  14.785  12.836
46149W        W18475  27.592  10.664  11.403
46150W        W18476   6.746  26.463  12.526
46151W        W18477  18.667  29.633   2.392
46152W        W18478  35.018  20.729  14.781
46153W        W18479   9.685  26.960   4.696
46154W        W18480  20.711  21.186   0.484
46155W        W18481  24.974   0.411   2.799
46156W        W18482  35.108  20.271  14.294
46157W        W18483  11.285   0.297  11.967
46158W        W18484  30.623   2.874   3.638
46159W        W18485  14.229  24.073   1.311
46160W        W18486  27.550  33.946  10.496
46161W        W18487   3.878   4.365   3.368
46162W        W18488  42.862  43.403  11.028
46163W        W18489  41.025  36.864   4.762
46164W        W18490  15.146  37.857  10.409
46165W        W18491  16.649  27.523  13.539
46166W        W18492  37.514  12.123   3.796
46167W        W18493  14.722  24.199  10.072
46168W        W18494  32.609   8.761   0.795
46169W        W18495  19.093  18.104   0.828
46170W        W18496  44.966   8.889   4.722
46171W        W18497  44.964  13.229  13.366
46172W        W18498   5.795   8.321  14.425
46173W        W18499  21.747  28.981   2.380
46174W        W18500  21.040  32.391   5.209
46175W        W18501   9.775   0.254  12.086
46176W        W18502  23.036  29.096  14.962
46177W        W18503  10.254  34.984  11.585
46178W        W18504  22.661  24.110  12.995
46179W        W18505  42.855  33.409   1.917
46180W        W18506  18.054  29.478  14.436
46181W        W18507  32.484   7.850  14.351
46182W        W18508  27.081  26.496  14.800
46183W        W18509  25.587  18.777  11.029
46184W        W18510   5.333  35.856  14.400
46185W        W18511  29.531  10.723   3.334
46186W        W18512  32.932  43.808   1.749
46187W        W18513  12.281  42.961   3.359
46188W        W18514  10.690  42.858  11.930
46189W        W18515  39.932  13.202  14.493
46190W        W18516  31.473  37.032   2.307
46191W        W18517  23.109  37.956   1.779
46192W        W18518  37.545   6.774   1.451
46193W        W18519  16.196  14.707   2.391
46194W        W18520  24.562  12.323   2.724
46195W        W18521   2.798  13.282  11.074
46196W        W18522  21.260  23.605  10.642
46197W        W18523   2.311   0.856   4.337
46198W        W18524  42.965  40.989  13.843
46199W        W18525  12.270  22.036   2.303
46200W        W18526  21.166   0.345   4.271
46201W        W18527  32.509  25.582  11.416
46202W        W18528  44.765  25.132   4.299
46203W        W18529  36.027   0.817  13.478
46204W        W18530   9.719  13.320   2.724
46205W        W18531  15.670   2.232  13.380
46206W        W18532  13.323  23.613   4.340
46207W        W18533  24.594  29.461   3.711
46208W        W18534  34.578  35.882  13.529
46209W        W18535   4.909  34.006  13.429
46210W        W18536  38.052  32.609   2.260
46211W        W18537   4.920  40.016  11.103
46212W        W18538  43.811   8.803  12.012
46213W        W18539  16.617  42.836   2.888
46214W        W18540  11.243   9.197  12.877
46215W        W18541  19.551  24.040  13.455
46216W        W18542  31.057   4.751  12.378
46217W        W18543   3.899  18.092   3.340
46218W        W18544   7.774   9.833  12.460
46219W        W18545  12.273  26.132   2.866
46220W        W18546  41.424  10.190   5.182
46221W        W18547  23.155  17.094   5.215
46222W        W18548  43.416  43.797   4.136
46223W        W18549  40.963  32.948  14.905
46224W        W18550  17.689  21.648  13.910
46225W        W18551   3.780  40.529   3.340
46226W        W18552  12.348  27.593  12.412
46227W        W18553  36.966  40.531   4.643
46228W        W18554  16.119  38.014  11.526
46229W        W18555  19.688  20.547   3.734
46230W        W18556  31.456  33.502  12.018
46231W        W18557   9.719  33.074  14.455
46232W        W18558  23.178  29.548   3.270
46233W        W18559  19.594  31.068   5.221
46234W        W18560  37.872  22.104   3.828
46235W        W18561  43.983  12.173  12.383
46236W        W18562   3.405  29.659   2.273
46237W        W18563   7.714  18.618  11.518
46238W        W18564   0.492  43.411  10.451
46239W        W18565  25.190  32.980  12.507
46240W        W18566  11.359  32.050   0.476
46241W        W18567   9.242  21.556  14.791
46242W        W18568  17.190   5.889  14.440
46243W        W18569  17.557  37.378   0.795
46244W        W18570   4.815   9.706   2.897
46245W        W18571   1.357  40.315   4.735
46246W        W18572  30.091  31.102  14.027
46247W        W18573  27.999  11.143  12.981
46248W        W18574  35.579   8.723   4.642
46249W        W18575   4.205   2.923  11.074
46250W        W18576   9.813   6.326   3.156
46251W        W18577   9.863  41.953  13.370
46252W        W18578  41.839   7.210   4.338
46253W        W18579  31.530  10.836   4.659
46254W        W18580  13.599   1.318  13.452
46255W        W18581   2.233   7.833  12.560
46256W        W18582  18.154  25.551  14.303
46257W        W18583  25.646  35.042   5.193
46258W        W18584   2.961  30.545   1.426
46259W        W18585  15.740  23.569  11.855
46260W        W18586  16.633   8.309  10.497
46261W        W18587  29.651  38.001   1.859
46262W        W18588  38.460  34.054   2.381
46263W        W18589  29.983   6.317  11.597
46264W        W18590  20.158   5.429  14.409
46265W        W18591  44.453  27.625  12.524
46266W        W18592  15.779  24.040  12.906
46267W        W18593  29.428   9.793   3.386
46268W        W18594  17.636  16.279   4.700
46269W        W18595  37.025  11.678   4.819
46270W        W18596  33.402  28.531  10.048
46271W        W18597  17.666  38.391  12.394
46272W        W18598  39.522  21.150   3.850
46273W        W18599   8.801  26.619  11.998
46274W        W18600  28.019  32.504  13.966
46275W        W18601   2.909  31.492   3.160
46276W        W18602  26.982  21.080  10.037
46277W        W18603  44.823   7.822   1.401
46278W        W18604  33.405  18.622  14.442
46279W        W18605  26.700  19.593   2.353
46280W        W18606  24.113  42.800  14.343
46281W        W18607  41.356  29.992  10.528
46282W        W18608  17.242  31.520  10.575
46283W        W18609  21.689  18.677   4.145
46284W        W18610  17.713   0.873   3.278
46285W        W18611   2.845  32.129  12.370
46286W        W18612  18.687  13.294   0.411
46287W        W18613  32.634  12.767  11.489
46288W        W18614  21.587  15.268  14.892
46289W        W18615  25.043  39.339   2.178
46290W        W18616  36.065  27.122  11.983
46291W        W18617  35.558  19.122   3.168
46292W        W18618  13.274  32.445  13.799
46293W        W18619   2.881  30.498  13.923
46294W        W18620  29.616  30.536   5.144
46295W        W18621   0.833  42.429   3.193
46296W        W18622  25.142  28.033   1.924
46297W        W18623  23.177   7.264  11.398
46298W        W18624   1.880   9.764  14.826
46299W        W18625  43.770  29.025  11.090
46300W        W18626  34.911  17.607   3.159
46301W        W18627  11.791  28.186   4.598
46302W        W18628  25.494  27.485   3.182
46303W        W18629  20.038  10.375   2.369
46304W        W18630  28.987  29.491  14.802
46305W        W18631  24.646  33.987   2.828
46306W        W18632  26.079  11.845  11.582
46307W        W18633  40.510  40.361   2.805
46308W        W18634   5.916  30.570  14.439
46309W        W18635   9.322  37.340  11.425
46310W        W18636  24.974  21.723  12.434
46311W        W18637   4.918   2.894  12.448
46312W        W18638  41.915  28.656   2.400
46313W        W18639   6.732  19.779   4.287
46314W        W18640  27.660  44.819  14.982
46315W        W18641   3.843  28.016  12.482
46316W        W18642  13.649  10.852   0.476
46317W        W18643  27.548  41.980  10.537
46318W        W18644   4.448  32.575   0.926
46319W        W18645   8.869   9.680  14.390
46320W        W18646  20.201  20.530   0.821
46321W        W18647  33.058   5.839   0.901
46322W        W18648   0.791   6.399  13.920
46323W        W18649   9.882  21.211  11.570
46324W        W18650  29.625  29.470   3.740
46325W        W18651  15.194  40.895  12.851
46326W        W18652  35.100   5.437   4.206
46327W        W18653  40.307  31.971   1.828
46328W        W18654  10.274  24.625  10.905
46329W        W18655  41.493  21.649   3.689
46330W        W18656  31.617  41.963  12.405
46331W        W18657   6.219  21.524  11.111
46332W        W18658  29.145   0.453  13.954
46333W        W18659  20.119  31.429   2.862
46334W        W18660  26.975  40.498   1.929
46335W        W18661  20.039  35.078   3.193
46336W        W18662  15.099  27.962  10.410
46337W        W18663  27.648  44.415  12.855
46338W        W18664   7.239  28.489   4.216
46339W        W18665  39.452  14.805   2.263
46340W        W18666   7.861   0.814   1.874
46341W        W18667  37.925   3.254  14.018
46342W        W18668  27.038  30.537   2.674
46343W        W18669  13.200  31.546   0.474
46344W        W18670  40.515   3.951   1.385
46345W        W18671   8.341  29.632   0.425
46346W        W18672  25.585  24.663   2.371
46347W        W18673  37.948   6.300   2.186
46348W        W18674  25.188  43.904   1.411
46349W        W18675  43.489  20.052   2.185
46350W        W18676   8.656  44.868  14.926
46351W        W18677  22.536  38.903   2.308
46352W        W18678  41.951  20.734  12.926
46353W        W18679  28.991   2.825  13.849
46354W        W18680  44.404  41.482   4.794
46355W        W18681  24.197   9.784   0.450
46356W        W18682   6.762  12.316   1.386
46357W        W18683  24.081  11.749   3.666
46358W        W18684   9.875  42.426   3.162
46359W        W18685   6.373  31.462   4.747
46360W        W18686  30.074  41.468  14.994
46361W        W18687  34.919  21.743   4.182
46362W        W18688  37.376  41.511   4.647
46363W        W18689  10.779  26.049  11.879
46364W        W18690  31.481   0.263  10.978
46365W        W18691  36.546   4.349   4.631
46366W        W18692   0.387  40.025  11.926
46367W        W18693   4.823  27.684  11.523
46368W        W18694   8.756  43.324  11.503
46369W        W18695  26.483  22.015  10.580
46370W        W18696  35.874  44.987   3.709
46371W        W18697  19.685   9.852   2.412
46372W        W18698  23.031  14.321   3.380
46373W        W18699  16.186  31.082   4.689
46374W        W18700  44.343  16.711   5.095
46375W        W18701  34.983   2.354  14.858
46376W        W18702  27.990  11.192  12.515
46377W        W18703  13.599   7.840   3.242
46378W        W18704  19.086  32.610   3.754
46379W        W18705   7.282  27.579  13.372
46380W        W18706  43.472  26.062  14.932
46381W        W18707   5.755  39.492  11.468
46382W        W18708   3.386  19.071   1.319
46383W        W18709  24.138   0.754  11.470
46384W        W18710  44.003  10.337   2.766
46385W        W18711   2.416  41.027   4.142
46386W        W18712  17.597   8.344  13.863
46387W        W18713  34.571  29.940   1.742
46388W        W18714  33.456  22.511   0.952
46389W        W18715  10.756  17.265  10.610
46390W        W18716  25.671   6.750   1.441
46391W        W18717  23.171  24.981  10.514
46392W        W18718  33.089  29.505  14.499
46393W        W18719  33.576  11.249   2.353
46394W        W18720  28.550  26.671   2.859
46395W        W18721  38.992   7.284   2.191
46396W        W18722   1.278  35.601   3.307
46397W        W18723  41.379   1.958   2.374
46398W        W18724   4.886  28.008   2.664
46399W        W18725   5.306   9.390   3.649
46400W        W18726  16.724  19.733  14.408
46401W        W18727  41.388  11.353   1.822
46402W        W18728  11.680  13.167   4.735
46403W        W18729   4.248  27.963   0.457
46404W        W18730   6.861  26.473   0.445
46405W        W18731  26.525  13.833   4.734
46406W        W18732  14.205  10.635   0.844
46407W        W18733   7.332   9.817   2.758
46408W        W18734  36.432  10.226   5.122
46409W        W18735  37.530  41.901   4.344
46410W        W18736  32.593   8.348   2.382
46411W        W18737  22.680  38.877   0.360
46412W        W18738  33.060  44.945   3.349
46413W        W18739  28.964  42.363  11.536
46414W        W18740  41.787  18.697  10.908
46415W        W18741  38.031  25.211  10.028
46416W        W18742  37.375  22.514   0.359
46417W        W18743  11.639  39.043   2.179
46418W        W18744  20.596  22.208  13.443
46419W        W18745   2.946  24.545   5.283
46420W        W18746  12.660  15.748  13.868
46421W        W18747  23.564   0.782   0.439
46422W        W18748  33.440  12.709   0.774
46423W        W18749  37.065  30.121   0.861
46424W        W18750  10.164   7.787  11.509
46425W        W18751  25.974  31.473  14.986
46426W        W18752  26.200   8.221   2.786
46427W        W18753   9.161  25.181  12.448
46428W        W18754  31.102  31.139   0.418
46429W        W18755  11.665  31.967   3.290
46430W        W18756  37.940   5.712  14.773
46431W        W18757  23.103  32.501  11.506
46432W        W18758  11.660   4.705  11.502
46433W        W18759  39.536  12.757   4.755
46434W        W18760  29.119   9.354   2.788
46435W        W18761  36.949  43.011  13.473
46436W        W18762   1.837  13.713  14.811
46437W        W18763  44.922  26.979   2.724
46438W        W18764   9.212  14.163   0.928
46439W        W18765  12.763  12.255   1.322
46440W        W18766  23.239   2.290   2.262
46441W        W18767   4.212  39.462  14.921
46442W        W18768  36.437  39.414  10.977
46443W        W18769   2.836   2.386   2.697
46444W        W18770  44.296  44.974  13.806
46445W        W18771  32.626  14.110  11.433
46446W        W18772  15.159  38.520   0.861
46447W        W18773  25.567  31.423  14.330
46448W        W18774  14.676  11.819   4.754
46449W        W18775  16.167  42.988   0.330
46450W        W18776  30.974  27.072   2.355
46451W        W18777  21.614  25.130  11.552
46452W        W18778  15.294  32.561   3.316
46453W        W18779  35.560  16.121  10.999
46454W        W18780   1.881  29.145  13.006
46455W        W18781  10.769  39.888  13.421
46456W        W18782  18.631  33.982  13.827
46457W        W18783  23.535  42.283  12.044
46458W        W18784   5.836  26.574   0.292
46459W        W18785  38.924   1.478  12.889
46460W        W18786  38.917  20.060   2.242
46461W        W18787  19.585  31.017  11.443
46462W        W18788  20.683  17.187   2.181
46463W        W18789  14.331  12.273   2.403
46464W        W18790   6.912  34.378  13.849
46465W        W18791  21.068  26.120  13.333
46466W        W18792   6.349   6.342  14.898
46467W        W18793   1.840  31.434   2.878
46468W        W18794   0.378  44.476  13.024
46469W        W18795   3.734  15.766   2.815
46470W        W18796  42.480   8.794  13.401
46471W        W18797   0.761  34.570   2.331
46472W        W18798  26.493  26.467   4.819
46473W        W18799  14.767   6.776   4.721
46474W        W18800  16.278  32.121   0.824
46475W        W18801  16.624   4.306   0.831
46476W        W18802  27.559  26.546  13.370
46477W        W18803  38.006  13.230   4.210
46478W        W18804  11.198  18.153   2.761
46479W        W18805  22.118   5.889  13.343
46480W        W18806  19.709   2.962  11.419
46481W        W18807  42.807  13.607  10.906
46482W        W18808   9.356  43.902   1.412
46483W        W18809  23.494  35.461  14.002
46484W        W18810  26.006  26.043   5.253
46485W        W18811  11.228   8.873   0.924
46486W        W18812  18.192  28.153   0.281
46487W        W18813  36.404  21.533   2.747
46488W        W18814  34.065  18.757  13.480
46489W        W18815  11.136  29.952  12.884
46490W        W18816  14.253  14.812   4.240
46491W        W18817   8.826   8.356  12.997
46492W        W18818  44.411  42.447  13.935
46493W        W18819  29.943  27.048   1.829
46494W        W18820  16.219  31.452   0.289
46495W        W18821  29.585  15.681   2.379
46496W        W18822  10.779  27.630  14.458
46497W        W18823  10.673   2.406  13.906
46498W        W18824  17.281  24.174   2.217
46499W        W18825   3.317  10.744   4.609
46500W        W18826  44.986   7.690  12.368
46501W        W18827  26.537  33.993   4.713
46502W        W18828  40.861  14.671   0.791
46503W        W18829  35.558  27.453  11.391
46504W        W18830  30.917  35.373  12.003
46505W        W18831  20.696  23.127   3.238
46506W        W18832  31.115  39.444  12.001
46507W        W18833   3.460  44.941   4.760
46508W        W18834   4.709   7.906  12.393
46509W        W18835  13.198  38.369   0.328
46510W        W18836  34.888  41.981   0.773
46511W        W18837   3.787   9.293   2.213
46512W        W18838  30.921  18.642   2.764
46513W        W18839  34.892  23.583   1.765
46514W        W18840  19.240  31.944  14.934
46515W        W18841  42.831  19.283  14.773
46516W        W18842  23.110  39.378   4.671
46517W        W18843  18.570  38.410  13.341
46518W        W18844  11.338  10.304   1.338
46519W        W18845   7.815  43.480  14.364
46520W        W18846  33.435  16.285   1.402
46521W        W18847   2.874  15.253  10.503
46522W        W18848  10.269  37.470   1.866
46523W        W18849  43.966  21.111  13.543
46524W        W18850  39.348  16.312  10.473
46525W        W18851  31.587  42.434   3.225
46526W        W18852   4.743  39.908  13.498
46527W        W18853   1.877  15.214  11.900
46528W        W18854  13.781   7.293   4.828
46529W        W18855  28.933  20.183   3.215
46530W        W18856   4.242   8.331   0.366
46531W        W18857  43.846  44.984   0.397
46532W        W18858   6.252  28.491   0.271
46533W        W18859  25.513  37.993  14.857
46534W        W18860  36.429  44.488   4.788
46535W        W18861   4.716   2.231  11.525
46536W        W18862  31.487   8.860  13.395
46537W        W18863   6.404  36.952  14.290
46538W        W18864  36.859  14.790  10.475
46539W        W18865  43.304  33.413  13.906
46540W        W18866   5.429  23.634   2.841
46541W        W18867  11.819   0.802  13.352
46542W        W18868  40.957  43.789  14.313
46543W        W18869  16.091  18.188  12.366
46544W        W18870  24.654  12.290   1.771
46545W        W18871  20.147  11.630   2.401
46546W        W18872  42.014  19.638   3.792
46547W        W18873   0.431  10.725  13.020
46548W        W18874  38.071  27.596   2.208
46549W        W18875  39.891   9.851   1.363
46550W        W18876   6.316  34.868  11.921
46551W        W18877  13.801  44.955   0.754
46552W        W18878  28.096   4.883   0.907
46553W        W18879  18.128  26.534   4.836
46554W        W18880  13.142  19.765  13.922
46555W        W18881  23.646  36.531  11.411
46556W        W18882  34.425  42.010  13.926
46557W        W18883  20.686  37.006  13.000
46558W        W18884  43.488   5.222  13.833
46559W        W18885  38.864  21.726   1.238
46560W        W18886  37.530   8.764  14.776
46561W        W18887  22.142   8.846  11.558
46562W        W18888  34.424  15.315  13.891
46563W        W18889  27.538  21.185  13.383
46564W        W18890  25.654  23.683   2.888
46565W        W18891  17.799  10.692  11.606
46566W        W18892  18.750   4.934  11.046
46567W        W18893  20.084  19.694  14.883
46568W        W18894  15.773   8.893  13.038
46569W        W18895  19.575   1.956   0.781
46570W        W18896  40.382  18.277   3.234
46571W        W18897  39.935   1.441   3.709
46572W        W18898  29.035   1.918   4.228
46573W        W18899   8.754  34.870  11.557
46574W        W18900   0.931  34.014   1.306
46575W        W18901  18.708  22.071   0.832
46576W        W18902   1.931  26.147  13.922
46577W        W18903   3.361  14.113  14.007
46578W        W18904  25.053  12.679   2.764
46579W        W18905  21.230  16.300   2.311
46580W        W18906   4.399   3.747  11.030
46581W        W18907  44.790  13.800  10.945
46582W        W18908  29.013  30.994   0.860
46583W        W18909  41.518  32.592   0.433
46584W        W18910  14.738  36.568   1.319
46585W        W18911  13.229  28.585  14.446
46586W        W18912  27.059  30.601   4.751
46587W        W18913  41.834  36.456   1.728
46588W        W18914  18.243  43.005  10.457
46589W        W18915   7.864  15.623  10.617
46590W        W18916  11.821   4.851   5.254
46591W        W18917  23.583  38.881   3.291
46592W        W18918  34.606  14.779   0.390
46593W        W18919  19.208  37.952   3.293
46594W        W18920  19.707  24.075  11.949
46595W        W18921  12.723  15.314  11.078
46596W        W18922   8.234   5.206  10.567
46597W        W18923  35.414  22.732  11.408
46598W        W18924  34.469  33.432   4.742
46599W        W18925  19.660  38.486  10.537
46600W        W18926  34.468   8.706   0.807
46601W        W18927  20.730  41.335   1.251
46602W        W18928  11.270  17.072  11.532
46603W        W18929  10.207  38.886   1.704
46604W        W18930  31.424  38.418  10.991
46605W        W18931  29.616  34.555  12.995
46606W        W18932  27.482  16.663  13.486
46607W        W18933  19.219  31.027  12.472
46608W        W18934   7.880  21.730  13.916
46609W        W18935  22.689  17.570   3.192
46610W        W18936  29.494  14.647   4.332
46611W        W18937   2.828  19.756   4.627
46612W        W18938   0.380  21.744   3.843
46613W        W18939   0.813  16.686   4.736
46614W        W18940  29.949  37.536  12.900
46615W        W18941   9.170  36.359  13.830
46616W        W18942  25.148   0.359   3.368
46617W        W18943   1.817  33.455   1.263
46618W        W18944  14.702  20.569  14.514
46619W        W18945  36.092  39.358  14.990
46620W        W18946  37.969  15.098   0.358
46621W        W18947   1.952  17.188  11.040
46622W        W18948  38.374  40.496  10.506
46623W        W18949  17.648   3.771  10.563
46624W        W18950  28.671  11.175  13.441
46625W        W18951  31.125  40.323   0.883
46626W        W18952  37.910  19.553  14.950
46627W        W18953   1.345   6.265  11.948
46628W        W18954  26.607  23.997   5.246
46629W        W18955   2.453  34.963   0.437
46630W        W18956  34.590  42.350   1.850
46631W        W18957   1.314   4.204   0.395
46632W        W18958  40.383  33.114  13.495
46633W        W18959   7.727  23.556  14.432
46634W        W18960  41.294  33.457   3.163
46635W        W18961  42.523   0.753  13.930
46636W        W18962   2.893  13.677  13.888
46637W        W18963  28.611  12.300   3.837
46638W        W18964  44.805  19.569  13.938
46639W        W18965  39.935   5.388   0.354
46640W        W18966   8.377  44.865   4.232
46641W        W18967  25.538  32.601   4.215
46642W        W18968   2.799  32.442  13.328
46643W        W18969   6.681  23.045  12.513
46644W        W18970  26.117   5.906   3.314
46645W        W18971  41.987   7.794   0.955
46646W        W18972  34.914  16.234  14.393
46647W        W18973  43.898  36.512   4.241
46648W        W18974  19.085  37.414   2.188
46649W        W18975  27.991  21.136   2.276
46650W        W18976  25.553   3.868   0.433
46651W        W18977  32.013  37.943   3.325
46652W        W18978  37.866   6.225  14.294
46653W        W18979  37.493  34.053  11.855
46654W        W18980  12.743  27.026  12.537
46655W        W18981  20.227  11.204   2.687
46656W        W18982  18.263  26.619   5.284
46657W        W18983  37.361  30.463   4.116
46658W        W18984  20.697  35.580   4.597
46659W        W18985  20.659  22.201   1.382
46660W        W18986  25.591  34.019  12.014
46661W        W18987  33.904  42.838   4.757
46662W        W18988  17.094  33.522   4.118
46663W        W18989   3.929   6.319   1.755
46664W        W18990   1.252  21.645  10.155
46665W        W18991  29.964  30.525   1.838
46666W        W18992  21.134  36.457   5.102
46667W        W18993  41.787  29.037  13.368
46668W        W18994  26.465  35.911   2.270
46669W        W18995   1.784   6.198   0.855
46670W        W18996  34.033  43.880  14.824
46671W        W18997  19.648  16.108  14.772
46672W        W18998   4.277  12.735  13.835
46673W        W18999  35.109  15.170  10.641
46674W        W19000   3.327   4.220  10.146
46675W        W19001  38.337   7.911  12.870
46676W        W19002  29.978   9.361   3.788
46677W        W19003  26.154   8.386   4.132
46678W        W19004  26.205  43.309   0.309
46679W        W19005  40.002   7.853   3.255
46680W        W19006  17.145  35.988   4.258
46681W        W19007  40.358  10.635  11.485
46682W        W19008   9.764  32.980  13.407
46683W        W19009  23.182  19.067   2.891
46684W        W19010  34.087  21.680  13.508
46685W        W19011   2.382  24.178   5.744
46686W        W19012  28.997  32.139   3.835
46687W        W19013   8.719  27.668  12.381
46688W        W19014  30.914  13.786  12.066
46689W        W19015  39.438  25.626  10.903
46690W        W19016   7.352  16.804  14.477
46691W        W19017  33.402  26.654   4.233
46692W        W19018  17.250  18.080   0.829
46693W        W19019  31.908  21.626   1.450
46694W        W19020  42.422  17.114   4.611
46695W        W19021   1.895  21.234   2.210
46696W        W19022  32.407  22.553  11.499
46697W        W19023  21.042  24.483   1.359
46698W        W19024  17.099   2.338  14.938
46699W        W19025  31.978  16.800  10.142
46700W        W19026  12.212  34.021  14.929
46701W        W19027   3.382  40.439   2.875
46702W        W19028  12.192  35.102   0.916
46703W        W19029  28.451   2.337  14.499
46704W        W19030  42.972  13.245   1.227
46705W        W19031  42.875   1.430   4.274
46706W        W19032   5.383   1.818  11.985
46707W        W19033  36.938  16.278  14.962
46708W        W19034  26.982  17.219  12.348
46709W        W19035   7.407  31.113   3.786
46710W        W19036  38.498  18.279  10.519
46711W        W19037  37.392  36.069   3.180
46712W        W19038  18.263  25.187  12.881
46713W        W19039  42.944  17.710  13.916
46714W        W19040  34.461  33.424   3.634
46715W        W19041  24.214   9.757  14.870
46716W        W19042  32.567  34.475   5.110
46717W        W19043  17.128  24.997  12.969
46718W        W19044  42.485  40.346  13.901
46719W        W19045  27.180  10.855   0.355
46720W        W19046  10.772  41.924  11.952
46721W        W19047   0.467   8.246  14.879
46722W        W19048  44.305  15.232  14.499
46723W        W19049   8.692  11.212   3.813
46724W        W19050  16.762  15.117  13.887
46725W        W19051   9.870  44.918  12.352
46726W        W19052  38.389  41.018  12.367
46727W        W19053   9.829  29.144   4.319
46728W        W19054  33.564  33.109   2.817
46729W        W19055  30.574  23.071  14.950
46730W        W19056  25.027  42.860  13.039
46731W        W19057  38.918  26.467   3.253
46732W        W19058   5.192  23.064  10.995
46733W        W19059  39.943   3.413  10.918
46734W        W19060  40.921  37.854  11.398
46735W        W19061  25.967  16.209  13.513
46736W        W19062  44.283  30.532  10.469
46737W        W19063  29.509  32.063   0.475
46738W        W19064  30.529  14.782   3.269
46739W        W19065  39.440   1.964  13.431
46740W        W19066   8.295  33.579  11.578
46741W        W19067  28.568   6.386   0.275
46742W        W19068  27.578  12.198   2.780
46743W        W19069  29.099  40.511   2.303
46744W        W19070  31.105   3.370   5.114
46745W        W19071  44.463  43.879   2.269
46746W        W19072   8.231   8.663  13.029
46747W        W19073   1.275  10.316   1.446
46748W        W19074  10.731  12.287   4.125
46749W        W19075  41.832  11.674   3.670
46750W        W19076  27.608  34.435   4.310
46751W        W19077  44.500  23.117  12.524
46752W        W19078   7.403  33.940  12.517
46753W        W19079   9.199  37.345   4.668
46754W        W19080  43.336  39.554  12.465
46755W        W19081  21.552  14.740  11.875
46756W        W19082  41.960   7.705  13.402
46757W        W19083   3.260  28.178   1.845
46758W        W19084  15.602  20.583   4.710
46759W        W19085  28.110  13.626  12.907
46760W        W19086   5.215  39.015   0.944
46761W        W19087  38.057  37.424   4.694
46762W        W19088   9.276  19.054  13.416
46763W        W19089  17.566  23.186   2.785
46764W        W19090  41.427  31.940   3.774
46765W        W19091  21.601  33.516   0.482
46766W        W19092  34.605  26.074  13.548
46767W        W19093  12.812  17.755   4.176
46768W        W19094  30.038  42.483   4.244
46769W        W19095  14.651  44.334   3.827
46770W        W19096  16.154  36.406  12.955
46771W        W19097   6.415  32.996   3.381
46772W        W19098  35.036   8.851  11.896
46773W        W19099  18.672   9.169  14.412
46774W        W19100  41.818  12.348   2.317
46775W        W19101  29.955  10.271  13.325
46776W        W19102  22.727  32.083   3.783
46777W        W19103   5.212   5.717  13.376
46778W        W19104  39.811  21.733   0.244
46779W        W19105  19.232   7.413  12.493
46780W        W19106   9.824  15.178   3.695
46781W        W19107  36.484  33.404   2.383
46782W        W19108   8.267  40.932  11.409
46783W        W19109  21.737   5.299   2.255
46784W        W19110  31.589  20.695  10.504
46785W        W19111  17.230  31.572   1.913
46786W        W19112  10.264  29.001   1.287
46787W        W19113   3.358  29.603   1.368
46788W        W19114  15.659  15.266  12.977
46789W        W19115  38.942  26.489  11.610
46790W        W19116  23.105  43.307   1.369
46791W        W19117  40.378  20.200   4.688
46792W        W19118  15.323  40.492  13.428
46793W        W19119   5.909  36.364  11.057
46794W        W19120  35.870  36.495  11.909
46795W        W19121  33.027  28.539  14.802
46796W        W19122  29.016  41.010   3.185
46797W        W19123  38.885   2.326  11.493
46798W        W19124  20.147   3.453   1.331
46799W        W19125  37.002   9.391   3.815
46800W        W19126  39.497  24.547   3.321
46801W        W19127  14.103  37.034  12.084
46802W        W19128  11.779  22.103  11.916
46803W        W19129  11.746  23.701  12.006
46804W        W19130   8.832  43.470   3.153
46805W        W19131   1.862  11.642   2.405
46806W        W19132   7.693  27.605  14.431
46807W        W19133  11.813  35.061   3.728
46808W        W19134   6.902  42.448  12.549
46809W        W19135  38.951  41.015   1.790
46810W        W19136   5.320  25.601   3.231
46811W        W19137  41.416  32.622  12.068
46812W        W19138  13.246  24.493  12.420
46813W        W19139  40.039   9.775  13.358
46814W        W19140  30.536   4.750  14.340
46815W        W19141  39.345  30.597   3.656
46816W        W19142  20.745  11.251  11.044
46817W        W19143  21.559   5.437  14.925
46818W        W19144   8.195   5.791  12.078
46819W        W19145   1.785  21.614   0.782
46820W        W19146  16.578  25.508   3.158
46821W        W19147  21.617  28.949  10.500
46822W        W19148  40.838  12.140  12.471
46823W        W19149  15.173  31.474  10.918
46824W        W19150  33.382   7.680  12.554
46825W        W19151  41.846   7.749   1.306
46826W        W19152  14.759  24.702   3.217
46827W        W19153  21.065  13.673   0.740
46828W        W19154  30.920  19.580  13.847
46829W        W19155  24.152   1.876  10.587
46830W        W19156  18.697   7.843   0.810
46831W        W19157   1.927  16.209  12.568
46832W        W19158  18.585  18.552  12.889
46833W        W19159  36.022  43.283  14.933
46834W        W19160  38.825  14.100   2.738
46835W        W19161  20.743  24.125  13.986
46836W        W19162  32.483  42.479  13.535
46837W        W19163   2.891  41.829   0.841
46838W        W19164  19.679  39.887   4.281
46839W        W19165   6.324   0.973  12.896
46840W        W19166  11.207  36.868   3.842
46841W        W19167  33.591   9.651  10.485
46842W        W19168  29.038  35.550  14.316
46843W        W19169  32.419  18.219   2.892
46844W        W19170  11.289  12.200  13.832
46845W        W19171  40.936  17.575   3.830
46846W        W19172  17.761  34.932   0.856
46847W        W19173  31.416  37.407  14.298
46848W        W19174   7.318  19.562  13.411
46849W        W19175  29.636   0.301  10.089
46850W        W19176  36.400  26.515  11.572
46851W        W19177   3.764  24.207  12.456
46852W        W19178  37.413  44.945   3.154
46853W        W19179  30.975  13.708  10.982
46854W        W19180   8.758  16.795  11.479
46855W        W19181  12.694  41.829  12.533
46856W        W19182   7.346   5.912  14.308
46857W        W19183  22.677  38.366  14.862
46858W        W19184  29.165  32.577   1.340
46859W        W19185  21.578   0.297   1.803
46860W        W19186  30.908   7.397   0.409
46861W        W19187  38.378  16.719   4.301
46862W        W19188  12.610  34.993  13.950
46863W        W19189  31.138  37.007   4.145
46864W        W19190  32.038  44.374  11.056
46865W        W19191  14.138  39.552  12.857
46866W        W19192  13.687  19.175  13.911
46867W        W19193   8.859  23.022  10.532
46868W        W19194  38.850  10.288   0.456
46869W        W19195  38.002   7.336  11.405
46870W        W19196  21.025   5.399  14.442
46871W        W19197  14.167  33.515  14.454
46872W        W19198  32.631  20.050  11.582
46873W        W19199  15.815   2.357   4.301
46874W        W19200  28.681  13.689   2.731
46875W        W19201  36.092  35.590  12.468
46876W        W19202  38.072  18.189   2.878
46877W        W19203  25.525  22.108  10.630
46878W        W19204  38.385  19.700  10.630
46879W        W19205   3.437  39.035  12.524
46880W        W19206   1.931  37.038  12.990
46881W        W19207  22.135  40.813   4.276
46882W        W19208  37.023  43.980   3.871
46883W        W19209  11.679  44.859   0.735
46884W        W19210  42.026  19.191  13.959
46885W        W19211  44.504  15.687  12.388
46886W        W19212  19.631   4.841  14.929
46887W        W19213  19.705  10.335  11.965
46888W        W19214   4.790   3.838  11.598
46889W        W19215  18.275  30.029  14.936
46890W        W19216  10.384   5.227  12.389
46891W        W19217  21.677  10.674  12.419
46892W        W19218   4.362  33.994  10.486
46893W        W19219  34.915  12.228   0.276
46894W        W19220   0.368  35.596   0.281
46895W        W19221  35.074  39.918   1.817
46896W        W19222  28.182  17.753   3.240
46897W        W19223  32.935  26.991  12.057
46898W        W19224  24.692   5.901   2.205
46899W        W19225  36.451  43.923   0.347
46900W        W19226   1.766  18.292   1.809
46901W        W19227  24.651  42.379  13.363
46902W        W19228  40.995  30.967  11.373
46903W        W19229  44.775   7.710   4.742
46904W        W19230  14.290  16.162  10.932
46905W        W19231  29.936   4.278   0.470
46906W        W19232  11.718  20.108   0.468
46907W        W19233  14.310  31.616  11.899
46908W        W19234  11.694  30.553  12.555
46909W        W19235  12.814  18.772   1.714
46910W        W19236   1.804   9.647   3.736
46911W        W19237  38.558  37.835  11.419
46912W        W19238  14.754  37.413  12.365
46913W        W19239  14.629   8.219  14.832
46914W        W19240  21.620  20.056   1.428
46915W        W19241  43.476   8.394  10.437
46916W        W19242  31.152  32.937   2.738
46917W        W19243  32.982  11.649  12.560
46918W        W19244  27.031   5.284  12.535
46919W        W19245  17.729  37.034   4.188
46920W        W19246  30.440  11.327  10.924
46921W        W19247   3.752  17.217   3.236
46922W        W19248  37.002  27.042  13.894
46923W        W19249  24.230  22.242   2.792
46924W        W19250  19.179  31.123   4.733
46925W        W19251  32.600  29.467   3.708
46926W        W19252  41.317  44.272  14.795
46927W        W19253   1.836  40.368   2.304
46928W        W19254  17.242  10.867  12.452
46929W        W19255  33.062  14.778   3.176
46930W        W19256  13.641   5.354  13.942
46931W        W19257  11.748  12.121   4.673
46932W        W19258  41.440  14.624  14.920
46933W        W19259  32.540  16.582  12.532
46934W        W19260  16.129  17.682   1.744
46935W        W19261   9.214  34.443  13.418
46936W        W19262   9.253   6.375   0.383
46937W        W19263  16.614  28.610  14.492
46938W        W19264  32.566  21.095   2.677
46939W        W19265  30.004  29.632   0.363
46940W        W19266  21.610  29.099   1.813
46941W        W19267   5.707  10.759   0.764
46942W        W19268  25.012  25.185   2.689
46943W        W19269   4.384   5.912   1.793
46944W        W19270  44.818  42.329   4.627
46945W        W19271  24.489  37.002  10.481
46946W        W19272  11.852  11.316  14.919
46947W        W19273   2.903   0.294  11.432
46948W        W19274  16.200  34.489  13.380
46949W        W19275  25.470  26.069   4.783
46950W        W19276   0.488  26.967  11.113
46951W        W19277  18.621  39.402  13.025
46952W        W19278   9.718  11.353   3.375
46953W        W19279   0.983  37.551  12.519
46954W        W19280  22.644  37.342  14.473
46955W        W19281   3.277  30.109   0.464
46956W        W19282  40.804  28.008   1.286
46957W        W19283  37.350  13.601   3.827
46958W        W19284  13.822  16.572   1.759
46959W        W19285   3.831  17.205   1.331
46960W        W19286  10.732  10.175   4.169
46961W        W19287   8.238  32.486   2.291
46962W        W19288  37.038  43.481  12.981
46963W        W19289   9.360  29.951   4.268
46964W        W19290  37.463  10.220   2.875
46965W        W19291  39.523  39.062  12.346
46966W        W19292   0.449   1.891  14.956
46967W        W19293  38.064  20.699   1.324
46968W        W19294  20.643   7.296  11.458
46969W        W19295  31.619  43.010  14.975
46970W        W19296  39.988  38.057   1.734
46971W        W19297   4.917   0.470  10.630
46972W        W19298  31.403  13.286   3.661
46973W        W19299  37.900  14.213   2.724
46974W        W19300  12.126  30.043   0.403
46975W        W19301  40.505   2.279  12.084
46976W        W19302  25.086  40.395   0.770
46977W        W19303  19.161  30.633  14.435
46978W        W19304  37.440  23.505  10.045
46979W        W19305  16.777  20.203  12.965
46980W        W19306  25.140  13.832   0.244
46981W        W19307  24.073  15.791   1.326
46982W        W19308   7.284  17.673  12.482
46983W        W19309  25.112  10.220   3.764
46984W        W19310  43.809  17.798   3.334
46985W        W19311   4.301  26.977   2.723
46986W        W19312  20.612   1.394  12.943
46987W        W19313  12.673  40.903   3.850
46988W        W19314  15.653  37.538  12.878
46989W        W19315  36.848  25.603   0.466
46990W        W19316  23.230  19.657  12.515
46991W        W19317  23.544  43.992  11.075
46992W        W19318  20.128   3.430   0.801
46993W        W19319  22.203   7.819  12.387
46994W        W19320   8.739  12.299  13.812
46995W        W19321   5.309  30.442   0.374
46996W        W19322  43.816  30.987   2.796
46997W        W19323  16.689  33.587  12.063
46998W        W19324  27.106  11.179   4.696
46999W        W19325  10.260   3.784  13.817
47000W        W19326  38.336   9.689  13.312
47001W        W19327  36.988  13.243   2.720
47002W        W19328   1.768  10.724   4.729
47003W        W19329  40.821   1.415  12.076
47004W        W19330  42.334  38.835  14.799
47005W        W19331  33.443  23.587   1.933
47006W        W19332  20.179  28.131  14.930
47007W        W19333  43.866  34.922  14.412
47008W        W19334  29.159  39.427   1.742
47009W        W19335  28.965  12.738   2.272
47010W        W19336  16.302   6.398   0.771
47011W        W19337  15.749   2.955   2.841
47012W        W19338  39.500  32.477  14.346
47013W        W19339  37.083  36.507   1.860
47014W        W19340   8.863  19.115   0.827
47015W        W19341  13.610  16.610   3.240
47016W        W19342  40.900  21.206  11.984
47017W        W19343  36.874  34.504   2.245
47018W        W19344   4.714  19.075  12.906
47019W        W19345  10.684  25.117   5.322
47020W        W19346  26.099  20.244   2.311
47021W        W19347  41.495  15.691   0.841
47022W        W19348  27.004   8.212  14.797
47023W        W19349  38.893  11.333  10.899
47024W        W19350   4.807  14.262  12.568
47025W        W19351  41.894  25.020   9.984
47026W        W19352  36.551  29.995   0.404
47027W        W19353   9.789  30.931  14.810
47028W        W19354  37.558  21.719   0.467
47029W        W19355  31.420  24.211  11.102
47030W        W19356  31.518  19.560   1.744
47031W        W19357   9.354  37.532  13.829
47032W        W19358  40.304  38.474   0.849
47033W        W19359   0.964  14.707   2.273
47034W        W19360  16.216  33.933   4.171
47035W        W19361  14.235  43.811  12.475
47036W        W19362  21.620   0.868   1.892
47037W        W19363  35.997  38.006   2.806
47038W        W19364  34.429  38.489   4.741
47039W        W19365  21.599   0.282   0.283
47040W        W19366  36.936  10.687  11.977
47041W        W19367  19.284   5.366  14.368
47042W        W19368  35.577  44.755   1.283
47043W        W19369   1.446  15.327   3.724
47044W        W19370   4.744  20.238  11.578
47045W        W19371  10.650  17.719  10.540
47046W        W19372  29.465  16.724   2.380
47047W        W19373  25.992   4.343  11.445
47048W        W19374   3.780  19.163  12.991
47049W        W19375   5.426   8.701  13.443
47050W        W19376   3.925  23.688  11.107
47051W        W19377  27.026  34.465  13.816
47052W        W19378  42.309  26.668   0.865
47053W        W19379  42.856  35.591  10.944
47054W        W19380  28.589  25.602  13.943
47055W        W19381  41.359  19.669  10.954
47056W        W19382  33.960  17.268   2.743
47057W        W19383  36.549  29.451   1.889
47058W        W19384  30.499  13.669   0.759
47059W        W19385   7.343  27.041   1.426
47060W        W19386  13.713  38.461   2.349
47061W        W19387   8.789  24.139  14.385
47062W        W19388  36.488   5.769  13.871
47063W        W19389  24.516  22.721   1.280
47064W        W19390  19.083   7.250  13.936
47065W        W19391  25.135  22.246   2.386
47066W        W19392   5.837  41.852   2.249
47067W        W19393  23.590  39.389  12.560
47068W        W19394  44.973  40.923  12.576
47069W        W19395   1.975  13.648   1.838
47070W        W19396  32.586  35.359  11.554
47071W        W19397  14.729   2.756   0.890
47072W        W19398  18.639  42.790   1.347
47073W        W19399  13.651  41.925  10.992
47074W        W19400  41.292  18.188   0.274
47075W        W19401  31.904   5.308   3.732
47076W        W19402  14.147  28.563  14.317
47077W        W19403  18.729  37.340  12.475
47078W        W19404   7.762   2.926  12.849
47079W        W19405  42.334  19.214   3.778
47080W        W19406  18.783  21.622  14.465
47081W        W19407   5.243  29.654  10.558
47082W        W19408  42.960   3.888  11.456
47083W        W19409  31.495  19.710  12.830
47084W        W19410  28.008  11.645   3.737
47085W        W19411  18.126  32.134  13.857
47086W        W19412  18.103  35.358  10.931
47087W        W19413  27.655   4.939   3.696
47088W        W19414   9.203   5.211  14.801
47089W        W19415  25.705  34.863  12.580
47090W        W19416   8.266  13.319  11.091
47091W        W19417   3.454  33.966  12.430
47092W        W19418  44.374   8.852  11.570
47093W        W19419  44.895  32.012   3.215
47094W        W19420  29.663  14.238   2.879
47095W        W19421   6.376  43.501   1.926
47096W        W19422   0.873   6.732  13.344
47097W        W19423  28.104   4.341   1.414
47098W        W19424  42.886  40.323   4.219
47099W        W19425  33.591  25.649  13.881
47100W        W19426  39.478  12.288   5.216
47101W        W19427  12.141   1.384   0.804
47102W        W19428  15.112   2.926   3.870
47103W        W19429  12.721   8.660  10.563
47104W        W19430  41.502  42.459  11.431
47105W        W19431   1.312  17.789   4.234
47106W        W19432  42.395  35.512   0.387
47107W        W19433  20.133  39.980  13.336
47108W        W19434  23.684  37.063   2.407
47109W        W19435  20.098  39.370  11.011
47110W        W19436  22.163   4.219   3.363
47111W        W19437  22.071  37.563  11.475
47112W        W19438  32.395  12.750  13.983
47113W        W19439  41.912  38.555   2.309
47114W        W19440  39.978  28.093  14.510
47115W        W19441  36.086   2.260  11.942
47116W        W19442  24.229  23.995   4.618
47117W        W19443   7.743  19.206  13.885
47118W        W19444  22.055  41.307   2.823
47119W        W19445  22.173   0.873  11.972
47120W        W19446  34.376  33.969  10.020
47121W        W19447  19.630  17.784   0.317
47122W        W19448   9.167  39.515   0.732
47123W        W19449  32.471  44.983  10.938
47124W        W19450  17.621  40.312   1.881
47125W        W19451  36.069  43.388   0.243
47126W        W19452  32.561   0.420   4.778
47127W        W19453  33.481  42.967   2.783
47128W        W19454  29.621  14.151   3.846
47129W        W19455  14.298  15.758   3.813
47130W        W19456   5.288  16.148   4.295
47131W        W19457  15.238  36.493  10.899
47132W        W19458  44.815  18.572   2.692
47133W        W19459  44.263  11.337  12.419
47134W        W19460   4.297  26.109   1.811
47135W        W19461  18.134  19.205   4.674
47136W        W19462   9.175  43.993  14.810
47137W        W19463  42.342  42.516   0.297
47138W        W19464  22.727  32.936   1.797
47139W        W19465  30.941  20.606  12.522
47140W        W19466  13.628   6.834   0.813
47141W        W19467  44.505   5.242  11.100
47142W        W19468  19.722  13.314  14.497
47143W        W19469  32.945  14.701  10.550
47144W        W19470  24.201   2.807   0.838
47145W        W19471  40.367  39.997  14.392
47146W        W19472  26.503   7.403  13.947
47147W        W19473  10.205  15.708  10.517
47148W        W19474  22.587  13.721  11.594
47149W        W19475  26.012  40.903  12.461
47150W        W19476  13.178   7.765   0.264
47151W        W19477   4.820  19.204   4.187
47152W        W19478  38.980  35.862   1.757
47153W        W19479   8.285  17.096   4.637
47154W        W19480  18.688  37.992   1.790
47155W        W19481   9.653  33.029  11.874
47156W        W19482  23.185   3.427  14.815
47157W        W19483   9.670  15.136  14.329
47158W        W19484  23.110  37.354  12.016
47159W        W19485  42.296  14.135   5.285
47160W        W19486  34.974  27.061  11.418
47161W        W19487  31.631  31.124  13.925
47162W        W19488   8.843  17.303  13.907
47163W        W19489  16.729  19.716   0.312
47164W        W19490   6.415  28.095  13.332
47165W        W19491  43.342  18.781   1.711
47166W        W19492  16.213  23.559  13.322
47167W        W19493  15.656  39.361  10.554
47168W        W19494  27.666   9.871  10.632
47169W        W19495  34.499  32.416  11.455
47170W        W19496  19.081  27.538   2.836
47171W        W19497  42.430   9.708  12.948
47172W        W19498  30.919  41.962   1.380
47173W        W19499   6.372  39.981   3.197
47174W        W19500  26.661  38.527  14.411
47175W        W19501  24.615  17.616   2.298
47176W        W19502  12.713  20.123  14.905
47177W        W19503  28.997  36.490   2.409
47178W        W19504  35.871  39.388   1.334
47179W        W19505  14.231  13.278   1.813
47180W        W19506  37.079  36.015   0.794
47181W        W19507  10.181  14.668  13.793
47182W        W19508  11.291  40.033  12.566
47183W        W19509   8.165  30.654   3.211
47184W        W19510   3.872  36.454   4.350
47185W        W19511  27.940  20.035   4.167
47186W        W19512  37.058  30.952   3.832
47187W        W19513  34.550  43.764  14.911
47188W        W19514  20.674  26.610   3.675
47189W        W19515  38.426   2.766   0.261
47190W        W19516  23.159   4.787  14.424
47191W        W19517  12.775  30.062  12.900
47192W        W19518  29.464  39.476  13.956
47193W        W19519  16.610  44.428  10.975
47194W        W19520  14.247  34.898  14.798
47195W        W19521   4.738  30.126   2.313
47196W        W19522  13.145  34.466   1.270
47197W        W19523  35.603  33.022  14.850
47198W        W19524  29.586  13.722  14.880
47199W        W19525  35.002  20.613   2.314
47200W        W19526  28.538  38.027  12.378
47201W        W19527  33.922   9.218   3.818
47202W        W19528  37.042  29.119   0.736
47203W        W19529  30.021  42.788   3.165
47204W        W19530  43.006  26.200  11.557
47205W        W19531   7.795   8.751   0.247
47206W        W19532  19.261   3.348   3.352
47207W        W19533   7.335  13.288   1.368
47208W        W19534  12.841  36.075   2.721
47209W        W19535  43.302   3.305  14.439
47210W        W19536   0.769  25.518  12.887
47211W        W19537  43.877  40.506   2.752
47212W        W19538   7.347  36.535  11.105
47213W        W19539  40.424  11.198   4.235
47214W        W19540  20.628  20.601   2.868
47215W        W19541  34.873  29.977  12.518
47216W        W19542  37.542  39.065   1.909
47217W        W19543  20.157  16.772  11.023
47218W        W19544  10.177  28.563  14.479
47219W        W19545   2.277   4.426  10.098
47220W        W19546  25.208   5.696  12.356
47221W        W19547   2.318   8.292   3.786
47222W        W19548  21.666  11.323   3.850
47223W        W19549  29.467  31.618  11.932
47224W        W19550  37.366  28.019  13.841
47225W        W19551  38.405   5.834   0.309
47226W        W19552  10.714   2.802  14.883
47227W        W19553  33.042   8.162   3.332
47228W        W19554  23.214   6.243  10.952
47229W        W19555  17.264   4.424   1.219
47230W        W19556  27.995   6.686  11.055
47231W        W19557  36.875  35.402   2.224
47232W        W19558   3.951  27.480   0.286
47233W        W19559  14.751  41.442   0.889
47234W        W19560  34.876  26.068   0.959
47235W        W19561   4.298   9.776   1.220
47236W        W19562  18.547  29.920  10.460
47237W        W19563  10.671  41.857  14.814
47238W        W19564  24.617   8.737   1.711
47239W        W19565  26.107  15.725   2.855
47240W        W19566  13.154  14.629   2.839
47241W        W19567  31.059   3.353  12.554
47242W        W19568  15.256  15.151   0.325
47243W        W19569   3.710  18.600   2.820
47244W        W19570  29.637  18.652   1.814
47245W        W19571  31.950  24.175  14.462
47246W        W19572  25.660  30.129   0.749
47247W        W19573  30.566   7.815   0.316
47248W        W19574  14.321  14.290   4.728
47249W        W19575  29.122   6.860  11.407
47250W        W19576   5.381  12.200   2.278
47251W        W19577   0.346  15.202  13.911
47252W        W19578   6.382   1.290  14.759
47253W        W19579  10.306  25.967   3.166
47254W        W19580  24.663  44.285  14.386
47255W        W19581  40.982  29.133  10.930
47256W        W19582  11.337  34.596   1.863
47257W        W19583  28.125  19.219  13.375
47258W        W19584  15.803  38.936  11.457
47259W        W19585  28.441  22.027   0.468
47260W        W19586  17.076  33.892  10.991
47261W        W19587  16.079   0.307   0.829
47262W        W19588  10.713  21.073   3.631
47263W        W19589   4.849  44.337  11.558
47264W        W19590  32.057  19.177  11.861
47265W        W19591  33.580  16.602   2.779
47266W        W19592  29.143   7.836  13.417
47267W        W19593  12.798  21.602   2.893
47268W        W19594  35.407  43.011   3.824
47269W        W19595  41.405  10.179  13.543
47270W        W19596  38.403  17.753  14.367
47271W        W19597  43.936   4.761  13.951
47272W        W19598  29.477  43.490   2.410
47273W        W19599  37.456   2.877  10.587
47274W        W19600  11.134  27.458   3.647
47275W        W19601  44.293   3.938  14.463
47276W        W19602  38.071  33.546  10.509
47277W        W19603  11.836   9.251   2.836
47278W        W19604  15.190  41.912  10.571
47279W        W19605  18.639  40.374   4.353
47280W        W19606   7.668   3.454   0.789
47281W        W19607  23.989  20.243   0.878
47282W        W19608   7.697  40.001   3.737
47283W        W19609  44.969  37.053  14.868
47284W        W19610   8.214   1.954  12.952
47285W        W19611  24.583   2.864   1.327
47286W        W19612  40.856   6.740  12.453
47287W        W19613  25.106  36.452   2.398
47288W        W19614  35.872  43.466   4.324
47289W        W19615  42.816  10.698  14.462
47290W        W19616  37.010  42.979   4.728
47291W        W19617  12.741   2.859  11.956
47292W        W19618  30.121  26.674   3.831
47293W        W19619   3.812   2.862   4.237
47294W        W19620  33.887   1.272  12.431
47295W        W19621   7.814  44.810  13.929
47296W        W19622  19.213   3.443  14.949
47297W        W19623  27.097   3.796  10.956
47298W        W19624  12.727  34.088   5.148
47299W        W19625  30.565  41.395  10.920
47300W        W19626  28.112  43.285  11.548
47301W        W19627  32.100  15.108  11.587
47302W        W19628  20.176   6.282   2.758
47303W        W19629  43.441  43.331   1.751
47304W        W19630  33.434  40.867   3.346
47305W        W19631  36.017  14.291   3.381
47306W        W19632  19.279  29.124   0.884
47307W        W19633  16.579   8.406   4.737
47308W        W19634  25.144  18.613  12.565
47309W        W19635  17.274  30.606  14.457
47310W        W19636  35.075  18.072   1.771
47311W        W19637  38.842   4.243   4.133
47312W        W19638  39.474   0.375   2.242
47313W        W19639  40.322  39.331  14.447
47314W        W19640  24.553  40.331   0.300
47315W        W19641   6.766  42.303  11.500
47316W        W19642  44.359  38.821   2.196
47317W        W19643  36.868  32.580  14.880
47318W        W19644  17.697  12.688  10.959
47319W        W19645  18.544  30.571  10.057
47320W        W19646  10.160  28.068  13.448
47321W        W19647  27.990   3.422   3.192
47322W        W19648  20.105  37.496   5.203
47323W        W19649   4.278  30.994  13.360
47324W        W19650  19.749   5.434   2.382
47325W        W19651  36.382   7.290  12.390
47326W        W19652  30.138   7.879   2.307
47327W        W19653  14.625  22.097   4.329
47328W        W19654   4.220   9.356  14.020
47329W        W19655   1.381  20.075  14.283
47330W        W19656  23.717  36.481   0.353
47331W        W19657  18.713  15.627   0.889
47332W        W19658  43.953  14.810   4.162
47333W        W19659  44.769   4.331  13.030
47334W        W19660   8.787  36.592   1.758
47335W        W19661  34.883   1.465   1.275
47336W        W19662  30.031  35.873  13.039
47337W        W19663   0.772   2.377  11.009
47338W        W19664  30.121  34.453  14.767
47339W        W19665  42.909   4.731   4.354
47340W        W19666  40.014  16.611  12.991
47341W        W19667  18.092  36.096  10.913
47342W        W19668   0.259  24.214   1.269
47343W        W19669  17.293   5.260   3.233
47344W        W19670  24.552  22.154  12.844
47345W        W19671  24.683  25.641  14.773
47346W        W19672  33.881  27.642   4.336
47347W        W19673  13.241  22.233   3.234
47348W        W19674  26.514  33.522   1.926
47349W        W19675  23.217  28.513   2.900
47350W        W19676   8.854  31.433   1.892
47351W        W19677   1.300   2.426  13.426
47352W        W19678  37.483   9.352   0.818
47353W        W19679  17.638  44.462   4.201
47354W        W19680   6.323  14.310   2.828
47355W        W19681   0.414   7.778  11.531
47356W        W19682  28.595  44.362  13.510
47357W        W19683  29.622  28.012  14.921
47358W        W19684  12.120  36.057  13.459
47359W        W19685   5.254  24.083   4.181
47360W        W19686  17.213  21.601  11.460
47361W        W19687   3.271   5.757  14.927
47362W        W19688  35.375   5.424   3.666
47363W        W19689  13.293  23.087  12.972
47364W        W19690   8.275  28.608   4.204
47365W        W19691  44.756  11.151  13.530
47366W        W19692  31.452  29.979   1.791
47367W        W19693   5.341  33.034  12.509
47368W        W19694  26.643  24.025  10.571
47369W        W19695  23.127  30.929   0.726
47370W        W19696  40.303  16.808   2.743
47371W        W19697  17.232   1.936   3.704
47372W        W19698  40.493  33.617   0.780
47373W        W19699  33.558  13.641  12.968
47374W        W19700  24.080   0.968   2.862
47375W        W19701  40.803  35.929  12.948
47376W        W19702  26.191  25.141   0.381
47377W        W19703   9.814  30.425   1.717
47378W        W19704  12.327  25.110   9.985
47379W        W19705   7.226   5.801   2.223
47380W        W19706  18.749   3.368  11.395
47381W        W19707  39.405  18.695   4.143
47382W        W19708  43.960  38.911  11.088
47383W        W19709   3.408  28.120   2.699
47384W        W19710  25.490   6.749  12.400
47385W        W19711  28.177  13.745   1.787
47386W        W19712  38.554  36.910  10.407
47387W        W19713  15.619  28.116  10.575
47388W        W19714  33.566   9.217  14.840
47389W        W19715  38.484  10.684  12.491
47390W        W19716   0.910  13.185   0.785
47391W        W19717   2.412  21.676  13.825
47392W        W19718   3.837  26.977  11.058
47393W        W19719  20.725   8.397   1.340
47394W        W19720  21.232  14.721   2.372
47395W        W19721  20.710  33.618  13.970
47396W        W19722  33.977   0.355  10.603
47397W        W19723  19.176  44.791   3.702
47398W        W19724  40.520  20.100  11.452
47399W        W19725  14.106  16.720   3.725
47400W        W19726  42.514  41.350   0.388
47401W        W19727  22.557  32.086  11.891
47402W        W19728  36.003   5.376   1.432
47403W        W19729  26.155  41.870   4.624
47404W        W19730  32.473  31.600  14.472
47405W        W19731  22.566  17.667   3.753
47406W        W19732  18.136  19.130   2.328
47407W        W19733   0.860  21.249   4.779
47408W        W19734  16.711  15.621  13.860
47409W        W19735  38.937  18.258   3.695
47410W        W19736  34.464  31.013  14.314
47411W        W19737  26.683  15.761  12.878
47412W        W19738  32.448  11.726  13.816
47413W        W19739  29.438  16.098   2.857
47414W        W19740   1.331  28.452  13.854
47415W        W19741  33.433  35.471  14.846
47416W        W19742  36.877  13.124  14.856
47417W        W19743  11.189  37.454  11.382
47418W        W19744   4.205  21.131   4.796
47419W        W19745  12.815  18.744  14.955
47420W        W19746   3.258   1.322   3.839
47421W        W19747  10.642  17.270  13.901
47422W        W19748  38.451  28.539   3.328
47423W        W19749  21.139  12.359   4.597
47424W        W19750  27.957  43.474   4.222
47425W        W19751  43.010   4.792  10.930
47426W        W19752  40.866  20.540   1.850
47427W        W19753  25.673  41.028   1.914
47428W        W19754   3.270  18.655   3.709
47429W        W19755   4.709   4.839   3.168
47430W        W19756  18.055  14.597   3.362
47431W        W19757  44.937  23.613   2.715
47432W        W19758  24.123  14.690   0.460
47433W        W19759   8.724  19.770  12.359
47434W        W19760  35.863   6.401  14.434
47435W        W19761  33.388  21.548   4.653
47436W        W19762   6.690  37.919  13.400
47437W        W19763   6.901  44.979   0.308
47438W        W19764  43.804  31.942   5.105
47439W        W19765  38.524   1.461  12.909
47440W        W19766   0.910  14.723   4.135
47441W        W19767  33.607  42.849  14.960
47442W        W19768  25.150  17.781  14.296
47443W        W19769  39.974  40.449  14.293
47444W        W19770  42.854  20.038  12.925
47445W        W19771   5.864  30.152  11.858
47446W        W19772  11.769  24.599   1.398
47447W        W19773  10.671  41.311  12.362
47448W        W19774  40.841  17.063   3.680
47449W        W19775   4.708  39.412   2.224
47450W        W19776  32.562   3.745   2.220
47451W        W19777   2.928  34.063   1.803
47452W        W19778   1.768  17.573  10.956
47453W        W19779  43.938  38.522   3.793
47454W        W19780  34.990   5.834   1.762
47455W        W19781  35.084  10.154  13.486
47456W        W19782   1.831  40.344   0.727
47457W        W19783  26.591  32.440  11.093
47458W        W19784  38.425  37.970   3.284
47459W        W19785  25.219  15.718   3.384
47460W        W19786  10.189  44.961  12.393
47461W        W19787   1.480  41.827   2.805
47462W        W19788  20.714  21.125  12.376
47463W        W19789  24.221  39.431  11.012
47464W        W19790  14.660   2.937  13.981
47465W        W19791   0.973  43.359   1.239
47466W        W19792  11.661   1.961  14.028
47467W        W19793   9.764  13.808  14.872
47468W        W19794  31.906   3.229   0.768
47469W        W19795  32.076  22.543   0.291
47470W        W19796  41.866  22.662   4.658
47471W        W19797  34.999   0.378   3.824
47472W        W19798  13.263  21.754  14.478
47473W        W19799  15.618   3.833   0.327
47474W        W19800  16.691  26.175  13.446
47475W        W19801  34.579   0.317   0.339
47476W        W19802  44.376   9.184  10.984
47477W        W19803   8.376  10.265   1.419
47478W        W19804  38.399  21.569   4.661
47479W        W19805   2.923  30.038  14.897
47480W        W19806   9.315  34.590  12.382
47481W        W19807  34.483  38.357   3.276
47482W        W19808  33.031  28.642   0.910
47483W        W19809  25.619  31.093   1.276
47484W        W19810   7.783  17.620  11.074
47485W        W19811  31.897  37.338  12.898
47486W        W19812  38.938   6.391   2.663
47487W        W19813  40.338  30.467  12.566
47488W        W19814  28.136  39.014  14.451
47489W        W19815  13.124  36.387   5.655
47490W        W19816   0.957  19.179  12.063
47491W        W19817  40.890   4.377   4.662
47492W        W19818  35.455  32.081  13.439
47493W        W19819  36.370  12.788  12.452
47494W        W19820  30.567  34.377  14.467
47495W        W19821  10.250   0.926   1.733
47496W        W19822  12.692   0.292  12.053
47497W        W19823  15.097  17.618  10.953
47498W        W19824  44.968  35.420   2.348
47499W        W19825   1.811  15.170   1.868
47500W        W19826  41.876  21.672  10.461
47501W        W19827   5.255  36.982   3.252
47502W        W19828  18.252  30.140   1.319
47503W        W19829   2.830   3.374   2.860
47504W        W19830  14.213   0.782  14.973
47505W        W19831   3.303  25.107  14.811
47506W        W19832  13.336  20.034  12.387
47507W        W19833  39.873  14.106  10.503
47508W        W19834  42.487   8.213   3.716
47509W        W19835  10.654  35.403   0.384
47510W        W19836  18.694  22.681  12.449
47511W        W19837  13.232  41.402   0.908
47512W        W19838  11.644   8.356   1.746
47513W        W19839   7.859   4.372  12.579
47514W        W19840  25.663  42.865  13.944
47515W        W19841  32.079  23.164  14.811
47516W        W19842  38.487  18.686  12.829
47517W        W19843  39.402  43.948   0.762
47518W        W19844  44.467  39.970   1.759
47519W        W19845  28.112   3.372  13.854
47520W        W19846  20.102  31.947   4.214
47521W        W19847  24.229  43.818   1.266
47522W        W19848  24.546  36.853  12.415
47523W        W19849   4.903   4.220   3.374
47524W        W19850  25.023  34.461   3.647
47525W        W19851   5.406  34.121   2.712
47526W        W19852  22.627  24.091   0.926
47527W        W19853   2.724  18.579  14.397
47528W        W19854  11.781  14.755  12.408
47529W        W19855   4.403  32.524  14.886
47530W        W19856  11.682  24.562   4.784
47531W        W19857  38.028  26.134  12.853
47532W        W19858  38.826  32.947   3.378
47533W        W19859  40.455   1.913  12.953
47534W        W19860  24.995   0.331  11.973
47535W        W19861  29.625  40.882  14.393
47536W        W19862  30.448  36.466   0.747
47537W        W19863   6.819   7.325  11.954
47538W        W19864  14.727  15.165   0.483
47539W        W19865   1.300   4.396  14.781
47540W        W19866  20.247   0.337  12.872
47541W        W19867  13.706  29.476   1.729
47542W        W19868  23.125  37.988   1.280
47543W        W19869   9.805  44.971  10.912
47544W        W19870  10.238  29.012   0.255
47545W        W19871  31.410  25.595   2.707
47546W        W19872  21.706  30.438   4.614
47547W        W19873   8.673  41.009   3.870
47548W        W19874   0.772   2.838   1.400
47549W        W19875  38.000   8.406   4.828
47550W        W19876  32.554  11.650  12.973
47551W        W19877   8.732  15.582   9.986
47552W        W19878  40.886  31.511  11.086
47553W        W19879  21.093  30.972  10.588
47554W        W19880  14.316   4.871   4.166
47555W        W19881  35.361  14.231  13.043
47556W        W19882   9.859  28.569   2.399
47557W        W19883  19.043  31.542  12.427
47558W        W19884  15.223  23.536   4.615
47559W        W19885   9.645  25.598   2.195
47560W        W19886  17.110  32.390  11.007
47561W        W19887  30.943   1.915  11.998
47562W        W19888  17.638   3.275   0.932
47563W        W19889  37.013  24.059   1.352
47564W        W19890  40.858  20.237  10.581
47565W        W19891   7.735  36.035   2.407
47566W        W19892   6.218  21.663  12.491
47567W        W19893  13.276  40.896   3.300
47568W        W19894  34.935  40.472  11.568
47569W        W19895  35.369   7.400  10.494
47570W        W19896   1.412  35.076  12.027
47571W        W19897   6.330  10.694   1.702
47572W        W19898  23.690  44.869  12.571
47573W        W19899   1.270  20.123   0.329
47574W        W19900  36.079  30.505  13.797
47575W        W19901  34.927  32.012  13.316
47576W        W19902  38.031  25.623   4.749
47577W        W19903  40.844  22.020   3.346
47578W        W19904  34.025  20.641  11.498
47579W        W19905  42.309   3.770  11.405
47580W        W19906   8.203  12.186   1.846
47581W        W19907  24.130  20.690  13.814
47582W        W19908   5.917  23.510  11.043
47583W        W19909   8.842  41.808  13.370
47584W        W19910  11.838  41.390   0.410
47585W        W19911   9.657   8.213   0.904
47586W        W19912  28.180  26.672   4.168
47587W        W19913  12.289  37.911   1.747
47588W        W19914  14.751  42.822   2.688
47589W        W19915  14.211  19.760  10.456
47590W        W19916   0.925  19.109   2.350
47591W        W19917  23.118  40.978   0.401
47592W        W19918  16.591  32.392  12.531
47593W        W19919  40.480  21.184   3.269
47594W        W19920  37.426  37.038  11.013
47595W        W19921  12.132   8.318  11.966
47596W        W19922  42.937  26.135  12.942
47597W        W19923  28.437  33.614  14.915
47598W        W19924   0.268   0.458   0.249
47599W        W19925  12.716  32.043  12.423
47600W        W19926  26.461  30.541   3.783
47601W        W19927  40.922   2.229   0.928
47602W        W19928  18.267  27.660  13.374
47603W        W19929  22.743  35.430   3.351
47604W        W19930   8.215   0.307  14.335
47605W        W19931  11.181  41.869   1.760
47606W        W19932  17.684  10.234  14.845
47607W        W19933  30.556  15.793  13.453
47608W        W19934  12.279  31.451   3.159
47609W        W19935  11.729  23.079   3.647
47610W        W19936  44.766  32.397  13.543
47611W        W19937  38.487  39.058  13.849
47612W        W19938   0.834  39.336   2.682
47613W        W19939  22.069  13.307  11.514
47614W        W19940  22.188   0.897   1.865
47615W        W19941  41.848  33.093   3.685
47616W        W19942   9.366  31.970  10.992
47617W        W19943   9.851  30.954   2.237
47618W        W19944  38.947  30.000   1.871
47619W        W19945  34.097  38.325  11.505
47620W        W19946   0.922  20.201  11.435
47621W        W19947  38.563  22.132   4.695
47622W        W19948  24.135  12.660  10.451
47623W        W19949   2.957   1.883   0.790
47624W        W19950  42.363  13.326   0.935
47625W        W19951  21.545  10.329  14.028
47626W        W19952  26.602  44.787  10.892
47627W        W19953  12.791  31.502  12.940
47628W        W19954  25.611  37.452  13.362
47629W        W19955  40.501  27.111   2.838
47630W        W19956  30.109  22.646   4.213
47631W        W19957  38.335  35.538   3.694
47632W        W19958   5.750   3.279   2.385
47633W        W19959  33.975  36.098  13.476
47634W        W19960  32.519  13.193   2.892
47635W        W19961  18.783  22.719  11.432
47636W        W19962  10.644   9.655   2.842
47637W        W19963  36.862  39.020  14.462
47638W        W19964  11.739  40.991  11.882
47639W        W19965  43.938  42.945   3.695
47640W        W19966  24.078  16.178  12.409
47641W        W19967  30.628  14.798  14.991
47642W        W19968  23.986  14.681   2.815
47643W        W19969  21.585  14.195  13.954
47644W        W19970  27.578   2.900   3.357
47645W        W19971  16.154  40.988  13.056
47646W        W19972   1.277  43.440   1.230
47647W        W19973  41.355  28.144   0.309
47648W        W19974  35.558  33.931  11.515
47649W        W19975  10.241  33.976   1.801
47650W        W19976  32.609   3.243   1.267
47651W        W19977  18.573  22.158   0.293
47652W        W19978  13.348   4.713   3.839
47653W        W19979  32.537  28.048   2.695
47654W        W19980  25.707  10.271   2.797
47655W        W19981  15.317  17.123  13.038
47656W        W19982  27.965  25.141  13.495
47657W        W19983  38.017  35.998   4.230
47658W        W19984  38.513  23.722  12.906
47659W        W19985   6.744  32.070  14.982
47660W        W19986  43.927  13.824   4.645
47661W        W19987   6.187  36.556   2.729
47662W        W19988  39.474  40.998  14.508
47663W        W19989  24.514  14.311  11.106
47664W        W19990  24.628  37.434   4.831
47665W        W19991  40.889  12.318   2.284
47666W        W19992  24.699  31.104   4.256
47667W        W19993  19.214   6.326  13.518
47668W        W19994  25.178  36.404  13.453
47669W        W19995  21.682  15.695   3.357
47670W        W19996  24.694  11.201   0.850
47671W        W19997  36.968  29.143   2.790
47672W        W19998   6.864  17.242   0.751
47673W        W19999  19.692  42.813   2.273
47674W        W20000  41.965   2.946   0.906
47675W        W20001  13.628  36.908  11.899
47676W        W20002  33.420  41.031  12.548
47677W        W20003   8.735   3.862   1.293
47678W        W20004  39.958   6.832  13.436
47679W        W20005   3.246   7.857  13.857
47680W        W20006   8.729  20.228  10.434
47681W        W20007  22.626  21.568   2.211
47682W        W20008  21.639  26.635  11.594
47683W        W20009  32.136  33.935  13.523
47684W        W20010  33.050  18.748   4.282
47685W        W20011  33.474  32.050  11.931
47686W        W20012  37.065  11.142   4.681
47687W        W20013  41.470  14.313  10.482
47688W        W20014   4.293  39.855   4.355
47689W        W20015  15.702  33.951   1.700
47690W        W20016  34.514  44.846  12.557
47691W        W20017  36.000  29.118  14.804
47692W        W20018  26.041  43.793   4.630
47693W        W20019  18.647  18.121   1.798
47694W        W20020  34.463  28.035  12.023
47695W        W20021  19.583  30.605  12.474
47696W        W20022  38.842  12.191   5.766
47697W        W20023  41.905  14.329   4.753
47698W        W20024  19.208  13.185   3.769
47699W        W20025  12.163   7.838   4.731
47700W        W20026  42.470   4.924   4.712
47701W        W20027  19.051  40.481  13.510
47702W        W20028   0.977   1.415   1.375
47703W        W20029  15.171  36.876  13.387
47704W        W20030   8.197  29.462  11.460
47705W        W20031  38.513  26.044  13.523
47706W        W20032  43.807  31.563   3.333
47707W        W20033  27.005  19.080   4.333
47708W        W20034  23.537  37.388  13.799
47709W        W20035  19.072  44.926   2.685
47710W        W20036  38.437   9.739  14.811
47711W        W20037  40.931  25.980   0.950
47712W        W20038   9.856   2.812  14.437
47713W        W20039  26.691  35.856  12.394
47714W        W20040   4.762  18.592  11.576
47715W        W20041  16.311  28.452   1.931
47716W        W20042   8.173  28.495  13.866
47717W        W20043  13.126  21.044  13.428
47718W        W20044  31.912  23.221  14.365
47719W        W20045   5.217   6.779   4.678
47720W        W20046   1.266  35.598  13.951
47721W        W20047   6.350  43.826  13.975
47722W        W20048  11.218  11.795   0.419
47723W        W20049  11.729  29.074  13.063
47724W        W20050  34.071  10.213  12.470
47725W        W20051  10.215  40.874   2.339
47726W        W20052  21.599  21.153  12.823
47727W        W20053  33.989  20.618  13.376
47728W        W20054  40.447   5.249  11.588
47729W        W20055  19.061  32.410   2.690
47730W        W20056   7.724  36.002  11.605
47731W        W20057  44.379  27.954   2.190
47732W        W20058  32.431  16.582   3.193
47733W        W20059  19.076  18.212   1.756
47734W        W20060   1.747  15.709  13.820
47735W        W20061  20.729  37.544   5.146
47736W        W20062   6.408   2.444  11.932
47737W        W20063  44.458   9.876  12.043
47738W        W20064   6.696  17.796  12.371
47739W        W20065  26.954  42.004   0.247
47740W        W20066  20.084  38.393   3.153
47741W        W20067  25.552  43.411  11.869
47742W        W20068  29.572   8.247   4.167
47743W        W20069  15.774  12.316   3.164
47744W        W20070  15.121  26.966   1.266
47745W        W20071  27.083  23.647   3.158
47746W        W20072  12.149  36.057   2.830
47747W        W20073  18.635  37.409   2.740
47748W        W20074  12.226   7.897  13.058
47749W        W20075  37.349  22.129   1.837
47750W        W20076  32.637  11.659  10.456
47751W        W20077  42.810  16.187  14.932
47752W        W20078   4.281  10.346   4.817
47753W        W20079  42.885   7.390   9.970
47754W        W20080  42.497  20.769  14.784
47755W        W20081  33.584  34.500  12.496
47756W        W20082  24.135  27.676   3.311
47757W        W20083   3.870  30.644   1.785
47758W        W20084  11.847  34.080  13.387
47759W        W20085  15.110  23.630   4.190
47760W        W20086  34.900  23.500   2.182
47761W        W20087  16.124  43.329   3.727
47762W        W20088  13.290  42.318   3.695
47763W        W20089  11.756  16.671   1.251
47764W        W20090  44.429  38.900   1.329
47765W        W20091  12.242   3.234  14.817
47766W        W20092  17.061   4.930  11.015
47767W        W20093  15.187  27.681   1.319
47768W        W20094  25.707   8.797  12.530
47769W        W20095  21.236  15.755   0.928
47770W        W20096  33.527  21.175  11.429
47771W        W20097  33.520   0.873   2.753
47772W        W20098   5.384   1.425   2.222
47773W        W20099  44.309   7.189   0.802
47774W        W20100  40.002   6.880  11.547
47775W        W20101   0.804  10.356   3.742
47776W        W20102  12.279  16.622   4.668
47777W        W20103  37.386  36.864   0.728
47778W        W20104  27.542  24.032   3.151
47779W        W20105  15.327  30.114   0.480
47780W        W20106  35.095  43.955   3.830
47781W        W20107   5.229  31.407  12.885
47782W        W20108   0.797  17.643  13.002
47783W        W20109  13.826  16.129   4.156
47784W        W20110  38.037  30.639  13.528
47785W        W20111   8.843   3.745  10.640
47786W        W20112  29.657  26.176   5.246
47787W        W20113  31.556  26.685  14.005
47788W        W20114  14.253   8.684  10.042
47789W        W20115  30.659  10.822  13.494
47790W        W20116  39.541  29.433  14.439
47791W        W20117  30.531   9.873  14.479
47792W        W20118  13.654  22.108  14.297
47793W        W20119  22.637  11.133   4.667
47794W        W20120  19.143  43.780   4.247
47795W        W20121   8.749  33.427   5.318
47796W        W20122  16.707  31.583   2.817
47797W        W20123  20.537  35.443   2.749
47798W        W20124  43.308  38.995   2.872
47799W        W20125  39.342   5.272  14.505
47800W        W20126  20.148  43.347   2.322
47801W        W20127   7.887  24.017  12.047
47802W        W20128  18.130  44.371  12.389
47803W        W20129  18.214  27.181   2.239
47804W        W20130  16.711  43.824  13.939
47805W        W20131  29.506  19.109   2.835
47806W        W20132   3.845  33.581   3.230
47807W        W20133   5.355  24.694  13.533
47808W        W20134  41.312  22.700   3.318
47809W        W20135   1.455  28.009  14.805
47810W        W20136  16.208  33.505   4.248
47811W        W20137  24.550   7.769  12.378
47812W        W20138  11.699  34.385   1.745
47813W        W20139  28.098  26.641  12.001
47814W        W20140   7.746  38.946   1.916
47815W        W20141   4.801  34.945   0.812
47816W        W20142  15.213  23.712  11.092
47817W        W20143  33.074  25.031   3.657
47818W        W20144  22.180  21.258  14.809
47819W        W20145   5.360   9.315   1.355
47820W        W20146  24.983   3.400   4.756
47821W        W20147  15.796  31.619  12.933
47822W        W20148  15.272  36.987  11.429
47823W        W20149  40.887   1.819  11.868
47824W        W20150  39.930  42.020  10.559
47825W        W20151   6.417  43.409   3.653
47826W        W20152  14.635  20.212   2.289
47827W        W20153  41.918  24.715   3.228
47828W        W20154   6.192  30.966  14.015
47829W        W20155  40.959  30.028   4.641
47830W        W20156   8.229  21.113   3.733
47831W        W20157  28.578  33.945  13.007
47832W        W20158  29.606  42.376   1.842
47833W        W20159  33.420   0.407   4.207
47834W        W20160  12.327  37.361   1.856
47835W        W20161  29.568  26.644  10.939
47836W        W20162  28.150  18.776  14.967
47837W        W20163  13.208  23.532  11.007
47838W        W20164  31.469  28.990   0.813
47839W        W20165  29.119  16.590   1.394
47840W        W20166  30.519  31.055  14.282
47841W        W20167  39.413  42.862   5.087
47842W        W20168  33.040  38.337  12.460
47843W        W20169  22.682  18.111  12.890
47844W        W20170  25.011  35.501   3.678
47845W        W20171   9.816  10.861   1.817
47846W        W20172  30.652   1.367   0.246
47847W        W20173  28.139  23.730   2.806
47848W        W20174  39.927   8.266   0.343
47849W        W20175   3.315  22.206   4.828
47850W        W20176  30.487  38.913   2.396
47851W        W20177  42.932  18.564   2.319
47852W        W20178  38.899  31.443  11.920
47853W        W20179  24.625  10.332   1.790
47854W        W20180   1.775  34.982  11.378
47855W        W20181  27.111  27.691  13.007
47856W        W20182  15.670  19.708  10.643
47857W        W20183  39.004  10.320  13.856
47858W        W20184  10.657  19.643  12.916
47859W        W20185  27.659  32.893   3.304
47860W        W20186  10.705  32.549   1.227
47861W        W20187  40.396  37.970   1.408
47862W        W20188  34.531  20.543  14.945
47863W        W20189   6.341  13.802  11.084
47864W        W20190  33.485   9.220  13.064
47865W        W20191  18.167  13.337   2.697
47866W        W20192  41.034  18.231   4.835
47867W        W20193  10.334   7.381   3.277
47868W        W20194  43.469  17.141   2.662
47869W        W20195  14.649   4.360   1.796
47870W        W20196  28.659  33.475   1.900
47871W        W20197  27.195  35.030  10.912
47872W        W20198  12.636  11.296  13.365
47873W        W20199  12.216   9.172  13.061
47874W        W20200  29.545   5.704  12.926
47875W        W20201  35.093  30.576  10.441
47876W        W20202  16.221  10.291   9.972
47877W        W20203   5.436  23.633   1.718
47878W        W20204  13.734  43.007   2.714
47879W        W20205  33.431  31.538  13.505
47880W        W20206  12.126   5.814   3.630
47881W        W20207  24.479  10.318  14.467
47882W        W20208  33.595  32.977   4.135
47883W        W20209  33.426  18.556   2.865
47884W        W20210  21.122  37.376  11.477
47885W        W20211  14.719   0.276   2.788
47886W        W20212  36.968  38.371  13.817
47887W        W20213   0.923  42.492  13.538
47888W        W20214  14.601   6.898   2.340
47889W        W20215  13.616  39.847  10.487
47890W        W20216  37.426  38.948  10.514
47891W        W20217  13.193  23.518  12.406
47892W        W20218  29.058   2.331  12.873
47893W        W20219   9.295   5.354   1.422
47894W        W20220  29.499  27.562   5.104
47895W        W20221  31.141  44.860   3.706
47896W        W20222  38.504  33.047   0.435
47897W        W20223  17.627  27.686  12.929
47898W        W20224   9.732  22.143   1.406
47899W        W20225  39.891  38.049   0.391
47900W        W20226   9.688  36.493   4.624
47901W        W20227  18.265  32.934   4.689
47902W        W20228   0.938   1.906  10.059
47903W        W20229  23.509  43.837  10.454
47904W        W20230   9.214   6.197  14.030
47905W        W20231  18.185  18.765   2.244
47906W        W20232  31.518   6.866  10.963
47907W        W20233  22.550  25.506   4.165
47908W        W20234   6.412   1.841  13.314
47909W        W20235  23.091  20.176   1.370
47910W        W20236   9.801  23.713   0.770
47911W        W20237  37.568  26.683  13.433
47912W        W20238  42.508   8.710  11.396
47913W        W20239  42.962  43.956   1.420
47914W        W20240   7.214  16.618  13.815
47915W        W20241   1.339  20.040   3.187
47916W        W20242   6.353  31.533  10.408
47917W        W20243  35.910  11.197  11.072
47918W        W20244   0.888  35.466  14.020
47919W        W20245  14.593  21.221   4.271
47920W        W20246  40.898  38.035  10.404
47921W        W20247  39.885  11.327  13.994
47922W        W20248  16.684  33.492   0.342
47923W        W20249   6.702  13.650  10.989
47924W        W20250  44.951  37.087   3.757
47925W        W20251   1.795  10.783   1.430
47926W        W20252  15.182  40.417   2.787
47927W        W20253   8.298  27.066   0.769
47928W        W20254  27.455  16.268   4.657
47929W        W20255  26.485  42.305  13.998
47930W        W20256  41.966  27.133   2.899
47931W        W20257  15.321  19.552   0.774
47932W        W20258  27.146  14.777  11.044
47933W        W20259   0.467  30.506   2.745
47934W        W20260  15.787  44.768   3.776
47935W        W20261   2.396  23.583  14.297
47936W        W20262   2.464  43.488   4.240
47937W        W20263   5.904  11.303   0.311
47938W        W20264  20.698   8.773   4.772
47939W        W20265  26.990  43.459   3.239
47940W        W20266  32.925  25.519  13.318
47941W        W20267  30.412  21.682   3.292
47942W        W20268  34.471  30.618   1.214
47943W        W20269   4.941   0.259   2.288
47944W        W20270  42.919  36.465   2.208
47945W        W20271  33.962  22.644   1.786
47946W        W20272  23.561  20.035   3.170
47947W        W20273  37.911  33.457   9.956
47948W        W20274  23.130  41.420  10.475
47949W        W20275  21.110  39.855   0.886
47950W        W20276   2.245  29.094  14.512
47951W        W20277   4.419  22.050  11.925
47952W        W20278  21.067  15.262  14.869
47953W        W20279  21.034  39.961  13.482
47954W        W20280  36.554  12.127   3.341
47955W        W20281   3.735  35.952  11.937
47956W        W20282  27.072   4.943   2.822
47957W        W20283   4.709  11.277   4.731
47958W        W20284   6.684  32.462   0.829
47959W        W20285  37.011  40.451  14.473
47960W        W20286  34.096  40.455   3.722
47961W        W20287  16.772  16.626   2.677
47962W        W20288  15.322   7.781  13.544
47963W        W20289   2.343   7.873  13.470
47964W        W20290   2.908  43.928   1.798
47965W        W20291  28.601  21.548  12.922
47966W        W20292  32.961  26.958   0.271
47967W        W20293  21.531  13.840   2.752
47968W        W20294   1.808  24.721  12.848
47969W        W20295   2.736  41.789   2.702
47970W        W20296  12.193  41.304   1.252
47971W        W20297  14.316  26.030  14.414
47972W        W20298  41.372  20.260  12.024
47973W        W20299  18.120   6.293   4.137
47974W        W20300   7.275  40.498   0.894
47975W        W20301  16.113  34.447   2.379
47976W        W20302  30.968  43.795  12.029
47977W        W20303  20.612  32.011   1.882
47978W        W20304  19.168  20.730  10.916
47979W        W20305  32.959  20.247   3.820
47980W        W20306   0.897   5.433  14.818
47981W        W20307  35.017  10.834  10.557
47982W        W20308  20.170  36.980  14.282
47983W        W20309  32.607  21.592  14.771
47984W        W20310  25.209  11.816  14.874
47985W        W20311  29.019   8.701   0.798
47986W        W20312  19.536  40.025   4.765
47987W        W20313  41.848  18.655  12.375
47988W        W20314   6.906   3.401   0.785
47989W        W20315  40.400   0.447  11.605
47990W        W20316  32.094  29.524   1.903
47991W        W20317   3.269  42.475   2.864
47992W        W20318  28.095   3.744   3.727
47993W        W20319   1.407   5.268   3.669
47994W        W20320  29.987  16.174  12.537
47995W        W20321  39.878  15.589  11.032
47996W        W20322  19.126  33.888  10.529
47997W        W20323  20.128  26.162   4.127
47998W        W20324  19.249   2.425  13.389
47999W        W20325  18.237  18.765  13.320
48000W        W20326  39.492  37.360  12.985
48001W        W20327  11.658  37.459  14.903
48002W        W20328  19.713  34.078  12.033
48003W        W20329  38.971  41.043   3.685
48004W        W20330  38.871  37.974   2.282
48005W        W20331  35.474  27.501   2.301
48006W        W20332  40.443   9.308  13.443
48007W        W20333  14.760  15.675  12.521
48008W        W20334  25.012   4.390   1.935
48009W        W20335  14.310  25.997   4.179
48010W        W20336  26.529  33.464   0.272
48011W        W20337  36.431  30.940   4.280
48012W        W20338  26.134  25.671  14.839
48013W        W20339  43.770  11.170  13.311
48014W        W20340  38.422  19.116   0.774
48015W        W20341  36.051   6.912   1.825
48016W        W20342  26.009  20.083  12.918
48017W        W20343  13.755  33.928   2.338
48018W        W20344  10.763  37.848  14.507
48019W        W20345   1.407  42.918   3.645
48020W        W20346  19.656  24.121   2.800
48021W        W20347   7.318  39.931  10.583
48022W        W20348  28.182   2.393  11.608
48023W        W20349  29.435  38.506  12.446
48024W        W20350  39.900   0.339  14.913
48025W        W20351  17.585  42.030  13.548
48026W        W20352  40.925  32.523   3.826
48027W        W20353  14.618  10.284  13.355
48028W        W20354  28.963  25.197   2.382
48029W        W20355  42.900  29.638   3.666
48030W        W20356   8.305  39.910  13.952
48031W        W20357  14.244  30.098  11.867
48032W        W20358   4.218  21.574   2.254
48033W        W20359  30.934  13.738   2.750
48034W        W20360  20.102  24.481  12.980
48035W        W20361  20.222  14.812   4.824
48036W        W20362   1.322  26.673  13.462
48037W        W20363  35.927   0.274   1.784
48038W        W20364  23.533   3.862   1.419
48039W        W20365  13.303  15.239   3.796
48040W        W20366  41.851  43.358   3.692
48041W        W20367  36.025   7.293   2.771
48042W        W20368  10.337   9.290  12.464
48043W        W20369   5.822  16.693  12.361
48044W        W20370   7.879  28.634   4.734
48045W        W20371  18.616  33.973   0.745
48046W        W20372  30.934  33.500   3.294
48047W        W20373  14.631   0.288  12.566
48048W        W20374  32.900  12.614  10.449
48049W        W20375   5.419  27.047  10.608
48050W        W20376   4.292   7.383   4.640
48051W        W20377  22.528  22.112  11.877
48052W        W20378  30.924  27.483  10.579
48053W        W20379  32.617   7.224  14.425
48054W        W20380  41.796   1.404  13.960
48055W        W20381  17.097  41.797   3.295
48056W        W20382  14.700  21.144  10.631
48057W        W20383  38.913   1.880   3.159
48058W        W20384   7.861   9.747   3.163
48059W        W20385  34.890  30.128  10.493
48060W        W20386  40.447  30.539  11.392
48061W        W20387  29.975  18.050  12.013
48062W        W20388  29.095   1.910  12.491
48063W        W20389  38.907  34.453  14.367
48064W        W20390  14.752  38.546  12.568
48065W        W20391  33.531  26.150  10.914
48066W        W20392   9.385   8.669   5.096
48067W        W20393  44.446   8.322  10.483
48068W        W20394  27.502   7.400   4.657
48069W        W20395  26.077   4.912   4.128
48070W        W20396  25.651   9.150  10.973
48071W        W20397  10.187  31.515  14.489
48072W        W20398  30.971  17.644   3.808
48073W        W20399  28.583  14.830   4.154
48074W        W20400  30.937  30.977  11.492
48075W        W20401  21.223  25.670  13.048
48076W        W20402  12.642  26.971   4.642
48077W        W20403  14.699  38.891  14.866
48078W        W20404  35.009  14.735  13.479
48079W        W20405  15.753  17.571  10.933
48080W        W20406  17.249  34.014   2.832
48081W        W20407  10.191   9.288   1.806
48082W        W20408  40.393  11.151   0.275
48083W        W20409   3.293  10.154  10.517
48084W        W20410  10.341  20.128  14.812
48085W        W20411  17.271  33.598  10.029
48086W        W20412   7.276  23.715   0.281
48087W        W20413   6.305  38.441   2.296
48088W        W20414  32.524  40.436   0.337
48089W        W20415   9.873   4.905  13.054
48090W        W20416  31.950  19.086  14.975
48091W        W20417   0.439  26.473  11.082
48092W        W20418  25.694  39.404   5.244
48093W        W20419   8.272   2.805   3.373
48094W        W20420  35.934  14.589   3.164
48095W        W20421   0.288  32.424   0.792
48096W        W20422  28.475  11.299  12.453
48097W        W20423  17.638   1.747  14.298
48098W        W20424  37.534  13.111   2.212
48099W        W20425  39.984  44.427  11.416
48100W        W20426   2.250  15.670   0.927
48101W        W20427  19.688   7.213   3.240
48102W        W20428  35.366   8.835   1.931
48103W        W20429  38.870  24.705  13.461
48104W        W20430   0.409   8.711  11.513
48105W        W20431  20.633  15.697  12.575
48106W        W20432  32.535  41.339  14.479
48107W        W20433  30.439   3.761  14.495
48108W        W20434   8.899  38.856   1.714
48109W        W20435  37.975  25.027  14.343
48110W        W20436  41.035  24.723  12.448
48111W        W20437  43.275  26.177  14.399
48112W        W20438  12.304  43.018   2.380
48113W        W20439  35.102   9.828  14.340
48114W        W20440  11.854  30.417   4.797
48115W        W20441  18.098  13.222  11.936
48116W        W20442  13.133  25.001  14.021
48117W        W20443  22.086   2.441  13.502
48118W        W20444  15.226  31.491  10.642
48119W        W20445   5.820  41.962  13.033
48120W        W20446  34.559  39.881  14.835
48121W        W20447  18.570  10.637  11.046
48122W        W20448   2.834  26.651   2.861
48123W        W20449  25.985  22.129  12.399
48124W        W20450   9.889  14.628  10.555
48125W        W20451  24.709  19.101  13.332
48126W        W20452  24.513  38.477  11.959
48127W        W20453  10.322   8.336  12.955
48128W        W20454   1.947   3.278   3.635
48129W        W20455  19.709  30.568  12.905
48130W        W20456  22.182   2.418  14.312
48131W        W20457  15.821   1.468  12.438
48132W        W20458  30.567  11.366   1.388
48133W        W20459  31.498  40.923   1.310
48134W        W20460  16.286  32.033   4.230
48135W        W20461  31.068  28.165  14.369
48136W        W20462  23.523  12.787  10.970
48137W        W20463  31.583  12.210   4.827
48138W        W20464  18.161  30.133  14.516
48139W        W20465  34.485  18.644  14.901
48140W        W20466  38.953  17.640  14.885
48141W        W20467  26.613   5.326  13.021
48142W        W20468  44.827  31.468  12.389
48143W        W20469  16.212  29.963   0.459
48144W        W20470   1.945  27.942   2.327
48145W        W20471  27.117  41.349  14.314
48146W        W20472  25.683  15.632   2.186
48147W        W20473  22.113  26.700   3.242
48148W        W20474  16.098  27.671  13.796
48149W        W20475  25.618  22.075  12.537
48150W        W20476  40.359  22.715   2.766
48151W        W20477  32.558  25.159   1.282
48152W        W20478  38.966   6.389   4.752
48153W        W20479  36.927  37.368  12.054
48154W        W20480  39.443  19.609   3.732
48155W        W20481  38.361  28.609  10.523
48156W        W20482  11.322  44.819   3.864
48157W        W20483  21.532  22.220   3.760
48158W        W20484  12.795  23.508   5.183
48159W        W20485  42.396  29.629   4.165
48160W        W20486   2.804   7.787  14.814
48161W        W20487  17.650   0.260   3.258
48162W        W20488  43.989  13.776  11.963
48163W        W20489  14.329  43.852  11.056
48164W        W20490  24.518  30.482   3.730
48165W        W20491   4.427  30.938   0.353
48166W        W20492  17.713  22.170   3.783
48167W        W20493  25.147  32.512  11.918
48168W        W20494   8.876  37.497  11.923
48169W        W20495  20.636  11.840  10.563
48170W        W20496  44.369  42.937   2.877
48171W        W20497  29.124   7.332  13.825
48172W        W20498   4.379  28.054   2.745
48173W        W20499  15.657   3.253  12.340
48174W        W20500   4.782  34.007  10.985
48175W        W20501  41.982  18.197  11.524
48176W        W20502   6.746   9.830  14.397
48177W        W20503  10.263   0.374   4.742
48178W        W20504   6.723  31.421  12.463
48179W        W20505  21.705  38.455   2.703
48180W        W20506   0.494   0.862   0.428
48181W        W20507  10.701  42.849   2.889
48182W        W20508  24.493  44.989  14.293
48183W        W20509  25.992   0.337   3.654
48184W        W20510  29.616   6.262   4.830
48185W        W20511  39.855   1.801   1.440
48186W        W20512   1.924   2.748  10.467
48187W        W20513  20.663  32.944  12.375
48188W        W20514   2.284   5.289   4.224
48189W        W20515   7.821   7.703  13.062
48190W        W20516  14.833  38.825  10.498
48191W        W20517  28.039  15.773  13.918
48192W        W20518  26.536  32.510   4.252
48193W        W20519  16.208  24.482   2.253
48194W        W20520   4.231  38.899  12.916
48195W        W20521  13.269   7.205   9.975
48196W        W20522  42.445  38.489   1.250
48197W        W20523   7.852  18.052   2.297
48198W        W20524  28.447   5.919   0.415
48199W        W20525  12.847  38.471  12.418
48200W        W20526  20.717  21.093   3.221
48201W        W20527  38.510   8.347   3.205
48202W        W20528  19.674  20.111   4.761
48203W        W20529  36.490  22.139   1.820
48204W        W20530  31.546  40.521   2.407
48205W        W20531   0.816  13.691  13.889
48206W        W20532  37.472   0.887   1.244
48207W        W20533   9.827  40.929   0.738
48208W        W20534  20.575  39.444  14.475
48209W        W20535  17.641  40.953  14.408
48210W        W20536   0.776  13.659   3.364
48211W        W20537  31.640  18.295   0.470
48212W        W20538   0.437  26.106   1.925
48213W        W20539  11.739  16.124  10.431
48214W        W20540  41.432  44.766   4.817
48215W        W20541  35.415  23.038   3.153
48216W        W20542   1.777  24.529  13.427
48217W        W20543  10.148  42.345  12.357
48218W        W20544   1.301  27.466  11.922
48219W        W20545  29.129   0.351  12.470
48220W        W20546  27.051   1.354   1.785
48221W        W20547  30.995  12.672   5.207
48222W        W20548  12.159  38.500  14.981
48223W        W20549  32.467  33.963  14.338
48224W        W20550   7.335   1.300  10.627
48225W        W20551  22.036  10.191  10.505
48226W        W20552  36.505  42.867   0.918
48227W        W20553  10.805  11.160  12.898
48228W        W20554   8.213  21.687   4.132
48229W        W20555  16.316  37.353  11.073
48230W        W20556  15.245  20.608  14.876
48231W        W20557  39.016   4.805   2.818
48232W        W20558  25.566  12.689   2.791
48233W        W20559   5.729  25.610   0.363
48234W        W20560   5.213  32.898   4.320
48235W        W20561   8.207   0.487   4.830
48236W        W20562  12.818  21.668  14.476
48237W        W20563   0.384  33.549  12.849
48238W        W20564  23.179  13.210   3.854
48239W        W20565  37.064  30.149   1.236
48240W        W20566  22.163   6.261   2.748
48241W        W20567  27.081  22.691  14.947
48242W        W20568  27.516  13.197  10.911
48243W        W20569  36.382  21.058   2.865
48244W        W20570  38.496  12.855  13.811
48245W        W20571  24.561  39.408   0.795
48246W        W20572  28.034  26.069   0.783
48247W        W20573  12.724  31.415  14.814
48248W        W20574  30.091  39.890   4.709
48249W        W20575  24.004   0.480  11.996
48250W        W20576  35.366  36.581  12.466
48251W        W20577  39.557  39.517  13.532
48252W        W20578  22.061  36.877  13.899
48253W        W20579  43.017  37.834  14.312
48254W        W20580  21.029  15.620   3.652
48255W        W20581   6.734  18.266   1.736
48256W        W20582   3.850  18.106  14.786
48257W        W20583   9.296  36.075   2.267
48258W        W20584   2.903  30.626   3.356
48259W        W20585  30.469  25.481  11.069
48260W        W20586  23.119  15.186  10.980
48261W        W20587  32.484  14.613  13.451
48262W        W20588  28.962   2.732   4.344
48263W        W20589  39.037  43.922  10.992
48264W        W20590  38.486  12.282  12.875
48265W        W20591   9.879  10.860   0.321
48266W        W20592   8.715   3.233  11.040
48267W        W20593   4.424  22.035   4.288
48268W        W20594  17.158  26.621   3.725
48269W        W20595  28.565  38.865   1.866
48270W        W20596  29.030  30.054  13.329
48271W        W20597  20.270  11.318  12.959
48272W        W20598  15.766  15.326   2.859
48273W        W20599  42.286  43.422  13.375
48274W        W20600   4.222   7.336   3.656
48275W        W20601  33.463  35.423   0.395
48276W        W20602  42.344  41.532   2.800
48277W        W20603  41.475  14.278  14.976
48278W        W20604  13.187   2.233  10.450
48279W        W20605  24.694  34.105   1.764
48280W        W20606   0.933  11.127  11.872
48281W        W20607  33.437  36.067   4.746
48282W        W20608  43.345  44.419   2.733
48283W        W20609   7.898  39.538   3.238
48284W        W20610  38.839  12.810   0.444
48285W        W20611  19.071  29.930  13.513
48286W        W20612  24.221  38.932  10.605
48287W        W20613  23.177   3.789   2.740
48288W        W20614  13.616  20.631  14.451
48289W        W20615  25.146  35.048  11.441
48290W        W20616  20.204  19.732  10.075
48291W        W20617   9.840   0.907  12.085
48292W        W20618  15.184  16.270  11.020
48293W        W20619  21.216  18.594   3.342
48294W        W20620  13.757  43.870   0.397
48295W        W20621  41.872   3.856   4.753
48296W        W20622  39.893  21.736   1.290
48297W        W20623  25.649  39.835  12.830
48298W        W20624  41.978  28.071  10.463
48299W        W20625  11.632   7.384  13.864
48300W        W20626  14.738  40.969   1.423
48301W        W20627   0.257  28.543   3.366
48302W        W20628  28.591   3.323   3.739
48303W        W20629  43.775  13.315  11.036
48304W        W20630  43.332   0.306   2.847
48305W        W20631   3.417  17.077  14.950
48306W        W20632   7.383  16.127  11.003
48307W        W20633  40.430  11.219  14.841
48308W        W20634  39.945  12.782  10.485
48309W        W20635  29.156   0.870  12.006
48310W        W20636  36.051  39.834  13.320
48311W        W20637  31.603  23.032  10.480
48312W        W20638  12.746  27.982   2.402
48313W        W20639   2.754  25.160   3.780
48314W        W20640  40.315  35.948   2.353
48315W        W20641   2.457  27.646  12.505
48316W        W20642  44.285  35.894   3.224
48317W        W20643  31.409   0.249   4.726
48318W        W20644  27.024   0.903  11.411
48319W        W20645  35.913   3.350  10.547
48320W        W20646  27.953  24.091  14.807
48321W        W20647   9.752  18.119   2.395
48322W        W20648  34.546   3.340   2.818
48323W        W20649   5.235   9.178  10.417
48324W        W20650  25.620  32.020  10.600
48325W        W20651   3.227  17.084   4.663
48326W        W20652   8.858  34.972   3.304
48327W        W20653  20.182  29.067  10.577
48328W        W20654   1.742   0.432  14.276
48329W        W20655   1.442   3.947   2.820
48330W        W20656  33.585  38.876   3.278
48331W        W20657  43.491  27.487   3.783
48332W        W20658  21.119  26.019   0.940
48333W        W20659  25.210   5.269  10.625
48334W        W20660   8.313   4.204   1.310
48335W        W20661  44.410  34.413  13.885
48336W        W20662  14.769   7.208  13.900
48337W        W20663  42.789  18.241  13.353
48338W        W20664  30.598  30.448  12.006
48339W        W20665  44.979   6.405   2.864
48340W        W20666  29.996  33.068   0.869
48341W        W20667  20.745   9.236   1.394
48342W        W20668  12.332   5.839  10.587
48343W        W20669  22.530   8.362   4.652
48344W        W20670   7.345   0.850  13.006
48345W        W20671   5.894  39.415  14.973
48346W        W20672  30.140  31.432   3.213
48347W        W20673   1.347   1.744  11.109
48348W        W20674   9.809  11.653   3.365
48349W        W20675  40.366  26.054   0.939
48350W        W20676  42.952  32.500   1.746
48351W        W20677   8.264  25.602   1.288
48352W        W20678  40.407  36.451   4.260
48353W        W20679  28.947  26.499   0.435
48354W        W20680  11.320  44.334   4.174
48355W        W20681   0.490  41.414  11.587
48356W        W20682  16.079  14.662  14.894
48357W        W20683   8.357  15.761  14.938
48358W        W20684  26.977  41.328  12.535
48359W        W20685  30.073   4.797   3.223
48360W        W20686  38.041   8.733  10.593
48361W        W20687   1.815  33.998   1.324
48362W        W20688   1.440  31.536  11.607
48363W        W20689  16.102  16.089   3.781
48364W        W20690  35.078  31.109  13.410
48365W        W20691   3.283  15.737  13.969
48366W        W20692  14.272   8.232  14.865
48367W        W20693  41.489  28.665  13.041
48368W        W20694   4.446  13.783   3.866
48369W        W20695  32.428   1.417   3.660
48370W        W20696  44.462  12.240  10.643
48371W        W20697   3.923   5.411   0.266
48372W        W20698  44.331   0.412  12.372
48373W        W20699  21.648  32.632   1.827
48374W        W20700  27.483  26.542   3.835
48375W        W20701  19.226  18.623  13.950
48376W        W20702  20.253  23.578   9.980
48377W        W20703  39.855  22.049  13.871
48378W        W20704  44.451   2.438   3.199
48379W        W20705  42.840  37.900   1.721
48380W        W20706   8.706   9.368  11.585
48381W        W20707  21.071  38.488  12.374
48382W        W20708  35.564   1.242  13.517
48383W        W20709  14.644  25.108   1.403
48384W        W20710  30.534  39.447  11.876
48385W        W20711  14.594  37.340   3.681
48386W        W20712  44.394  36.582  12.002
48387W        W20713  24.687  12.747  11.109
48388W        W20714  25.994  14.191   0.383
48389W        W20715   6.419  39.960   2.243
48390W        W20716  24.975  19.678   2.734
48391W        W20717  10.642  30.941   3.731
48392W        W20718   6.192  16.100   0.392
48393W        W20719  12.654  21.064   2.762
48394W        W20720  16.254  41.789  10.547
48395W        W20721  28.643  30.944  14.356
48396W        W20722  29.553   8.351  13.045
48397W        W20723  13.223  18.200  10.435
48398W        W20724  32.057  25.970  10.412
48399W        W20725   1.379   7.744  10.916
48400W        W20726  21.205  20.637  14.899
48401W        W20727  35.470  28.182  12.977
48402W        W20728  10.201  24.037   0.954
48403W        W20729  21.229  23.228   4.645
48404W        W20730   9.217   6.897   3.661
48405W        W20731  21.521  15.178   4.152
48406W        W20732  16.803  15.705   2.376
48407W        W20733  44.348  40.935   2.314
48408W        W20734  31.447  42.967  12.426
48409W        W20735  25.075  29.058   3.845
48410W        W20736   0.801   9.264   4.828
48411W        W20737  25.973   4.276   4.343
48412W        W20738  39.824   9.316   4.131
48413W        W20739  27.959  23.528  10.027
48414W        W20740  36.520  25.643  12.911
48415W        W20741  15.730   1.259   1.310
48416W        W20742  43.897  28.119   0.344
48417W        W20743  10.768   6.772  14.379
48418W        W20744  20.208  27.969   2.320
48419W        W20745  40.801  16.627   1.296
48420W        W20746   1.926   8.191  11.565
48421W        W20747  27.614  32.579  13.358
48422W        W20748   0.421   8.877  13.989
48423W        W20749   2.882  10.315   0.760
48424W        W20750  19.193  38.446   4.320
48425W        W20751  27.659   1.249   1.696
48426W        W20752  34.047  25.106   0.460
48427W        W20753  26.496  31.552   1.914
48428W        W20754  19.663  43.357  11.095
48429W        W20755  41.918  17.274   1.305
48430W        W20756  11.856  25.657   4.725
48431W        W20757  42.809   0.876   3.838
48432W        W20758  20.059  19.537  12.521
48433W        W20759  24.203   4.863   3.784
48434W        W20760  26.987  40.959   2.403
48435W        W20761   9.689  28.638   0.805
48436W        W20762  32.459   4.340  13.007
48437W        W20763  23.708   0.425  11.973
48438W        W20764  23.508   7.202  11.566
48439W        W20765  41.493  41.885  14.031
48440W        W20766   9.331  21.029  12.544
48441W        W20767  13.175  27.662   3.232
48442W        W20768  13.351  28.157   0.935
48443W        W20769   7.756   2.721   4.252
48444W        W20770  44.265  24.058  11.877
48445W        W20771  26.076  40.849   0.746
48446W        W20772  27.641  29.098  10.915
48447W        W20773  20.076   8.182   3.168
48448W        W20774  19.667  40.508   4.733
48449W        W20775  18.197   2.446   0.827
48450W        W20776  37.536  18.700   0.906
48451W        W20777  23.163  42.960   4.715
48452W        W20778  11.700   0.870   2.242
48453W        W20779  23.677  38.988  10.540
48454W        W20780  42.386  17.781  13.502
48455W        W20781   6.792  20.616   0.769
48456W        W20782  29.631  44.505   3.296
48457W        W20783  40.908  28.521   0.743
48458W        W20784   3.425  37.054  10.625
48459W        W20785  17.756   0.347   0.766
48460W        W20786   5.414   0.907   0.472
48461W        W20787   6.294  21.624  12.877
48462W        W20788  22.527  40.372  14.380
48463W        W20789  20.074  10.230   3.373
48464W        W20790  26.200   2.238  14.489
48465W        W20791  33.447   2.905   3.212
48466W        W20792  13.636  35.946   9.921
48467W        W20793  26.655   1.394   1.415
48468W        W20794  44.777   7.797  13.345
48469W        W20795  13.291  15.265  13.407
48470W        W20796  18.562   6.833   0.328
48471W        W20797  13.723  38.438   0.283
48472W        W20798   7.896  33.058  12.941
48473W        W20799  12.701   5.689   2.864
48474W        W20800  43.864  37.423   3.715
48475W        W20801  20.111  44.001   0.257
48476W        W20802  23.610  34.378  10.987
48477W        W20803  25.517   3.310   0.269
48478W        W20804  37.503   1.386  11.555
48479W        W20805  13.240  15.266  14.888
48480W        W20806  19.725  40.975  14.433
48481W        W20807  38.888  28.103   2.822
48482W        W20808  24.206  44.831  13.882
48483W        W20809  26.495   4.443   1.704
48484W        W20810  24.550  23.681  10.918
48485W        W20811   3.765   6.755   4.742
48486W        W20812  11.196  18.751   2.327
48487W        W20813   8.169  17.655  14.352
48488W        W20814  21.228  31.032   5.278
48489W        W20815  16.222   7.411   0.287
48490W        W20816  26.552  28.536  11.561
48491W        W20817  31.485   3.321  10.431
48492W        W20818  33.981   0.466   4.785
48493W        W20819  30.989  17.233   4.735
48494W        W20820  22.678  34.890  12.986
48495W        W20821   7.722  40.936  10.970
48496W        W20822  24.002  33.045  10.513
48497W        W20823  40.539   0.407  11.064
48498W        W20824  32.121   6.309  11.998
48499W        W20825  30.599  36.029   4.219
48500W        W20826  23.716  17.690  11.977
48501W        W20827  23.637  28.934   3.147
48502W        W20828  44.277  22.686  10.643
48503W        W20829  37.043  24.528  14.806
48504W        W20830  28.120  26.586   2.746
48505W        W20831   4.769  32.016   1.863
48506W        W20832   0.906  39.940  14.404
48507W        W20833  28.999  19.147  13.434
48508W        W20834  41.810  17.689  13.316
48509W        W20835  10.202  35.032  11.857
48510W        W20836  35.101   1.778   3.148
48511W        W20837   7.178   0.753   0.869
48512W        W20838  15.145  17.696   3.206
48513W        W20839   0.368  33.883  11.447
48514W        W20840  10.847  35.564   3.739
48515W        W20841  12.824  38.559  13.340
48516W        W20842  41.529  35.445   4.241
48517W        W20843   1.468   1.744   0.434
48518W        W20844  14.306  44.913  13.031
48519W        W20845  34.016  24.039  11.401
48520W        W20846  16.639  30.587  12.896
48521W        W20847  27.049  42.007   4.282
48522W        W20848  31.954   5.723   3.349
48523W        W20849   6.414  27.014  14.412
48524W        W20850  25.153  35.583   3.360
48525W        W20851  19.098  10.826   4.615
48526W        W20852   0.776  22.560  13.502
48527W        W20853  39.944   8.663   3.803
48528W        W20854  33.920  38.377  14.488
48529W        W20855  35.075   9.838   1.326
48530W        W20856  12.171  24.133  14.494
48531W        W20857  24.213  29.620  11.049
48532W        W20858   8.300  34.902   1.321
48533W        W20859  28.479   0.479  12.375
48534W        W20860  44.356  15.247  12.500
48535W        W20861   3.844  28.163  12.899
48536W        W20862  20.177  18.630   4.832
48537W        W20863  28.115  33.938   3.690
48538W        W20864  35.443   0.749  11.892
48539W        W20865  26.132  40.399   2.178
48540W        W20866  43.766  18.550   2.854
48541W        W20867  35.470   6.853   1.324
48542W        W20868  21.061  15.759  13.445
48543W        W20869  29.622  10.227   2.678
48544W        W20870  41.885  33.607  13.923
48545W        W20871   1.318   0.938   0.318
48546W        W20872  15.581   1.919  10.463
48547W        W20873  34.514  33.406  10.579
48548W        W20874   9.858  29.039   4.726
48549W        W20875   5.755  18.647  13.432
48550W        W20876  17.751   1.812  13.000
48551W        W20877  41.926  36.901  13.536
48552W        W20878  43.769  22.540  13.051
48553W        W20879   2.731  12.151   0.933
48554W        W20880  28.964  25.593  12.888
48555W        W20881  27.607  31.578   0.332
48556W        W20882  33.577  43.389   4.683
48557W        W20883   2.443  25.180  11.053
48558W        W20884  40.543  20.745  11.446
48559W        W20885  24.067  36.570   0.884
48560W        W20886  25.698   2.721  12.383
48561W        W20887  32.005  10.170   4.782
48562W        W20888  42.868  14.785   0.339
48563W        W20889  43.339  23.095  12.446
48564W        W20890  14.098  27.067  12.029
48565W        W20891  44.491  21.594  13.384
48566W        W20892  10.775  22.101   1.266
48567W        W20893  12.312  22.686  12.866
48568W        W20894   5.928  27.500  14.323
48569W        W20895   8.393  28.597  10.942
48570W        W20896  33.527  20.562  13.845
48571W        W20897  30.562   7.730   1.336
48572W        W20898   9.361  18.166   1.383
48573W        W20899  20.725  21.702  12.348
48574W        W20900   8.654  35.442  10.526
48575W        W20901  32.912  19.057   3.193
48576W        W20902  15.156  41.480   1.246
48577W        W20903  27.005   6.370  12.434
48578W        W20904  28.565  41.795  10.626
48579W        W20905  31.529  41.020  12.909
48580W        W20906   3.766  24.017  14.781
48581W        W20907  16.230  14.707  11.390
48582W        W20908  28.512  38.500  14.293
48583W        W20909  44.380  31.534   1.879
48584W        W20910  21.523  34.593  12.972
48585W        W20911  13.670  10.286  14.028
48586W        W20912  19.643  31.140   4.769
48587W        W20913  35.455  15.801   0.935
48588W        W20914   9.756  30.527   2.722
48589W        W20915  27.636  37.959   4.658
48590W        W20916  17.295  12.633   1.748
48591W        W20917   8.832  13.196  11.402
48592W        W20918   0.945  22.009  10.632
48593W        W20919  26.176   2.422  11.527
48594W        W20920  30.121  22.218   0.468
48595W        W20921   3.367  42.329  12.051
48596W        W20922  44.909  44.498  11.963
48597W        W20923   2.310  23.236   2.725
48598W        W20924  19.259  21.656  13.412
48599W        W20925  24.990  42.417   1.773
48600W        W20926  30.432  42.938   1.696
48601W        W20927  39.385  14.596   4.140
48602W        W20928   3.776  28.616  14.925
48603W        W20929  14.619  29.163   0.766
48604W        W20930  10.147   8.177   3.629
48605W        W20931  10.174  44.767  10.967
48606W        W20932  14.640   5.413   3.796
48607W        W20933  23.690  34.094  13.329
48608W        W20934  19.634  27.985  11.886
48609W        W20935  35.360   2.818  11.429
48610W        W20936  27.624  29.456  10.957
48611W        W20937  41.519  43.001   1.216
48612W        W20938  25.566  42.957   2.837
48613W        W20939  39.346  19.683  11.896
48614W        W20940  33.584  14.739   2.816
48615W        W20941  20.159  28.003   1.264
48616W        W20942  37.466  15.255   4.143
48617W        W20943  20.082   9.736   4.200
48618W        W20944  24.584  29.445  13.856
48619W        W20945  29.998  17.723  13.512
48620W        W20946  23.150  17.210   0.877
48621W        W20947  18.090   3.275  11.522
48622W        W20948  35.494   5.917  10.583
48623W        W20949  41.297  35.357  14.889
48624W        W20950  32.542  13.206   4.775
48625W        W20951  22.090  23.646   0.274
48626W        W20952  19.218  22.239   3.837
48627W        W20953   9.860  34.997  12.472
48628W        W20954  11.839  19.651  11.577
48629W        W20955  30.118   4.375  14.382
48630W        W20956  17.239  21.619  14.437
48631W        W20957  11.144  17.558  11.863
48632W        W20958  41.928  37.391  11.381
48633W        W20959  36.433  43.486  13.821
48634W        W20960  44.435   2.798  13.868
48635W        W20961   1.850  28.018  11.437
48636W        W20962  16.597  15.248   2.314
48637W        W20963  12.760  28.463   3.805
48638W        W20964   7.912  28.137   1.730
48639W        W20965  34.952  24.124  14.481
48640W        W20966   8.232  39.819   1.909
48641W        W20967  21.558   5.318   0.964
48642W        W20968   2.256   2.376   3.328
48643W        W20969  31.101  14.704   2.280
48644W        W20970   9.817   8.799   0.303
48645W        W20971  41.536  24.123   3.344
48646W        W20972  25.102  27.121  13.461
48647W        W20973  44.479  16.115  10.025
48648W        W20974  19.717  22.560   0.841
48649W        W20975  27.128  32.928   1.922
48650W        W20976  27.630  33.911  13.896
48651W        W20977   7.838   9.762   2.859
48652W        W20978  39.488  30.444   1.717
48653W        W20979  36.896  22.042  12.527
48654W        W20980  14.162  13.262   0.384
48655W        W20981  27.067  29.141  11.485
48656W        W20982  18.051   9.842   1.741
48657W        W20983  44.420  37.883  14.299
48658W        W20984  19.663  35.554  13.399
48659W        W20985  15.698  19.150   0.776
48660W        W20986  26.197  36.030   4.321
48661W        W20987  39.489  29.024   0.336
48662W        W20988   0.433  14.720  13.061
48663W        W20989  43.951  32.587  12.505
48664W        W20990  22.085  36.448  12.963
48665W        W20991  13.108   4.761  11.871
48666W        W20992  31.947   4.753   0.388
48667W        W20993  10.156  44.339  10.549
48668W        W20994  40.467  38.333   4.291
48669W        W20995  22.564  34.491   0.946
48670W        W20996   3.893  38.937  11.904
48671W        W20997   5.317   0.806  10.459
48672W        W20998   1.811  32.130  13.933
48673W        W20999  14.766  18.715   2.390
48674W        W21000  35.403  40.317   3.765
48675W        W21001  18.278  10.684  13.899
48676W        W21002   8.858   6.794  11.527
48677W        W21003  28.002  16.673  10.945
48678W        W21004  30.483  13.600   4.730
48679W        W21005  39.823  30.422  14.901
48680W        W21006  18.273  22.563  10.596
48681W        W21007  12.664  23.027   2.665
48682W        W21008  28.664  12.263  12.416
48683W        W21009  15.314  12.247  11.979
48684W        W21010  20.685  28.975  13.924
48685W        W21011  37.476   6.311   0.457
48686W        W21012  21.548  26.563   3.338
48687W        W21013   1.459  24.094  10.889
48688W        W21014  16.725  25.972  14.924
48689W        W21015  37.954  11.304   3.219
48690W        W21016  18.228  10.189   1.398
48691W        W21017  10.876  38.397   3.319
48692W        W21018  34.490  18.614   1.698
48693W        W21019  11.147  41.934   0.915
48694W        W21020  15.613  39.474  14.292
48695W        W21021  41.333  10.383  10.139
48696W        W21022  27.945  12.129   4.811
48697W        W21023  23.669   1.879   3.330
48698W        W21024  41.818  44.923  10.631
48699W        W21025  40.488  17.079   1.853
48700W        W21026  21.531  23.545   4.122
48701W        W21027  42.513  27.157  13.482
48702W        W21028  16.668  29.557   3.711
48703W        W21029  32.040  36.399  12.023
48704W        W21030   6.849   5.869  11.523
48705W        W21031  16.257   6.851  14.017
48706W        W21032  44.332  27.058   2.330
48707W        W21033   3.315  18.726   2.186
48708W        W21034  20.749  40.516   0.826
48709W        W21035  40.875  36.079  11.953
48710W        W21036  12.738  34.039   4.152
48711W        W21037   6.185  15.116   3.861
48712W        W21038  18.242  15.781   3.767
48713W        W21039   4.911  34.931  14.874
48714W        W21040   8.204  28.967  11.025
48715W        W21041  17.704  37.369   4.702
48716W        W21042  28.543  12.253  14.793
48717W        W21043  23.652   9.775   0.897
48718W        W21044   7.804   5.743  12.364
48719W        W21045   9.677  18.244  12.070
48720W        W21046  27.000  11.349   2.406
48721W        W21047  36.506  19.727  12.949
48722W        W21048   6.876  24.038  12.007
48723W        W21049  38.354  17.122   3.235
48724W        W21050  34.533  25.542  13.963
48725W        W21051   4.786  37.567  11.997
48726W        W21052   0.961   7.206   0.300
48727W        W21053  42.872   2.254   5.140
48728W        W21054  13.252  10.147  13.446
48729W        W21055  40.964  24.021   3.709
48730W        W21056  22.214  33.410  10.949
48731W        W21057  37.531  21.579  12.399
48732W        W21058  34.574  22.715   4.339
48733W        W21059   1.803  10.344   4.288
48734W        W21060   5.835   2.289  14.471
48735W        W21061  15.247  28.494  10.987
48736W        W21062  17.767   1.826  13.516
48737W        W21063  40.318  43.803  10.515
48738W        W21064   4.820  20.666   1.393
48739W        W21065  29.988  34.095   1.344
48740W        W21066   9.371   4.751   0.790
48741W        W21067  35.490  41.427   0.905
48742W        W21068  11.295   2.817   3.773
48743W        W21069   0.928   2.795  10.925
48744W        W21070  23.570  19.558   0.358
48745W        W21071  16.617  44.267  12.998
48746W        W21072  16.665  43.836   2.388
48747W        W21073  32.967  25.589   0.830
48748W        W21074  39.459  13.626   1.875
48749W        W21075  25.598  27.943  11.534
48750W        W21076  43.792  42.868   4.790
48751W        W21077  33.519  33.972   4.263
48752W        W21078  37.426  25.634   2.680
48753W        W21079  26.703   5.426  11.117
48754W        W21080  10.643   5.326  12.355
48755W        W21081  31.574   4.857  13.960
48756W        W21082  34.003  38.508  14.880
48757W        W21083  18.741  10.808   1.849
48758W        W21084  42.886  29.155   2.872
48759W        W21085   1.388  20.625   4.618
48760W        W21086  19.766  15.217   1.278
48761W        W21087  33.106  10.742  13.430
48762W        W21088   9.718  15.584  11.908
48763W        W21089   7.316  42.458   1.250
48764W        W21090  31.953  31.472  13.818
48765W        W21091  33.469  31.402  12.912
48766W        W21092  23.525  14.282  13.418
48767W        W21093  33.976  10.250   0.418
48768W        W21094  28.639  26.598  13.920
48769W        W21095  41.381  17.229   4.308
48770W        W21096  44.403  33.988  14.837
48771W        W21097  37.882  24.595  10.587
48772W        W21098  39.446  10.328   2.771
48773W        W21099  13.616  35.517   9.941
48774W        W21100  23.567  27.040  10.587
48775W        W21101   5.845  10.267   3.372
48776W        W21102  32.411  32.521  14.516
48777W        W21103   1.358  19.112   4.341
48778W        W21104  38.504   4.372  14.952
48779W        W21105   4.402  11.638   9.516
48780W        W21106  40.327  23.683   0.456
48781W        W21107  35.989  23.690  10.597
48782W        W21108  41.900   9.317   4.277
48783W        W21109   1.763  29.628   1.825
48784W        W21110  23.677  38.554   2.714
48785W        W21111  33.469  39.503   1.908
48786W        W21112  44.267   2.425  13.512
48787W        W21113  30.452  26.580   4.757
48788W        W21114  20.573  41.467  12.449
48789W        W21115   8.673  15.729  10.438
48790W        W21116   6.747  42.950   1.912
48791W        W21117  21.530  19.699  10.539
48792W        W21118  28.599  26.480  12.404
48793W        W21119   9.756  21.618  14.888
48794W        W21120  40.912  37.570  12.928
48795W        W21121  41.336  26.681   4.345
48796W        W21122   8.194  10.831  12.999
48797W        W21123  29.602  13.143  12.964
48798W        W21124   9.679  13.344  10.981
48799W        W21125  16.195  40.013   2.675
48800W        W21126  35.480  14.753   3.334
48801W        W21127  15.756   5.819  14.410
48802W        W21128  27.617   9.847   4.826
48803W        W21129  12.169  40.390   0.915
48804W        W21130  25.989   4.344   0.853
48805W        W21131  19.773  24.204  14.502
48806W        W21132  43.825   0.254  12.495
48807W        W21133  36.494   3.255  10.469
48808W        W21134  10.765  15.715   0.860
48809W        W21135  34.863   2.364  10.969
48810W        W21136  10.750  11.794  12.934
48811W        W21137   1.969  13.625  14.395
48812W        W21138   5.343   3.253   2.233
48813W        W21139  32.924  13.167   3.162
48814W        W21140  43.489  39.522   2.401
48815W        W21141  23.701  37.438  10.627
48816W        W21142  38.508  10.660   1.421
48817W        W21143  41.357  11.858  10.635
48818W        W21144  26.066   1.367   2.839
48819W        W21145  12.237  18.763  13.534
48820W        W21146  24.169  26.670   1.441
48821W        W21147  33.399  36.512  13.912
48822W        W21148  40.544  12.323   3.710
48823W        W21149  35.544  23.544   1.801
48824W        W21150  23.633  44.416  10.436
48825W        W21151  10.681  32.496  13.950
48826W        W21152  41.863  31.000  14.379
48827W        W21153  27.589  35.967   1.403
48828W        W21154  37.435  22.099   2.692
48829W        W21155   1.254  17.707  12.458
48830W        W21156  18.103  39.398  14.840
48831W        W21157  15.779  26.966   2.270
48832W        W21158  33.056  26.111  12.419
48833W        W21159  14.591  19.692   2.233
48834W        W21160  22.046   2.257   4.730
48835W        W21161  17.664   6.737   0.299
48836W        W21162  28.502  14.709  11.537
48837W        W21163  33.068  15.312  12.842
48838W        W21164   1.281  15.703  12.078
48839W        W21165  34.441   1.865   2.714
48840W        W21166  25.969  35.506   2.265
48841W        W21167   6.195  25.990  13.487
48842W        W21168  19.677  38.545  13.826
48843W        W21169  23.070   2.445  13.415
48844W        W21170  11.804   3.835  11.032
48845W        W21171  35.485  11.370   1.855
48846W        W21172  36.500  22.546  13.355
48847W        W21173  37.836  19.541   1.378
48848W        W21174  44.767  33.514  14.764
48849W        W21175   6.850  14.135   2.401
48850W        W21176   0.846   6.234   3.357
48851W        W21177  18.080  19.695   1.438
48852W        W21178  15.739   8.188  13.412
48853W        W21179  38.412  14.286  12.419
48854W        W21180  25.496  22.634   2.242
48855W        W21181  10.316   9.864   0.887
48856W        W21182  44.844  29.480   1.397
48857W        W21183   1.339  36.404   3.862
48858W        W21184  30.961  14.795  10.538
48859W        W21185  37.883  16.276   2.199
48860W        W21186  33.943  33.388  10.488
48861W        W21187  33.556  23.520   2.766
48862W        W21188  15.801   4.833   0.476
48863W        W21189   9.324  37.472  14.996
48864W        W21190  44.400  37.981   1.814
48865W        W21191  31.124  32.401  13.453
48866W        W21192  24.701  41.806  14.989
48867W        W21193  26.625  20.235  12.347
48868W        W21194  39.359  44.415   4.172
48869W        W21195  39.389  30.002   2.890
48870W        W21196  10.800  10.307  10.925
48871W        W21197  19.775  14.816  11.049
48872W        W21198  25.551  11.202  11.517
48873W        W21199  27.524  22.601   2.669
48874W        W21200  16.808  17.127  12.992
48875W        W21201   6.798  17.123   4.216
48876W        W21202  13.681   6.378   0.856
48877W        W21203  13.343  17.268   4.302
48878W        W21204  29.983  32.569   1.831
48879W        W21205  28.033   6.696   4.148
48880W        W21206  31.018  20.734   1.292
48881W        W21207  24.099   5.213   2.666
48882W        W21208   6.377  35.059  11.011
48883W        W21209   4.871  30.454   0.390
48884W        W21210  40.323  41.885   4.190
48885W        W21211   6.833  17.692   3.687
48886W        W21212  13.331  21.607  11.440
48887W        W21213  20.077  19.220  12.898
48888W        W21214  42.340  42.859   0.255
48889W        W21215  42.511  10.639   4.730
48890W        W21216  27.172  31.427  12.886
48891W        W21217  11.719   0.982   3.198
48892W        W21218   4.240  22.741  13.796
48893W        W21219  28.637  25.538   9.612
48894W        W21220  17.681  31.016  11.384
48895W        W21221   2.354  21.602   3.835
48896W        W21222  28.451  32.403  10.923
48897W        W21223   7.723   2.314  12.400
48898W        W21224  12.276  41.928   0.816
48899W        W21225  21.606  38.899   2.380
48900W        W21226  29.599  13.250  14.766
48901W        W21227  29.491  12.641  11.069
48902W        W21228  22.697  35.939  13.367
48903W        W21229   5.806  21.697  11.060
48904W        W21230  21.055  34.465   5.262
48905W        W21231  38.456  13.215  11.003
48906W        W21232  37.836  13.151  13.053
48907W        W21233  25.077  28.518   4.198
48908W        W21234   1.404  42.354   2.370
48909W        W21235   3.378  24.659  14.850
48910W        W21236  11.138   1.256   0.890
48911W        W21237  31.527  11.243  14.014
48912W        W21238  27.006   1.873   4.158
48913W        W21239  13.714  11.669  14.913
48914W        W21240  39.421  40.834   1.273
48915W        W21241  16.599  15.595  11.563
48916W        W21242  19.171  44.309  14.944
48917W        W21243  23.171  17.270  11.919
48918W        W21244  38.948  29.947   2.278
48919W        W21245  26.043  38.864   0.806
48920W        W21246  22.149  28.980  13.810
48921W        W21247   5.277  21.255  11.959
48922W        W21248   3.807  17.095   0.398
48923W        W21249  33.391  38.062   3.654
48924W        W21250  19.200  20.232   1.231
48925W        W21251   1.439  34.953  13.796
48926W        W21252  17.683   6.392   1.215
48927W        W21253   8.208  35.566   4.809
48928W        W21254  28.172  41.466  13.344
48929W        W21255   1.380  32.089   1.363
48930W        W21256   2.771  20.719   5.303
48931W        W21257  25.024  23.614   1.833
48932W        W21258  24.050  28.044  13.875
48933W        W21259  33.958  32.526  12.066
48934W        W21260  35.058  25.483  13.504
48935W        W21261  10.694  34.066  11.417
48936W        W21262  34.093   8.177   2.351
48937W        W21263  44.828  14.254   4.777
48938W        W21264   3.904   3.412  12.921
48939W        W21265  34.906  39.470  12.561
48940W        W21266  40.011  17.775  14.913
48941W        W21267  33.948  30.958  14.469
48942W        W21268  41.376  21.578   1.746
48943W        W21269  27.642   0.265  13.843
48944W        W21270  15.312   3.256   1.355
48945W        W21271  36.079   2.330   0.947
48946W        W21272  24.491  20.562   0.444
48947W        W21273  39.421   0.755  11.498
48948W        W21274   6.896  25.528   0.826
48949W        W21275  11.206   6.788  13.377
48950W        W21276  23.179  30.914   3.245
48951W        W21277   0.381  28.929   4.155
48952W        W21278   3.936  44.471   1.834
48953W        W21279  38.533   4.422   3.336
48954W        W21280  41.432  31.506   1.864
48955W        W21281  11.267  28.521   0.265
48956W        W21282  27.675   7.844  12.530
48957W        W21283  24.160  13.688   1.861
48958W        W21284   3.391  16.172  10.935
48959W        W21285   2.869  42.999   4.191
48960W        W21286  18.081  44.397   1.793
48961W        W21287  30.435   6.730  13.314
48962W        W21288  38.847  11.865  14.801
48963W        W21289  20.195  27.046  11.891
48964W        W21290  25.030   8.703   0.284
48965W        W21291  12.824  18.196   4.708
48966W        W21292   3.931   0.452  12.354
48967W        W21293  16.771  27.491   4.316
48968W        W21294  23.715   7.175   3.325
48969W        W21295  27.510   5.230   4.775
48970W        W21296  35.019  43.404   0.447
48971W        W21297  14.650   8.246  13.901
48972W        W21298  22.555  11.730  14.403
48973W        W21299   3.330  15.701  12.526
48974W        W21300   9.335  11.288  13.037
48975W        W21301  15.694  36.457   2.393
48976W        W21302   1.888   8.706   3.356
48977W        W21303  21.086   9.325   1.430
48978W        W21304  23.590  42.919   2.363
48979W        W21305  30.616  22.122   2.412
48980W        W21306  16.607  20.751  13.343
48981W        W21307  42.782   7.301   2.852
48982W        W21308  44.903   7.301  11.435
48983W        W21309  42.839  39.940   0.248
48984W        W21310   3.328  33.464   1.322
48985W        W21311   2.471   9.723   9.442
48986W        W21312  23.156  36.360   3.284
48987W        W21313  11.832   7.884   0.860
48988W        W21314  20.620  40.430  11.955
48989W        W21315  37.028  43.006  14.765
48990W        W21316   5.738  17.280  13.373
48991W        W21317  37.370  39.500  14.950
48992W        W21318  31.555  20.605   3.358
48993W        W21319   4.858  38.493  11.512
48994W        W21320  21.702  13.167  11.460
48995W        W21321  15.188  20.030  12.505
48996W        W21322   8.709  38.972   0.950
48997W        W21323  28.590   2.458   1.734
48998W        W21324   3.890  29.603   2.725
48999W        W21325  25.163   2.434   3.857
49000W        W21326  32.980  14.248  14.014
49001W        W21327  22.602  32.044  14.957
49002W        W21328  20.753  11.789   4.716
49003W        W21329  33.464  35.982   2.759
49004W        W21330  21.619  30.551   2.378
49005W        W21331  31.069  38.374  12.877
49006W        W21332  29.069   2.418  13.872
49007W        W21333  11.778  36.046   2.354
49008W        W21334  15.193   5.927   3.198
49009W        W21335  25.477  19.172  14.318
49010W        W21336  42.822  33.592   0.855
49011W        W21337  35.106  24.117   3.835
49012W        W21338   3.271  23.094   2.353
49013W        W21339  29.596   6.876   2.267
49014W        W21340  32.115  11.753  13.799
49015W        W21341   0.776  28.072  12.846
49016W        W21342  12.848  28.523   4.819
49017W        W21343  44.799  17.217  14.029
49018W        W21344  21.588  41.947  13.494
49019W        W21345  36.867  13.242   0.910
49020W        W21346  14.176  26.533  11.458
49021W        W21347  14.663  25.560   9.482
49022W        W21348   1.948  11.313  11.868
49023W        W21349   2.895  32.894   4.280
49024W        W21350   3.734  11.657  11.569
49025W        W21351  39.894   1.951   4.338
49026W        W21352  18.580  27.646  14.768
49027W        W21353   3.870  36.501   2.673
49028W        W21354  25.474  28.079   3.233
49029W        W21355  36.868  31.035  10.431
49030W        W21356  36.866  39.343  12.840
49031W        W21357  39.954  30.576   2.709
49032W        W21358  26.606   6.698  11.093
49033W        W21359  14.307   5.770  10.929
49034W        W21360  12.233  13.124   2.714
49035W        W21361  44.879   3.881   1.760
49036W        W21362  10.240  37.841  11.452
49037W        W21363   1.450  12.855  13.438
49038W        W21364  38.374   4.430   4.194
49039W        W21365  25.095  28.616  13.425
49040W        W21366  32.066   3.359  12.852
49041W        W21367  38.389  37.910  10.439
49042W        W21368  23.083  25.663  13.960
49043W        W21369  26.089  43.884   2.382
49044W        W21370  11.708  29.581  11.044
49045W        W21371  22.181  13.347  12.404
49046W        W21372   7.680  10.300  13.319
49047W        W21373   7.412  28.175   0.483
49048W        W21374  29.929  17.577   0.352
49049W        W21375  11.679  14.321  10.431
49050W        W21376   9.840  10.145   1.266
49051W        W21377  30.962   5.706  13.350
49052W        W21378   2.941  42.797  12.522
49053W        W21379   7.737  35.875  13.443
49054W        W21380  43.284  41.306   0.341
49055W        W21381  28.084  13.600  14.476
49056W        W21382  12.626  17.304  12.880
49057W        W21383  18.749  14.833  14.762
49058W        W21384  29.008  22.085  13.386
49059W        W21385  15.181  41.009  13.967
49060W        W21386   8.404  10.732  10.469
49061W        W21387  12.673  21.215  13.056
49062W        W21388  38.832  27.009   0.786
49063W        W21389  30.517  21.114  12.578
49064W        W21390  42.888   6.208   0.730
49065W        W21391  20.243  32.414  10.577
49066W        W21392  21.074  33.090   2.303
49067W        W21393  20.674  42.969  14.002
49068W        W21394  32.031  23.098  10.456
49069W        W21395  28.631   9.652  14.987
49070W        W21396  21.551   8.876  12.566
49071W        W21397  41.831  27.462  14.809
49072W        W21398  12.767  37.336   2.845
49073W        W21399  30.572  44.285  10.001
49074W        W21400  41.497  22.591   4.350
49075W        W21401  12.257   1.450  12.512
49076W        W21402  43.784   2.229   4.677
49077W        W21403  33.472  25.984   3.381
49078W        W21404   8.376  10.234   2.203
49079W        W21405  33.622  35.579   0.734
49080W        W21406  33.065  22.543   2.389
49081W        W21407  31.941  32.101   3.360
49082W        W21408  14.314   8.788  11.599
49083W        W21409  35.497  17.169  12.012
49084W        W21410  26.146  12.283  10.590
49085W        W21411  12.697  16.171  14.860
49086W        W21412  29.982  17.753  10.432
49087W        W21413  38.986  19.265   4.769
49088W        W21414  38.559  38.030   2.716
49089W        W21415  25.094  13.266  13.380
49090W        W21416   5.754  16.260   0.332
49091W        W21417  24.010   0.979  12.526
49092W        W21418   2.916  32.590   3.692
49093W        W21419  11.127   5.302  11.440
49094W        W21420  35.084  23.170  14.981
49095W        W21421  17.079   5.430  13.976
49096W        W21422  34.896   6.383   0.945
49097W        W21423  19.596  11.275  14.478
49098W        W21424  43.502  16.118   0.770
49099W        W21425   7.733   5.744   4.645
49100W        W21426  29.610  13.177   0.348
49101W        W21427  18.761  38.420   4.650
49102W        W21428  38.992   4.352   0.803
49103W        W21429   5.785  15.126   1.771
49104W        W21430  13.208  25.975   0.286
49105W        W21431  25.552  31.934  14.349
49106W        W21432  40.486  14.742  13.029
49107W        W21433  34.949  17.188   4.639
49108W        W21434  19.048  16.146   4.218
49109W        W21435  11.230  37.070  10.433
49110W        W21436  38.983  16.572   3.681
49111W        W21437  41.356  29.976  12.564
49112W        W21438  34.926  35.374   2.873
49113W        W21439  22.131   6.400   1.760
49114W        W21440  12.668   4.716   2.724
49115W        W21441  22.059  28.004  11.405
49116W        W21442  30.933  15.713   2.789
49117W        W21443  13.259  21.732  13.813
49118W        W21444  22.685  44.988   1.918
49119W        W21445  19.114  28.569   0.752
49120W        W21446  16.122  43.487   0.471
49121W        W21447  16.631  40.383  12.888
49122W        W21448   8.835  28.497   0.421
49123W        W21449  41.022  44.261   4.835
49124W        W21450   1.749  26.540   3.222
49125W        W21451  18.621  26.583  13.960
49126W        W21452  20.261   0.367   1.742
49127W        W21453  18.174   4.377  11.476
49128W        W21454  42.393  30.082  13.856
49129W        W21455   5.415  43.972   3.190
49130W        W21456  20.036  38.908   2.665
49131W        W21457  32.608   7.791  10.429
49132W        W21458  32.974  13.604  14.498
49133W        W21459   1.732  44.442  12.445
49134W        W21460   7.303   4.804   3.854
49135W        W21461  16.797  17.223   1.297
49136W        W21462   3.896  27.169  10.433
49137W        W21463  36.013   8.825   2.765
49138W        W21464  22.022   9.273   0.901
49139W        W21465  14.710  31.978   0.344
49140W        W21466  12.803  20.203  12.004
49141W        W21467  25.179  35.892  14.408
49142W        W21468  42.840  12.810  13.963
49143W        W21469  24.077  26.479  10.093
49144W        W21470  19.773   1.296  11.929
49145W        W21471  32.137  30.422  14.471
49146W        W21472   4.288  42.988  13.013
49147W        W21473  44.796  40.364   3.785
49148W        W21474  13.824  29.135   3.283
49149W        W21475   3.814  27.598   3.711
49150W        W21476  27.981  27.544   3.329
49151W        W21477   4.945  24.997  12.983
49152W        W21478   5.279  39.455  14.868
49153W        W21479  20.161  19.538   5.098
49154W        W21480  42.891  40.437   2.755
49155W        W21481  26.046  28.640   2.225
49156W        W21482  40.421   6.736  11.995
49157W        W21483  10.835  35.986   0.344
49158W        W21484  37.038  20.046   0.818
49159W        W21485  21.145  31.599  11.541
49160W        W21486  11.851  40.000  14.962
49161W        W21487  25.975  39.864   0.895
49162W        W21488  12.318  20.766   4.353
49163W        W21489  25.989  17.069  10.137
49164W        W21490  23.637   1.733  11.062
49165W        W21491  17.760  29.651   3.642
49166W        W21492  14.297   3.955   3.863
49167W        W21493  35.900  29.938   0.475
49168W        W21494  28.509  38.556  10.929
49169W        W21495  19.091  37.560  14.031
49170W        W21496   5.693  37.024  14.017
49171W        W21497  31.418   0.934  14.875
49172W        W21498  44.461   3.920  13.459
49173W        W21499  41.468  27.463   0.313
49174W        W21500  20.034  42.312  14.430
49175W        W21501  42.796  31.902  13.456
49176W        W21502  16.754  17.599  11.867
49177W        W21503  14.593   9.876  11.512
49178W        W21504  17.690  43.407   3.737
49179W        W21505  25.999  42.851   1.244
49180W        W21506  27.976  32.997   2.190
49181W        W21507  41.845   9.798  10.469
49182W        W21508  41.035   3.802   4.636
49183W        W21509  11.779  37.086  11.540
49184W        W21510  16.638  28.512  10.584
49185W        W21511  44.462  44.263  12.064
49186W        W21512   3.819  22.149   4.754
49187W        W21513   7.678  10.744  13.039
49188W        W21514   2.953  30.591  13.437
49189W        W21515  32.407  43.005  14.776
49190W        W21516   7.215  20.654   3.855
49191W        W21517   7.863  26.608   2.243
49192W        W21518  44.456  14.296   3.301
49193W        W21519  16.629   4.341  11.045
49194W        W21520  35.595  25.132   4.335
49195W        W21521   8.261   0.861   1.217
49196W        W21522   0.366   1.972  12.060
49197W        W21523  15.128  19.630   2.222
49198W        W21524  33.046  24.061   2.285
49199W        W21525   9.244  30.496  10.606
49200W        W21526  26.665  38.049   4.289
49201W        W21527  22.036  20.188  12.995
49202W        W21528  17.269   9.715   2.240
49203W        W21529  37.995  14.332  14.369
49204W        W21530  40.950  34.453   2.894
49205W        W21531   4.273  27.145  12.522
49206W        W21532  32.960  43.415  14.279
49207W        W21533  38.355   8.283   1.747
49208W        W21534  44.894   7.249  14.906
49209W        W21535   6.692  37.571   1.780
49210W        W21536  37.968  31.585   2.790
49211W        W21537  13.219   2.403   4.172
49212W        W21538  29.535  27.141   2.220
49213W        W21539  33.449  40.463   4.761
49214W        W21540  11.327  19.041   3.830
49215W        W21541  23.704  33.131   3.158
49216W        W21542  39.822   3.772   4.248
49217W        W21543  13.626  36.427  12.528
49218W        W21544  17.075  43.824   0.359
49219W        W21545   1.944  20.049  11.003
49220W        W21546  18.604  26.003   1.402
49221W        W21547  12.260  35.920  10.920
49222W        W21548   0.932   8.844  11.128
49223W        W21549   8.339  12.340  11.004
49224W        W21550  27.501  44.453   4.811
49225W        W21551  40.929  12.195  13.376
49226W        W21552  42.469  10.654  14.803
49227W        W21553   9.164  30.076  13.961
49228W        W21554   6.832  10.737   0.950
49229W        W21555  10.321  40.862  13.821
49230W        W21556  34.041  27.079   3.307
49231W        W21557  27.555   3.394   3.230
49232W        W21558  22.546  13.293  14.962
49233W        W21559  17.653  21.162  14.336
49234W        W21560   8.749   0.304  12.914
49235W        W21561   5.241  30.529  14.772
49236W        W21562  25.157   1.850   0.857
49237W        W21563  31.639   0.751   0.483
49238W        W21564  42.939  40.880   2.215
49239W        W21565  11.214  30.414   3.172
49240W        W21566  16.805  22.113  14.881
49241W        W21567  35.872  39.043  13.823
49242W        W21568  28.545  15.715   3.308
49243W        W21569  36.994  13.127  10.580
49244W        W21570  26.543  15.768  13.952
49245W        W21571  38.048  10.246  12.836
49246W        W21572  31.499  26.086   2.739
49247W        W21573   9.658  33.519   1.286
49248W        W21574  40.356  20.140  12.088
49249W        W21575  17.289  30.991   2.678
49250W        W21576   5.286   9.326  13.404
49251W        W21577  24.152  40.812   2.249
49252W        W21578  24.485  42.879  14.501
49253W        W21579  28.440  18.180   4.617
49254W        W21580  35.889  43.289  14.340
49255W        W21581  33.415   4.793   2.854
49256W        W21582  17.721  15.683   2.826
49257W        W21583  38.045   6.845   2.292
49258W        W21584  28.068  17.088  11.559
49259W        W21585   1.745  27.463   2.210
49260W        W21586  11.141  38.536   1.764
49261W        W21587  38.064  18.750  11.464
49262W        W21588  30.054  43.340   0.774
49263W        W21589  22.150  21.191   2.388
49264W        W21590   2.866  44.362  12.937
49265W        W21591  29.020  21.611  10.569
49266W        W21592  26.120  28.524  12.443
49267W        W21593  37.044  16.109   3.291
49268W        W21594  18.705  14.638   0.862
49269W        W21595  28.004  38.006  12.061
49270W        W21596   3.262   7.328   3.830
49271W        W21597  35.486  33.033  11.899
49272W        W21598  43.874  15.222   3.146
49273W        W21599  15.323  38.062   3.728
49274W        W21600  23.524  42.853   4.215
49275W        W21601  38.001  27.572   0.251
49276W        W21602  12.742   9.703  14.383
49277W        W21603  23.012  12.781  13.482
49278W        W21604  35.031  14.678   0.773
49279W        W21605  35.058  14.149  12.409
49280W        W21606  40.835   9.881   2.324
49281W        W21607  25.581  19.544   0.797
49282W        W21608   3.888   4.271  13.343
49283W        W21609  25.983  11.827  14.290
49284W        W21610   6.812  16.811  14.453
49285W        W21611  17.146  17.775   4.743
49286W        W21612   0.347  21.127  11.926
49287W        W21613  44.483  26.677  11.958
49288W        W21614  26.088  33.083   1.777
49289W        W21615  10.641  40.539  11.376
49290W        W21616  27.572  24.153  11.959
49291W        W21617  28.043  16.726  14.890
49292W        W21618  15.816   1.415   3.258
49293W        W21619  25.604   9.225   0.344
49294W        W21620  19.075  41.939   1.753
49295W        W21621  29.028  18.078  10.514
49296W        W21622  33.510  38.890   3.833
49297W        W21623  34.077   2.403   4.195
49298W        W21624  39.822  43.284  14.893
49299W        W21625  43.990  26.643   2.722
49300W        W21626   4.288  37.362   4.806
49301W        W21627  40.938  22.551   2.304
49302W        W21628   9.228  16.291  10.912
49303W        W21629  29.965  12.174  12.956
49304W        W21630  26.546  21.159   2.259
49305W        W21631   4.718  22.050  13.373
49306W        W21632  44.444  23.562   1.853
49307W        W21633  17.144   1.410  12.412
49308W        W21634  14.320  38.344  14.506
49309W        W21635  32.957   6.694   0.406
49310W        W21636  21.643  16.190   2.203
49311W        W21637  42.485  25.527  12.397
49312W        W21638  33.395  28.045  11.587
49313W        W21639   2.333  29.038  13.027
49314W        W21640   4.281  33.537   1.925
49315W        W21641  35.023  39.922   1.323
49316W        W21642  32.017  29.924   0.401
49317W        W21643   1.933  17.617   1.860
49318W        W21644  22.556   9.350  12.828
49319W        W21645  29.438   5.733   1.772
49320W        W21646   0.425   0.788   0.807
49321W        W21647   3.322  22.031   4.200
49322W        W21648  27.504  34.901   1.765
49323W        W21649   7.255   2.966  14.844
49324W        W21650  25.191  34.879   3.342
49325W        W21651  33.399  23.538  13.059
49326W        W21652  32.437  30.606  12.056
49327W        W21653  16.241  19.749   4.150
49328W        W21654  10.653  27.492  14.911
49329W        W21655  17.625  19.759  11.584
49330W        W21656  43.336  31.595  11.904
49331W        W21657  10.250  19.086   4.243
49332W        W21658  21.530  10.718   3.870
49333W        W21659  15.248  12.186   2.872
49334W        W21660   5.297  30.108  12.917
49335W        W21661  32.469  38.986  14.796
49336W        W21662  18.554  19.203   0.848
49337W        W21663  43.989  39.846  13.050
49338W        W21664   6.861  22.051  12.488
49339W        W21665  17.797  17.259  13.957
49340W        W21666   8.801  28.444  13.950
49341W        W21667  23.511  40.354   4.146
49342W        W21668  11.301   1.323  11.059
49343W        W21669   7.186   4.386   1.855
49344W        W21670  38.016  34.468   4.764
49345W        W21671  17.263  39.031  10.946
49346W        W21672  43.856  24.043  13.464
49347W        W21673   3.277  41.449   1.372
49348W        W21674  41.014  28.166  12.342
49349W        W21675  29.463   8.890  13.491
49350W        W21676  21.653  39.362   5.686
49351W        W21677  19.708  41.970   4.695
49352W        W21678   3.949  12.702   4.188
49353W        W21679  22.518  30.151   4.290
49354W        W21680  27.460  38.964   3.639
49355W        W21681   8.188  30.922  11.023
49356W        W21682   6.716  23.020  13.972
49357W        W21683  26.536  31.077   4.186
49358W        W21684  16.211  14.664  11.952
49359W        W21685  17.719   7.351   0.358
49360W        W21686  10.376   3.336  13.818
49361W        W21687  10.252  25.514  10.565
49362W        W21688  37.553  35.485  14.855
49363W        W21689  23.181  20.549   1.705
49364W        W21690  19.623  43.372   2.255
49365W        W21691  11.712  15.162   2.199
49366W        W21692  35.402  33.538   0.832
49367W        W21693  38.883  22.241  11.488
49368W        W21694  24.182  28.513   2.326
49369W        W21695  40.935   2.294  12.893
49370W        W21696  23.573  30.965   2.221
49371W        W21697  21.592   3.408  14.515
49372W        W21698  14.611  41.004   3.690
49373W        W21699  12.797  12.633   4.338
49374W        W21700  27.045   0.442   3.705
49375W        W21701  42.347  16.801  14.480
49376W        W21702  25.071  33.054  13.862
49377W        W21703  28.522   6.267  14.989
49378W        W21704  26.051  19.137  12.091
49379W        W21705   7.759  39.974  12.044
49380W        W21706  39.015  41.808  11.925
49381W        W21707  39.924  12.132  12.931
49382W        W21708  14.791  25.984  12.516
49383W        W21709  19.645   4.330   4.647
49384W        W21710   2.820  24.536   1.369
49385W        W21711  44.924  14.592  13.022
49386W        W21712   0.405  14.174   0.482
49387W        W21713  28.594  31.562  11.868
49388W        W21714  38.067  35.595   0.309
49389W        W21715   7.406  29.509   1.811
49390W        W21716  32.410  36.515  13.045
49391W        W21717   2.735  27.998  12.020
49392W        W21718  13.162  35.075   4.287
49393W        W21719  19.039  14.676  13.529
49394W        W21720   9.769  41.838  13.839
49395W        W21721   3.721  20.129  12.400
49396W        W21722  24.048   9.882  10.900
49397W        W21723  40.407  27.024  13.947
49398W        W21724   1.435  11.181  10.017
49399W        W21725  24.994  42.441  12.454
49400W        W21726  11.340  31.441  12.548
49401W        W21727  25.164   1.972   1.828
49402W        W21728  19.656  40.357   2.732
49403W        W21729   7.249  10.180   0.728
49404W        W21730  14.695  23.688   2.354
49405W        W21731  22.614   7.799   2.794
49406W        W21732   2.455  17.711  13.907
49407W        W21733  44.481  31.456  13.042
49408W        W21734  36.935   2.282  10.556
49409W        W21735   9.171  33.080  14.465
49410W        W21736  21.100   1.299   3.718
49411W        W21737  11.326  36.578  10.634
49412W        W21738  33.946   1.963   3.166
49413W        W21739  14.799  13.247   1.428
49414W        W21740  39.437  18.669  14.293
49415W        W21741  14.314   2.837  14.881
49416W        W21742  13.307  32.889   4.728
49417W        W21743  22.535  26.635  14.434
49418W        W21744  27.142  36.492  13.369
49419W        W21745  18.686   1.840   4.773
49420W        W21746  13.621  41.449  11.007
49421W        W21747   8.372  34.121   3.723
49422W        W21748  29.141  18.277   2.804
49423W        W21749  14.759  37.079  13.808
49424W        W21750  17.155  27.666   4.232
49425W        W21751  34.540  32.604  10.115
49426W        W21752  10.750  10.259  12.025
49427W        W21753  15.821   2.885  11.455
49428W        W21754  26.555  20.146  14.923
49429W        W21755   5.873  20.058   4.201
49430W        W21756  39.469  23.722   3.708
49431W        W21757  38.343  43.944  10.572
49432W        W21758  10.772  33.613   0.748
49433W        W21759  32.570  27.655  11.515
49434W        W21760   4.387  36.078   2.756
49435W        W21761   3.265  20.656   2.314
49436W        W21762  20.613  40.449   1.932
49437W        W21763  30.484  16.742  10.921
49438W        W21764   4.813   6.872  14.772
49439W        W21765  14.275   6.720  13.412
49440W        W21766  44.418  15.163   0.856
49441W        W21767  18.647  23.133  10.537
49442W        W21768  10.171  19.771   0.898
49443W        W21769  31.049  17.177  12.414
49444W        W21770  24.981  26.141  10.983
49445W        W21771  30.419  36.367  10.929
49446W        W21772  28.095  30.113   1.821
49447W        W21773  44.787   6.408   3.704
49448W        W21774   7.327  26.993   3.306
49449W        W21775   1.926  38.909  12.493
49450W        W21776  23.221   3.283  11.028
49451W        W21777  39.818  21.664  12.405
49452W        W21778  26.565  44.477  11.097
49453W        W21779  37.875  18.788  12.536
49454W        W21780   8.713  20.536   1.744
49455W        W21781  24.132  10.808   2.249
49456W        W21782  40.428  15.129   1.318
49457W        W21783  29.963   8.309  13.874
49458W        W21784   7.267  29.647  14.794
49459W        W21785   8.207   2.408   1.846
49460W        W21786  12.325  16.685  14.972
49461W        W21787  30.589  36.973   2.403
49462W        W21788  29.932  43.883   4.816
49463W        W21789  25.107  23.674  10.980
49464W        W21790  27.134  39.534   1.842
49465W        W21791  25.546   9.871  12.070
49466W        W21792   9.683  39.445  14.790
49467W        W21793  22.155  34.401   4.811
49468W        W21794   7.714  24.691   3.194
49469W        W21795  41.854  26.177  12.971
49470W        W21796  27.605   7.411   2.861
49471W        W21797  14.134  13.656  13.969
49472W        W21798  19.183  44.939  12.347
49473W        W21799  29.670  37.071   4.338
49474W        W21800   7.833   8.826   1.889
49475W        W21801  23.227  29.522  14.453
49476W        W21802  39.839  34.601  14.386
49477W        W21803  39.824   8.366  11.566
49478W        W21804   1.938  13.294   3.642
49479W        W21805  24.537  39.533   3.722
49480W        W21806   7.758  40.419   4.176
49481W        W21807  35.577  43.322  14.368
49482W        W21808  30.989  40.040   2.236
49483W        W21809  17.624  40.840   1.355
49484W        W21810  37.945  29.450  12.344
49485W        W21811  42.975   9.239  12.087
49486W        W21812  33.066   7.842   1.816
49487W        W21813  16.734  34.901  12.045
49488W        W21814   4.846  26.161  12.349
49489W        W21815  17.161  20.731   2.665
49490W        W21816  42.837   5.875  12.939
49491W        W21817  17.253  26.000   3.653
49492W        W21818  11.837  27.987   1.280
49493W        W21819  33.567  22.205  12.932
49494W        W21820  24.573  35.416   3.318
49495W        W21821  38.556  41.334  12.895
49496W        W21822  23.993  27.562   1.876
49497W        W21823   6.898   2.260  11.081
49498W        W21824  40.820  38.402   1.268
49499W        W21825  10.375  19.647  12.891
49500W        W21826  26.058  16.704   3.342
49501W        W21827  42.949  33.491  10.626
49502W        W21828  36.526  21.722   4.206
49503W        W21829  20.131   6.401  12.011
49504W        W21830   0.881  41.914  10.973
49505W        W21831   1.784  33.956   2.713
49506W        W21832  24.679  29.153   0.811
49507W        W21833  13.250  36.864  13.897
49508W        W21834   7.670  35.550   3.253
49509W        W21835  39.851   9.349  12.068
49510W        W21836  24.189  21.073  13.390
49511W        W21837  42.812  21.078  11.071
49512W        W21838   0.803  17.220   1.432
49513W        W21839  21.157  37.469   3.638
49514W        W21840  32.607   7.716   0.903
49515W        W21841  18.266  34.460  14.423
49516W        W21842  12.354  35.579   0.365
49517W        W21843  36.865  36.861   0.247
49518W        W21844  29.921  26.089  13.520
49519W        W21845  14.616  39.320  12.575
49520W        W21846  12.247  32.440  10.532
49521W        W21847   0.757  10.337  14.308
49522W        W21848  20.710  14.131  10.578
49523W        W21849  16.077  17.722  12.393
49524W        W21850  17.141  23.696  14.279
49525W        W21851  21.629  29.498   2.225
49526W        W21852  17.149   7.749  11.514
49527W        W21853  25.101   3.430  10.985
49528W        W21854   1.382  27.084  12.392
49529W        W21855  12.619  25.207  13.868
49530W        W21856  39.009  39.052  13.822
49531W        W21857  39.467  17.227   0.309
49532W        W21858  15.292  18.787  14.287
49533W        W21859  41.521   2.454   2.695
49534W        W21860  21.256  10.762   0.937
49535W        W21861  37.344  10.142   1.396
49536W        W21862  30.545  36.435  13.866
49537W        W21863  33.553  36.359   0.423
49538W        W21864  20.268  26.549   1.727
49539W        W21865  40.985  42.890   2.335
49540W        W21866  14.615  17.143   9.924
49541W        W21867  16.728  23.035  11.569
49542W        W21868   8.778  27.080  13.372
49543W        W21869  31.540  40.899   3.650
49544W        W21870  23.548  30.538   4.715
49545W        W21871  28.966  25.146   4.742
49546W        W21872  29.529  37.369  10.113
49547W        W21873  36.402  24.102  10.542
49548W        W21874  31.535  10.323   1.796
49549W        W21875  33.102  21.625   3.162
49550W        W21876  28.079   4.241  12.390
49551W        W21877  35.601  25.171   2.891
49552W        W21878  39.976  14.103  11.488
49553W        W21879  15.762   5.846  13.834
49554W        W21880  16.286  26.531   4.715
49555W        W21881  30.494  26.075  12.397
49556W        W21882  17.616  40.977   0.747
49557W        W21883   9.203  42.987   4.692
49558W        W21884  37.078  38.054  11.542
49559W        W21885  15.214  30.970   2.219
49560W        W21886  33.432  32.620  11.967
49561W        W21887  15.599  21.029   0.385
49562W        W21888  33.539  34.390  11.406
49563W        W21889  16.080  39.830   4.157
49564W        W21890  19.081  32.057   0.277
49565W        W21891  26.687  27.012   0.407
49566W        W21892  16.313  39.425   0.290
49567W        W21893   8.202  42.427  14.827
49568W        W21894  18.735   8.719   0.444
49569W        W21895  23.643  20.694   4.731
49570W        W21896  21.253  37.881   2.846
49571W        W21897  32.559  30.994   3.681
49572W        W21898  37.529   5.814   4.244
49573W        W21899  24.124  14.232  10.565
49574W        W21900  41.399  44.461   4.687
49575W        W21901  38.883  22.139   2.263
49576W        W21902  33.035  21.157  12.950
49577W        W21903   9.856   9.690   4.733
49578W        W21904  14.272  18.658   5.278
49579W        W21905  20.549  14.753  10.887
49580W        W21906   7.191  41.922   1.719
49581W        W21907   0.773  16.725   4.122
49582W        W21908  34.957  14.637   4.324
49583W        W21909  34.973   5.746  13.831
49584W        W21910  21.546  19.604   0.384
49585W        W21911  17.234  32.917   4.184
49586W        W21912  21.064   7.854   2.866
49587W        W21913  12.675  41.989   1.386
49588W        W21914  13.699  40.921   4.311
49589W        W21915  44.505   6.354   5.209
49590W        W21916   0.764  39.328   4.651
49591W        W21917   9.714  21.673  13.534
49592W        W21918  23.130   7.220   3.750
49593W        W21919   0.939   5.743  14.867
49594W        W21920   3.907   5.306   3.273
49595W        W21921  26.635  17.070   0.930
49596W        W21922  18.649  21.620   4.329
49597W        W21923  32.130  25.177   1.283
49598W        W21924  41.513  35.025   2.267
49599W        W21925  20.693  30.028   3.702
49600W        W21926  26.703  40.435   5.167
49601W        W21927  17.105  16.691  11.116
49602W        W21928  25.566   6.334   0.413
49603W        W21929  37.364  38.847   3.677
49604W        W21930  25.516  10.728  12.939
49605W        W21931  43.457   9.821  13.427
49606W        W21932   2.417  26.529   2.386
49607W        W21933   5.731  29.156  14.413
49608W        W21934   2.335   3.943   1.256
49609W        W21935  22.198  21.606  12.070
49610W        W21936  17.288  10.324  10.594
49611W        W21937  41.489  35.086   2.822
49612W        W21938   8.253  44.879  14.298
49613W        W21939  35.384   1.398  14.907
49614W        W21940  38.488  22.116   4.346
49615W        W21941   8.214  41.430   0.399
49616W        W21942  22.530  10.311   2.694
49617W        W21943  12.777  28.490  14.373
49618W        W21944  44.478  38.403   5.200
49619W        W21945   6.426  40.921   3.201
49620W        W21946  28.164  32.493   0.759
49621W        W21947  32.129  15.291   1.435
49622W        W21948  27.451  21.669  13.425
49623W        W21949  42.864  24.678   2.382
49624W        W21950  15.622  28.033  11.983
49625W        W21951   9.650   8.739   4.693
49626W        W21952  43.421  27.967  12.458
49627W        W21953  24.585  22.606   2.358
49628W        W21954  11.305  37.383  13.338
49629W        W21955  41.860  33.060   1.824
49630W        W21956  40.854  23.547   0.751
49631W        W21957  37.843   2.408   0.856
49632W        W21958  31.078  26.160   3.745
49633W        W21959   9.227  21.086   9.929
49634W        W21960  26.113  23.018  11.580
49635W        W21961   9.662  10.637   4.141
49636W        W21962  22.656  30.621  13.866
49637W        W21963  30.432  10.811  11.520
49638W        W21964  14.324  42.977  13.544
49639W        W21965  29.452   6.749  11.942
49640W        W21966   8.743  17.177   2.393
49641W        W21967  41.908  10.671   1.317
49642W        W21968  29.035   6.219   1.442
49643W        W21969  26.193  20.244  13.350
49644W        W21970  37.336   2.353  11.464
49645W        W21971  42.405  43.972   0.797
49646W        W21972   1.327  13.156   3.734
49647W        W21973  15.718  16.151  10.936
49648W        W21974  11.785  19.599  13.899
49649W        W21975  25.193  10.304  12.482
49650W        W21976  37.055   1.358   4.766
49651W        W21977  39.000   9.325   0.862
49652W        W21978  42.486   7.746  14.494
49653W        W21979  41.860  35.014  11.371
49654W        W21980  38.412   7.227   4.751
49655W        W21981  11.817   5.279  12.380
49656W        W21982  37.525  31.083  13.927
49657W        W21983  32.896  14.628  11.127
49658W        W21984   7.407  26.540   0.259
49659W        W21985   2.795   6.823   2.707
49660W        W21986  38.007  33.537   4.827
49661W        W21987  21.532  13.642  11.915
49662W        W21988  11.275  15.174  13.495
49663W        W21989  17.794   0.428  12.384
49664W        W21990  29.129  32.600   3.225
49665W        W21991  28.622  25.107  10.041
49666W        W21992  12.828  24.218   1.232
49667W        W21993  11.792  35.007   2.744
49668W        W21994   2.323  14.110  13.308
49669W        W21995  19.542   3.275  12.042
49670W        W21996  14.266  10.141   0.371
49671W        W21997  34.061   4.389  13.388
49672W        W21998  26.043  34.065   1.931
49673W        W21999  20.140  19.105   1.733
49674W        W22000  15.319  16.264   3.848
49675W        W22001   2.236  39.996   0.895
49676W        W22002  14.814   9.164   4.132
49677W        W22003  17.615   4.833  13.480
49678W        W22004   2.872   7.415   2.313
49679W        W22005  37.858  38.029  10.891
49680W        W22006  44.502  32.944   3.781
49681W        W22007  18.754  16.109   2.370
49682W        W22008  43.791  31.534  13.860
49683W        W22009  28.651  20.108   3.813
49684W        W22010  11.699   0.962  14.894
49685W        W22011  23.026   6.223  13.810
49686W        W22012  22.667  11.290   3.205
49687W        W22013  25.582   8.747  14.338
49688W        W22014  38.553  10.797   4.334
49689W        W22015  20.675  25.094  11.067
49690W        W22016  10.372  25.611  14.975
49691W        W22017  29.614  24.639   1.362
49692W        W22018   7.244  30.563  13.373
49693W        W22019  36.065  20.074  12.015
49694W        W22020   9.683   3.305   4.218
49695W        W22021  15.817  27.602  13.890
49696W        W22022   9.858  30.030  11.546
49697W        W22023  44.830  26.162  13.929
49698W        W22024  29.609  22.505   0.954
49699W        W22025  43.974  18.097   0.897
49700W        W22026  25.669   7.760   2.396
49701W        W22027   5.418  31.596  11.547
49702W        W22028  32.415  35.490   4.609
49703W        W22029  25.984  14.256  13.533
49704W        W22030  35.880  42.996  12.580
49705W        W22031   9.220   4.845  10.981
49706W        W22032   8.226  25.040   0.306
49707W        W22033  10.868  34.966  13.386
49708W        W22034  16.188  28.044   2.889
49709W        W22035  38.046  12.650   5.779
49710W        W22036   3.357  11.752   5.101
49711W        W22037  16.580  32.589   1.358
49712W        W22038   5.319  17.108  12.558
49713W        W22039  42.399  18.779  11.050
49714W        W22040  20.552  27.111   3.207
49715W        W22041  25.196  18.663   4.696
49716W        W22042  28.134  17.736   4.700
49717W        W22043  42.500   3.893   3.725
49718W        W22044  43.273  22.589   1.929
49719W        W22045  27.549  20.640  13.485
49720W        W22046  43.769   4.260  11.464
49721W        W22047  12.709   4.913  14.366
49722W        W22048  26.476   3.380  11.608
49723W        W22049  24.073  14.834   1.306
49724W        W22050  12.280   5.752  14.311
49725W        W22051  11.814  41.445  13.496
49726W        W22052  10.739  42.924   0.900
49727W        W22053  32.447  10.720  13.478
49728W        W22054  23.720   4.379   3.796
49729W        W22055  15.808  40.354   1.813
49730W        W22056  42.447  44.426  12.912
49731W        W22057  27.487   8.789  10.547
49732W        W22058  32.453  15.083   2.680
49733W        W22059  11.177  14.202   0.443
49734W        W22060  44.997  44.979   2.307
49735W        W22061  22.637  12.634   5.126
49736W        W22062  11.169  31.429  13.446
49737W        W22063  13.293   9.661   0.820
49738W        W22064  29.007  44.275   0.446
49739W        W22065  44.446  34.496  11.586
49740W        W22066  35.922  19.534   0.742
49741W        W22067  42.893   2.247  11.491
49742W        W22068  27.658  36.875  14.945
49743W        W22069  19.242  20.588   4.751
49744W        W22070  28.441  28.453  14.944
49745W        W22071  21.204  13.178   0.367
49746W        W22072   9.236   0.306   4.695
49747W        W22073  22.724   7.869   0.345
49748W        W22074  29.552  34.502   4.671
49749W        W22075  16.253   0.745   1.287
49750W        W22076  26.479  30.568  11.567
49751W        W22077  28.183  42.961   0.459
49752W        W22078  43.487   1.260  13.816
49753W        W22079  43.400  20.251   2.747
49754W        W22080   2.950  12.781  11.557
49755W        W22081  12.659  32.109  14.857
49756W        W22082  17.658  30.430   0.921
49757W        W22083  19.770   5.768   9.979
49758W        W22084  42.955  41.834  12.563
49759W        W22085   2.385   2.776  12.347
49760W        W22086  18.100  18.660   3.169
49761W        W22087  29.918  27.638   4.737
49762W        W22088  16.657  12.676  14.356
49763W        W22089   8.860  14.627  10.932
49764W        W22090   3.760  11.799   4.146
49765W        W22091  38.999  17.067   3.153
49766W        W22092  28.955  13.130   4.838
49767W        W22093  40.538   8.309   2.880
49768W        W22094  27.157  40.525  10.589
49769W        W22095  36.946  20.744  12.894
49770W        W22096  40.357  27.094   3.855
49771W        W22097  41.426   8.336   3.717
49772W        W22098   1.342  12.821  13.922
49773W        W22099  34.081  21.221   3.683
49774W        W22100  26.485  37.560  10.495
49775W        W22101  40.391   0.273   5.110
49776W        W22102   5.292  27.535  10.529
49777W        W22103   8.731   6.411   4.162
49778W        W22104  31.604  41.814  11.915
49779W        W22105  14.705  34.585   1.925
49780W        W22106  29.602  17.556   3.369
49781W        W22107  35.552  35.029  11.910
49782W        W22108   4.718  35.427   4.214
49783W        W22109  11.696  15.579  11.061
49784W        W22110  41.296  36.485  12.865
49785W        W22111   1.280   8.269   0.295
49786W        W22112   8.176   6.741  13.029
49787W        W22113   4.206   0.899  13.058
49788W        W22114  44.351  24.636   2.367
49789W        W22115  22.016  10.737   3.180
49790W        W22116  29.977  42.939   3.794
49791W        W22117   2.956   4.366   4.830
49792W        W22118  13.706  34.934   0.958
49793W        W22119   0.376  39.526  14.813
49794W        W22120  32.590  32.913  11.933
49795W        W22121   8.296  10.376  10.419
49796W        W22122  13.150  21.522   3.836
49797W        W22123  37.358  14.784   2.669
49798W        W22124  14.254  30.158  10.520
49799W        W22125  12.680  25.196  11.506
49800W        W22126  24.113  34.918  12.411
49801W        W22127  34.455  26.525   1.429
49802W        W22128  40.811  22.148  14.446
49803W        W22129  29.113  17.089  14.819
49804W        W22130  18.258   9.381   1.420
49805W        W22131  11.313  36.555   4.277
49806W        W22132  14.812  24.619   1.415
49807W        W22133  11.801   9.793  13.384
49808W        W22134   1.476   3.887   5.603
49809W        W22135  15.665  12.209   2.829
49810W        W22136  22.069   5.338   0.318
49811W        W22137  24.592  33.409  14.004
49812W        W22138  10.313  19.236   2.379
49813W        W22139  43.930  18.256   3.813
49814W        W22140   2.231  44.390  10.074
49815W        W22141  37.351  39.868  14.947
49816W        W22142  23.153  25.041   2.316
49817W        W22143  27.670   2.402  12.898
49818W        W22144  44.816  37.992   0.357
49819W        W22145  43.003  12.812  12.400
49820W        W22146   0.486  19.732   3.376
49821W        W22147  13.266  39.832   1.310
49822W        W22148   9.202  19.133  11.446
49823W        W22149  16.127  25.632   0.280
49824W        W22150  32.941  14.712  13.954
49825W        W22151  42.877   8.200  10.618
49826W        W22152  21.580  23.666   0.353
49827W        W22153   5.756  24.488  13.920
49828W        W22154  22.060  34.018  12.879
49829W        W22155  32.913  33.548   2.278
49830W        W22156  19.646   7.763   0.320
49831W        W22157  42.293  35.553  13.843
49832W        W22158  32.487   0.414  10.971
49833W        W22159  24.673  44.771   2.725
49834W        W22160  28.079   3.875   3.174
49835W        W22161  19.138   1.385  12.874
49836W        W22162  17.733  18.190   1.443
49837W        W22163  37.842  13.152  10.603
49838W        W22164  27.679  25.002   4.248
49839W        W22165  31.487  13.693  13.809
49840W        W22166  21.128   5.694   3.178
49841W        W22167  36.893  17.238  13.377
49842W        W22168   7.777  13.323   0.923
49843W        W22169  21.166  37.045   0.448
49844W        W22170   8.395   2.368   4.137
49845W        W22171  27.003  13.744   2.281
49846W        W22172  15.630  32.031  14.912
49847W        W22173  31.537  29.469   3.185
49848W        W22174  22.656  17.584  14.296
49849W        W22175   1.786  30.642  14.850
49850W        W22176   8.212  39.513   0.827
49851W        W22177   2.740  40.974  12.534
49852W        W22178  28.681  25.147  11.414
49853W        W22179  32.995   6.389  12.944
49854W        W22180  22.686  31.010   1.723
49855W        W22181  21.624  19.547   4.781
49856W        W22182  43.384  37.481   2.709
49857W        W22183  11.666   6.710  12.020
49858W        W22184  43.961   0.773   1.451
49859W        W22185   6.257  41.422   1.699
49860W        W22186   9.854  16.293  11.068
49861W        W22187  40.430  38.851  13.057
49862W        W22188  24.139  38.060   2.820
49863W        W22189  44.866  33.956   3.159
49864W        W22190  20.654  37.409  11.055
49865W        W22191  36.353  30.928  10.586
49866W        W22192  36.369  34.054   3.646
49867W        W22193  18.637  28.978   4.779
49868W        W22194  44.007  19.202   0.842
49869W        W22195   3.748  28.461  11.471
49870W        W22196  21.020  18.280   1.211
49871W        W22197   8.867  15.667   1.714
49872W        W22198  39.853  35.887  10.988
49873W        W22199  30.052  36.380   4.329
49874W        W22200  16.153  27.171   3.326
49875W        W22201  40.819  26.054   1.399
49876W        W22202  11.756  38.932   1.292
49877W        W22203  42.993  38.414   3.247
49878W        W22204  33.898   7.761  11.046
49879W        W22205  39.844   1.442  11.005
49880W        W22206  29.972  34.382   0.796
49881W        W22207  17.271  19.264  12.060
49882W        W22208  10.318  10.729  10.931
49883W        W22209  37.532  12.119  13.330
49884W        W22210  34.912  21.725   2.233
49885W        W22211   8.853  40.437   4.745
49886W        W22212   4.922  41.530   4.197
49887W        W22213  34.091  44.863   4.714
49888W        W22214   4.255   7.224  11.010
49889W        W22215  21.080   8.759  10.453
49890W        W22216  32.086  40.367   4.332
49891W        W22217  37.075  36.946   2.347
49892W        W22218  11.331  33.938   4.310
49893W        W22219  26.026  35.536  10.562
49894W        W22220  36.489  14.711  13.812
49895W        W22221  18.714   6.798   1.332
49896W        W22222   6.881  37.411   3.172
49897W        W22223  18.726  25.546  10.920
49898W        W22224  11.677  25.665  14.296
49899W        W22225   4.363  17.106   3.307
49900W        W22226  44.357  20.123   5.208
49901W        W22227   8.345  39.378  13.495
49902W        W22228  20.664  40.431  10.478
49903W        W22229  16.676   4.205  13.489
49904W        W22230   9.815  40.904   1.235
49905W        W22231  24.709  29.631  11.023
49906W        W22232  24.609  23.164  14.770
49907W        W22233  30.419   3.723  14.833
49908W        W22234  30.443  17.307   1.255
49909W        W22235  20.064   1.820   0.903
49910W        W22236  43.365   8.677  13.917
49911W        W22237  17.736  43.800   3.226
49912W        W22238   5.285  25.576   1.805
49913W        W22239  18.684  31.008   0.333
49914W        W22240  25.477  28.483   1.895
49915W        W22241  35.891  29.948   3.361
49916W        W22242  21.166  38.360  11.868
49917W        W22243  39.318  33.996  10.986
49918W        W22244  33.542  42.027  12.913
49919W        W22245  22.512   4.289  12.577
49920W        W22246  27.481  28.521  12.359
49921W        W22247   6.401  39.026   3.796
49922W        W22248  31.568  36.984  11.393
49923W        W22249  26.543  32.928   1.404
49924W        W22250  38.977   6.401  10.532
49925W        W22251  39.033  36.413   2.229
49926W        W22252   4.284  28.181  12.944
49927W        W22253  13.134   6.705   2.725
49928W        W22254  15.286   2.912   4.720
49929W        W22255   9.756   2.822   1.846
49930W        W22256  11.696  32.558   2.772
49931W        W22257   9.846  10.173   0.793
49932W        W22258  39.536  31.553   2.410
49933W        W22259  15.091  29.983  14.467
49934W        W22260   6.883  24.610   0.895
49935W        W22261  33.624  28.512   1.395
49936W        W22262  20.200  23.156   4.707
49937W        W22263  12.168  17.093  13.399
49938W        W22264  32.962  20.544   1.933
49939W        W22265  31.495  12.164   4.239
49940W        W22266  26.498  44.419  14.819
49941W        W22267  14.226  34.554  13.438
49942W        W22268  26.147  29.621  10.438
49943W        W22269  20.063  22.547   4.606
49944W        W22270  13.671  38.412   1.303
49945W        W22271  41.922   9.687   4.714
49946W        W22272  22.538  12.824   1.288
49947W        W22273   2.283  42.991   0.377
49948W        W22274  18.184  10.289  12.351
49949W        W22275   0.941  14.331   0.828
49950W        W22276  33.380   0.849  13.543
49951W        W22277  35.411  16.223  13.990
49952W        W22278  24.519  34.370   3.799
49953W        W22279  31.535   5.245   0.393
49954W        W22280  11.326  29.142  14.402
49955W        W22281  10.798  30.444  12.357
49956W        W22282  41.032  35.432   1.323
49957W        W22283  30.956  24.724   4.732
49958W        W22284  30.944  30.481   2.852
49959W        W22285  37.424  17.710  14.394
49960W        W22286   3.925   3.836   2.410
49961W        W22287  41.343  37.386   1.709
49962W        W22288  14.759  17.685   3.280
49963W        W22289  34.396  16.090   1.897
49964W        W22290  22.544  26.563  13.028
49965W        W22291  18.768   7.766  10.928
49966W        W22292  24.140  27.508   4.131
49967W        W22293   4.859   0.814   5.263
49968W        W22294  19.693  31.130  13.932
49969W        W22295  10.817  41.914   3.806
49970W        W22296  44.949  32.910  10.490
49971W        W22297  25.118  26.047   2.886
49972W        W22298  26.492  21.709  13.905
49973W        W22299  17.678  16.123   3.732
49974W        W22300  13.165  31.540  14.454
49975W        W22301  34.483  16.697   1.737
49976W        W22302  36.979  32.991   0.876
49977W        W22303   2.451   6.274   3.784
49978W        W22304  25.188  42.006  12.414
49979W        W22305  33.531  19.746  14.809
49980W        W22306  22.625  16.170   4.612
49981W        W22307  19.048  17.192  10.449
49982W        W22308  17.169  11.662  13.457
49983W        W22309  28.930  37.460  13.920
49984W        W22310   1.963  26.099  12.043
49985W        W22311  28.126   2.762   3.346
49986W        W22312  36.411  29.935  13.050
49987W        W22313  28.666  24.543  13.450
49988W        W22314   3.421   9.223   0.293
49989W        W22315  34.044  31.577  11.943
49990W        W22316  30.635   0.951  11.990
49991W        W22317  10.354  26.506  10.954
49992W        W22318   9.814  30.458  13.396
49993W        W22319  38.556  25.702   2.875
49994W        W22320  16.698   9.365   0.326
49995W        W22321  35.988  33.923  10.065
49996W        W22322  17.220  39.554   1.288
49997W        W22323  23.086  30.089  11.427
49998W        W22324  39.478  12.212  10.932
49999W        W22325  33.417  40.521   2.327
50000W        W22326   3.937   9.851   9.484
50001W        W22327  34.375  42.285  12.092
50002W        W22328  40.524  37.359  13.913
50003W        W22329  36.445   2.310   0.319
50004W        W22330  21.621  43.881  13.507
50005W        W22331  44.879   0.473  14.003
50006W        W22332  14.191  17.119   0.967
50007W        W22333  32.522  29.151  12.063
50008W        W22334  34.902  18.676   4.709
50009W        W22335  40.400   2.866  13.334
50010W        W22336  42.866   6.309   1.326
50011W        W22337  42.033  17.134  13.878
50012W        W22338  23.052  23.041  12.834
50013W        W22339  35.861  40.543  13.543
50014W        W22340  42.025   7.912   3.179
50015W        W22341  25.983  29.613  14.819
50016W        W22342   6.880  15.641  10.970
50017W        W22343  39.850  35.050   3.279
50018W        W22344  37.476  12.248  11.461
50019W        W22345  40.924   8.270  11.442
50020W        W22346  41.385  34.557  13.794
50021W        W22347  21.176  23.666  13.416
50022W        W22348  11.326  24.196   3.180
50023W        W22349  12.792  30.117  13.385
50024W        W22350  11.259  29.545   2.877
50025W        W22351  30.646  12.122  11.937
50026W        W22352   4.934  10.196  12.068
50027W        W22353  18.196  35.076  11.968
50028W        W22354  15.736   6.912  12.045
50029W        W22355  23.736  39.534  10.909
50030W        W22356  35.916   9.346   1.785
50031W        W22357  40.903  26.077  14.001
50032W        W22358  21.100  20.595  11.991
50033W        W22359  10.709  28.177  10.547
50034W        W22360  40.050  42.950   0.938
50035W        W22361  17.708  24.560   2.374
50036W        W22362   9.344  12.829  14.851
50037W        W22363  11.770  19.067   2.809
50038W        W22364  17.658  23.720  13.473
50039W        W22365  30.924  33.541  12.021
50040W        W22366  21.729   8.218  10.415
50041W        W22367   7.702   0.919  13.059
50042W        W22368  30.004  13.112  13.991
50043W        W22369  24.991  37.346  12.954
50044W        W22370  34.525  33.524   5.581
50045W        W22371  25.190  12.842  13.995
50046W        W22372  42.926  16.692  12.492
50047W        W22373  20.712   9.239  14.365
50048W        W22374   0.959  34.019   4.608
50049W        W22375   6.204   2.360  12.439
50050W        W22376  43.482   0.374   4.186
50051W        W22377  25.474  29.515   0.328
50052W        W22378  24.630   7.257   1.350
50053W        W22379  27.576  20.081  11.076
50054W        W22380  29.157  42.350  13.364
50055W        W22381  19.749  16.299   1.716
50056W        W22382  21.711  11.249  10.965
50057W        W22383  29.038  42.368   0.428
50058W        W22384  37.521  43.923  11.386
50059W        W22385  16.640  14.310  12.893
50060W        W22386  20.741   6.330  10.618
50061W        W22387  12.315  17.771   3.181
50062W        W22388  30.962  10.216  14.004
50063W        W22389  18.122  40.939  11.126
50064W        W22390  37.890   6.764   3.718
50065W        W22391  34.537  14.233  12.076
50066W        W22392  21.018  40.012  10.418
50067W        W22393   8.807  12.136   4.277
50068W        W22394   1.956  11.355  13.367
50069W        W22395   0.319  42.348   0.890
50070W        W22396  24.661  24.529   4.353
50071W        W22397   6.725  27.972  10.566
50072W        W22398  39.525  27.604  14.472
50073W        W22399  23.535  11.274  10.521
50074W        W22400  17.253  40.991   2.683
50075W        W22401  12.226   8.373   4.319
50076W        W22402  20.167  41.532  10.146
50077W        W22403  16.175  28.632  14.457
50078W        W22404  25.472  10.712  10.439
50079W        W22405  18.065  20.143   0.951
50080W        W22406  39.924  42.831   3.383
50081W        W22407   8.764  25.498   4.334
50082W        W22408  35.397  16.115   3.737
50083W        W22409   9.327  20.615  14.278
50084W        W22410  26.979   0.431   4.186
50085W        W22411   4.917  11.663  13.461
50086W        W22412   2.751   9.304   4.245
50087W        W22413  15.243   9.303   0.267
50088W        W22414  23.080   2.796  14.368
50089W        W22415  19.736  15.228  11.406
50090W        W22416  11.693  18.737   0.268
50091W        W22417  16.286  29.559   0.334
50092W        W22418   4.355  38.381  12.538
50093W        W22419  11.128  34.406   2.395
50094W        W22420  26.482  37.438   2.266
50095W        W22421  44.314  13.277   0.919
50096W        W22422  25.022  41.009  10.889
50097W        W22423  21.528  30.131  10.505
50098W        W22424   0.888  23.993  13.862
50099W        W22425  14.770  23.048   2.721
50100W        W22426  22.646  25.966  11.071
50101W        W22427   2.382   8.185  13.383
50102W        W22428   4.264   1.326   1.695
50103W        W22429   5.310   9.784   2.375
50104W        W22430  43.277  17.619  11.594
50105W        W22431  33.020  12.742  10.986
50106W        W22432  13.322  37.354  11.431
50107W        W22433  24.082  26.080  11.116
50108W        W22434  29.532  19.191   2.322
50109W        W22435  33.032  19.755  11.061
50110W        W22436  13.613  41.366  14.345
50111W        W22437  44.862  39.558  14.909
50112W        W22438  31.591  39.500  11.486
50113W        W22439   1.857  23.501  11.462
50114W        W22440  34.548  30.099   2.253
50115W        W22441  21.662  22.515  12.865
50116W        W22442  15.698  13.108  10.609
50117W        W22443  14.106  13.830  14.885
50118W        W22444  15.084  22.174  14.322
50119W        W22445  36.420  34.405   2.222
50120W        W22446  16.192  34.525  10.615
50121W        W22447  24.087  33.057   4.196
50122W        W22448  43.915  41.362   1.891
50123W        W22449  36.392  40.922   2.253
50124W        W22450  10.164   7.816   2.887
50125W        W22451  41.949   8.405   4.262
50126W        W22452  42.896  39.557  14.930
50127W        W22453   2.967   2.931   1.314
50128W        W22454  26.202  34.019  12.375
50129W        W22455  19.541  23.615  14.894
50130W        W22456  16.312  38.048  11.880
50131W        W22457  42.360  39.040  14.489
50132W        W22458  27.615  31.007  13.382
50133W        W22459  24.009  38.828  14.827
50134W        W22460  42.305  24.105   2.856
50135W        W22461  40.477  12.165  12.010
50136W        W22462  23.202   0.486   3.847
50137W        W22463  40.426  28.493   4.315
50138W        W22464  20.635  38.451   2.689
50139W        W22465  33.937  11.718  13.529
50140W        W22466  11.302   7.183   2.775
50141W        W22467  34.556  35.488   5.142
50142W        W22468  36.083  31.482   3.319
50143W        W22469  40.304  32.942   4.608
50144W        W22470  42.950  31.096   1.428
50145W        W22471  39.550  31.126   2.723
50146W        W22472   9.861  28.944  11.945
50147W        W22473  31.910  36.937  11.607
50148W        W22474   5.265  30.619  11.431
50149W        W22475  15.588  44.293   0.468
50150W        W22476  39.872  23.095  11.450
50151W        W22477  27.063  32.013  14.490
50152W        W22478  12.829  39.498  11.559
50153W        W22479  39.393   4.737   4.291
50154W        W22480  41.981  30.610  10.482
50155W        W22481   4.321  12.329  11.385
50156W        W22482  43.373   4.330   4.835
50157W        W22483   9.304  32.090   1.361
50158W        W22484  12.144   2.236  14.433
50159W        W22485  15.640   1.405  10.908
50160W        W22486   9.713  14.246   0.389
50161W        W22487  12.756  37.564  13.398
50162W        W22488  31.920  18.272  12.375
50163W        W22489  41.314  28.680   1.316
50164W        W22490  43.790  42.804   0.782
50165W        W22491  12.339  26.618  12.854
50166W        W22492   8.673   8.219  11.536
50167W        W22493  36.348  20.673   2.805
50168W        W22494  15.175  23.028   4.341
50169W        W22495  29.993  15.735   0.280
50170W        W22496  14.763  29.638   2.830
50171W        W22497  31.083  44.962  12.993
50172W        W22498  40.925  29.613  14.810
50173W        W22499   7.334  40.351   4.737
50174W        W22500  31.621   4.866   0.841
50175W        W22501  43.513  24.029  14.342
50176W        W22502  12.325   6.209   2.887
50177W        W22503  14.688  31.562   0.807
50178W        W22504  44.406  31.403  11.584
50179W        W22505  26.154   5.293  14.495
50180W        W22506   8.730   2.899   0.438
50181W        W22507  22.500  22.246  14.430
50182W        W22508   7.197   7.796   0.791
50183W        W22509   4.422  33.061  12.021
50184W        W22510   1.764  36.397   3.349
50185W        W22511   4.891  17.582   2.785
50186W        W22512   3.710  28.040  10.599
50187W        W22513  24.177   6.389   5.187
50188W        W22514  16.253  32.956  14.972
50189W        W22515  23.497  19.095  14.864
50190W        W22516   0.838  31.001   1.367
50191W        W22517   1.779  19.661   3.743
50192W        W22518   3.437  31.467   4.785
50193W        W22519  26.681  38.354  12.011
50194W        W22520  33.991  23.492  10.982
50195W        W22521  22.698  21.633  12.873
50196W        W22522  23.502  25.611   2.370
50197W        W22523  33.416  26.123   3.857
50198W        W22524  32.513  30.938   2.343
50199W        W22525  29.551  27.536   0.882
50200W        W22526  30.160  31.078  14.839
50201W        W22527  15.690  32.904   0.824
50202W        W22528  16.642   8.699  10.412
50203W        W22529  24.012   3.286  11.560
50204W        W22530  11.660  25.638  10.600
50205W        W22531  18.683  21.723   0.807
50206W        W22532  39.432  30.632   4.815
50207W        W22533   4.708  10.868  11.939
50208W        W22534  22.699  24.499   4.818
50209W        W22535  22.725   7.245  10.919
50210W        W22536   6.903  33.000   1.325
50211W        W22537   1.328   2.268  12.373
50212W        W22538  21.643  41.489   2.734
50213W        W22539   9.851  11.717  13.971
50214W        W22540  35.368  44.359   1.244
50215W        W22541  29.651  18.739   4.673
50216W        W22542  17.694  23.066   2.411
50217W        W22543  21.582  21.107   3.311
50218W        W22544  21.592  29.668   1.813
50219W        W22545  26.060  11.810   4.235
50220W        W22546  24.160   7.755  13.814
50221W        W22547  41.926  29.518   0.441
50222W        W22548  28.475  40.516  13.381
50223W        W22549   8.292  37.049   1.380
50224W        W22550  27.460  17.595  12.035
50225W        W22551  18.181   0.413   4.237
50226W        W22552  21.188  11.318  10.570
50227W        W22553  17.621  14.742  12.824
50228W        W22554   7.185  22.023  14.872
50229W        W22555  16.142   7.305   0.863
50230W        W22556  11.258   2.441   4.786
50231W        W22557   4.239  17.290   0.785
50232W        W22558  30.543   9.884  13.533
50233W        W22559  40.995  36.955  12.489
50234W        W22560   3.428  24.538   4.339
50235W        W22561  35.946  41.527   1.318
50236W        W22562   6.228   0.437  14.369
50237W        W22563  38.878  44.317  11.919
50238W        W22564  14.729  20.719   0.853
50239W        W22565  37.894  21.106  13.485
50240W        W22566  37.837  26.561  12.540
50241W        W22567  18.756   8.876   5.088
50242W        W22568   3.224   3.396   0.387
50243W        W22569  27.008  38.895   0.388
50244W        W22570  39.546  13.316   4.662
50245W        W22571   1.863  38.418  12.438
50246W        W22572  12.222  29.076  13.994
50247W        W22573   0.776  13.831   0.956
50248W        W22574  19.261  32.506  10.946
50249W        W22575  20.615  33.413   3.220
50250W        W22576  27.587   4.208  13.450
50251W        W22577   3.374  41.861  11.389
50252W        W22578   5.331  21.056  11.049
50253W        W22579  37.902   5.695  10.956
50254W        W22580  39.873   2.471   1.909
50255W        W22581  15.689  28.133   4.296
50256W        W22582  22.235   9.695   4.328
50257W        W22583  39.381  31.444   0.731
50258W        W22584  26.055  34.519   1.706
50259W        W22585  43.774   5.402   1.862
50260W        W22586  11.285  42.458   3.752
50261W        W22587  16.088  32.963   4.325
50262W        W22588  40.041  16.090  13.998
50263W        W22589  10.169   9.259   1.237
50264W        W22590   6.775  41.928   1.805
50265W        W22591   4.706  42.004  13.913
50266W        W22592  30.073  25.667  10.998
50267W        W22593  38.382  23.562   1.351
50268W        W22594  16.119   8.193  12.428
50269W        W22595  43.369   0.878  10.562
50270W        W22596  22.135  26.619  14.449
50271W        W22597  29.118   6.739   3.239
50272W        W22598  42.943   9.791  14.457
50273W        W22599  11.329   7.382  14.293
50274W        W22600  34.479  36.457  10.100
50275W        W22601  22.677   6.751   3.365
50276W        W22602  24.495  29.137  12.840
50277W        W22603  14.297  34.491  14.880
50278W        W22604  21.539   5.853  13.917
50279W        W22605  19.563  13.710  11.431
50280W        W22606   7.408  18.063   1.429
50281W        W22607  25.041  28.484   2.264
50282W        W22608  26.627  28.172  10.016
50283W        W22609  44.969   3.264  14.990
50284W        W22610  27.161  26.602   5.259
50285W        W22611  32.529  29.603  11.894
50286W        W22612  35.490  19.558  11.000
50287W        W22613  41.007   7.673  11.081
50288W        W22614   4.397  24.613   0.458
50289W        W22615  12.209  31.487   1.697
50290W        W22616  26.493   8.320  13.404
50291W        W22617  20.039  30.643   2.238
50292W        W22618  24.156  17.131  14.338
50293W        W22619  14.155   3.284   4.733
50294W        W22620  33.520  22.176  13.307
50295W        W22621  14.769  26.476   9.948
50296W        W22622  42.989  21.632  13.059
50297W        W22623   4.872  32.516   3.865
50298W        W22624  12.667  21.526   1.908
50299W        W22625  28.524  11.736  14.919
50300W        W22626   5.350  22.554  11.926
50301W        W22627  12.746  23.239  13.959
50302W        W22628  43.901  25.208  10.509
50303W        W22629  42.368   3.394   0.383
50304W        W22630  31.496  35.392   0.378
50305W        W22631   7.267  35.921  11.083
50306W        W22632  13.661   8.277  11.596
50307W        W22633  43.903  33.593  13.909
50308W        W22634  19.546   2.880   4.831
50309W        W22635  19.616   2.920  11.078
50310W        W22636  12.328  24.708  10.403
50311W        W22637   3.944  17.721  13.824
50312W        W22638  40.912   1.372  14.029
50313W        W22639   4.343  15.702   1.262
50314W        W22640   8.204  21.156  14.981
50315W        W22641  44.332  10.208   2.394
50316W        W22642  37.482  34.396  10.086
50317W        W22643  20.136  12.720   0.765
50318W        W22644   0.283   1.771  13.489
50319W        W22645  39.037  31.147  12.429
50320W        W22646   0.862  23.521  13.876
50321W        W22647  31.073  36.580   3.722
50322W        W22648  23.609  29.501  11.023
50323W        W22649  44.883  35.950   0.884
50324W        W22650  24.692  27.504  10.448
50325W        W22651  13.682  27.149  14.499
50326W        W22652  22.733  19.249   4.135
50327W        W22653  39.332  41.295   3.668
50328W        W22654  23.594  32.977   3.830
50329W        W22655  21.712  12.706  11.536
50330W        W22656  28.615  25.035   1.351
50331W        W22657  28.526  32.454   1.331
50332W        W22658   3.257  21.225   4.715
50333W        W22659   2.916   7.347  13.334
50334W        W22660  42.330  44.345   4.687
50335W        W22661  17.227  38.448  12.858
50336W        W22662  27.970  17.259   5.137
50337W        W22663  36.088  23.734   4.618
50338W        W22664   1.948  31.916   1.418
50339W        W22665  39.851  37.513   0.755
50340W        W22666  30.078  32.136   3.185
50341W        W22667  32.073   2.763   2.774
50342W        W22668   6.882  21.521   3.256
50343W        W22669  24.973  33.114   3.230
50344W        W22670   4.257  24.596  10.934
50345W        W22671  11.205  24.020  14.885
50346W        W22672  43.361   8.225   2.417
50347W        W22673   6.372  23.101  12.496
50348W        W22674  44.285  36.002  10.981
50349W        W22675  10.144  42.457   1.923
50350W        W22676  21.715  43.290   1.709
50351W        W22677  39.851  26.674   1.722
50352W        W22678  29.009  28.180   5.204
50353W        W22679  20.553  39.932  11.907
50354W        W22680  30.157  10.305   5.289
50355W        W22681   0.922  37.397  13.453
50356W        W22682  24.603   4.240  12.553
50357W        W22683   4.264  31.414   2.722
50358W        W22684  15.821  43.915  11.464
50359W        W22685  39.329   7.911   4.598
50360W        W22686  27.177  10.712  11.885
50361W        W22687   5.787  19.628  11.428
50362W        W22688  42.370  16.771  13.405
50363W        W22689  12.814   2.817   4.795
50364W        W22690  44.413  33.528  12.078
50365W        W22691  13.692  16.618  12.390
50366W        W22692  29.057  12.130   3.634
50367W        W22693   7.840  16.218   1.863
50368W        W22694  21.581   3.779  12.408
50369W        W22695  43.301  26.171  11.501
50370W        W22696  39.991   6.410   3.771
50371W        W22697   5.868   2.463  13.030
50372W        W22698  31.999  20.054   2.375
50373W        W22699  28.071  28.077  14.960
50374W        W22700  11.676  20.272  12.446
50375W        W22701  27.185  28.633  10.614
50376W        W22702  33.121  33.071  14.889
50377W        W22703  42.465  20.080  12.557
50378W        W22704  39.965   5.436  14.879
50379W        W22705  35.544   7.237   2.349
50380W        W22706  27.990  39.832  14.374
50381W        W22707  38.991   5.334   2.203
50382W        W22708   3.265  41.043  13.025
50383W        W22709  33.405  19.114  10.546
50384W        W22710  20.259  15.208   3.806
50385W        W22711  24.143  42.337   3.809
50386W        W22712  40.418  16.234  11.440
50387W        W22713  40.339   6.741   3.159
50388W        W22714   9.655  42.920   3.369
50389W        W22715   3.846  27.528   3.342
50390W        W22716  44.822  24.668  11.561
50391W        W22717  13.261  28.039   0.286
50392W        W22718  41.339  31.572  10.560
50393W        W22719  36.590  43.789  11.945
50394W        W22720  15.786  24.202   5.316
50395W        W22721  13.837  16.277  10.587
50396W        W22722  36.360  44.443   5.294
50397W        W22723   1.907   0.913   3.789
50398W        W22724  22.520  33.914   4.615
50399W        W22725  16.768  34.883   1.696
50400W        W22726   3.755  22.654  10.080
50401W        W22727  15.598  24.012   0.732
50402W        W22728  32.421  25.591  13.398
50403W        W22729  43.018  28.030  10.977
50404W        W22730  36.868   3.953  13.426
50405W        W22731  13.718  30.146   1.747
50406W        W22732  20.666  39.824   3.169
50407W        W22733  38.555  18.619  10.969
50408W        W22734   3.734  37.444  10.076
50409W        W22735   6.409   6.867  11.514
50410W        W22736  31.901   5.264   3.330
50411W        W22737  13.820  23.188   4.185
50412W        W22738  30.912  15.811  14.427
50413W        W22739  39.388   4.814   3.149
50414W        W22740  27.502   3.940  13.791
50415W        W22741  30.443  31.547  12.869
50416W        W22742  39.054  37.019   3.810
50417W        W22743  36.573  19.197   3.297
50418W        W22744  24.001   6.272   3.652
50419W        W22745  10.345  16.665  11.506
50420W        W22746  30.931  28.608   2.884
50421W        W22747  11.772   5.777  14.771
50422W        W22748   9.839  16.144   0.733
50423W        W22749   4.336   4.229   4.220
50424W        W22750  35.036   8.248  14.830
50425W        W22751  13.119  34.459  11.989
50426W        W22752  32.503  10.354   3.694
50427W        W22753  44.393  44.959  14.918
50428W        W22754  44.918  42.778  11.497
50429W        W22755  42.925  34.543   3.697
50430W        W22756   6.187  23.729  11.553
50431W        W22757  18.245  37.940   2.310
50432W        W22758  19.625   7.704  14.333
50433W        W22759  14.206  19.137   1.757
50434W        W22760  37.838  14.622  10.962
50435W        W22761  10.261  38.524   0.262
50436W        W22762  14.642  32.955   1.740
50437W        W22763   6.336  43.792   2.763
50438W        W22764  29.659   6.794   1.404
50439W        W22765   4.795   0.454   1.871
50440W        W22766   7.817  13.143  14.776
50441W        W22767   9.240   8.348   1.697
50442W        W22768  18.694   2.814  12.838
50443W        W22769  22.231  12.675  14.878
50444W        W22770   2.925  15.158   1.824
50445W        W22771  11.294  19.261  10.466
50446W        W22772  21.100  21.524  14.356
50447W        W22773  15.129   4.735   4.285
50448W        W22774  21.093   3.793   0.866
50449W        W22775  36.086  12.765  10.003
50450W        W22776   0.828  31.086  13.818
50451W        W22777  30.040  44.465  13.360
50452W        W22778  10.356  13.148  12.572
50453W        W22779  12.253  34.936   1.888
50454W        W22780  34.456   6.819  14.417
50455W        W22781   4.779  18.196  11.022
50456W        W22782  23.624  32.618   4.606
50457W        W22783   5.428  37.569  10.619
50458W        W22784  34.907  15.233  13.496
50459W        W22785  11.755   9.689  11.934
50460W        W22786  16.644  33.558   3.637
50461W        W22787  40.302  19.101   2.377
50462W        W22788  25.537   8.688  10.582
50463W        W22789  33.086  12.251  12.926
50464W        W22790  37.947  34.452  10.643
50465W        W22791  24.588  22.643   3.241
50466W        W22792  40.445  24.695  11.073
50467W        W22793  10.306  15.788   1.862
50468W        W22794  29.145  42.943   2.819
50469W        W22795  19.760  32.898  12.001
50470W        W22796  20.653  29.959   0.934
50471W        W22797  17.656  33.541  12.906
50472W        W22798  17.295  16.747   2.253
50473W        W22799  16.638  35.592  10.642
50474W        W22800  23.241  33.920  11.865
50475W        W22801  15.658  39.556   1.346
50476W        W22802  23.161  12.811  11.500
50477W        W22803  12.805  18.293   2.895
50478W        W22804   5.883  25.011  10.900
50479W        W22805  44.394  29.523  12.443
50480W        W22806  25.593  15.155   0.294
50481W        W22807  30.018  43.795  11.565
50482W        W22808  22.647  15.302   2.749
50483W        W22809   0.433   4.942   3.765
50484W        W22810  43.455  35.084  11.030
50485W        W22811  24.495  18.209   5.262
50486W        W22812  18.621   3.748  13.884
50487W        W22813  32.057  10.312   5.231
50488W        W22814  42.989  41.295   2.882
50489W        W22815  20.251  23.129  11.861
50490W        W22816  32.063  39.056   2.240
50491W        W22817  10.251  11.295  12.481
50492W        W22818   6.413   8.826  13.398
50493W        W22819  39.504  36.013  11.870
50494W        W22820   5.225   1.290  14.378
50495W        W22821  15.271  11.239   1.451
50496W        W22822  33.395  19.658   4.162
50497W        W22823  36.856  11.818   0.320
50498W        W22824   8.829   0.383  12.398
50499W        W22825  28.467  31.475  13.857
50500W        W22826  29.110  23.694  11.609
50501W        W22827  30.970  37.361  14.879
50502W        W22828   0.464   7.849  14.345
50503W        W22829  27.176  12.785  12.889
50504W        W22830   1.377  17.708   0.283
50505W        W22831  33.883  25.588  12.515
50506W        W22832  14.100  12.347   0.864
50507W        W22833  37.857   5.786   3.180
50508W        W22834   3.836   4.846   1.435
50509W        W22835  17.576  37.869  14.906
50510W        W22836  34.462  43.476   0.816
50511W        W22837   5.886  30.595   0.359
50512W        W22838  11.300  15.599  11.119
50513W        W22839  43.000  37.453  13.520
50514W        W22840  14.179   0.301  14.411
50515W        W22841  43.856  44.488   3.822
50516W        W22842  39.407  38.028   1.256
50517W        W22843  24.170  23.696   0.746
50518W        W22844  10.727   2.763   2.240
50519W        W22845  38.347   6.889  11.407
50520W        W22846  15.648  40.474  13.937
50521W        W22847   7.232  14.761  14.457
50522W        W22848  14.284  15.820  10.489
50523W        W22849   8.811   4.245  10.539
50524W        W22850  37.980   2.375  12.978
50525W        W22851  44.757  23.680  11.403
50526W        W22852  10.235   8.385  13.462
50527W        W22853  12.789  28.567  12.427
50528W        W22854  19.047  16.623  12.885
50529W        W22855   3.388  26.012   3.643
50530W        W22856   6.372  22.054  10.424
50531W        W22857  11.720  42.002  14.402
50532W        W22858  16.270  44.784   3.248
50533W        W22859  40.328  21.184   5.258
50534W        W22860  36.472  34.074   9.466
50535W        W22861  38.991  37.858  13.939
50536W        W22862  44.832  25.470   2.730
50537W        W22863  42.506  34.423  11.414
50538W        W22864  10.858   0.863  13.023
50539W        W22865  27.196  31.984   0.899
50540W        W22866  17.069   1.482  11.924
50541W        W22867  18.182  31.465  14.859
50542W        W22868   0.878   8.812   4.684
50543W        W22869  24.690  34.388  12.965
50544W        W22870  17.792  16.247  10.921
50545W        W22871  25.019  16.676  13.944
50546W        W22872  10.764  39.407   2.869
50547W        W22873  30.136  33.096  10.575
50548W        W22874  28.446  12.669   3.375
50549W        W22875   3.327  24.518  10.559
50550W        W22876  11.243  32.920  14.926
50551W        W22877  13.295  10.369  10.912
50552W        W22878   8.371  10.830  14.488
50553W        W22879  33.041  14.157  11.374
50554W        W22880  25.194   6.237  14.025
50555W        W22881  18.253  14.159   1.790
50556W        W22882  15.108  14.137   3.818
50557W        W22883  35.096   5.276   1.869
50558W        W22884  16.638  27.529  14.507
50559W        W22885  23.631  41.985   1.895
50560W        W22886  31.112  22.123  13.526
50561W        W22887  23.228  40.318  14.331
50562W        W22888  44.427  34.396  12.867
50563W        W22889   1.806  15.090  15.000
50564W        W22890  13.694  27.076  11.963
50565W        W22891  27.102  26.149   9.548
50566W        W22892  16.301  19.555   0.274
50567W        W22893   0.903  38.432   0.453
50568W        W22894   2.899  34.915   2.848
50569W        W22895  43.453  25.588  13.830
50570W        W22896  28.930  16.135   1.764
50571W        W22897   2.824  10.354   4.172
50572W        W22898   9.388  17.609   1.267
50573W        W22899  32.120  15.646   4.746
50574W        W22900  39.423  41.532  14.868
50575W        W22901  29.070  31.490  10.561
50576W        W22902  28.044  27.534   1.711
50577W        W22903  19.534  20.035  12.394
50578W        W22904  12.328  27.559  14.929
50579W        W22905  13.753   3.276   0.260
50580W        W22906  25.546  20.162   4.762
50581W        W22907  20.069  37.385   0.733
50582W        W22908  30.946  38.950   3.653
50583W        W22909  35.390  18.288   0.366
50584W        W22910  15.101  28.975  14.335
50585W        W22911  32.419  37.552   2.314
50586W        W22912  36.392  30.568  13.351
50587W        W22913  18.568  23.709  11.117
50588W        W22914  30.053  16.251   3.687
50589W        W22915  35.361  29.450  14.483
50590W        W22916  22.165  17.145   3.731
50591W        W22917  16.599  20.109  14.516
50592W        W22918  39.871  43.429   4.331
50593W        W22919  26.171   3.217   2.893
50594W        W22920  34.421   5.254  14.339
50595W        W22921  27.528  40.379   4.147
50596W        W22922  13.624  39.927  12.377
50597W        W22923  25.498  33.575   3.194
50598W        W22924  40.916  39.479   3.630
50599W        W22925  10.264  33.119   2.320
50600W        W22926   7.680  38.335  14.876
50601W        W22927  11.348  42.418   4.171
50602W        W22928  24.685  13.347  11.128
50603W        W22929  30.091   3.754   2.224
50604W        W22930  22.014  24.197  11.447
50605W        W22931  39.883  35.576   3.805
50606W        W22932   3.225  31.480  13.063
50607W        W22933  35.891  11.261   4.137
50608W        W22934  21.114  38.515  14.914
50609W        W22935  11.644  30.457   1.266
50610W        W22936  23.987  15.578   1.878
50611W        W22937  34.071   3.779   1.340
50612W        W22938   3.894  28.973  13.340
50613W        W22939   9.266   2.818  11.375
50614W        W22940  32.422  40.881  10.443
50615W        W22941  22.042   0.447  12.373
50616W        W22942   5.300   0.832  13.346
50617W        W22943  36.475   2.430   1.344
50618W        W22944  36.894   0.488   1.351
50619W        W22945  37.496   9.372  13.979
50620W        W22946   1.356  34.448   2.841
50621W        W22947   2.902  15.162  12.425
50622W        W22948  31.408  36.089  13.793
50623W        W22949   3.840  37.885   3.797
50624W        W22950  19.609  35.468  10.899
50625W        W22951  12.148  30.991   0.801
50626W        W22952  44.495   8.654  12.910
50627W        W22953   6.824  16.802   0.440
50628W        W22954  20.568  34.881   2.772
50629W        W22955  18.642   9.808  13.492
50630W        W22956  34.463  42.993   4.717
50631W        W22957  43.882  38.556   4.281
50632W        W22958  39.434   9.376   1.257
50633W        W22959  19.721  42.494  13.966
50634W        W22960   7.718  31.943  10.030
50635W        W22961  22.664   0.400  13.004
50636W        W22962  11.157  33.459   1.696
50637W        W22963  13.827  13.256  12.864
50638W        W22964  28.092  38.441   1.327
50639W        W22965  24.188   5.796   3.373
50640W        W22966  25.140  12.362  12.855
50641W        W22967  13.191  42.288   0.385
50642W        W22968   2.459  12.679   3.153
50643W        W22969   5.288  17.732  13.061
50644W        W22970  36.990  16.243  14.438
50645W        W22971  44.838  25.019  11.560
50646W        W22972   7.303   5.268   1.447
50647W        W22973  33.480  17.649   3.154
50648W        W22974   3.934   8.349   4.654
50649W        W22975  29.965  21.522   4.806
50650W        W22976  28.517   4.259   2.207
50651W        W22977  37.894  26.597  12.898
50652W        W22978  13.699  43.316   1.789
50653W        W22979  26.982  34.081  12.470
50654W        W22980   2.851   9.170   0.968
50655W        W22981  22.221  13.688  12.891
50656W        W22982  42.858  16.164   0.281
50657W        W22983  17.255  27.480   3.328
50658W        W22984  19.584  23.610   3.251
50659W        W22985   9.358  15.805   5.184
50660W        W22986  19.257  17.619  11.552
50661W        W22987  40.839  35.075  14.004
50662W        W22988  44.767  32.532  12.570
50663W        W22989   0.280   9.208   4.255
50664W        W22990  21.714  33.466  12.396
50665W        W22991  31.048   4.423  13.804
50666W        W22992  32.429   2.790   3.768
50667W        W22993  30.609  23.705  14.323
50668W        W22994  42.917   4.791  13.913
50669W        W22995   9.371  33.554  14.302
50670W        W22996  26.687  40.353  12.485
50671W        W22997  38.880   7.366   0.726
50672W        W22998  19.081  33.886   0.344
50673W        W22999  38.051  36.519   3.373
50674W        W23000  44.343  34.508   0.335
50675W        W23001  39.378   3.234   1.315
50676W        W23002  12.650  20.757  12.351
50677W        W23003  16.773  10.647   4.614
50678W        W23004  35.879  28.031  14.799
50679W        W23005  18.095  30.132   4.661
50680W        W23006  29.627  43.873  11.461
50681W        W23007  16.655   9.386  13.485
50682W        W23008  15.305  31.533  14.989
50683W        W23009  40.548  19.190  11.392
50684W        W23010  42.923  38.431  13.395
50685W        W23011  23.702   4.842   3.799
50686W        W23012  17.158  27.159  14.332
50687W        W23013  44.500   8.769  13.836
50688W        W23014  36.844   5.891  13.931
50689W        W23015  30.016  26.090   9.548
50690W        W23016  36.429  36.521  14.429
50691W        W23017   6.404  18.140  11.538
50692W        W23018  17.240  13.827  11.051
50693W        W23019  12.696  33.563   4.763
50694W        W23020   2.903   9.882  14.446
50695W        W23021  43.284   6.869   3.224
50696W        W23022  12.211  37.061   0.431
50697W        W23023   7.757   2.845   0.386
50698W        W23024   0.402   6.357  14.032
50699W        W23025   3.346  34.565  11.584
50700W        W23026  11.813  17.064  13.991
50701W        W23027  38.835  40.495   4.164
50702W        W23028   6.887   8.290   2.713
50703W        W23029   7.349   1.926  12.342
50704W        W23030  44.362  33.009   0.760
50705W        W23031   5.902  26.481   1.867
50706W        W23032  36.447  25.055   9.949
50707W        W23033  34.484  37.446   1.403
50708W        W23034  17.126  16.077   0.760
50709W        W23035  36.075  12.152   5.122
50710W        W23036   6.812  16.233  13.877
50711W        W23037  18.730   3.275  14.394
50712W        W23038  32.058  21.671   3.664
50713W        W23039  31.092   9.737   4.131
50714W        W23040  39.379  33.625  10.100
50715W        W23041  34.589   8.858   1.248
50716W        W23042  16.702  18.643   0.248
50717W        W23043  15.690   6.865   2.344
50718W        W23044  18.663  43.908  13.487
50719W        W23045  10.235  23.222   1.398
50720W        W23046  25.531   3.802  10.910
50721W        W23047  21.604   8.779  14.001
50722W        W23048  39.030  10.879   0.409
50723W        W23049  11.367  38.015   3.653
50724W        W23050   4.210  41.920   0.318
50725W        W23051  33.933  28.081   4.217
50726W        W23052  24.209  40.847  14.287
50727W        W23053  23.180  35.592   3.300
50728W        W23054   6.816  13.622   2.899
50729W        W23055  26.554  41.828  11.980
50730W        W23056  36.347  10.193  14.395
50731W        W23057  14.649   3.842  10.629
50732W        W23058  42.315  39.939  13.923
50733W        W23059   3.730  39.526   0.282
50734W        W23060   3.949   2.291  10.893
50735W        W23061  17.606  37.904   4.625
50736W        W23062  14.703  43.282   4.786
50737W        W23063  14.270   0.859   3.231
50738W        W23064  13.768   1.391   0.963
50739W        W23065  19.194  26.060   3.664
50740W        W23066  13.180  15.319   1.375
50741W        W23067  31.899  39.892  14.881
50742W        W23068  35.379  39.859   1.409
50743W        W23069  10.267  38.379  12.069
50744W        W23070  26.997  24.538  14.960
50745W        W23071  32.534  14.117   0.932
50746W        W23072  28.474  11.797   4.252
50747W        W23073  34.892  37.569   3.805
50748W        W23074  16.705  18.579  12.536
50749W        W23075  41.344   2.853   1.792
50750W        W23076  17.087  13.663  14.392
50751W        W23077  23.672   6.417   3.841
50752W        W23078   2.335  27.478  10.480
50753W        W23079  21.262  11.700   4.780
50754W        W23080  13.202   3.219  13.540
50755W        W23081   3.748  12.756  14.869
50756W        W23082  23.519  10.322   3.237
50757W        W23083  10.804   6.715   0.326
50758W        W23084  12.135  35.525  14.006
50759W        W23085  44.901  20.688  13.377
50760W        W23086  20.744  35.509  13.493
50761W        W23087  21.040  17.713   4.673
50762W        W23088  36.577  35.464  10.515
50763W        W23089   1.874  40.504  14.972
50764W        W23090  40.463  40.508   3.184
50765W        W23091   1.384   5.829  12.408
50766W        W23092  26.566  36.400   1.775
50767W        W23093  44.940  26.043   2.855
50768W        W23094  24.544  22.111  11.001
50769W        W23095  28.479  41.319  11.095
50770W        W23096  10.655   1.914   2.681
50771W        W23097  26.482  18.089   2.669
50772W        W23098   0.802  15.674  13.880
50773W        W23099  36.870  14.687   2.878
50774W        W23100  41.798  15.808  14.784
50775W        W23101   2.326  14.333  11.433
50776W        W23102  17.079  37.463   5.274
50777W        W23103  16.311  34.436   1.388
50778W        W23104   4.706   0.273   3.238
50779W        W23105   0.783  10.735   4.805
50780W        W23106   9.710  20.575  13.377
50781W        W23107  15.768   8.733  14.799
50782W        W23108  26.663  21.242   1.261
50783W        W23109   8.327  30.524  10.442
50784W        W23110  32.392  37.568   4.169
50785W        W23111  31.516  16.199   2.784
50786W        W23112  17.747  26.137   3.717
50787W        W23113  10.859  25.648   9.563
50788W        W23114  19.052  30.579  13.514
50789W        W23115   4.353  24.079   1.874
50790W        W23116  39.558   4.222   3.247
50791W        W23117  37.053  12.617  10.537
50792W        W23118  24.112  40.332   4.759
50793W        W23119  30.032  39.523  11.571
50794W        W23120  10.817   1.461   2.382
50795W        W23121  23.163  15.312  12.422
50796W        W23122  22.580  23.089  12.093
50797W        W23123   5.854  43.869   3.798
50798W        W23124  20.088  11.127   1.265
50799W        W23125  36.532  16.259  13.438
50800W        W23126  18.273  17.176   4.123
50801W        W23127  39.489  32.484   3.664
50802W        W23128  39.476  26.615   0.909
50803W        W23129  42.440  24.987   0.746
50804W        W23130   6.287  35.416  14.342
50805W        W23131  20.083   5.386   4.351
50806W        W23132  19.191  40.466   2.664
50807W        W23133   1.399  22.561   1.390
50808W        W23134   5.934   6.708  13.454
50809W        W23135  11.739  14.205   0.368
50810W        W23136   6.922   7.228   3.332
50811W        W23137  40.379  20.068  13.830
50812W        W23138   4.805  39.828  14.783
50813W        W23139  25.646  20.524   2.261
50814W        W23140   7.881  30.082   3.841
50815W        W23141  41.442  13.692  10.499
50816W        W23142  21.134  18.653   1.230
50817W        W23143  27.064  12.705   3.368
50818W        W23144  38.558  14.642   1.860
50819W        W23145   3.830  11.767  13.836
50820W        W23146  20.076  13.198   2.716
50821W        W23147  42.028  33.905  14.008
50822W        W23148  30.084  44.759   0.756
50823W        W23149   9.858  17.610  13.028
50824W        W23150  31.018   7.694  13.451
50825W        W23151  12.724  37.366  12.475
50826W        W23152  31.139   2.890   4.197
50827W        W23153   0.390  28.075   3.167
50828W        W23154  22.653  28.537  12.974
50829W        W23155  30.463  34.886  12.419
50830W        W23156  23.089   2.760   4.788
50831W        W23157  24.006  25.709  12.574
50832W        W23158  18.786  21.665  11.985
50833W        W23159   5.862  16.648   2.345
50834W        W23160   5.355  33.995   4.653
50835W        W23161  29.656  31.915  10.059
50836W        W23162  29.608   6.230   1.786
50837W        W23163  15.651  19.607   2.801
50838W        W23164  31.524  18.599   2.692
50839W        W23165  11.154  15.634   4.716
50840W        W23166   6.399  23.022  12.872
50841W        W23167   6.403  13.106   3.337
50842W        W23168  11.817  31.002   4.313
50843W        W23169  31.995  16.716   4.265
50844W        W23170  27.686  32.924   1.903
50845W        W23171   4.939  14.143   3.776
50846W        W23172  40.333  27.541   0.260
50847W        W23173   6.679   4.791  11.582
50848W        W23174  43.498  41.306   3.676
50849W        W23175  12.298  30.074   4.115
50850W        W23176  40.014  21.107   0.361
50851W        W23177  21.707  29.106   3.342
50852W        W23178   7.671  19.679  14.373
50853W        W23179   1.303  33.937   4.671
50854W        W23180  37.466   2.369   3.739
50855W        W23181  15.785   7.735  12.024
50856W        W23182   5.305  38.569  13.908
50857W        W23183   0.981  41.888   2.213
50858W        W23184  35.492  25.681  10.509
50859W        W23185  16.147  19.279   1.932
50860W        W23186  19.094  29.550   0.448
50861W        W23187  33.951  29.076  12.953
50862W        W23188  16.288  13.124  10.566
50863W        W23189   3.724  37.363   2.256
50864W        W23190  42.472  25.561   4.687
50865W        W23191   1.821  18.709   4.301
50866W        W23192  34.463  10.635   1.213
50867W        W23193   8.834  40.358  14.489
50868W        W23194   0.812  32.074   3.255
50869W        W23195  11.663  12.229   3.189
50870W        W23196  20.038  26.107  13.540
50871W        W23197  43.419   9.178   4.171
50872W        W23198   8.405  44.845   1.777
50873W        W23199  44.938  41.373  14.380
50874W        W23200   0.264   0.933   1.410
50875W        W23201  21.056  43.375   1.913
50876W        W23202  29.031  13.690  13.353
50877W        W23203  34.472  42.030   4.801
50878W        W23204   4.726  36.867   3.385
50879W        W23205  33.957   9.680  11.109
50880W        W23206  39.475  37.422   0.912
50881W        W23207  31.028  24.499  10.546
50882W        W23208  40.339   1.436   0.735
50883W        W23209   9.377   0.776   0.356
50884W        W23210   5.913  34.953   4.119
50885W        W23211  18.681  20.700   0.308
50886W        W23212  32.507  44.315  10.483
50887W        W23213  26.116  25.080  11.410
50888W        W23214  43.807   4.245  11.913
50889W        W23215  43.414   7.397   1.851
50890W        W23216  10.298  33.554   3.153
50891W        W23217  34.384  12.308  13.322
50892W        W23218  32.984  39.043  10.895
50893W        W23219   5.876  37.958   2.190
50894W        W23220  23.175  43.808   4.657
50895W        W23221  10.155  43.769   1.241
50896W        W23222  22.585   4.389  11.966
50897W        W23223  15.178   5.314  13.947
50898W        W23224  33.613   8.391  12.033
50899W        W23225  34.386  37.474  11.986
50900W        W23226  39.868  26.187  10.643
50901W        W23227  41.410  29.004  12.913
50902W        W23228  25.591  34.072  13.527
50903W        W23229  25.131  44.818   0.751
50904W        W23230  27.674  41.425  10.517
50905W        W23231  43.923  31.987   2.388
50906W        W23232   4.375  40.010   2.679
50907W        W23233   9.729  21.097  12.561
50908W        W23234  16.671  12.163  13.497
50909W        W23235   4.813  26.558   4.667
50910W        W23236  29.435  43.391   2.747
50911W        W23237  19.040  31.411   4.734
50912W        W23238   3.421   2.729   0.860
50913W        W23239  39.493  39.938   4.751
50914W        W23240  11.357  21.717   1.920
50915W        W23241  41.801  11.664  11.467
50916W        W23242  23.703  40.911   2.251
50917W        W23243   5.786  16.773  12.886
50918W        W23244   9.347  43.491  13.027
50919W        W23245   4.365   9.795  12.990
50920W        W23246  29.043  32.532  10.539
50921W        W23247  11.810  38.514  12.839
50922W        W23248  26.027  36.876  12.916
50923W        W23249   0.255  26.086  13.989
50924W        W23250  33.462  15.682  14.364
50925W        W23251  12.756  14.103   4.344
50926W        W23252   1.477  44.864   1.935
50927W        W23253  31.603  10.150   3.239
50928W        W23254   0.903  18.103   2.385
50929W        W23255   6.898  39.383   1.744
50930W        W23256  16.210  38.364   1.415
50931W        W23257  37.518  32.463   4.121
50932W        W23258  27.478  44.877   2.269
50933W        W23259  15.818  18.252   0.832
50934W        W23260  32.560  24.629   2.840
50935W        W23261  23.639  28.566   2.278
50936W        W23262   7.835  34.942   4.244
50937W        W23263  23.215  21.554   3.329
50938W        W23264  20.567   9.218   0.297
50939W        W23265  26.048  13.205  10.598
50940W        W23266  38.562  32.105  14.385
50941W        W23267   2.409  38.509   4.268
50942W        W23268  42.479  36.440  11.944
50943W        W23269  12.254  43.340   4.663
50944W        W23270  20.552  19.599   1.898
50945W        W23271  18.146  36.380   1.316
50946W        W23272   6.266  28.451   2.846
50947W        W23273   7.216   2.419  13.908
50948W        W23274  20.565  26.977   0.339
50949W        W23275  21.703  14.818  12.517
50950W        W23276  12.810  30.044   3.844
50951W        W23277   4.717  41.811   1.810
50952W        W23278   4.262   7.802  13.815
50953W        W23279  31.959  43.307   2.235
50954W        W23280  10.796  34.950   2.375
50955W        W23281  29.563  44.442   0.781
50956W        W23282   8.740  43.811  10.606
50957W        W23283   7.221  33.084   3.184
50958W        W23284  10.768  39.425   0.260
50959W        W23285  16.655  19.612   4.772
50960W        W23286  25.580  32.039  11.406
50961W        W23287  20.110  28.585  13.792
50962W        W23288  10.702  22.710   0.947
50963W        W23289  38.381  27.067   3.177
50964W        W23290   1.400   4.728   0.330
50965W        W23291  30.104  38.869   0.311
50966W        W23292  37.880  44.374   0.756
50967W        W23293  34.873  39.506  14.817
50968W        W23294  35.603   4.297  14.799
50969W        W23295  14.235  22.543  14.482
50970W        W23296  18.590  40.965   0.415
50971W        W23297  18.070   6.759   0.764
50972W        W23298  20.065  22.664  10.427
50973W        W23299  34.581  37.069   3.691
50974W        W23300  26.137  25.149   3.356
50975W        W23301  10.216   8.198  12.052
50976W        W23302  14.256   0.932  13.500
50977W        W23303  10.689  18.575   2.243
50978W        W23304   8.364  43.987  13.541
50979W        W23305  28.031  31.012   0.339
50980W        W23306  35.988  36.532  11.087
50981W        W23307  36.522  30.615  12.977
50982W        W23308  41.379   6.915  12.860
50983W        W23309  10.742   6.285  12.034
50984W        W23310  25.705  12.299  14.849
50985W        W23311   6.220  35.425   4.271
50986W        W23312  26.527  43.770   3.805
50987W        W23313  40.801  35.901   4.351
50988W        W23314   3.908  36.417   4.814
50989W        W23315   6.273   3.434  12.507
50990W        W23316  10.824   8.766  14.990
50991W        W23317  40.312  30.130  13.542
50992W        W23318  43.899  14.730   1.909
50993W        W23319  14.820  32.609  14.989
50994W        W23320  37.468  29.560   2.710
50995W        W23321  31.493  28.518  11.914
50996W        W23322  12.788  11.865   3.843
50997W        W23323  22.505  29.598   5.261
50998W        W23324  11.649  20.182  10.613
50999W        W23325  30.424  31.526   1.872
51000W        W23326   3.840  20.594  14.921
51001W        W23327  24.982  20.639   0.866
51002W        W23328  11.234   1.476   3.811
51003W        W23329  43.987  36.582  13.505
51004W        W23330   0.872  20.273  14.001
51005W        W23331   1.398  18.700   0.842
51006W        W23332  15.807  36.419   5.183
51007W        W23333  33.941  31.922  10.033
51008W        W23334   9.343  28.119  13.890
51009W        W23335  41.870  21.722  12.467
51010W        W23336  27.112  29.499  14.496
51011W        W23337  27.023  17.142  14.867
51012W        W23338  40.020  19.595   4.712
51013W        W23339   0.817  32.559  12.026
51014W        W23340  24.485  23.647  10.489
51015W        W23341  22.509  20.052  13.429
51016W        W23342  16.589   5.362   3.182
51017W        W23343  10.743  35.907  11.487
51018W        W23344  32.070  20.708  10.495
51019W        W23345  44.345   2.284   2.757
51020W        W23346  20.624  35.001   3.645
51021W        W23347  15.623  41.874  12.511
51022W        W23348  18.105  10.333  12.910
51023W        W23349  32.411   4.303   1.306
51024W        W23350  12.183  15.809   0.929
51025W        W23351  42.989  38.548  11.091
51026W        W23352  26.979   1.806   1.294
51027W        W23353  42.288  28.953   2.266
51028W        W23354  24.185  21.168   2.336
51029W        W23355  23.219   6.399  11.500
51030W        W23356  24.071  30.560  13.522
51031W        W23357  41.428  41.392   1.408
51032W        W23358  22.546   5.390   4.714
51033W        W23359  32.041   4.922  13.951
51034W        W23360   0.758   4.900   2.688
51035W        W23361  36.931  23.051   4.225
51036W        W23362  16.122   5.323   0.476
51037W        W23363   8.881  24.133  13.063
51038W        W23364  14.645  39.494  12.985
51039W        W23365  37.389  28.479  12.049
51040W        W23366  43.937   6.894  14.027
51041W        W23367  27.054  29.524   1.787
51042W        W23368  15.265   6.912  12.964
51043W        W23369  39.818  19.171  12.997
51044W        W23370  24.137  29.049  13.475
51045W        W23371   4.419  13.350  12.489
51046W        W23372  18.550  14.752  12.001
51047W        W23373  27.579  44.979   0.252
51048W        W23374  23.113  31.582   2.237
51049W        W23375  10.243  25.219  14.364
51050W        W23376  15.126  15.089  14.798
51051W        W23377   9.877  31.458   2.296
51052W        W23378  40.459   9.645   4.764
51053W        W23379   7.279   3.754   0.871
51054W        W23380  10.228  13.272   3.215
51055W        W23381  15.727   6.234  13.365
51056W        W23382  32.632  27.515  10.580
51057W        W23383   4.859  38.894   2.347
51058W        W23384  35.931  29.997  12.829
51059W        W23385  10.693  11.178   0.946
51060W        W23386   2.801  33.553  13.011
51061W        W23387  39.483  44.769   3.741
51062W        W23388   2.442  18.207   1.356
51063W        W23389  25.073   1.734   4.708
51064W        W23390  30.912   1.948   9.943
51065W        W23391  24.574  17.266   2.299
51066W        W23392  14.710  21.137  12.422
51067W        W23393  30.656  42.804   2.353
51068W        W23394  26.998  22.176  14.988
51069W        W23395  28.467  34.966   1.300
51070W        W23396  11.751  28.063   3.795
51071W        W23397  11.212  29.034  11.545
51072W        W23398  36.358  23.051   2.857
51073W        W23399  12.295  36.351  10.913
51074W        W23400  40.385  43.308  14.791
51075W        W23401  26.510  25.489   3.270
51076W        W23402  16.727  11.176  12.527
51077W        W23403  40.460   9.305  12.887
51078W        W23404   4.275  24.201   1.269
51079W        W23405  23.019  32.512  14.389
51080W        W23406   0.386  14.282   1.270
51081W        W23407  33.925  35.569  13.904
51082W        W23408  22.127  28.964  11.855
51083W        W23409   8.813  10.714  10.612
51084W        W23410  42.336  40.043   4.687
51085W        W23411   6.812  29.576  10.457
51086W        W23412  29.929  27.560   5.679
51087W        W23413  16.744   2.943  13.341
51088W        W23414   4.447  26.090  12.921
51089W        W23415  21.262   7.808  13.352
51090W        W23416  44.849  12.340  11.007
51091W        W23417  25.590   2.736   4.314
51092W        W23418  42.955  27.041  13.872
51093W        W23419   6.183  33.113  14.935
51094W        W23420  26.088  24.678  11.561
51095W        W23421  21.127  38.388  11.055
51096W        W23422  43.858  14.140   3.361
51097W        W23423  10.786  10.749  10.530
51098W        W23424   0.342  22.726  10.112
51099W        W23425  33.398  21.698   0.356
51100W        W23426   9.887   1.976   0.955
51101W        W23427  23.545   6.366  12.550
51102W        W23428  10.373  26.655   2.712
51103W        W23429  17.711  15.806   3.822
51104W        W23430  27.111   6.915  14.852
51105W        W23431  25.605  35.479   1.717
51106W        W23432   9.328  35.918   5.313
51107W        W23433   8.278   5.375  12.456
51108W        W23434   5.825  18.218  14.014
51109W        W23435   1.280  35.587   1.429
51110W        W23436  34.019  27.995  11.479
51111W        W23437  14.613  30.437   4.340
51112W        W23438  36.369  35.965  12.968
51113W        W23439  27.141  42.404   0.795
51114W        W23440  33.069  43.513   1.834
51115W        W23441  25.157  22.084  13.331
51116W        W23442  41.840   0.479  12.844
51117W        W23443  26.998  20.224   4.272
51118W        W23444  21.210   5.687   3.746
51119W        W23445  38.822  33.527  14.417
51120W        W23446   0.253  18.579   0.310
51121W        W23447  16.074   4.216  13.815
51122W        W23448  35.959   4.811   1.391
51123W        W23449  22.136  15.724   0.800
51124W        W23450  37.045   8.751   0.818
51125W        W23451   8.215   5.384   4.119
51126W        W23452  11.811  41.309  14.362
51127W        W23453  42.393   9.776   4.142
51128W        W23454   1.787  25.675   1.226
51129W        W23455  40.963  44.388   2.892
51130W        W23456   9.879   5.707  10.556
51131W        W23457   2.338  13.630   0.735
51132W        W23458   8.823  38.889   4.826
51133W        W23459  42.861  41.899   0.778
51134W        W23460  29.660  23.176  12.065
51135W        W23461  32.561  42.947  12.531
51136W        W23462  18.648  39.360  14.416
51137W        W23463  27.618  37.897  11.527
51138W        W23464  12.291  21.609   2.178
51139W        W23465  40.047  14.647   1.743
51140W        W23466  44.900  32.955  14.767
51141W        W23467   1.322  40.404   1.755
51142W        W23468  41.293  27.137  10.613
51143W        W23469  32.928  28.478   3.828
51144W        W23470   7.178   6.260   4.172
51145W        W23471  21.188  31.501   0.301
51146W        W23472  22.656  34.552  14.898
51147W        W23473   8.810  43.468   3.681
51148W        W23474  27.951   0.379   0.783
51149W        W23475  24.177  41.799  14.881
51150W        W23476  14.782  35.039   2.850
51151W        W23477  28.573   2.799  11.930
51152W        W23478  10.660  38.459   2.667
51153W        W23479  24.021  34.115   1.272
51154W        W23480  42.944  18.176  10.965
51155W        W23481  28.997  38.982   0.888
51156W        W23482  33.402   3.260  12.462
51157W        W23483   6.349  33.086   2.772
51158W        W23484  36.014   9.830  14.372
51159W        W23485  26.187   8.804  13.456
51160W        W23486  18.147   8.782   4.244
51161W        W23487  26.017  26.621  12.359
51162W        W23488   6.321  30.148   0.457
51163W        W23489   6.822  23.108   0.866
51164W        W23490   5.274  10.338   4.335
51165W        W23491  33.524  29.445  13.879
51166W        W23492  35.587  27.153  13.392
51167W        W23493  15.615  41.530  12.885
51168W        W23494  44.265  16.723  14.463
51169W        W23495  43.861  32.564  14.944
51170W        W23496  23.105  23.503  11.995
51171W        W23497  31.551   7.812  14.407
51172W        W23498  23.674  36.910  11.563
51173W        W23499  17.738  17.210  12.009
51174W        W23500  44.342  19.551   3.846
51175W        W23501  26.617   3.279  11.124
51176W        W23502  39.874  32.080   2.207
51177W        W23503  43.990  29.969   3.350
51178W        W23504  31.404  12.849  14.032
51179W        W23505  16.213  43.312   1.830
51180W        W23506  42.520  22.721  14.759
51181W        W23507   8.820  12.683  12.965
51182W        W23508  41.968   5.391  14.277
51183W        W23509  40.961   2.933   2.343
51184W        W23510  28.046  43.019  13.047
51185W        W23511  22.037  26.699  14.819
51186W        W23512  28.667  14.826   1.800
51187W        W23513   4.449   2.273   1.863
51188W        W23514  43.424   6.409   4.305
51189W        W23515  41.993  37.948  12.940
51190W        W23516  17.692  13.316  11.603
51191W        W23517   9.711  40.859   4.737
51192W        W23518  26.525  34.548   4.628
51193W        W23519  37.391  43.333   0.876
51194W        W23520  39.940  44.825   4.296
51195W        W23521  43.798  39.493   0.279
51196W        W23522  37.349  29.938  11.029
51197W        W23523  44.860  20.687   2.262
51198W        W23524   1.319  41.020   4.321
51199W        W23525  40.886  25.190  10.969
51200W        W23526  43.428   5.800   3.656
51201W        W23527  38.519  42.371   3.158
51202W        W23528  35.427  29.151  12.018
51203W        W23529  37.981  17.267   3.355
51204W        W23530  41.358   7.262  13.054
51205W        W23531  31.039   1.399   3.789
51206W        W23532  25.652  22.544   3.790
51207W        W23533  38.562  25.988   0.817
51208W        W23534  26.128  24.164   0.744
51209W        W23535  34.492  10.793   4.233
51210W        W23536  12.831   8.655   1.369
51211W        W23537  44.863  16.747   2.355
51212W        W23538  12.189  22.232  13.375
51213W        W23539   7.709  15.183   0.421
51214W        W23540  24.085   6.849   3.641
51215W        W23541  12.354  32.045  10.477
51216W        W23542  21.246  22.585  11.039
51217W        W23543  10.829  34.017  12.841
51218W        W23544  44.825   7.789  11.908
51219W        W23545  17.588   9.369  14.459
51220W        W23546   4.231   5.832  10.614
51221W        W23547   3.226  22.145   1.892
51222W        W23548  26.614  14.112   2.403
51223W        W23549  11.257  32.933   2.263
51224W        W23550  22.043  28.678  10.895
51225W        W23551  36.075   4.330   1.723
51226W        W23552  37.893  29.622  13.038
51227W        W23553  24.046   0.280   2.364
51228W        W23554  14.222  43.440  10.543
51229W        W23555  44.866  10.721   4.183
51230W        W23556  21.207   6.906   3.689
51231W        W23557  25.640  25.611  12.051
51232W        W23558  23.160  43.860  13.046
51233W        W23559  31.577  37.956   0.861
51234W        W23560  22.514   3.729  14.484
51235W        W23561   9.777  23.659   2.749
51236W        W23562   6.725  43.004   0.748
51237W        W23563  11.728  31.516  12.436
51238W        W23564   8.876  32.028   3.377
51239W        W23565  25.210   0.804  11.014
51240W        W23566   6.390  21.084  13.937
51241W        W23567  36.583   7.773   4.630
51242W        W23568   8.855  41.987   0.428
51243W        W23569  28.169  11.192   0.750
51244W        W23570  26.654  14.640  10.631
51245W        W23571  27.557  11.842  13.960
51246W        W23572  23.039  15.290   9.449
51247W        W23573  31.044  22.193   3.806
51248W        W23574   3.881  24.642   3.782
51249W        W23575  25.141   9.803  14.867
51250W        W23576  33.607  23.206  11.468
51251W        W23577  30.016  13.155   1.734
51252W        W23578   9.197  30.922   0.808
51253W        W23579  29.467  41.816  14.993
51254W        W23580  15.134  24.057  11.424
51255W        W23581  42.485   1.810   0.251
51256W        W23582  43.351  26.026   3.751
51257W        W23583  44.003  34.511   0.826
51258W        W23584  31.950  15.213   4.182
51259W        W23585   5.264  21.202   1.926
51260W        W23586   6.251  30.612  10.531
51261W        W23587  26.091  33.925  14.448
51262W        W23588  23.644  34.452  10.548
51263W        W23589  41.344   3.441  14.435
51264W        W23590   8.346  21.643  10.645
51265W        W23591  42.780   1.957  13.485
51266W        W23592   5.310  41.861  10.953
51267W        W23593  19.653  26.520   1.326
51268W        W23594  27.526   8.694   0.905
51269W        W23595   8.742  29.003  12.453
51270W        W23596  34.115  25.472   0.731
51271W        W23597  30.627  15.118  11.061
51272W        W23598  17.556  26.069  11.444
51273W        W23599  36.979  39.351   3.823
51274W        W23600  28.454   3.829   2.340
51275W        W23601  19.704   0.881  14.977
51276W        W23602  37.899  32.020  13.792
51277W        W23603  37.994  25.170  13.380
51278W        W23604   8.694   0.806  13.399
51279W        W23605  28.458   4.825   0.845
51280W        W23606  28.479  25.664  12.033
51281W        W23607   8.282  34.506   0.299
51282W        W23608  19.277   3.799  13.475
51283W        W23609  12.737  28.998   0.812
51284W        W23610  33.448   9.312  13.541
51285W        W23611  44.961  41.350  11.541
51286W        W23612  41.474  42.858  13.897
51287W        W23613  10.668   7.232   2.678
51288W        W23614  41.395  34.071   4.284
51289W        W23615  38.950  38.999  11.373
51290W        W23616  15.157  34.891   2.697
51291W        W23617  20.247  32.984   1.935
51292W        W23618  20.704  36.572  12.847
51293W        W23619   1.270   2.929  10.604
51294W        W23620   1.295  16.588  12.863
51295W        W23621  23.044  12.217   3.689
51296W        W23622  14.214  14.236   4.302
51297W        W23623  41.846  29.452   2.858
51298W        W23624  21.607  25.653  12.538
51299W        W23625  26.685  28.137  14.452
51300W        W23626  21.673  32.546   4.638
51301W        W23627  15.107  14.108   4.269
51302W        W23628   4.323  44.903   4.150
51303W        W23629  40.802   2.309  13.326
51304W        W23630  14.627  17.088  12.364
51305W        W23631  33.494  43.411  13.794
51306W        W23632  19.112  20.753   1.702
51307W        W23633  40.863   4.728  13.047
51308W        W23634  16.732   9.648   1.868
51309W        W23635  26.192  34.027   1.356
51310W        W23636  26.155   6.423  14.774
51311W        W23637   5.407   5.368   3.690
51312W        W23638  30.443  28.988  11.468
51313W        W23639   4.268  21.576   0.797
51314W        W23640  23.166  36.509  11.915
51315W        W23641  31.581  38.015   2.180
51316W        W23642   1.769   4.375  14.969
51317W        W23643  43.019  37.483  10.561
51318W        W23644   5.338  32.118   3.656
51319W        W23645  29.933  31.909  14.476
51320W        W23646  37.390  44.868   0.441
51321W        W23647  20.663  15.720  13.500
51322W        W23648  33.905  25.200  10.489
51323W        W23649  26.517   6.265   1.335
51324W        W23650  28.114   8.877   0.398
51325W        W23651  25.590  28.596   2.419
51326W        W23652  39.825  29.945   0.755
51327W        W23653  23.057  24.025   0.948
51328W        W23654  38.956   7.844  14.009
51329W        W23655  33.565  43.839  12.902
51330W        W23656  30.595  17.093   0.426
51331W        W23657  22.558   5.364  11.507
51332W        W23658  12.726  18.072   4.249
51333W        W23659  34.439  39.512   2.676
51334W        W23660  31.932  33.464   2.335
51335W        W23661  32.046  31.609  10.980
51336W        W23662  14.790  28.156   4.622
51337W        W23663  17.227  42.975   4.811
51338W        W23664  24.116  25.654  11.519
51339W        W23665   9.731  26.634  12.013
51340W        W23666   8.180  41.955   4.157
51341W        W23667  33.562   9.684  13.521
51342W        W23668  13.306  21.255   0.754
51343W        W23669  16.123   3.826   1.781
51344W        W23670  31.153   5.225   4.244
51345W        W23671  39.042   0.447   4.708
51346W        W23672  23.139  26.524   2.327
51347W        W23673  14.621  35.429  13.895
51348W        W23674  34.037  13.336  14.928
51349W        W23675   7.828  17.204   1.288
51350W        W23676  34.094  43.424   1.224
51351W        W23677   6.818  11.148   2.382
51352W        W23678  38.056  26.672  11.559
51353W        W23679  24.975  34.936  12.418
51354W        W23680   7.307  17.718  14.448
51355W        W23681   0.472  14.116   1.849
51356W        W23682  15.092   8.893   0.871
51357W        W23683   5.226  39.055   2.281
51358W        W23684  20.222   3.439   2.708
51359W        W23685  16.088  43.992   1.436
51360W        W23686   3.229   8.871   0.396
51361W        W23687  13.221  31.111   1.436
51362W        W23688  34.987   3.799  10.903
51363W        W23689  10.683  28.124  10.022
51364W        W23690  24.187  41.368   2.843
51365W        W23691  39.428  27.982  10.620
51366W        W23692  10.733  11.750  13.887
51367W        W23693  18.665  12.749  13.984
51368W        W23694  22.047  29.505   0.242
51369W        W23695  10.298  38.559  14.514
51370W        W23696  29.580   8.762   5.127
51371W        W23697  39.489  41.878  11.612
51372W        W23698  14.614  40.986  13.422
51373W        W23699   3.367  23.616   2.201
51374W        W23700   1.446  36.981   4.145
51375W        W23701   2.800  27.052  10.628
51376W        W23702  24.017  10.855  12.989
51377W        W23703  33.448  40.380  11.509
51378W        W23704  42.015  28.537  14.840
51379W        W23705  13.687  27.670   0.949
51380W        W23706  29.125  34.934  13.545
51381W        W23707  35.945  23.157   0.265
51382W        W23708  35.994  22.997  14.366
51383W        W23709  31.541  13.220   4.283
51384W        W23710  25.040   4.303  12.368
51385W        W23711  29.458  20.726   1.814
51386W        W23712   3.761   4.300   0.853
51387W        W23713  44.357  26.062  14.342
51388W        W23714  34.086  22.709   2.256
51389W        W23715  25.166  25.602   4.668
51390W        W23716   7.849  23.058  14.502
51391W        W23717  36.571  37.565   1.413
51392W        W23718  15.191  44.392   1.703
51393W        W23719  15.097  37.942   4.620
51394W        W23720  36.552  31.019   4.784
51395W        W23721   4.351  28.547  14.306
51396W        W23722  10.361  35.898   4.276
51397W        W23723  12.253  30.968  12.941
51398W        W23724  30.913   7.680  14.885
51399W        W23725  11.190   3.266   2.745
51400W        W23726  13.828  23.014  11.051
51401W        W23727  37.028   6.358  14.803
51402W        W23728   6.292  42.900   3.758
51403W        W23729  19.270   0.416  13.849
51404W        W23730  38.334  42.949   3.763
51405W        W23731   2.862  25.156   1.856
51406W        W23732   1.364  31.905  10.530
51407W        W23733  15.702  15.617  12.539
51408W        W23734  19.048  39.353  12.490
51409W        W23735  14.099   4.716  11.429
51410W        W23736  19.728  44.271  13.345
51411W        W23737  44.901  39.397   0.928
51412W        W23738  24.659  22.535  11.379
51413W        W23739   8.818  16.707  11.931
51414W        W23740  34.118  33.912  12.859
51415W        W23741  31.141  25.631   3.752
51416W        W23742  42.285  37.873  10.989
51417W        W23743  43.279  21.131  11.591
51418W        W23744  26.142   3.834  13.377
51419W        W23745  42.975  21.224  11.451
51420W        W23746  22.665  17.754   2.370
51421W        W23747  18.599  10.235  10.639
51422W        W23748  43.291  15.228  11.920
51423W        W23749  11.825   8.185   1.352
51424W        W23750  26.076  16.594   0.465
51425W        W23751  41.967  42.951  10.983
51426W        W23752  38.978   5.819  11.998
51427W        W23753  29.103  23.565   0.754
51428W        W23754  38.341   5.372   3.639
51429W        W23755  44.904  29.065   2.276
51430W        W23756  13.670   9.371  14.338
51431W        W23757  35.037   8.272  13.950
51432W        W23758  18.606  18.675  10.978
51433W        W23759  27.545  41.817   3.176
51434W        W23760  25.196   9.205   4.831
51435W        W23761  23.623   3.225   0.386
51436W        W23762  36.574  21.084   0.318
51437W        W23763   2.739  11.235   0.443
51438W        W23764  21.156  13.278  11.888
51439W        W23765  19.708  13.277   0.479
51440W        W23766  33.925   9.794   1.775
51441W        W23767  25.965   3.848   0.870
51442W        W23768  30.478  44.838  12.489
51443W        W23769  29.928  29.502   4.241
51444W        W23770  11.209  12.250  13.062
51445W        W23771  18.171   4.322   0.836
51446W        W23772   1.846  15.083  14.476
51447W        W23773  33.443  28.595   4.200
51448W        W23774  35.015  21.255   2.373
51449W        W23775  24.200  26.492  13.357
51450W        W23776  36.971  14.699  12.966
51451W        W23777   9.806  24.524  12.918
51452W        W23778  29.025   2.462   3.159
51453W        W23779  43.311  33.476   4.187
51454W        W23780  20.212  14.768  14.390
51455W        W23781  25.219  30.478  12.872
51456W        W23782  37.924  28.002   2.297
51457W        W23783  15.199  31.971  13.508
51458W        W23784  41.035  20.557  13.354
51459W        W23785  35.399  41.944  10.614
51460W        W23786  15.618  42.834  11.408
51461W        W23787   7.296  17.080   4.766
51462W        W23788  11.841  37.367   1.274
51463W        W23789  18.746  36.436  13.940
51464W        W23790  44.375  33.014  12.088
51465W        W23791   5.900  25.690  13.860
51466W        W23792  41.026  37.402  12.507
51467W        W23793  43.500   2.966  10.615
51468W        W23794   5.711  11.364   3.819
51469W        W23795  27.637   6.840   3.680
51470W        W23796   6.802  40.882   4.354
51471W        W23797  42.815   4.437   2.828
51472W        W23798  34.005  14.271  12.556
51473W        W23799   1.758  21.628  13.331
51474W        W23800  19.698   0.839  12.880
51475W        W23801  11.218  28.066  12.915
51476W        W23802   3.372   9.287   3.284
51477W        W23803   8.725   4.847  10.964
51478W        W23804  13.254  32.566   2.267
51479W        W23805  32.924  16.208   2.373
51480W        W23806  24.656   1.361  14.954
51481W        W23807  15.615  23.575   0.404
51482W        W23808   4.900   8.772   1.346
51483W        W23809  17.187   0.367   3.330
51484W        W23810  14.800  27.090  10.112
51485W        W23811  42.427  16.790   4.687
51486W        W23812  28.651  28.183  12.895
51487W        W23813  33.602  13.202   2.733
51488W        W23814  28.609   9.786   4.719
51489W        W23815  34.088   3.283   4.715
51490W        W23816  18.267  29.443   1.896
51491W        W23817   3.747  33.891  12.847
51492W        W23818   6.416   4.422   1.854
51493W        W23819   1.859  37.929  12.342
51494W        W23820  21.549  16.657   2.664
51495W        W23821  24.487   7.714  14.280
51496W        W23822  35.020  24.601  14.356
51497W        W23823  33.457  41.923   3.179
51498W        W23824   3.380  26.530  10.555
51499W        W23825  37.492  22.107  13.312
51500W        W23826   0.982  16.108   3.722
51501W        W23827  43.872  24.012  11.375
51502W        W23828  17.158   1.923  13.924
51503W        W23829  25.533  41.450   9.952
51504W        W23830  25.606  11.731  14.864
51505W        W23831  40.515   0.807  12.094
51506W        W23832  27.078  17.793   4.248
51507W        W23833  32.459  29.458  11.071
51508W        W23834  44.302  33.025   2.845
51509W        W23835  41.819  14.276  13.526
51510W        W23836   8.383  35.413   1.254
51511W        W23837   5.736  20.568  13.527
51512W        W23838   6.283  25.152  13.429
51513W        W23839  17.641   1.456  12.419
51514W        W23840  33.064  28.168  10.553
51515W        W23841  12.682  39.525   3.842
51516W        W23842  16.196  18.118   4.786
51517W        W23843  25.056  34.008   3.278
51518W        W23844   7.340  15.703   3.235
51519W        W23845  24.698  40.344   3.841
51520W        W23846  40.888  19.098  12.382
51521W        W23847  23.120   6.896  11.479
51522W        W23848  42.504  15.781  11.098
51523W        W23849  32.612  14.742   0.949
51524W        W23850  19.749   1.977  13.977
51525W        W23851  42.435  38.488  12.471
51526W        W23852   8.838   3.291  13.504
51527W        W23853  44.391   1.824   2.797
51528W        W23854  10.752  44.838  14.287
51529W        W23855   3.455  35.942   1.380
51530W        W23856   0.350  38.554   4.154
51531W        W23857  22.151  11.213  12.447
51532W        W23858  21.652  24.711  13.318
51533W        W23859   9.704   7.851   0.480
51534W        W23860  19.224  21.044   1.289
51535W        W23861  37.347  21.115  12.935
51536W        W23862   9.330   4.340   3.746
51537W        W23863  24.134  22.515   0.732
51538W        W23864  15.178  10.743  11.078
51539W        W23865  19.147  19.658   1.396
51540W        W23866  31.578  12.838  14.800
51541W        W23867  40.829  18.111   0.757
51542W        W23868   4.286  31.040   4.600
51543W        W23869   8.300   0.313   2.293
51544W        W23870   7.681   5.265   2.390
51545W        W23871  26.984  37.530  11.897
51546W        W23872  33.958  30.504  13.459
51547W        W23873  27.664  31.149  10.531
51548W        W23874   2.403  41.866  14.435
51549W        W23875  23.571  34.900  10.452
51550W        W23876  31.957  28.596  13.975
51551W        W23877  34.927  42.948  13.469
51552W        W23878  44.838  12.816   2.256
51553W        W23879  15.171  16.150   2.834
51554W        W23880   8.180  35.443   1.737
51555W        W23881  18.217  35.395  12.936
51556W        W23882  11.636  16.131   4.758
51557W        W23883  21.635  40.310   4.838
51558W        W23884  11.680  17.637   0.247
51559W        W23885   4.361  31.145   3.641
51560W        W23886  29.613  22.191   2.690
51561W        W23887  32.483  33.517  11.409
51562W        W23888  42.850  43.938   0.300
51563W        W23889  11.347  15.157   1.752
51564W        W23890  18.126  20.259  13.339
51565W        W23891  19.193  43.486   3.274
51566W        W23892  18.743   8.833  12.871
51567W        W23893  33.537  22.634   1.283
51568W        W23894   0.806   3.946   4.252
51569W        W23895  12.612  44.794   2.712
51570W        W23896  14.617  43.016   3.260
51571W        W23897  36.529  23.591  14.961
51572W        W23898  35.907  34.452  10.458
51573W        W23899  30.035  44.324   3.762
51574W        W23900  16.231  30.055   2.745
51575W        W23901  29.945  28.590   3.740
51576W        W23902   7.265  19.576   2.834
51577W        W23903  13.188   1.365   3.760
51578W        W23904  44.392   1.356   4.675
51579W        W23905  39.344   0.854   1.696
51580W        W23906  11.629  10.349  13.972
51581W        W23907   8.223  40.010  13.491
51582W        W23908   1.340   2.937  12.499
51583W        W23909  21.105  40.373   3.165
51584W        W23910  25.218  39.873   1.829
51585W        W23911  23.203  26.953   2.790
51586W        W23912  33.035   2.442   2.821
51587W        W23913  22.611  13.219   0.275
51588W        W23914  10.694  36.083   2.795
51589W        W23915   6.371   1.261  11.427
51590W        W23916  19.585  16.767   0.786
51591W        W23917  28.116  32.394  10.971
51592W        W23918  26.601   3.936  10.537
51593W        W23919  29.147  20.049  11.962
51594W        W23920  39.497  40.010  14.959
51595W        W23921  33.481  25.517   0.459
51596W        W23922  32.563  21.082  10.596
51597W        W23923  17.133   4.380  11.458
51598W        W23924  40.903  41.300   3.320
51599W        W23925  29.949  28.626   0.315
51600W        W23926   6.209   7.219  12.387
51601W        W23927   4.758  31.113  14.305
51602W        W23928  14.241  17.614   1.796
51603W        W23929  12.749  28.517  12.875
51604W        W23930   1.844   6.882   2.225
51605W        W23931   7.253  11.248  13.367
51606W        W23932  24.480   5.364  11.425
51607W        W23933  43.000  20.670   0.481
51608W        W23934   3.790  10.678  12.062
51609W        W23935  21.637  22.633   1.434
51610W        W23936  14.096  43.420   5.306
51611W        W23937  26.473  34.580   3.242
51612W        W23938  43.947  42.358   3.846
51613W        W23939  13.743  22.735   1.897
51614W        W23940  15.623  41.310  11.443
51615W        W23941  30.028  11.733   2.861
51616W        W23942  16.124  40.998   1.779
51617W        W23943  13.806  10.723  10.950
51618W        W23944   5.689  13.748   1.850
51619W        W23945  34.575  14.700  12.575
51620W        W23946  34.548  31.642  11.112
51621W        W23947  44.437   8.162   0.365
51622W        W23948  22.128  17.144  13.442
51623W        W23949  28.598  36.503   0.399
51624W        W23950   5.298  34.916   3.261
51625W        W23951   4.265   9.853   9.618
51626W        W23952   8.357  18.288  14.018
51627W        W23953  13.763   6.909   1.708
51628W        W23954   8.779   7.840   2.879
51629W        W23955   7.172  12.356  11.048
51630W        W23956  40.963  20.125  12.451
51631W        W23957   4.353  15.722   1.768
51632W        W23958  38.510  38.926  13.343
51633W        W23959  14.134   0.814   3.786
51634W        W23960  22.150  19.573   3.854
51635W        W23961   5.426  31.987   2.249
51636W        W23962  12.328  24.549   5.246
51637W        W23963  12.667  37.086  12.932
51638W        W23964  24.629  44.819   2.349
51639W        W23965  43.385  11.864   0.859
51640W        W23966   9.187  36.952  11.958
51641W        W23967  43.344  38.069   4.306
51642W        W23968  34.586  24.711   4.347
51643W        W23969  19.176  16.111   3.384
51644W        W23970  30.926  18.680   1.423
51645W        W23971  18.683   8.682  12.490
51646W        W23972  31.102   0.428  12.475
51647W        W23973  12.333  18.611   0.290
51648W        W23974  19.640  15.768  13.961
51649W        W23975   4.866  22.024  10.017
51650W        W23976  29.159  17.580   0.316
51651W        W23977  40.958  22.205   2.832
51652W        W23978  22.509  20.551  14.816
51653W        W23979  23.007   0.927   4.163
51654W        W23980  20.239  25.625  11.465
51655W        W23981  34.094   4.293  10.934
51656W        W23982  36.877  40.838   3.224
51657W        W23983  17.739  42.990   4.282
51658W        W23984  19.682  40.932   3.346
51659W        W23985  36.504  35.412  11.388
51660W        W23986  27.163   7.714   0.342
51661W        W23987  16.135   1.348   4.210
51662W        W23988  24.050   0.861  12.036
51663W        W23989  25.660  43.356   0.861
51664W        W23990  38.363  20.640   4.679
51665W        W23991  34.563  27.585   4.167
51666W        W23992  31.534  23.577  12.578
51667W        W23993   9.687   0.425  10.499
51668W        W23994   4.874  21.093  13.993
51669W        W23995  43.406   8.673  14.388
51670W        W23996  30.608  24.067  14.343
51671W        W23997  20.651  15.658   4.770
51672W        W23998  16.251  26.014   3.865
51673W        W23999  12.618  43.284  12.483
51674W        W24000   0.750  11.828   2.743
51675W        W24001  28.531  24.193   4.129
51676W        W24002   2.335  13.191   0.903
51677W        W24003  40.412  36.392  12.892
51678W        W24004   2.330  15.719   4.617
51679W        W24005  30.946   4.942   2.407
51680W        W24006  17.251  41.421   2.317
51681W        W24007  37.903  38.856   3.376
51682W        W24008  39.841  10.816  12.435
51683W        W24009  11.127   7.829   3.360
51684W        W24010   3.866   6.265  12.993
51685W        W24011  20.524  21.686   3.720
51686W        W24012  42.923   0.913  11.948
51687W        W24013  19.215  28.090  12.547
51688W        W24014   4.294   9.185  10.590
51689W        W24015   1.424  36.097  11.484
51690W        W24016  24.026   3.333  10.952
51691W        W24017  21.178  35.461  10.436
51692W        W24018  18.117   8.193   1.837
51693W        W24019  25.089   8.307   1.926
51694W        W24020   9.184   1.355   2.804
51695W        W24021   3.883  25.050  13.498
51696W        W24022  40.879   3.284  12.903
51697W        W24023  20.174  29.091  13.464
51698W        W24024  42.456   6.707  13.056
51699W        W24025   3.727  41.310  14.011
51700W        W24026  24.229  11.272  11.874
51701W        W24027  40.426  27.532  12.499
51702W        W24028  18.763  22.078   4.736
51703W        W24029   6.736  35.019  10.467
51704W        W24030  35.397  43.486  11.996
51705W        W24031  31.502  23.529   3.785
51706W        W24032  15.085  21.214  14.775
51707W        W24033   5.753   7.823   0.852
51708W        W24034   6.746  35.578   3.183
51709W        W24035  21.732  30.972   4.278
51710W        W24036   4.932  30.556   1.737
51711W        W24037  35.520  19.079   4.681
51712W        W24038  13.303   9.159   0.319
51713W        W24039  39.003   6.695   4.671
51714W        W24040  18.154  23.616   4.227
51715W        W24041   3.380  33.485   4.125
51716W        W24042  20.694  35.484  10.490
51717W        W24043  23.605  35.016  13.917
51718W        W24044  12.315   8.884   2.793
51719W        W24045  34.016  12.822  13.806
51720W        W24046  16.659   6.818   1.805
51721W        W24047  29.537  35.576   1.450
51722W        W24048  32.553   8.349  11.574
51723W        W24049  35.082  26.681   3.664
51724W        W24050  42.447  13.161   3.757
51725W        W24051  11.192  27.504   1.736
51726W        W24052  35.585   2.743   1.866
51727W        W24053  12.321  41.425   1.862
51728W        W24054  20.528  13.771   0.835
51729W        W24055  22.548  26.487  10.130
51730W        W24056  27.021  28.073   5.793
51731W        W24057  39.530   5.840  12.381
51732W        W24058   7.195  27.472   0.268
51733W        W24059  35.436  10.663   5.644
51734W        W24060  32.556  19.721  12.393
51735W        W24061  28.974  11.351   3.343
51736W        W24062  36.036   4.262  11.880
51737W        W24063  12.159  31.937   1.918
51738W        W24064  23.581   0.430  14.425
51739W        W24065  23.036   7.403   4.291
51740W        W24066   2.255  37.950   3.837
51741W        W24067  16.103   1.382   2.901
51742W        W24068  26.189  44.883  10.908
51743W        W24069   0.968  25.498   3.720
51744W        W24070  23.652  40.472  14.764
51745W        W24071  42.849  15.759   1.330
51746W        W24072   0.899  14.615  12.941
51747W        W24073  11.784  30.104  12.837
51748W        W24074   1.298  33.075   0.409
51749W        W24075  21.556  30.984  14.799
51750W        W24076  12.234  43.880   1.709
51751W        W24077  11.816  36.402  14.471
51752W        W24078  13.638  11.816  11.608
51753W        W24079  33.005   6.785  14.343
51754W        W24080  40.373  26.157  11.449
51755W        W24081   2.944   6.216   2.197
51756W        W24082  10.845  42.887  11.005
51757W        W24083  34.381  19.061  14.391
51758W        W24084  40.458   3.728  14.848
51759W        W24085  25.522  27.054  14.470
51760W        W24086   1.477  11.234   5.257
51761W        W24087   1.937  38.398  13.529
51762W        W24088  22.521  43.804  12.985
51763W        W24089   2.928  22.612  13.049
51764W        W24090   0.478  19.631   0.963
51765W        W24091  31.050  11.182  14.836
51766W        W24092  28.047  44.804   2.333
51767W        W24093   5.899  21.757   4.156
51768W        W24094   8.853   6.915   3.148
51769W        W24095   9.644  25.207   0.321
51770W        W24096  24.028   3.442   3.842
51771W        W24097  19.228  18.668   3.653
51772W        W24098  39.912   4.335   0.762
51773W        W24099  42.432   8.246  12.963
51774W        W24100  20.102  42.794  14.429
51775W        W24101  24.710  38.973   2.886
51776W        W24102  20.075  14.147   1.316
51777W        W24103   8.796  27.009  10.448
51778W        W24104  33.129  40.982  13.533
51779W        W24105   7.408  16.093  12.484
51780W        W24106  44.365  19.259   1.451
51781W        W24107  12.809   3.944  13.965
51782W        W24108  33.412  22.043  10.921
51783W        W24109   5.347  12.670   4.734
51784W        W24110  33.462  22.079  11.515
51785W        W24111   8.778  15.769   3.670
51786W        W24112   2.792  20.724  13.842
51787W        W24113  27.028   5.253   2.687
51788W        W24114  27.096  28.594   0.429
51789W        W24115  37.955   6.805   1.841
51790W        W24116  29.050  24.650  13.850
51791W        W24117  17.087   8.679  14.780
51792W        W24118  22.685  44.798   0.432
51793W        W24119   2.873  36.576   3.269
51794W        W24120  25.216  26.194  11.858
51795W        W24121  40.853  27.952  11.483
51796W        W24122  10.278  29.057  13.546
51797W        W24123  44.911  29.544   4.716
51798W        W24124  43.789   1.931  11.545
51799W        W24125  44.837  32.536  11.060
51800W        W24126  18.165  40.872   3.772
51801W        W24127  18.552   9.292  11.552
51802W        W24128  14.754  30.007   3.182
51803W        W24129  20.687  40.987  13.377
51804W        W24130   5.702   9.734   4.328
51805W        W24131  10.715  14.207  12.930
51806W        W24132  11.841  32.886  14.880
51807W        W24133   8.678  11.801  14.981
51808W        W24134  11.210  30.541  11.422
51809W        W24135  14.201  32.901   3.340
51810W        W24136  40.424  23.641   3.263
51811W        W24137  17.148  38.556   3.171
51812W        W24138   8.338  23.079  10.611
51813W        W24139  28.112  44.891   2.869
51814W        W24140  13.242  40.832   0.731
51815W        W24141   0.295  36.438   1.444
51816W        W24142  43.902  18.637  14.500
51817W        W24143  11.694   3.328   2.400
51818W        W24144   5.325  21.606  14.837
51819W        W24145  25.205  12.336   4.718
51820W        W24146  41.860  41.820   2.870
51821W        W24147  15.645  14.299  12.094
51822W        W24148  44.474   9.331   3.758
51823W        W24149  23.108  33.033   3.146
51824W        W24150   8.666  24.057  12.059
51825W        W24151  30.508  21.741   1.390
51826W        W24152  15.583  12.774  12.828
51827W        W24153   6.842   7.774   3.727
51828W        W24154  11.301  32.997   2.689
51829W        W24155  43.779  21.041   4.164
51830W        W24156   7.761  43.800   3.209
51831W        W24157  37.424  38.974  11.024
51832W        W24158  43.330  28.554  14.394
51833W        W24159  34.043  42.492   4.645
51834W        W24160  25.172  39.835  12.031
51835W        W24161  10.287  30.056   1.443
51836W        W24162  37.832  37.060   4.148
51837W        W24163  17.089   0.890   4.778
51838W        W24164  17.197  20.710  14.830
51839W        W24165   9.723  27.177  13.487
51840W        W24166  32.429  20.687   0.743
51841W        W24167  13.740  37.033   2.867
51842W        W24168  17.201  40.031   5.222
51843W        W24169  27.548  38.913  13.824
51844W        W24170  19.179  26.970  14.935
51845W        W24171  34.981  31.936   1.905
51846W        W24172  38.891  17.276   3.675
51847W        W24173  25.487  18.284  13.896
51848W        W24174  30.933  30.614  12.559
51849W        W24175  17.615   3.392   3.822
51850W        W24176  16.187  17.788   3.203
51851W        W24177  23.577  15.771   0.957
51852W        W24178  30.130  36.373  14.354
51853W        W24179  38.997   6.703   0.270
51854W        W24180  44.276  36.375   2.827
51855W        W24181  29.105  19.159  10.604
51856W        W24182  22.187  16.168  10.143
51857W        W24183  44.807  12.228  14.512
51858W        W24184  37.374  29.562   4.598
51859W        W24185   4.390  26.670  13.446
51860W        W24186   5.762  13.829   3.378
51861W        W24187   5.743  13.814  12.450
51862W        W24188   5.839  23.661   4.241
51863W        W24189  17.091   8.365  12.009
51864W        W24190  37.934  43.976   4.218
51865W        W24191  24.708   9.696  14.897
51866W        W24192   4.359  18.272  12.553
51867W        W24193  31.030  10.314  10.958
51868W        W24194  16.609  30.540  12.549
51869W        W24195  25.030  20.693   2.678
51870W        W24196  31.464  19.215  11.900
51871W        W24197  15.280  38.539  12.549
51872W        W24198   7.879  31.484  14.990
51873W        W24199  38.481  25.189   1.405
51874W        W24200  35.901  24.208  13.871
51875W        W24201  33.425   3.730  13.307
51876W        W24202  39.364  25.059  12.507
51877W        W24203   5.723   6.851   4.808
51878W        W24204  23.658   9.291  12.839
51879W        W24205  25.501  21.033  10.031
51880W        W24206  10.756  10.812   4.721
51881W        W24207  23.045  16.578  11.597
51882W        W24208  28.494  23.705   1.883
51883W        W24209   7.201  24.003   4.746
51884W        W24210  36.512   4.716   2.297
51885W        W24211   8.807  15.126   4.182
51886W        W24212  17.594  29.529   0.907
51887W        W24213  41.345   7.205   1.426
51888W        W24214   0.311  29.111  12.500
51889W        W24215   6.862   8.272   3.856
51890W        W24216   7.228  10.347  11.002
51891W        W24217   9.787  17.257  12.361
51892W        W24218  22.120  22.518   2.202
51893W        W24219  35.452  18.572  14.014
51894W        W24220  33.495  24.974   3.307
51895W        W24221  23.641   4.935  14.497
51896W        W24222  38.923   7.250   1.248
51897W        W24223  11.723   6.860  12.411
51898W        W24224  27.476   0.819  10.921
51899W        W24225  38.910  42.299  10.939
51900W        W24226  36.523  28.666  14.342
51901W        W24227  27.556  28.642  14.950
51902W        W24228  24.974  31.639   1.878
51903W        W24229  43.413  26.579  14.933
51904W        W24230   3.398   2.754   1.332
51905W        W24231  13.784   8.320   4.320
51906W        W24232   5.372  44.424   3.344
51907W        W24233  29.162  34.395   0.283
51908W        W24234  11.371  38.933   0.404
51909W        W24235   8.323   8.198   3.291
51910W        W24236   2.857  40.824   2.693
51911W        W24237   4.319  44.847   4.805
51912W        W24238   0.791  35.906  11.590
51913W        W24239  11.671  40.447  14.010
51914W        W24240  27.667  33.063   4.270
51915W        W24241  23.009  22.572  12.046
51916W        W24242  33.017  34.072   0.385
51917W        W24243  44.811  25.109   0.763
51918W        W24244  37.502   6.850   3.822
51919W        W24245  44.318  14.238  13.064
51920W        W24246  34.989  43.384   1.820
51921W        W24247  39.377  36.508   1.397
51922W        W24248  20.148   0.458   0.250
51923W        W24249  21.054  20.660   0.479
51924W        W24250  39.446  41.466  10.644
51925W        W24251  17.709  26.645   4.238
51926W        W24252  28.448  12.218  13.430
51927W        W24253  37.862  15.696   2.835
51928W        W24254  27.489  32.419   3.179
51929W        W24255  32.493  19.072   3.176
51930W        W24256  28.521  24.653  12.036
51931W        W24257  31.430  23.735  14.398
51932W        W24258  43.394  37.896   2.275
51933W        W24259  43.944  27.640  13.381
51934W        W24260   8.859  31.100   3.173
51935W        W24261  23.992  39.543  10.568
51936W        W24262  40.040  10.665   4.275
51937W        W24263  21.196   1.395  13.508
51938W        W24264  25.631  19.129   0.346
51939W        W24265  33.614  44.343  12.569
51940W        W24266   8.830  18.651   0.754
51941W        W24267  10.715  13.117   4.738
51942W        W24268  35.001  19.202   3.208
51943W        W24269   7.283  32.521  14.329
51944W        W24270  16.076  26.206  12.077
51945W        W24271  40.889  19.758  11.909
51946W        W24272  13.689   2.962  12.476
51947W        W24273   6.692  39.891   1.252
51948W        W24274  36.977  34.532   4.695
51949W        W24275  26.998   5.703   2.254
51950W        W24276  26.142   3.905   1.357
51951W        W24277  37.845  35.495  10.989
51952W        W24278  40.344  29.095  14.284
51953W        W24279  30.151  43.934   2.303
51954W        W24280  22.018  34.533   2.677
51955W        W24281  17.099   1.751  12.065
51956W        W24282  19.575  20.606   2.335
51957W        W24283  17.706  23.233  13.422
51958W        W24284  23.694  17.276   4.821
51959W        W24285   3.749   2.793  11.409
51960W        W24286  38.488  38.969  11.976
51961W        W24287   1.458  25.601  13.900
51962W        W24288   7.742  20.168   0.954
51963W        W24289  44.936  11.655  10.999
51964W        W24290  40.529  22.598  10.569
51965W        W24291   2.378   5.925   0.936
51966W        W24292  27.139  18.739  14.808
51967W        W24293  15.755   9.806   3.843
51968W        W24294  17.285  15.164  11.114
51969W        W24295  27.601   7.300   0.453
51970W        W24296  36.536  37.493   4.189
51971W        W24297   2.407  15.610  10.053
51972W        W24298   3.231   4.714  12.510
51973W        W24299  30.068  18.061   2.291
51974W        W24300   9.288  35.392  13.912
51975W        W24301  19.703  12.626   1.909
51976W        W24302  24.201  12.181   1.722
51977W        W24303  35.393  34.461   0.920
51978W        W24304  18.149  14.638  14.430
51979W        W24305  10.264  35.951  12.935
51980W        W24306  19.107  19.602   3.830
51981W        W24307  12.733  31.519  11.069
51982W        W24308  39.913  39.061   4.666
51983W        W24309  24.119  33.924   4.266
51984W        W24310  25.679  26.089  14.420
51985W        W24311  27.019  12.759   3.812
51986W        W24312  15.813   8.346  11.887
51987W        W24313  38.443   7.814   2.199
51988W        W24314   6.885  29.922  13.309
51989W        W24315  20.655  26.200   4.278
51990W        W24316  13.728   2.313  14.776
51991W        W24317   8.171  30.966   4.141
51992W        W24318  34.534  17.583   4.148
51993W        W24319  17.294  34.443   4.303
51994W        W24320  36.088  38.909   3.330
51995W        W24321  10.732  43.944   3.257
51996W        W24322  36.402  35.451  14.007
51997W        W24323  38.017  28.032   4.684
51998W        W24324  37.393   1.443  14.407
51999W        W24325  43.473  32.408   1.909
52000W        W24326  44.298  27.993  11.422
52001W        W24327  40.422  24.222  13.545
52002W        W24328   7.727  17.699  11.453
52003W        W24329   8.868  35.920  12.842
52004W        W24330  11.292   3.325  11.418
52005W        W24331  22.128   8.261   0.296
52006W        W24332  31.984  36.397  14.903
52007W        W24333   6.406  24.578  10.618
52008W        W24334   8.719  10.332  14.460
52009W        W24335   5.734  20.269   0.902
52010W        W24336  42.934  21.167   2.870
52011W        W24337  10.273  16.172  14.925
52012W        W24338  13.696   5.772   0.373
52013W        W24339  10.345  33.502   1.215
52014W        W24340  26.991  18.790  11.460
52015W        W24341  37.504  44.268  11.527
52016W        W24342   0.427  33.097  10.525
52017W        W24343  38.012  29.640   4.151
52018W        W24344  39.477   1.858  12.053
52019W        W24345   3.439  36.398   0.275
52020W        W24346  38.926   6.343  11.885
52021W        W24347  34.072   7.689  12.052
52022W        W24348  36.035  23.203   1.327
52023W        W24349   5.391  10.301  12.859
52024W        W24350   2.959  34.995   4.614
52025W        W24351  34.498  24.081   0.775
52026W        W24352  30.554   4.871   2.185
52027W        W24353  33.979  28.598   1.719
52028W        W24354  29.447  25.493   3.655
52029W        W24355  28.117  41.803  13.054
52030W        W24356   7.207   3.729  11.098
52031W        W24357  22.736   3.828   2.236
52032W        W24358   6.774  10.756  14.025
52033W        W24359   1.887  36.024   2.252
52034W        W24360  21.124  40.030   3.238
52035W        W24361  29.524  36.395  10.474
52036W        W24362  17.265  10.713   2.232
52037W        W24363   4.226  21.541  14.347
52038W        W24364  29.062   4.308  11.087
52039W        W24365  16.811  11.252   4.719
52040W        W24366  31.037  16.126   3.171
52041W        W24367  15.659  43.821  12.046
52042W        W24368  34.407  18.199   4.113
52043W        W24369  30.624   1.914   3.679
52044W        W24370  25.594  17.114  10.986
52045W        W24371  23.014  32.627  11.083
52046W        W24372  19.711   9.295   4.308
52047W        W24373  23.495  15.719  14.768
52048W        W24374  37.077  35.599   0.728
52049W        W24375  41.923  43.484  10.472
52050W        W24376  28.105   0.943  11.068
52051W        W24377  12.359  37.901  12.066
52052W        W24378  31.901  31.055  10.592
52053W        W24379  44.879  39.845   1.905
52054W        W24380  11.769   2.837   4.262
52055W        W24381  27.067  14.739  13.334
52056W        W24382  44.275  25.017  11.387
52057W        W24383  12.256   1.424   1.702
52058W        W24384  32.987  27.645   3.755
52059W        W24385  37.906  26.630  14.003
52060W        W24386  36.516   6.853   4.214
52061W        W24387  30.086  10.786   2.341
52062W        W24388  33.416  36.525   1.789
52063W        W24389   7.216  12.697  11.027
52064W        W24390   1.263  27.970   4.324
52065W        W24391  36.083  20.762   4.644
52066W        W24392  38.011  29.473   1.753
52067W        W24393   7.750  35.903  11.067
52068W        W24394   2.844  27.653   4.179
52069W        W24395  15.799   1.942   0.750
52070W        W24396  28.066  20.069   0.756
52071W        W24397   5.367  32.622   0.813
52072W        W24398  36.061  35.444   5.300
52073W        W24399  24.087  33.434   0.827
52074W        W24400  12.770  11.179  11.601
52075W        W24401   4.402  14.173  14.310
52076W        W24402   2.361  44.350   0.462
52077W        W24403  38.932  35.578  10.596
52078W        W24404  35.087  22.169  12.011
52079W        W24405   9.196   2.469   2.294
52080W        W24406   5.861  10.732  14.853
52081W        W24407  39.503  37.536  10.958
52082W        W24408  35.944  26.646   2.391
52083W        W24409  37.383   1.380   3.841
52084W        W24410  44.479  43.480  14.494
52085W        W24411  21.128  38.862   1.727
52086W        W24412   4.854  17.774  12.436
52087W        W24413  32.581  16.621  13.843
52088W        W24414  15.744   7.233  13.409
52089W        W24415  44.301  18.084  10.905
52090W        W24416   7.733  22.025   1.846
52091W        W24417  36.874  33.916  14.430
52092W        W24418  41.385  31.123  11.371
52093W        W24419   3.297  27.032   3.742
52094W        W24420   0.928   1.319  10.528
52095W        W24421  29.604  22.110   1.721
52096W        W24422  19.603   8.894   4.797
52097W        W24423  33.940  19.579   2.286
52098W        W24424  25.630  15.196   4.759
52099W        W24425  43.358  11.267   3.840
52100W        W24426   4.877  39.868   2.226
52101W        W24427  38.518  28.945  10.408
52102W        W24428  16.780   0.751   0.916
52103W        W24429  13.765   8.250  13.798
52104W        W24430  44.981  21.058   1.349
52105W        W24431  42.409   4.714  14.950
52106W        W24432  42.905   6.687   4.200
52107W        W24433  18.615  20.578  11.095
52108W        W24434  12.348  15.765   4.633
52109W        W24435   3.295  11.195   9.932
52110W        W24436  11.215  42.810  14.771
52111W        W24437  26.600  28.998  11.858
52112W        W24438   7.849  40.920   4.730
52113W        W24439   0.887  22.698   3.208
52114W        W24440  26.101   8.215   1.224
52115W        W24441  10.339  26.633   3.688
52116W        W24442   4.845   1.266  12.564
52117W        W24443  23.196  17.133   2.840
52118W        W24444  28.007  26.468  12.343
52119W        W24445  24.227  36.029   0.854
52120W        W24446  30.982  41.370   3.839
52121W        W24447  21.190  30.042   4.808
52122W        W24448   3.939  24.121   1.230
52123W        W24449  22.508   0.971  12.861
52124W        W24450  27.175  32.013   1.804
52125W        W24451  24.066  26.515  10.454
52126W        W24452  10.227  44.483   3.194
52127W        W24453  16.773   6.686  11.041
52128W        W24454  10.853   1.837  10.453
52129W        W24455  25.992   8.794  14.764
52130W        W24456   2.950  27.450   2.413
52131W        W24457  27.605   4.838   0.824
52132W        W24458  11.305  39.814  14.290
52133W        W24459  28.673   1.970  13.436
52134W        W24460   8.750  24.590  11.470
52135W        W24461  34.068   1.780   2.835
52136W        W24462  21.612  16.579   0.272
52137W        W24463  30.504   4.340   2.848
52138W        W24464  34.438  15.191  14.835
52139W        W24465  31.605   1.294   2.740
52140W        W24466  11.313  35.428  14.482
52141W        W24467  22.695  33.097  12.942
52142W        W24468  39.860  42.347   3.266
52143W        W24469  42.494  43.292  10.940
52144W        W24470  30.032  39.482   4.273
52145W        W24471  16.295  30.457   2.367
52146W        W24472  35.489  34.449   3.828
52147W        W24473  34.575  26.006  11.086
52148W        W24474  26.967  41.420   0.940
52149W        W24475  34.546  31.940  11.372
52150W        W24476  42.486  30.560   2.268
52151W        W24477  22.556  22.189   2.323
52152W        W24478  20.750   3.773  13.810
52153W        W24479  26.208  33.530   0.336
52154W        W24480  40.523  20.192   2.266
52155W        W24481  12.186  10.190   2.224
52156W        W24482  21.675  27.447  12.485
52157W        W24483  16.666  41.899   0.306
52158W        W24484  33.092  28.578   2.250
52159W        W24485  41.793   3.323  13.922
52160W        W24486  13.235   3.318   3.318
52161W        W24487   5.914  38.552  11.608
52162W        W24488  27.641  39.976  11.855
52163W        W24489   1.351   1.398  11.079
52164W        W24490  17.299  16.250  12.026
52165W        W24491  36.391  22.546   2.716
52166W        W24492  32.951   7.213   4.334
52167W        W24493  15.280  22.723  14.931
52168W        W24494  33.469  29.128   1.334
52169W        W24495  31.465  34.883  11.468
52170W        W24496  26.661  13.721   2.892
52171W        W24497  21.646   9.174  11.098
52172W        W24498  20.698  26.475  13.312
52173W        W24499  16.639  28.178  14.447
52174W        W24500  28.540   5.729  14.814
52175W        W24501   2.393  31.427   0.316
52176W        W24502  13.805  32.637  11.567
52177W        W24503  28.674  28.565   3.333
52178W        W24504  12.276  23.585  11.554
52179W        W24505  14.669   5.288   1.223
52180W        W24506   6.246  42.904  13.042
52181W        W24507  36.518  17.597   4.185
52182W        W24508  33.905  32.967   0.409
52183W        W24509  34.499  44.409  11.472
52184W        W24510  22.726  40.396  12.088
52185W        W24511  40.861  32.428   0.728
52186W        W24512  44.408   0.341   4.657
52187W        W24513  11.818  27.006  12.463
52188W        W24514  44.297   5.282  13.957
52189W        W24515  28.983  24.664   3.223
52190W        W24516   4.893  23.620  13.345
52191W        W24517  38.037  25.618   0.870
52192W        W24518  26.067  30.048   4.159
52193W        W24519  36.885  26.596  14.435
52194W        W24520  38.481  41.944  14.847
52195W        W24521  31.040   3.264   1.373
52196W        W24522   9.167   6.850  14.966
52197W        W24523  40.817  44.885   2.366
52198W        W24524  37.042   9.304   2.198
52199W        W24525  39.544  37.992   4.165
52200W        W24526   4.745  22.576   2.775
52201W        W24527  40.463  13.736  10.610
52202W        W24528  25.087  17.214  13.486
52203W        W24529   5.860  11.328   3.157
52204W        W24530   2.887   6.911  10.459
52205W        W24531   7.729   7.695   3.203
52206W        W24532  43.270   3.871   0.409
52207W        W24533  33.508  17.660  10.405
52208W        W24534   3.444  18.225  13.838
52209W        W24535  27.107  11.195  13.001
52210W        W24536  23.999   8.348   2.677
52211W        W24537  15.122   0.979  13.443
52212W        W24538   6.310  44.934  14.990
52213W        W24539  22.602  28.087  11.522
52214W        W24540  23.057  25.109  10.978
52215W        W24541  34.423  34.868   1.921
52216W        W24542  44.296   1.294   1.733
52217W        W24543  23.027  13.666   2.200
52218W        W24544  21.633  19.181   1.235
52219W        W24545  41.503  16.798  12.848
52220W        W24546  17.267  15.272  11.556
52221W        W24547  12.733  36.970   2.845
52222W        W24548   1.903  30.071  10.458
52223W        W24549  10.806  42.358  11.552
52224W        W24550   4.706   1.455   4.197
52225W        W24551  32.537   4.905  14.346
52226W        W24552  10.193   1.339   1.819
52227W        W24553  40.817  29.630  14.002
52228W        W24554  43.819   2.728   3.776
52229W        W24555  37.974  34.908   4.681
52230W        W24556   3.361   5.377  12.928
52231W        W24557  29.147   4.428  14.761
52232W        W24558  32.109  14.143   4.753
52233W        W24559   5.330   2.875  13.452
52234W        W24560   7.806  26.480   1.284
52235W        W24561  20.076  17.108   1.235
52236W        W24562  28.059  11.329  10.499
52237W        W24563  25.517  19.040   3.158
52238W        W24564  33.882  41.361   0.348
52239W        W24565  18.716  41.997   3.160
52240W        W24566   7.292   5.305  14.306
52241W        W24567  42.524   6.261  13.049
52242W        W24568   4.912   4.445  13.324
52243W        W24569   7.786  26.523   5.143
52244W        W24570  44.493  10.728   4.142
52245W        W24571  37.008  26.125   0.741
52246W        W24572   0.386  17.619   3.288
52247W        W24573  42.799  22.624   4.271
52248W        W24574  17.287  35.469  13.506
52249W        W24575   0.412   1.373   1.231
52250W        W24576  28.083  44.872  14.895
52251W        W24577   6.277   4.779  11.599
52252W        W24578  13.338   6.388  14.981
52253W        W24579  37.439   4.795   4.117
52254W        W24580  30.537  39.553   1.783
52255W        W24581  42.977  37.870  12.482
52256W        W24582  17.185  18.638   3.368
52257W        W24583  41.325  25.486   4.203
52258W        W24584  27.129  20.643  11.580
52259W        W24585  15.282   0.828  13.904
52260W        W24586  20.081  10.808  12.066
52261W        W24587  43.802  14.276  14.375
52262W        W24588   2.941  12.296   3.286
52263W        W24589  19.214  40.855  14.766
52264W        W24590  34.873  32.514   2.789
52265W        W24591  40.419  33.545   9.994
52266W        W24592  24.698  19.205  14.329
52267W        W24593  10.259  35.018   0.780
52268W        W24594   0.277  18.672  14.340
52269W        W24595   9.195  22.709  11.937
52270W        W24596  25.194  30.051  10.439
52271W        W24597  38.071  39.402  11.597
52272W        W24598  19.200  43.402  12.980
52273W        W24599   7.287  40.547  11.881
52274W        W24600  22.741  31.448   2.316
52275W        W24601  37.346  16.599   2.834
52276W        W24602  31.627  10.864  12.492
52277W        W24603  36.936  31.444  13.471
52278W        W24604   1.867   5.780  12.378
52279W        W24605  18.645  43.786   0.448
52280W        W24606   3.453  36.902   3.665
52281W        W24607   0.442   1.760  11.466
52282W        W24608  30.063  23.033  12.856
52283W        W24609  16.628  20.532   1.357
52284W        W24610   5.710  13.219  10.981
52285W        W24611  18.566   2.375  11.472
52286W        W24612  13.627   4.212   3.771
52287W        W24613  43.365  13.728  14.286
52288W        W24614  13.114  37.905   2.769
52289W        W24615  27.982  26.601  13.881
52290W        W24616  29.472  26.954  13.008
52291W        W24617  39.024  43.854  13.978
52292W        W24618  24.048  31.116   4.766
52293W        W24619   3.343   2.872  10.514
52294W        W24620  33.040  35.045   5.148
52295W        W24621  41.349  28.011   1.431
52296W        W24622  15.102  28.157  12.518
52297W        W24623   7.172  39.482  10.445
52298W        W24624  44.865  40.368   4.664
52299W        W24625  35.403  44.940   3.307
52300W        W24626   2.248  36.999   2.729
52301W        W24627  35.065   9.228  12.865
52302W        W24628  12.856  16.687  10.928
52303W        W24629  26.591   9.321  11.527
52304W        W24630  39.868  30.620  14.498
52305W        W24631  12.220   2.912  12.436
52306W        W24632  11.717  29.090  14.477
52307W        W24633  32.399  33.440   3.746
52308W        W24634   3.443  36.022   1.734
52309W        W24635  37.945  25.115  12.555
52310W        W24636  34.429  14.340   4.211
52311W        W24637  10.331  42.865  13.541
52312W        W24638  41.805   2.374   4.612
52313W        W24639   0.417  23.062  11.594
52314W        W24640  10.181  25.972   3.630
52315W        W24641  11.269  37.979   1.895
52316W        W24642  18.559  18.143  10.446
52317W        W24643  28.057  34.061   0.743
52318W        W24644   1.765   7.338   1.382
52319W        W24645  44.418  30.470  12.568
52320W        W24646   0.493  10.725   4.198
52321W        W24647  30.937   7.195   2.874
52322W        W24648  22.210   0.792   4.185
52323W        W24649   2.935   4.715   5.230
52324W        W24650  22.683  28.591   4.737
52325W        W24651  26.004  19.761   4.681
52326W        W24652  11.778  20.036   1.930
52327W        W24653   8.848   6.218  13.476
52328W        W24654   7.201  25.058   3.236
52329W        W24655  28.438  24.107  11.612
52330W        W24656   7.771  22.523   3.331
52331W        W24657   0.971  18.632   3.252
52332W        W24658  20.139  39.435   2.690
52333W        W24659   2.792   8.787  11.523
52334W        W24660  39.556  18.184  11.592
52335W        W24661   4.387  22.154   0.265
52336W        W24662   6.868   9.383  13.399
52337W        W24663   9.782   8.762  11.008
52338W        W24664  35.937  13.613  12.397
52339W        W24665  34.957  30.564  11.937
52340W        W24666   0.251  31.555   1.732
52341W        W24667  22.642  24.680   1.792
52342W        W24668  39.050  11.680   1.892
52343W        W24669  30.020   6.347   1.738
52344W        W24670  21.148  37.473  10.100
52345W        W24671  34.037  36.045   5.580
52346W        W24672  18.226  34.892   2.224
52347W        W24673   3.328  16.799   3.324
52348W        W24674   7.793  43.280   1.336
52349W        W24675  13.225   6.819   3.168
52350W        W24676  21.545  37.407   3.691
52351W        W24677  23.171  36.945  12.369
52352W        W24678  16.178   2.324   0.366
52353W        W24679  42.463  18.118  11.574
52354W        W24680  14.126  25.016   4.232
52355W        W24681  19.656  31.455   4.219
52356W        W24682  34.928  42.931   3.856
52357W        W24683  26.641  30.607  13.344
52358W        W24684  44.927  20.548   4.325
52359W        W24685  44.319  31.045   3.270
52360W        W24686  26.093  23.164   0.797
52361W        W24687  37.879  14.706   0.926
52362W        W24688  25.621  44.368   3.161
52363W        W24689  26.631  17.711  12.087
52364W        W24690   9.845  21.165   3.692
52365W        W24691  20.654  16.162   2.694
52366W        W24692   2.340  17.233   1.761
52367W        W24693  14.677  16.641  12.898
52368W        W24694  37.421  20.627  12.394
52369W        W24695   7.756  33.515  13.826
52370W        W24696  15.785  43.885   4.780
52371W        W24697  41.014  40.462  13.493
52372W        W24698  11.714   8.278  11.924
52373W        W24699  30.616  21.716   2.306
52374W        W24700  16.076  14.121  11.605
52375W        W24701   1.297  14.820  14.841
52376W        W24702  17.615  33.577  10.552
52377W        W24703   8.259   8.753  10.496
52378W        W24704  40.892  33.422   1.926
52379W        W24705  42.341  34.403   0.953
52380W        W24706  41.996  10.760   3.804
52381W        W24707   3.817   6.316  12.454
52382W        W24708  39.506  37.925   2.365
52383W        W24709   7.709  18.136  11.406
52384W        W24710  27.076  14.737  11.551
52385W        W24711  25.544  31.520   0.937
52386W        W24712   2.361  21.157   2.889
52387W        W24713  20.045  14.834  14.879
52388W        W24714   3.249  39.967   4.741
52389W        W24715  36.042  19.143  14.508
52390W        W24716  28.962  25.601  13.362
52391W        W24717  39.402  34.094   1.245
52392W        W24718  21.731  32.450  14.350
52393W        W24719  26.461  42.398   2.665
52394W        W24720  17.623  21.211   3.682
52395W        W24721  40.008  43.871  13.006
52396W        W24722  19.640  30.626   0.293
52397W        W24723  37.030  33.604  10.477
52398W        W24724  25.120  40.883   1.232
52399W        W24725  14.608  12.146   0.399
52400W        W24726  15.706  35.079  12.842
52401W        W24727  42.779  31.071  14.813
52402W        W24728   5.415   3.872   4.325
52403W        W24729  41.387  25.016   1.225
52404W        W24730  42.830   4.253  14.397
52405W        W24731   3.800   5.903   4.692
52406W        W24732   8.188  20.704   4.335
52407W        W24733  29.519  18.202  10.517
52408W        W24734   3.431  29.130   0.442
52409W        W24735   0.905  28.561  12.886
52410W        W24736   2.840  29.148   4.152
52411W        W24737   7.668  32.487   2.780
52412W        W24738  38.339  33.092   2.310
52413W        W24739  32.889  44.823   4.255
52414W        W24740  32.965  29.130   1.262
52415W        W24741  30.115  15.620  11.986
52416W        W24742  21.202  19.283  11.608
52417W        W24743   1.944  16.594  11.072
52418W        W24744  30.031   6.336  12.996
52419W        W24745  36.008   4.926   4.253
52420W        W24746  20.525  38.993  12.534
52421W        W24747  39.060  13.207   1.221
52422W        W24748  21.597   3.253   1.256
52423W        W24749   5.247   0.442   1.345
52424W        W24750  34.524  23.635  12.346
52425W        W24751  40.459  37.975   2.777
52426W        W24752  40.032  30.053  11.393
52427W        W24753  40.984  22.031   2.399
52428W        W24754  34.445  28.481  14.413
52429W        W24755  14.727  11.304   2.295
52430W        W24756  29.562   1.870  11.440
52431W        W24757   9.381  28.535   2.342
52432W        W24758  41.439  29.573   2.880
52433W        W24759  27.594  33.898   0.947
52434W        W24760  22.643  20.698   3.310
52435W        W24761  38.068  12.711  14.784
52436W        W24762   4.387  11.653   1.701
52437W        W24763  43.282  42.865   1.838
52438W        W24764  17.143   0.956  11.578
52439W        W24765  17.684  44.754  13.497
52440W        W24766  24.497  27.582  12.439
52441W        W24767  35.928  11.158  14.384
52442W        W24768  10.206  25.626  10.071
52443W        W24769   3.802  42.509  12.390
52444W        W24770  27.659  31.934  10.499
52445W        W24771  39.330  23.648  14.804
52446W        W24772  20.048  33.964  10.932
52447W        W24773  24.004  38.359   3.278
52448W        W24774  20.624  11.303  11.911
52449W        W24775  34.578  24.536   1.254
52450W        W24776  40.801  23.532  10.991
52451W        W24777   4.934  21.032  14.982
52452W        W24778  20.055  20.750  12.342
52453W        W24779  15.806  16.098   4.275
52454W        W24780   3.746  14.321  12.450
52455W        W24781  27.968  38.000  13.914
52456W        W24782   0.375  38.437  14.468
52457W        W24783  31.434  14.117  13.413
52458W        W24784  41.981  24.590   1.317
52459W        W24785  42.394  13.604  11.399
52460W        W24786  11.633  23.165   2.296
52461W        W24787  44.769   2.770  10.584
52462W        W24788  42.972   3.244  14.279
52463W        W24789   7.750  28.598  12.022
52464W        W24790  21.534  33.531   1.887
52465W        W24791  17.154  30.970   3.263
52466W        W24792   8.307   5.850  11.076
52467W        W24793  26.044   2.871   2.839
52468W        W24794  34.047  42.784  11.545
52469W        W24795   9.256  38.369   1.830
52470W        W24796  12.140  23.222   2.901
52471W        W24797  22.148  37.968   1.345
52472W        W24798  39.001  21.255   1.431
52473W        W24799  40.427   8.798   3.370
52474W        W24800   3.820  29.920  11.006
52475W        W24801  15.659  12.146   1.840
52476W        W24802  42.285  41.999   0.881
52477W        W24803  13.293  36.842   1.896
52478W        W24804  37.917  34.927  13.965
52479W        W24805   7.884  19.044   1.286
52480W        W24806  26.976  11.711  12.581
52481W        W24807  17.180  23.013   4.806
52482W        W24808  36.433  36.401   5.193
52483W        W24809  40.434  22.999  10.902
52484W        W24810  43.777  32.939   2.322
52485W        W24811  17.637   7.668  11.541
52486W        W24812  38.533  13.216  13.373
52487W        W24813  19.207  27.468  13.873
52488W        W24814  23.731   5.807  11.072
52489W        W24815  34.382   1.881   2.356
52490W        W24816   4.441  27.091   0.392
52491W        W24817  44.881   2.357  12.421
52492W        W24818  29.656  14.169  10.457
52493W        W24819  36.053  24.100  10.892
52494W        W24820  12.820  39.842  14.350
52495W        W24821  35.927  15.327   3.717
52496W        W24822  20.752  18.089   1.295
52497W        W24823  23.001  23.502   1.301
52498W        W24824  23.170   0.861  12.372
52499W        W24825  39.365   9.201   4.202
52500W        W24826   7.671   9.271   0.922
52501W        W24827  13.202   4.363   0.283
52502W        W24828  35.415  10.759  14.951
52503W        W24829  20.577  32.939  13.039
52504W        W24830  26.703  40.024  11.532
52505W        W24831  27.562  20.695   1.226
52506W        W24832  32.055  26.636  10.639
52507W        W24833  34.396  30.425   4.293
52508W        W24834  12.682  39.026   4.664
52509W        W24835  23.729  42.374  12.981
52510W        W24836  20.089   4.889  14.341
52511W        W24837   5.304  20.042   2.859
52512W        W24838  17.188  16.738  13.061
52513W        W24839  37.004  25.527  12.891
52514W        W24840  33.064  11.854   4.781
52515W        W24841  43.300  25.965  12.398
52516W        W24842   9.794   4.776   4.164
52517W        W24843   0.762   3.311  10.069
52518W        W24844  12.306  31.487   0.364
52519W        W24845  18.586  42.888  13.504
52520W        W24846  29.990  43.436  12.849
52521W        W24847   1.469  33.461   3.313
52522W        W24848  28.068  16.215   2.875
52523W        W24849  22.643   2.910  14.467
52524W        W24850  26.487   6.286   2.317
52525W        W24851  36.444  30.474  11.431
52526W        W24852  43.360  36.881   4.310
52527W        W24853  38.523  11.784   4.140
52528W        W24854  34.593  24.531   3.632
52529W        W24855   2.243   1.258  14.767
52530W        W24856  25.570  21.133  12.025
52531W        W24857  26.676  30.613   3.295
52532W        W24858  13.779  18.261   3.759
52533W        W24859  23.087  34.009   4.348
52534W        W24860  39.448   8.780   2.675
52535W        W24861  30.465  16.813  14.298
52536W        W24862  20.586   5.814  10.991
52537W        W24863  29.008  40.967   1.217
52538W        W24864  30.145  30.911   0.954
52539W        W24865  19.696  31.005  14.926
52540W        W24866  26.621  18.620   3.719
52541W        W24867  13.694   6.893   3.274
52542W        W24868   5.348  28.556   4.632
52543W        W24869  43.422  12.274  11.540
52544W        W24870  14.224  23.092   1.253
52545W        W24871  21.109  13.662  13.819
52546W        W24872   9.224  16.596  10.569
52547W        W24873  23.517  15.168  12.063
52548W        W24874   9.692  14.119  13.431
52549W        W24875  25.214  17.275   4.646
52550W        W24876  39.388  18.689   0.355
52551W        W24877   9.391  40.421   2.837
52552W        W24878   4.386   7.690   0.786
52553W        W24879  43.780  24.529   0.357
52554W        W24880  19.220   7.692   2.670
52555W        W24881   0.353  28.071  10.527
52556W        W24882  33.525  10.316   1.365
52557W        W24883  30.159  25.647   0.953
52558W        W24884  26.614  41.380  11.403
52559W        W24885   5.207  30.630   2.239
52560W        W24886  36.375  21.188   0.775
52561W        W24887   8.676   0.830  10.554
52562W        W24888  39.903  15.092  13.035
52563W        W24889  42.984  17.779   1.847
52564W        W24890  15.205  13.325  14.995
52565W        W24891  16.620  36.585  14.823
52566W        W24892  20.537  37.423  13.418
52567W        W24893   3.425  35.481  14.892
52568W        W24894  22.520  14.322   1.743
52569W        W24895  37.378  41.890   4.686
52570W        W24896  28.183  25.133  13.986
52571W        W24897  35.080  15.637   1.755
52572W        W24898  13.834  37.987  13.045
52573W        W24899  34.074  23.221   1.261
52574W        W24900  30.159  36.495  11.411
52575W        W24901   2.861   8.287   1.234
52576W        W24902  21.192  24.098   4.263
52577W        W24903  15.221   3.856   1.732
52578W        W24904   3.429  20.698   3.379
52579W        W24905   2.729   0.884   0.275
52580W        W24906   3.868  10.170  14.414
52581W        W24907  40.811  25.590   4.794
52582W        W24908  10.235  12.210   4.256
52583W        W24909   8.898  10.212   1.838
52584W        W24910   2.364   3.873  10.550
52585W        W24911  38.441   5.263   4.640
52586W        W24912   9.296  21.236   2.217
52587W        W24913   7.674  42.849  11.082
52588W        W24914  11.243   4.386  14.436
52589W        W24915  43.995  22.060  12.947
52590W        W24916  38.524   3.445  12.895
52591W        W24917  32.972  20.668   4.600
52592W        W24918  43.271  30.628   3.252
52593W        W24919   6.848  36.916   1.448
52594W        W24920   4.423  29.034   0.737
52595W        W24921  34.867  33.035  10.146
52596W        W24922   8.757  22.712   5.251
52597W        W24923  36.898  36.390   4.140
52598W        W24924  12.128  35.907   1.248
52599W        W24925  39.324  31.620   1.439
52600W        W24926  38.997   4.710  12.996
52601W        W24927  29.126  15.802   2.183
52602W        W24928  15.240  30.539  13.841
52603W        W24929  44.398  18.620  12.089
52604W        W24930  40.332  14.148   3.162
52605W        W24931  30.628  39.985  11.447
52606W        W24932  21.197  17.075  12.836
52607W        W24933  25.992  24.047  11.962
52608W        W24934  31.906  41.368   4.804
52609W        W24935  31.097   3.714  14.982
52610W        W24936  23.104  21.077   3.740
52611W        W24937  32.583  37.919   3.815
52612W        W24938   8.751  22.096   0.939
52613W        W24939  14.610   6.362  10.955
52614W        W24940  25.110  44.817  14.968
52615W        W24941  35.015  27.549   3.720
52616W        W24942  12.239  37.526  14.809
52617W        W24943  43.399  19.244  13.429
52618W        W24944  23.191  40.480  11.101
52619W        W24945  11.718  17.730  13.310
52620W        W24946  25.132  10.873   0.350
52621W        W24947  33.431  16.226   4.604
52622W        W24948   1.893  27.009  12.368
52623W        W24949  13.332  41.410  12.504
52624W        W24950  35.441  21.058   4.678
52625W        W24951  26.965  15.660  14.943
52626W        W24952  11.755  20.718   3.354
52627W        W24953  33.579  33.984  14.306
52628W        W24954  18.111  34.931  10.997
52629W        W24955  25.677  10.751   1.841
52630W        W24956  42.984   6.236   2.332
52631W        W24957  43.861  27.498  12.452
52632W        W24958  31.434  24.526   0.332
52633W        W24959   6.920  34.963  12.862
52634W        W24960  14.110  43.287  11.540
52635W        W24961  22.212  34.487   0.471
52636W        W24962   5.356  43.855   4.809
52637W        W24963   5.804  24.202  10.950
52638W        W24964  10.777  38.538  12.348
52639W        W24965  39.839  14.640  11.503
52640W        W24966  30.059  26.690  11.080
52641W        W24967  22.520  43.803  13.912
52642W        W24968  19.641  19.546   2.845
52643W        W24969  21.055   9.648   3.365
52644W        W24970  38.443  29.641  13.915
52645W        W24971  29.168  28.186   1.704
52646W        W24972  42.785  11.689   2.750
52647W        W24973  37.905  18.682  11.858
52648W        W24974  36.088  27.564  11.105
52649W        W24975  19.192  39.551  12.091
52650W        W24976  16.105  11.259   2.355
52651W        W24977  21.176   2.442   3.220
52652W        W24978  11.759  22.217   0.862
52653W        W24979  11.652  20.709  14.783
52654W        W24980   1.288  26.172  11.093
52655W        W24981  11.808  34.921  14.781
52656W        W24982   6.257  29.508   1.291
52657W        W24983   7.700  20.752  14.999
52658W        W24984  26.549  25.215   3.797
52659W        W24985  13.716  15.299   3.310
52660W        W24986  32.072  11.728  11.856
52661W        W24987   4.234   1.924  11.963
52662W        W24988  18.135  20.599  12.832
52663W        W24989  42.341  28.158   4.328
52664W        W24990  31.439  43.953  11.546
52665W        W24991  28.616  22.194   1.299
52666W        W24992   4.434  19.186  11.409
52667W        W24993  38.035  28.071  10.999
52668W        W24994  39.003  37.574  14.926
52669W        W24995  10.314  14.122   4.794
52670W        W24996  42.325  19.224   1.343
52671W        W24997  14.275  39.033  13.421
52672W        W24998  17.577   3.928   2.401
52673W        W24999  14.833  16.668  13.340
52674W        W25000   2.458  32.093  14.782
52675W        W25001   0.362  23.627  11.105
52676W        W25002  41.949  32.484  12.053
52677W        W25003  34.578  29.509   4.602
52678W        W25004  42.948   0.832  12.841
52679W        W25005   6.244  18.229  10.514
52680W        W25006  36.061   9.278  14.808
52681W        W25007  18.671   8.336   2.896
52682W        W25008   6.850  41.019  11.028
52683W        W25009   2.904   5.687   0.417
52684W        W25010  12.640  27.555  10.028
52685W        W25011  29.934  24.974   0.429
52686W        W25012  35.916  31.535  11.892
52687W        W25013  39.862  36.883  10.441
52688W        W25014  33.914   8.679  11.382
52689W        W25015   3.718  15.200  13.365
52690W        W25016   9.643  29.630  11.563
52691W        W25017  26.177   7.769  12.038
52692W        W25018  11.800   7.797  14.376
52693W        W25019  35.440   3.912  14.769
52694W        W25020  12.159   5.216  12.452
52695W        W25021  26.010  23.209   0.373
52696W        W25022  41.949  40.051   1.407
52697W        W25023  17.654  38.058   1.326
52698W        W25024  19.569   7.762   2.792
52699W        W25025  20.654  20.756  11.609
52700W        W25026  17.587  42.501  13.521
52701W        W25027  25.597  41.901   1.287
52702W        W25028   3.778  33.594  13.806
52703W        W25029  14.778  43.003  13.314
52704W        W25030  37.948  15.726   9.970
52705W        W25031  43.817  43.872   2.345
52706W        W25032  30.561  37.426   2.777
52707W        W25033  17.697  29.558  12.067
52708W        W25034   2.945  31.494   1.701
52709W        W25035  41.464  11.147  12.862
52710W        W25036  16.104  11.779   4.330
52711W        W25037  23.566   1.735  11.383
52712W        W25038   5.889  21.242  14.911
52713W        W25039  42.315  44.321   3.240
52714W        W25040  25.119   6.865   4.115
52715W        W25041  16.095  33.102   1.439
52716W        W25042  42.913  26.541  13.875
52717W        W25043  36.091  43.829  10.517
52718W        W25044  27.637  23.624  11.016
52719W        W25045  26.460  40.521  10.903
52720W        W25046   9.771  25.100  12.952
52721W        W25047  22.112  33.613  13.855
52722W        W25048  29.077   6.216  13.008
52723W        W25049   1.247  13.108  13.505
52724W        W25050  30.574  43.347   3.384
52725W        W25051  14.128  19.254   3.708
52726W        W25052   4.704  30.032  14.945
52727W        W25053  37.927  22.649  14.337
52728W        W25054   7.766  33.572   3.700
52729W        W25055  29.590  12.836   3.852
52730W        W25056  26.096  30.517   4.122
52731W        W25057  28.955  39.062  11.016
52732W        W25058  31.630  22.526  13.885
52733W        W25059  37.348  44.279   2.393
52734W        W25060  33.965  11.233   1.769
52735W        W25061  31.086  28.038   4.290
52736W        W25062  20.589   5.438   1.875
52737W        W25063  36.892   9.289   2.843
52738W        W25064  36.017   9.890  12.076
52739W        W25065  19.730  32.433   3.296
52740W        W25066  12.685  28.654   0.882
52741W        W25067   7.175  40.518   2.839
52742W        W25068  25.973  38.471   1.306
52743W        W25069  16.692  41.866   3.799
52744W        W25070  13.130  32.521  12.472
52745W        W25071  36.874   4.798  12.998
52746W        W25072  25.514  23.670   0.881
52747W        W25073  18.560   6.793   4.706
52748W        W25074   8.255  38.341   2.258
52749W        W25075  21.599  13.169   2.796
52750W        W25076  23.013  17.202  13.364
52751W        W25077  34.024  35.592  14.931
52752W        W25078  38.888   8.170   3.292
52753W        W25079  32.560   5.263   4.133
52754W        W25080  43.311  37.032   0.819
52755W        W25081  44.346  10.220   2.697
52756W        W25082  27.513  13.213   4.722
52757W        W25083   7.389   0.783   5.098
52758W        W25084  25.096   2.352   3.240
52759W        W25085  38.512   9.191   4.149
52760W        W25086  38.905  31.067   1.914
52761W        W25087   6.737  33.536  13.408
52762W        W25088  38.485  27.972   3.740
52763W        W25089  25.467  43.911  12.030
52764W        W25090  12.821   7.407  12.986
52765W        W25091  40.841  18.720   0.958
52766W        W25092  38.337   9.823   4.677
52767W        W25093  11.242  43.875   0.812
52768W        W25094  42.917   0.475   2.726
52769W        W25095  23.104  25.664  12.913
52770W        W25096  34.514  41.402   0.317
52771W        W25097  39.857   1.259   0.398
52772W        W25098  33.499  34.385   5.139
52773W        W25099   9.741   3.390   2.736
52774W        W25100  31.411   4.298  10.562
52775W        W25101   9.821  28.109  12.948
52776W        W25102  19.689  25.707   4.296
52777W        W25103  39.002  25.162   0.263
52778W        W25104  38.524   9.697  10.421
52779W        W25105  17.229  32.112  11.500
52780W        W25106  36.935   0.874  13.526
52781W        W25107  20.616  30.544  14.324
52782W        W25108  18.783   0.456   0.261
52783W        W25109  28.038   4.909   3.362
52784W        W25110   4.836  16.267   2.832
52785W        W25111  12.854  10.709  11.937
52786W        W25112   1.259   9.378  14.766
52787W        W25113  32.429   9.378  12.088
52788W        W25114  17.705   4.268   0.362
52789W        W25115  35.072  43.970  11.003
52790W        W25116  39.848  14.150   3.347
52791W        W25117   5.736   1.827  13.026
52792W        W25118  17.165  14.297   1.792
52793W        W25119   2.875  11.694   4.598
52794W        W25120  17.714  41.829  13.908
52795W        W25121  24.685  32.462  12.487
52796W        W25122  30.438  18.287  12.049
52797W        W25123   2.229  26.147  11.062
52798W        W25124  12.170  18.753  11.595
52799W        W25125  15.157  42.476   4.703
52800W        W25126  16.154  15.812  11.517
52801W        W25127   6.693  11.317  13.426
52802W        W25128   5.206  15.177  13.035
52803W        W25129  26.533  21.183   0.319
52804W        W25130  25.131  33.471   3.868
52805W        W25131  24.053  26.511   2.857
52806W        W25132   6.815   5.786   0.310
52807W        W25133   2.944  20.523   1.838
52808W        W25134  17.731  40.799  12.481
52809W        W25135  34.578  25.001   1.797
52810W        W25136  37.856  27.655   3.854
52811W        W25137  14.215  10.292  11.857
52812W        W25138  42.415  33.594  11.476
52813W        W25139  21.037  25.482   3.705
52814W        W25140  37.483   3.869   4.194
52815W        W25141  36.923  13.120  11.856
52816W        W25142  36.410  40.816  13.376
52817W        W25143  26.697   9.152   5.248
52818W        W25144  34.082  43.283  12.962
52819W        W25145  14.723  28.154  12.500
52820W        W25146   7.697  29.612   3.375
52821W        W25147  38.900  35.028  14.909
52822W        W25148  12.831  10.341   4.682
52823W        W25149  44.942  19.283   0.805
52824W        W25150  18.160  15.312   1.348
52825W        W25151  11.172   4.743  11.463
52826W        W25152  12.649  12.655   3.206
52827W        W25153  33.103   2.795  12.988
52828W        W25154  19.101  11.744  14.804
52829W        W25155  27.098  39.065  12.947
52830W        W25156   8.656  19.147   3.744
52831W        W25157  22.542  44.805  11.089
52832W        W25158  19.223   1.894  14.972
52833W        W25159   2.309   3.455  12.516
52834W        W25160  26.954  40.969  12.039
52835W        W25161  23.553  28.458   0.827
52836W        W25162   3.298  18.144  10.987
52837W        W25163  27.143  40.498  13.496
52838W        W25164  17.652  12.134   0.815
52839W        W25165  34.582   8.283  12.949
52840W        W25166  19.041  15.753  14.847
52841W        W25167  30.022  36.539  10.895
52842W        W25168  17.082   4.723   5.179
52843W        W25169  10.319  41.839   0.741
52844W        W25170  26.982  13.741   0.252
52845W        W25171   8.378  22.736  13.024
52846W        W25172  42.775  18.165   2.329
52847W        W25173  18.555  37.527  10.431
52848W        W25174  33.124  29.528  10.570
52849W        W25175  25.136   5.781   2.761
52850W        W25176  35.360  31.481  14.817
52851W        W25177  16.793  20.626  11.995
52852W        W25178  35.580  37.064   4.665
52853W        W25179  20.059  28.438   4.690
52854W        W25180   9.232   9.695   1.375
52855W        W25181  11.685  12.281  11.518
52856W        W25182   1.419  22.248   1.933
52857W        W25183   5.898  13.234  12.909
52858W        W25184  36.505   4.836  14.446
52859W        W25185  14.105  16.776  11.125
52860W        W25186  10.317  23.999   4.186
52861W        W25187  34.036  18.241   2.250
52862W        W25188  25.119  44.354  14.795
52863W        W25189  33.889  36.499  14.295
52864W        W25190  28.648   3.727   0.869
52865W        W25191   0.853  34.543  14.877
52866W        W25192   4.402  39.423  12.349
52867W        W25193  20.144  34.121   4.296
52868W        W25194  14.330  21.075   4.302
52869W        W25195   0.789  26.502  11.110
52870W        W25196  22.156   7.279   3.849
52871W        W25197  42.939   4.892  12.871
52872W        W25198  39.353  33.937   1.932
52873W        W25199  15.281  13.755   0.354
52874W        W25200  15.582  13.842  12.995
52875W        W25201  33.432  27.488  14.802
52876W        W25202  33.577  19.698   4.682
52877W        W25203  44.261  18.569  13.448
52878W        W25204  38.873   3.828   4.300
52879W        W25205   5.876  14.096   2.785
52880W        W25206  39.960  30.609  13.916
52881W        W25207   8.743  19.603   4.820
52882W        W25208  16.120  32.898  10.578
52883W        W25209  10.350   9.811   2.384
52884W        W25210   1.450  13.644  11.071
52885W        W25211  25.993  44.850  10.528
52886W        W25212   3.240  14.796   4.117
52887W        W25213  23.206   3.283   3.726
52888W        W25214  17.114  18.093   3.228
52889W        W25215  28.530  23.053  14.800
52890W        W25216  27.097  21.639  11.928
52891W        W25217  20.705   6.332  14.446
52892W        W25218  21.661  29.174   2.745
52893W        W25219  44.366  15.698  11.024
52894W        W25220  30.566  29.512  11.865
52895W        W25221   3.457  14.324  12.432
52896W        W25222  26.035  31.900   0.901
52897W        W25223  29.110  28.018   0.876
52898W        W25224  11.305  40.996   0.814
52899W        W25225   3.284   6.416   2.370
52900W        W25226   6.882  31.949   0.867
52901W        W25227  37.564  41.352  10.542
52902W        W25228  38.493  38.356  14.411
52903W        W25229  24.547  26.463   1.802
52904W        W25230  22.700   2.421   4.614
52905W        W25231   9.278  10.756   4.207
52906W        W25232  35.853  12.303   9.584
52907W        W25233  19.704  16.786   2.233
52908W        W25234  28.004  14.731   2.249
52909W        W25235  37.067   3.866   4.724
52910W        W25236   7.802   9.284   3.865
52911W        W25237  28.165   0.958   1.274
52912W        W25238  31.970  27.589  13.829
52913W        W25239   0.959  38.861   4.635
52914W        W25240  24.192  44.943   1.316
52915W        W25241  14.203  20.225   1.743
52916W        W25242   7.216  33.932  13.969
52917W        W25243  29.496   0.436  12.528
52918W        W25244  13.151   1.454   1.804
52919W        W25245  42.327  31.931  11.480
52920W        W25246  37.860  26.541   3.633
52921W        W25247   4.710  10.230  14.460
52922W        W25248   8.286  30.419  11.867
52923W        W25249  22.583  21.703  13.986
52924W        W25250   2.874   6.900   1.825
52925W        W25251  44.843  34.430   3.678
52926W        W25252  28.643  30.086  12.823
52927W        W25253  36.960  35.024   2.299
52928W        W25254  25.667  37.071   1.272
52929W        W25255  35.033  28.679   0.850
52930W        W25256  20.114  40.345  11.913
52931W        W25257  11.801  28.583   3.265
52932W        W25258  34.073   7.847  14.497
52933W        W25259  42.918  18.669  10.581
52934W        W25260   0.255  44.795   4.168
52935W        W25261   0.841  14.590   4.636
52936W        W25262   0.839  31.405  13.897
52937W        W25263  42.925  27.955   1.276
52938W        W25264  18.088   6.281  12.466
52939W        W25265  42.938   1.866   4.180
52940W        W25266  37.963  18.072  13.970
52941W        W25267  18.253  11.642   3.326
52942W        W25268  40.025  37.388  13.802
52943W        W25269  11.322   5.315   1.210
52944W        W25270   7.412  42.386   4.812
52945W        W25271   9.328   3.930  10.414
52946W        W25272  44.996  16.652  13.320
52947W        W25273   8.179  41.294   1.273
52948W        W25274  10.221  29.648  14.306
52949W        W25275   2.809  22.043  14.855
52950W        W25276  39.059  28.487   4.173
52951W        W25277   0.935   6.686   2.217
52952W        W25278  29.479  21.669   4.307
52953W        W25279  27.502  32.933  14.985
52954W        W25280  10.257  22.608   3.339
52955W        W25281   4.779  27.622  12.824
52956W        W25282  10.813  32.081   2.782
52957W        W25283  33.987  28.476   1.428
52958W        W25284  15.760  44.444  12.090
52959W        W25285  27.623  36.505  12.057
52960W        W25286  44.979  30.959   3.708
52961W        W25287  43.469  28.030  11.440
52962W        W25288  14.096  18.082   4.810
52963W        W25289  31.909  41.858  12.900
52964W        W25290  35.972  32.068   0.479
52965W        W25291   8.744   2.856   2.417
52966W        W25292   2.726   9.803   4.800
52967W        W25293   3.359  15.315   4.806
52968W        W25294  12.317  28.498   3.794
52969W        W25295   6.808  37.983   2.376
52970W        W25296  30.567  31.555  14.394
52971W        W25297  17.800   2.274   4.763
52972W        W25298  17.299  43.930   2.780
52973W        W25299  35.575  11.337   1.352
52974W        W25300  42.879  13.126  11.129
52975W        W25301   1.422   1.801   3.670
52976W        W25302   5.889  20.711  10.905
52977W        W25303  26.700  14.626  12.548
52978W        W25304  43.483   4.219  10.450
52979W        W25305  41.934  11.329   1.438
52980W        W25306  33.394  36.926  13.423
52981W        W25307   8.214  17.764   1.845
52982W        W25308  25.702  21.657   3.668
52983W        W25309  37.995  38.043  14.327
52984W        W25310   2.256  12.167  13.861
52985W        W25311  11.823  21.107  12.006
52986W        W25312  14.293  21.190   1.240
52987W        W25313  36.064   2.227   1.829
52988W        W25314  43.999  20.636   0.839
52989W        W25315   7.756  11.857   1.347
52990W        W25316  20.271  13.331  10.102
52991W        W25317  21.032  26.020  14.308
52992W        W25318  37.034  32.936   3.751
52993W        W25319  38.571   7.315  11.078
52994W        W25320  34.952   7.667  13.498
52995W        W25321  27.073  25.060  14.340
52996W        W25322  28.183  28.116   3.689
52997W        W25323  32.461  10.637   4.629
52998W        W25324  37.488  31.403   0.863
52999W        W25325  13.818  43.492   4.206
53000W        W25326  10.153  33.897  12.876
53001W        W25327  33.615  20.717   0.953
53002W        W25328  32.519  10.650  10.973
53003W        W25329   8.729  30.621  11.582
53004W        W25330  41.363  11.857   2.721
53005W        W25331  44.934  13.789  12.575
53006W        W25332  10.363   8.274   4.633
53007W        W25333  25.592   2.759  14.941
53008W        W25334  18.149  18.632  14.812
53009W        W25335  12.356  17.193   4.114
53010W        W25336   3.233  25.010  12.932
53011W        W25337  10.774  15.201  12.408
53012W        W25338  16.155  24.503   0.377
53013W        W25339  32.998  12.148  13.381
53014W        W25340  18.648  39.893   2.853
53015W        W25341  16.078  27.982   4.246
53016W        W25342   6.715  43.993   0.465
53017W        W25343   9.270  31.491   1.865
53018W        W25344  13.731  36.948  10.112
53019W        W25345  13.320  20.141  10.897
53020W        W25346  34.076  21.034  13.813
53021W        W25347   9.164  16.196   1.709
53022W        W25348  22.227  37.549   4.234
53023W        W25349  21.069  10.805   3.154
53024W        W25350  42.292  29.951   1.855
53025W        W25351  29.572  21.175   3.350
53026W        W25352  32.080  12.645  11.976
53027W        W25353  11.265  17.712  11.065
53028W        W25354   3.933  33.562  12.947
53029W        W25355   3.416  25.042  10.962
53030W        W25356  33.414  23.573   4.193
53031W        W25357  32.024  44.462   1.747
53032W        W25358  28.970  33.879  13.983
53033W        W25359   6.387  26.631  13.533
53034W        W25360  16.265  16.607   1.700
53035W        W25361  15.699  15.783  12.081
53036W        W25362  33.033  33.993   2.234
53037W        W25363  34.415  11.286   2.897
53038W        W25364  18.082  32.491  13.330
53039W        W25365   0.840  36.896  11.027
53040W        W25366  16.281  32.082   3.266
53041W        W25367  18.717  30.617   3.278
53042W        W25368  24.130  30.939   3.659
53043W        W25369   1.435   5.308  14.924
53044W        W25370  18.134  27.989   4.266
53045W        W25371   3.918  25.160   0.890
53046W        W25372  42.793   8.313  13.476
53047W        W25373  18.562  24.620   2.226
53048W        W25374  42.978  12.301   0.918
53049W        W25375  34.431  41.880   3.160
53050W        W25376  34.076  17.596   3.850
53051W        W25377  36.855  15.748  14.859
53052W        W25378   3.837  39.996   0.305
53053W        W25379  40.967  28.980  12.518
53054W        W25380  23.146   7.387  12.532
53055W        W25381  25.002  36.869  11.869
53056W        W25382  27.088  36.912   0.463
53057W        W25383  16.239  23.593   2.269
53058W        W25384  23.220  39.484  14.855
53059W        W25385  39.860  36.853   0.369
53060W        W25386  40.421  19.264   3.850
53061W        W25387  20.578  22.595   2.764
53062W        W25388  40.385   9.720  13.970
53063W        W25389  31.067  12.332  12.347
53064W        W25390  12.156  33.578   0.248
53065W        W25391   5.927   0.471  13.838
53066W        W25392  19.124  41.485  13.372
53067W        W25393  28.669  25.535   0.391
53068W        W25394   0.863   7.869   4.158
53069W        W25395  22.653  31.142   1.238
53070W        W25396  23.114  30.515  13.502
53071W        W25397  20.156  31.048  12.548
53072W        W25398  38.515  22.035   3.725
53073W        W25399  11.228  18.775   0.280
53074W        W25400  40.509  14.819   4.802
53075W        W25401   8.887  14.259   3.668
53076W        W25402  36.560  42.800   4.248
53077W        W25403  38.978  19.138  13.448
53078W        W25404  32.033   7.193   0.475
53079W        W25405   4.856  11.819  13.060
53080W        W25406  43.986  44.500   3.248
53081W        W25407  42.971  37.544   2.274
53082W        W25408  43.430  37.926   1.449
53083W        W25409   9.703  44.924   2.412
53084W        W25410   9.669  44.376   4.663
53085W        W25411  14.255  33.099   4.681
53086W        W25412  23.226  20.614  11.955
53087W        W25413  17.094  12.618  13.980
53088W        W25414  24.600  28.991   3.236
53089W        W25415  23.169  35.001  10.927
53090W        W25416  29.594  39.019  12.543
53091W        W25417   8.326  43.299   0.285
53092W        W25418  25.207  19.700   4.270
53093W        W25419  28.098  29.937  14.935
53094W        W25420  28.502   4.942   1.413
53095W        W25421  19.621  40.847   1.735
53096W        W25422  11.229  25.214   5.691
53097W        W25423   2.313  26.036   1.405
53098W        W25424  33.114   0.831  13.041
53099W        W25425  33.398   3.298   5.094
53100W        W25426  38.382  31.106  10.432
53101W        W25427  18.762  19.607   2.312
53102W        W25428  28.042  33.555  11.054
53103W        W25429  34.003   8.405   4.248
53104W        W25430  18.180   0.754   2.799
53105W        W25431  12.799  33.385  14.477
53106W        W25432  16.211   8.793  11.991
53107W        W25433  32.466  21.688   2.815
53108W        W25434  40.424  14.334   1.234
53109W        W25435   1.299  33.419   4.641
53110W        W25436  13.608  19.648  14.807
53111W        W25437  30.468  14.656  13.856
53112W        W25438  32.618  42.010   2.300
53113W        W25439   2.339   4.321   0.779
53114W        W25440  11.669  24.187   0.804
53115W        W25441  19.566  31.998   2.840
53116W        W25442  10.720  17.181  14.279
53117W        W25443  36.402  16.756  11.465
53118W        W25444   7.820  41.326  12.481
53119W        W25445   7.373  28.143  10.604
53120W        W25446   5.860  40.545  11.922
53121W        W25447  19.604   8.681   0.443
53122W        W25448  37.403  41.983   3.231
53123W        W25449   3.243   9.856   2.724
53124W        W25450   3.880  37.850   0.865
53125W        W25451  32.974  24.979  14.971
53126W        W25452   8.292  36.460   2.236
53127W        W25453  24.605  37.061  14.969
53128W        W25454   3.750  36.985  11.920
53129W        W25455   5.250   6.381  14.946
53130W        W25456  40.845  21.557  11.945
53131W        W25457   3.443  31.604  10.106
53132W        W25458  29.473  16.580   1.718
53133W        W25459  11.852  17.074   3.237
53134W        W25460  37.540   3.795   4.682
53135W        W25461  25.672  35.902   3.193
53136W        W25462  30.518  28.152   4.730
53137W        W25463   2.939  35.367   2.704
53138W        W25464  25.198   2.421   2.223
53139W        W25465  18.138   0.427   2.709
53140W        W25466  41.460  17.682   3.211
53141W        W25467  25.968   9.852   0.943
53142W        W25468  37.554  27.954   4.752
53143W        W25469  39.528  11.848   4.223
53144W        W25470  40.868  19.705  11.098
53145W        W25471  13.115   9.889   3.215
53146W        W25472  26.612   4.708   3.790
53147W        W25473  20.725  13.144   0.962
53148W        W25474  26.554  44.981   1.834
53149W        W25475  36.374  30.513  10.541
53150W        W25476  41.852   9.683  12.400
53151W        W25477  12.654  21.235  14.457
53152W        W25478  44.894  28.599   4.800
53153W        W25479  35.083  30.043  11.378
53154W        W25480  25.044   9.317   0.373
53155W        W25481  14.317  14.649  13.021
53156W        W25482   5.925  43.839   2.363
53157W        W25483   3.275  37.888  14.413
53158W        W25484  25.551  40.896  11.958
53159W        W25485  39.867  11.150   0.843
53160W        W25486  32.010  37.926  14.277
53161W        W25487  20.266  22.220   4.721
53162W        W25488  18.100  16.672  12.547
53163W        W25489  42.993  26.671   0.770
53164W        W25490  18.079   8.664  13.057
53165W        W25491  34.879   1.936  11.897
53166W        W25492  14.632  27.010   5.197
53167W        W25493  41.417  13.752   0.253
53168W        W25494  23.040  29.066   0.418
53169W        W25495  38.382   6.698  12.405
53170W        W25496  25.663  32.542  12.340
53171W        W25497   8.391  31.906   1.286
53172W        W25498   7.838  11.844  11.015
53173W        W25499  35.393  24.705   0.382
53174W        W25500  12.830  33.440   0.479
53175W        W25501  30.127  32.614   4.695
53176W        W25502  37.565   2.939  12.894
53177W        W25503   8.260  21.697  14.291
53178W        W25504  10.718   8.162  10.616
53179W        W25505  23.235  41.845   4.311
53180W        W25506  44.357  29.078  10.435
53181W        W25507   1.390   1.930  11.590
53182W        W25508  26.457  36.937  13.497
53183W        W25509  22.504  39.938   2.274
53184W        W25510  33.068  34.959   4.715
53185W        W25511  30.948   9.838   0.432
53186W        W25512   4.380  32.518   2.393
53187W        W25513  40.399  40.950  13.833
53188W        W25514  36.346  43.005  12.967
53189W        W25515  31.030   2.331   0.455
53190W        W25516  28.088   3.237   1.881
53191W        W25517  43.375  31.992  14.801
53192W        W25518  14.591  13.788  14.022
53193W        W25519  42.511  42.317  13.358
53194W        W25520  20.238  13.253  11.118
53195W        W25521   6.313  26.591   2.229
53196W        W25522  34.540   8.808   2.865
53197W        W25523  28.171  40.820   2.215
53198W        W25524   1.424  30.623  14.979
53199W        W25525   4.735   0.914  13.405
53200W        W25526  15.712  33.510  11.597
53201W        W25527  37.432  26.559   1.884
53202W        W25528   0.438   0.372  14.357
53203W        W25529  29.609  34.463  11.520
53204W        W25530   3.784  39.921  10.482
53205W        W25531  25.986   1.294  12.028
53206W        W25532  30.102  27.145  11.896
53207W        W25533  42.373  34.503   4.131
53208W        W25534  33.944   7.374   4.810
53209W        W25535  12.172  31.046   3.303
53210W        W25536   1.888  10.667  13.946
53211W        W25537   3.412  38.437   4.768
53212W        W25538  25.652  32.895  13.403
53213W        W25539  24.123  14.166  13.046
53214W        W25540  43.984  15.128  11.409
53215W        W25541   6.389  16.201  10.540
53216W        W25542   6.335   2.338  10.914
53217W        W25543  38.564  40.431  11.400
53218W        W25544  41.973  37.392  13.831
53219W        W25545  22.729  26.599  11.063
53220W        W25546  30.555  42.967   4.739
53221W        W25547  34.583  12.635   2.825
53222W        W25548  10.843  43.301  12.990
53223W        W25549  31.003  24.591   3.296
53224W        W25550  43.924  14.684   1.381
53225W        W25551  10.639   1.287   0.296
53226W        W25552  31.016  20.692   4.736
53227W        W25553  30.433   6.374   4.220
53228W        W25554  34.523  20.684   0.422
53229W        W25555  11.660  38.566   2.866
53230W        W25556  32.617  12.210   0.952
53231W        W25557  31.963  37.521  12.560
53232W        W25558  16.752   2.931  14.866
53233W        W25559  11.195  11.268  13.792
53234W        W25560  11.210  37.039  11.555
53235W        W25561  37.544  16.202  11.525
53236W        W25562  40.816  11.830  10.997
53237W        W25563  41.951  42.809  10.145
53238W        W25564  37.040   2.805  13.999
53239W        W25565  17.095  30.990  11.902
53240W        W25566  23.678  27.584  12.489
53241W        W25567  14.703   6.231  12.928
53242W        W25568   9.850  28.516   4.120
53243W        W25569  28.060  24.539   0.472
53244W        W25570   7.405  39.858   1.934
53245W        W25571  11.667   0.910   0.276
53246W        W25572  18.645  19.272  13.433
53247W        W25573  30.471  29.096  14.958
53248W        W25574   2.456  41.464  11.486
53249W        W25575   7.712   0.817  10.409
53250W        W25576   5.828  36.512   1.876
53251W        W25577  23.080  41.034   2.800
53252W        W25578  41.395   1.790  13.971
53253W        W25579  34.417  26.602  10.575
53254W        W25580   0.807  43.480   0.456
53255W        W25581  34.511  11.342  11.940
53256W        W25582  19.697  34.885  14.919
53257W        W25583  20.600  10.239  12.836
53258W        W25584  16.622  25.977   0.255
53259W        W25585  31.114  31.132  14.761
53260W        W25586   4.232  33.996  14.384
53261W        W25587  11.148  25.553  13.020
53262W        W25588  17.293   2.724   2.253
53263W        W25589  25.170  31.086   1.420
53264W        W25590   6.909  18.772  10.416
53265W        W25591   4.438   2.242  14.334
53266W        W25592  12.766  44.944  11.092
53267W        W25593  30.952  18.650   1.730
53268W        W25594  19.224  44.299   0.295
53269W        W25595  44.501  24.190   3.799
53270W        W25596  16.314  25.086  13.823
53271W        W25597  29.562  41.790  12.381
53272W        W25598   4.873  18.180   1.771
53273W        W25599  29.159  36.867   3.837
53274W        W25600  39.557  43.372  11.609
53275W        W25601  29.668  22.079  14.321
53276W        W25602   4.831  30.036   0.327
53277W        W25603   1.372  30.996  13.818
53278W        W25604  38.341  16.757  10.932
53279W        W25605  20.068  32.012  13.963
53280W        W25606  35.025  36.934  12.407
53281W        W25607  32.433   0.957   3.374
53282W        W25608   6.195  19.130  13.464
53283W        W25609  20.647   3.925   1.909
53284W        W25610  42.020  38.073   0.365
53285W        W25611   5.924  19.047  14.360
53286W        W25612  19.143  33.602  13.913
53287W        W25613  23.127  15.214  13.961
53288W        W25614  29.642   2.797   3.843
53289W        W25615  44.285  18.723  10.508
53290W        W25616   0.969  28.099  12.393
53291W        W25617  14.319  43.933  12.868
53292W        W25618  28.068   9.762  13.431
53293W        W25619  25.147   0.404  14.844
53294W        W25620   3.772  41.886   2.214
53295W        W25621  15.760  30.999   3.864
53296W        W25622  10.734  30.625  13.437
53297W        W25623  17.070  37.067   0.940
53298W        W25624   4.788  18.713   1.226
53299W        W25625  19.186  13.140   4.227
53300W        W25626   3.360  38.423   1.218
53301W        W25627  14.692  33.601   4.797
53302W        W25628  35.086   7.199   2.327
53303W        W25629  22.606   4.818   2.183
53304W        W25630  43.503  22.592   0.763
53305W        W25631  18.676  30.588  13.004
53306W        W25632  21.182  15.092  14.393
53307W        W25633   5.770  34.028   3.276
53308W        W25634   4.726  14.103  11.542
53309W        W25635  40.472  14.125   4.188
53310W        W25636  26.609  13.714  10.441
53311W        W25637  19.182   0.970  11.497
53312W        W25638  39.382  19.128   2.740
53313W        W25639   5.342  31.425  14.983
53314W        W25640   8.734  30.418  13.816
53315W        W25641  37.436  18.220   0.412
53316W        W25642  22.210  20.688   2.211
53317W        W25643  37.440  21.515  13.321
53318W        W25644  25.044  39.334   1.410
53319W        W25645  35.526  31.950   0.833
53320W        W25646  18.081  34.607   4.670
53321W        W25647  44.801  32.442   4.815
53322W        W25648   6.902  41.945   4.770
53323W        W25649  26.096  15.196  12.845
53324W        W25650  20.069   4.406  10.417
53325W        W25651  28.672   9.191   2.711
53326W        W25652   5.753  27.506  10.558
53327W        W25653  14.144  22.648   2.208
53328W        W25654  17.643  35.970   2.329
53329W        W25655  37.938  23.994   2.179
53330W        W25656   0.249  14.629  12.342
53331W        W25657  13.833  43.473  10.550
53332W        W25658  24.177  43.959   3.683
53333W        W25659  37.478  41.020  10.997
53334W        W25660   0.767   6.314  13.503
53335W        W25661  44.775  11.750  12.516
53336W        W25662  14.325  21.158   4.799
53337W        W25663   1.861  15.699  13.018
53338W        W25664  31.463  20.189  11.449
53339W        W25665   3.913   8.816  10.417
53340W        W25666  12.741  25.665  11.474
53341W        W25667  11.700  27.521  13.533
53342W        W25668   7.410  26.665  10.409
53343W        W25669  37.959  11.196  12.997
53344W        W25670  10.678  29.637   2.902
53345W        W25671  11.860  22.059   4.223
53346W        W25672  23.716   0.326  11.402
53347W        W25673  31.054  35.463  13.347
53348W        W25674  25.516  29.050   0.805
53349W        W25675   1.469  23.241   0.421
53350W        W25676  24.556   1.384  12.835
53351W        W25677  22.023   3.421   0.269
53352W        W25678   5.791  18.789  10.959
53353W        W25679   5.244  14.199  14.328
53354W        W25680  37.396  39.888   3.825
53355W        W25681  32.136  26.628  13.955
53356W        W25682   8.322  40.963  14.474
53357W        W25683  16.191  21.065   2.201
53358W        W25684  27.526  28.998  12.983
53359W        W25685  11.662  18.591  10.917
53360W        W25686  37.403   3.752  11.487
53361W        W25687   7.839  20.702   1.422
53362W        W25688  39.421  10.237  14.459
53363W        W25689  23.037  44.965  11.101
53364W        W25690  30.612  28.152   3.364
53365W        W25691  29.492  32.475   0.409
53366W        W25692  27.174  13.201   1.331
53367W        W25693  15.217   9.245   2.888
53368W        W25694  18.112  21.168   4.122
53369W        W25695  32.495  32.048  13.542
53370W        W25696  16.659  13.646   4.619
53371W        W25697   4.268  38.491  13.334
53372W        W25698  18.711  12.726  14.830
53373W        W25699  26.148  25.480   0.457
53374W        W25700  44.417  44.824   1.852
53375W        W25701   6.717  35.553   3.830
53376W        W25702  39.912   5.212  11.560
53377W        W25703  22.243  35.975  12.834
53378W        W25704  21.152  10.740  10.473
53379W        W25705  28.464  16.583  13.478
53380W        W25706   8.713  38.927   4.146
53381W        W25707  32.029  27.033  13.873
53382W        W25708  37.849  32.959  11.446
53383W        W25709  32.952  16.770  12.987
53384W        W25710  13.231  33.933   2.788
53385W        W25711   1.755  35.934   3.256
53386W        W25712  30.077  25.645  11.870
53387W        W25713  13.226   1.913  13.950
53388W        W25714  22.517  17.233   3.748
53389W        W25715  23.688   5.800   0.278
53390W        W25716   2.241   9.649   4.737
53391W        W25717  35.068  34.591   1.832
53392W        W25718  19.729  18.148   3.859
53393W        W25719  26.173  34.867   4.244
53394W        W25720  26.653  38.350  10.918
53395W        W25721  28.605  30.937  10.606
53396W        W25722  27.501  27.025   0.303
53397W        W25723  13.659  17.191  13.975
53398W        W25724  13.733  21.110  13.796
53399W        W25725  43.833  42.789  14.497
53400W        W25726  18.777  18.747   4.170
53401W        W25727  44.789  13.241  11.013
53402W        W25728  25.641   1.299  12.005
53403W        W25729  11.722  14.706   2.853
53404W        W25730  35.982   0.418  14.464
53405W        W25731   6.388  29.546  14.499
53406W        W25732   3.251  33.482   3.663
53407W        W25733  17.224   7.262  11.437
53408W        W25734   8.891   9.362  14.018
53409W        W25735  38.570  20.527   0.840
53410W        W25736   4.235   9.328   4.746
53411W        W25737   8.688  21.690   3.296
53412W        W25738  24.509  18.140   9.598
53413W        W25739  30.600  40.935   4.818
53414W        W25740   0.746   4.745   2.258
53415W        W25741  38.458  16.097   3.640
53416W        W25742  12.303  34.024   0.392
53417W        W25743   8.744  32.504   4.331
53418W        W25744  15.326   3.718   4.772
53419W        W25745  17.260  36.347  12.461
53420W        W25746   6.295   2.471   0.348
53421W        W25747   0.466   1.346   1.767
53422W        W25748  17.302  40.423  10.016
53423W        W25749   9.154  44.490   2.801
53424W        W25750   9.662  19.220  13.323
53425W        W25751  15.117  31.017  13.451
53426W        W25752  34.046   2.420  14.992
53427W        W25753  35.554  15.308   1.426
53428W        W25754  14.122   9.827   0.275
53429W        W25755  42.448  18.130  14.895
53430W        W25756  21.652  32.022   0.941
53431W        W25757  20.661  29.933  10.897
53432W        W25758  23.727   2.321   1.746
53433W        W25759  27.008   4.827  10.947
53434W        W25760  16.077  37.924   0.465
53435W        W25761  16.661  13.660  10.904
53436W        W25762  38.041   5.407   0.917
53437W        W25763   2.777  33.499  14.370
53438W        W25764  25.591  12.731   2.351
53439W        W25765  38.490   6.760   3.646
53440W        W25766  11.822  35.392  10.014
53441W        W25767  18.561  41.017   4.334
53442W        W25768  43.483   8.834   5.188
53443W        W25769  22.581  18.686   4.700
53444W        W25770  15.800   4.406   3.774
53445W        W25771  32.437  33.997  10.564
53446W        W25772  20.572  41.382   4.172
53447W        W25773   6.302  34.036   0.342
53448W        W25774   0.481  13.822   4.613
53449W        W25775   8.228  44.791  13.342
53450W        W25776  18.132   2.420  14.931
53451W        W25777  41.844  20.572   0.792
53452W        W25778  11.324  36.945  12.506
53453W        W25779  22.555  37.568   0.379
53454W        W25780  19.668  11.260   2.222
53455W        W25781   2.383   4.868   2.720
53456W        W25782   4.225  37.490   0.921
53457W        W25783  16.657  41.350  11.514
53458W        W25784  22.713  25.631   3.776
53459W        W25785  25.032  23.705  13.347
53460W        W25786  24.193  11.337   0.467
53461W        W25787  33.898  15.232  11.877
53462W        W25788  16.603  38.446   4.789
53463W        W25789  19.109  34.437   0.253
53464W        W25790  35.378  36.548  13.996
53465W        W25791  10.177  23.083  11.417
53466W        W25792  17.649  13.175  12.535
53467W        W25793  37.076  16.238  13.821
53468W        W25794   8.304   4.220   1.705
53469W        W25795  17.653  31.128   1.843
53470W        W25796   0.792  13.797  12.961
53471W        W25797   2.432  30.049  12.025
53472W        W25798   8.368  33.474   4.728
53473W        W25799   3.751  21.549  10.997
53474W        W25800  16.800  32.984  14.447
53475W        W25801  27.168  32.051  13.342
53476W        W25802  39.026  23.490   2.827
53477W        W25803  35.945  33.428   9.463
53478W        W25804  37.911  41.847  10.962
53479W        W25805  37.916  17.271  11.963
53480W        W25806  23.989  38.998  14.492
53481W        W25807  29.921  28.589   4.205
53482W        W25808   5.300  12.232  13.857
53483W        W25809  36.351   6.871   2.260
53484W        W25810   2.247   3.886  14.880
53485W        W25811  38.995   2.426   4.307
53486W        W25812  40.000  10.140  12.892
53487W        W25813   7.707  19.130   4.685
53488W        W25814  28.543  26.097   4.778
53489W        W25815  23.188  28.989  11.393
53490W        W25816  22.662  17.274   4.622
53491W        W25817  18.607  22.545  11.093
53492W        W25818  17.150   7.297  10.581
53493W        W25819  15.276  30.095   2.188
53494W        W25820   9.862  11.627  11.532
53495W        W25821  31.408  16.800   1.919
53496W        W25822   6.350  24.002   1.753
53497W        W25823  36.574   4.383  13.047
53498W        W25824   0.289  16.238   4.338
53499W        W25825  14.178  14.648   1.873
53500W        W25826  30.084  15.176   4.344
53501W        W25827  40.446  44.368  14.994
53502W        W25828   3.430  34.921  14.416
53503W        W25829  10.854  19.626   1.812
53504W        W25830   5.768  11.729  10.570
53505W        W25831  26.156  32.445   2.764
53506W        W25832  37.934  44.836  14.969
53507W        W25833  42.015  21.540  11.399
53508W        W25834  26.988  43.276  13.397
53509W        W25835  21.688  33.979  13.934
53510W        W25836   2.939   8.733  14.482
53511W        W25837  14.748  35.518  11.922
53512W        W25838  11.314  35.985   3.708
53513W        W25839  13.707   5.431  11.585
53514W        W25840   3.743   7.689  12.530
53515W        W25841  33.995  25.621   3.267
53516W        W25842  18.747  16.193  11.089
53517W        W25843  39.843  41.326   1.899
53518W        W25844  18.735  42.401  10.407
53519W        W25845  25.015  22.090   0.816
53520W        W25846  35.498  39.441  10.443
53521W        W25847   6.243  12.333  12.910
53522W        W25848  43.401  27.123   3.364
53523W        W25849  17.160  41.875   3.789
53524W        W25850  41.476   2.309   3.666
53525W        W25851  35.457   8.709  12.449
53526W        W25852  24.563  23.563   2.266
53527W        W25853   2.414   2.742  14.972
53528W        W25854  20.695  20.535   3.349
53529W        W25855   9.303  42.855  10.462
53530W        W25856  42.856  14.660   1.847
53531W        W25857  22.699  37.905   2.202
53532W        W25858  28.461   6.883  12.414
53533W        W25859  13.185  15.248   4.312
53534W        W25860  24.545  42.809   0.467
53535W        W25861  26.593   3.322   0.754
53536W        W25862  33.571   2.242   4.339
53537W        W25863  17.087  27.655  13.948
53538W        W25864   1.371  39.000  13.337
53539W        W25865  12.297  23.709  12.578
53540W        W25866   4.376  27.173  14.393
53541W        W25867   6.769  13.754   4.313
53542W        W25868   1.342  11.742   9.656
53543W        W25869   3.924  20.153   1.708
53544W        W25870  41.943   8.216   4.716
53545W        W25871   1.422  11.320  11.553
53546W        W25872  32.903  33.528  13.916
53547W        W25873  41.941  17.585  14.990
53548W        W25874  37.054  26.165  12.960
53549W        W25875  32.471  36.015   0.940
53550W        W25876  20.216  28.590  14.928
53551W        W25877   9.827  27.575   2.245
53552W        W25878  18.198  22.043  12.009
53553W        W25879   8.698   4.752   4.209
53554W        W25880  37.989  34.437  14.425
53555W        W25881  20.602  22.180   4.830
53556W        W25882  26.064   9.883  14.786
53557W        W25883   7.376  34.867   2.396
53558W        W25884  25.988  35.089   3.359
53559W        W25885  28.042  30.044   2.359
53560W        W25886  40.953  36.423   2.265
53561W        W25887  32.930  36.861  12.858
53562W        W25888   4.702  25.137  10.405
53563W        W25889  37.989  15.244   1.434
53564W        W25890  13.809   0.859  10.498
53565W        W25891  11.372  43.962  12.508
53566W        W25892  31.427  26.063  11.465
53567W        W25893  43.320  41.405  13.026
53568W        W25894  19.237   4.705  14.875
53569W        W25895  17.748  19.627  13.927
53570W        W25896  44.355  26.457  10.459
53571W        W25897  26.175  44.937  12.365
53572W        W25898   5.330  10.804   2.398
53573W        W25899  43.277   1.399   3.374
53574W        W25900  10.722  10.158  10.087
53575W        W25901  35.364  20.069   1.210
53576W        W25902  30.456  29.019  12.982
53577W        W25903  26.985  22.251   4.770
53578W        W25904  28.563  42.349  12.397
53579W        W25905   3.937   2.269   9.636
53580W        W25906  39.548  44.375  13.047
53581W        W25907  42.971  28.628   0.867
53582W        W25908  24.703  23.503  12.846
53583W        W25909   6.426  29.536   4.777
53584W        W25910  30.067   7.267   4.237
53585W        W25911  28.628   3.374  14.916
53586W        W25912  29.922  36.519   0.349
53587W        W25913  10.220  10.196   3.801
53588W        W25914   2.294  16.113  14.372
53589W        W25915   1.820   9.862  13.902
53590W        W25916   7.342  16.272   0.385
53591W        W25917  37.979  11.310  12.056
53592W        W25918  43.985   2.382  13.935
53593W        W25919   8.324  29.172   1.325
53594W        W25920  18.162  18.171   4.631
53595W        W25921  44.767   8.837   1.734
53596W        W25922  20.050  42.998   5.297
53597W        W25923   4.348   2.462  13.973
53598W        W25924  38.462  16.200  11.611
53599W        W25925  35.409   2.836  14.958
53600W        W25926   3.281  37.384   2.338
53601W        W25927  42.030  34.485   3.233
53602W        W25928   3.261   4.867  10.446
53603W        W25929   1.809  20.532  14.351
53604W        W25930   7.771   4.883   2.225
53605W        W25931   5.868  38.828  11.071
53606W        W25932   1.795  27.478   4.813
53607W        W25933   7.300  32.922   2.378
53608W        W25934  30.081  26.063  11.425
53609W        W25935  17.168   5.425  14.319
53610W        W25936  12.178   0.276  14.416
53611W        W25937  23.687  23.998  11.376
53612W        W25938  44.007   0.353   3.721
53613W        W25939  11.713  28.667  13.431
53614W        W25940  41.042  33.052  13.457
53615W        W25941  28.611   3.736  14.912
53616W        W25942  28.677  13.219   4.242
53617W        W25943  19.091  34.465  12.924
53618W        W25944  33.480  44.798  13.883
53619W        W25945  28.169   4.726  11.401
53620W        W25946  33.545   5.439  10.600
53621W        W25947  18.755  13.193   0.795
53622W        W25948  38.020   9.269   0.448
53623W        W25949  22.186   8.272   3.381
53624W        W25950  36.922  36.564   3.682
53625W        W25951  36.055   7.833   3.637
53626W        W25952   3.227  23.116  13.791
53627W        W25953  31.110  43.769  10.581
53628W        W25954   1.743  15.784   3.775
53629W        W25955   0.470  19.648  10.558
53630W        W25956  23.149  12.750  12.535
53631W        W25957  36.444  33.130  14.763
53632W        W25958   6.427  21.549  14.360
53633W        W25959  32.041  24.155  12.048
53634W        W25960  36.966  31.600  11.882
53635W        W25961  22.731  43.785  11.448
53636W        W25962  28.570   4.332  14.841
53637W        W25963  12.255  33.522   1.231
53638W        W25964   2.313  38.339   1.694
53639W        W25965  44.486  34.098  14.503
53640W        W25966  35.982   5.725   4.786
53641W        W25967  36.580  17.565   4.761
53642W        W25968  13.671  33.125   2.251
53643W        W25969   7.269   8.709   1.796
53644W        W25970   0.748  19.753  12.512
53645W        W25971  38.961   0.808  13.416
53646W        W25972  44.863  14.770  14.897
53647W        W25973  36.016  14.103   2.707
53648W        W25974  11.240  39.927   0.255
53649W        W25975   9.653   3.860   3.867
53650W        W25976  15.706  26.130  12.985
53651W        W25977  20.189   2.921  12.840
53652W        W25978   2.381  11.160   3.690
53653W        W25979  27.071  28.593  12.935
53654W        W25980   6.747  39.457  14.768
53655W        W25981  40.023  22.011   4.658
53656W        W25982  26.963  24.701  11.579
53657W        W25983  22.036   6.849  11.550
53658W        W25984   2.814  31.472  13.977
53659W        W25985   7.375   6.795   0.902
53660W        W25986  29.167   8.315   4.718
53661W        W25987  15.586  18.766  12.004
53662W        W25988  10.861  36.443   1.719
53663W        W25989   3.720  43.949   1.396
53664W        W25990  37.376   3.881  12.362
53665W        W25991  30.602  16.649  14.863
53666W        W25992  18.661   2.286   0.888
53667W        W25993  10.234   4.275   4.278
53668W        W25994  25.181  27.172  11.935
53669W        W25995   2.231  28.128   2.188
53670W        W25996  36.069  17.562  12.980
53671W        W25997   1.883   4.913  10.419
53672W        W25998  25.549  18.154  14.275
53673W        W25999  40.490  36.017  11.373
53674W        W26000  26.682  32.576   4.719
53675W        W26001   7.698  41.501   4.770
53676W        W26002  41.484  37.498  10.958
53677W        W26003  43.308  10.196  14.349
53678W        W26004  32.501  10.176  14.794
53679W        W26005   8.260  10.208   0.245
53680W        W26006  37.524  20.246   3.642
53681W        W26007  30.950  24.162  12.081
53682W        W26008   6.373  38.033   1.858
53683W        W26009   2.871  14.293   3.372
53684W        W26010  35.530  17.254   3.653
53685W        W26011  23.041  21.660  14.778
53686W        W26012  23.566  29.618  12.557
53687W        W26013  12.177  33.907   4.732
53688W        W26014  21.134  33.542  13.321
53689W        W26015  30.521  25.074  11.958
53690W        W26016  40.973  21.517  13.401
53691W        W26017  18.139  43.850  10.439
53692W        W26018   7.746  36.519   0.787
53693W        W26019  18.582  13.184   3.216
53694W        W26020  28.030   9.760   3.217
53695W        W26021   3.257   8.674  11.059
53696W        W26022   8.736  15.690   2.180
53697W        W26023  22.040  38.946  14.838
53698W        W26024  29.085  17.606  12.019
53699W        W26025  43.934  14.182  11.447
53700W        W26026  32.498  17.580   4.258
53701W        W26027  34.546  30.076   4.806
53702W        W26028  19.578   2.282   1.276
53703W        W26029  20.060   3.243   1.756
53704W        W26030  14.273   7.347   0.480
53705W        W26031   1.875  37.946  13.917
53706W        W26032  23.174   8.722   0.885
53707W        W26033  36.474   5.305   2.788
53708W        W26034  15.728  30.543  13.851
53709W        W26035  42.482  22.676   2.770
53710W        W26036  11.831  21.072   3.306
53711W        W26037  27.638  23.030  10.460
53712W        W26038  26.554  17.635   1.772
53713W        W26039  28.141  36.418   2.795
53714W        W26040  24.002  12.712  11.911
53715W        W26041  34.538  31.143   0.777
53716W        W26042   4.431   9.858  13.470
53717W        W26043  11.186   4.895   4.658
53718W        W26044  21.582  24.540   0.467
53719W        W26045   6.875   0.276  10.582
53720W        W26046  16.729  16.679   3.650
53721W        W26047   9.171   3.792   2.359
53722W        W26048  25.620  42.519  11.579
53723W        W26049  32.053  21.144   3.350
53724W        W26050  39.859  37.983   4.699
53725W        W26051  13.790   0.325   1.362
53726W        W26052  14.169   6.872   4.305
53727W        W26053  11.250  21.103   0.263
53728W        W26054  35.534  25.643   4.642
53729W        W26055  31.563  35.390  12.084
53730W        W26056  44.862   5.931   2.363
53731W        W26057  28.449  13.129   0.267
53732W        W26058  23.022  20.566   4.250
53733W        W26059  40.328  26.467   3.198
53734W        W26060  34.043  17.227   1.775
53735W        W26061   7.378  10.186   4.291
53736W        W26062  44.396  37.384   3.802
53737W        W26063   9.844  36.034   0.315
53738W        W26064  18.783  36.409   0.312
53739W        W26065   5.226  31.955   1.271
53740W        W26066  25.707  26.468  10.543
53741W        W26067  11.820  16.135   0.736
53742W        W26068  42.900  20.524  11.605
53743W        W26069  29.155  20.530  11.951
53744W        W26070  15.739  13.200  12.370
53745W        W26071   4.709   5.927   1.768
53746W        W26072   7.675   4.741   3.865
53747W        W26073   3.406   8.885  11.440
53748W        W26074  27.977  30.122  13.547
53749W        W26075  27.682  29.926   3.268
53750W        W26076  26.653  39.517  11.938
53751W        W26077  26.034  32.488  14.845
53752W        W26078  43.490  36.395   0.938
53753W        W26079  19.215  15.311  10.940
53754W        W26080  13.123  17.555  13.844
53755W        W26081   2.303  33.047   0.901
53756W        W26082  24.491  34.408  11.578
53757W        W26083  16.716  10.204  10.585
53758W        W26084   8.720  15.302  14.808
53759W        W26085   7.816  37.435   0.900
53760W        W26086  35.954  19.534   1.902
53761W        W26087   3.725  40.950   0.426
53762W        W26088  32.513   1.297   4.661
53763W        W26089  19.187  14.777  10.597
53764W        W26090  42.879   2.821  13.025
53765W        W26091  16.702  11.663  11.401
53766W        W26092  36.546   2.320   1.715
53767W        W26093  30.070  28.456   2.724
53768W        W26094   5.776  18.076   3.274
53769W        W26095  20.656  38.056  13.339
53770W        W26096  29.588  23.636  12.075
53771W        W26097  17.139  24.974   2.748
53772W        W26098   4.709  30.479   3.722
53773W        W26099   1.279  15.590   4.805
53774W        W26100   4.236  28.439  13.839
53775W        W26101   1.274   8.705  13.356
53776W        W26102  11.806  27.470   4.262
53777W        W26103  16.313  23.697  12.863
53778W        W26104  15.272  24.170   2.332
53779W        W26105  18.255  11.815  12.451
53780W        W26106   3.389  44.903   1.820
53781W        W26107   0.846   6.277  14.346
53782W        W26108  10.359  22.588   5.182
53783W        W26109  32.470   9.772  13.803
53784W        W26110  40.546   6.269   9.941
53785W        W26111   4.277  41.997   1.245
53786W        W26112  35.467  37.070   2.283
53787W        W26113   0.280   1.914   5.734
53788W        W26114   9.319  15.249   0.439
53789W        W26115   9.354  21.089   0.937
53790W        W26116  35.484  12.689  11.581
53791W        W26117  38.877  27.178   2.290
53792W        W26118  30.103   2.849   1.914
53793W        W26119  34.108  20.660   3.822
53794W        W26120  30.163   4.227  14.999
53795W        W26121  22.606  25.043   0.259
53796W        W26122  19.623  31.943  10.462
53797W        W26123  33.979  23.532   5.215
53798W        W26124   3.880  33.005   2.763
53799W        W26125  14.245  37.468  13.974
53800W        W26126  11.757  32.416   4.351
53801W        W26127  29.000  17.561   1.858
53802W        W26128  22.166  10.764   2.261
53803W        W26129  24.140  23.620  12.429
53804W        W26130  38.958  13.207   0.417
53805W        W26131  32.098  41.394   0.745
53806W        W26132  20.129  14.831  11.594
53807W        W26133  41.491   9.832  13.938
53808W        W26134  40.340  22.620   3.304
53809W        W26135  42.022  32.542   1.245
53810W        W26136   4.371  34.117   0.864
53811W        W26137  28.570  28.966   5.566
53812W        W26138  13.748  38.488  13.417
53813W        W26139  33.564  18.217  13.539
53814W        W26140   6.343  43.373  11.531
53815W        W26141   2.792  43.900   2.377
53816W        W26142  28.944  10.371   2.400
53817W        W26143   1.876   2.935   1.826
53818W        W26144  39.367   7.745  12.363
53819W        W26145  10.718  27.087  11.556
53820W        W26146  14.637  26.675  10.463
53821W        W26147  29.028  23.649   0.302
53822W        W26148  41.338  35.002  12.574
53823W        W26149  42.430  23.688   0.295
53824W        W26150  14.266  43.394  13.521
53825W        W26151  31.517  33.457   1.334
53826W        W26152  13.257  32.928   4.339
53827W        W26153  41.422  31.556   1.233
53828W        W26154   2.469   0.853  11.088
53829W        W26155  30.493  33.041  14.490
53830W        W26156  41.808  19.060   3.653
53831W        W26157  34.104  40.971   0.897
53832W        W26158  34.980  13.723   0.927
53833W        W26159   7.355   5.367   1.722
53834W        W26160  16.743  40.974   1.380
53835W        W26161  19.089  11.247  12.924
53836W        W26162  13.709  37.060   5.567
53837W        W26163   3.461  28.507  13.020
53838W        W26164  21.050   4.447  12.868
53839W        W26165  42.357  22.633  12.412
53840W        W26166  28.061  23.100   1.904
53841W        W26167  10.174  36.481   4.674
53842W        W26168  22.103  36.383  10.969
53843W        W26169  44.780  33.966   4.757
53844W        W26170  42.858  43.018  10.608
53845W        W26171   6.310  36.867   0.412
53846W        W26172  38.519  33.951  13.375
53847W        W26173  30.132   1.331   3.285
53848W        W26174   1.953   3.922  11.409
53849W        W26175  13.130   8.848  13.893
53850W        W26176  32.481  11.737   3.652
53851W        W26177   9.812  18.744   2.198
53852W        W26178  39.852  22.697  11.897
53853W        W26179   0.472  17.791   3.642
53854W        W26180  10.831  15.195  14.904
53855W        W26181   6.343  33.398  13.524
53856W        W26182  14.169   7.748   1.250
53857W        W26183   2.254  37.865   3.188
53858W        W26184  43.506  37.879  12.022
53859W        W26185  41.390  13.236  14.308
53860W        W26186   1.303  18.141  13.796
53861W        W26187  37.969   3.902  11.911
53862W        W26188  14.161  10.191  13.327
53863W        W26189   4.269   8.273  10.493
53864W        W26190  10.732  11.702   1.444
53865W        W26191   4.377   6.761   3.356
53866W        W26192  44.399  13.712   1.292
53867W        W26193  33.099  26.200   1.909
53868W        W26194   5.861  25.176  12.426
53869W        W26195  38.861   0.821  14.917
53870W        W26196   6.736   5.382   1.323
53871W        W26197  11.290  39.558  11.425
53872W        W26198   5.774   9.211   4.781
53873W        W26199  25.493   4.815  11.589
53874W        W26200   3.297  22.664  13.881
53875W        W26201  42.295   2.849   1.390
53876W        W26202   6.716  22.676  10.898
53877W        W26203  33.916  40.948   3.702
53878W        W26204  20.039  35.108  12.457
53879W        W26205  14.266  40.496   0.917
53880W        W26206   6.329  11.700   0.259
53881W        W26207   6.287  35.051   2.731
53882W        W26208  36.450  27.579   0.728
53883W        W26209  17.274  24.485  10.150
53884W        W26210  24.126  12.782   0.398
53885W        W26211  31.481   1.416  13.907
53886W        W26212  34.951  21.089  13.056
53887W        W26213  15.819  37.556  11.459
53888W        W26214   3.890  43.405  11.072
53889W        W26215  42.011   3.343   1.233
53890W        W26216   5.398  32.619  14.895
53891W        W26217  11.201  37.368  14.848
53892W        W26218   1.387   2.757  14.459
53893W        W26219  38.072  22.999  10.545
53894W        W26220  34.443   5.859  13.476
53895W        W26221  11.768   0.825   4.342
53896W        W26222  15.742  14.692  13.985
53897W        W26223  30.935  40.943   0.962
53898W        W26224   8.827  29.956   3.202
53899W        W26225   0.948   1.822  11.923
53900W        W26226   2.802  36.067  12.080
53901W        W26227   1.249  41.511  14.497
53902W        W26228   2.845  35.912  10.583
53903W        W26229   7.333  24.559  10.990
53904W        W26230  30.097  18.114   4.263
53905W        W26231   1.450  39.883  12.994
53906W        W26232   9.784  33.992   1.760
53907W        W26233  30.991   6.421  12.434
53908W        W26234  27.459  31.629  13.813
53909W        W26235  16.635   1.405  14.293
53910W        W26236  21.051  11.329  11.447
53911W        W26237   3.281   9.181   0.736
53912W        W26238  22.122   4.711  10.558
53913W        W26239  14.821  17.143   4.145
53914W        W26240  25.200  38.052  11.964
53915W        W26241   1.371  44.484   3.387
53916W        W26242   7.276   2.467   1.896
53917W        W26243  32.981  28.545  13.950
53918W        W26244  33.408  40.429  12.909
53919W        W26245  28.440  23.605   2.205
53920W        W26246   9.735   1.421   0.902
53921W        W26247   7.390  35.881  12.017
53922W        W26248  12.774  22.582   1.750
53923W        W26249  30.999  29.440  14.280
53924W        W26250  25.123  33.454   2.209
53925W        W26251  29.161  27.982   1.437
53926W        W26252  36.561  38.989   0.415
53927W        W26253   2.841  25.107   4.826
53928W        W26254  14.156  26.602   0.273
53929W        W26255  11.844  32.141  14.854
53930W        W26256  23.581  21.257   4.205
53931W        W26257  20.247  17.768   0.454
53932W        W26258  15.198   5.773  11.585
53933W        W26259  40.025  28.437  13.850
53934W        W26260   9.763  39.928   4.623
53935W        W26261  36.878  38.546  10.991
53936W        W26262  34.084  39.327   2.901
53937W        W26263  39.545   8.220   2.311
53938W        W26264  15.713  39.946  10.958
53939W        W26265   5.912  41.002  14.497
53940W        W26266  43.776  34.927  11.026
53941W        W26267   2.723   0.410  14.971
53942W        W26268  43.461  23.084  12.065
53943W        W26269   8.237  25.571  10.644
53944W        W26270  36.985  24.536   0.291
53945W        W26271  29.499   3.335   0.844
53946W        W26272  29.467  24.101  12.886
53947W        W26273  27.667  24.192   4.774
53948W        W26274  27.173  10.336  11.002
53949W        W26275  30.421  27.670  13.063
53950W        W26276  32.546  19.747   4.803
53951W        W26277  38.055   4.811  11.878
53952W        W26278  26.202   5.400  10.532
53953W        W26279  32.451   6.407   1.234
53954W        W26280  18.231   7.401   3.264
53955W        W26281  39.038  16.766   3.178
53956W        W26282   2.258   3.395   0.248
53957W        W26283  17.135  43.269   1.332
53958W        W26284  44.945  13.287   1.849
53959W        W26285   7.212  14.163  12.997
53960W        W26286  35.588  13.343  13.794
53961W        W26287  42.474  37.446   3.719
53962W        W26288  44.436  19.550   0.292
53963W        W26289  11.700  12.140   2.819
53964W        W26290   1.280   2.725   0.323
53965W        W26291   1.855  35.981   0.775
53966W        W26292  30.994  25.058  10.910
53967W        W26293  33.965  25.505   1.344
53968W        W26294  31.532  24.172  10.613
53969W        W26295  10.862   2.872  14.454
53970W        W26296  39.368   9.662   4.296
53971W        W26297  43.967  26.139  13.455
53972W        W26298   5.199   0.487  11.454
53973W        W26299  12.263  32.104   3.746
53974W        W26300  24.613  22.692  12.838
53975W        W26301  21.544  42.808  11.109
53976W        W26302  13.159  29.488  14.402
53977W        W26303  13.650  33.452   2.397
53978W        W26304  25.088  24.679   3.785
53979W        W26305  34.429   0.256   2.712
53980W        W26306  37.352   8.804  14.436
53981W        W26307  28.935  30.944  12.845
53982W        W26308  18.669  19.608  11.444
53983W        W26309   5.867  21.712   1.810
53984W        W26310  20.062  18.683   3.332
53985W        W26311  40.341  36.015  12.518
53986W        W26312  10.745  26.011   1.860
53987W        W26313  34.369   2.307   2.716
53988W        W26314  11.789   7.341  14.388
53989W        W26315  37.892  22.694   1.266
53990W        W26316   1.466  41.321   4.351
53991W        W26317  29.042  24.181   2.829
53992W        W26318  10.263  41.430  10.509
53993W        W26319  31.433  30.004   0.940
53994W        W26320  13.751  42.408   4.713
53995W        W26321  24.014   3.832   4.347
53996W        W26322  41.422  11.151   0.407
53997W        W26323  39.402  13.824  10.490
53998W        W26324  43.914  16.264   1.412
53999W        W26325  44.411   8.333  11.499
54000W        W26326  15.147   2.291   4.293
54001W        W26327  15.095  34.447   4.693
54002W        W26328  33.915  43.404  12.058
54003W        W26329  42.872   9.648   4.616
54004W        W26330  37.022  19.752  12.543
54005W        W26331  31.540   5.817  13.936
54006W        W26332  29.970  24.973  10.637
54007W        W26333  41.801   8.808   3.207
54008W        W26334  16.611  10.347  12.369
54009W        W26335   5.347  14.675  14.368
54010W        W26336  27.943   4.723   5.194
54011W        W26337   0.744  16.240  14.887
54012W        W26338  12.758  23.602   2.683
54013W        W26339  19.192  42.961  13.851
54014W        W26340  43.981   1.350  10.998
54015W        W26341  19.575   4.936   3.176
54016W        W26342   9.659  19.116   1.238
54017W        W26343  41.867  24.225   1.723
54018W        W26344  30.981  31.551  12.481
54019W        W26345  25.092   3.434  12.578
54020W        W26346   6.711   8.666  14.767
54021W        W26347   1.835  15.168   1.377
54022W        W26348  18.599  37.865  11.574
54023W        W26349  33.989  38.472  10.617
54024W        W26350  31.646  44.345  13.851
54025W        W26351  24.027  21.646   4.278
54026W        W26352  16.754   3.833   0.958
54027W        W26353  17.769  25.580   0.954
54028W        W26354  22.240  26.692   0.429
54029W        W26355  43.359  19.549  10.961
54030W        W26356   5.329  35.042   2.277
54031W        W26357  22.743   2.734   2.857
54032W        W26358  36.591  36.090   4.697
54033W        W26359  14.309  13.782  12.871
54034W        W26360  37.373  37.929  12.884
54035W        W26361   8.769  22.073   1.228
54036W        W26362  37.418  37.525   2.348
54037W        W26363  29.962   6.309  12.492
54038W        W26364  11.325  37.523   2.387
54039W        W26365  12.135  25.502  10.578
54040W        W26366  20.660  41.296  10.891
54041W        W26367   6.345  29.643   2.396
54042W        W26368  25.601  41.843  12.062
54043W        W26369  37.442  20.753  12.039
54044W        W26370  39.371  24.230  13.895
54045W        W26371  24.616  37.946   1.819
54046W        W26372  33.445   9.692  14.444
54047W        W26373  20.653  43.379   0.777
54048W        W26374  39.923   8.243  13.439
54049W        W26375  27.048   6.838  14.486
54050W        W26376  25.646  29.924  12.417
54051W        W26377  22.629  30.614   4.638
54052W        W26378  40.869  10.649   4.793
54053W        W26379  17.163  28.971  13.481
54054W        W26380  35.529  32.104   2.257
54055W        W26381   6.914   7.198  12.503
54056W        W26382  36.564  38.837  12.049
54057W        W26383  40.983  30.478  14.395
54058W        W26384  13.147   1.413   3.279
54059W        W26385  16.599  41.849  12.011
54060W        W26386  33.452  11.721   1.722
54061W        W26387  24.708  27.045   0.432
54062W        W26388  35.445  17.614  13.025
54063W        W26389  10.689   8.805   2.750
54064W        W26390  20.746  38.985   1.395
54065W        W26391   0.408   6.290   0.338
54066W        W26392  41.823   4.435   4.619
54067W        W26393  27.961  10.746  12.343
54068W        W26394   1.742  22.728  14.935
54069W        W26395   6.277  13.639   0.391
54070W        W26396  43.896  28.041  10.894
54071W        W26397  16.601  25.513  11.458
54072W        W26398  11.706   0.279   0.375
54073W        W26399  34.475  34.409   0.862
54074W        W26400   1.769  12.755   2.896
54075W        W26401  36.574   0.370   4.246
54076W        W26402  38.008   0.757  12.560
54077W        W26403   9.168   7.175  12.883
54078W        W26404  34.511  18.106   4.824
54079W        W26405  14.815  16.767   1.826
54080W        W26406   7.375  33.489   1.762
54081W        W26407  16.574   1.441  12.487
54082W        W26408  41.444  12.239  13.361
54083W        W26409  17.124  25.584   3.631
54084W        W26410  39.060   7.877   1.334
54085W        W26411  32.509  14.655   1.760
54086W        W26412  30.152  28.674  14.452
54087W        W26413  10.853   6.389   3.842
54088W        W26414  15.673   5.219  14.989
54089W        W26415   8.194  16.157  11.587
54090W        W26416  17.108  32.121  13.803
54091W        W26417  21.187   8.679  10.161
54092W        W26418  33.586   4.264  13.428
54093W        W26419  13.196   2.904   4.193
54094W        W26420  38.532  15.747  12.832
54095W        W26421  20.640  29.427   2.876
54096W        W26422  38.442   9.321  14.381
54097W        W26423  18.230  16.748  10.514
54098W        W26424  36.080  17.592   4.136
54099W        W26425   6.774  29.567  13.841
54100W        W26426  44.983  29.138   4.631
54101W        W26427  28.137  44.372   1.426
54102W        W26428  16.794  10.263   4.749
54103W        W26429   2.298  23.601  12.939
54104W        W26430  25.104  25.966   2.277
54105W        W26431  29.990  28.106  13.812
54106W        W26432  41.501  12.301   0.919
54107W        W26433  14.259  19.721   9.966
54108W        W26434  30.548  17.591  11.547
54109W        W26435  35.423  12.649   1.851
54110W        W26436  10.236  34.884   0.305
54111W        W26437  38.875  41.831   5.261
54112W        W26438  22.047  42.853   4.235
54113W        W26439   7.333  38.855  14.462
54114W        W26440  10.877  20.731   3.150
54115W        W26441  29.149  39.035   1.802
54116W        W26442  42.917  19.723   4.806
54117W        W26443   1.376  10.830  10.556
54118W        W26444  36.082  18.192  13.409
54119W        W26445  23.495  37.944   1.221
54120W        W26446  20.642  15.297  13.415
54121W        W26447  17.092   5.853  10.139
54122W        W26448  15.257   8.232  14.346
54123W        W26449   4.808  20.131   3.751
54124W        W26450  25.107   0.449  12.557
54125W        W26451  14.108   2.237  11.388
54126W        W26452   1.873  35.374  14.944
54127W        W26453  19.548  44.346  11.411
54128W        W26454  12.701   9.344   1.873
54129W        W26455  36.366  10.322   4.602
54130W        W26456  23.687  30.530   1.858
54131W        W26457  32.054  24.205  13.929
54132W        W26458  24.619  40.326   5.137
54133W        W26459  27.593  28.555   3.338
54134W        W26460  28.033  42.893  12.342
54135W        W26461  35.046  32.046  11.535
54136W        W26462  12.361  31.522   2.312
54137W        W26463  33.897  18.055  13.059
54138W        W26464   8.195  13.613   2.305
54139W        W26465   1.849  17.197  12.057
54140W        W26466  26.593  23.220   4.721
54141W        W26467   4.246  11.244  12.571
54142W        W26468  28.038  41.824   1.264
54143W        W26469  35.495  10.694  14.292
54144W        W26470   6.683  29.541  14.833
54145W        W26471  10.727  13.136  12.507
54146W        W26472   9.387  38.007  14.886
54147W        W26473  34.572  15.811  13.899
54148W        W26474  24.186  31.135  13.844
54149W        W26475  15.604  28.545   2.403
54150W        W26476   9.268  20.731   2.325
54151W        W26477  12.306  10.236  14.433
54152W        W26478  13.752  43.875  11.039
54153W        W26479   7.904  10.646   4.747
54154W        W26480  42.399  28.492   2.307
54155W        W26481  26.009  32.975  10.924
54156W        W26482  16.261  37.488   2.185
54157W        W26483  27.549  37.922  12.881
54158W        W26484  35.043  41.830  12.538
54159W        W26485   4.444  11.716   2.413
54160W        W26486  15.638  32.010  14.292
54161W        W26487  31.930   4.904  13.349
54162W        W26488  18.562  32.417   1.825
54163W        W26489  35.893  28.659  12.933
54164W        W26490   9.334  36.459   1.910
54165W        W26491  17.686  11.216  11.458
54166W        W26492  11.827  23.580  11.543
54167W        W26493  15.173  42.335  12.893
54168W        W26494   7.399  16.196  12.868
54169W        W26495   5.838   4.900   0.382
54170W        W26496  27.522   5.317   4.145
54171W        W26497  16.262   8.804   4.757
54172W        W26498  20.175  39.451   4.837
54173W        W26499  35.365  37.879  13.810
54174W        W26500  33.458  19.534   1.931
54175W        W26501  11.649  31.941  12.537
54176W        W26502   6.349   4.834   4.608
54177W        W26503  22.176  35.512  13.879
54178W        W26504  21.112  38.403   1.253
54179W        W26505  20.657  17.078  14.880
54180W        W26506   5.332  10.214  14.972
54181W        W26507  23.114  12.622  12.986
54182W        W26508   6.735  43.347   4.208
54183W        W26509  25.995  41.320  15.000
54184W        W26510  30.921  20.741   3.802
54185W        W26511   6.803  41.357  14.916
54186W        W26512  17.303  29.635   2.803
54187W        W26513  29.611  18.193   2.746
54188W        W26514  18.699   1.381  10.405
54189W        W26515  42.417  21.528   2.891
54190W        W26516   0.954  35.947   3.354
54191W        W26517  28.609  42.400  14.939
54192W        W26518  38.019  23.117   1.866
54193W        W26519  32.042  29.024  11.069
54194W        W26520  13.285   0.825  12.343
54195W        W26521  44.979  14.801   0.750
54196W        W26522  28.942   5.207   3.243
54197W        W26523   4.797  14.797   0.357
54198W        W26524   8.737  26.498  13.380
54199W        W26525  28.086  40.990   0.312
54200W        W26526   1.892   0.373  13.404
54201W        W26527   4.934  25.108   2.254
54202W        W26528   2.861  16.130  11.091
54203W        W26529  19.757  26.481   0.295
54204W        W26530  13.136   9.647  11.856
54205W        W26531  16.208  31.406  11.377
54206W        W26532  15.216  21.196  12.362
54207W        W26533   1.856   8.764   5.136
54208W        W26534  21.595  21.690   0.851
54209W        W26535   7.894  24.072   1.758
54210W        W26536   6.344  25.691  11.058
54211W        W26537  32.042  43.992  11.999
54212W        W26538  32.082  27.546   4.774
54213W        W26539   3.904  24.219  13.499
54214W        W26540  38.325  30.927   0.393
54215W        W26541  18.661  17.138   0.409
54216W        W26542  30.479  23.189  11.587
54217W        W26543  26.047  15.667  13.947
54218W        W26544  36.523   4.376  11.915
54219W        W26545  29.607  17.644   4.272
54220W        W26546  43.784  33.089  14.014
54221W        W26547  40.315  23.217   2.722
54222W        W26548  30.984  13.150   2.241
54223W        W26549  17.557  44.991   1.697
54224W        W26550  13.258  18.089   0.872
54225W        W26551   7.302   7.171  12.057
54226W        W26552  44.337  33.883  11.488
54227W        W26553  44.828  24.587   2.858
54228W        W26554  17.114  16.777   3.811
54229W        W26555   7.340  14.800   2.846
54230W        W26556  15.664  31.140   0.788
54231W        W26557  24.560  36.952   4.346
54232W        W26558   8.667  21.206  14.292
54233W        W26559  23.573  11.832   0.444
54234W        W26560  44.893   2.726   3.657
54235W        W26561  36.090  29.944  11.038
54236W        W26562   0.765  10.355   5.767
54237W        W26563   9.828  18.198   4.722
54238W        W26564  42.378   6.840  11.578
54239W        W26565  42.823   3.872  10.891
54240W        W26566   6.320  29.986  14.415
54241W        W26567  18.643  16.663   2.874
54242W        W26568   4.320  37.581   4.324
54243W        W26569  29.599   3.931   1.881
54244W        W26570  42.871  22.111  11.026
54245W        W26571  44.457  33.411   3.174
54246W        W26572  15.285  44.961  12.998
54247W        W26573  36.895   2.353  12.575
54248W        W26574  20.179  18.762   2.243
54249W        W26575  17.772   7.197   2.801
54250W        W26576  26.548  26.504   2.232
54251W        W26577   0.395   5.340  11.048
54252W        W26578   8.332  12.793   3.276
54253W        W26579  33.409  35.918  12.892
54254W        W26580  40.462  13.825  13.797
54255W        W26581  12.634  20.121  13.875
54256W        W26582  23.595  28.018   1.737
54257W        W26583  22.717   1.474   2.691
54258W        W26584  19.607   6.368  12.512
54259W        W26585  41.420  33.881   2.236
54260W        W26586  14.730  44.462  12.881
54261W        W26587  41.407  23.158   4.819
54262W        W26588  27.613   1.318   1.401
54263W        W26589   1.803  19.653  12.386
54264W        W26590  36.386  17.672  14.386
54265W        W26591  38.343  21.548   1.310
54266W        W26592  24.601   2.948  14.909
54267W        W26593  28.012  35.095   4.214
54268W        W26594  44.444  39.918  11.021
54269W        W26595  12.715  15.285  10.606
54270W        W26596  17.161  14.790   2.302
54271W        W26597   5.904  26.017  13.536
54272W        W26598  28.677  10.787   0.361
54273W        W26599  30.497   0.757  12.976
54274W        W26600  16.781  33.556  12.344
54275W        W26601  18.240  34.091  11.037
54276W        W26602  28.626  21.211  12.445
54277W        W26603  17.702  21.609  10.631
54278W        W26604  19.224  12.165  11.403
54279W        W26605  42.917  18.173   3.149
54280W        W26606  21.206  26.636  14.949
54281W        W26607  24.658  22.213  11.513
54282W        W26608   1.261   0.351  12.374
54283W        W26609   9.775   1.967  11.981
54284W        W26610  43.007  33.506  12.540
54285W        W26611  35.569  40.361   1.345
54286W        W26612  17.243  21.527   0.474
54287W        W26613  20.672   9.881   0.827
54288W        W26614  12.253  13.613  11.550
54289W        W26615  16.572  18.787  13.805
54290W        W26616   8.210  20.702  12.932
54291W        W26617  30.997  12.302  11.476
54292W        W26618  35.422  32.897   5.786
54293W        W26619  13.807  32.590   3.811
54294W        W26620  21.741  22.020   0.370
54295W        W26621  34.398  37.009   4.726
54296W        W26622  12.818  34.046  14.380
54297W        W26623   0.900   6.681   3.154
54298W        W26624   5.389  26.140   2.180
54299W        W26625  25.526   7.347  10.441
54300W        W26626  11.639  15.742  11.382
54301W        W26627  21.023  36.574   0.341
54302W        W26628  30.982  19.653   3.833
54303W        W26629  27.637   0.857  13.881
54304W        W26630  37.434   2.844   2.247
54305W        W26631  17.073  28.520   3.780
54306W        W26632  29.990  30.023  11.469
54307W        W26633   0.816  15.784   3.197
54308W        W26634  40.995  28.572  13.030
54309W        W26635  25.620  10.649   4.785
54310W        W26636  35.052  11.145   4.681
54311W        W26637  30.979  29.986  14.377
54312W        W26638  25.471  43.286  10.604
54313W        W26639  43.902  38.552   3.238
54314W        W26640  17.578  10.193   4.798
54315W        W26641  41.918  15.273   2.695
54316W        W26642   6.751  37.566  13.997
54317W        W26643  35.060  35.504   4.124
54318W        W26644  14.639  24.159  12.411
54319W        W26645   8.711  26.969  12.934
54320W        W26646  17.567   2.757   2.268
54321W        W26647  10.805  17.753  10.926
54322W        W26648  43.895  41.014  14.376
54323W        W26649  30.038   0.816   0.827
54324W        W26650  36.425  30.100  11.486
54325W        W26651  20.232  28.674   1.330
54326W        W26652  40.839   9.824  11.037
54327W        W26653  36.944  17.226  10.470
54328W        W26654  40.497  35.484   2.231
54329W        W26655  42.352  17.744   3.345
54330W        W26656  17.747  39.999   3.764
54331W        W26657   3.872  38.924  14.504
54332W        W26658  37.558   6.405   2.749
54333W        W26659  36.049  13.172  12.347
54334W        W26660  25.675  27.496  14.470
54335W        W26661  26.695  26.149  13.881
54336W        W26662  18.566  37.453   3.779
54337W        W26663   6.701  13.121  12.348
54338W        W26664  27.116  21.023   3.809
54339W        W26665   2.336  17.587  14.799
54340W        W26666  16.651  13.295   3.669
54341W        W26667  22.092   7.748  10.439
54342W        W26668  28.183   0.774   0.967
54343W        W26669  28.976  42.408  13.824
54344W        W26670  30.975  33.018   1.894
54345W        W26671  44.468  15.758   1.793
54346W        W26672  34.509  21.261   1.336
54347W        W26673  24.184  41.983   3.742
54348W        W26674  31.418  15.291  11.381
54349W        W26675  36.909   5.926   2.752
54350W        W26676  14.172  15.584   2.330
54351W        W26677  19.730   7.753  12.452
54352W        W26678  35.425  23.604   4.789
54353W        W26679  23.096   3.286   4.324
54354W        W26680  33.090  32.635  14.954
54355W        W26681  14.794  43.274  14.913
54356W        W26682  42.931  11.193  14.886
54357W        W26683   5.917  24.670   2.694
54358W        W26684  37.423   2.279  13.889
54359W        W26685  12.781  38.464   1.317
54360W        W26686   9.826  10.719  12.449
54361W        W26687   3.799  18.221  11.581
54362W        W26688  42.919  37.398  11.111
54363W        W26689  28.548  16.205  14.783
54364W        W26690   9.854  26.052  12.084
54365W        W26691   9.774   4.317   2.803
54366W        W26692  14.237   4.716   0.840
54367W        W26693   2.346   7.680   0.839
54368W        W26694  41.846  41.967  12.925
54369W        W26695  16.113  41.968  13.011
54370W        W26696  21.645  31.919   4.134
54371W        W26697  40.975   8.368  14.298
54372W        W26698  29.451  24.660   3.367
54373W        W26699  23.652   5.376   3.778
54374W        W26700   3.315   3.870   3.755
54375W        W26701  43.978   0.955   4.787
54376W        W26702  29.627   9.165  12.447
54377W        W26703  21.253  22.118   4.757
54378W        W26704  19.647  42.318   3.708
54379W        W26705  37.341  24.037   0.264
54380W        W26706  39.863  25.127   2.862
54381W        W26707  33.924  33.384   2.412
54382W        W26708  10.855  36.529  14.459
54383W        W26709  15.643  29.579   4.795
54384W        W26710  39.415   9.392  13.021
54385W        W26711  21.088  23.704   3.182
54386W        W26712  16.625  16.667  12.479
54387W        W26713  33.918   5.879   0.732
54388W        W26714  28.944  34.534   4.599
54389W        W26715  26.164  44.896  11.948
54390W        W26716  27.509   4.259  11.031
54391W        W26717  27.543  30.427  14.360
54392W        W26718  10.149   4.265  14.287
54393W        W26719  22.707  26.617  12.406
54394W        W26720  40.893   0.773  12.079
54395W        W26721  14.324  16.288  14.423
54396W        W26722  44.288  35.384  14.314
54397W        W26723  43.840  10.670  14.491
54398W        W26724  13.254   7.786  10.921
54399W        W26725  16.251  13.172   0.346
54400W        W26726  37.075  44.388  14.318
54401W        W26727  21.745  40.494   3.852
54402W        W26728  43.953  39.814  13.947
54403W        W26729  43.887  42.933   1.446
54404W        W26730  18.174  12.303  13.351
54405W        W26731  26.505  24.985   4.215
54406W        W26732   5.237  36.097   4.802
54407W        W26733  33.078  20.173  10.404
54408W        W26734  28.937   3.232  12.009
54409W        W26735  21.526  44.269  14.843
54410W        W26736   9.295  22.219   1.717
54411W        W26737   0.784  44.261  14.904
54412W        W26738  26.579  28.474  14.815
54413W        W26739   9.699  40.523   1.797
54414W        W26740  12.791  34.965  11.572
54415W        W26741  36.014  34.500   3.348
54416W        W26742  43.406  39.820  14.392
54417W        W26743  19.591   5.343  14.802
54418W        W26744   1.775  44.761  10.492
54419W        W26745  29.625  34.536   4.351
54420W        W26746   9.849  37.433  14.465
54421W        W26747  18.082  21.535   1.330
54422W        W26748  30.097   8.799   0.958
54423W        W26749   5.836  34.484  11.523
54424W        W26750  26.959  19.649  13.314
54425W        W26751  18.589   5.703  12.886
54426W        W26752  22.209   7.230  14.827
54427W        W26753  22.680  17.142  12.389
54428W        W26754  41.516   5.866  11.124
54429W        W26755  10.304  44.880  14.869
54430W        W26756  33.539  13.259  14.885
54431W        W26757  13.227  38.028   4.129
54432W        W26758  23.223  40.033  14.975
54433W        W26759  10.240  13.742  14.998
54434W        W26760   5.336  17.152   1.721
54435W        W26761  30.436  40.830   3.151
54436W        W26762  23.729  25.997   2.684
54437W        W26763  31.957  34.543   1.361
54438W        W26764  35.926  17.237  13.337
54439W        W26765  13.656   9.678   1.725
54440W        W26766   5.197  26.099  12.006
54441W        W26767  39.413   9.339   3.735
54442W        W26768  14.251  24.146  14.927
54443W        W26769  11.195   9.712   1.423
54444W        W26770   5.923   1.291   1.393
54445W        W26771   3.376   0.426  11.484
54446W        W26772   8.207  39.040  11.481
54447W        W26773  30.114  42.331  12.557
54448W        W26774  28.003  28.681   2.297
54449W        W26775   7.357  18.777   2.386
54450W        W26776  32.029   7.908   5.215
54451W        W26777   0.949   6.266   1.345
54452W        W26778  44.788  13.131  11.462
54453W        W26779  14.669   8.811   0.392
54454W        W26780  32.437  26.466  13.996
54455W        W26781  44.009  33.107  11.455
54456W        W26782  13.108   1.384   1.374
54457W        W26783   5.371  28.095  12.081
54458W        W26784  12.154  43.339   3.166
54459W        W26785  36.581  25.991   2.419
54460W        W26786  14.774  19.654  11.996
54461W        W26787  23.058  31.480   3.257
54462W        W26788  34.592  37.001  13.933
54463W        W26789   3.852  41.486   2.712
54464W        W26790   5.859  30.100   4.810
54465W        W26791  40.940  21.040  14.455
54466W        W26792   4.775  12.353   4.828
54467W        W26793  29.942  21.150  11.892
54468W        W26794  37.438  33.440   2.827
54469W        W26795  39.529  35.533  12.080
54470W        W26796  14.682  39.477   2.339
54471W        W26797  44.313  35.046  11.090
54472W        W26798   1.429  19.099   4.722
54473W        W26799   0.913  34.484   0.261
54474W        W26800  37.519  22.073   4.340
54475W        W26801  24.215  30.935  13.064
54476W        W26802  14.682  30.050   4.811
54477W        W26803  19.677  42.906  14.359
54478W        W26804  13.755   6.730   4.733
54479W        W26805  30.041  20.165  14.866
54480W        W26806  39.933  12.769   1.714
54481W        W26807  44.961  34.498   4.345
54482W        W26808  43.503   0.772  11.517
54483W        W26809  12.272   8.659  11.592
54484W        W26810  25.488  32.511   1.720
54485W        W26811   0.890  42.397   1.327
54486W        W26812  16.130   9.776   0.272
54487W        W26813  31.541  17.072  14.452
54488W        W26814  19.536  19.652   3.664
54489W        W26815  40.936   8.340   2.770
54490W        W26816  16.583  21.123   4.748
54491W        W26817  19.146  33.421   1.227
54492W        W26818  13.247   9.184  12.001
54493W        W26819   2.964  25.498  13.417
54494W        W26820  29.143  29.589   2.774
54495W        W26821  24.538  12.715   3.785
54496W        W26822  41.982  26.672   2.831
54497W        W26823  43.897   9.285  11.956
54498W        W26824  28.629   0.897   1.373
54499W        W26825  27.194  11.768   2.334
54500W        W26826  36.374  32.995  11.004
54501W        W26827  14.180  31.426  13.857
54502W        W26828  29.537  26.025   9.555
54503W        W26829   1.783  41.511   3.829
54504W        W26830  32.069   7.199   1.777
54505W        W26831  25.021  36.872   4.331
54506W        W26832   5.698  13.324   3.790
54507W        W26833  25.507   1.771  11.447
54508W        W26834  17.073   2.340   3.152
54509W        W26835  29.084  10.868   4.278
54510W        W26836   0.473  28.132  13.052
54511W        W26837  39.931   0.383  10.520
54512W        W26838  35.920  41.944  12.345
54513W        W26839  33.558  26.589  10.895
54514W        W26840  16.135  30.651  12.415
54515W        W26841   0.431  29.509  11.477
54516W        W26842  23.027   6.331  13.474
54517W        W26843  27.517  13.660   3.779
54518W        W26844   4.304  33.131  13.483
54519W        W26845  43.301  18.056  11.049
54520W        W26846   7.908   6.716   3.370
54521W        W26847   7.406   7.403  13.007
54522W        W26848  21.587   7.790  11.038
54523W        W26849  10.781   7.735  13.505
54524W        W26850  23.643  37.961   0.958
54525W        W26851  21.640  30.611   1.426
54526W        W26852   7.369   8.299  10.933
54527W        W26853  24.151  42.449   0.342
54528W        W26854  26.520  31.100  13.453
54529W        W26855  32.577  13.740  13.953
54530W        W26856  42.282  40.382   1.873
54531W        W26857  28.993  20.135   0.761
54532W        W26858  16.146  34.472   1.816
54533W        W26859  14.645  33.946  11.441
54534W        W26860  17.665  33.389   0.300
54535W        W26861  42.898  16.229  13.954
54536W        W26862  26.479  25.619  11.898
54537W        W26863  35.422   7.767  12.087
54538W        W26864   6.195   2.923   1.767
54539W        W26865   6.412  14.278   0.452
54540W        W26866   5.931  26.071  10.618
54541W        W26867  39.814  37.477  11.454
54542W        W26868  39.443   5.221  12.393
54543W        W26869  38.946  43.831   2.712
54544W        W26870  39.887  44.999   1.772
54545W        W26871  11.286  36.427  13.055
54546W        W26872  30.432   1.933  11.014
54547W        W26873  35.547  13.822   0.915
54548W        W26874   0.248  44.347   0.401
54549W        W26875  37.007  15.148   1.382
54550W        W26876   2.371  26.959   1.448
54551W        W26877   3.778  44.356   0.342
54552W        W26878  42.375  24.553   3.869
54553W        W26879  17.237  10.235   1.728
54554W        W26880   3.398  24.047   5.144
54555W        W26881  36.371  31.992   2.790
54556W        W26882  44.309  24.023   2.322
54557W        W26883  28.090   0.978   5.283
54558W        W26884  42.809  16.200   1.822
54559W        W26885  11.705  20.261  10.918
54560W        W26886   4.737  21.210  10.920
54561W        W26887   9.763  10.195  13.854
54562W        W26888  30.480  39.391   1.248
54563W        W26889  25.584  13.258  10.423
54564W        W26890  37.978  40.508  13.542
54565W        W26891  17.285  21.163   2.397
54566W        W26892  25.500  36.366   4.205
54567W        W26893   5.692  42.515  14.996
54568W        W26894   1.469   8.373   4.628
54569W        W26895  42.360  12.619  14.325
54570W        W26896   2.226  24.060   0.948
54571W        W26897  15.748   2.436   0.931
54572W        W26898   5.321  42.446   1.382
54573W        W26899  23.226   2.238  12.463
54574W        W26900   7.279   8.322   2.818
54575W        W26901  13.258  35.991   9.500
54576W        W26902  20.261   5.257   2.226
54577W        W26903  19.762  18.578  12.459
54578W        W26904  26.131  43.920   3.726
54579W        W26905   4.402  12.853  13.405
54580W        W26906  29.542  34.053   4.607
54581W        W26907   7.679  42.802   3.682
54582W        W26908  32.954  39.369  10.916
54583W        W26909  12.690  11.733   0.297
54584W        W26910   8.317  26.129  11.105
54585W        W26911  15.324  43.989   2.731
54586W        W26912  24.629  26.680  14.481
54587W        W26913  28.641  40.902   2.811
54588W        W26914   6.353  43.784  12.927
54589W        W26915  32.627  25.167  10.563
54590W        W26916   1.259   1.775   2.178
54591W        W26917  36.001  32.917   1.338
54592W        W26918  39.523  42.874  11.516
54593W        W26919  35.063  13.135  14.809
54594W        W26920  11.361  15.664   1.315
54595W        W26921  31.609  43.400   0.808
54596W        W26922  10.234  11.243   1.385
54597W        W26923  24.987  43.342   4.685
54598W        W26924  12.121  29.546  14.369
54599W        W26925  23.654  39.953   0.892
54600W        W26926  43.516   2.754   1.270
54601W        W26927  26.647  28.975  13.048
54602W        W26928  23.133  13.217  12.060
54603W        W26929   0.467   9.649   2.262
54604W        W26930   7.215   8.665  12.884
54605W        W26931  13.683  29.517  14.309
54606W        W26932  40.855  38.382  12.845
54607W        W26933  37.880  27.588   0.866
54608W        W26934  14.283  22.248  14.928
54609W        W26935  19.081  34.546  10.890
54610W        W26936  20.090   1.263   0.836
54611W        W26937  16.692  40.529   0.858
54612W        W26938  10.264   1.769   2.390
54613W        W26939  25.551  41.864  13.950
54614W        W26940  22.536  33.919   3.632
54615W        W26941  27.484  35.376  14.360
54616W        W26942  11.797  22.035  12.843
54617W        W26943  33.885  41.491   0.727
54618W        W26944  32.510  22.627  10.506
54619W        W26945  42.324  21.535   4.836
54620W        W26946   1.322   9.834   4.837
54621W        W26947  23.168  14.760  13.486
54622W        W26948   7.371  11.847  12.009
54623W        W26949  39.853  21.670   0.768
54624W        W26950  19.100  43.278  14.908
54625W        W26951  33.396  12.200   4.339
54626W        W26952  39.025  28.164  10.898
54627W        W26953   4.303  27.578   1.841
54628W        W26954  37.931  20.663  12.995
54629W        W26955  43.487  35.533   1.423
54630W        W26956  34.922  44.332   0.800
54631W        W26957  28.461  43.859  13.368
54632W        W26958  30.634  35.913  10.947
54633W        W26959   7.680  37.480  14.507
54634W        W26960  16.596   7.266  14.028
54635W        W26961   0.305  14.233  14.015
54636W        W26962   8.663  26.011  13.960
54637W        W26963  37.441  41.042   1.261
54638W        W26964  36.901  37.028   0.735
54639W        W26965  29.074  41.901  13.999
54640W        W26966  29.088  28.062  13.000
54641W        W26967  19.602  27.492  11.918
54642W        W26968  33.950   0.776  14.288
54643W        W26969  19.725   6.707   2.365
54644W        W26970  40.371  19.193  12.970
54645W        W26971  44.825  21.549  14.502
54646W        W26972  43.800  18.789  12.053
54647W        W26973   5.354  38.446  13.389
54648W        W26974  27.132   3.368   4.648
54649W        W26975  35.881  11.642   5.119
54650W        W26976  18.052  38.536   4.678
54651W        W26977   9.806  44.266   1.396
54652W        W26978  17.187   1.970  12.570
54653W        W26979  15.099   2.412  14.319
54654W        W26980  42.296  18.545  10.500
54655W        W26981  27.520  30.151   1.923
54656W        W26982  42.505  22.502   0.296
54657W        W26983   4.228  23.699   1.828
54658W        W26984   5.218  33.009   0.899
54659W        W26985  28.584  39.843  11.414
54660W        W26986  34.050  11.265   0.296
54661W        W26987  23.216  37.928   4.295
54662W        W26988   1.839  22.008   3.300
54663W        W26989  18.786  39.957   2.188
54664W        W26990  40.391  43.344  13.405
54665W        W26991  36.988   1.873  13.340
54666W        W26992  41.340  38.921  14.984
54667W        W26993   4.923  15.126   1.216
54668W        W26994  36.841  15.209  14.287
54669W        W26995  19.122  15.256  12.031
54670W        W26996  18.667  26.093  11.530
54671W        W26997  13.746  17.748  13.407
54672W        W26998  25.566  13.821   3.769
54673W        W26999  32.440  30.604  13.843
54674W        W27000  11.160   4.364  13.892
54675W        W27001  11.322  32.610   0.891
54676W        W27002   7.844  10.866  10.981
54677W        W27003  30.128  11.730  12.904
54678W        W27004   4.235  10.857  13.059
54679W        W27005  29.013  22.521   2.230
54680W        W27006  16.629  38.011   0.835
54681W        W27007  13.703  14.607  14.894
54682W        W27008  35.101  20.161   2.196
54683W        W27009  35.938  38.356   3.825
54684W        W27010   8.880   1.369   2.854
54685W        W27011  13.630  32.465  11.893
54686W        W27012  31.134   5.352   2.874
54687W        W27013  41.034  33.556  12.936
54688W        W27014  17.749  37.999   0.743
54689W        W27015  14.680   2.870   0.254
54690W        W27016  10.670   0.283  12.370
54691W        W27017   3.896  23.579   0.454
54692W        W27018  26.575   3.254   1.836
54693W        W27019  38.528  27.187   1.728
54694W        W27020  35.500   5.370   0.855
54695W        W27021  14.198  41.399   1.352
54696W        W27022  19.041  16.139  14.954
54697W        W27023  40.973  30.084  11.029
54698W        W27024  42.000  23.621   4.766
54699W        W27025  21.092  22.578  14.861
54700W        W27026   1.405  15.793  10.605
54701W        W27027  20.241  22.655   3.799
54702W        W27028  19.560  24.636   0.899
54703W        W27029  41.835  39.010   1.800
54704W        W27030  20.183  17.251  14.892
54705W        W27031  30.915  31.971   4.150
54706W        W27032  24.110   5.819   1.728
54707W        W27033  36.950  34.496  14.493
54708W        W27034   7.273   3.232  10.961
54709W        W27035  18.221  25.109   1.388
54710W        W27036  34.066  38.459   0.938
54711W        W27037  40.331  43.902   4.735
54712W        W27038  17.563  13.238   4.315
54713W        W27039  18.231  18.755   4.332
54714W        W27040  34.442   5.717  11.444
54715W        W27041  27.630  44.770  10.628
54716W        W27042  22.095  30.149  13.830
54717W        W27043   3.786  42.433   2.732
54718W        W27044  33.511  26.691  13.313
54719W        W27045  21.068  39.463  12.359
54720W        W27046   7.879  39.945   0.338
54721W        W27047   0.341  33.411  12.446
54722W        W27048  40.981  44.367   3.188
54723W        W27049  30.656   9.181  11.122
54724W        W27050   9.714  34.472   1.239
54725W        W27051  38.866  44.828   3.255
54726W        W27052   4.283  33.508   3.315
54727W        W27053  36.874  32.067  11.019
54728W        W27054  33.505  35.429   2.749
54729W        W27055  15.309  17.785   4.147
54730W        W27056   1.243  33.400   3.806
54731W        W27057  19.222  38.030  14.022
54732W        W27058   8.211   0.893  13.957
54733W        W27059  33.032   4.704   1.898
54734W        W27060  43.019   7.723  11.929
54735W        W27061  29.099  30.503   0.789
54736W        W27062   2.471  18.594  12.494
54737W        W27063  25.175   1.384   2.299
54738W        W27064  27.093  29.166  12.397
54739W        W27065   6.347  37.419  13.407
54740W        W27066  30.972   0.818   1.319
54741W        W27067  43.357  38.431   4.729
54742W        W27068  32.508  21.651  13.382
54743W        W27069  44.273  13.203  13.955
54744W        W27070  32.605  37.498   5.135
54745W        W27071   2.730   6.387   3.684
54746W        W27072   3.752  29.486   1.822
54747W        W27073  40.812  27.105   3.310
54748W        W27074  25.498   9.309  14.888
54749W        W27075  14.165  34.382  11.398
54750W        W27076   1.321  42.281  14.340
54751W        W27077   3.419   0.838  11.028
54752W        W27078  19.267   7.202  14.880
54753W        W27079  24.695   1.805   3.795
54754W        W27080  17.773  11.254  13.327
54755W        W27081  23.597  36.901   4.300
54756W        W27082  25.645  37.402   4.759
54757W        W27083  16.686   7.866   3.361
54758W        W27084  28.565   8.656  12.085
54759W        W27085   1.375  33.062  10.501
54760W        W27086  17.773  21.522   4.835
54761W        W27087  34.992  25.669   2.693
54762W        W27088  43.502  16.302  12.572
54763W        W27089  11.161  26.979  13.019
54764W        W27090  44.899  16.132   2.323
54765W        W27091  19.063  11.786  10.909
54766W        W27092   6.772  17.078  10.431
54767W        W27093  37.462   8.860   9.991
54768W        W27094  27.051  42.023  11.032
54769W        W27095  31.932  18.261  11.378
54770W        W27096  29.951   4.870  13.357
54771W        W27097  18.236  15.264  10.939
54772W        W27098   4.791   2.270   3.736
54773W        W27099   1.948  35.584  11.928
54774W        W27100   0.471  34.440   4.713
54775W        W27101  16.180  39.011   0.780
54776W        W27102  18.199  38.937   0.308
54777W        W27103   0.256  29.015   1.808
54778W        W27104  41.443  14.224   4.177
54779W        W27105   0.384   4.729   0.405
54780W        W27106   3.837  35.853   3.219
54781W        W27107  44.924  11.811   3.321
54782W        W27108  34.458  38.844  10.506
54783W        W27109  25.120  14.611   1.906
54784W        W27110  20.604  18.576  11.066
54785W        W27111  43.339  39.331   1.288
54786W        W27112  44.461  28.647   2.834
54787W        W27113  43.332  38.497  12.397
54788W        W27114  24.719  21.245  12.367
54789W        W27115  41.442   1.766   0.865
54790W        W27116   7.774  36.486   2.813
54791W        W27117  19.761  39.494  13.004
54792W        W27118  32.970  19.737  14.900
54793W        W27119  19.268  37.482   2.894
54794W        W27120  25.040   8.863   2.235
54795W        W27121  36.351  37.087   2.346
54796W        W27122  24.723  38.848   2.217
54797W        W27123  22.103  34.487   0.903
54798W        W27124  34.982   8.870  11.569
54799W        W27125  36.561  28.457  13.435
54800W        W27126  43.953  11.234   0.452
54801W        W27127  42.422  32.559   1.872
54802W        W27128  35.549  18.066  10.978
54803W        W27129  27.981  11.357   1.252
54804W        W27130  30.130  29.474   1.709
54805W        W27131  28.170  29.008   4.223
54806W        W27132  44.461  41.299   0.953
54807W        W27133  16.668  16.274  11.076
54808W        W27134  44.322  37.970   2.759
54809W        W27135  25.108  16.215   0.772
54810W        W27136  17.109   1.829   4.755
54811W        W27137  32.446   6.209   4.122
54812W        W27138  22.657  34.070  11.379
54813W        W27139   9.786  42.838  10.949
54814W        W27140  38.333  31.089   4.237
54815W        W27141  38.977  43.804  13.480
54816W        W27142  24.020  24.053  14.839
54817W        W27143  20.081  22.009  10.494
54818W        W27144  18.717  42.329   0.953
54819W        W27145  44.373  15.194  11.540
54820W        W27146  34.989  34.026  10.560
54821W        W27147  41.888  31.417   3.796
54822W        W27148  32.508  34.414   4.680
54823W        W27149  33.103  31.901  12.508
54824W        W27150  11.749  32.023   2.811
54825W        W27151   1.471  36.561  11.372
54826W        W27152  34.433  16.233  13.941
54827W        W27153  44.309  36.920  10.116
54828W        W27154  28.579  28.032   2.392
54829W        W27155   5.758  12.848   3.149
54830W        W27156   4.730  41.505   9.979
54831W        W27157   1.954  44.498   0.469
54832W        W27158  26.559  35.907   1.904
54833W        W27159   5.904  24.624  12.874
54834W        W27160   9.859  32.432  12.519
54835W        W27161  41.399   8.781   2.281
54836W        W27162  32.929  32.531  12.846
54837W        W27163  10.655  30.014   4.712
54838W        W27164  35.447   6.275  10.970
54839W        W27165  30.108  39.927  13.831
54840W        W27166   7.867  22.239   1.433
54841W        W27167  11.824   6.187   5.081
54842W        W27168  33.584   4.878  11.401
54843W        W27169  21.207  14.300   4.762
54844W        W27170   6.834  40.477   0.935
54845W        W27171  40.920  38.065   2.870
54846W        W27172   8.276  39.953  14.434
54847W        W27173   8.686  10.145   5.256
54848W        W27174  28.984  25.170   1.912
54849W        W27175  29.128  24.130   3.272
54850W        W27176  43.999  17.267  12.047
54851W        W27177  19.744  22.113   1.238
54852W        W27178  17.284  28.993   3.767
54853W        W27179  16.603  42.374  10.967
54854W        W27180  28.038  19.221  13.800
54855W        W27181   1.878  30.459  14.297
54856W        W27182  16.245   4.209  10.531
54857W        W27183   3.720  12.314   0.346
54858W        W27184  34.443   4.772   2.251
54859W        W27185  43.989   7.254   4.214
54860W        W27186  41.470  33.480   1.733
54861W        W27187  21.134  37.000  11.431
54862W        W27188  30.083  16.672  12.487
54863W        W27189  44.320  19.575   3.225
54864W        W27190  17.679  43.370   3.268
54865W        W27191  19.652  44.396   4.816
54866W        W27192  10.291  39.499  12.829
54867W        W27193  22.059  34.604   4.116
54868W        W27194  18.755  16.176  14.988
54869W        W27195  10.649   1.449  14.400
54870W        W27196  43.444   7.828   1.812
54871W        W27197  23.672  18.583   3.641
54872W        W27198  11.136  36.451   0.793
54873W        W27199  40.526  37.945  11.482
54874W        W27200  26.075  37.058  12.438
54875W        W27201  42.520   4.808  14.297
54876W        W27202  21.703   9.344   0.355
54877W        W27203   0.371  37.447  12.381
54878W        W27204   4.389  32.594  12.876
54879W        W27205  43.973  16.704   2.309
54880W        W27206  31.034  32.602   2.828
54881W        W27207  27.475  37.465  13.043
54882W        W27208   5.376  12.175   4.303
54883W        W27209  28.932  30.635  12.438
54884W        W27210  25.607   1.775   4.274
54885W        W27211  41.405  35.367   1.428
54886W        W27212   9.796  33.476  10.445
54887W        W27213  34.399  33.008  11.856
54888W        W27214  21.137  24.210   1.417
54889W        W27215  30.925   8.731   1.414
54890W        W27216  26.140  25.123  12.515
54891W        W27217  44.952  40.365   1.384
54892W        W27218  14.670   2.882  10.459
54893W        W27219  19.584  20.750   0.327
54894W        W27220  16.108  44.905  11.405
54895W        W27221  12.849  19.767   0.446
54896W        W27222  31.912  28.586  14.291
54897W        W27223   8.170  22.133   4.771
54898W        W27224   6.347  44.891  14.305
54899W        W27225   8.352  15.312   0.805
54900W        W27226  17.081   7.836  12.840
54901W        W27227  14.715  38.028  11.910
54902W        W27228  35.901   7.852  14.005
54903W        W27229  25.703  43.389  12.580
54904W        W27230  19.216  22.735   1.723
54905W        W27231  10.147   7.386   3.633
54906W        W27232  20.602   2.905  11.982
54907W        W27233  28.941  29.508  10.618
54908W        W27234  23.587  33.118   2.208
54909W        W27235  23.525  36.940   4.645
54910W        W27236   9.281  22.033  14.394
54911W        W27237  22.999  34.408   1.253
54912W        W27238  41.470   2.282  14.017
54913W        W27239  43.978  44.985  12.469
54914W        W27240  27.528  19.664  12.883
54915W        W27241  15.101  30.933  11.457
54916W        W27242  28.650  37.488  10.938
54917W        W27243  41.882  17.089  13.381
54918W        W27244  26.640   2.755   4.276
54919W        W27245  33.514  19.681   0.470
54920W        W27246   7.304  35.466  12.388
54921W        W27247  38.378  10.198  14.334
54922W        W27248   5.754  15.264   2.809
54923W        W27249  31.645  29.549   4.155
54924W        W27250   3.313  14.623  13.370
54925W        W27251  36.370  12.708  13.336
54926W        W27252  10.281  27.642   4.813
54927W        W27253  14.651  39.920  13.832
54928W        W27254  15.597  13.650  13.465
54929W        W27255   5.424  28.161  12.921
54930W        W27256  43.001  25.036   3.862
54931W        W27257  25.531  24.640  13.841
54932W        W27258  12.183   9.875   2.304
54933W        W27259   1.965  37.383   2.314
54934W        W27260  36.374  36.548  11.479
54935W        W27261  36.026  15.787   1.386
54936W        W27262  24.074  40.032   4.240
54937W        W27263   9.318  37.936  13.520
54938W        W27264  44.352  42.801  11.959
54939W        W27265  38.880  14.653  10.466
54940W        W27266  33.039   8.244   0.871
54941W        W27267  14.202  41.843   1.280
54942W        W27268  12.293  17.133   4.799
54943W        W27269  38.833  44.281   0.428
54944W        W27270  28.151  36.504   1.268
54945W        W27271   1.245  26.555  10.448
54946W        W27272  39.818   4.808   4.319
54947W        W27273  23.088   5.892   2.770
54948W        W27274  28.083  39.052   5.226
54949W        W27275  23.731  41.802   3.677
54950W        W27276  40.378  22.154  11.399
54951W        W27277   1.441  22.193  12.931
54952W        W27278  26.060  22.743  14.009
54953W        W27279  35.875  29.135   3.344
54954W        W27280  36.914  21.227   3.809
54955W        W27281  26.670  34.990   2.328
54956W        W27282  10.636  14.823   4.171
54957W        W27283  14.830  13.266  13.945
54958W        W27284   8.278   3.854  14.384
54959W        W27285  11.627  23.600   0.453
54960W        W27286  27.013  26.492   0.742
54961W        W27287   7.697  35.895  14.795
54962W        W27288  26.610  37.458   4.651
54963W        W27289  24.581  31.477  11.593
54964W        W27290   9.656  18.176   3.156
54965W        W27291  34.100   9.883  10.537
54966W        W27292  42.304  19.682   0.287
54967W        W27293  23.709  18.141   3.759
54968W        W27294  38.833  26.526  12.997
54969W        W27295  33.131  34.390   4.613
54970W        W27296  16.224   9.727   0.836
54971W        W27297  42.394  15.780  13.810
54972W        W27298   9.693   7.175   1.351
54973W        W27299  40.486   0.408  14.487
54974W        W27300  11.781  41.500  12.833
54975W        W27301  25.531  35.020   3.859
54976W        W27302   0.436   3.731   3.816
54977W        W27303  13.227  31.560  10.457
54978W        W27304  34.086  17.265   1.316
54979W        W27305  43.442  34.021   1.877
54980W        W27306  35.852  15.628   2.241
54981W        W27307  25.590   6.748  14.485
54982W        W27308  27.504  38.465   3.806
54983W        W27309   1.433  22.135   2.299
54984W        W27310  37.863   2.869   2.879
54985W        W27311  29.927  24.128  11.441
54986W        W27312  21.216   2.352   5.302
54987W        W27313  35.419  21.236   3.865
54988W        W27314  18.752   7.314   5.203
54989W        W27315  44.268  14.221   3.678
54990W        W27316   7.836   3.818  13.904
54991W        W27317   2.306  19.236  14.847
54992W        W27318  44.775  33.922  13.892
54993W        W27319   3.789  21.637  13.044
54994W        W27320  14.637  32.530  12.889
54995W        W27321  30.069  22.132  11.578
54996W        W27322  14.779  29.599   0.273
54997W        W27323  10.659  17.675   1.235
54998W        W27324  37.346  14.714   5.215
54999W        W27325  17.194   7.882   9.972
55000W        W27326  10.239  10.842   0.281
55001W        W27327  36.551  39.979  10.440
55002W        W27328   9.169  44.906   3.734
55003W        W27329  27.008  38.433   1.347
55004W        W27330   9.216  21.093  11.600
55005W        W27331  27.574  42.390   2.872
55006W        W27332  24.229  21.237   4.795
55007W        W27333  26.658  28.572   3.299
55008W        W27334  42.485  15.280   0.941
55009W        W27335  11.867  24.671   3.866
55010W        W27336  36.520   5.864  14.969
55011W        W27337  16.298  10.780   1.360
55012W        W27338  20.759  27.065   1.342
55013W        W27339  25.631  19.193  10.622
55014W        W27340  37.001  14.221  14.772
55015W        W27341   9.345  40.413  13.951
55016W        W27342  21.199  30.043   0.951
55017W        W27343  12.748  11.344   2.409
55018W        W27344   2.806  40.532   3.366
55019W        W27345  25.521  41.521   3.287
55020W        W27346   6.325  41.392   0.754
55021W        W27347  30.463  38.550  14.501
55022W        W27348  32.001  25.099   2.390
55023W        W27349  38.399  18.248   4.814
55024W        W27350  33.940  30.652   0.327
55025W        W27351   5.895  10.349  14.828
55026W        W27352  30.945  15.730  13.958
55027W        W27353   3.725   5.788   1.308
55028W        W27354  35.051  17.739  10.410
55029W        W27355  13.654  32.998  12.431
55030W        W27356  27.134  18.628  13.405
55031W        W27357  24.682   0.493   4.144
55032W        W27358  18.227  17.795  14.021
55033W        W27359  22.517  26.676   2.747
55034W        W27360  39.015  11.274  13.912
55035W        W27361  15.638  41.789  13.338
55036W        W27362   3.836   6.713   1.893
55037W        W27363  23.689   3.735  12.836
55038W        W27364  25.135  18.659  10.447
55039W        W27365  32.612  24.059  12.493
55040W        W27366  12.780  28.965  14.823
55041W        W27367   1.340   0.931  13.953
55042W        W27368   4.338  33.571  11.030
55043W        W27369  23.700  15.160  10.575
55044W        W27370  36.386  20.653   4.632
55045W        W27371  24.594  32.431  14.829
55046W        W27372   6.906  44.277   4.622
55047W        W27373  40.854   7.724  11.949
55048W        W27374   7.763  15.687  11.029
55049W        W27375  40.028  18.060   1.421
55050W        W27376  39.459  16.589  12.900
55051W        W27377  10.864  21.719  14.921
55052W        W27378  14.669  27.522  14.386
55053W        W27379  39.014  28.961  12.966
55054W        W27380  39.452  39.459  10.513
55055W        W27381  36.000  43.447   0.898
55056W        W27382   3.743  41.974  13.312
55057W        W27383  43.484  44.449  14.823
55058W        W27384  11.190  34.988   9.467
55059W        W27385  15.747  21.585   4.705
55060W        W27386  23.021  15.211  14.329
55061W        W27387  13.787  38.467  12.021
55062W        W27388  31.147   2.952  13.854
55063W        W27389  44.450   0.942   0.760
55064W        W27390  29.098  36.473  14.494
55065W        W27391  32.108  30.620   3.305
55066W        W27392  38.456  39.879  13.017
55067W        W27393   7.360  32.526   0.933
55068W        W27394  13.132   3.295  13.885
55069W        W27395   6.902   9.863   1.269
55070W        W27396  22.136  16.177  11.485
55071W        W27397  23.509  36.093  10.618
55072W        W27398  11.776  10.319   4.741
55073W        W27399   3.226  19.104   2.276
55074W        W27400  33.070  26.622   0.794
55075W        W27401  40.032  19.181   2.819
55076W        W27402   4.382  17.780   1.887
55077W        W27403   2.402  12.317   5.766
55078W        W27404  33.974  23.736  10.438
55079W        W27405  42.354  28.161   0.318
55080W        W27406  35.397  38.410   3.194
55081W        W27407  19.100  12.813  10.954
55082W        W27408  11.280  38.438  13.364
55083W        W27409   3.355  37.885   1.850
55084W        W27410  44.306  13.843  10.959
55085W        W27411  37.577  34.886  11.492
55086W        W27412  43.448  18.658  12.358
55087W        W27413  26.054   0.352  13.946
55088W        W27414  24.668   4.223   3.167
55089W        W27415   5.853   0.414   3.814
55090W        W27416   1.971   4.818  10.938
55091W        W27417   6.822  22.248  11.084
55092W        W27418   7.177  19.188  11.397
55093W        W27419   9.151  28.437   3.692
55094W        W27420  44.830  27.946   3.373
55095W        W27421  10.181  24.192   3.688
55096W        W27422  11.790  21.535   1.707
55097W        W27423  16.682   8.838   0.326
55098W        W27424  10.710  43.009  12.456
55099W        W27425  40.007  25.017   3.286
55100W        W27426   0.887  29.510   0.773
55101W        W27427  36.049  29.561  12.343
55102W        W27428  32.442  16.147  13.992
55103W        W27429   8.296  18.655  11.062
55104W        W27430   1.454   6.698  10.555
55105W        W27431  40.841  32.911   1.738
55106W        W27432   2.237   2.440   4.323
55107W        W27433   9.800  28.045  11.486
55108W        W27434  40.033   4.320  13.877
55109W        W27435  44.379  16.630  10.926
55110W        W27436  19.135  28.604  12.536
55111W        W27437   7.721  44.852   0.398
55112W        W27438   8.336  28.929  11.991
55113W        W27439  18.774  43.900  12.984
55114W        W27440  28.122  32.056   0.822
55115W        W27441  28.141  25.044  14.775
55116W        W27442  35.591  38.893   1.340
55117W        W27443  18.636   1.782  14.411
55118W        W27444   9.193  16.094  13.397
55119W        W27445  27.524   9.755   1.320
55120W        W27446  14.173  43.477   2.302
55121W        W27447  11.318  29.571  11.564
55122W        W27448  35.964   1.971   2.899
55123W        W27449  10.204  40.044  11.584
55124W        W27450  34.568  41.411  10.982
55125W        W27451  15.597   2.270  10.496
55126W        W27452  31.948  32.522  12.365
55127W        W27453  42.011  43.770   1.933
55128W        W27454  39.856  19.656   1.734
55129W        W27455  16.307   0.465  14.480
55130W        W27456  39.439  35.912  12.475
55131W        W27457   3.309  13.807  12.963
55132W        W27458  44.944  44.303   4.270
55133W        W27459  31.467  34.594   2.731
55134W        W27460  10.787  10.705  13.016
55135W        W27461  23.562  44.361  12.918
55136W        W27462  33.416  14.739  13.998
55137W        W27463  20.039  35.865  14.289
55138W        W27464   3.426   4.342   1.705
55139W        W27465  24.684  42.965  14.832
55140W        W27466  38.821  37.353   3.304
55141W        W27467  32.478   3.844   4.659
55142W        W27468   3.881   9.728   2.408
55143W        W27469  11.628  23.104   1.792
55144W        W27470  27.006   6.305   1.416
55145W        W27471  23.020  14.326  10.511
55146W        W27472  35.021  33.403   5.172
55147W        W27473  36.010   5.774   2.747
55148W        W27474  26.157  25.483   1.823
55149W        W27475  44.460  42.923   3.186
55150W        W27476  14.319  42.982  10.921
55151W        W27477  31.559  22.575   0.753
55152W        W27478  12.724   7.798   3.179
55153W        W27479   8.793  14.145  12.543
55154W        W27480  27.559   4.870  13.919
55155W        W27481   8.359  26.635   3.772
55156W        W27482  43.909  13.280  11.946
55157W        W27483  13.789  21.691  12.383
55158W        W27484  39.559  11.202   4.728
55159W        W27485   8.792   7.727  11.541
55160W        W27486  19.082   4.752   2.680
55161W        W27487   6.250  27.117  11.063
55162W        W27488   4.326   8.827  11.566
55163W        W27489  31.520  32.929   2.706
55164W        W27490  30.992  39.997  10.569
55165W        W27491  41.981   1.422  13.031
55166W        W27492  33.036  32.909   4.123
55167W        W27493   2.440  43.382   1.886
55168W        W27494   0.469  30.478  13.985
55169W        W27495  21.215  38.847  14.932
55170W        W27496  35.513  29.923  11.056
55171W        W27497  29.533  17.675  10.927
55172W        W27498  13.604  12.187  14.503
55173W        W27499  17.095  18.704  11.490
55174W        W27500  36.863  26.023   3.245
55175W        W27501  14.094  31.073  13.916
55176W        W27502  15.633  39.532   2.401
55177W        W27503  26.557  17.290  13.416
55178W        W27504  32.064  32.607   3.856
55179W        W27505  36.063   8.676  10.970
55180W        W27506   9.659  23.174  12.371
55181W        W27507  30.962  25.548  12.390
55182W        W27508   2.263  27.636   2.749
55183W        W27509  38.497   0.900   1.836
55184W        W27510  21.660  36.049   1.803
55185W        W27511   6.269  21.690   0.738
55186W        W27512  36.000   6.295   2.756
55187W        W27513  16.284  43.827  11.546
55188W        W27514  16.170  17.678   2.261
55189W        W27515   8.731  35.519  13.358
55190W        W27516   3.343  38.961   4.604
55191W        W27517  31.957   3.350  14.275
55192W        W27518  37.375  13.186  13.427
55193W        W27519   2.352  42.878   1.721
55194W        W27520   6.279  35.908  10.062
55195W        W27521  30.563  36.895  13.520
55196W        W27522   4.938  32.901   2.321
55197W        W27523  33.527  44.299  13.417
55198W        W27524  34.017  17.708  11.511
55199W        W27525  39.337  14.129  13.545
55200W        W27526   3.318  10.154   2.289
55201W        W27527   9.717  18.104   0.778
55202W        W27528  27.047  22.156   2.720
55203W        W27529  14.598  40.397   3.775
55204W        W27530  35.032  32.046  10.894
55205W        W27531  23.012  23.554  13.009
55206W        W27532  24.142   5.266   1.904
55207W        W27533  43.511  12.339  13.972
55208W        W27534  33.069  14.234   4.689
55209W        W27535  34.948  20.187   0.331
55210W        W27536  16.573  15.163  13.476
55211W        W27537  39.925   2.467  12.025
55212W        W27538  37.954   3.943  13.397
55213W        W27539   8.879   3.367   9.977
55214W        W27540  34.405   7.859   2.362
55215W        W27541  39.051  21.520   0.764
55216W        W27542  27.588   9.861  13.446
55217W        W27543  31.985  10.190   0.431
55218W        W27544  31.617  20.212  13.502
55219W        W27545  36.518  25.692   1.293
55220W        W27546  41.456   5.260  13.827
55221W        W27547  14.211  10.352   2.307
55222W        W27548  27.048  18.092   3.225
55223W        W27549  32.919  15.129   2.664
55224W        W27550   1.835  41.319   2.281
55225W        W27551  33.460  29.964   3.680
55226W        W27552  16.749  14.667  14.978
55227W        W27553  15.771  30.597   3.318
55228W        W27554  44.931  28.102  12.843
55229W        W27555  24.145  24.717   0.367
55230W        W27556  28.128   8.245   4.319
55231W        W27557  10.793  20.211   0.346
55232W        W27558  44.984  40.904  10.507
55233W        W27559  41.524   5.780  14.860
55234W        W27560  12.210   9.852  11.018
55235W        W27561  12.260   0.258   3.233
55236W        W27562  31.080  19.081   3.332
55237W        W27563  38.477   6.248   1.841
55238W        W27564  37.970  38.327   0.306
55239W        W27565   7.752  24.122   2.720
55240W        W27566  31.559   4.802   1.446
55241W        W27567  26.106  17.135   1.225
55242W        W27568  39.471  31.449   2.666
55243W        W27569  18.095  28.113  12.018
55244W        W27570  43.792  43.273  14.340
55245W        W27571  12.684  25.637  13.448
55246W        W27572   3.792  17.150   4.747
55247W        W27573  37.844  32.537  12.396
55248W        W27574   1.958  23.533   9.505
55249W        W27575  38.938  17.064   2.183
55250W        W27576  32.920  15.297   1.853
55251W        W27577  14.300  34.439   2.665
55252W        W27578  29.472  21.558   0.892
55253W        W27579  36.470  26.497  13.477
55254W        W27580  36.858  19.088   1.877
55255W        W27581  11.744  30.541   5.192
55256W        W27582  17.629  28.435   3.312
55257W        W27583  22.707  39.549   0.357
55258W        W27584   1.895  32.534   2.309
55259W        W27585   2.292   4.847   4.347
55260W        W27586  41.938   8.232  11.030
55261W        W27587   3.320  37.405   3.731
55262W        W27588  35.085  31.994   5.227
55263W        W27589   8.811  26.009   1.297
55264W        W27590   5.721  19.708   0.413
55265W        W27591  38.512  27.448   3.767
55266W        W27592  36.483   2.337   3.297
55267W        W27593  15.685  38.938  11.055
55268W        W27594  29.138  43.776   4.337
55269W        W27595   9.386  34.965  13.404
55270W        W27596  19.589  30.152   4.123
55271W        W27597   0.925   8.702  14.909
55272W        W27598   0.262   3.942  13.010
55273W        W27599  44.437  21.545   1.389
55274W        W27600  17.568  17.632  10.506
55275W        W27601  43.475  24.551  10.633
55276W        W27602  15.710  42.481   4.285
55277W        W27603  21.066  16.261  14.030
55278W        W27604   0.989  42.021  11.875
55279W        W27605  24.685  30.983   4.756
55280W        W27606  23.005  43.314  12.418
55281W        W27607  41.003  32.990   0.290
55282W        W27608  34.049  34.910  10.954
55283W        W27609  36.915   3.273  10.547
55284W        W27610   8.820   9.230  14.514
55285W        W27611   5.347   5.291   1.733
55286W        W27612  28.632  14.617   2.684
55287W        W27613  35.998  39.505  14.328
55288W        W27614  44.992  20.099   2.673
55289W        W27615   7.688   3.949   1.232
55290W        W27616   2.820  26.479  12.529
55291W        W27617   4.742   0.359  13.828
55292W        W27618   1.275  26.140  10.509
55293W        W27619  18.096   8.680  11.438
55294W        W27620  11.136  16.617   2.198
55295W        W27621  40.466  20.707  13.356
55296W        W27622  39.027  15.163   1.859
55297W        W27623  11.167  13.844   3.667
55298W        W27624  33.065  30.020  10.542
55299W        W27625  20.668  12.347   3.335
55300W        W27626  38.404  13.713  12.339
55301W        W27627  22.713  24.206  11.398
55302W        W27628   9.797  34.536   4.708
55303W        W27629  38.858  16.709   1.745
55304W        W27630  28.048  24.572  14.018
55305W        W27631   3.433   9.282   2.299
55306W        W27632  32.504  10.727  14.930
55307W        W27633   3.776  39.373   4.192
55308W        W27634  41.395  30.130   2.266
55309W        W27635  16.737  14.769   0.791
55310W        W27636  12.755  34.964  14.918
55311W        W27637  30.111  16.266   4.140
55312W        W27638   2.283   7.180  13.383
55313W        W27639  16.745   9.301   0.818
55314W        W27640  24.679  11.223   3.644
55315W        W27641  21.634  39.839   3.153
55316W        W27642  22.683   0.929  11.377
55317W        W27643  43.357   1.813   3.345
55318W        W27644  43.308  13.164   1.923
55319W        W27645  30.525   0.330  13.347
55320W        W27646  32.556  33.590  12.839
55321W        W27647   9.248   3.848   3.211
55322W        W27648   2.906   7.697   2.182
55323W        W27649  35.924  26.184  11.888
55324W        W27650  40.467  19.684   3.646
55325W        W27651   1.384   0.928   4.230
55326W        W27652   7.786  37.977  12.580
55327W        W27653  25.671   0.270  13.388
55328W        W27654  13.658   7.397   0.346
55329W        W27655   6.887  41.994  11.072
55330W        W27656  11.783   3.451  12.400
55331W        W27657  28.125   8.353   2.306
55332W        W27658   6.358  12.729  14.362
55333W        W27659  27.126   9.780  14.385
55334W        W27660  19.273  12.239  13.055
55335W        W27661   5.241  21.601   1.270
55336W        W27662  27.677  32.949   0.395
55337W        W27663   4.796  16.202  14.903
55338W        W27664  42.023  28.491   2.820
55339W        W27665  39.390  42.981  14.805
55340W        W27666  13.840  12.773  10.937
55341W        W27667  18.265   0.362   1.851
55342W        W27668   1.869   4.940  13.811
55343W        W27669   2.864  39.052   4.822
55344W        W27670  17.152  19.561  12.460
55345W        W27671  43.768  44.902  13.878
55346W        W27672   6.347  37.985  13.400
55347W        W27673   8.324   2.834  14.346
55348W        W27674  16.687  17.798   0.452
55349W        W27675  30.067  42.376  11.592
55350W        W27676  31.588   2.470   0.892
55351W        W27677   0.946  11.634   5.312
55352W        W27678   0.488   7.393   4.290
55353W        W27679  30.501  11.128   0.838
55354W        W27680   9.683  12.144   0.366
55355W        W27681  15.295  33.518   0.907
55356W        W27682   8.270  44.421  13.496
55357W        W27683  34.076  11.625  14.945
55358W        W27684  13.294   2.446   0.823
55359W        W27685  19.262  27.148  10.638
55360W        W27686  10.874  40.007  14.956
55361W        W27687   7.277   6.272   2.761
55362W        W27688  30.508  14.706  13.406
55363W        W27689   9.247   0.291  12.447
55364W        W27690  29.022  21.689  13.314
55365W        W27691  19.565   8.185   2.669
55366W        W27692   1.732  31.411  14.845
55367W        W27693  23.631  23.058   2.241
55368W        W27694  18.689  32.533   2.215
55369W        W27695   8.295  44.777  10.977
55370W        W27696   8.687  42.437   4.749
55371W        W27697  13.666   2.910  11.959
55372W        W27698  17.717  29.452  11.117
55373W        W27699  40.958  24.524  13.315
55374W        W27700   3.869  25.014   4.675
55375W        W27701  30.547  32.609   5.103
55376W        W27702  20.719  39.451  10.407
55377W        W27703  14.740  29.023  14.362
55378W        W27704  24.516   0.967  10.965
55379W        W27705   7.838  43.390  10.991
55380W        W27706   6.920  36.570  12.406
55381W        W27707  26.021  19.095  11.103
55382W        W27708   3.378  19.720  12.369
55383W        W27709  23.148  31.144   4.229
55384W        W27710  12.309  37.352  11.418
55385W        W27711  43.891   0.788  14.958
55386W        W27712  31.141  21.095   1.325
55387W        W27713  12.236   8.364   2.286
55388W        W27714  28.546   7.398  12.475
55389W        W27715  39.040  20.554   0.810
55390W        W27716  43.877  24.077  13.909
55391W        W27717  25.703  11.296   1.809
55392W        W27718   1.471   6.388   4.816
55393W        W27719  28.534   6.192  11.916
55394W        W27720   8.687  38.412   4.720
55395W        W27721  34.083   4.313   1.394
55396W        W27722  21.688  30.506  10.943
55397W        W27723  14.594  25.145  11.025
55398W        W27724  14.339   6.216   0.962
55399W        W27725   2.817  22.178   0.339
55400W        W27726  32.106   4.279  10.607
55401W        W27727  29.498   2.392  11.411
55402W        W27728  20.035  23.533   1.264
55403W        W27729   4.703   3.885   0.300
55404W        W27730  30.598  29.974  12.483
55405W        W27731  41.385   2.865   2.784
55406W        W27732  27.123  39.898   1.316
55407W        W27733  23.499   3.347  14.363
55408W        W27734   8.168  41.950   2.302
55409W        W27735  42.019  26.196  11.874
55410W        W27736   5.396  37.473  11.000
55411W        W27737  34.382  10.801  12.458
55412W        W27738   0.948   1.399  12.029
55413W        W27739  39.901  41.823   1.248
55414W        W27740  14.313  26.668   4.627
55415W        W27741   1.870  42.414  13.380
55416W        W27742  20.155   4.862  13.978
55417W        W27743  36.057  31.989   3.768
55418W        W27744  30.948   9.284  11.013
55419W        W27745  13.320   5.268  10.923
55420W        W27746   3.437   8.656  11.900
55421W        W27747   3.896  17.243   4.169
55422W        W27748   7.728  34.592   0.446
55423W        W27749  19.603  29.551  14.424
55424W        W27750   3.447   3.415   3.676
55425W        W27751  40.392   6.683   3.636
55426W        W27752  40.858  15.230   1.212
55427W        W27753   0.256  28.617  11.995
55428W        W27754  34.000  24.183  13.899
55429W        W27755  21.202  23.644  13.801
55430W        W27756  44.303  24.214  10.455
55431W        W27757  19.702  43.868  10.469
55432W        W27758  13.193  19.259   0.875
55433W        W27759  44.849  27.088  12.860
55434W        W27760   7.182  21.622   3.867
55435W        W27761  33.914   1.334  11.523
55436W        W27762  10.644   2.799  13.979
55437W        W27763   9.170  16.312   0.746
55438W        W27764   5.295  24.587   4.283
55439W        W27765  16.743  20.578   2.261
55440W        W27766  23.153  33.596  12.506
55441W        W27767  22.182  42.820   2.679
55442W        W27768   8.687  17.709   0.952
55443W        W27769   0.826   1.788   0.350
55444W        W27770  36.011   3.278  10.912
55445W        W27771  33.052  12.132  14.327
55446W        W27772  35.031  42.800  12.475
55447W        W27773  12.800   7.827  14.412
55448W        W27774  40.053  18.280  13.356
55449W        W27775  21.726   8.724  12.947
55450W        W27776   7.859  19.258  11.016
55451W        W27777  39.962  40.401  11.563
55452W        W27778   4.345  21.144  10.436
55453W        W27779   0.494  15.640  13.798
55454W        W27780   7.385  14.601   0.780
55455W        W27781  38.873  20.617  12.943
55456W        W27782  31.465  35.558   1.368
55457W        W27783  43.968   8.742   3.712
55458W        W27784  15.102  17.721  11.468
55459W        W27785  10.697   6.915  12.411
55460W        W27786  13.605  22.097   3.228
55461W        W27787  40.963   0.250  13.887
55462W        W27788  27.567   5.909   0.439
55463W        W27789  30.659  20.089   1.344
55464W        W27790  13.310  33.996  13.905
55465W        W27791  28.949   3.238   0.454
55466W        W27792   9.317  11.249   2.359
55467W        W27793  13.634   0.396   4.229
55468W        W27794  13.843  38.014  14.852
55469W        W27795  39.323  20.208   2.898
55470W        W27796  14.818  36.391   3.306
55471W        W27797  23.576  21.597   2.404
55472W        W27798   1.766  35.008   1.356
55473W        W27799   4.284  31.948   1.446
55474W        W27800  33.908  36.479  11.984
55475W        W27801   7.389  19.130   4.640
55476W        W27802   9.238  14.596   3.778
55477W        W27803  41.323  25.469   1.389
55478W        W27804  38.889  39.971   4.319
55479W        W27805  11.756   3.939  14.403
55480W        W27806  10.858  26.671  13.790
55481W        W27807  20.254   3.407   4.255
55482W        W27808  30.515  34.093  14.848
55483W        W27809  32.472   2.771  11.090
55484W        W27810  34.381  39.964   0.356
55485W        W27811  39.480  31.956   1.721
55486W        W27812  11.284   4.315   0.338
55487W        W27813  42.331  13.638  12.565
55488W        W27814  11.131  10.141  10.571
55489W        W27815  41.806   8.330   1.905
55490W        W27816  38.428  43.486   4.228
55491W        W27817  25.095   9.252  11.937
55492W        W27818  36.446  42.936   2.867
55493W        W27819   6.781  27.072   3.806
55494W        W27820  16.162  25.529   2.404
55495W        W27821  21.542   9.231   1.819
55496W        W27822  37.570  37.428  13.894
55497W        W27823  25.078   0.952  13.356
55498W        W27824  17.601  29.643   2.757
55499W        W27825   1.318  36.362  11.979
55500W        W27826   0.824  16.081  12.491
55501W        W27827  30.553   7.302  11.554
55502W        W27828  23.589   0.971  11.025
55503W        W27829  31.613  29.633   0.946
55504W        W27830  13.606  39.338  14.439
55505W        W27831  31.067  30.594  13.337
55506W        W27832  40.505  44.908  12.839
55507W        W27833   7.813  14.826   1.432
55508W        W27834   3.349  23.107   0.732
55509W        W27835  29.527  22.519   5.206
55510W        W27836  39.927   9.778  14.820
55511W        W27837  31.588   0.346  13.332
55512W        W27838  27.961  14.297  13.850
55513W        W27839   5.798  19.062   4.187
55514W        W27840  19.704  28.071   1.425
55515W        W27841  17.294   6.855   4.707
55516W        W27842   5.695  27.997  13.021
55517W        W27843   0.352  23.610  11.965
55518W        W27844  18.548  14.813   3.707
55519W        W27845  37.064  27.613  13.421
55520W        W27846  42.995  32.981   0.463
55521W        W27847   0.825  29.973   4.142
55522W        W27848  43.817  18.690   4.745
55523W        W27849  42.323  36.088  12.358
55524W        W27850  17.201  19.059   0.475
55525W        W27851  30.042  17.162  12.036
55526W        W27852  42.927  27.107  10.532
55527W        W27853  43.918  15.250   0.438
55528W        W27854  43.365   2.334   0.806
55529W        W27855   3.921  15.714  11.897
55530W        W27856   2.908  20.083  13.059
55531W        W27857  42.524  43.906  12.366
55532W        W27858  32.583  15.704  11.613
55533W        W27859  41.947  30.425   3.275
55534W        W27860  37.996  18.785  12.839
55535W        W27861   5.401  42.815  12.513
55536W        W27862  27.940  43.931   2.741
55537W        W27863  23.652   1.455   0.387
55538W        W27864  11.829  44.883   4.832
55539W        W27865   0.983  43.370   2.210
55540W        W27866   0.319  21.036  11.507
55541W        W27867  40.429  26.695  10.096
55542W        W27868   0.819   7.221   2.261
55543W        W27869  26.679   2.942   0.458
55544W        W27870  41.804  15.614  11.031
55545W        W27871  19.752   8.274   3.836
55546W        W27872  13.607  43.836  14.491
55547W        W27873   6.839  42.894  10.978
55548W        W27874  39.967  13.236   1.338
55549W        W27875  32.086   9.149  11.505
55550W        W27876  27.458  22.527   1.367
55551W        W27877  39.058  18.095   2.783
55552W        W27878  16.616  37.469  13.518
55553W        W27879  35.093   6.370   3.152
55554W        W27880  43.864  44.268  12.916
55555W        W27881  16.124   6.855   1.343
55556W        W27882  35.572  43.833   1.757
55557W        W27883   3.271  21.170   0.318
55558W        W27884   1.862  20.257  10.504
55559W        W27885  12.229  42.452  12.077
55560W        W27886  11.761   0.305   1.812
55561W        W27887   1.240   0.294   3.261
55562W        W27888  22.579   6.219   5.236
55563W        W27889  44.952  18.281  14.516
55564W        W27890  13.106  11.638  10.609
55565W        W27891  19.172  22.676   0.301
55566W        W27892  15.808  41.790  11.961
55567W        W27893  11.279  16.725   0.959
55568W        W27894  11.255  27.602   2.281
55569W        W27895  37.954  21.612   2.298
55570W        W27896  27.100  16.200   3.840
55571W        W27897  37.339  14.283   0.430
55572W        W27898   3.220  34.885  12.495
55573W        W27899   2.257  25.098   3.721
55574W        W27900  42.967  40.017   3.644
55575W        W27901   7.256  21.686   1.822
55576W        W27902  19.086  13.326  14.356
55577W        W27903  40.054  11.253   2.748
55578W        W27904  21.118  23.006   4.267
55579W        W27905  33.439  42.821   0.388
55580W        W27906  30.131  37.525  14.028
55581W        W27907  43.408   2.340   1.906
55582W        W27908  23.503  18.573   0.347
55583W        W27909  37.950  33.402   1.844
55584W        W27910  15.260  36.366   2.284
55585W        W27911  40.337   1.872   4.345
55586W        W27912  21.198  33.583   3.361
55587W        W27913   6.691  35.909   4.647
55588W        W27914  25.123  19.667  12.868
55589W        W27915  27.037  41.383   3.715
55590W        W27916  15.105  44.361   1.228
55591W        W27917  38.335  36.393  11.939
55592W        W27918   1.438  30.496   1.836
55593W        W27919  34.048   7.380   2.840
55594W        W27920  17.202  38.053  10.612
55595W        W27921  39.969  28.134   4.761
55596W        W27922  35.410  18.731  12.072
55597W        W27923   3.896  42.920   1.927
55598W        W27924  36.519   0.968   4.652
55599W        W27925  36.589  33.959   1.249
55600W        W27926   7.323   4.259   4.137
55601W        W27927  14.826  18.094   0.776
55602W        W27928  44.914  29.089  12.944
55603W        W27929  20.586   1.907  11.109
55604W        W27930  31.507   7.672  14.954
55605W        W27931  36.504  13.126  10.103
55606W        W27932  43.881  25.565  12.510
55607W        W27933  18.754  24.168   3.681
55608W        W27934   6.198  10.246   1.755
55609W        W27935  25.132   4.339   2.351
55610W        W27936  23.236  31.911  11.546
55611W        W27937   2.271  29.560   2.876
55612W        W27938   7.782  24.012   4.223
55613W        W27939  37.463   5.900   1.827
55614W        W27940   0.859  18.653   3.700
55615W        W27941   1.855   1.784  10.428
55616W        W27942  37.047   3.947   3.701
55617W        W27943   5.887  33.061  11.073
55618W        W27944  11.819  13.143  13.454
55619W        W27945   1.920   1.824  11.886
55620W        W27946   8.360  17.590   4.626
55621W        W27947  10.311   3.768   3.857
55622W        W27948  20.059   9.345  12.971
55623W        W27949  42.423   4.204  11.940
55624W        W27950  10.210   7.319   4.622
55625W        W27951   0.405   4.819   3.263
55626W        W27952  30.163  17.796   4.122
55627W        W27953   6.369  13.674  12.876
55628W        W27954  30.154   8.316  12.509
55629W        W27955  41.478  30.424  10.443
55630W        W27956   2.875  22.736   2.819
55631W        W27957  20.197  34.433  12.465
55632W        W27958  29.663  10.800  14.942
55633W        W27959  42.977  28.622   4.655
55634W        W27960  25.110  37.357   0.943
55635W        W27961   9.195   4.333  13.839
55636W        W27962  12.768  43.284   0.953
55637W        W27963  43.286  43.938  14.325
55638W        W27964  25.710  33.543  14.483
55639W        W27965   7.672  22.649  12.411
55640W        W27966  10.723  17.658  11.563
55641W        W27967  39.829  22.104  10.990
55642W        W27968  10.171  19.615   9.964
55643W        W27969  18.244  13.754  11.857
55644W        W27970  13.147   7.375   0.743
55645W        W27971  24.153   6.270   3.364
55646W        W27972  22.597  35.989  10.031
55647W        W27973  31.061  41.433  14.498
55648W        W27974  30.142  18.192  12.873
55649W        W27975  16.291   1.315   2.188
55650W        W27976  26.970  33.884   3.812
55651W        W27977  21.057  26.507   2.410
55652W        W27978  31.561   5.853   0.272
55653W        W27979  36.065  27.631  11.467
55654W        W27980  32.040  32.481   2.822
55655W        W27981  26.573  26.500  12.951
55656W        W27982  44.345   2.249   3.652
55657W        W27983  27.651  37.406  10.632
55658W        W27984  40.404  18.122  11.454
55659W        W27985  35.933   3.766   1.782
55660W        W27986  23.620  34.078  14.974
55661W        W27987  10.799  12.677  11.998
55662W        W27988   6.889  18.236  12.456
55663W        W27989   9.217  38.056   0.421
55664W        W27990  24.988  42.444   0.841
55665W        W27991  19.581  28.987  12.549
55666W        W27992  16.169  27.664   1.744
55667W        W27993  37.898  34.615  14.761
55668W        W27994  13.183  44.371   4.690
55669W        W27995  31.107  20.715   4.274
55670W        W27996  11.227  31.528   0.476
55671W        W27997   1.267  31.613   1.321
55672W        W27998  10.301  17.735  12.438
55673W        W27999  14.138  28.000   4.649
55674W        W28000  38.934  31.576   1.380
55675W        W28001  23.159  13.244   4.661
55676W        W28002  27.151   6.225   4.178
55677W        W28003  21.530  31.588  10.993
55678W        W28004   4.854  33.935   0.815
55679W        W28005  16.801   6.794   3.866
55680W        W28006  33.979  14.721   3.371
55681W        W28007   4.446  23.510   0.469
55682W        W28008  43.459  25.130  12.579
55683W        W28009  20.091  19.607  13.861
55684W        W28010  36.517   9.215  11.910
55685W        W28011  35.405  21.694  13.508
55686W        W28012  16.578  23.198  12.442
55687W        W28013  37.843  14.765   4.132
55688W        W28014  24.020  17.693  11.568
55689W        W28015  41.426  39.907   1.355
55690W        W28016   5.750   6.784   1.887
55691W        W28017   2.821   1.391  12.999
55692W        W28018   8.283  18.584  11.873
55693W        W28019   1.453  32.492   4.817
55694W        W28020  40.906   4.250  11.391
55695W        W28021  27.641   7.393   3.174
55696W        W28022   5.784   8.795   1.893
55697W        W28023  36.945  31.595  12.340
55698W        W28024  43.803  19.102  11.027
55699W        W28025  11.796  36.074  14.476
55700W        W28026  42.313  26.024  11.894
55701W        W28027  33.600   1.462  14.908
55702W        W28028  44.893   5.194   2.825
55703W        W28029  11.733  31.524  10.036
55704W        W28030  44.368  32.026   4.716
55705W        W28031  33.624  10.750   2.740
55706W        W28032  25.628  39.379   0.383
55707W        W28033  39.426  31.944   4.677
55708W        W28034   7.409   9.317   2.759
55709W        W28035   3.400  26.172  13.870
55710W        W28036  35.493  26.057  14.492
55711W        W28037   8.659   6.261  11.949
55712W        W28038  31.955   4.905  14.951
55713W        W28039  16.152   6.313   2.194
55714W        W28040  42.777  18.185   4.705
55715W        W28041   5.895  11.233  13.349
55716W        W28042  43.021  32.439  11.470
55717W        W28043  44.923  27.626  13.541
55718W        W28044  33.959  34.482   0.907
55719W        W28045  44.319  36.045   1.243
55720W        W28046  29.006  33.018   1.449
55721W        W28047  28.151  14.793   3.696
55722W        W28048  43.852  24.073   4.806
55723W        W28049   3.788  22.041  14.031
55724W        W28050  34.094  36.559   0.422
55725W        W28051  28.128  17.293   3.171
55726W        W28052  14.175  29.437  14.838
55727W        W28053  41.032  31.551   2.383
55728W        W28054  40.532  42.024  12.537
55729W        W28055  36.909  24.172  11.948
55730W        W28056  26.156  14.701  12.956
55731W        W28057   6.238  18.062   4.599
55732W        W28058  30.912   5.320  12.459
55733W        W28059  39.895  14.612  10.536
55734W        W28060  27.196   9.271  12.934
55735W        W28061  36.454  27.484  14.494
55736W        W28062  28.096   7.665  11.473
55737W        W28063   4.408  25.109  11.602
55738W        W28064  33.031   3.421   2.812
55739W        W28065  35.468  30.601  10.556
55740W        W28066   5.314  26.616  10.441
55741W        W28067   9.297  14.102  13.824
55742W        W28068  41.418   6.389  11.068
55743W        W28069   1.327  11.695   5.177
55744W        W28070   4.368  37.508   0.343
55745W        W28071  28.587  44.423  12.908
55746W        W28072  34.964  35.476   5.287
55747W        W28073   3.219  14.239   1.880
55748W        W28074  39.408  19.059   4.631
55749W        W28075  11.745  31.055   3.735
55750W        W28076  43.886  29.007  10.571
55751W        W28077  20.051  44.273   0.373
55752W        W28078  23.235  19.195   3.311
55753W        W28079  18.158  34.028   0.319
55754W        W28080  18.297  39.464  13.860
55755W        W28081  24.671  34.560  10.442
55756W        W28082  22.093   6.854   0.384
55757W        W28083   5.432  22.520   2.755
55758W        W28084  21.731  18.149   3.790
55759W        W28085  36.377  38.907   1.784
55760W        W28086  40.414  35.572  12.892
55761W        W28087  37.425  23.047  14.280
55762W        W28088  10.704  15.719   1.935
55763W        W28089  33.486  11.145  12.836
55764W        W28090  16.655   8.782  10.989
55765W        W28091  10.142  21.131  14.993
55766W        W28092  24.647  40.956  14.335
55767W        W28093  12.162  15.813  10.487
55768W        W28094  17.751  37.353   4.322
55769W        W28095  26.604  21.655  11.403
55770W        W28096  34.073  36.940   4.652
55771W        W28097   8.227  21.129   3.294
55772W        W28098  14.605  43.765   2.823
55773W        W28099   4.226  40.461   0.793
55774W        W28100   5.331  15.619   4.695
55775W        W28101  41.452  17.731   2.238
55776W        W28102  34.474  16.751   2.362
55777W        W28103  13.807  23.203  14.946
55778W        W28104   4.397  19.541   0.731
55779W        W28105  32.556   6.277   0.911
55780W        W28106  11.699  11.863  13.901
55781W        W28107  11.637   7.788   4.627
55782W        W28108  18.187  37.898  11.049
55783W        W28109  27.004  22.026   3.853
55784W        W28110  33.875  24.503  11.110
55785W        W28111  30.530   4.227  12.343
55786W        W28112  41.295  41.853  11.097
55787W        W28113  14.126   6.800  13.803
55788W        W28114  43.966  11.654  12.913
55789W        W28115  33.536   8.254  14.976
55790W        W28116   1.875  18.727   1.798
55791W        W28117  39.047  27.643   3.238
55792W        W28118  22.588  41.021  13.923
55793W        W28119  10.381  43.799  10.904
55794W        W28120  10.741   4.705  13.833
55795W        W28121  35.934  41.819  10.921
55796W        W28122  24.085   4.241   1.351
55797W        W28123  31.524   0.928   3.217
55798W        W28124  26.014  28.065   1.250
55799W        W28125  20.070   8.770  14.798
55800W        W28126   1.891  31.058   1.237
55801W        W28127   0.489  17.109  11.119
55802W        W28128  43.940   8.245  11.537
55803W        W28129  21.067   7.721   5.219
55804W        W28130  28.614  44.345   1.754
55805W        W28131  21.625  17.561   0.783
55806W        W28132  40.914  32.008  14.945
55807W        W28133  15.650   2.287   3.747
55808W        W28134  35.451  34.937   3.633
55809W        W28135  24.220  36.494   5.314
55810W        W28136  20.248  26.652   4.321
55811W        W28137  24.104  19.576   4.274
55812W        W28138  39.407  16.621  11.962
55813W        W28139  43.299  25.057  10.597
55814W        W28140   5.403  28.991  12.362
55815W        W28141   1.883  17.123   1.909
55816W        W28142  26.161  23.149  10.950
55817W        W28143  32.033  10.862   0.470
55818W        W28144   5.234  29.452   1.328
55819W        W28145  15.684  20.195  13.828
55820W        W28146  35.058  35.105   1.918
55821W        W28147  20.586  21.263   0.865
55822W        W28148  31.965  41.016   4.181
55823W        W28149  34.072   5.886  11.459
55824W        W28150  20.554  37.944  10.622
55825W        W28151  29.002   5.356   0.464
55826W        W28152   1.289  26.624  12.351
55827W        W28153   1.365  11.154   5.685
55828W        W28154  23.156  43.847   1.869
55829W        W28155  33.881  16.624  11.896
55830W        W28156  43.318  29.609   2.374
55831W        W28157  44.860   5.398   0.963
55832W        W28158  38.905  16.811  11.609
55833W        W28159  21.644  35.425   1.379
55834W        W28160  39.541   3.940  13.938
55835W        W28161  40.011  23.580  11.447
55836W        W28162  38.828  17.618  13.888
55837W        W28163  27.685  43.882  12.913
55838W        W28164  29.425   6.339  13.796
55839W        W28165  37.935  21.037   1.776
55840W        W28166  25.482  24.695  12.048
55841W        W28167  38.987  41.450   2.204
55842W        W28168  26.977   3.773   3.717
55843W        W28169  24.041  37.458  13.319
55844W        W28170   9.305   9.194  14.363
55845W        W28171  43.400   1.821   0.482
55846W        W28172  35.868  28.148  10.637
55847W        W28173  18.259  40.850   2.317
55848W        W28174  38.023  20.152   3.344
55849W        W28175  37.582  23.622   3.303
55850W        W28176  29.174   7.226  12.436
55851W        W28177  11.360  14.221  11.022
55852W        W28178   3.439  17.173   3.333
55853W        W28179  42.887  26.100  12.400
55854W        W28180   9.240   7.279  14.355
55855W        W28181  21.060  18.136   3.381
55856W        W28182  10.146   2.831   4.157
55857W        W28183   2.827  37.031  14.377
55858W        W28184   0.332  25.517  14.900
55859W        W28185   0.943  25.546  11.999
55860W        W28186  29.091  44.305   1.756
55861W        W28187  40.408   1.363  11.127
55862W        W28188  35.012  22.064  10.916
55863W        W28189  35.948  22.234   0.918
55864W        W28190  28.492  44.500   4.788
55865W        W28191  31.604  38.993   2.380
55866W        W28192  36.069  42.871  11.481
55867W        W28193  11.324  25.710   9.962
55868W        W28194  28.487  39.557   4.165
55869W        W28195  21.716  27.463   4.725
55870W        W28196  30.008   0.818  10.942
55871W        W28197  43.795   3.377  11.098
55872W        W28198   5.902  31.034   0.371
55873W        W28199  14.730  37.417   2.886
55874W        W28200   7.675  35.438  12.521
55875W        W28201   7.276   8.880  10.455
55876W        W28202   9.689  21.613  11.084
55877W        W28203  30.639   0.492  11.999
55878W        W28204  31.079  35.430   4.329
55879W        W28205  43.815  44.475  13.841
55880W        W28206  14.255  11.274   1.763
55881W        W28207  13.219  20.133  10.424
55882W        W28208   0.449   2.253  14.462
55883W        W28209  10.779  13.299   3.359
55884W        W28210  36.359   1.268  13.061
55885W        W28211  40.450  33.508   4.300
55886W        W28212  32.621  27.669   2.736
55887W        W28213  17.082  14.765   2.731
55888W        W28214  18.609  23.115  14.812
55889W        W28215  41.878  15.674  12.357
55890W        W28216  16.134  15.759   3.765
55891W        W28217  19.778  31.637   3.233
55892W        W28218   9.686  12.771  13.334
55893W        W28219  19.255  42.898   2.234
55894W        W28220  35.008  28.654  13.502
55895W        W28221   8.326   4.902  11.869
55896W        W28222  26.645  37.577  14.495
55897W        W28223  43.966  13.753   1.911
55898W        W28224  19.047  12.775   3.778
55899W        W28225   3.923  43.790   1.894
55900W        W28226  34.120   7.243  13.951
55901W        W28227  28.501  44.445  14.801
55902W        W28228  20.226  12.697  13.021
55903W        W28229  23.024   4.402   4.289
55904W        W28230   7.792  30.149  11.376
55905W        W28231  35.037  42.776   1.749
55906W        W28232  13.832   0.766   4.231
55907W        W28233  14.337  14.664   0.329
55908W        W28234  40.402  12.214   0.925
55909W        W28235  35.853  13.237   3.374
55910W        W28236  30.066  11.249   1.780
55911W        W28237   3.857  37.464   3.656
55912W        W28238  41.020  44.815  11.612
55913W        W28239  25.078  32.618   3.237
55914W        W28240  29.044  10.318   2.730
55915W        W28241  38.414  42.849   4.614
55916W        W28242  34.580  13.632   4.273
55917W        W28243  10.653  19.104   0.929
55918W        W28244  31.124  12.824  11.396
55919W        W28245  10.875  11.369   1.727
55920W        W28246   9.352  21.746  11.041
55921W        W28247  22.624  42.921   1.411
55922W        W28248  11.140   3.948  10.520
55923W        W28249  33.383  19.266  12.046
55924W        W28250  44.800  10.774  11.052
55925W        W28251  35.967  13.260   1.773
55926W        W28252  13.333   5.800  10.108
55927W        W28253  36.579  30.045  12.025
55928W        W28254  35.030  34.579  14.790
55929W        W28255  41.882  42.397  14.967
55930W        W28256   1.751  29.557  13.849
55931W        W28257  38.533  23.657   1.881
55932W        W28258  14.802  20.550   0.475
55933W        W28259  31.978   8.177  10.528
55934W        W28260  41.444  10.729  14.981
55935W        W28261  33.958  39.826  12.838
55936W        W28262  37.344  10.304  13.363
55937W        W28263  10.324   8.687   3.818
55938W        W28264  30.954  27.456   3.800
55939W        W28265  16.792  35.079   3.660
55940W        W28266  15.317  29.963   2.806
55941W        W28267  36.451  44.301   2.219
55942W        W28268   9.271   3.383  11.534
55943W        W28269  28.467  42.440  10.512
55944W        W28270  35.857  18.617   0.944
55945W        W28271  35.075  29.091  14.871
55946W        W28272  13.155  21.622   3.307
55947W        W28273  14.617  28.678   1.334
55948W        W28274  11.662  13.131  14.892
55949W        W28275  43.339   1.912  10.612
55950W        W28276   6.828  30.144   1.239
55951W        W28277  27.134  23.135  14.920
55952W        W28278  13.744  14.671  10.557
55953W        W28279  19.696  31.429  10.519
55954W        W28280  36.436  44.944  12.048
55955W        W28281  18.243  21.749   2.876
55956W        W28282  35.451  38.338  12.936
55957W        W28283  27.585  21.608   3.797
55958W        W28284  26.955   5.729   4.822
55959W        W28285  10.361  10.746  14.500
55960W        W28286  18.659  16.742  11.082
55961W        W28287  26.506  18.576   4.136
55962W        W28288  40.522   4.327   4.161
55963W        W28289  34.070   9.239   0.474
55964W        W28290  16.200   9.752   1.295
55965W        W28291   7.756  33.495   2.879
55966W        W28292  22.659  21.656  10.407
55967W        W28293  13.617  18.175  14.817
55968W        W28294  17.144  30.488  13.063
55969W        W28295  30.961  36.082   4.251
55970W        W28296  28.975  42.811  14.874
55971W        W28297  32.410  22.634  14.818
55972W        W28298  20.154  42.419  14.913
55973W        W28299  40.310  25.980  13.035
55974W        W28300   4.226  29.496   2.801
55975W        W28301  21.087  29.496   1.425
55976W        W28302  13.130  36.001   3.697
55977W        W28303  24.061  43.502   2.700
55978W        W28304  32.632   5.230   2.301
55979W        W28305   4.880   7.384  14.769
55980W        W28306  43.354  34.597   0.792
55981W        W28307  25.208  23.062  14.511
55982W        W28308  13.341  36.437   5.211
55983W        W28309  20.238  21.667  14.364
55984W        W28310  36.581  34.032  14.985
55985W        W28311   0.873  32.484   2.662
55986W        W28312   0.489  32.995   1.226
55987W        W28313  39.545  12.277  13.957
55988W        W28314  34.980  14.110   3.815
55989W        W28315  43.388  14.311  12.968
55990W        W28316  40.867  19.148   1.828
55991W        W28317  25.001   5.202   0.408
55992W        W28318   3.366  40.427  14.497
55993W        W28319  35.453  35.585  13.529
55994W        W28320   8.346  13.300  11.530
55995W        W28321  22.202   3.419   2.834
55996W        W28322   6.790  40.913   4.620
55997W        W28323  25.599  15.710   1.299
55998W        W28324  19.134  40.033  12.043
55999W        W28325  35.585  17.598   4.830
56000W        W28326   9.884  10.227  13.019
56001W        W28327  15.606   3.794  12.511
56002W        W28328  33.540  42.378  11.879
56003W        W28329  11.636   1.762  10.471
56004W        W28330  40.398  38.489   0.416
56005W        W28331  14.723  22.996  13.433
56006W        W28332  27.631  31.432   2.294
56007W        W28333  22.604   7.680  12.004
56008W        W28334  15.815  12.656   0.798
56009W        W28335  16.628  38.562   3.252
56010W        W28336  40.385  15.817   1.738
56011W        W28337   0.316  35.954  11.537
56012W        W28338   9.727  19.609   4.260
56013W        W28339  23.693   2.377  11.860
56014W        W28340  39.912  39.355   1.714
56015W        W28341  42.525  13.649  11.934
56016W        W28342  33.563  19.762   0.765
56017W        W28343   3.785   9.728   4.200
56018W        W28344  41.922  22.198  10.604
56019W        W28345  34.983  16.802  13.345
56020W        W28346   6.265   8.307  12.558
56021W        W28347   1.816  43.990  12.952
56022W        W28348   4.764  43.360  10.555
56023W        W28349  42.447  43.937   3.759
56024W        W28350   5.293  16.624   3.764
56025W        W28351  31.445   4.409  14.351
56026W        W28352  25.199   2.410  12.090
56027W        W28353  24.497   3.919  14.015
56028W        W28354   2.250   8.284   3.327
56029W        W28355  21.712  21.595  10.491
56030W        W28356  19.727  35.416   1.738
56031W        W28357  38.561  37.349   0.420
56032W        W28358   3.287  22.728   4.837
56033W        W28359  38.431  35.598  10.938
56034W        W28360  19.065  33.524  12.955
56035W        W28361  31.492  37.972   4.341
56036W        W28362  38.479  11.174  11.079
56037W        W28363  28.158  13.771  11.087
56038W        W28364  26.003  41.504   0.817
56039W        W28365  40.419  21.068   2.760
56040W        W28366  40.942  29.977  12.559
56041W        W28367  43.303   8.660  14.862
56042W        W28368  20.240   1.387   1.766
56043W        W28369  20.672  29.934  10.423
56044W        W28370  29.170   3.382   4.256
56045W        W28371  36.525   1.778   3.767
56046W        W28372  35.542  11.789  12.873
56047W        W28373  42.890  24.559  12.463
56048W        W28374   8.685  17.252  13.366
56049W        W28375  19.552  15.660  14.790
56050W        W28376  31.920  36.968  12.542
56051W        W28377   7.766  41.510   3.209
56052W        W28378   9.344  15.630  11.100
56053W        W28379   1.288   7.259   0.296
56054W        W28380   8.204   7.743  12.895
56055W        W28381  43.967  20.700   4.308
56056W        W28382  24.677  44.880  10.446
56057W        W28383  41.389   0.486   2.211
56058W        W28384  13.703   1.868   0.289
56059W        W28385  11.664   7.235   3.337
56060W        W28386   2.438  19.155   4.723
56061W        W28387   6.794  41.417  10.934
56062W        W28388  17.670  30.483  14.907
56063W        W28389  24.064   9.759  11.479
56064W        W28390  38.865  39.500  10.554
56065W        W28391  37.913  44.867   4.739
56066W        W28392  29.034  42.445  14.348
56067W        W28393  32.062  22.108  11.535
56068W        W28394  40.321  11.300  13.543
56069W        W28395   7.679  29.484   2.197
56070W        W28396  30.559  42.942  14.311
56071W        W28397  23.098  31.629  13.038
56072W        W28398  36.513   3.308   2.373
56073W        W28399   8.281  13.832  11.561
56074W        W28400  44.377  26.520   4.336
56075W        W28401  20.085  31.513   1.416
56076W        W28402  13.839  11.158  12.571
56077W        W28403  30.464  20.616   0.899
56078W        W28404  19.079  12.205  14.802
56079W        W28405  23.577  34.490   0.384
56080W        W28406  26.506   4.847   1.871
56081W        W28407  20.058  44.951   2.287
56082W        W28408   2.796  27.977  10.530
56083W        W28409  32.895  30.159   1.445
56084W        W28410  30.518   3.330   3.826
56085W        W28411  15.786  22.217   3.762
56086W        W28412  17.234  32.076  10.461
56087W        W28413  23.695  41.368  13.032
56088W        W28414  15.630   1.893  11.604
56089W        W28415   6.376  16.303  14.859
56090W        W28416  39.833  17.760  11.037
56091W        W28417  18.697   1.333   0.776
56092W        W28418  33.551  32.498   3.298
56093W        W28419  10.817  11.684  14.915
56094W        W28420  19.637  12.334   0.780
56095W        W28421  13.839   7.417  12.960
56096W        W28422  38.354   8.315  13.812
56097W        W28423  24.107  19.627  14.974
56098W        W28424  33.010  42.406   4.667
56099W        W28425  26.199  44.500   3.370
56100W        W28426  35.968   4.314  11.022
56101W        W28427  40.954   6.824  13.472
56102W        W28428  37.543  30.071  10.430
56103W        W28429  18.762  26.558   3.327
56104W        W28430  32.943  44.872   3.631
56105W        W28431   1.443  33.106  12.445
56106W        W28432  30.140  15.264  14.785
56107W        W28433  23.176  40.459   2.268
56108W        W28434   8.683  42.822  11.901
56109W        W28435  34.561  18.109   3.281
56110W        W28436  32.002  19.165   0.966
56111W        W28437  41.897  35.561   1.422
56112W        W28438  29.581  16.206  10.432
56113W        W28439  29.648  40.319   2.346
56114W        W28440  36.486  36.404   3.869
56115W        W28441  18.708  37.910   4.612
56116W        W28442   4.699  29.476  12.845
56117W        W28443  37.488  13.658   3.380
56118W        W28444  15.118  28.183   2.781
56119W        W28445  15.159   3.874  11.384
56120W        W28446  30.139  15.800   3.768
56121W        W28447  17.296  34.881  10.531
56122W        W28448   4.898  14.132  14.017
56123W        W28449  32.996  10.362   0.966
56124W        W28450  25.126  33.919   2.345
56125W        W28451   9.197  29.549   0.360
56126W        W28452  13.297   2.910  12.977
56127W        W28453   9.726  24.048   3.662
56128W        W28454  22.585  28.036  13.814
56129W        W28455  37.916   6.410   3.376
56130W        W28456   8.188  24.135   2.791
56131W        W28457  33.428  30.996  13.865
56132W        W28458  24.998  29.129  10.640
56133W        W28459  31.142  30.618   0.350
56134W        W28460  39.936  15.690   0.473
56135W        W28461  42.781  23.509  11.498
56136W        W28462  17.142  12.132   4.781
56137W        W28463   0.349  37.352   1.756
56138W        W28464  28.518   6.427   3.293
56139W        W28465  42.449  15.310   3.840
56140W        W28466   4.264  21.167  14.333
56141W        W28467  29.539  36.977   2.701
56142W        W28468   9.843  44.267   3.842
56143W        W28469  24.534  24.215   4.117
56144W        W28470  30.604  27.059   2.340
56145W        W28471   0.258  14.821   2.404
56146W        W28472  42.391   0.867  13.467
56147W        W28473  17.124  30.004  11.436
56148W        W28474   1.867  24.533   3.182
56149W        W28475   5.930   4.386   1.421
56150W        W28476  18.123  35.378  14.895
56151W        W28477  29.578  27.945  10.442
56152W        W28478   1.818  34.452   1.768
56153W        W28479   0.316  31.519   2.667
56154W        W28480  14.759  43.793   0.943
56155W        W28481  19.264  36.850  13.021
56156W        W28482   4.251   5.802   4.828
56157W        W28483  42.418  41.977   4.175
56158W        W28484   7.693  33.115  13.361
56159W        W28485  27.627  32.985   3.772
56160W        W28486  19.256  21.156   2.823
56161W        W28487  34.500  16.228   3.247
56162W        W28488  38.348   1.791  13.518
56163W        W28489  18.670  37.965   3.806
56164W        W28490  24.190  29.961  10.415
56165W        W28491   9.290  39.966  14.355
56166W        W28492  21.135   3.290  10.929
56167W        W28493  14.280  15.100  12.095
56168W        W28494   9.246  15.189   3.755
56169W        W28495  23.020  30.634   1.912
56170W        W28496  10.143  38.557   2.869
56171W        W28497  40.868  25.566   2.381
56172W        W28498   1.480  27.980  12.938
56173W        W28499   4.432  32.522   1.444
56174W        W28500   9.816  29.461   2.851
56175W        W28501  33.954   8.684   4.114
56176W        W28502  30.413  12.815  14.340
56177W        W28503   0.918  36.976   1.338
56178W        W28504  28.468  20.261  11.577
56179W        W28505  43.425  32.018  12.462
56180W        W28506  40.423   0.440   3.768
56181W        W28507  16.648  25.637   1.344
56182W        W28508   1.446  37.830  13.403
56183W        W28509  28.542  36.902  11.930
56184W        W28510   8.192   1.819  11.074
56185W        W28511   5.293  14.171  10.561
56186W        W28512  20.555  44.328   0.738
56187W        W28513   0.474  28.122   1.372
56188W        W28514  26.703  18.780  10.909
56189W        W28515  42.350  30.603  13.000
56190W        W28516  31.629  33.564   0.274
56191W        W28517   0.303  32.490  12.503
56192W        W28518  16.275  24.715  12.410
56193W        W28519  25.036  28.086   3.629
56194W        W28520   9.736   5.346  11.931
56195W        W28521  30.970  22.578   3.656
56196W        W28522   9.315  42.025   3.672
56197W        W28523  36.407   2.930   1.394
56198W        W28524  40.418  31.931  13.960
56199W        W28525  35.533  10.211   2.379
56200W        W28526   6.366  20.536  10.499
56201W        W28527  23.018  27.483  12.563
56202W        W28528  12.729  24.681   5.314
56203W        W28529  44.879  18.065   1.427
56204W        W28530  18.093  20.265   3.208
56205W        W28531  22.145   4.232  10.520
56206W        W28532   6.792  33.037   3.330
56207W        W28533  28.516   2.894  13.063
56208W        W28534   2.231  16.114   1.913
56209W        W28535  15.305  30.427   3.344
56210W        W28536   8.247  18.760   3.869
56211W        W28537  23.701  31.953  12.577
56212W        W28538  30.923   0.754   3.222
56213W        W28539  23.180  27.584  11.014
56214W        W28540  27.603  36.362   3.183
56215W        W28541  17.076  22.675   1.264
56216W        W28542  41.504  33.564  11.507
56217W        W28543  23.029  28.541  13.410
56218W        W28544  21.211  26.096   1.228
56219W        W28545  23.490  11.826   3.294
56220W        W28546  35.596   7.266   3.312
56221W        W28547  43.992  37.851   0.409
56222W        W28548  43.829  26.996  14.402
56223W        W28549  28.436   6.281   2.221
56224W        W28550  43.283   0.475   9.933
56225W        W28551  34.997  20.640   4.738
56226W        W28552  19.561  33.406   1.354
56227W        W28553  12.643   9.211   2.317
56228W        W28554  34.519  41.371  12.951
56229W        W28555  39.421   6.205   1.312
56230W        W28556   7.394  29.618   2.194
56231W        W28557   8.277  35.928  12.913
56232W        W28558  36.507  13.128   1.803
56233W        W28559  12.175  37.562  12.903
56234W        W28560  19.662  11.231   0.343
56235W        W28561  34.021  17.766  13.485
56236W        W28562  43.448  31.548   3.797
56237W        W28563  31.151   5.812  10.013
56238W        W28564   7.884  36.515  11.042
56239W        W28565  43.825  42.853   4.353
56240W        W28566  17.189  29.465  10.509
56241W        W28567  31.542  27.179  14.865
56242W        W28568  13.166  22.569  12.510
56243W        W28569  34.112  19.773   1.351
56244W        W28570  37.474   5.345  11.037
56245W        W28571  28.595  21.528   3.847
56246W        W28572  11.145  17.275   3.251
56247W        W28573  10.293   3.270   4.153
56248W        W28574   5.278  17.264   3.180
56249W        W28575  26.066  26.591   0.965
56250W        W28576  42.989  43.833   4.261
56251W        W28577  23.091  37.901   0.734
56252W        W28578   9.801   5.383   0.279
56253W        W28579  11.755  37.365   4.219
56254W        W28580  11.216  42.022  12.044
56255W        W28581  40.348  29.131   1.825
56256W        W28582  13.345  11.822   4.775
56257W        W28583  12.631  17.578   3.773
56258W        W28584  36.441  19.081   4.798
56259W        W28585   3.838   5.299  14.874
56260W        W28586  44.950  24.004  14.871
56261W        W28587  10.867  41.402   3.666
56262W        W28588  40.037  43.322  10.531
56263W        W28589  36.906  33.491   3.654
56264W        W28590  19.281  43.905  12.574
56265W        W28591  10.161  24.508   2.416
56266W        W28592   7.260   5.718   3.224
56267W        W28593  10.666   6.220   0.460
56268W        W28594  28.591   3.376   4.735
56269W        W28595  16.249  35.430  10.624
56270W        W28596   9.814   7.784   2.374
56271W        W28597  36.086  23.022  13.461
56272W        W28598  44.870  13.627   2.230
56273W        W28599  29.551  33.434   9.949
56274W        W28600  41.433  32.401   4.766
56275W        W28601  16.799  33.067   0.265
56276W        W28602  18.667  27.107  11.529
56277W        W28603  32.102   1.463   2.258
56278W        W28604  28.639   5.337   0.274
56279W        W28605  12.740  35.898   0.345
56280W        W28606  28.622  16.736  12.540
56281W        W28607  13.648  24.680   1.215
56282W        W28608  32.124   7.830  14.009
56283W        W28609  34.404   3.730  14.410
56284W        W28610  13.246  37.038  12.025
56285W        W28611  32.626  43.811   3.219
56286W        W28612  34.965  33.437   4.695
56287W        W28613  39.013   7.761  11.023
56288W        W28614  29.576  11.284   3.173
56289W        W28615   9.167  13.209   1.267
56290W        W28616  12.340  18.224  13.881
56291W        W28617  38.881   2.358  12.534
56292W        W28618  15.196  20.545  10.954
56293W        W28619  34.913   7.387   3.309
56294W        W28620  36.071  14.677   1.432
56295W        W28621  35.395  34.565  12.365
56296W        W28622  29.024  29.090   1.275
56297W        W28623  37.035   6.788  10.958
56298W        W28624   1.779  22.648  11.451
56299W        W28625  24.187  37.060   0.474
56300W        W28626  23.034  44.285  13.530
56301W        W28627  37.351  21.643   2.337
56302W        W28628  41.521  36.984  12.954
56303W        W28629  40.821   2.432  12.053
56304W        W28630  44.853  10.639  13.490
56305W        W28631  42.460  12.325  13.522
56306W        W28632  38.549  38.026   0.294
56307W        W28633   3.287  41.535  12.952
56308W        W28634  32.523  44.002  12.943
56309W        W28635  20.224  10.686   4.682
56310W        W28636  42.959  25.635   4.635
56311W        W28637  18.142   9.684  13.382
56312W        W28638  25.126  17.574   4.250
56313W        W28639  42.868  23.014  12.066
56314W        W28640  25.569  22.734   1.760
56315W        W28641   3.837  17.304  14.913
56316W        W28642  24.055  18.653  13.474
56317W        W28643  42.290   4.723   1.714
56318W        W28644  28.447  16.708   3.652
56319W        W28645  25.005  41.309   2.250
56320W        W28646   8.289  20.709  13.364
56321W        W28647  19.102  40.355   0.823
56322W        W28648  30.001  21.535  12.096
56323W        W28649  34.497  27.565  11.587
56324W        W28650  27.133  23.180   1.232
56325W        W28651  31.615  22.554  12.471
56326W        W28652  22.134   2.786   1.256
56327W        W28653  43.390   8.811   4.123
56328W        W28654  29.160  19.212  13.829
56329W        W28655  13.322  36.451  13.458
56330W        W28656  38.929  10.374  14.824
56331W        W28657   9.749  30.152   1.336
56332W        W28658  28.966  16.145  11.127
56333W        W28659  28.658  16.146   4.245
56334W        W28660  24.651   1.870  12.961
56335W        W28661  22.719  32.546   1.373
56336W        W28662  37.408  12.839   4.334
56337W        W28663  33.977  41.476  12.410
56338W        W28664  20.056  24.082  11.395
56339W        W28665  12.163  26.609   0.419
56340W        W28666  44.382   3.297  10.555
56341W        W28667  11.798  34.109  12.850
56342W        W28668  11.784   9.667   1.384
56343W        W28669   6.262   6.187  13.320
56344W        W28670  19.683  17.222   4.814
56345W        W28671   3.420   2.383   1.360
56346W        W28672   4.272  15.613  11.423
56347W        W28673  40.436   8.293   3.784
56348W        W28674  41.981   1.331  14.865
56349W        W28675  32.531  27.034   4.142
56350W        W28676  29.520   2.457   0.805
56351W        W28677  42.376  26.175   0.253
56352W        W28678  36.856  19.150  12.990
56353W        W28679  36.037  25.589   3.151
56354W        W28680  19.776  18.620  14.297
56355W        W28681   9.199  32.548  13.472
56356W        W28682  37.363  15.823   4.651
56357W        W28683  38.369  27.611   2.791
56358W        W28684  37.422  31.620  10.919
56359W        W28685  37.426  12.613  11.406
56360W        W28686   1.469  21.672   4.657
56361W        W28687   1.968  43.926   3.760
56362W        W28688   7.760  24.020  12.388
56363W        W28689  16.252  23.023   1.725
56364W        W28690   3.298  10.190  14.842
56365W        W28691  11.367  12.146  14.324
56366W        W28692  39.397   3.840   0.450
56367W        W28693  29.940   8.179   0.263
56368W        W28694  39.939  12.712  14.981
56369W        W28695  33.573   8.754   2.758
56370W        W28696  36.461  20.581  11.956
56371W        W28697   6.874   9.826  10.627
56372W        W28698  15.705  23.001  13.401
56373W        W28699  44.481   0.419  13.872
56374W        W28700   1.302   4.843   2.759
56375W        W28701   6.724   2.726  10.904
56376W        W28702  32.480  11.360  13.452
56377W        W28703  25.481   0.267  14.509
56378W        W28704  36.494  22.041  10.537
56379W        W28705  42.489  12.222  12.409
56380W        W28706  25.132   6.225   4.652
56381W        W28707  36.529  19.205  12.896
56382W        W28708  10.735  37.382  14.873
56383W        W28709  37.379  15.581  14.973
56384W        W28710  13.180  26.995  11.106
56385W        W28711  37.385  43.337  12.511
56386W        W28712  21.589  16.587  13.474
56387W        W28713  14.269   9.168  12.957
56388W        W28714   4.885  44.869   4.712
56389W        W28715  18.167  40.328   2.419
56390W        W28716   6.738  40.392   0.361
56391W        W28717   1.278  30.635   4.336
56392W        W28718  13.143  15.277   0.378
56393W        W28719  34.492  38.934   1.298
56394W        W28720   1.970   4.276   5.621
56395W        W28721  30.472  38.872   4.646
56396W        W28722  34.964  33.435   2.232
56397W        W28723  31.977  30.023   3.828
56398W        W28724   8.334  13.147   0.854
56399W        W28725  37.429   6.182  10.976
56400W        W28726  36.966  14.712   0.367
56401W        W28727   2.303  32.611   2.813
56402W        W28728  22.611   1.322  11.481
56403W        W28729  41.944  41.533  12.992
56404W        W28730  14.190  43.311  12.861
56405W        W28731  11.742   7.718  10.999
56406W        W28732   8.294  33.881  12.426
56407W        W28733  10.291  23.621  14.020
56408W        W28734  34.480  15.181   3.247
56409W        W28735  41.016  16.621  10.909
56410W        W28736   7.360  30.447   2.875
56411W        W28737  43.403  28.983  11.395
56412W        W28738  12.625  40.539  14.399
56413W        W28739  36.980  14.820  13.914
56414W        W28740  18.709  33.402  10.544
56415W        W28741  26.560  18.283   0.733
56416W        W28742   6.393   3.416  10.611
56417W        W28743  37.911  18.222  13.325
56418W        W28744  25.627   3.725   3.639
56419W        W28745  42.911  29.488   3.219
56420W        W28746   1.437  39.324   1.331
56421W        W28747   1.760  21.519  14.392
56422W        W28748  18.069  15.207  13.043
56423W        W28749  27.161  42.958   4.718
56424W        W28750  40.545   4.285  14.808
56425W        W28751   4.328   8.279  11.882
56426W        W28752  14.219  23.004   2.666
56427W        W28753  34.381  33.955   1.723
56428W        W28754   0.942  39.057  13.973
56429W        W28755  42.828  23.641  13.865
56430W        W28756   4.381   4.857   2.385
56431W        W28757  38.482  40.468  14.493
56432W        W28758  44.451  23.612   2.678
56433W        W28759  40.848  29.045   4.300
56434W        W28760   8.817   0.383   1.268
56435W        W28761  19.547   9.360   1.706
56436W        W28762  19.188  21.749  13.999
56437W        W28763  25.706   9.281   2.739
56438W        W28764  45.000  40.440  11.558
56439W        W28765  27.595  31.092  12.002
56440W        W28766   6.788  37.031   0.868
56441W        W28767  42.792  24.576   3.841
56442W        W28768  10.741  12.324  10.994
56443W        W28769  35.597  26.085   4.828
56444W        W28770  10.196   2.235   3.324
56445W        W28771  31.604   6.703   0.737
56446W        W28772  36.919  10.802  13.486
56447W        W28773  37.345  32.072  11.044
56448W        W28774  26.616  35.098  14.998
56449W        W28775  14.622  21.632   4.201
56450W        W28776  11.742  10.671  14.286
56451W        W28777  38.501   6.393   1.321
56452W        W28778  18.672  25.074  13.428
56453W        W28779  15.301  39.397   4.805
56454W        W28780   9.394  34.603   0.287
56455W        W28781  36.948  37.481  10.947
56456W        W28782  34.068  28.646   2.276
56457W        W28783  38.847  42.001   0.429
56458W        W28784  32.963  23.731   0.914
56459W        W28785  31.117  20.090   3.808
56460W        W28786  11.754  41.481   4.753
56461W        W28787  18.147   2.323  11.015
56462W        W28788  39.888  39.391   1.410
56463W        W28789  14.258  31.037   5.134
56464W        W28790  37.392  16.084   1.421
56465W        W28791  41.878  12.189   4.741
56466W        W28792  43.393  21.637  14.364
56467W        W28793  37.068  37.545   2.665
56468W        W28794   1.819  37.478  13.868
56469W        W28795  24.595  32.017  11.469
56470W        W28796   2.963  32.521   2.194
56471W        W28797  41.391  26.188  12.453
56472W        W28798  18.726  21.037  14.337
56473W        W28799  32.478   8.380  12.855
56474W        W28800   7.829  10.357   1.735
56475W        W28801   6.413   6.363  12.512
56476W        W28802  10.744  26.083  10.613
56477W        W28803  23.999   5.418   1.358
56478W        W28804  26.655  36.906  13.008
56479W        W28805  42.524   0.839  12.978
56480W        W28806  33.920  31.533   2.378
56481W        W28807  20.641  42.483   0.939
56482W        W28808  16.245   0.885   1.780
56483W        W28809  25.175  27.642   3.283
56484W        W28810   7.404  30.910  13.514
56485W        W28811  43.890  31.610  14.340
56486W        W28812  17.184  26.472  13.014
56487W        W28813  16.677   2.847  10.911
56488W        W28814  41.999  14.302   1.823
56489W        W28815  13.648  19.741   0.879
56490W        W28816  33.910   3.947  11.429
56491W        W28817  40.398  21.527   2.713
56492W        W28818   6.872  42.978   2.731
56493W        W28819  26.124  22.075  10.954
56494W        W28820   9.237  37.068  11.554
56495W        W28821   5.240   6.334  14.422
56496W        W28822  11.316   1.242   1.752
56497W        W28823  39.319  39.319   3.324
56498W        W28824   3.359  28.141   1.271
56499W        W28825  25.491   4.401   0.921
56500W        W28826  19.731  22.689   3.731
56501W        W28827  14.141  27.504  14.931
56502W        W28828  42.903  31.528  14.443
56503W        W28829  21.190  14.249  12.995
56504W        W28830   9.224   1.365   1.706
56505W        W28831  43.372  29.950  10.441
56506W        W28832  40.996  27.503  12.421
56507W        W28833  25.703  34.085  10.949
56508W        W28834  40.898  31.422  14.017
56509W        W28835  25.147  23.632  14.914
56510W        W28836  28.995  43.844   2.901
56511W        W28837  22.605   9.287   3.753
56512W        W28838   6.804  31.472  11.458
56513W        W28839  42.018  16.208  12.962
56514W        W28840   3.747   1.424  12.362
56515W        W28841  18.611  42.937  11.471
56516W        W28842   6.686  37.003   2.360
56517W        W28843   2.888  41.038  11.389
56518W        W28844  23.708  39.920  12.838
56519W        W28845  18.259  13.262   2.400
56520W        W28846  42.432   0.773   0.440
56521W        W28847  38.001  25.040   4.765
56522W        W28848  15.218  36.092   0.879
56523W        W28849  12.811  22.651  13.453
56524W        W28850   6.314  37.831  10.497
56525W        W28851  38.363  35.993   3.800
56526W        W28852  28.511   1.452  13.479
56527W        W28853  42.915  18.209   1.262
56528W        W28854  43.816  28.058  10.610
56529W        W28855  40.926  23.547   2.307
56530W        W28856  29.472   7.754   0.274
56531W        W28857   1.886   2.860   1.264
56532W        W28858  33.497  42.799   1.225
56533W        W28859  37.578   6.215  12.465
56534W        W28860  15.793   9.690   2.267
56535W        W28861  37.408  30.626   9.996
56536W        W28862  26.032  39.023  14.455
56537W        W28863   9.862  32.504  14.495
56538W        W28864   7.313  42.794  10.990
56539W        W28865  13.740  12.297  13.348
56540W        W28866  14.337  27.973  11.573
56541W        W28867  22.137  18.164  14.417
56542W        W28868  42.968  25.176   1.313
56543W        W28869   3.742  27.960  11.960
56544W        W28870  27.668  38.379   2.207
56545W        W28871  19.215   5.912   4.631
56546W        W28872   2.938  12.654  14.801
56547W        W28873  18.671  40.960   1.432
56548W        W28874  20.158  24.150  13.027
56549W        W28875   6.842  25.712  10.593
56550W        W28876   8.275  28.636  13.516
56551W        W28877   8.300  25.207   1.261
56552W        W28878  10.752   7.304   1.826
56553W        W28879  13.262   7.358  13.837
56554W        W28880   9.801  34.102  10.487
56555W        W28881   9.806  44.799  14.767
56556W        W28882  39.386  43.295  12.864
56557W        W28883  44.822  37.423  12.406
56558W        W28884  30.972  19.268  10.481
56559W        W28885  19.233   0.869  14.425
56560W        W28886  21.720  15.215  13.379
56561W        W28887  25.219  30.989  14.879
56562W        W28888   4.846  36.515  10.551
56563W        W28889  31.526  31.917   5.115
56564W        W28890  27.104  18.213   0.394
56565W        W28891  26.576  23.603  11.039
56566W        W28892  21.198  40.917  12.029
56567W        W28893  38.967  24.698  13.861
56568W        W28894  26.474  38.522   4.695
56569W        W28895  18.639  24.042  10.558
56570W        W28896  35.596  11.633  11.083
56571W        W28897  38.439  11.837   2.348
56572W        W28898  16.622  32.925   1.257
56573W        W28899  34.461  32.031  10.615
56574W        W28900  28.447  11.681   0.922
56575W        W28901   1.870  34.997  13.394
56576W        W28902  28.033  13.297   3.700
56577W        W28903   3.357   0.805   3.169
56578W        W28904  15.727  31.577  10.535
56579W        W28905  35.005  28.170  10.954
56580W        W28906  39.835  17.070   3.347
56581W        W28907  13.341  33.880  11.913
56582W        W28908  21.136  44.913  10.436
56583W        W28909   4.316   5.710   4.150
56584W        W28910  39.954   7.357  11.895
56585W        W28911  40.303  14.823  12.377
56586W        W28912  40.017  41.877   3.797
56587W        W28913   4.816  43.961   3.299
56588W        W28914   9.152  12.853   2.672
56589W        W28915  27.140  17.570  11.090
56590W        W28916   6.251  28.676  13.399
56591W        W28917   3.713   5.414   1.227
56592W        W28918   5.363  41.946   1.911
56593W        W28919   5.750  39.359  10.951
56594W        W28920  33.419   6.805  14.326
56595W        W28921   2.251  23.066  14.771
56596W        W28922  19.700   1.427   3.376
56597W        W28923   9.171  15.304  12.381
56598W        W28924   5.900  44.895  14.489
56599W        W28925  11.750  11.624   0.292
56600W        W28926  41.840  12.850   2.663
56601W        W28927  27.638  42.407  12.913
56602W        W28928  11.860  31.487  14.893
56603W        W28929  34.037  15.783   3.239
56604W        W28930   0.822  38.901   1.223
56605W        W28931   2.762   3.309   9.968
56606W        W28932  34.956  21.536  12.918
56607W        W28933  37.907   4.772   4.310
56608W        W28934  35.575  41.997  14.298
56609W        W28935  27.617  42.028  11.036
56610W        W28936  38.393  13.625   2.680
56611W        W28937   1.464  21.660  10.935
56612W        W28938  43.798   4.388   3.354
56613W        W28939  35.357  34.004  11.862
56614W        W28940  32.015  31.913  10.584
56615W        W28941  19.700   1.257   0.857
56616W        W28942  16.092  40.879   1.377
56617W        W28943  33.400  32.922  13.945
56618W        W28944  20.614  34.993   4.777
56619W        W28945  44.785  27.156  11.377
56620W        W28946  29.508  26.460   2.843
56621W        W28947  40.340  29.170  11.086
56622W        W28948  13.226  21.513   4.629
56623W        W28949  22.208  42.326   0.837
56624W        W28950  26.105  42.297  10.429
56625W        W28951  28.169  18.224   2.385
56626W        W28952  41.857  40.531   3.165
56627W        W28953  19.641  35.880   0.376
56628W        W28954  21.659   4.848   0.254
56629W        W28955  42.969  16.097   2.204
56630W        W28956  36.453  26.670  14.419
56631W        W28957  31.935   4.425  10.087
56632W        W28958  39.862  38.897  12.990
56633W        W28959  42.988  13.796  12.433
56634W        W28960  41.388  40.869   3.174
56635W        W28961  30.922  29.545   4.176
56636W        W28962  16.077  26.962  10.606
56637W        W28963   8.759  41.027  14.333
56638W        W28964   4.850  39.965   4.281
56639W        W28965  32.401  34.045   3.716
56640W        W28966  42.863  13.318   3.193
56641W        W28967  38.545  20.643   4.183
56642W        W28968  23.120   2.415   4.121
56643W        W28969  29.127  43.855   1.386
56644W        W28970   6.372  20.717  14.412
56645W        W28971  28.655  12.833  14.848
56646W        W28972   0.253  24.684  11.118
56647W        W28973   6.196  40.398   4.336
56648W        W28974  35.583  37.047  11.946
56649W        W28975   7.213  16.082   3.641
56650W        W28976  12.741  15.291  13.989
56651W        W28977  12.341  44.931  14.372
56652W        W28978  10.719   6.271  11.450
56653W        W28979  42.007  40.002  14.845
56654W        W28980   1.408  10.732  13.912
56655W        W28981   9.380  31.914  11.872
56656W        W28982  34.035  29.585   2.832
56657W        W28983  20.653  38.985  14.919
56658W        W28984   2.795  35.369  10.952
56659W        W28985  37.007   7.896   4.624
56660W        W28986   4.734  11.638  11.015
56661W        W28987  24.141  10.865  13.404
56662W        W28988  36.976  25.106   4.293
56663W        W28989  42.029  37.017  13.983
56664W        W28990   3.339  20.608   2.707
56665W        W28991  21.151  33.385   3.765
56666W        W28992  37.939  17.565  12.093
56667W        W28993   0.387  33.907  10.483
56668W        W28994  34.530  42.790   3.790
56669W        W28995  24.144  40.335  14.886
56670W        W28996  37.064  23.500  14.964
56671W        W28997  12.207  42.946   4.123
56672W        W28998   8.221  10.240   3.197
56673W        W28999  24.034  14.202  13.949
56674W        W29000   5.825  21.545   2.896
56675W        W29001  25.978  20.033   4.675
56676W        W29002   8.403  21.042  10.416
56677W        W29003   7.737  37.474   1.848
56678W        W29004  41.885  16.629   3.212
56679W        W29005   1.757  43.890   4.615
56680W        W29006  28.623  24.620  14.330
56681W        W29007  36.350  35.854  14.460
56682W        W29008  41.354  16.731  14.467
56683W        W29009  38.974  19.281  11.383
56684W        W29010  35.882   3.282   4.738
56685W        W29011  27.994  31.492  13.837
56686W        W29012   2.391  12.218  11.111
56687W        W29013   9.393  13.696   1.424
56688W        W29014  18.781  13.682  11.972
56689W        W29015   4.889   2.409  13.969
56690W        W29016  18.090  14.132  11.014
56691W        W29017   6.400  34.960   1.869
56692W        W29018  33.987   3.270  13.994
56693W        W29019  43.435  43.310   2.367
56694W        W29020  42.328  26.199   2.801
56695W        W29021  11.190  20.047  10.536
56696W        W29022   3.881  11.346   5.754
56697W        W29023  29.570  30.044  14.497
56698W        W29024   4.864   1.307   3.708
56699W        W29025  43.985  29.528   2.395
56700W        W29026   1.238  27.121  12.012
56701W        W29027  36.424  43.410  14.407
56702W        W29028  11.181  15.251  11.541
56703W        W29029  38.381   4.943  14.980
56704W        W29030  20.117   9.278  10.552
56705W        W29031  30.107   8.712   1.763
56706W        W29032  37.019  23.591   3.322
56707W        W29033  23.533  36.076   2.895
56708W        W29034  35.044   0.841  10.925
56709W        W29035   1.384   8.783  10.081
56710W        W29036  43.791  10.807   0.244
56711W        W29037  40.447  13.718  12.061
56712W        W29038   8.237   0.882   3.268
56713W        W29039  16.724  25.496   1.879
56714W        W29040  24.033  38.026  14.412
56715W        W29041  29.132  20.701  13.832
56716W        W29042  26.647  37.996  12.545
56717W        W29043  31.060  40.844  11.468
56718W        W29044  30.028  29.106  10.488
56719W        W29045  17.671  23.674   4.249
56720W        W29046   5.307  40.829  12.010
56721W        W29047  40.872  38.055   1.250
56722W        W29048  12.348   7.909  12.074
56723W        W29049  32.069  19.667  10.633
56724W        W29050  11.316  35.598  11.054
56725W        W29051   1.450  35.415  11.515
56726W        W29052  33.432  27.985   1.855
56727W        W29053  18.657  33.018  11.534
56728W        W29054  44.301   7.695  14.351
56729W        W29055  11.646  23.012   4.698
56730W        W29056   2.293  38.826  10.633
56731W        W29057  19.672   9.288   4.747
56732W        W29058  44.267  24.707  12.041
56733W        W29059  40.798  30.965   3.871
56734W        W29060  25.151   3.308   5.126
56735W        W29061  15.166  42.788  11.902
56736W        W29062   2.319   7.403  12.523
56737W        W29063  36.027  43.330  13.863
56738W        W29064  30.951  34.939   0.305
56739W        W29065  44.362   1.287  12.965
56740W        W29066  39.497  22.019  13.502
56741W        W29067  41.477  17.666  10.524
56742W        W29068  16.733  26.161  14.413
56743W        W29069  40.373  40.052  11.054
56744W        W29070  19.126  25.158  10.557
56745W        W29071  38.454   0.748  13.403
56746W        W29072   4.740  40.831   0.946
56747W        W29073   7.730  17.178   4.133
56748W        W29074  14.590   5.773  12.071
56749W        W29075  33.072  16.713  13.458
56750W        W29076  14.672  18.286   4.306
56751W        W29077   4.308  19.691   3.217
56752W        W29078  29.989  38.992  10.518
56753W        W29079  33.059  25.208   2.304
56754W        W29080  22.635  16.764  13.377
56755W        W29081   8.294  44.807   2.894
56756W        W29082  25.012  22.523   0.366
56757W        W29083   3.806  13.159  11.386
56758W        W29084   1.868  33.611  13.878
56759W        W29085   1.790   9.289   4.818
56760W        W29086   5.362  30.116  14.784
56761W        W29087  12.148   9.692  11.562
56762W        W29088  16.714  16.072  11.387
56763W        W29089  26.978  41.839  13.842
56764W        W29090  37.864  11.174  13.843
56765W        W29091   7.334  22.016   2.269
56766W        W29092   7.779   5.735  11.985
56767W        W29093   4.227  10.766   2.365
56768W        W29094  30.992   6.283  10.433
56769W        W29095  32.117  17.098  14.283
56770W        W29096  16.682  31.021   2.675
56771W        W29097  10.314  32.111  14.361
56772W        W29098   0.911  10.784  10.951
56773W        W29099  16.299  13.230  13.975
56774W        W29100  21.044  39.948  14.431
56775W        W29101   1.249  12.632   2.186
56776W        W29102  33.092  22.031  14.844
56777W        W29103   1.291  42.499   3.303
56778W        W29104  24.606  18.675   1.431
56779W        W29105  38.850  27.194   4.789
56780W        W29106   1.477   7.780   2.201
56781W        W29107   5.260  32.397  12.487
56782W        W29108  25.032  14.308   1.284
56783W        W29109  33.911   3.836   2.701
56784W        W29110  42.904   7.677  12.994
56785W        W29111  31.048  30.023   0.946
56786W        W29112  35.105  35.440   9.989
56787W        W29113   3.455  31.096  10.918
56788W        W29114  41.977  35.919  13.484
56789W        W29115  23.079   3.950  14.437
56790W        W29116  41.472  40.988   2.310
56791W        W29117  31.432  41.386  11.441
56792W        W29118  14.282  32.551  10.575
56793W        W29119  13.822   0.828   1.777
56794W        W29120  13.311  31.909  13.023
56795W        W29121  38.371  29.063  13.817
56796W        W29122   8.881   6.370  12.403
56797W        W29123  34.998   6.732  12.078
56798W        W29124  12.710  33.405   3.695
56799W        W29125   4.841  35.421   4.789
56800W        W29126  22.067   9.829  14.469
56801W        W29127  12.231   0.397   3.825
56802W        W29128  37.852  15.614  14.342
56803W        W29129  18.183   7.205  12.826
56804W        W29130  22.691  31.939  13.491
56805W        W29131   1.365  10.349   2.402
56806W        W29132   0.977  42.519  13.990
56807W        W29133  37.390   1.799   3.753
56808W        W29134  17.233  37.347  12.021
56809W        W29135  21.158   2.437   4.354
56810W        W29136  16.218  44.474   4.164
56811W        W29137  39.013  39.317   4.229
56812W        W29138  44.817  21.725   1.705
56813W        W29139  40.044  27.042  12.477
56814W        W29140  10.699  35.969   2.393
56815W        W29141  15.286  10.226   2.338
56816W        W29142  12.694   0.873  13.506
56817W        W29143  39.921   2.887  14.903
56818W        W29144  36.358  29.065  14.835
56819W        W29145  14.810  30.492  14.298
56820W        W29146  16.099   2.445   3.783
56821W        W29147  44.773  25.160   2.236
56822W        W29148  24.033  25.132  10.642
56823W        W29149  13.231   0.402   4.721
56824W        W29150  20.620  32.040   1.431
56825W        W29151  40.975  32.519   4.228
56826W        W29152  13.835  12.685   4.192
56827W        W29153  20.253  20.030  13.003
56828W        W29154  20.145  33.013  13.307
56829W        W29155  36.464   8.774  14.884
56830W        W29156  11.765   5.717  13.866
56831W        W29157  40.308   3.861  11.581
56832W        W29158   8.848   7.296  11.082
56833W        W29159  37.990  38.520  10.521
56834W        W29160   5.386  40.940   2.182
56835W        W29161   5.807  13.271  14.509
56836W        W29162  29.993  22.012   4.290
56837W        W29163   0.782  18.771  10.558
56838W        W29164  19.251   4.317  14.880
56839W        W29165  38.018   5.212  11.088
56840W        W29166  29.098   5.337  10.511
56841W        W29167  35.459  26.655   0.819
56842W        W29168   7.857  27.491   0.454
56843W        W29169  32.957  41.981   2.896
56844W        W29170  21.742  31.989   1.237
56845W        W29171  28.179  16.136   0.313
56846W        W29172  29.653  14.196  12.453
56847W        W29173  35.439  23.573  11.938
56848W        W29174  41.375  37.040   4.671
56849W        W29175  44.345  11.359  10.072
56850W        W29176  22.052  39.339  14.946
56851W        W29177   7.711  18.672  12.007
56852W        W29178  22.684  11.845  14.978
56853W        W29179   3.387  20.044   1.730
56854W        W29180   4.939   9.838  12.420
56855W        W29181  35.923  11.814   1.419
56856W        W29182  28.002  25.040  12.926
56857W        W29183  10.834  30.033  13.404
56858W        W29184  12.739  33.498   2.756
56859W        W29185   9.159   1.859  11.004
56860W        W29186   8.234  32.133  12.960
56861W        W29187  14.610   9.203   0.824
56862W        W29188  33.479  13.842  11.416
56863W        W29189  32.996  24.038   4.249
56864W        W29190  36.490  22.503  12.533
56865W        W29191  43.472   7.405  13.860
56866W        W29192  10.294  30.472  11.074
56867W        W29193  14.755  16.142   0.381
56868W        W29194  29.154  37.048   1.376
56869W        W29195  40.451   9.765   3.794
56870W        W29196  21.024  42.869  10.991
56871W        W29197  33.106  18.157  11.973
56872W        W29198  34.018  10.366  10.423
56873W        W29199   4.848  16.758   3.771
56874W        W29200   5.215  12.735   0.848
56875W        W29201  17.688  39.440  14.942
56876W        W29202  32.078  34.604   1.709
56877W        W29203   8.691  10.227  14.979
56878W        W29204  12.701  40.468  14.982
56879W        W29205  36.378  25.675  14.843
56880W        W29206  36.505   7.859  12.997
56881W        W29207  23.227   6.716   3.284
56882W        W29208  36.579  23.125  11.593
56883W        W29209  35.537  26.072   1.873
56884W        W29210   7.273  32.605  11.958
56885W        W29211  18.564  15.326   0.271
56886W        W29212  33.056  10.787  14.369
56887W        W29213  41.830  43.421   4.228
56888W        W29214  34.038   6.843   3.209
56889W        W29215  25.480  15.577  10.919
56890W        W29216  37.084  20.125   2.191
56891W        W29217  33.121  10.212  13.924
56892W        W29218  21.726  11.314   4.758
56893W        W29219  39.938  12.183   2.227
56894W        W29220   4.862  38.856   3.268
56895W        W29221  19.230  14.248   4.799
56896W        W29222   2.811  37.410  12.014
56897W        W29223  38.911   1.810   1.754
56898W        W29224   7.761  34.430  10.906
56899W        W29225  39.509  38.345   4.284
56900W        W29226  40.046  14.319   0.801
56901W        W29227  40.929   1.759   1.801
56902W        W29228   4.736  25.049  11.610
56903W        W29229  39.526   1.297  13.513
56904W        W29230  34.450  28.018  13.418
56905W        W29231  20.761  11.190  13.527
56906W        W29232   1.380   0.327  11.043
56907W        W29233  16.300  23.179   4.156
56908W        W29234  10.673   0.965   1.857
56909W        W29235  31.566  44.757  11.387
56910W        W29236  39.000  18.555  10.071
56911W        W29237  26.144  33.931  11.604
56912W        W29238  18.072  41.317  13.848
56913W        W29239  28.051  18.574   5.120
56914W        W29240  23.069  17.585  13.926
56915W        W29241  15.215  34.959  13.868
56916W        W29242  38.982   1.430  13.980
56917W        W29243  34.519  35.506  10.013
56918W        W29244  24.651  40.996   2.819
56919W        W29245  24.479  38.433  11.404
56920W        W29246  12.259  38.394   0.767
56921W        W29247   8.278  16.275  10.550
56922W        W29248  12.721  37.044  12.072
56923W        W29249  15.680  23.584  10.964
56924W        W29250  27.111  14.699   0.891
56925W        W29251   6.407  25.978   0.761
56926W        W29252  25.133  35.511   4.740
56927W        W29253  14.615  19.055  13.917
56928W        W29254   2.459   7.837   3.384
56929W        W29255   2.929  19.765   4.331
56930W        W29256  30.588  42.344   3.216
56931W        W29257  16.758  10.258  12.871
56932W        W29258  11.160  11.850  14.303
56933W        W29259  15.120  33.023   2.698
56934W        W29260  16.712   2.275   3.206
56935W        W29261  23.546  24.508   4.153
56936W        W29262  12.302  38.902  12.457
56937W        W29263   6.312  30.945  12.506
56938W        W29264  23.605  11.290  14.893
56939W        W29265  38.465  43.011   1.271
56940W        W29266  43.989  23.599   2.297
56941W        W29267   7.743  13.727  13.312
56942W        W29268  13.269  19.181  14.420
56943W        W29269  39.559  35.976   2.724
56944W        W29270  43.419  44.266  13.847
56945W        W29271  40.857  13.697   3.365
56946W        W29272   1.804   0.383   2.747
56947W        W29273   1.319   4.356   5.581
56948W        W29274  22.660  21.157  11.612
56949W        W29275  13.606  37.397   0.383
56950W        W29276  12.772   9.806  12.047
56951W        W29277  27.970  14.784   0.321
56952W        W29278   9.265  33.516   3.845
56953W        W29279  32.611  15.721  13.847
56954W        W29280  41.383  38.486   4.354
56955W        W29281   0.483   3.903   1.890
56956W        W29282  42.829  34.390  14.850
56957W        W29283  42.787  31.901  14.389
56958W        W29284  16.643  30.652   1.706
56959W        W29285   4.430  41.830  13.433
56960W        W29286  31.937  40.374   2.848
56961W        W29287  17.767  11.217  11.996
56962W        W29288  16.568   2.786  10.552
56963W        W29289  11.297  32.907   4.140
56964W        W29290   3.256  18.206   1.277
56965W        W29291   2.793   3.225  13.479
56966W        W29292  28.510  35.417   2.812
56967W        W29293  44.425   1.359  13.406
56968W        W29294  30.514  26.657   1.337
56969W        W29295  19.082  41.469  14.019
56970W        W29296   2.913  25.531  14.493
56971W        W29297  10.728  14.273  11.485
56972W        W29298   8.723  44.435  12.009
56973W        W29299  23.117  13.712   3.769
56974W        W29300   0.375  36.937   4.157
56975W        W29301  25.606  36.850   0.335
56976W        W29302  25.518  22.576   4.319
56977W        W29303  13.762  15.726   2.692
56978W        W29304  32.947   7.241   2.715
56979W        W29305  12.152  44.278   3.278
56980W        W29306  30.907  43.899   3.326
56981W        W29307   5.197   4.242  12.357
56982W        W29308  19.109  27.467   1.706
56983W        W29309  26.178  10.303  11.570
56984W        W29310  34.020   4.241   3.165
56985W        W29311  21.151  38.933   0.893
56986W        W29312  30.093  44.322   2.808
56987W        W29313   6.306  10.146   5.309
56988W        W29314  11.724  30.957  11.885
56989W        W29315  32.920  42.444   3.673
56990W        W29316  27.159   4.773   0.243
56991W        W29317  26.653  17.720  10.960
56992W        W29318  18.636  28.578   0.940
56993W        W29319  23.539  32.088   1.236
56994W        W29320  38.035  19.553  13.316
56995W        W29321  31.013   0.258  11.396
56996W        W29322  40.394   2.402   2.395
56997W        W29323  25.967  10.174   3.289
56998W        W29324  42.403  35.483   2.901
56999W        W29325  23.718   3.284  13.915
57000W        W29326  33.400   1.960   2.768
57001W        W29327  27.160  43.782   0.305
57002W        W29328  21.655  37.830   3.681
57003W        W29329  18.679  13.205   2.263
57004W        W29330  17.626   7.792  13.891
57005W        W29331  44.849  34.413  14.281
57006W        W29332  38.991  17.605   2.823
57007W        W29333  41.882  40.976  12.962
57008W        W29334  22.669  25.007  14.946
57009W        W29335   2.841   0.303   3.180
57010W        W29336   7.334  36.519  13.799
57011W        W29337  14.588  39.933  14.423
57012W        W29338   0.829  35.051   1.224
57013W        W29339  12.852  36.842  14.295
57014W        W29340  22.206  13.616  14.951
57015W        W29341  28.595   7.753  13.865
57016W        W29342   8.836   4.832  11.915
57017W        W29343  39.828  34.994  10.570
57018W        W29344  31.558  28.443  10.623
57019W        W29345  19.647  34.387  12.502
57020W        W29346  10.833   5.856   3.725
57021W        W29347   7.730  42.898  10.608
57022W        W29348  44.494  24.040  12.352
57023W        W29349  15.584  39.989  13.541
57024W        W29350  43.966  17.578  12.531
57025W        W29351   5.287  29.960  12.479
57026W        W29352  29.467   0.745   2.232
57027W        W29353  43.913  26.029  13.018
57028W        W29354  29.478   9.312  13.807
57029W        W29355  24.589   2.739   3.359
57030W        W29356  32.051  18.207   0.272
57031W        W29357  10.283  30.465   0.908
57032W        W29358   1.467  19.042   2.685
57033W        W29359  32.474  12.669  12.367
57034W        W29360   9.883  40.867  12.448
57035W        W29361  41.420  11.294   4.798
57036W        W29362  17.581  29.649  13.533
57037W        W29363  12.819  39.962  13.482
57038W        W29364  24.657  21.085   1.412
57039W        W29365  11.700   4.758   4.807
57040W        W29366   3.361  39.917   0.878
57041W        W29367  23.184  36.480  13.051
57042W        W29368   3.458  25.665  13.515
57043W        W29369   4.235  10.167  13.949
57044W        W29370  25.676  13.330   3.841
57045W        W29371  44.938  42.801   1.881
57046W        W29372  19.106  11.277   4.232
57047W        W29373   8.795  16.124   4.733
57048W        W29374  31.058  38.855   2.791
57049W        W29375  17.614  26.142   1.786
57050W        W29376  26.087   6.897  13.523
57051W        W29377  42.793  34.022   0.944
57052W        W29378  24.111  16.316  13.867
57053W        W29379  34.956  13.266   1.890
57054W        W29380  37.941  17.780   0.926
57055W        W29381  11.722   7.193  14.813
57056W        W29382  13.322   0.826  13.995
57057W        W29383  30.074  18.055   1.756
57058W        W29384   3.266   0.260  14.395
57059W        W29385  29.008   1.977   2.327
57060W        W29386  34.370  36.495   2.849
57061W        W29387  41.998  17.639   3.164
57062W        W29388  27.578  22.224  14.330
57063W        W29389  29.437  38.331  13.883
57064W        W29390  44.475  29.966   1.260
57065W        W29391  31.061   8.280  14.790
57066W        W29392  27.626  21.263  13.036
57067W        W29393   5.287  40.419  12.353
57068W        W29394  41.859  36.381  10.572
57069W        W29395  18.595   7.376  13.370
57070W        W29396   3.230  21.680   4.742
57071W        W29397  36.515  24.670   0.324
57072W        W29398  21.195  31.492  10.544
57073W        W29399  44.937   1.270   4.615
57074W        W29400  13.703  40.465   3.181
57075W        W29401  44.856   2.380   1.446
57076W        W29402  14.173  27.025  10.443
57077W        W29403  34.935  28.483   3.146
57078W        W29404   4.239  24.058   3.839
57079W        W29405  16.765  32.012   0.755
57080W        W29406   9.749  39.432  12.066
57081W        W29407  36.880  15.103  12.945
57082W        W29408  40.493  17.194   5.247
57083W        W29409   2.236  37.877   1.274
57084W        W29410  36.089  29.481  14.300
57085W        W29411  25.144   3.218   0.958
57086W        W29412  34.885  10.345   4.821
57087W        W29413  14.307  34.484  12.537
57088W        W29414  29.920  27.172   3.767
57089W        W29415  38.424  24.702  12.880
57090W        W29416  19.564  27.043  12.479
57091W        W29417  16.692   3.309  14.286
57092W        W29418  33.927  27.536  14.843
57093W        W29419  22.144  16.207   0.324
57094W        W29420  10.381  44.280   0.368
57095W        W29421  30.036  11.842  13.347
57096W        W29422  37.926  35.568  14.508
57097W        W29423  12.358   0.790   3.831
57098W        W29424  37.515  39.879  13.850
57099W        W29425   2.416  39.889   3.823
57100W        W29426  19.217  23.042  12.375
57101W        W29427  19.242   3.735  11.992
57102W        W29428  43.297  11.703   3.728
57103W        W29429  39.403   8.838   0.871
57104W        W29430   4.433  22.727   4.790
57105W        W29431  30.078  39.934   0.827
57106W        W29432  42.806  34.470  12.403
57107W        W29433  37.367  28.609   0.945
57108W        W29434  21.259   8.715  11.931
57109W        W29435   5.825  22.996   2.861
57110W        W29436  24.536  23.639  12.041
57111W        W29437   6.387  31.970  13.427
57112W        W29438  18.656  11.746  14.461
57113W        W29439  10.673  20.083  13.547
57114W        W29440   6.916   6.255   4.637
57115W        W29441  26.685   3.883   0.259
57116W        W29442   6.188  31.457  12.020
57117W        W29443  37.558  11.342   9.974
57118W        W29444   0.769  31.104   3.354
57119W        W29445  11.295  25.962  12.972
57120W        W29446  13.268  33.996   9.675
57121W        W29447  32.570  35.562  10.983
57122W        W29448  40.002  34.058   3.320
57123W        W29449   4.218  41.390  14.961
57124W        W29450  33.417  10.199  13.931
57125W        W29451   6.697   3.914  13.797
57126W        W29452  26.970  30.472   2.194
57127W        W29453  35.098   3.349   4.786
57128W        W29454  20.255  39.953  14.455
57129W        W29455  16.126  28.965  14.816
57130W        W29456  34.947  15.777   5.136
57131W        W29457  25.126  33.608   0.769
57132W        W29458  27.010  10.193   0.846
57133W        W29459  24.066  31.937  14.760
57134W        W29460  35.094   6.799   4.621
57135W        W29461  28.600  37.349  13.520
57136W        W29462  42.910  18.291  13.913
57137W        W29463   2.885  14.283  13.502
57138W        W29464  27.024  36.454   4.664
57139W        W29465  35.987  38.478   2.263
57140W        W29466  30.148  44.858   4.683
57141W        W29467  21.632  18.672  11.524
57142W        W29468  35.010   8.716   1.308
57143W        W29469  40.017  21.048  14.996
57144W        W29470  27.496  10.664   2.885
57145W        W29471   9.692  36.914   2.865
57146W        W29472  17.771  41.986   0.464
57147W        W29473  10.734   6.759  14.927
57148W        W29474  13.159  26.071  14.941
57149W        W29475  31.907  17.596   3.824
57150W        W29476   0.441  23.588   2.304
57151W        W29477  35.062  26.027  13.944
57152W        W29478  23.995  28.976   0.903
57153W        W29479  28.181  36.558  14.869
57154W        W29480  19.197   8.884   2.396
57155W        W29481  24.026  14.663  10.930
57156W        W29482  14.297  31.038   4.328
57157W        W29483  20.172  41.975  14.499
57158W        W29484   2.359  41.965  13.447
57159W        W29485  17.169  30.544   1.423
57160W        W29486   4.286  18.709   1.739
57161W        W29487  38.506  38.898   4.771
57162W        W29488  22.616  39.334  14.830
57163W        W29489  27.022  44.311  14.285
57164W        W29490  20.738   4.701  13.866
57165W        W29491   0.791  43.978  11.938
57166W        W29492   3.863  25.987  13.874
57167W        W29493  42.868  13.600   4.307
57168W        W29494  23.228  41.969  12.846
57169W        W29495   4.938   4.897  14.776
57170W        W29496  30.930  20.531   0.847
57171W        W29497   4.755  22.088  14.316
57172W        W29498  20.130  32.476  12.413
57173W        W29499  38.966  39.925   1.866
57174W        W29500  23.544  12.173  11.611
57175W        W29501  37.528   9.302  12.372
57176W        W29502  12.267  10.703  12.567
57177W        W29503  14.824  11.372   0.340
57178W        W29504   5.392  43.904   0.776
57179W        W29505  22.563   2.470   2.890
57180W        W29506  15.691   7.897   2.313
57181W        W29507  33.530  22.043  14.445
57182W        W29508  32.100  41.474   2.315
57183W        W29509   1.782  13.835  10.568
57184W        W29510  30.461  15.103   0.292
57185W        W29511  37.521  21.709  10.617
57186W        W29512  18.137  10.354   0.431
57187W        W29513  10.171  10.375   3.270
57188W        W29514  14.203   8.192   4.672
57189W        W29515  27.109  32.943   4.725
57190W        W29516  31.440   6.329   4.350
57191W        W29517  23.540  17.694  11.081
57192W        W29518  25.183   9.751  12.429
57193W        W29519   1.355  40.479  14.305
57194W        W29520  28.955   0.912  14.999
57195W        W29521   6.790  29.101   1.729
57196W        W29522  20.124  37.929   2.903
57197W        W29523  44.321   9.237   0.297
57198W        W29524  29.668   5.772   2.390
57199W        W29525  19.549   4.909   1.447
57200W        W29526  44.313  22.062  13.871
57201W        W29527  44.469   4.342  13.467
57202W        W29528  26.625  35.082   3.348
57203W        W29529  21.568  40.487  10.988
57204W        W29530  21.125  28.994   5.301
57205W        W29531   1.955  39.327   4.706
57206W        W29532  30.531  34.996  12.939
57207W        W29533  23.672  37.940  14.891
57208W        W29534  40.386  27.026  14.326
57209W        W29535  34.052  28.658   2.777
57210W        W29536   1.777  43.504  12.388
57211W        W29537  39.001  43.840   1.370
57212W        W29538  10.285  34.924   1.268
57213W        W29539  33.942  30.067   0.424
57214W        W29540  12.664  15.727   0.860
57215W        W29541   6.279  27.480   2.401
57216W        W29542  38.031   9.183   4.215
57217W        W29543  17.111  17.108  12.512
57218W        W29544  31.120  15.734  13.427
57219W        W29545  42.784  13.840  14.291
57220W        W29546  35.415  18.784   3.341
57221W        W29547  35.592  33.527  10.934
57222W        W29548  26.614  30.066   2.750
57223W        W29549  18.772   9.874   4.204
57224W        W29550  24.717  26.051   4.672
57225W        W29551  44.948  20.598   1.402
57226W        W29552  17.749  41.930  10.996
57227W        W29553   7.380  27.020  12.079
57228W        W29554  37.532  20.223  13.521
57229W        W29555  11.751  18.776  14.855
57230W        W29556  19.188  33.986   2.209
57231W        W29557  21.088  39.527   2.221
57232W        W29558   4.394   1.807   2.833
57233W        W29559   6.731  28.169   3.766
57234W        W29560  32.546  33.924  14.916
57235W        W29561  11.239  38.357  14.930
57236W        W29562   4.376  21.097   4.282
57237W        W29563  27.597  26.203   3.824
57238W        W29564  17.762   6.739  13.425
57239W        W29565  13.146  36.474   3.776
57240W        W29566  28.539  29.570   2.886
57241W        W29567  15.231  13.797  11.079
57242W        W29568  42.920   1.906   4.740
57243W        W29569  27.656  28.601  10.485
57244W        W29570  11.723   0.401   3.323
57245W        W29571  41.408  43.330   4.195
57246W        W29572  10.694  25.197  10.145
57247W        W29573  44.986  41.438  10.530
57248W        W29574  19.090  43.947  13.903
57249W        W29575  35.528  34.047   3.233
57250W        W29576  12.699  29.116   1.721
57251W        W29577  33.479   7.275  13.396
57252W        W29578  31.045  27.058  12.058
57253W        W29579  43.420  19.210  10.470
57254W        W29580  43.462  17.678   1.842
57255W        W29581   6.387  16.268   4.740
57256W        W29582  16.074  20.759  14.961
57257W        W29583  19.673  26.632  13.332
57258W        W29584  31.924  13.337  12.023
57259W        W29585  36.542   6.413  13.428
57260W        W29586  33.553  29.063  13.043
57261W        W29587  33.097  22.103   1.226
57262W        W29588   6.226  37.385   9.984
57263W        W29589  14.701  39.507   3.722
57264W        W29590  24.501   1.857  10.629
57265W        W29591  20.131   9.683  10.450
57266W        W29592  44.290   8.763  10.574
57267W        W29593   2.894  13.604   2.750
57268W        W29594   9.786  37.552   2.236
57269W        W29595  10.163   7.260  11.088
57270W        W29596   1.789   4.426  14.420
57271W        W29597  28.103  33.519  14.397
57272W        W29598  25.131  13.662  14.872
57273W        W29599  34.909   6.761   4.333
57274W        W29600  37.837  34.475  12.901
57275W        W29601   4.922  23.651   0.743
57276W        W29602  36.402   9.348   4.819
57277W        W29603  14.171  30.501  12.992
57278W        W29604  20.228  18.690   0.826
57279W        W29605  10.663   5.252  13.052
57280W        W29606  35.081   9.857  12.368
57281W        W29607   1.313  37.482  13.791
57282W        W29608  26.590  35.458  13.508
57283W        W29609  42.341  44.806   4.230
57284W        W29610  38.425   0.280  12.972
57285W        W29611   0.759   8.692   0.885
57286W        W29612  41.481   2.456  12.024
57287W        W29613   7.895   5.255   4.157
57288W        W29614   0.345  31.422   2.308
57289W        W29615  43.895  36.573   0.770
57290W        W29616  41.429  30.057   3.190
57291W        W29617  25.482  14.113   1.831
57292W        W29618   6.248  38.929  14.858
57293W        W29619  24.109  35.052   0.840
57294W        W29620   1.475  10.812   9.997
57295W        W29621   6.345  41.534  12.861
57296W        W29622  16.579  11.338  11.395
57297W        W29623  31.545  41.436  10.453
57298W        W29624  38.541  24.696  12.541
57299W        W29625   5.198  26.463  11.018
57300W        W29626  11.347  32.137  11.397
57301W        W29627  20.181  36.935   1.273
57302W        W29628  28.096  20.118  13.915
57303W        W29629  42.459   4.318   1.416
57304W        W29630  29.554  23.027  13.442
57305W        W29631   2.735  40.957   1.389
57306W        W29632   7.670   3.407  14.808
57307W        W29633  18.597  31.982  14.345
57308W        W29634  31.061  44.966  10.488
57309W        W29635  32.998  35.081   2.198
57310W        W29636  36.460  40.031  10.066
57311W        W29637  39.391  17.135   1.761
57312W        W29638   0.754  24.169   4.797
57313W        W29639  41.024  41.496  11.550
57314W        W29640   4.206  41.460  12.966
57315W        W29641   1.881   6.376  14.951
57316W        W29642  12.340  26.132  13.481
57317W        W29643  33.057  23.513   3.720
57318W        W29644   8.871  22.229   2.378
57319W        W29645  41.900  21.731  11.102
57320W        W29646  35.893  32.135   2.395
57321W        W29647   4.902  26.130   1.331
57322W        W29648  12.721   6.236   0.264
57323W        W29649  19.574  14.305  12.995
57324W        W29650  26.138  42.808  13.493
57325W        W29651  25.068  36.565  13.960
57326W        W29652   8.311  15.124   3.751
57327W        W29653  39.477  30.100  12.970
57328W        W29654  35.442  40.824   3.797
57329W        W29655  38.481  24.129   1.348
57330W        W29656   3.788  24.994   3.255
57331W        W29657   6.755  26.563   4.833
57332W        W29658  21.717  24.538   1.770
57333W        W29659  37.871  42.873  10.426
57334W        W29660  13.320  44.405   2.667
57335W        W29661  22.135   4.247  12.921
57336W        W29662  28.958  37.970   3.732
57337W        W29663  17.789   4.762   1.399
57338W        W29664   3.864   8.665   1.714
57339W        W29665  16.800  34.529  10.898
57340W        W29666  43.451  42.418   1.375
57341W        W29667  29.425  44.963  13.415
57342W        W29668  19.595  38.365  12.830
57343W        W29669  43.382  43.861   1.277
57344W        W29670  13.686  26.129   5.184
57345W        W29671  22.711  26.074  13.472
57346W        W29672  28.596  17.219  12.037
57347W        W29673  21.585  16.094   1.333
57348W        W29674  23.009   8.756   0.264
57349W        W29675  35.960  22.105  10.512
57350W        W29676  22.169  42.324   2.387
57351W        W29677  42.497  10.666  11.866
57352W        W29678   0.934  38.844   1.695
57353W        W29679  17.087   1.272  12.840
57354W        W29680  17.231  29.469   1.368
57355W        W29681  30.543  25.986  14.453
57356W        W29682   6.253  35.431  11.582
57357W        W29683  35.422  14.672   4.654
57358W        W29684   2.805  37.479  12.504
57359W        W29685   8.365  44.316  11.051
57360W        W29686  30.066  40.960  12.898
57361W        W29687  19.697   1.365   1.296
57362W        W29688   9.346   5.910  10.920
57363W        W29689  27.503   7.822  13.977
57364W        W29690  21.023  43.414  12.975
57365W        W29691   4.717  34.496  13.863
57366W        W29692  29.932  20.262   0.923
57367W        W29693  36.369  42.513   4.352
57368W        W29694   0.856   6.356   4.146
57369W        W29695   0.894   9.364   2.838
57370W        W29696  35.929  25.669  11.051
57371W        W29697   5.857   7.767   1.258
57372W        W29698  39.832   3.249   3.220
57373W        W29699   1.880   9.697   3.281
57374W        W29700  15.286   3.238   2.902
57375W        W29701   3.857  38.414   1.331
57376W        W29702   6.288  21.254   3.661
57377W        W29703  27.197  37.393   4.667
57378W        W29704  29.659  23.732   2.664
57379W        W29705   4.929   5.356   0.299
57380W        W29706   6.299  12.198   4.695
57381W        W29707   7.713  17.250  10.525
57382W        W29708   2.851  41.980   0.420
57383W        W29709  24.715  33.107   0.736
57384W        W29710   4.764   3.713  10.937
57385W        W29711   3.328  33.620  14.872
57386W        W29712  10.227  40.395   4.698
57387W        W29713   6.209  25.139   3.639
57388W        W29714  28.580   3.717  10.435
57389W        W29715  43.966  20.062   4.634
57390W        W29716  24.644  15.314   3.867
57391W        W29717   3.720  24.684   2.798
57392W        W29718  24.986  25.177  13.511
57393W        W29719  15.693  28.032   4.599
57394W        W29720  37.012   9.206  11.067
57395W        W29721  35.414  10.262  13.977
57396W        W29722  39.827  21.758   3.860
57397W        W29723  24.540  15.617  13.972
57398W        W29724  33.389  19.151  14.424
57399W        W29725  34.921   0.296   1.420
57400W        W29726  13.713  16.159  10.931
57401W        W29727  24.190   2.451   2.884
57402W        W29728  35.596  29.459  12.536
57403W        W29729  35.504  25.624  11.584
57404W        W29730  33.426  23.023   1.351
57405W        W29731   1.282  18.246  12.997
57406W        W29732  38.552  39.843  11.585
57407W        W29733  14.589  24.000   2.745
57408W        W29734  37.886  41.411  12.574
57409W        W29735  42.366  19.241  13.977
57410W        W29736  40.363  39.391  14.982
57411W        W29737  41.826   0.902   1.897
57412W        W29738   5.759   9.315   0.873
57413W        W29739  34.529  39.451  14.894
57414W        W29740   0.302  18.082   3.630
57415W        W29741  37.960  44.913   0.952
57416W        W29742  20.205  22.721  12.926
57417W        W29743  42.440  39.023   1.786
57418W        W29744  31.405  34.008  11.465
57419W        W29745  29.465  23.019  10.505
57420W        W29746  38.020  12.750   4.242
57421W        W29747   0.476  29.491   0.415
57422W        W29748  15.790  16.745   9.991
57423W        W29749  12.262  21.114   1.722
57424W        W29750  33.420  18.208   4.709
57425W        W29751  29.160  24.168  14.366
57426W        W29752   6.801  17.595  14.909
57427W        W29753   0.452   5.893   3.706
57428W        W29754   9.812  42.008  11.410
57429W        W29755  23.506  18.777   2.213
57430W        W29756  43.336   7.789  13.396
57431W        W29757   3.359   0.850   0.790
57432W        W29758  35.935  15.203   2.772
57433W        W29759  27.633  27.115   1.886
57434W        W29760   7.249  35.485  10.510
57435W        W29761  22.529  44.953  10.523
57436W        W29762  24.973  35.425  11.467
57437W        W29763   8.348  36.537  13.450
57438W        W29764  40.813  12.779  13.016
57439W        W29765  17.066  11.860   2.740
57440W        W29766  35.602   4.828   1.757
57441W        W29767  25.196  33.043  13.544
57442W        W29768   8.843   4.205   0.310
57443W        W29769  19.109   3.930  14.487
57444W        W29770   8.337   2.952   4.117
57445W        W29771  31.520   9.767  10.985
57446W        W29772  14.146  26.105   9.990
57447W        W29773  22.138  40.835   0.375
57448W        W29774   6.713  19.189   1.883
57449W        W29775   7.713  11.790   0.815
57450W        W29776  43.951  11.724  10.571
57451W        W29777  20.582  11.681   1.260
57452W        W29778  15.661  21.060   4.702
57453W        W29779  35.999  38.407   1.322
57454W        W29780  21.135  25.709  11.922
57455W        W29781  18.167   5.319  14.842
57456W        W29782  30.161  32.919  14.848
57457W        W29783  30.038  37.518   3.366
57458W        W29784  14.283  21.680   3.234
57459W        W29785   0.313   2.747   1.702
57460W        W29786  23.102  19.065  12.459
57461W        W29787  19.061  23.548  10.940
57462W        W29788  37.876  35.442  12.076
57463W        W29789   0.869  22.619   5.292
57464W        W29790  22.735  16.714   5.110
57465W        W29791  38.902  33.029   4.823
57466W        W29792  18.620   6.731   2.228
57467W        W29793   3.377  20.143   1.345
57468W        W29794   7.722  25.474  11.017
57469W        W29795  43.805  24.206  12.957
57470W        W29796  22.666  41.845   0.804
57471W        W29797  23.710  27.567   1.230
57472W        W29798   6.886  29.538  13.494
57473W        W29799  42.971  23.552  11.914
57474W        W29800  40.042   6.882   4.151
57475W        W29801   9.179  10.356   0.316
57476W        W29802   9.172  37.943   4.214
57477W        W29803  24.656  10.338  11.990
57478W        W29804  16.614  16.302  10.476
57479W        W29805  26.535   7.247  10.503
57480W        W29806  27.645   2.913   4.236
57481W        W29807  26.020  16.693  10.905
57482W        W29808  21.031  27.466  11.478
57483W        W29809   9.806  25.529   0.263
57484W        W29810   3.907  19.623  11.026
57485W        W29811  19.683  11.320  12.404
57486W        W29812  38.388   0.806  11.024
57487W        W29813  30.432  23.211   2.308
57488W        W29814  29.434  33.983   0.800
57489W        W29815  24.223  32.585  14.361
57490W        W29816  41.833  13.833   2.889
57491W        W29817  29.171  15.286  14.466
57492W        W29818  22.680  32.622  12.906
57493W        W29819  28.623  19.268  11.001
57494W        W29820  20.578  39.362  14.030
57495W        W29821  37.024  10.379  13.491
57496W        W29822  27.655  21.657   0.331
57497W        W29823  11.337  13.639   1.343
57498W        W29824  37.574  32.091   0.961
57499W        W29825  38.869  21.676   1.833
57500W        W29826  34.568  11.785  12.039
57501W        W29827  23.233  12.344  12.995
57502W        W29828   4.417  39.320   3.784
57503W        W29829  25.603  20.591  14.975
57504W        W29830  26.149  15.108   0.390
57505W        W29831  15.706  42.859  12.861
57506W        W29832  14.109  24.647  13.793
57507W        W29833  11.809  40.916   0.762
57508W        W29834  42.807  35.386  10.569
57509W        W29835   0.385  10.689   1.860
57510W        W29836  24.147  38.346   0.747
57511W        W29837  18.289   9.758  12.435
57512W        W29838  11.652  29.431  12.054
57513W        W29839  12.326   9.711   4.213
57514W        W29840  15.093  19.725   3.746
57515W        W29841   4.886  26.076   2.819
57516W        W29842  21.573   5.379   3.824
57517W        W29843   4.240   6.701   2.784
57518W        W29844  35.519   3.461  14.341
57519W        W29845   4.232   2.279  12.900
57520W        W29846  41.916  32.623  12.525
57521W        W29847   8.708   4.436  12.050
57522W        W29848  43.435  30.565  13.882
57523W        W29849  18.551  29.090   2.185
57524W        W29850  18.748  43.464  13.927
57525W        W29851  34.431  20.651   3.375
57526W        W29852  20.233  27.191  14.474
57527W        W29853   7.359  10.272   3.714
57528W        W29854   4.311   8.805  14.975
57529W        W29855   9.660   2.767   3.275
57530W        W29856  42.033  27.550   4.241
57531W        W29857  17.276  17.582  14.411
57532W        W29858  31.148   9.828   0.842
57533W        W29859  44.860  37.863  13.023
57534W        W29860  34.047  29.167   1.444
57535W        W29861  42.353  15.645  14.471
57536W        W29862   4.780  39.536   0.842
57537W        W29863  25.589  20.269   3.661
57538W        W29864  22.194   7.822  11.577
57539W        W29865  21.658  31.410   4.643
57540W        W29866  41.934  34.107  14.808
57541W        W29867  39.424  39.323  12.990
57542W        W29868  11.758  23.735  12.825
57543W        W29869  32.567  36.960  13.497
57544W        W29870  28.132  23.586  12.063
57545W        W29871  43.796  12.155   4.214
57546W        W29872  21.540   8.677   0.299
57547W        W29873  36.487   9.878  13.502
57548W        W29874  24.640   4.713  10.432
57549W        W29875  16.252   6.840  12.419
57550W        W29876  25.028  31.432   3.846
57551W        W29877   9.304  27.525   1.242
57552W        W29878  29.591   2.345   3.322
57553W        W29879  40.305  14.292  11.093
57554W        W29880  17.595  27.093   3.679
57555W        W29881  34.027  12.338   0.830
57556W        W29882  24.105  38.011  13.831
57557W        W29883   2.378   7.302   2.698
57558W        W29884  38.442  32.984   1.248
57559W        W29885  44.902  23.048   2.714
57560W        W29886   8.312  10.384   4.120
57561W        W29887  10.787  38.071   1.337
57562W        W29888  17.304   2.814  10.405
57563W        W29889  19.172   2.313   4.179
57564W        W29890  28.174   2.907   0.791
57565W        W29891  31.950  44.893   0.307
57566W        W29892  33.962   8.350   2.810
57567W        W29893  33.893  16.641  11.406
57568W        W29894   0.337  23.127   2.902
57569W        W29895  36.444  43.426  11.909
57570W        W29896  26.054  15.173   5.214
57571W        W29897  43.300  30.075  14.426
57572W        W29898  24.511   3.253  12.358
57573W        W29899   4.744   7.242   0.842
57574W        W29900  33.553  25.527  11.547
57575W        W29901  21.176  30.082   3.249
57576W        W29902  21.583  44.441  12.349
57577W        W29903   6.766  12.257   4.261
57578W        W29904   2.741   8.835   0.413
57579W        W29905  34.395  11.662   2.412
57580W        W29906   5.199   5.324  12.553
57581W        W29907  13.657  42.985   3.862
57582W        W29908  38.045  25.535  14.826
57583W        W29909  26.132  40.980  10.578
57584W        W29910  43.814  37.031  11.106
57585W        W29911  20.209  25.968   1.825
57586W        W29912  40.306  16.774   3.749
57587W        W29913  21.543  23.729  11.568
57588W        W29914  13.710  25.996  14.463
57589W        W29915  36.097   1.277   3.796
57590W        W29916  31.537   3.852  12.893
57591W        W29917   7.410  23.632  13.459
57592W        W29918  22.232  24.196  14.763
57593W        W29919   6.311  42.400  12.937
57594W        W29920  33.052  13.317   0.472
57595W        W29921  41.977  25.019  10.625
57596W        W29922  28.591  11.847  11.609
57597W        W29923   8.273   8.345  11.930
57598W        W29924   6.886  37.064  13.995
57599W        W29925  29.001   3.780   0.911
57600W        W29926  22.518  19.083   2.748
57601W        W29927   2.875  32.591  13.982
57602W        W29928  35.967  33.962   2.743
57603W        W29929  14.782   7.900  12.089
57604W        W29930   0.251  19.599   4.256
57605W        W29931  12.680  21.604  10.573
57606W        W29932  37.072  38.941   9.980
57607W        W29933   8.694  34.864   1.333
57608W        W29934  32.598   1.312  11.547
57609W        W29935   9.326  18.241  11.519
57610W        W29936   1.433  19.622   2.334
57611W        W29937  16.701  25.519  10.575
57612W        W29938  11.249   9.308  11.031
57613W        W29939  12.697  33.104  10.123
57614W        W29940  13.800   2.740  11.065
57615W        W29941  25.680  41.381   1.847
57616W        W29942  26.066   5.785  13.323
57617W        W29943  31.000  15.091   3.651
57618W        W29944  34.028   0.911  11.515
57619W        W29945  17.089  37.854   1.695
57620W        W29946  19.236   3.770  11.025
57621W        W29947   5.349   8.698   3.165
57622W        W29948   2.727  26.089  14.977
57623W        W29949  40.030  26.548  12.885
57624W        W29950  41.911   0.852  11.979
57625W        W29951  16.796   9.162   1.901
57626W        W29952   9.792   7.246   2.793
57627W        W29953  42.407  37.024  13.952
57628W        W29954  15.105  19.236  13.480
57629W        W29955  25.091   5.907   1.904
57630W        W29956   9.647   7.341  11.001
57631W        W29957  37.962  34.894  14.412
57632W        W29958  25.624  18.099  10.501
57633W        W29959  30.111  37.011  12.525
57634W        W29960  25.554  17.767   3.681
57635W        W29961   1.909  11.288  12.943
57636W        W29962   3.897   1.403   0.280
57637W        W29963  20.234  39.361   4.258
57638W        W29964  39.560  32.459   2.400
57639W        W29965   1.247  19.572   0.271
57640W        W29966  29.024  39.439  11.545
57641W        W29967  25.583  34.476   3.221
57642W        W29968  11.804   6.260   2.834
57643W        W29969  41.407  11.182   4.141
57644W        W29970  38.941   0.290   2.889
57645W        W29971   2.961  37.869  12.363
57646W        W29972  22.547  37.079  13.414
57647W        W29973  22.252  14.099  12.095
57648W        W29974  28.621  43.804   0.397
57649W        W29975  30.592  10.693  13.952
57650W        W29976  31.637  24.060  12.021
57651W        W29977  12.837  13.621  13.061
57652W        W29978   3.225   2.375   4.640
57653W        W29979   3.364  26.154   4.253
57654W        W29980  30.426  10.156  14.452
57655W        W29981  11.752  42.848  12.875
57656W        W29982  42.391  35.019  14.330
57657W        W29983   4.918   9.807   4.749
57658W        W29984  41.914  33.503   0.802
57659W        W29985  19.266  20.255   3.686
57660W        W29986   7.872  40.340   2.241
57661W        W29987   6.343  40.535   5.136
57662W        W29988  42.776  13.622  12.091
57663W        W29989  35.976  33.065   3.742
57664W        W29990  21.180   4.808  12.561
57665W        W29991  33.038  27.488  10.407
57666W        W29992  43.314   7.290  12.004
57667W        W29993   5.933  38.932  13.848
57668W        W29994  16.265   8.662  10.902
57669W        W29995  10.873  25.978   0.483
57670W        W29996  39.339  29.448   2.835
57671W        W29997  42.915   9.644  12.023
57672W        W29998  40.412  21.024  11.502
57673W        W29999  23.611  42.472  14.370
57674W        W30000  27.577  38.464  14.822
57675W        W30001  30.938   7.412   5.084
57676W        W30002  44.926  43.288   4.619
57677W        W30003  28.061  23.734  14.515
57678W        W30004   7.833  28.530  14.882
57679W        W30005  31.472  29.963   1.241
57680W        W30006  21.045  39.900  10.912
57681W        W30007  11.796   3.905   3.657
57682W        W30008  31.527  22.231  14.986
57683W        W30009   8.313  11.781   1.804
57684W        W30010  40.394   9.791   3.349
57685W        W30011  13.223   0.948  10.153
57686W        W30012  11.714  29.514  10.570
57687W        W30013  35.945   0.834   2.797
57688W        W30014  14.187  29.103  10.639
57689W        W30015  40.473  24.220   4.196
57690W        W30016   2.854  13.728   0.878
57691W        W30017  23.728   4.401  14.498
57692W        W30018  34.516  33.437   4.155
57693W        W30019  23.575  27.194  14.337
57694W        W30020   1.358  12.195  10.545
57695W        W30021   4.237  12.220   9.609
57696W        W30022  12.289  19.169   4.114
57697W        W30023  43.349  35.930  12.944
57698W        W30024  34.576   6.426  12.345
57699W        W30025   2.391   0.983  12.354
57700W        W30026   7.250  19.114  14.927
57701W        W30027   4.251  32.606  12.053
57702W        W30028  34.911  21.096   1.917
57703W        W30029  39.845  20.760   1.816
57704W        W30030  41.434  39.050   2.179
57705W        W30031   4.237  27.071   4.291
57706W        W30032  28.159  36.897  11.918
57707W        W30033  20.246  44.386   3.260
57708W        W30034  20.570  23.185  14.953
57709W        W30035  37.396   9.804   9.605
57710W        W30036   2.461   7.900   2.304
57711W        W30037  33.906  39.906   4.784
57712W        W30038  21.205   7.877  12.455
57713W        W30039  20.643  21.218  13.962
57714W        W30040  34.472  34.989  14.322
57715W        W30041  38.469  19.165   2.375
57716W        W30042  36.502  44.454  10.143
57717W        W30043  16.584  19.240   3.325
57718W        W30044  31.495   8.257   1.375
57719W        W30045  19.687  32.933   0.462
57720W        W30046  29.981  23.055  11.872
57721W        W30047  27.120   8.270   2.815
57722W        W30048  11.645  21.206   4.749
57723W        W30049   8.232   0.341  13.421
57724W        W30050  32.455  39.374   2.844
57725W        W30051  29.618  18.107   5.248
57726W        W30052  12.320  19.732   5.220
57727W        W30053  41.027  40.995   3.734
57728W        W30054   8.233   4.378  11.477
57729W        W30055   9.814  33.416   4.827
57730W        W30056  14.251  42.357   3.336
57731W        W30057  38.570  17.601  12.071
57732W        W30058   7.788  16.653   1.754
57733W        W30059  11.730   6.772  11.057
57734W        W30060  34.610   5.777   2.814
57735W        W30061  21.127   0.976  12.880
57736W        W30062  34.446  44.464  11.940
57737W        W30063   8.879  35.485  11.922
57738W        W30064  34.595  44.355  14.415
57739W        W30065  13.840  10.695  10.452
57740W        W30066   1.873  22.149  10.074
57741W        W30067  21.610  33.056  12.047
57742W        W30068   3.418   1.879   4.230
57743W        W30069   4.941  37.010  12.408
57744W        W30070  41.993   5.207   1.818
57745W        W30071   5.826   8.676  12.829
57746W        W30072  28.545  25.055   3.812
57747W        W30073  26.683  31.945  13.033
57748W        W30074  41.002  29.951  11.589
57749W        W30075  10.876  39.864  11.529
57750W        W30076  28.580  33.573   0.901
57751W        W30077  22.714   6.779   2.872
57752W        W30078  15.650  14.308  14.881
57753W        W30079  29.081  36.479  13.005
57754W        W30080  38.486  16.737  13.456
57755W        W30081  37.357  18.137  10.464
57756W        W30082  22.131  36.582  11.396
57757W        W30083  33.567  38.914   1.364
57758W        W30084   8.762  31.038   1.410
57759W        W30085   4.428  23.696   0.947
57760W        W30086  31.524  25.514   0.438
57761W        W30087  36.407  27.130   1.262
57762W        W30088  18.087  24.717  14.386
57763W        W30089   5.282   4.701   2.342
57764W        W30090  18.554   8.223   4.633
57765W        W30091   1.360  35.062  14.471
57766W        W30092   7.853  34.969   0.378
57767W        W30093  37.075  32.970   1.879
57768W        W30094  44.462  12.675   1.811
57769W        W30095  20.546  10.320  13.886
57770W        W30096  28.158  28.085   4.708
57771W        W30097   8.708  15.651   0.369
57772W        W30098  31.585  44.965  13.857
57773W        W30099  26.060   5.332  13.445
57774W        W30100  19.260  14.181  14.957
57775W        W30101  25.531  41.379  12.927
57776W        W30102  26.579  38.951   1.379
57777W        W30103  14.329  12.343   3.164
57778W        W30104  36.951  21.587  12.998
57779W        W30105  42.895   8.797   0.311
57780W        W30106  16.650  23.500  12.480
57781W        W30107  37.578  34.398   2.814
57782W        W30108  13.162  36.535  14.463
57783W        W30109  37.517   0.423  14.355
57784W        W30110  28.456  24.704  11.554
57785W        W30111  25.000  31.449   1.291
57786W        W30112   8.803  17.250   1.449
57787W        W30113  20.049  43.841  11.491
57788W        W30114  29.598  19.084  13.310
57789W        W30115  38.898   9.149  12.398
57790W        W30116  28.597  10.287   4.614
57791W        W30117   4.258  40.398  12.486
57792W        W30118  44.996  34.887   4.601
57793W        W30119  12.848  27.514   4.761
57794W        W30120   2.741   3.851   2.708
57795W        W30121  28.650  25.524   5.320
57796W        W30122  39.059  44.826   1.274
57797W        W30123  34.970   0.494  10.504
57798W        W30124  18.072  11.672   0.915
57799W        W30125  12.698  27.547  14.289
57800W        W30126  12.167   6.291  11.901
57801W        W30127  19.203   8.339  13.957
57802W        W30128  44.964   7.709  10.498
57803W        W30129   1.890  16.144   2.829
57804W        W30130  22.024  41.009   2.685
57805W        W30131  18.732  23.697   4.807
57806W        W30132  39.495  39.358   4.598
57807W        W30133  21.750   0.337   0.846
57808W        W30134  20.597  34.503   1.293
57809W        W30135   0.858  44.382   4.771
57810W        W30136   2.387   3.237  10.997
57811W        W30137  15.752   9.647  10.641
57812W        W30138   4.212  27.566  12.075
57813W        W30139   2.768  28.950  14.418
57814W        W30140   9.270  31.418   3.192
57815W        W30141   4.875   3.711   1.853
57816W        W30142  18.118  11.718  11.116
57817W        W30143  18.277  12.197  10.469
57818W        W30144  25.998  12.826  12.488
57819W        W30145   5.917  13.221   1.412
57820W        W30146  24.641  32.943  11.081
57821W        W30147  36.036   4.883  12.378
57822W        W30148   6.745  40.954  12.508
57823W        W30149  41.329  23.503   2.731
57824W        W30150  28.455   2.447   1.285
57825W        W30151  29.506  36.846  11.073
57826W        W30152  41.002   6.778   2.336
57827W        W30153  36.570  32.100   1.435
57828W        W30154   7.702  36.841   4.254
57829W        W30155   6.417  10.718  10.630
57830W        W30156   2.271  16.716  13.863
57831W        W30157  38.465  42.862  12.467
57832W        W30158   7.896  27.546  13.062
57833W        W30159  21.622  44.412  14.401
57834W        W30160  40.920  14.195   3.731
57835W        W30161  14.288  21.653   0.870
57836W        W30162  32.952  15.788   1.227
57837W        W30163  23.539   1.828  12.371
57838W        W30164  37.419  39.047  14.357
57839W        W30165  41.331  36.017  14.767
57840W        W30166  30.455  12.805   2.778
57841W        W30167   6.340  42.783   0.881
57842W        W30168  21.254  24.123   4.623
57843W        W30169  39.033  40.549  13.389
57844W        W30170  44.943  34.499  13.336
57845W        W30171  38.484  40.022  12.408
57846W        W30172   4.245   0.750  13.957
57847W        W30173  21.586  38.943  12.435
57848W        W30174  29.167   2.381   1.807
57849W        W30175  29.050  23.117  12.376
57850W        W30176  16.180  40.925  14.941
57851W        W30177   9.862  22.699   0.311
57852W        W30178  22.038   9.793  13.385
57853W        W30179   1.867  23.668  14.823
57854W        W30180  31.529  32.985   0.304
57855W        W30181  12.767  25.711  10.423
57856W        W30182  20.127  12.124  14.412
57857W        W30183  33.982  13.834  11.530
57858W        W30184  19.115  19.563   1.871
57859W        W30185  20.719  10.257  11.889
57860W        W30186  14.622  24.156   4.120
57861W        W30187  15.170   0.464   2.292
57862W        W30188  39.922  35.589  14.999
57863W        W30189  31.479  23.675   4.655
57864W        W30190  26.557  18.653  14.364
57865W        W30191  19.239  38.364   3.855
57866W        W30192  10.303  34.511   4.711
57867W        W30193  24.713  19.755   4.601
57868W        W30194  25.588  28.457   3.323
57869W        W30195  10.710   7.248  14.867
57870W        W30196  37.926   7.324  13.461
57871W        W30197   8.233  40.961   3.328
57872W        W30198  29.468  28.137  13.384
57873W        W30199  20.667  29.124  11.970
57874W        W30200  22.016  31.585   4.115
57875W        W30201  36.892  24.031   3.680
57876W        W30202  17.568  44.895  12.028
57877W        W30203  10.681  21.595   0.354
57878W        W30204  40.802  41.473   2.902
57879W        W30205  13.665  41.985  11.385
57880W        W30206   0.376   9.324  11.524
57881W        W30207  20.199  13.607  10.608
57882W        W30208  42.302  19.175  11.494
57883W        W30209   9.249  22.021  11.962
57884W        W30210   3.742  21.264   3.378
57885W        W30211  32.123  27.002   0.341
57886W        W30212  12.715  10.744  13.034
57887W        W30213  38.868  22.229   0.287
57888W        W30214  41.516  43.970  10.596
57889W        W30215  16.189  16.298  12.490
57890W        W30216  17.761  23.188  14.870
57891W        W30217  29.088   8.693  14.787
57892W        W30218   2.820  44.314  14.797
57893W        W30219  28.955  36.862   2.805
57894W        W30220   7.277  39.553  14.329
57895W        W30221  32.061  28.590  11.504
57896W        W30222  15.652   0.314  11.097
57897W        W30223  34.951  12.726   9.991
57898W        W30224  36.481  13.302   2.300
57899W        W30225   0.255  33.946  12.978
57900W        W30226  14.301  40.400  13.448
57901W        W30227  28.985  37.504  14.457
57902W        W30228  19.605  33.392  10.511
57903W        W30229  23.984  40.887  14.978
57904W        W30230  19.095  24.698  14.325
57905W        W30231  40.042   6.763   3.354
57906W        W30232  29.434  27.665  10.918
57907W        W30233  37.481   8.735  13.370
57908W        W30234  39.022  43.504  10.531
57909W        W30235   7.823   9.700   1.705
57910W        W30236  36.037  30.054  13.430
57911W        W30237  20.572  30.450   3.231
57912W        W30238  38.523  39.956  14.847
57913W        W30239  13.807  20.200  14.491
57914W        W30240   6.827   0.912  13.004
57915W        W30241  23.173  36.535   3.813
57916W        W30242  22.521  14.226  11.052
57917W        W30243  30.617  29.150   4.624
57918W        W30244  15.138  26.144  11.608
57919W        W30245   1.278  29.959  14.026
57920W        W30246  14.650   7.808  10.944
57921W        W30247  33.939   0.957  12.530
57922W        W30248   6.305   5.877  13.992
57923W        W30249  29.534  42.944   1.733
57924W        W30250   0.747  16.810   2.204
57925W        W30251  21.619  15.700   1.386
57926W        W30252  15.181   2.245  10.900
57927W        W30253  10.680  13.116  14.965
57928W        W30254   1.286   3.756  12.372
57929W        W30255  15.685   0.371  13.476
57930W        W30256   6.375  18.668   4.720
57931W        W30257  41.316  30.648  14.331
57932W        W30258   4.398   3.280   2.825
57933W        W30259  38.557  32.417  14.874
57934W        W30260  12.169   4.813  13.335
57935W        W30261  22.039  41.315   1.315
57936W        W30262  12.774  38.065  13.882
57937W        W30263  22.068  40.014  14.896
57938W        W30264   2.405  14.731  10.448
57939W        W30265  10.281  34.483  11.594
57940W        W30266   8.877  27.060  14.385
57941W        W30267   9.324  39.430  14.927
57942W        W30268  28.526  27.015  14.792
57943W        W30269  18.596  35.030   1.246
57944W        W30270  40.032  42.018   2.882
57945W        W30271   0.774  11.221  14.762
57946W        W30272  24.651  21.207   3.345
57947W        W30273  18.740  17.605  12.947
57948W        W30274  13.196  10.223  10.156
57949W        W30275  14.327  22.096   2.258
57950W        W30276   4.805  36.855   0.351
57951W        W30277  25.182  17.121  13.855
57952W        W30278  10.352  30.111   2.351
57953W        W30279  29.428  24.134   4.617
57954W        W30280   5.861  31.148  11.003
57955W        W30281  14.277  30.059  14.880
57956W        W30282  13.688  26.540   9.996
57957W        W30283  11.794  10.803  14.967
57958W        W30284   6.789  28.534  10.913
57959W        W30285  32.886  13.184   0.892
57960W        W30286  23.573  10.351   2.885
57961W        W30287  36.054  26.142   0.732
57962W        W30288   2.932   9.737   5.178
57963W        W30289  38.928   9.172   3.164
57964W        W30290  13.707  23.543   2.693
57965W        W30291   6.863  38.399   4.790
57966W        W30292  31.624  38.378   1.798
57967W        W30293  32.903  32.892  11.496
57968W        W30294  25.493   9.665   2.673
57969W        W30295   0.301  43.504  12.549
57970W        W30296   7.686  41.378  13.310
57971W        W30297  26.532  23.704   3.359
57972W        W30298  31.624  37.976  12.976
57973W        W30299  42.971  23.054  14.374
57974W        W30300   8.754   7.286   1.914
57975W        W30301   6.819  22.166   1.335
57976W        W30302  17.204  19.131  13.860
57977W        W30303  43.352  34.449   2.302
57978W        W30304  32.515  40.915   0.404
57979W        W30305   4.763  15.711   4.328
57980W        W30306  32.901  26.637   4.349
57981W        W30307  29.930  33.435  13.369
57982W        W30308  38.520   0.367   3.867
57983W        W30309  19.161  10.232   2.866
57984W        W30310  21.748   1.944   3.253
57985W        W30311  41.795  19.732   0.340
57986W        W30312   0.354  14.783  13.519
57987W        W30313  43.886  43.941   4.284
57988W        W30314  40.828  17.575  14.382
57989W        W30315  26.536  36.579  10.934
57990W        W30316  11.139  18.707  11.897
57991W        W30317   1.406   9.195   0.894
57992W        W30318  39.989  41.911  14.897
57993W        W30319  25.078  42.460  14.458
57994W        W30320  32.001  14.658   3.657
57995W        W30321  14.312  31.506  12.397
57996W        W30322   1.244  31.514  12.519
57997W        W30323  38.428  15.199   1.423
57998W        W30324   0.767  20.165   0.477
57999W        W30325  44.984  17.090   4.688
58000W        W30326  38.934  29.639   0.793
58001W        W30327  16.185  31.521  11.967
58002W        W30328  26.171  11.850  12.931
58003W        W30329   8.665  23.066  14.291
58004W        W30330  35.985  39.006   2.856
58005W        W30331  13.300   4.740  10.513
58006W        W30332   1.398  12.662   0.276
58007W        W30333  38.014  43.988   3.726
58008W        W30334   5.807  15.802  14.961
58009W        W30335  30.479  31.964  12.834
58010W        W30336  20.665   7.905   4.651
58011W        W30337  21.728  34.878  12.403
58012W        W30338   7.822  26.498   3.262
58013W        W30339  40.828   3.233  10.634
58014W        W30340  32.419  23.104   1.403
58015W        W30341  24.533   6.345   0.265
58016W        W30342  13.818  18.582   2.679
58017W        W30343  40.431   1.940   0.960
58018W        W30344  15.191  30.962   3.771
58019W        W30345   0.369   6.841   1.723
58020W        W30346  33.492  28.176   4.126
58021W        W30347  11.798  36.873   2.850
58022W        W30348  16.804   8.297   4.198
58023W        W30349  17.787   2.324  13.034
58024W        W30350  29.534  11.743  14.280
58025W        W30351   1.872   8.288   2.195
58026W        W30352   4.402  23.003   1.411
58027W        W30353   6.219  44.398  13.335
58028W        W30354  17.797  36.037  12.008
58029W        W30355  31.603   4.806  11.527
58030W        W30356   6.699  23.610  14.770
58031W        W30357  25.174   8.884  12.843
58032W        W30358  13.150  41.808   4.791
58033W        W30359  38.977   7.308  13.034
58034W        W30360  41.039   8.218   4.686
58035W        W30361  37.574  37.078   2.776
58036W        W30362  19.748  41.914  12.935
58037W        W30363   5.917  43.969  10.581
58038W        W30364  11.223  43.022   5.205
58039W        W30365  35.586  25.596  14.275
58040W        W30366  35.928  26.635   2.704
58041W        W30367  44.829  34.091  11.867
58042W        W30368  10.868  10.721   1.345
58043W        W30369  35.480  43.410   3.235
58044W        W30370  23.127   1.319  14.005
58045W        W30371   1.852  33.486  10.950
58046W        W30372   2.962  15.318  13.510
58047W        W30373   6.878  13.181  14.438
58048W        W30374  26.208  12.855   1.856
58049W        W30375  42.388   1.370   1.718
58050W        W30376   7.320  37.548  11.562
58051W        W30377  31.096  18.239   4.691
58052W        W30378  36.015  13.694  13.995
58053W        W30379  21.640   0.938  11.592
58054W        W30380  14.789  30.580   5.315
58055W        W30381  32.898  19.074  13.492
58056W        W30382  13.622   1.418   2.282
58057W        W30383   1.777   3.837  10.532
58058W        W30384   4.237  29.072  13.889
58059W        W30385   4.767  43.378   2.780
58060W        W30386  23.494  26.575  10.480
58061W        W30387  23.997  16.201  13.458
58062W        W30388   8.361  40.912   2.255
58063W        W30389   0.268  23.585   4.184
58064W        W30390  30.473  13.751  11.020
58065W        W30391   3.318   3.342  13.428
58066W        W30392  24.529   3.787  14.986
58067W        W30393  35.880  24.995   1.908
58068W        W30394  30.941  27.057   1.381
58069W        W30395  18.211  39.019   4.637
58070W        W30396   0.946  15.261  14.431
58071W        W30397  11.349  17.603  14.957
58072W        W30398   3.934  39.527  14.516
58073W        W30399  16.678  11.806  13.893
58074W        W30400  32.127   9.698   3.865
58075W        W30401  13.326  26.605  14.967
58076W        W30402  26.597   4.443   2.717
58077W        W30403  12.335   0.305  11.104
58078W        W30404   9.859  38.983   1.820
58079W        W30405  30.526  38.509   4.755
58080W        W30406  35.963  41.024  11.046
58081W        W30407  42.309  39.950  12.877
58082W        W30408  41.946  24.995   4.337
58083W        W30409   5.848  18.102  11.859
58084W        W30410  31.084  39.966   0.302
58085W        W30411   4.218   9.839   0.430
58086W        W30412  41.326  28.129  12.954
58087W        W30413  35.976  16.230  10.949
58088W        W30414  11.132  16.804  11.587
58089W        W30415  26.982  28.104   2.266
58090W        W30416  25.685   7.395  13.015
58091W        W30417   3.229  25.673  10.615
58092W        W30418  29.079   2.939  11.089
58093W        W30419   9.381  20.148   1.346
58094W        W30420   4.807  19.650  10.933
58095W        W30421   3.303  43.853  14.809
58096W        W30422  31.115  20.641   2.270
58097W        W30423  22.148  44.330   2.322
58098W        W30424  13.198  19.264   1.804
58099W        W30425  13.790   3.736  11.942
58100W        W30426  31.434  40.343   4.829
58101W        W30427  23.214  23.573  10.426
58102W        W30428  34.573  40.535  14.947
58103W        W30429  24.115  27.942   0.285
58104W        W30430  22.247  10.202   0.424
58105W        W30431  25.207   8.167  14.934
58106W        W30432  13.311  43.807  13.896
58107W        W30433   4.240  12.242  14.387
58108W        W30434  34.588  31.897  12.402
58109W        W30435  19.601  38.929  13.028
58110W        W30436  24.196  17.249  10.567
58111W        W30437  42.477  35.944  12.998
58112W        W30438  42.919  31.926   2.202
58113W        W30439   8.880  26.082   4.597
58114W        W30440  15.727  33.000   3.670
58115W        W30441  31.022  18.101   0.309
58116W        W30442  30.952   0.432   3.384
58117W        W30443  23.064  34.988   1.323
58118W        W30444  35.443  13.645  13.329
58119W        W30445  24.980  34.503   2.352
58120W        W30446  29.480  28.070   2.245
58121W        W30447  43.351  38.498   3.263
58122W        W30448  35.024   7.819  11.901
58123W        W30449  27.089  19.703   0.468
58124W        W30450  29.017  35.430   4.668
58125W        W30451   6.302   5.808   0.326
58126W        W30452  40.810  33.901  11.528
58127W        W30453  30.133  14.787   0.475
58128W        W30454  44.446  21.035   4.730
58129W        W30455  21.179  31.118  11.547
58130W        W30456  38.939  25.572  12.979
58131W        W30457   4.438  38.336   1.340
58132W        W30458   2.824  33.502  10.954
58133W        W30459  36.003   7.905   1.821
58134W        W30460  29.126  22.551  13.868
58135W        W30461   1.910  24.004   3.717
58136W        W30462   2.398  16.090   0.913
58137W        W30463  36.455  44.812   2.321
58138W        W30464  36.994   4.424  14.942
58139W        W30465  25.127  14.767  14.993
58140W        W30466  21.142  25.568   2.247
58141W        W30467  24.688  41.948   2.729
58142W        W30468   5.837  37.569  14.796
58143W        W30469  20.717  24.168  11.514
58144W        W30470  36.362  35.092  12.349
58145W        W30471  34.502  31.001  12.577
58146W        W30472   3.263  30.087  13.912
58147W        W30473   8.770  35.359  14.805
58148W        W30474  35.408  41.976  14.855
58149W        W30475   9.689  36.925   2.192
58150W        W30476  10.186  19.121   0.740
58151W        W30477  13.638  19.699   3.205
58152W        W30478  22.623   3.399  14.863
58153W        W30479  38.347  37.350  10.099
58154W        W30480  25.477  16.219   1.725
58155W        W30481  35.027  22.530   4.769
58156W        W30482  17.192  13.347  13.961
58157W        W30483  22.208  37.501   1.288
58158W        W30484   9.716  12.117  12.489
58159W        W30485  39.913   5.333  12.994
58160W        W30486  31.137  12.216   3.748
58161W        W30487   1.860  12.303  11.489
58162W        W30488  25.592  32.619  14.453
58163W        W30489   8.735  18.641   2.224
58164W        W30490  12.157   5.420  13.894
58165W        W30491   6.695  38.327   3.179
58166W        W30492  38.061  14.679  12.414
58167W        W30493  11.226  14.749  10.583
58168W        W30494  40.454   3.373  10.983
58169W        W30495  30.952  19.151  13.795
58170W        W30496  30.149   6.293  14.286
58171W        W30497  16.672  10.640   0.439
58172W        W30498  44.830  43.854  12.856
58173W        W30499  34.556  14.680   3.174
58174W        W30500  19.121   9.690   1.780
58175W        W30501  29.612  26.147   5.639
58176W        W30502  35.360  22.097  10.571
58177W        W30503  24.038  28.676   3.701
58178W        W30504  11.127   0.403  14.379
58179W        W30505  41.385  39.857   1.820
58180W        W30506  35.432  22.219  11.546
58181W        W30507  10.248  22.650   0.782
58182W        W30508  19.100  10.377  11.577
58183W        W30509   8.406  27.517   1.717
58184W        W30510  17.618  44.297   0.284
58185W        W30511  12.171  41.406  13.061
58186W        W30512  14.119   4.227   4.698
58187W        W30513   0.885  36.898  11.465
58188W        W30514  18.715  17.105  12.051
58189W        W30515   7.802  25.597  12.902
58190W        W30516  41.819  37.963   2.245
58191W        W30517  16.668  36.584   1.733
58192W        W30518   2.921  22.691  14.877
58193W        W30519   3.774   2.429  13.331
58194W        W30520  23.511  20.715   1.230
58195W        W30521  43.939  38.453   2.867
58196W        W30522  44.849  16.706   1.306
58197W        W30523  24.102   7.889   0.287
58198W        W30524  23.067  13.309   0.742
58199W        W30525   0.264  26.686   1.794
58200W        W30526  27.654  18.069  14.983
58201W        W30527   7.847  44.462  12.487
58202W        W30528  42.515  15.225  11.986
58203W        W30529  41.386  39.513   4.245
58204W        W30530   8.848   4.408  12.972
58205W        W30531  34.916   6.793   0.864
58206W        W30532   3.761  14.337   0.473
58207W        W30533  34.064  25.158   3.168
58208W        W30534  23.525  12.825   2.845
58209W        W30535  13.742   6.382   0.367
58210W        W30536  20.053  14.594   3.153
58211W        W30537  24.088  14.649  11.553
58212W        W30538  42.925   2.863   3.632
58213W        W30539   6.786  39.455  10.986
58214W        W30540  31.600  22.584  10.593
58215W        W30541  31.948  42.406   0.338
58216W        W30542  22.739  37.855   3.324
58217W        W30543  32.574  19.601   2.304
58218W        W30544  17.697  24.182   0.284
58219W        W30545  40.897  18.747  13.404
58220W        W30546  27.001  24.074  13.547
58221W        W30547   7.390  42.473   0.428
58222W        W30548  29.174   1.441   4.169
58223W        W30549  38.058  27.482  13.989
58224W        W30550  36.975  44.781   0.749
58225W        W30551  38.827   9.659   0.431
58226W        W30552  12.116  38.548  14.493
58227W        W30553  44.336   9.681  10.938
58228W        W30554  27.185  29.076  12.057
58229W        W30555  15.307   6.758  14.395
58230W        W30556   3.241  10.379   1.297
58231W        W30557  23.683  22.206   3.730
58232W        W30558  13.268  24.636   5.112
58233W        W30559  33.597  43.367  11.506
58234W        W30560  20.542  21.521   1.893
58235W        W30561  30.158  38.890  12.012
58236W        W30562  16.803  28.113   4.349
58237W        W30563  25.565  11.229   4.280
58238W        W30564  19.108  13.740   1.804
58239W        W30565  11.185  37.431   0.914
58240W        W30566   1.758  28.952  10.988
58241W        W30567  10.338  22.653  13.321
58242W        W30568  29.440  37.378  12.935
58243W        W30569  22.669  11.192   2.704
58244W        W30570   5.197  44.410   0.825
58245W        W30571  24.147   7.821   3.630
58246W        W30572   1.274  33.075   0.952
58247W        W30573  16.234  44.973   1.734
58248W        W30574  29.637  32.895   3.866
58249W        W30575  20.542  14.138   4.183
58250W        W30576  37.993  28.051   0.322
58251W        W30577   3.440  13.229  12.544
58252W        W30578  29.089  20.049  12.860
58253W        W30579  35.598  38.379   2.310
58254W        W30580  22.096  14.279  13.828
58255W        W30581   6.735   0.822  14.322
58256W        W30582  16.267   5.782  13.358
58257W        W30583  42.463   9.673  13.538
58258W        W30584  31.606  31.463   0.413
58259W        W30585  11.658   6.406   3.251
58260W        W30586   0.779  41.877  14.844
58261W        W30587  14.181  38.861  14.939
58262W        W30588   8.255  31.631   1.231
58263W        W30589   2.729  22.538   0.465
58264W        W30590  29.578  26.201   3.308
58265W        W30591   5.363  32.445   2.745
58266W        W30592  28.559  18.156   2.312
58267W        W30593  11.291  27.172  12.013
58268W        W30594  13.317  28.089   3.839
58269W        W30595  16.584  19.192   0.327
58270W        W30596   1.368  10.285   1.700
58271W        W30597   9.359  39.883  12.387
58272W        W30598  11.651  44.438   4.713
58273W        W30599  17.574  35.916  14.378
58274W        W30600  44.998  27.095  10.564
58275W        W30601  38.930  42.306  10.418
58276W        W30602  43.846  18.280  11.894
58277W        W30603  16.704  25.159   4.788
58278W        W30604  44.356  27.504   1.291
58279W        W30605   4.877  12.838  10.921
58280W        W30606  12.706  36.355   5.664
58281W        W30607   3.831   5.394   2.886
58282W        W30608   0.930  20.227  11.995
58283W        W30609  25.189  19.138   4.300
58284W        W30610  16.305   3.762  11.438
58285W        W30611  28.603  12.739   4.678
58286W        W30612   5.258   8.186  10.620
58287W        W30613  30.980  36.580  10.619
58288W        W30614  37.578  19.598   2.838
58289W        W30615  18.755  17.120   4.156
58290W        W30616  29.923  12.795   2.298
58291W        W30617  19.547  33.552   0.783
58292W        W30618  38.838  43.020   0.344
58293W        W30619  19.210  44.282   3.175
58294W        W30620  25.644   8.177   1.346
58295W        W30621  31.016   1.421  12.986
58296W        W30622  34.535   4.886  12.941
58297W        W30623  34.467   5.807   3.808
58298W        W30624  22.181  10.314   0.782
58299W        W30625  18.729  17.712   0.256
58300W        W30626   0.415   4.427   4.325
58301W        W30627  21.254  12.758   1.404
58302W        W30628  12.802   5.280   4.354
58303W        W30629  33.882  11.243  12.983
58304W        W30630  43.414  18.065   1.696
58305W        W30631  30.163  41.956  11.091
58306W        W30632   4.362  29.532  10.898
58307W        W30633   8.828  13.646   4.630
58308W        W30634   8.167  24.505   2.855
58309W        W30635  38.364   3.884  14.802
58310W        W30636   6.695  32.444  11.377
58311W        W30637  11.355  33.126  12.464
58312W        W30638  18.166  18.074   2.191
58313W        W30639  13.733   4.431   0.389
58314W        W30640  32.409  13.346  11.526
58315W        W30641  36.564  43.893   4.625
58316W        W30642  28.940  31.052   1.302
58317W        W30643  30.442  42.407  11.436
58318W        W30644  23.197  32.104   2.292
58319W        W30645  11.238  12.787  12.972
58320W        W30646  10.330  27.643   0.387
58321W        W30647  41.469  25.613   0.908
58322W        W30648  44.474  18.711   0.420
58323W        W30649   6.727  22.098  13.043
58324W        W30650  39.917  38.328   3.837
58325W        W30651  34.530  22.023  13.369
58326W        W30652  34.372   3.285   3.360
58327W        W30653  16.689   4.377  14.768
58328W        W30654  18.756   9.874  12.892
58329W        W30655  36.385   5.882   3.724
58330W        W30656  15.117  15.312  13.351
58331W        W30657  41.321  33.592   0.922
58332W        W30658  31.545  18.095  12.549
58333W        W30659  11.351  28.554  12.828
58334W        W30660   0.278  41.309  12.989
58335W        W30661  24.587  39.850   0.881
58336W        W30662  14.204   9.705   1.811
58337W        W30663  20.762   5.274   3.156
58338W        W30664   8.291  26.181  12.448
58339W        W30665  40.924   7.414  14.030
58340W        W30666  31.501  27.124   3.798
58341W        W30667  16.723  12.238   2.355
58342W        W30668   1.326   5.213  12.892
58343W        W30669  16.105  11.810  12.030
58344W        W30670   1.757  29.104   3.331
58345W        W30671  16.128  15.627   1.269
58346W        W30672  27.974  35.479  14.433
58347W        W30673   9.705  35.977   1.322
58348W        W30674  29.509  20.103   0.921
58349W        W30675  42.425  11.740  12.855
58350W        W30676  31.447  43.441  11.412
58351W        W30677  23.659  42.852  12.468
58352W        W30678  44.753  10.671   2.753
58353W        W30679  30.016   2.746   3.331
58354W        W30680   0.952  29.558  11.397
58355W        W30681  23.208  15.648   3.169
58356W        W30682  41.420  30.423  12.906
58357W        W30683  20.129   7.786   1.396
58358W        W30684  10.694   5.763  13.368
58359W        W30685  21.133  35.363   4.242
58360W        W30686   8.289  20.091   4.250
58361W        W30687  43.365  17.114   4.316
58362W        W30688   9.776  28.460  14.306
58363W        W30689  36.494  10.201   2.273
58364W        W30690   3.249  15.115   0.735
58365W        W30691  40.445  32.099   4.174
58366W        W30692   4.841   8.879  13.465
58367W        W30693  38.905  43.403  12.945
58368W        W30694   5.213  37.409  14.320
58369W        W30695   4.737  22.021   2.770
58370W        W30696  17.237  20.109   4.319
58371W        W30697  35.496   2.255   1.850
58372W        W30698  36.385  11.744   1.284
58373W        W30699  30.473  35.976  14.841
58374W        W30700  24.215   0.334   0.327
58375W        W30701  30.577  42.416  14.488
58376W        W30702  13.212  29.036  11.890
58377W        W30703  37.514   9.285  12.969
58378W        W30704  38.941   5.408   4.630
58379W        W30705  39.937  38.404  12.049
58380W        W30706  40.039  21.175  12.877
58381W        W30707   2.307  24.670  11.081
58382W        W30708  25.007   5.827   3.362
58383W        W30709   9.678   8.208  14.410
58384W        W30710  42.789  30.443   2.271
58385W        W30711  16.126  29.012  13.422
58386W        W30712  43.327  16.735   0.360
58387W        W30713  23.169   0.886  10.912
58388W        W30714  27.110   7.906  13.371
58389W        W30715   9.309   7.725  12.487
58390W        W30716  34.043   7.899   2.686
58391W        W30717   3.354  12.336   3.686
58392W        W30718   3.406  10.641  11.065
58393W        W30719  15.273  43.846  14.829
58394W        W30720   0.460  18.180  12.360
58395W        W30721   2.274   6.824   3.357
58396W        W30722  37.337  25.590  14.382
58397W        W30723  28.452   2.743   4.348
58398W        W30724  14.212  21.681  10.897
58399W        W30725   2.965  35.946   0.857
58400W        W30726  14.642  44.465   1.833
58401W        W30727   1.435  29.614  13.411
58402W        W30728  41.402  31.989   0.460
58403W        W30729   2.400  44.964  13.532
58404W        W30730  13.192  29.166  12.544
58405W        W30731  27.102  26.508   2.892
58406W        W30732  25.027  16.790   0.423
58407W        W30733  43.514  42.473  14.360
58408W        W30734  20.688  10.697   2.691
58409W        W30735  15.637   1.904  12.562
58410W        W30736  31.493  14.097  13.063
58411W        W30737  38.429  31.023  14.887
58412W        W30738  36.445  39.034   4.249
58413W        W30739  38.531  18.564  12.022
58414W        W30740  36.359  32.991   3.271
58415W        W30741  24.633  39.815  11.477
58416W        W30742  11.283  23.212   3.369
58417W        W30743  39.014  18.275   1.830
58418W        W30744  31.570   5.241  14.759
58419W        W30745  42.927   9.826  13.934
58420W        W30746  35.426  39.511   2.238
58421W        W30747  37.533  11.730  13.427
58422W        W30748  11.152  32.048   1.724
58423W        W30749  12.169  12.332  13.527
58424W        W30750  19.715  22.647  10.625
58425W        W30751  38.939  22.503   3.227
58426W        W30752  10.247   7.296  10.033
58427W        W30753   5.736   4.832  12.529
58428W        W30754  24.056  32.045  13.475
58429W        W30755  42.490   5.902  10.560
58430W        W30756  11.369  27.158  10.594
58431W        W30757  23.191  23.063   3.288
58432W        W30758  43.764   0.485   1.226
58433W        W30759  36.402  35.088   2.229
58434W        W30760  12.152  37.875  13.333
58435W        W30761  20.254  29.635  11.415
58436W        W30762   9.282   7.300   2.201
58437W        W30763  38.019  16.798  13.890
58438W        W30764   5.845  22.725   2.362
58439W        W30765  24.535  38.022  12.944
58440W        W30766  12.334  37.017   3.859
58441W        W30767   1.425  28.570   0.398
58442W        W30768  13.312  44.270   1.257
58443W        W30769   1.889  14.821   0.955
58444W        W30770   1.804  27.021   3.202
58445W        W30771  43.484  18.705  14.773
58446W        W30772  16.733  43.438  12.945
58447W        W30773  27.477  24.663   1.907
58448W        W30774  43.838  21.260  12.826
58449W        W30775   7.253   2.302  12.341
58450W        W30776  16.093  11.257  11.032
58451W        W30777  17.699  38.531  11.024
58452W        W30778  18.192   2.835   1.889
58453W        W30779  30.090  44.374   2.318
58454W        W30780  22.132  39.524   4.728
58455W        W30781  41.412  27.943   2.297
58456W        W30782   2.728  26.094   2.301
58457W        W30783  42.288  21.712  14.926
58458W        W30784  11.751  21.168  13.465
58459W        W30785  15.329  10.310   4.257
58460W        W30786  13.339  42.802  14.010
58461W        W30787  34.022  31.997  12.066
58462W        W30788   9.312  14.637  11.119
58463W        W30789  15.199  42.932   1.777
58464W        W30790  31.507   4.269   2.183
58465W        W30791  34.885  27.962   5.213
58466W        W30792  39.538   7.836  10.412
58467W        W30793  30.128  25.665   2.203
58468W        W30794  30.021  33.568   1.449
58469W        W30795  21.731  12.266  12.021
58470W        W30796   0.971   3.335   2.832
58471W        W30797  13.247  21.120  11.397
58472W        W30798  41.336  36.506   1.800
58473W        W30799  36.043  38.440   1.715
58474W        W30800  22.678  44.259  12.542
58475W        W30801  12.615   2.274  14.443
58476W        W30802  33.059  29.424  10.912
58477W        W30803  36.851  18.594   1.390
58478W        W30804  33.612  21.671   5.137
58479W        W30805  29.511  15.760  14.863
58480W        W30806  32.954   2.231  13.331
58481W        W30807  14.195  28.437  10.542
58482W        W30808  34.884   2.879   3.724
58483W        W30809  35.362  33.606  14.406
58484W        W30810  33.519  36.067   1.872
58485W        W30811  15.141  25.073   0.841
58486W        W30812  32.603   0.896   2.704
58487W        W30813   9.317  29.583  11.573
58488W        W30814  26.039   7.812   2.409
58489W        W30815  34.575   2.916   0.400
58490W        W30816  42.370  41.414   3.246
58491W        W30817   1.353  17.091   3.187
58492W        W30818   6.220  19.550  12.063
58493W        W30819  20.186  43.371  13.815
58494W        W30820  38.455  18.604   4.131
58495W        W30821   3.761   6.219   3.346
58496W        W30822  30.050   5.375  10.434
58497W        W30823   2.859  27.192  14.839
58498W        W30824  11.156  35.520   0.299
58499W        W30825  15.106  11.251   3.704
58500W        W30826  33.947  18.187   4.264
58501W        W30827  10.285  35.393  14.939
58502W        W30828  31.928  34.922   0.934
58503W        W30829  27.502  30.952   2.806
58504W        W30830  19.060   2.393   2.266
58505W        W30831  14.284   9.366  11.905
58506W        W30832  37.560  42.370   0.391
58507W        W30833  20.561  14.229  14.465
58508W        W30834  13.245  34.069   3.768
58509W        W30835   2.785  20.654  12.965
58510W        W30836  32.620  14.747  12.562
58511W        W30837  29.596  30.083  11.861
58512W        W30838  12.305  28.099  10.131
58513W        W30839  21.707   8.169   4.306
58514W        W30840  10.814  26.595   3.871
58515W        W30841  32.595  20.764  14.314
58516W        W30842  23.518  25.554  13.937
58517W        W30843  26.534  26.128  12.038
58518W        W30844  18.262  28.615  11.079
58519W        W30845  11.324  23.548   0.869
58520W        W30846  42.874  15.183  14.478
58521W        W30847  40.442  26.115   3.788
58522W        W30848  26.476  30.038   0.481
58523W        W30849  16.225  41.802   2.354
58524W        W30850  36.441  35.360   0.410
58525W        W30851  35.576  25.023  10.987
58526W        W30852  34.034  29.471  12.018
58527W        W30853   2.435  36.354   1.838
58528W        W30854  10.783  42.781  11.490
58529W        W30855  32.575  24.590   1.920
58530W        W30856  26.634   2.888   1.328
58531W        W30857  42.349   5.380  14.973
58532W        W30858  37.453  39.818   3.272
58533W        W30859  19.597   0.439  14.821
58534W        W30860   4.758  23.080   3.722
58535W        W30861  12.203  38.025  14.900
58536W        W30862   8.190  13.278  13.435
58537W        W30863   3.799  31.500  13.980
58538W        W30864  27.131  13.263   3.759
58539W        W30865  41.792  15.157   0.931
58540W        W30866  12.808  28.147   9.922
58541W        W30867  16.255  26.554   1.882
58542W        W30868  26.065   8.810   0.918
58543W        W30869   0.372  42.377   3.365
58544W        W30870   2.963  42.980   3.643
58545W        W30871   6.790  32.091  13.843
58546W        W30872  36.986  13.285  13.909
58547W        W30873   2.382   7.337   4.791
58548W        W30874  11.642  43.879  12.906
58549W        W30875  44.829  39.897  14.389
58550W        W30876  24.109  44.306  12.950
58551W        W30877   2.456   9.183  14.916
58552W        W30878  17.077   5.754  10.451
58553W        W30879  43.798  16.729  11.082
58554W        W30880  43.462   8.280   3.783
58555W        W30881  16.252   9.827   2.699
58556W        W30882  32.950  30.078   4.709
58557W        W30883  19.235  27.499  11.539
58558W        W30884   7.278  16.130  11.956
58559W        W30885  10.262  33.955  10.919
58560W        W30886  38.483   8.164   0.377
58561W        W30887  41.406   9.711   0.829
58562W        W30888  30.008  25.034  12.837
58563W        W30889  39.363   4.731  10.905
58564W        W30890   2.293  13.735   3.159
58565W        W30891  23.699  23.552  11.536
58566W        W30892  39.927   0.915  11.917
58567W        W30893  10.800  35.541   4.793
58568W        W30894  36.392  30.587   1.787
58569W        W30895  43.989  37.920  12.993
58570W        W30896  11.143  40.829  12.352
58571W        W30897  28.513  16.195   1.852
58572W        W30898   2.295  34.947  14.481
58573W        W30899  14.319  32.954  13.364
58574W        W30900   1.456  42.776   1.335
58575W        W30901  41.025   6.381   4.761
58576W        W30902  19.105  30.106   0.812
58577W        W30903  11.339  27.682  14.352
58578W        W30904  36.041  22.524  14.924
58579W        W30905  27.578   9.253   4.687
58580W        W30906  18.612  34.593   2.864
58581W        W30907  30.120  27.475  13.884
58582W        W30908  27.030  20.222  12.930
58583W        W30909  26.561   1.905   4.707
58584W        W30910  38.436  18.778   1.899
58585W        W30911  27.065  30.947  13.389
58586W        W30912  25.023  36.982  13.534
58587W        W30913  26.621  18.243  13.508
58588W        W30914  21.202  23.504   2.892
58589W        W30915   8.240  21.045   4.668
58590W        W30916  10.860  35.561  12.489
58591W        W30917  24.148  31.428   4.634
58592W        W30918  13.351  13.152  14.795
58593W        W30919  42.902  10.151   4.742
58594W        W30920   1.417  35.096  13.034
58595W        W30921  17.124  20.689  10.916
58596W        W30922  35.952   8.236  14.286
58597W        W30923  16.114  39.446   3.779
58598W        W30924  27.097   1.948   3.652
58599W        W30925  37.834   1.768   5.213
58600W        W30926   5.224   4.755  11.420
58601W        W30927  13.205  17.099   2.698
58602W        W30928  20.664  34.922  12.027
58603W        W30929  44.954  28.103  13.875
58604W        W30930  14.826  30.071  11.057
58605W        W30931   7.897  31.580   2.783
58606W        W30932   3.329  43.387  14.831
58607W        W30933  22.245   1.862  12.545
58608W        W30934  38.831  28.008   3.177
58609W        W30935   3.812  23.184  14.833
58610W        W30936   9.787   4.928  13.893
58611W        W30937  28.080  14.686  13.404
58612W        W30938  15.271  44.998  14.759
58613W        W30939  28.147  40.996  13.848
58614W        W30940  42.351  31.049   0.267
58615W        W30941  31.476  42.977   3.763
58616W        W30942  30.060  27.596  14.785
58617W        W30943  32.955  27.621   3.236
58618W        W30944  34.520  23.202  11.443
58619W        W30945  19.658  42.914  11.005
58620W        W30946  21.105   6.802  14.828
58621W        W30947  19.275   5.796  12.556
58622W        W30948  35.556  43.393   1.372
58623W        W30949  38.938  13.335   3.740
58624W        W30950  29.529  11.235  12.034
58625W        W30951   1.434  16.780   2.687
58626W        W30952  27.499   3.219  13.833
58627W        W30953  15.290  18.636   2.374
58628W        W30954  18.218  23.025  13.388
58629W        W30955  43.987  18.614  10.426
58630W        W30956  31.435  42.416  14.762
58631W        W30957  14.781  32.899  13.335
58632W        W30958  23.215   6.218   0.440
58633W        W30959  42.969  15.269  13.320
58634W        W30960  11.238  38.459   1.340
58635W        W30961  19.165  41.823   2.239
58636W        W30962  30.953  25.182  14.455
58637W        W30963   0.427   0.286  11.551
58638W        W30964  22.217   7.848  11.896
58639W        W30965  29.664  28.942   9.978
58640W        W30966  42.457  18.220  13.440
58641W        W30967  13.293  14.174   1.279
58642W        W30968   1.261  23.998  11.377
58643W        W30969   3.875  31.579   4.638
58644W        W30970   3.341  35.555   3.705
58645W        W30971  28.063  11.136  11.425
58646W        W30972   8.210  26.645  11.124
58647W        W30973  29.481  10.814   1.766
58648W        W30974  30.497  24.533  11.051
58649W        W30975  12.214  24.482  12.927
58650W        W30976   1.757  17.801   2.872
58651W        W30977  24.114  13.831   3.204
58652W        W30978  19.262   2.225   2.728
58653W        W30979   6.817  34.877  13.415
58654W        W30980  34.977  18.742  13.984
58655W        W30981  15.262   9.288  12.949
58656W        W30982  24.020   7.777   3.331
58657W        W30983  36.962  21.599  12.006
58658W        W30984  33.567  22.101  10.640
58659W        W30985   7.853   3.812  11.521
58660W        W30986  25.578   1.315  14.935
58661W        W30987  37.990  19.135   2.197
58662W        W30988  14.660  19.150   4.235
58663W        W30989  21.691  30.943   3.312
58664W        W30990   3.807  18.716  11.985
58665W        W30991  11.169  37.897   0.347
58666W        W30992  21.216  30.068   0.261
58667W        W30993  19.717  30.013  14.940
58668W        W30994  28.677  35.396  14.986
58669W        W30995   9.771  13.108  13.488
58670W        W30996  34.443   0.404  13.852
58671W        W30997  10.868  38.035  11.548
58672W        W30998  15.699   0.784   4.702
58673W        W30999  32.547  19.256   1.797
58674W        W31000  41.368  32.986  11.495
58675W        W31001  12.767  37.879   4.833
58676W        W31002  34.098  30.638  12.348
58677W        W31003  30.527   2.404  11.452
58678W        W31004  13.210  28.038  13.837
58679W        W31005   4.392  36.423  10.422
58680W        W31006  20.719  14.117  14.031
58681W        W31007  11.255  43.317   0.427
58682W        W31008  26.514  32.985   0.325
58683W        W31009   4.879  16.682   0.887
58684W        W31010  31.439   9.683   1.219
58685W        W31011  34.382   8.735  14.794
58686W        W31012  43.825  12.659  14.929
58687W        W31013   1.480  27.566  13.836
58688W        W31014  40.490   4.917   2.254
58689W        W31015  30.083  15.104  10.979
58690W        W31016  20.076  43.907   4.736
58691W        W31017  15.128  34.553   1.723
58692W        W31018  38.889   0.914   3.859
58693W        W31019   7.871   5.423   2.825
58694W        W31020  42.525  10.219   3.812
58695W        W31021  23.513  40.330  10.947
58696W        W31022  43.852  38.845  14.408
58697W        W31023  19.680  43.422   2.878
58698W        W31024  44.274   0.970  13.982
58699W        W31025  26.065  21.036  12.067
58700W        W31026  31.013  34.411   0.356
58701W        W31027  17.678   6.333   0.460
58702W        W31028   2.336   8.660  12.468
58703W        W31029  19.250  32.999   1.920
58704W        W31030  24.085  12.781   2.886
58705W        W31031   4.320  39.491   1.321
58706W        W31032  11.211  42.027   3.827
58707W        W31033   0.491  27.022   4.257
58708W        W31034  39.463  25.516   1.878
58709W        W31035  22.621  16.094   9.474
58710W        W31036  44.341  24.713   1.849
58711W        W31037  41.845  38.565   1.287
58712W        W31038  39.459  37.931   1.787
58713W        W31039  39.839  16.154  14.932
58714W        W31040  10.795  27.685   2.369
58715W        W31041  42.321  36.399   4.345
58716W        W31042   6.738  27.197   2.409
58717W        W31043  29.518  35.940  13.395
58718W        W31044  30.571  31.900   0.788
58719W        W31045  12.287   8.396   0.845
58720W        W31046   0.367  24.125  10.998
58721W        W31047  13.762  39.517   4.637
58722W        W31048  28.452  30.626  12.495
58723W        W31049   5.863   0.477   4.306
58724W        W31050   6.308  11.790   2.724
58725W        W31051  41.916  28.012  11.572
58726W        W31052  33.539  24.636   3.768
58727W        W31053  10.367  26.015  10.007
58728W        W31054  39.912  25.020  11.860
58729W        W31055   3.873  17.669  12.009
58730W        W31056  10.262   3.410   2.344
58731W        W31057  25.136   4.719  11.120
58732W        W31058  38.900  22.546   3.734
58733W        W31059  31.152  41.883  14.856
58734W        W31060  38.454   7.791  13.860
58735W        W31061   6.757  21.057  11.085
58736W        W31062  25.023  36.968  13.896
58737W        W31063   8.293  30.431  12.541
58738W        W31064  11.158  13.299  13.350
58739W        W31065  33.555  40.523   1.267
58740W        W31066  12.282  20.053   1.394
58741W        W31067  15.188  32.543   2.878
58742W        W31068  29.531  30.424   2.805
58743W        W31069  28.532  22.019  10.496
58744W        W31070   0.757  36.965  13.371
58745W        W31071  34.956  19.605   4.285
58746W        W31072  31.149  33.574   9.951
58747W        W31073  40.925  34.409   2.369
58748W        W31074   5.230   5.726   2.786
58749W        W31075  36.366   3.337  14.835
58750W        W31076  42.836  40.369   0.417
58751W        W31077  38.501   0.366   0.454
58752W        W31078  19.751  12.147  13.320
58753W        W31079   3.298   7.333  14.007
58754W        W31080  25.179  27.098   2.666
58755W        W31081  13.776  40.369  11.603
58756W        W31082  30.440  37.898  13.820
58757W        W31083  17.300  26.101  14.761
58758W        W31084  35.555  28.987  14.447
58759W        W31085   3.784  39.398  11.377
58760W        W31086  41.503  12.332  11.454
58761W        W31087  30.967  19.239   4.833
58762W        W31088  17.568  35.566  13.887
58763W        W31089  36.562   9.731  14.894
58764W        W31090  34.890   0.818   1.282
58765W        W31091   0.463  22.127   1.737
58766W        W31092  41.947  24.030  10.564
58767W        W31093  42.976  17.261   3.246
58768W        W31094   3.803   7.329  10.903
58769W        W31095   1.411  14.133  12.092
58770W        W31096  13.815  19.641   1.735
58771W        W31097   3.813  44.760   2.224
58772W        W31098  39.051  12.851   1.742
58773W        W31099  32.940  37.036   0.275
58774W        W31100   5.774  16.100  13.452
58775W        W31101  31.575   9.166  12.845
58776W        W31102  35.865  23.501  12.010
58777W        W31103  21.689  42.313  12.995
58778W        W31104  29.116  24.009  13.417
58779W        W31105  13.306   7.317  13.063
58780W        W31106   2.333  30.430   3.155
58781W        W31107  34.956  18.546  12.538
58782W        W31108  27.190  14.100   1.232
58783W        W31109  35.582  17.166   2.761
58784W        W31110   6.419   4.447  10.046
58785W        W31111  15.269  38.418   0.362
58786W        W31112   5.350  16.638   2.824
58787W        W31113   8.775  11.283  14.844
58788W        W31114  42.024  14.607   1.261
58789W        W31115  27.105   4.298   3.182
58790W        W31116  24.211  44.907   3.784
58791W        W31117   4.309   3.882   4.175
58792W        W31118  11.641  19.054  13.814
58793W        W31119  34.602  28.099  13.932
58794W        W31120  15.188  28.017   4.826
58795W        W31121  31.909  26.062  13.035
58796W        W31122  27.467   1.463  11.933
58797W        W31123  17.563  23.593   2.282
58798W        W31124  28.105  20.154   2.303
58799W        W31125   4.718  37.837  10.919
58800W        W31126  16.665  40.386  14.852
58801W        W31127   3.255  21.515  11.087
58802W        W31128  39.434  27.963   4.216
58803W        W31129  14.681  24.684   9.630
58804W        W31130  17.607  20.650   3.827
58805W        W31131   4.407   6.357   4.164
58806W        W31132   0.365  24.689  14.299
58807W        W31133  39.010  23.211  14.889
58808W        W31134  36.939  26.998  14.956
58809W        W31135   6.348  19.537  12.563
58810W        W31136  15.324  21.589   3.759
58811W        W31137   1.835  20.582  12.986
58812W        W31138   2.305  41.352   0.864
58813W        W31139  30.944  18.678  11.601
58814W        W31140  34.901   7.304  11.928
58815W        W31141  21.056  35.441   3.236
58816W        W31142  31.576   2.782  11.069
58817W        W31143  39.371   5.437  14.891
58818W        W31144  20.671   5.833  14.383
58819W        W31145  25.487  19.658  10.026
58820W        W31146  27.016  40.463   4.617
58821W        W31147  13.607  25.991  12.366
58822W        W31148  40.487   8.288  13.379
58823W        W31149  41.878  29.540  11.936
58824W        W31150  26.551  29.172  11.037
58825W        W31151  27.193   9.667  11.857
58826W        W31152   4.842   7.754  13.488
58827W        W31153  27.062  22.587   9.962
58828W        W31154   8.367  38.990  12.452
58829W        W31155  44.935  28.149  11.590
58830W        W31156  44.413  37.982  14.762
58831W        W31157  39.832  11.686   3.789
58832W        W31158  42.489  36.098   3.321
58833W        W31159  11.708  34.592  11.505
58834W        W31160  38.475   9.714   0.350
58835W        W31161  38.057  30.542  14.430
58836W        W31162  35.884  39.543  11.890
58837W        W31163   5.707   2.804   3.638
58838W        W31164   8.815  18.123   2.853
58839W        W31165  26.568  10.801  14.815
58840W        W31166  17.573   2.727  11.037
58841W        W31167  20.275  34.370  13.806
58842W        W31168  27.183  28.670   2.269
58843W        W31169  41.902  39.345  12.956
58844W        W31170   8.396  26.494   4.754
58845W        W31171  27.968  40.850   1.773
58846W        W31172  23.198  16.811  10.431
58847W        W31173  11.198  34.999   5.305
58848W        W31174  13.164  10.768   4.740
58849W        W31175  24.161   6.336  13.975
58850W        W31176  21.588  29.092  10.027
58851W        W31177   9.298  35.479   2.281
58852W        W31178  35.946  42.457  12.463
58853W        W31179  11.797   1.301   0.407
58854W        W31180  40.998   2.336   3.208
58855W        W31181   5.869  16.256   0.833
58856W        W31182   3.898  35.480   1.784
58857W        W31183  38.903  27.996   4.149
58858W        W31184  37.844  38.006  13.517
58859W        W31185  32.581   3.296  12.976
58860W        W31186  17.159  43.862  13.307
58861W        W31187  13.336  27.691  10.935
58862W        W31188  35.107  28.943   5.235
58863W        W31189  43.353   3.845   1.415
58864W        W31190  15.283   5.340  13.361
58865W        W31191   5.417  17.686  12.046
58866W        W31192  38.860  13.641  10.036
58867W        W31193  42.884  44.338   3.233
58868W        W31194  27.506  22.074   4.732
58869W        W31195  31.918  30.594  14.989
58870W        W31196  29.070  29.450  12.373
58871W        W31197  20.751  34.374   0.964
58872W        W31198  11.743   8.221   2.815
58873W        W31199  42.291  17.612  10.890
58874W        W31200  24.618  26.041   0.359
58875W        W31201  24.618  40.542  11.097
58876W        W31202  29.649   3.773   4.780
58877W        W31203  14.297  29.097   3.160
58878W        W31204  33.915  34.874   1.277
58879W        W31205  11.261  19.560   2.274
58880W        W31206  22.566  20.135  11.918
58881W        W31207  23.677  39.554   0.856
58882W        W31208  26.671  24.719   2.861
58883W        W31209  31.401  31.518  12.062
58884W        W31210  21.163   1.343   2.414
58885W        W31211  17.795  27.667   3.712
58886W        W31212  23.115   6.840   3.779
58887W        W31213   3.792   4.925   0.936
58888W        W31214   8.324  23.597   4.828
58889W        W31215   9.331  28.599  13.947
58890W        W31216  20.168  24.561   4.268
58891W        W31217  25.474  31.486  12.574
58892W        W31218  14.184  40.968   4.196
58893W        W31219  41.963  11.847  13.483
58894W        W31220  11.778  10.776   3.816
58895W        W31221  40.343  39.512   0.764
58896W        W31222  44.777   5.312  14.780
58897W        W31223  10.816  27.143  12.459
58898W        W31224  40.499  12.746  13.050
58899W        W31225   3.415  32.635  13.350
58900W        W31226  39.551  27.162   3.664
58901W        W31227  20.597  31.149   2.740
58902W        W31228  14.756   1.959  14.446
58903W        W31229  33.117   5.934   4.824
58904W        W31230  33.099  24.161   0.804
58905W        W31231  16.681   5.402   1.771
58906W        W31232  12.673  10.142  14.788
58907W        W31233  27.671  29.002   9.597
58908W        W31234  30.576   6.694   2.900
58909W        W31235  32.083  12.331   4.298
58910W        W31236  29.025  44.303   3.636
58911W        W31237  27.622   4.784   1.904
58912W        W31238  28.551  18.735  11.113
58913W        W31239  16.577   2.367   0.787
58914W        W31240  14.189   9.201   0.417
58915W        W31241  25.567  26.993  14.009
58916W        W31242  33.990  19.550   1.833
58917W        W31243  32.612  23.179   0.283
58918W        W31244  40.900  21.201   3.659
58919W        W31245  27.486   8.890   0.480
58920W        W31246  20.754  28.459   4.659
58921W        W31247   0.791  41.306   2.814
58922W        W31248  27.162   7.719   3.147
58923W        W31249  29.088  33.435   1.232
58924W        W31250   0.934  10.650   9.501
58925W        W31251  42.980  14.239   0.322
58926W        W31252  41.426  44.968  10.889
58927W        W31253  16.188  25.521   0.841
58928W        W31254  38.563  13.845   2.324
58929W        W31255  44.980  14.601   3.217
58930W        W31256  42.863  22.747  13.501
58931W        W31257  33.602  21.044  13.916
58932W        W31258  12.324  12.285   0.440
58933W        W31259  16.081   1.838   2.412
58934W        W31260  20.143   0.771   3.310
58935W        W31261  30.504   6.754   2.416
58936W        W31262  21.190  22.554  12.981
58937W        W31263  41.945   5.736   2.393
58938W        W31264  42.791  18.641   5.116
58939W        W31265  35.394  29.655   2.689
58940W        W31266  44.422  43.968  13.402
58941W        W31267  29.450   0.949  12.074
58942W        W31268  13.762  22.062   0.784
58943W        W31269  15.209  32.098  14.767
58944W        W31270  32.413  34.584  10.489
58945W        W31271  41.301  30.085   0.736
58946W        W31272  26.678  18.174  11.922
58947W        W31273   6.299  33.417   5.272
58948W        W31274  40.498  14.711   1.737
58949W        W31275  33.516  20.552   1.761
58950W        W31276  18.547  25.179  10.081
58951W        W31277  17.612  14.312  12.918
58952W        W31278  34.023   8.756  11.863
58953W        W31279  42.491   5.284  12.002
58954W        W31280   3.346  14.114  11.397
58955W        W31281  10.651  25.614  10.536
58956W        W31282  32.596  29.459   4.801
58957W        W31283  33.891   1.367   0.899
58958W        W31284   9.676   3.753   0.279
58959W        W31285   1.887   0.888   2.259
58960W        W31286  10.781  14.779  12.497
58961W        W31287  30.100  35.543  14.361
58962W        W31288  28.155  15.684  14.366
58963W        W31289  15.582  33.605  11.993
58964W        W31290  26.529  14.717   4.211
58965W        W31291  36.457   6.389   3.275
58966W        W31292  36.412  15.097  12.531
58967W        W31293  24.534  24.143  11.391
58968W        W31294  34.867   6.813   3.272
58969W        W31295  39.502   5.880   0.799
58970W        W31296   4.923  23.194  13.509
58971W        W31297   9.314  11.218  14.778
58972W        W31298  13.252   4.371   4.615
58973W        W31299  42.932  12.233  12.976
58974W        W31300  41.912  40.848   3.377
58975W        W31301   0.917   6.352   2.834
58976W        W31302  34.449  33.509  11.875
58977W        W31303  14.266  43.370  11.002
58978W        W31304  28.945   7.417   0.308
58979W        W31305  29.083  36.455  11.609
58980W        W31306  22.053  18.635   1.730
58981W        W31307  23.192  26.023  13.438
58982W        W31308  12.647  18.625  13.039
58983W        W31309  41.486  19.696   3.724
58984W        W31310  34.021   1.905  11.401
58985W        W31311   6.705  19.723  11.421
58986W        W31312  34.502  12.621   4.319
58987W        W31313  16.206   7.812   1.422
58988W        W31314  29.588  31.970  14.353
58989W        W31315  20.531  32.904  14.433
58990W        W31316  43.877  25.080   3.217
58991W        W31317  38.962  31.028  12.016
58992W        W31318  43.272  21.224   4.685
58993W        W31319  20.609  36.947  10.973
58994W        W31320  39.973  36.431  13.503
58995W        W31321  32.923   4.416   0.299
58996W        W31322  23.720  18.127  13.383
58997W        W31323  44.788  24.722   0.368
58998W        W31324  24.704  17.667   3.334
58999W        W31325   7.407  19.576   0.967
59000W        W31326  43.417  42.847   4.197
59001W        W31327  26.496  21.259   3.781
59002W        W31328  29.053   6.919   4.755
59003W        W31329  27.115  39.532  14.780
59004W        W31330  20.082  39.876   4.788
59005W        W31331   2.328  37.003  14.904
59006W        W31332   7.834   3.841  12.067
59007W        W31333  14.102  24.511  12.938
59008W        W31334  38.960   3.424   3.247
59009W        W31335  14.746   6.328   4.691
59010W        W31336  39.994  31.921   3.335
59011W        W31337  18.675  17.558  13.883
59012W        W31338  23.065  14.154   4.309
59013W        W31339   7.865  26.178  12.402
59014W        W31340  43.322  43.283  12.919
59015W        W31341  11.823   2.229   3.327
59016W        W31342  14.750  36.888   0.732
59017W        W31343  13.671  33.913  12.498
59018W        W31344  14.174  27.130  10.904
59019W        W31345  20.188  28.472   2.308
59020W        W31346  25.577  22.580  11.108
59021W        W31347   4.372  39.518   4.818
59022W        W31348  16.812  21.215  14.474
59023W        W31349  42.358   5.925   4.633
59024W        W31350  29.146  41.955  11.497
59025W        W31351  15.285  37.347  14.486
59026W        W31352   5.348  27.971   1.329
59027W        W31353  31.060  21.065   1.932
59028W        W31354   0.416   2.339   3.795
59029W        W31355  12.183  26.559   3.666
59030W        W31356  38.911  29.983   4.690
59031W        W31357   6.727  27.494  14.016
59032W        W31358  17.800  19.155  11.862
59033W        W31359  24.657  18.703  14.282
59034W        W31360  15.811  37.062   9.932
59035W        W31361  21.554  27.173   3.219
59036W        W31362  29.635  36.417  13.506
59037W        W31363   2.380   8.755   0.343
59038W        W31364   1.289   4.231   1.889
59039W        W31365  32.923  17.260   0.288
59040W        W31366  22.192   0.489   1.867
59041W        W31367  19.593   3.458  11.382
59042W        W31368   2.410  11.806  12.529
59043W        W31369   6.832  44.307   2.266
59044W        W31370  36.028  12.678   1.425
59045W        W31371  36.416  35.590   1.367
59046W        W31372  43.971  24.204   2.701
59047W        W31373  13.269  13.831  12.351
59048W        W31374  10.780   2.916  11.406
59049W        W31375   9.224   8.823   0.776
59050W        W31376  40.433  24.130  14.500
59051W        W31377  19.286  42.822   3.653
59052W        W31378  24.973   1.358  11.446
59053W        W31379   0.912  23.607  10.015
59054W        W31380  29.026  17.175   1.771
59055W        W31381   1.363  29.470  12.845
59056W        W31382  27.006  21.713   1.731
59057W        W31383  12.848  33.463   5.084
59058W        W31384  22.086  27.058  11.493
59059W        W31385   4.874  33.918   3.806
59060W        W31386  24.669   9.384  12.028
59061W        W31387  13.740   9.179   4.605
59062W        W31388   3.418  28.514   0.474
59063W        W31389   2.448  28.598  13.483
59064W        W31390  10.330   5.702  11.052
59065W        W31391  24.976  44.811   1.831
59066W        W31392  31.513  32.129   4.743
59067W        W31393   5.829  29.464  13.981
59068W        W31394  37.012  10.792   1.875
59069W        W31395   2.470  15.766  12.040
59070W        W31396  12.327   9.248   0.915
59071W        W31397  27.514  40.327  11.605
59072W        W31398  20.692  30.480  13.959
59073W        W31399  42.776  35.384   2.252
59074W        W31400  36.852   5.357  14.881
59075W        W31401  13.753   9.800  12.502
59076W        W31402  43.343  18.235   1.363
59077W        W31403  13.819  18.731  11.078
59078W        W31404  33.460  40.501   0.259
59079W        W31405  13.215  13.121   0.291
59080W        W31406  30.152   7.249  13.001
59081W        W31407   8.371  37.008  12.830
59082W        W31408  13.743  27.136   1.790
59083W        W31409  37.974  27.047  10.475
59084W        W31410  14.229  44.784  11.525
59085W        W31411  41.879  42.810   4.182
59086W        W31412  28.140  36.349   3.295
59087W        W31413  33.587  37.001   4.661
59088W        W31414   4.788  16.740  13.836
59089W        W31415  40.049  23.569   0.750
59090W        W31416  28.977  40.993  11.424
59091W        W31417  13.187   9.694   1.405
59092W        W31418  25.022  41.331  11.408
59093W        W31419  14.594  18.226   2.281
59094W        W31420  23.554   0.878   2.387
59095W        W31421  19.074  44.959   4.645
59096W        W31422  39.048  37.932   4.682
59097W        W31423  42.412  29.981  14.899
59098W        W31424  38.835  21.117   0.818
59099W        W31425  28.946  40.442  14.484
59100W        W31426  26.208  41.344   4.321
59101W        W31427  11.233   2.816   1.383
59102W        W31428  13.797  32.996  13.855
59103W        W31429   2.243  16.296   1.293
59104W        W31430  17.689  23.218  11.611
59105W        W31431   8.878   4.436   4.117
59106W        W31432  44.363  13.616   3.326
59107W        W31433  31.609  13.167  10.492
59108W        W31434  43.928  15.152   4.284
59109W        W31435  42.861  32.486  12.447
59110W        W31436  44.456  42.456   0.766
59111W        W31437  24.220  43.498   1.326
59112W        W31438  27.021  43.443   3.784
59113W        W31439  16.135   0.774  13.829
59114W        W31440   4.776  35.078   4.795
59115W        W31441  25.012   1.813  11.959
59116W        W31442  41.517   2.232   3.370
59117W        W31443   4.823   1.893  14.786
59118W        W31444  44.861  21.102  12.872
59119W        W31445  33.441  41.340  11.571
59120W        W31446  16.221  40.423  13.319
59121W        W31447  24.601  25.713  13.396
59122W        W31448  43.447  43.006   0.923
59123W        W31449   1.473  12.718   4.814
59124W        W31450  14.126  18.783  12.948
59125W        W31451  18.673  28.568  14.925
59126W        W31452  44.494  35.107   1.233
59127W        W31453  21.531  31.402  14.310
59128W        W31454  35.970  21.603  14.453
59129W        W31455  14.656   3.794   3.702
59130W        W31456  41.796  18.594  13.452
59131W        W31457  13.727  39.360  11.466
59132W        W31458  23.185  14.798   0.266
59133W        W31459   6.346  33.906   3.213
59134W        W31460  16.714  33.578  13.391
59135W        W31461  38.345   7.357   3.308
59136W        W31462  12.825  42.508  11.506
59137W        W31463  17.634   1.786   4.747
59138W        W31464  17.583   4.344   4.298
59139W        W31465  38.837  24.621   3.851
59140W        W31466   5.888  36.467  11.921
59141W        W31467  42.872  25.005  14.504
59142W        W31468  37.471  21.208   3.667
59143W        W31469  22.242   2.304  12.844
59144W        W31470   9.725  10.730   2.752
59145W        W31471  30.545  14.178  14.371
59146W        W31472  27.974  43.793  12.855
59147W        W31473  43.280   5.821  10.988
59148W        W31474  39.941   3.347   2.844
59149W        W31475   9.755   4.758   4.818
59150W        W31476  19.247   5.220  11.126
59151W        W31477  25.019  14.210  12.538
59152W        W31478  24.100  29.641  12.048
59153W        W31479  12.253  27.665  13.543
59154W        W31480  20.614  23.563  11.569
59155W        W31481  13.649  23.546  13.917
59156W        W31482  13.159  26.534  12.975
59157W        W31483   4.772  39.499   4.759
59158W        W31484   7.183  16.115  13.938
59159W        W31485   7.199  15.792  12.948
59160W        W31486   0.384  12.357   3.309
59161W        W31487  37.476  37.542  13.534
59162W        W31488  18.785   4.229   4.805
59163W        W31489   6.211  44.330  14.422
59164W        W31490  10.752  41.329   2.264
59165W        W31491  14.178  35.997  13.358
59166W        W31492  24.515  14.774  12.849
59167W        W31493  31.531  11.853   4.748
59168W        W31494  15.581  32.002   0.417
59169W        W31495  27.591  34.949   0.810
59170W        W31496  38.523  22.612  14.335
59171W        W31497  23.163   5.719  13.364
59172W        W31498  17.733  25.669   4.661
59173W        W31499   8.820  43.853   4.611
59174W        W31500  16.153  44.985   4.258
59175W        W31501  29.594  42.786   0.364
59176W        W31502  36.008  36.098   0.959
59177W        W31503  40.023  15.783  14.948
59178W        W31504  19.101  21.556  10.604
59179W        W31505  22.200  26.164  12.340
59180W        W31506  28.608  25.620  10.616
59181W        W31507  22.100   0.478  13.441
59182W        W31508  25.136  30.523   2.847
59183W        W31509   3.398  35.552   2.879
59184W        W31510   9.370  32.923  11.372
59185W        W31511   0.893  25.480   1.877
59186W        W31512  31.991  10.787  11.395
59187W        W31513   3.875  10.821   2.268
59188W        W31514  40.810  38.507   2.770
59189W        W31515  15.223   4.285   1.793
59190W        W31516  10.178   8.873   1.888
59191W        W31517  44.286  15.686  10.074
59192W        W31518  24.613   4.834   3.215
59193W        W31519   4.309   5.414   2.845
59194W        W31520  35.368  35.365   2.289
59195W        W31521  44.489  21.232  10.596
59196W        W31522  38.999  40.500   0.462
59197W        W31523   9.220  29.578  12.024
59198W        W31524  41.878  30.076   2.869
59199W        W31525  38.869  21.682   3.238
59200W        W31526   3.855  14.309   1.830
59201W        W31527  20.139  27.554   4.772
59202W        W31528  13.245   7.246   3.165
59203W        W31529  16.686  12.816   3.153
59204W        W31530  25.151  39.386   5.762
59205W        W31531  32.912  37.394  13.792
59206W        W31532  32.402  34.579  13.015
59207W        W31533  25.203  19.774  14.339
59208W        W31534   6.831   2.953   2.758
59209W        W31535  35.958  33.015  11.925
59210W        W31536  17.767   9.845  11.396
59211W        W31537  23.010  35.028  14.759
59212W        W31538  14.283  30.475   2.728
59213W        W31539  15.224  15.234  10.564
59214W        W31540  41.403   6.824  11.973
59215W        W31541  12.769   7.678   0.415
59216W        W31542   3.941  22.672   2.178
59217W        W31543  40.461  10.664  12.892
59218W        W31544  10.787  13.124   1.292
59219W        W31545  32.900  37.032  13.476
59220W        W31546  35.007  26.485  10.904
59221W        W31547   2.931   0.896   4.223
59222W        W31548   9.718  27.980   2.782
59223W        W31549  12.229   4.379  12.054
59224W        W31550  22.677  30.096   2.817
59225W        W31551  29.667  41.500  13.380
59226W        W31552   6.722  33.580  13.050
59227W        W31553  32.452  24.124  12.961
59228W        W31554   5.248   8.286   2.856
59229W        W31555  20.670  43.423   2.711
59230W        W31556  27.597  37.453  13.796
59231W        W31557   7.362   6.305  11.117
59232W        W31558  27.130   0.376   3.384
59233W        W31559  23.603  17.647   2.379
59234W        W31560  36.862   9.738   0.928
59235W        W31561  24.099  41.526   2.254
59236W        W31562   6.318  24.082  11.881
59237W        W31563  11.157   6.719   2.222
59238W        W31564  14.633  34.498  11.551
59239W        W31565  40.318   4.855   2.777
59240W        W31566  28.169  44.921   0.470
59241W        W31567  39.988  39.342   0.894
59242W        W31568  24.630  24.509   1.416
59243W        W31569  28.600  21.032   4.330
59244W        W31570   1.426  25.686   4.291
59245W        W31571  12.619  37.989  12.543
59246W        W31572   3.253  28.572   4.215
59247W        W31573  21.212  24.592  10.999
59248W        W31574  42.315  31.519   0.378
59249W        W31575  24.101  12.144   0.474
59250W        W31576  35.384  12.283  12.844
59251W        W31577   1.963  42.479  14.432
59252W        W31578   4.883  11.229   2.775
59253W        W31579  42.356  30.544   0.908
59254W        W31580  10.826   2.911   4.742
59255W        W31581  34.027  12.246  13.801
59256W        W31582  12.792   1.475  10.977
59257W        W31583  37.922  28.455  13.028
59258W        W31584  10.378  16.711   0.958
59259W        W31585  36.887  30.658   4.131
59260W        W31586  16.088  26.687   3.150
59261W        W31587  10.141  12.673  13.995
59262W        W31588  29.547  16.204  13.825
59263W        W31589  21.191   6.212  11.027
59264W        W31590   7.378  39.449  14.979
59265W        W31591  37.968  34.500  11.094
59266W        W31592  21.739   4.937   3.308
59267W        W31593  17.292  18.070  13.880
59268W        W31594  41.837  33.427  10.414
59269W        W31595  17.179   8.860  10.637
59270W        W31596   9.364   1.427  12.499
59271W        W31597   4.338  16.129   2.367
59272W        W31598  24.525   7.409  11.586
59273W        W31599  44.836   6.192  10.595
59274W        W31600  26.488  37.418  12.825
59275W        W31601   2.930  41.301  14.284
59276W        W31602   7.823   7.206  10.429
59277W        W31603   3.408  19.693  10.081
59278W        W31604  19.572  36.073   1.273
59279W        W31605  30.477  35.432   1.290
59280W        W31606  10.139  23.586  10.030
59281W        W31607  21.694  14.723   0.380
59282W        W31608  24.114  13.161  14.419
59283W        W31609  13.798  25.010   0.884
59284W        W31610  41.428  22.219  11.404
59285W        W31611  17.744  34.935  14.788
59286W        W31612  21.248  23.072  13.798
59287W        W31613   8.351  16.096  14.409
59288W        W31614   2.310   7.230   4.139
59289W        W31615  38.403  11.840   4.743
59290W        W31616  41.297   3.896   3.675
59291W        W31617  32.398  12.774   4.189
59292W        W31618  38.377   8.878  10.914
59293W        W31619   0.818   6.841   0.249
59294W        W31620  14.685   0.397   1.739
59295W        W31621   2.427  24.494   3.803
59296W        W31622  18.624   7.831   3.265
59297W        W31623  28.943  14.639  12.066
59298W        W31624   4.400   6.296  14.279
59299W        W31625  30.494  18.735   3.699
59300W        W31626  13.287   8.390  13.392
59301W        W31627  39.847  31.647  14.780
59302W        W31628  22.665  41.803  14.910
59303W        W31629   4.751   1.240   1.799
59304W        W31630  42.451   8.660   3.654
59305W        W31631  44.275   4.765  13.446
59306W        W31632   3.850  29.045  12.052
59307W        W31633  30.465  42.375   0.775
59308W        W31634  41.901  36.525   3.208
59309W        W31635   1.775  28.555   4.647
59310W        W31636  25.692  10.366  11.998
59311W        W31637  14.250  10.349  12.875
59312W        W31638  29.012   7.274  13.436
59313W        W31639  31.529  24.218  12.533
59314W        W31640  36.966  34.580   4.138
59315W        W31641  38.458  39.982   1.868
59316W        W31642  10.805  24.197   1.862
59317W        W31643  38.550  21.672  14.396
59318W        W31644  11.183  16.317   4.314
59319W        W31645  34.008  19.634  14.950
59320W        W31646  27.590  43.994   3.189
59321W        W31647   3.895   6.902  14.951
59322W        W31648  12.218  43.814  12.895
59323W        W31649  39.009  28.480  14.793
59324W        W31650  34.889  30.583   4.615
59325W        W31651  34.466  36.453   0.890
59326W        W31652  36.577  21.549  11.049
59327W        W31653   4.759  44.769   1.362
59328W        W31654  18.648  30.107  11.031
59329W        W31655   3.254  29.478  12.943
59330W        W31656  15.807  40.858  13.514
59331W        W31657  34.391   9.681   1.743
59332W        W31658  34.411   2.814   1.806
59333W        W31659  27.626  13.694  11.455
59334W        W31660   2.822  11.359  14.999
59335W        W31661  13.334  22.514   3.808
59336W        W31662   5.864  22.569  11.375
59337W        W31663   5.764  39.393   0.760
59338W        W31664  31.995  28.102  11.988
59339W        W31665  15.157  43.957  10.946
59340W        W31666  37.862  35.602   2.891
59341W        W31667  34.889  10.767   3.668
59342W        W31668  14.213  29.448   1.287
59343W        W31669  11.703  17.271   0.884
59344W        W31670   7.878  18.702  12.472
59345W        W31671  42.922   2.387  11.993
59346W        W31672  30.986  27.625  11.952
59347W        W31673  17.689  16.761  11.397
59348W        W31674  12.207   4.901   3.250
59349W        W31675  12.703   2.738   4.150
59350W        W31676  30.146  12.745   3.737
59351W        W31677   4.765  13.707   2.301
59352W        W31678   1.466  10.219  14.372
59353W        W31679  26.635  41.875   0.916
59354W        W31680  29.602  28.479   3.326
59355W        W31681  37.436  42.415   2.793
59356W        W31682  15.753  18.770   2.395
59357W        W31683  36.924  28.533   1.793
59358W        W31684  44.794  41.026  12.077
59359W        W31685  40.469  40.885   2.387
59360W        W31686  20.736  38.061  13.002
59361W        W31687  42.489   9.872  14.870
59362W        W31688  33.104  33.920  11.372
59363W        W31689  24.713  18.065   1.802
59364W        W31690  12.846  38.967  11.939
59365W        W31691   2.390   4.759  12.840
59366W        W31692   4.893  22.624   0.794
59367W        W31693  20.709   7.338  11.871
59368W        W31694   7.818  30.478  13.892
59369W        W31695  17.193  25.569   4.170
59370W        W31696  18.698  17.660  10.607
59371W        W31697  36.071  15.256   4.218
59372W        W31698  16.075  38.515  13.442
59373W        W31699  20.577  35.980   2.870
59374W        W31700  15.796  15.251   2.391
59375W        W31701  17.754   1.790   2.869
59376W        W31702   2.257  29.040  11.407
59377W        W31703  16.242   0.888   2.854
59378W        W31704  41.900  32.959  10.517
59379W        W31705  26.044  12.692   4.340
59380W        W31706   0.921  14.279   5.146
59381W        W31707  39.887   3.803  11.405
59382W        W31708  42.359  42.293   3.640
59383W        W31709  37.369  12.635   5.155
59384W        W31710  41.450  44.438   1.221
59385W        W31711   2.736  42.403   4.307
59386W        W31712  11.625   8.777   3.352
59387W        W31713  19.281   4.817   0.443
59388W        W31714  24.046  19.759  12.438
59389W        W31715  38.454  40.989   1.389
59390W        W31716  30.148  11.321  11.088
59391W        W31717   3.385   9.388   9.587
59392W        W31718  25.506  29.110  12.903
59393W        W31719  25.648  29.105   1.841
59394W        W31720  43.439  12.746  14.463
59395W        W31721  21.205  42.446   0.760
59396W        W31722  38.951  36.038   1.416
59397W        W31723  41.517   3.716   4.671
59398W        W31724  27.043   4.928   1.334
59399W        W31725  27.614  16.770  12.978
59400W        W31726  26.177   9.666   3.744
59401W        W31727   8.750   2.911   1.332
59402W        W31728  35.574  41.353  14.454
59403W        W31729   7.733  44.289   0.369
59404W        W31730  16.314  35.491   0.884
59405W        W31731  33.547  28.971  10.424
59406W        W31732  16.116  16.640  13.504
59407W        W31733  43.961  34.028  14.450
59408W        W31734  41.955  24.512   2.799
59409W        W31735  24.637  17.577   9.985
59410W        W31736  33.575   6.822   1.808
59411W        W31737  44.452  30.622  10.988
59412W        W31738   3.747  34.568  14.317
59413W        W31739  29.622  40.422   3.240
59414W        W31740  35.969  17.625  14.789
59415W        W31741  21.753  36.024   2.399
59416W        W31742   1.330  12.725   3.361
59417W        W31743  21.173  19.049   0.833
59418W        W31744  21.157  33.521  10.961
59419W        W31745  35.420  15.755  10.558
59420W        W31746  33.428  43.811  13.364
59421W        W31747  20.113  34.042   1.770
59422W        W31748   7.670  31.065  12.016
59423W        W31749  39.366   5.840  13.800
59424W        W31750  41.492  29.010   3.727
59425W        W31751  33.884  20.259   2.292
59426W        W31752  38.995  14.619  13.793
59427W        W31753  44.312  13.251  10.420
59428W        W31754  18.698  41.505   1.274
59429W        W31755  42.469  18.622   2.314
59430W        W31756   5.242   9.223   1.877
59431W        W31757  44.416  30.583   9.934
59432W        W31758  31.064  21.141   2.721
59433W        W31759   9.201  13.663  13.332
59434W        W31760   2.332   2.323   2.821
59435W        W31761   0.263  44.792  13.886
59436W        W31762  40.830   6.826   1.699
59437W        W31763  22.120   0.869   3.779
59438W        W31764  32.094  28.057  13.017
59439W        W31765  44.461  44.836   4.333
59440W        W31766  30.491  28.972   4.217
59441W        W31767  21.247   1.822  14.325
59442W        W31768  15.628  37.466  14.001
59443W        W31769  22.230  14.680   1.917
59444W        W31770   6.793  18.145   2.892
59445W        W31771  25.567   1.272   4.787
59446W        W31772  34.451  27.168   0.328
59447W        W31773  15.180  21.528  12.848
59448W        W31774  24.111  20.065  11.564
59449W        W31775  13.798  34.870   2.760
59450W        W31776  36.050   6.298   0.478
59451W        W31777  24.088  23.992   0.797
59452W        W31778  30.150   5.791   3.248
59453W        W31779   7.687  19.597  10.102
59454W        W31780  24.569  26.668   0.346
59455W        W31781  14.115   6.251   0.405
59456W        W31782  15.198  26.131  13.840
59457W        W31783  26.505  40.842   0.331
59458W        W31784  34.986  34.506  12.961
59459W        W31785  19.216   4.389   3.338
59460W        W31786  14.692  40.807  10.608
59461W        W31787   9.677  44.452  10.127
59462W        W31788  35.522  32.586  10.579
59463W        W31789  17.269  43.489   0.791
59464W        W31790  43.977  33.056  13.400
59465W        W31791  44.878  21.685   3.700
59466W        W31792  18.258  13.805  10.637
59467W        W31793   2.417  16.156   2.346
59468W        W31794  31.020  28.655  13.064
59469W        W31795  25.567  24.221  12.506
59470W        W31796  12.272  23.198   3.294
59471W        W31797  16.095  38.475   4.720
59472W        W31798   7.310   5.783  12.539
59473W        W31799  40.396  39.031   3.196
59474W        W31800  23.068  37.005   0.935
59475W        W31801  41.877  38.500  12.417
59476W        W31802  17.567   4.725  13.859
59477W        W31803  39.442  33.448  12.489
59478W        W31804  15.659  15.691   4.154
59479W        W31805   8.269   0.802  12.923
59480W        W31806  19.765  13.126   1.398
59481W        W31807  16.691  35.865   2.784
59482W        W31808  20.752   6.413  13.035
59483W        W31809  30.091   1.291  12.003
59484W        W31810   8.171  31.961  10.907
59485W        W31811   9.209  39.952  10.612
59486W        W31812   9.692  24.127   0.817
59487W        W31813  44.920  27.040   3.306
59488W        W31814  24.671  19.600   3.165
59489W        W31815  25.604   3.344   4.615
59490W        W31816  44.326  34.578   1.712
59491W        W31817  14.812   0.342  11.877
59492W        W31818   4.833  40.985  12.971
59493W        W31819  15.220  27.491   4.131
59494W        W31820  21.252  12.654   2.789
59495W        W31821  42.516  31.593   0.849
59496W        W31822  32.904  27.943   2.812
59497W        W31823   8.713   2.430  12.833
59498W        W31824  11.649  17.641  12.857
59499W        W31825  44.007   1.896  13.426
59500W        W31826   8.305   4.368   0.940
59501W        W31827  28.599  27.502  12.388
59502W        W31828   6.213  44.009  11.040
59503W        W31829  25.506  34.562  13.810
59504W        W31830  17.646   5.373  12.994
59505W        W31831   2.748   3.849  13.448
59506W        W31832   7.362  43.371   2.216
59507W        W31833   8.841  23.145  12.085
59508W        W31834  39.540  21.227  13.893
59509W        W31835  13.132  28.064   4.618
59510W        W31836  11.849  12.317   1.419
59511W        W31837  22.160  15.719   0.374
59512W        W31838  25.044  25.992  10.572
59513W        W31839   1.817  36.349   3.734
59514W        W31840  17.223  18.688  10.635
59515W        W31841   3.279  35.045  13.547
59516W        W31842  13.109  31.582   2.822
59517W        W31843  23.183  38.022  12.886
59518W        W31844  40.986  23.636  11.964
59519W        W31845  26.129  17.674  11.466
59520W        W31846  28.168  20.616  14.287
59521W        W31847   8.714  41.480  11.567
59522W        W31848  18.664   5.697  14.354
59523W        W31849  39.417  42.865   0.824
59524W        W31850  11.244   5.784  10.463
59525W        W31851   9.247  41.025  14.316
59526W        W31852  18.757  11.648  13.978
59527W        W31853  26.459  14.831  13.497
59528W        W31854  15.585  43.951  12.909
59529W        W31855  19.100  41.408   0.840
59530W        W31856   1.740  43.333   0.307
59531W        W31857  22.619  34.431  13.528
59532W        W31858  21.600  20.733   2.246
59533W        W31859  28.467  26.132  10.437
59534W        W31860  12.153  44.287   4.722
59535W        W31861  41.413  15.788   2.187
59536W        W31862  38.874   0.435  13.999
59537W        W31863   6.222  35.496  10.528
59538W        W31864   8.707  32.548  14.465
59539W        W31865  26.988  22.620   4.266
59540W        W31866  44.948   4.828  12.035
59541W        W31867  27.955  21.536  12.399
59542W        W31868  10.295   6.761  13.459
59543W        W31869  30.979  31.936   1.891
59544W        W31870   2.738   3.266   2.367
59545W        W31871  23.200   8.789   2.751
59546W        W31872  24.594   9.385   1.394
59547W        W31873   2.449   5.786   1.275
59548W        W31874  30.479  37.380  14.915
59549W        W31875  15.653  18.751   5.253
59550W        W31876  22.609   4.224   1.397
59551W        W31877  17.684  19.666   0.435
59552W        W31878  36.352  35.482  14.358
59553W        W31879  38.421  11.840  13.871
59554W        W31880  11.202   4.892   0.260
59555W        W31881  37.998   5.209   4.193
59556W        W31882   3.318   1.759   3.204
59557W        W31883  41.297  34.869  11.391
59558W        W31884  17.765  35.091   3.309
59559W        W31885  41.298  32.541  12.884
59560W        W31886  10.736   4.379  11.945
59561W        W31887  35.376  32.629  11.010
59562W        W31888   3.430  20.749  11.001
59563W        W31889  22.239   3.944   0.393
59564W        W31890  17.616  29.091  11.945
59565W        W31891  19.162  35.998   4.815
59566W        W31892  15.598  17.214  14.908
59567W        W31893  26.604  13.826  13.474
59568W        W31894  38.843  31.594  12.399
59569W        W31895  20.606  39.547  14.961
59570W        W31896  22.672  41.386  11.464
59571W        W31897  18.073  41.497   0.828
59572W        W31898  24.025   5.232   3.708
59573W        W31899   8.317  37.062  14.854
59574W        W31900  30.951   2.797   2.303
59575W        W31901   4.230  25.477   0.816
59576W        W31902   9.854  11.328   0.348
59577W        W31903  27.583  23.015  13.405
59578W        W31904  34.584  34.991  10.494
59579W        W31905   2.396  20.622   4.785
59580W        W31906  18.644  12.708   5.202
59581W        W31907  29.973   0.429   3.672
59582W        W31908  38.356  42.462   0.269
59583W        W31909   1.337  15.268   1.716
59584W        W31910  26.054   5.198   0.301
59585W        W31911  37.005   6.213   0.391
59586W        W31912  38.451  21.533   4.209
59587W        W31913   5.314  25.679  14.890
59588W        W31914  27.579  44.906   1.902
59589W        W31915   1.964   4.757   4.212
59590W        W31916  14.136   2.414  11.864
59591W        W31917  10.743  21.522   4.115
59592W        W31918  20.637   1.873  14.497
59593W        W31919  33.091  22.105   3.669
59594W        W31920  44.769  26.093  12.980
59595W        W31921   2.399   1.322   0.313
59596W        W31922   6.341  41.478   4.686
59597W        W31923  23.502  41.846   2.701
59598W        W31924  19.188  35.011   4.609
59599W        W31925  44.487  16.120   2.785
59600W        W31926  35.402  39.919   4.162
59601W        W31927  31.468  31.559   4.766
59602W        W31928  31.137  42.778  14.469
59603W        W31929  43.827  34.470  13.451
59604W        W31930  30.014  22.023   1.247
59605W        W31931  35.578  26.104  11.565
59606W        W31932  39.814  38.011  12.510
59607W        W31933  24.498  29.976   0.301
59608W        W31934  32.920  10.813  14.812
59609W        W31935   9.323  35.858  11.011
59610W        W31936  29.930  39.315  12.963
59611W        W31937  11.858  27.568   1.293
59612W        W31938  35.421  10.817   0.957
59613W        W31939  17.793  18.180   1.915
59614W        W31940  18.644  18.151  14.442
59615W        W31941  39.517  23.110  11.490
59616W        W31942   6.756  13.311  13.461
59617W        W31943   3.280  23.557  14.402
59618W        W31944  14.177  23.725  11.939
59619W        W31945  26.159  43.364   4.140
59620W        W31946  13.302  40.464  12.351
59621W        W31947  41.480   0.434   4.744
59622W        W31948  21.182  32.974   9.975
59623W        W31949   6.380  30.127   1.769
59624W        W31950  44.804  35.938  10.920
59625W        W31951  25.613  33.989   0.839
59626W        W31952  25.150  24.481  14.825
59627W        W31953  13.611   3.304  11.060
59628W        W31954  27.474  41.034   3.705
59629W        W31955  34.399  40.525   1.900
59630W        W31956  16.726  19.264  12.827
59631W        W31957  26.495  24.186   2.265
59632W        W31958  38.950   9.215  12.853
59633W        W31959   4.828  38.046   4.649
59634W        W31960  24.591  20.037   4.694
59635W        W31961  35.600  20.139   1.774
59636W        W31962  18.193  21.152  10.997
59637W        W31963   6.869   4.381  12.474
59638W        W31964  14.821  22.087  11.965
59639W        W31965  32.916  18.222   4.602
59640W        W31966   7.817  35.360  10.917
59641W        W31967  35.003  30.560  14.767
59642W        W31968  20.090   3.359   2.237
59643W        W31969  36.850  23.200   0.310
59644W        W31970  44.801  33.020  11.986
59645W        W31971   6.825   4.301   1.902
59646W        W31972  35.539  13.670  10.641
59647W        W31973  19.156   4.381   3.631
59648W        W31974  42.824  41.887  13.384
59649W        W31975  37.904  42.436   1.884
59650W        W31976   4.868  13.603  14.811
59651W        W31977  33.049  44.800  10.516
59652W        W31978  26.596  21.089  14.762
59653W        W31979  26.068  15.201   0.758
59654W        W31980   5.816  31.496   1.874
59655W        W31981  22.122  35.011  12.923
59656W        W31982   1.783  17.698   0.952
59657W        W31983  10.670  37.374  13.338
59658W        W31984  33.999   6.719   2.271
59659W        W31985  34.600  40.387  10.536
59660W        W31986  35.484  17.763  13.977
59661W        W31987  38.498  16.179  10.618
59662W        W31988  16.112  43.280   2.879
59663W        W31989  12.749  24.067  11.960
59664W        W31990  19.044  27.147  13.994
59665W        W31991  23.115   7.383  12.943
59666W        W31992  35.975  24.087   1.847
59667W        W31993   7.218  34.452   4.765
59668W        W31994   7.846  32.473   2.214
59669W        W31995  37.840   4.259  13.874
59670W        W31996  21.545  10.859   3.161
59671W        W31997  32.957  34.510  14.395
59672W        W31998  18.050  41.934   1.429
59673W        W31999  16.140  38.855   2.203
59674W        W32000  15.180  15.284  10.899
59675W        W32001  15.205   7.883  13.982
59676W        W32002   1.938   9.272   3.780
59677W        W32003  35.560  42.461  10.422
59678W        W32004  44.288  30.466  13.941
59679W        W32005  28.046  13.142  10.466
59680W        W32006  43.977  21.146  10.146
59681W        W32007  39.983  44.481   4.633
59682W        W32008   3.734  39.558  13.434
59683W        W32009  33.987   5.395  14.409
59684W        W32010   5.836  17.120   1.383
59685W        W32011   9.244  17.672  12.408
59686W        W32012  11.276  38.977   3.695
59687W        W32013  38.998  19.715   0.825
59688W        W32014  25.056  27.098   1.281
59689W        W32015   0.492  40.805  14.841
59690W        W32016  15.255  15.606   2.895
59691W        W32017  36.000  10.139   4.835
59692W        W32018  29.175  33.019  12.907
59693W        W32019  25.626   3.328  13.055
59694W        W32020   8.773  43.801  13.332
59695W        W32021   9.177  12.735   4.147
59696W        W32022  20.676  37.352   0.334
59697W        W32023  15.794  39.812   3.640
59698W        W32024  43.812  40.931   4.703
59699W        W32025  12.317  13.664   0.776
59700W        W32026  42.313  39.973  11.909
59701W        W32027  21.567  22.719   1.715
59702W        W32028  43.922  10.141   4.834
59703W        W32029  12.317  10.359   3.201
59704W        W32030   2.877  24.533   0.803
59705W        W32031  34.885  20.643   1.237
59706W        W32032  20.542  37.347  13.814
59707W        W32033  44.774  22.684  11.612
59708W        W32034  17.137  12.658  13.335
59709W        W32035  23.547  22.650   1.422
59710W        W32036  24.530  17.193   3.301
59711W        W32037  10.244  42.871   1.210
59712W        W32038  35.886   6.269  13.909
59713W        W32039  30.593  11.708  12.848
59714W        W32040  25.123  24.072   1.446
59715W        W32041  43.785  16.762  14.021
59716W        W32042  26.555   6.828  12.354
59717W        W32043  26.589  34.561   1.312
59718W        W32044  43.499  31.117  12.080
59719W        W32045  17.664  21.144  12.487
59720W        W32046  36.946  42.309  14.865
59721W        W32047   9.207  18.756   0.406
59722W        W32048  24.113  21.146  12.024
59723W        W32049  14.242  23.660  11.610
59724W        W32050  19.222  17.227  14.281
59725W        W32051  15.112  12.158  11.599
59726W        W32052  44.783  28.012   2.333
59727W        W32053  20.581  17.128   0.852
59728W        W32054  37.999  30.121   1.767
59729W        W32055  10.824   5.260  11.867
59730W        W32056  14.309   9.324   4.348
59731W        W32057   4.366   6.288  10.532
59732W        W32058  20.536   8.817  14.920
59733W        W32059  39.433   4.754   1.821
59734W        W32060  20.243  13.729  12.521
59735W        W32061   7.303  37.578  14.945
59736W        W32062   1.300  35.417   4.119
59737W        W32063  27.646  32.564   2.331
59738W        W32064  24.573  23.174   4.607
59739W        W32065  13.163  39.544  13.358
59740W        W32066  37.564  19.759   0.773
59741W        W32067   9.345  44.497   5.207
59742W        W32068   8.180  44.965   1.400
59743W        W32069  23.588   0.263   2.886
59744W        W32070   2.728  12.761  11.125
59745W        W32071  28.483  25.629   2.353
59746W        W32072  33.586  10.725  13.814
59747W        W32073  18.594  22.587  11.923
59748W        W32074  29.079  37.354   3.363
59749W        W32075  36.090  28.998   1.872
59750W        W32076  25.984  21.081  11.433
59751W        W32077   2.862  26.051   1.241
59752W        W32078   8.316   1.866   4.715
59753W        W32079  39.033  23.129  10.555
59754W        W32080  32.978  14.300  10.551
59755W        W32081  39.402  24.481  14.886
59756W        W32082  23.036  11.803  14.015
59757W        W32083   5.224  24.664   3.785
59758W        W32084  24.606  17.733  10.583
59759W        W32085  40.918  11.128   3.864
59760W        W32086  31.141   8.224   4.200
59761W        W32087   8.264  27.100   3.352
59762W        W32088  18.230  11.351   2.864
59763W        W32089   8.354  41.816  14.467
59764W        W32090  22.223  18.629  14.927
59765W        W32091  26.104  23.554   2.702
59766W        W32092  27.559   5.837  11.427
59767W        W32093  26.629   9.352   4.836
59768W        W32094  11.323  16.273  13.421
59769W        W32095   3.883   8.216   1.733
59770W        W32096  36.962  30.559   2.201
59771W        W32097  39.906   4.271   2.847
59772W        W32098  31.465  15.659  10.641
59773W        W32099  42.880   9.850   1.245
59774W        W32100   8.732  20.128  11.078
59775W        W32101  20.550   0.791  11.428
59776W        W32102  23.599  10.171   1.928
59777W        W32103  34.945  41.464   2.231
59778W        W32104  10.286  42.949   1.935
59779W        W32105   5.867   1.949  11.066
59780W        W32106  13.202   7.832   1.262
59781W        W32107   8.167  33.619  14.787
59782W        W32108  42.962   3.337   2.706
59783W        W32109   3.913  38.552  13.548
59784W        W32110   4.794  28.617  11.424
59785W        W32111  26.552  40.003   3.820
59786W        W32112   3.414  18.777   1.400
59787W        W32113  22.721  16.278   2.268
59788W        W32114   5.311  14.608  11.934
59789W        W32115   1.855   1.941   0.408
59790W        W32116  19.265  41.874  12.958
59791W        W32117   0.848   8.750  11.971
59792W        W32118  17.783  11.866   2.391
59793W        W32119  39.829  32.128   3.658
59794W        W32120   1.774  11.164   3.232
59795W        W32121   5.886   6.863  11.035
59796W        W32122  30.037  24.533   4.608
59797W        W32123   9.167  19.050  11.938
59798W        W32124  37.350  32.044   1.888
59799W        W32125  19.212  14.170   5.135
59800W        W32126  44.312  38.834   1.878
59801W        W32127  12.755  36.541   1.407
59802W        W32128  11.792  36.004  11.878
59803W        W32129  18.284   5.323   2.867
59804W        W32130  38.375  22.522   0.321
59805W        W32131  39.455  16.718  10.426
59806W        W32132  40.017  33.390  11.416
59807W        W32133  20.217  18.105   0.352
59808W        W32134   2.855  11.805   1.294
59809W        W32135   1.338  24.491  12.899
59810W        W32136  38.052   7.344  14.307
59811W        W32137  23.122  25.041  13.436
59812W        W32138  21.758  10.663  13.460
59813W        W32139  26.571  19.558   3.745
59814W        W32140  11.299  32.960  13.989
59815W        W32141  23.984  42.880   0.302
59816W        W32142  30.572   1.843  12.562
59817W        W32143   9.386  38.557  12.012
59818W        W32144  16.812  37.544   2.892
59819W        W32145   5.433  29.488   2.193
59820W        W32146  27.556  16.262  12.935
59821W        W32147  23.070  36.846   0.402
59822W        W32148  35.961  25.217  14.378
59823W        W32149  20.642  34.566  11.984
59824W        W32150  24.025  19.535  13.994
59825W        W32151  22.199  11.647   3.756
59826W        W32152  20.644  40.042   3.732
59827W        W32153  24.037  21.137   3.367
59828W        W32154  38.454   5.763  12.859
59829W        W32155  39.536  23.057   4.824
59830W        W32156  24.650  39.394   5.120
59831W        W32157  15.288  21.737   1.704
59832W        W32158  27.604  26.197   0.472
59833W        W32159  26.177  32.434  12.447
59834W        W32160  30.640  28.166  11.554
59835W        W32161  21.063   8.228   3.866
59836W        W32162  26.131  22.215   0.387
59837W        W32163  39.557  39.030  10.408
59838W        W32164  36.417  17.081   4.732
59839W        W32165  25.157  13.721  13.431
59840W        W32166  43.435  29.174   0.798
59841W        W32167  31.955  41.885   0.324
59842W        W32168  16.798  22.087  11.575
59843W        W32169  25.010  12.621   1.352
59844W        W32170  38.371  22.561  11.932
59845W        W32171  30.554  31.552  13.440
59846W        W32172  32.091  35.887  10.951
59847W        W32173  33.889   7.770  10.429
59848W        W32174  21.108  12.120  14.880
59849W        W32175  24.713  14.207   1.840
59850W        W32176  26.148   6.693   3.674
59851W        W32177  39.046  20.612   3.846
59852W        W32178  18.219  28.516   3.256
59853W        W32179   2.860  41.447   0.792
59854W        W32180  26.475  27.485   5.763
59855W        W32181   7.815  23.559  10.506
59856W        W32182  30.538  33.475   1.926
59857W        W32183  10.842  12.125   0.886
59858W        W32184  34.006  10.254   1.906
59859W        W32185  42.459   9.286  12.547
59860W        W32186  41.408  17.564  12.378
59861W        W32187  39.887  25.532   3.222
59862W        W32188   2.839  14.663  14.942
59863W        W32189   7.785  25.639   0.807
59864W        W32190  10.368  28.651  12.830
59865W        W32191  42.445  17.250  13.847
59866W        W32192   7.366  42.939   3.680
59867W        W32193   4.425  19.755  14.029
59868W        W32194  30.049   0.420   4.645
59869W        W32195  17.723   4.813  14.347
59870W        W32196  18.650  23.506   1.230
59871W        W32197  11.860  11.174  13.032
59872W        W32198  15.656  39.984  14.455
59873W        W32199  20.543  15.155   3.374
59874W        W32200   1.393  35.925   3.342
59875W        W32201  28.595  23.676  12.846
59876W        W32202  33.967  23.570   3.268
59877W        W32203   2.743  18.710  11.540
59878W        W32204  22.634  19.542   0.854
59879W        W32205  40.935   1.391   3.770
59880W        W32206  21.090   6.301   4.823
59881W        W32207   8.374  24.122   1.245
59882W        W32208  24.118  41.337  12.382
59883W        W32209  19.243  37.572  11.592
59884W        W32210  15.605   4.874  10.542
59885W        W32211   6.190  35.595  13.528
59886W        W32212  15.774  32.440   1.698
59887W        W32213  27.609  41.338   1.744
59888W        W32214  21.629  30.650  13.955
59889W        W32215   0.847  43.308   3.336
59890W        W32216  15.118   6.879   0.957
59891W        W32217  38.463  12.675  14.463
59892W        W32218  31.996   1.466   4.767
59893W        W32219  12.313  23.995  14.773
59894W        W32220  16.304   6.203   3.763
59895W        W32221  27.024  28.136   0.814
59896W        W32222  36.097  40.990  11.995
59897W        W32223   6.307  21.199   4.722
59898W        W32224  23.594  21.699  12.930
59899W        W32225  34.606  34.046  12.857
59900W        W32226  44.794   3.272   2.885
59901W        W32227  11.713  30.426   2.206
59902W        W32228   3.727  20.033  14.825
59903W        W32229  10.850  28.627  12.450
59904W        W32230  23.103  14.749  11.003
59905W        W32231  39.368  27.141  13.902
59906W        W32232  24.671  34.989  10.549
59907W        W32233  44.430  10.829  13.058
59908W        W32234  38.554  11.840   0.946
59909W        W32235   6.337  28.589  11.120
59910W        W32236  18.556  24.020   0.286
59911W        W32237  35.400  27.980   4.298
59912W        W32238  28.604   0.791  13.939
59913W        W32239  20.084  18.686  12.824
59914W        W32240  18.733   0.847  14.959
59915W        W32241   3.850   0.361   3.842
59916W        W32242   1.465  26.495  12.931
59917W        W32243  33.616  10.215  10.092
59918W        W32244  13.786  33.504  12.840
59919W        W32245  31.965  31.129   2.776
59920W        W32246  13.131  33.942  10.628
59921W        W32247   9.689  40.045  12.033
59922W        W32248   7.904  39.340  10.571
59923W        W32249   9.759  12.782   0.303
59924W        W32250  19.083  21.698   0.451
59925W        W32251   7.895  11.152  14.829
59926W        W32252   5.344  24.688  11.029
59927W        W32253  44.442   3.391  12.897
59928W        W32254  42.442  33.504  13.419
59929W        W32255  39.966  30.479  13.407
59930W        W32256  31.612  20.109   2.869
59931W        W32257  35.370  22.605   4.272
59932W        W32258  27.674  31.577   3.254
59933W        W32259  36.858  31.527  10.595
59934W        W32260  37.443  43.919   4.829
59935W        W32261  21.245  19.107  12.030
59936W        W32262  30.153  39.414   1.231
59937W        W32263   1.265   5.232  11.076
59938W        W32264  25.194  20.238  13.484
59939W        W32265   7.811  35.435  13.913
59940W        W32266  31.485  26.970  12.827
59941W        W32267  29.954  24.088  13.436
59942W        W32268  33.058   5.409  13.538
59943W        W32269  29.588  15.648   5.301
59944W        W32270  10.319   8.676  11.491
59945W        W32271  37.028  14.280  14.320
59946W        W32272  43.974  16.719  14.388
59947W        W32273  15.209  19.210   4.831
59948W        W32274  13.632  33.526  13.913
59949W        W32275   0.803  36.504  11.431
59950W        W32276   1.389   2.725   4.278
59951W        W32277   7.271   4.323   2.290
59952W        W32278  44.323  20.060   2.666
59953W        W32279   9.870   2.326  13.458
59954W        W32280  41.328  20.528  10.504
59955W        W32281   2.939  29.626  13.438
59956W        W32282  12.695   5.204  14.990
59957W        W32283  33.459  27.144   1.308
59958W        W32284  14.835   1.345   4.611
59959W        W32285  22.509  36.367  11.122
59960W        W32286  23.064  37.054  11.605
59961W        W32287   0.489  40.480  11.987
59962W        W32288  33.094  39.498  14.357
59963W        W32289  41.820  21.189  10.461
59964W        W32290  25.501   3.446  14.762
59965W        W32291   1.950  19.665  14.371
59966W        W32292   8.193  35.427  13.456
59967W        W32293  35.854   5.286  12.359
59968W        W32294  28.459  36.550  11.057
59969W        W32295  26.663  22.607   1.369
59970W        W32296  44.490  14.253   0.318
59971W        W32297  34.951  22.719   0.965
59972W        W32298  14.273  43.511   1.275
59973W        W32299  41.385   6.874  14.766
59974W        W32300   2.941   3.939  10.407
59975W        W32301  16.112  12.781  11.467
59976W        W32302  33.918  39.982  11.557
59977W        W32303  31.605   7.217  13.057
59978W        W32304  41.836  33.479   3.845
59979W        W32305  26.674  32.488  14.420
59980W        W32306  22.248  39.530   0.297
59981W        W32307  24.719  29.052  13.872
59982W        W32308  26.149   6.291   3.791
59983W        W32309  16.750  24.131   3.367
59984W        W32310   3.765  41.790  11.065
59985W        W32311  42.792  28.013   3.820
59986W        W32312  36.004  35.971   9.463
59987W        W32313  27.490  31.434   1.288
59988W        W32314  10.338  37.009   0.885
59989W        W32315  31.042  26.167   3.288
59990W        W32316  40.494  43.925   2.226
59991W        W32317  38.438  43.485   2.740
59992W        W32318  24.137  10.338  13.434
59993W        W32319  37.539  12.668   1.216
59994W        W32320  36.854  31.967   0.398
59995W        W32321   1.362  15.621   2.818
59996W        W32322  12.280   1.248   3.718
59997W        W32323  43.828   8.858   0.791
59998W        W32324  17.738  39.438   4.775
59999W        W32325  44.979  18.123   4.121
60000W        W32326  43.912  22.167   0.887
60001W        W32327   5.857  19.080  12.025
60002W        W32328  41.849  12.780  13.054
60003W        W32329  23.059   9.771  13.359
60004W        W32330  20.580  14.659   2.185
60005W        W32331  30.969  36.864  14.785
60006W        W32332  15.579  10.348   4.757
60007W        W32333  10.706  41.411   1.922
60008W        W32334   1.961  37.433  10.421
60009W        W32335  32.612  31.622  10.516
60010W        W32336  36.949   9.655  13.955
60011W        W32337  38.469   3.756  12.037
60012W        W32338  30.596   8.353  14.891
60013W        W32339  38.016   5.275  11.951
60014W        W32340   4.271  38.074  11.048
60015W        W32341  12.355  40.466   3.869
60016W        W32342  31.921  43.326  14.021
60017W        W32343  15.702  19.186  12.359
60018W        W32344  10.673  10.852   2.799
60019W        W32345  13.238  39.020  13.471
60020W        W32346  19.595  38.487   2.789
60021W        W32347  30.470  41.431   1.226
60022W        W32348   0.969  33.433  10.578
60023W        W32349   6.731  33.049   3.659
60024W        W32350  21.599   1.393   3.759
60025W        W32351   5.835  34.514  11.123
60026W        W32352  35.054   1.763  14.289
60027W        W32353   4.344  14.663  11.415
60028W        W32354  36.033  37.403  13.899
60029W        W32355  20.218   6.764  10.960
60030W        W32356  42.476   4.802  10.571
60031W        W32357   3.782  15.311  10.889
60032W        W32358  18.554  41.030  13.512
60033W        W32359  44.790  30.982   4.704
60034W        W32360   9.797  21.160  11.934
60035W        W32361  20.545  30.612  12.386
60036W        W32362   3.850  23.115   3.632
60037W        W32363  44.352  26.533  14.780
60038W        W32364  39.340  38.353  12.898
60039W        W32365  13.760  32.133  13.957
60040W        W32366  30.507  12.316  14.947
60041W        W32367  23.557  43.949   1.271
60042W        W32368   7.811  33.082  11.915
60043W        W32369  33.441  40.898  13.364
60044W        W32370  39.875  20.037  14.304
60045W        W32371  28.118   4.733  11.113
60046W        W32372   6.353  26.478   1.924
60047W        W32373  33.077  11.289  14.809
60048W        W32374  11.240   3.354   4.117
60049W        W32375  39.479  22.551   2.208
60050W        W32376   5.231  39.438   3.782
60051W        W32377  37.008  39.865   3.250
60052W        W32378  35.595  13.831   3.263
60053W        W32379  32.549   6.848   0.823
60054W        W32380  27.522   7.763  10.566
60055W        W32381   5.774  33.108  14.364
60056W        W32382  19.595  14.659   0.294
60057W        W32383  42.333  33.902   4.663
60058W        W32384  19.686  43.427   4.742
60059W        W32385   9.848  27.467   1.332
60060W        W32386   7.738  38.344   3.662
60061W        W32387  19.232  31.989  11.975
60062W        W32388  21.742  18.150  13.819
60063W        W32389  37.906   7.174  12.398
60064W        W32390  28.671   9.356  14.968
60065W        W32391  44.285   4.248  14.399
60066W        W32392   1.753   1.972   5.221
60067W        W32393   9.731  15.265  11.063
60068W        W32394  30.485  42.295  12.824
60069W        W32395   3.269  19.636   2.218
60070W        W32396  37.561  15.603   1.817
60071W        W32397  23.554  33.112  13.311
60072W        W32398  44.349  37.068  10.936
60073W        W32399  43.906  10.827  11.123
60074W        W32400  41.034  27.653  13.908
60075W        W32401   2.887   1.291  13.855
60076W        W32402  40.864  43.370  14.021
60077W        W32403   0.409  20.727   2.703
60078W        W32404  32.112  16.072   2.730
60079W        W32405  12.258  26.587   1.850
60080W        W32406  32.468  11.137  14.495
60081W        W32407  37.908  41.306  11.057
60082W        W32408  16.809   3.888   4.674
60083W        W32409  19.192  38.402   1.761
60084W        W32410  37.545  20.590  14.294
60085W        W32411  21.204  30.099  14.789
60086W        W32412  19.225  31.057  10.522
60087W        W32413  13.291  39.013  14.852
60088W        W32414  15.109   5.710  12.392
60089W        W32415  13.707   6.706   3.667
60090W        W32416  41.314  30.024  14.867
60091W        W32417  17.657  32.104  12.434
60092W        W32418   6.819  37.879   3.860
60093W        W32419   1.375   1.904  14.024
60094W        W32420   9.757  44.424   0.861
60095W        W32421   3.301  42.410   3.189
60096W        W32422  37.897   8.744   4.676
60097W        W32423  35.962  43.407  12.874
60098W        W32424  39.964   0.442   2.787
60099W        W32425  16.606  12.669  12.857
60100W        W32426  36.351  37.852   1.867
60101W        W32427  28.596   9.287  13.372
60102W        W32428   6.833  21.095  10.487
60103W        W32429  27.521  37.910  14.300
60104W        W32430  42.980  20.137  13.802
60105W        W32431  35.464  28.676  13.376
60106W        W32432   4.705  28.090  12.378
60107W        W32433  27.542  21.139   3.745
60108W        W32434  11.319  18.296  12.559
60109W        W32435   1.297   8.730   5.122
60110W        W32436  35.095  40.908   0.786
60111W        W32437  10.856  13.310   2.775
60112W        W32438  32.421  18.680  14.980
60113W        W32439  23.056  42.876  13.357
60114W        W32440  29.473  32.967   1.402
60115W        W32441  41.802  40.033   2.230
60116W        W32442   1.449  35.990  12.906
60117W        W32443   0.860  12.117   0.879
60118W        W32444  13.252  42.291  11.103
60119W        W32445  31.519  27.013   1.413
60120W        W32446   2.743  20.576  10.138
60121W        W32447   4.356   1.829   4.676
60122W        W32448   5.299  31.104   4.269
60123W        W32449  21.153   7.390   0.326
60124W        W32450  20.073   8.279   0.962
60125W        W32451  34.065  35.471   4.715
60126W        W32452  17.306  38.561   1.878
60127W        W32453  42.931  20.172   3.871
60128W        W32454  14.630  27.183  12.012
60129W        W32455  12.679  37.835  10.903
60130W        W32456   4.893  40.426   0.429
60131W        W32457  10.861  38.937  13.383
60132W        W32458  20.729  38.329  11.128
60133W        W32459  44.258  21.043  12.454
60134W        W32460   2.247  44.468   5.102
60135W        W32461  40.025  14.159  12.354
60136W        W32462   6.676  13.296  10.526
60137W        W32463  13.141   9.356  14.892
60138W        W32464  11.269  17.644  14.453
60139W        W32465   3.896  27.497  10.916
60140W        W32466   1.471  32.970   3.699
60141W        W32467  29.527  29.013   0.411
60142W        W32468  13.649  29.033  14.888
60143W        W32469  16.149   8.751   1.253
60144W        W32470  43.381  44.417  11.972
60145W        W32471   3.431  11.642  11.413
60146W        W32472  11.248  30.433   4.274
60147W        W32473  34.399  27.006  11.118
60148W        W32474  31.040  26.648  13.996
60149W        W32475  24.571  17.222   5.614
60150W        W32476  30.920  30.958   4.336
60151W        W32477  30.618  15.694   4.680
60152W        W32478  22.569   1.424  14.303
60153W        W32479   4.910  40.361  12.573
60154W        W32480   1.469  40.502   4.129
60155W        W32481  20.139  42.795   4.789
60156W        W32482  19.121   5.364   4.323
60157W        W32483  44.011  10.366   1.383
60158W        W32484  20.090  11.850   2.761
60159W        W32485  24.199  34.933  13.401
60160W        W32486   8.694   5.854  13.546
60161W        W32487  18.188   6.870  10.588
60162W        W32488  14.603  34.455   5.263
60163W        W32489   1.827  38.008  10.524
60164W        W32490  32.011  33.510   3.224
60165W        W32491  11.752  37.899  13.844
60166W        W32492   1.346   3.917   9.574
60167W        W32493  37.363  16.785  11.431
60168W        W32494  37.903   0.438   1.788
60169W        W32495  17.716  29.124  10.923
60170W        W32496   9.200  21.702  14.292
60171W        W32497  41.519   4.943  14.379
60172W        W32498   2.322  41.411   2.290
60173W        W32499   5.406  35.389  13.369
60174W        W32500   7.691  23.704  13.414
60175W        W32501  27.513  16.751  14.828
60176W        W32502  25.176  41.833  12.011
60177W        W32503   3.285  32.885  10.150
60178W        W32504  23.105  26.057   2.783
60179W        W32505  26.628  16.096   4.235
60180W        W32506  30.539  30.157   2.701
60181W        W32507  10.695  14.757   3.215
60182W        W32508  15.315  28.981   4.621
60183W        W32509   6.786  32.449  13.361
60184W        W32510  43.946  20.054   3.303
60185W        W32511  22.685   7.870   5.284
60186W        W32512  17.176  33.391  12.858
60187W        W32513  40.992  37.049   2.249
60188W        W32514  30.432  25.687  14.942
60189W        W32515  41.348  13.218  10.563
60190W        W32516  39.058  24.604  12.569
60191W        W32517  11.354  27.553   1.269
60192W        W32518  32.507  16.102   2.202
60193W        W32519  13.337   6.281   4.291
60194W        W32520  23.036  23.096  14.899
60195W        W32521  29.592  43.449  13.037
60196W        W32522  19.533  32.555  14.401
60197W        W32523  18.766  15.135  14.376
60198W        W32524  24.119   7.256   1.322
60199W        W32525  21.121  16.608   2.285
60200W        W32526  40.526  41.936   3.841
60201W        W32527  11.643  26.155   1.906
60202W        W32528  30.618  27.186   0.415
60203W        W32529  41.439  21.534  10.562
60204W        W32530   3.906  36.987   4.158
60205W        W32531  12.166  43.497  13.033
60206W        W32532  34.925   2.460   2.234
60207W        W32533  15.274  32.039   3.200
60208W        W32534  42.414  31.471  12.414
60209W        W32535  11.807  24.135  12.013
60210W        W32536   6.737  35.026  10.918
60211W        W32537  41.467  41.436  11.440
60212W        W32538  19.633  36.927   1.434
60213W        W32539  31.476  43.308   1.382
60214W        W32540  29.094  39.523  10.616
60215W        W32541   1.279  33.407  12.096
60216W        W32542  27.686  31.426   3.832
60217W        W32543  18.278  37.936  12.067
60218W        W32544   5.812  42.943   0.320
60219W        W32545  35.081  36.867   0.434
60220W        W32546   1.437   3.361   5.131
60221W        W32547   4.221  23.061   5.244
60222W        W32548  33.413   5.372  13.326
60223W        W32549  30.608  19.753   1.372
60224W        W32550  10.782  10.686   0.850
60225W        W32551  43.836   7.872  13.399
60226W        W32552  44.823  24.615   1.418
60227W        W32553  39.462  17.734  13.538
60228W        W32554  27.637  19.563   0.325
60229W        W32555  43.484  13.176   0.852
60230W        W32556  37.486  36.425   4.248
60231W        W32557  31.484  21.180  13.821
60232W        W32558  33.061  20.161   2.347
60233W        W32559  31.981  37.975  10.547
60234W        W32560  18.167  21.111   1.243
60235W        W32561  27.975   6.798  11.991
60236W        W32562  30.545  44.370  14.278
60237W        W32563   4.934  24.485   4.672
60238W        W32564  19.665  36.357   0.777
60239W        W32565  41.352  16.132  12.460
60240W        W32566  44.810  24.040   4.173
60241W        W32567   1.438  11.328   4.662
60242W        W32568  17.280  27.053   1.794
60243W        W32569   9.817   3.259  11.393
60244W        W32570   5.439  31.959   1.729
60245W        W32571   2.263   1.826   0.791
60246W        W32572   0.854  44.922   0.939
60247W        W32573  36.893  38.065   4.700
60248W        W32574   9.308  20.128  13.504
60249W        W32575  25.526  17.564  12.027
60250W        W32576  29.937  37.491  13.448
60251W        W32577  43.389  15.194   2.405
60252W        W32578  35.062  17.676   2.665
60253W        W32579   7.414  13.683   0.371
60254W        W32580  29.029  14.123  10.922
60255W        W32581  11.161   9.392   0.829
60256W        W32582  24.523  11.736   0.799
60257W        W32583   2.376  21.250  14.385
60258W        W32584   5.398  41.356  14.961
60259W        W32585  25.577   3.843  13.364
60260W        W32586  33.036  19.718  12.918
60261W        W32587  43.346  23.516  10.620
60262W        W32588  26.499  38.038  13.934
60263W        W32589   1.815  12.163  12.493
60264W        W32590   4.829  17.782  11.092
60265W        W32591  35.881   9.716  13.486
60266W        W32592  38.453  13.754   0.409
60267W        W32593  38.903  26.028   1.730
60268W        W32594  31.102   8.358   0.747
60269W        W32595  14.239   8.401  13.883
60270W        W32596  12.200   7.234  10.587
60271W        W32597   3.321  34.871  12.833
60272W        W32598  15.579   9.209   1.712
60273W        W32599  18.731  30.011  12.852
60274W        W32600   1.967  14.638   3.648
60275W        W32601  20.530  42.484  10.593
60276W        W32602  30.435  18.765   0.900
60277W        W32603  26.521  29.071  12.534
60278W        W32604  40.516  28.970  13.044
60279W        W32605  21.534  44.974   3.714
60280W        W32606  16.164  26.032  14.801
60281W        W32607  39.995  29.502  13.373
60282W        W32608   0.807   0.978  11.440
60283W        W32609  21.638  35.567   2.378
60284W        W32610  21.128  14.185  12.081
60285W        W32611  40.394  41.331   4.663
60286W        W32612   6.385  25.068   2.899
60287W        W32613   7.877   4.706  11.480
60288W        W32614  20.103  16.207  12.372
60289W        W32615  42.308  29.039  14.908
60290W        W32616  35.506  33.443  13.496
60291W        W32617  36.959  25.657   4.203
60292W        W32618  42.472  11.332   2.739
60293W        W32619  15.262  31.992  10.586
60294W        W32620  31.517   6.676   3.228
60295W        W32621   9.668  40.811   1.810
60296W        W32622  44.285  13.738   1.740
60297W        W32623   0.276   7.204   0.307
60298W        W32624  25.530  44.300  14.344
60299W        W32625   0.907   1.908  11.499
60300W        W32626   5.358   8.833  10.941
60301W        W32627  19.651  24.677  12.850
60302W        W32628  15.293  39.400  11.479
60303W        W32629  11.826  42.460  13.413
60304W        W32630  26.124  22.068   3.152
60305W        W32631  12.240   8.754  13.406
60306W        W32632  24.979  34.414  10.494
60307W        W32633  25.021  40.366  13.060
60308W        W32634  39.315   3.267   0.879
60309W        W32635  42.448  15.805  12.022
60310W        W32636  14.286  39.943   4.701
60311W        W32637  15.816  42.980   3.336
60312W        W32638  41.491  27.499  10.978
60313W        W32639  20.664  35.087   0.440
60314W        W32640   0.842   1.384   2.369
60315W        W32641  15.616  29.621  12.344
60316W        W32642  28.654  13.345  11.071
60317W        W32643  17.591  32.958  12.055
60318W        W32644   8.847  16.645  12.444
60319W        W32645   2.940   9.277   4.812
60320W        W32646  30.512  32.975  10.939
60321W        W32647  38.867  28.443   2.875
60322W        W32648  41.039   2.281  12.515
60323W        W32649  39.526  29.079  11.469
60324W        W32650  32.552  17.212   0.950
60325W        W32651  42.427  34.516  10.492
60326W        W32652  29.434  44.876   4.781
60327W        W32653  13.184  25.602   1.705
60328W        W32654  34.105   4.702   9.964
60329W        W32655   3.377  41.915  13.848
60330W        W32656   2.243  35.363   2.334
60331W        W32657  40.324  31.048   4.749
60332W        W32658  39.397   7.699  11.457
60333W        W32659   0.906   9.846   0.292
60334W        W32660  27.142  22.183   3.299
60335W        W32661  30.081  12.618  12.911
60336W        W32662   2.363  12.624  12.519
60337W        W32663   7.372  19.100  13.833
60338W        W32664  21.516   6.417   0.874
60339W        W32665   1.366   6.719   4.184
60340W        W32666  38.823  39.846  13.372
60341W        W32667  44.953  30.504  12.462
60342W        W32668  42.000  20.697  11.926
60343W        W32669  27.498  15.292   2.731
60344W        W32670  20.188  25.665   4.663
60345W        W32671  39.544  36.958  14.885
60346W        W32672  19.174  13.190  14.946
60347W        W32673  23.144  34.987  13.918
60348W        W32674  13.617  39.556   3.665
60349W        W32675  38.389  38.340  11.537
60350W        W32676  29.532  18.561  12.950
60351W        W32677  13.238   9.360  13.513
60352W        W32678  15.795  20.621  14.288
60353W        W32679  39.967  24.559   3.188
60354W        W32680  15.701  29.045   2.737
60355W        W32681  33.504  36.565  11.511
60356W        W32682  19.617  12.208  14.027
60357W        W32683  43.284   9.244   2.248
60358W        W32684  29.955   4.423  13.512
60359W        W32685  35.400  18.650   2.804
60360W        W32686  25.575  22.621   0.775
60361W        W32687   8.277  11.661   2.235
60362W        W32688  20.585   3.393   3.203
60363W        W32689  10.783  35.925  14.021
60364W        W32690  42.823   1.809  12.506
60365W        W32691   7.410  33.521   3.293
60366W        W32692  24.512   3.269  14.464
60367W        W32693  12.857  35.965   3.855
60368W        W32694  36.071  15.092  13.536
60369W        W32695  12.279  34.408   3.632
60370W        W32696  37.549  27.997   2.202
60371W        W32697  24.504  28.574  11.401
60372W        W32698  21.593  30.160   1.910
60373W        W32699  35.052   6.388  14.976
60374W        W32700  18.759  21.121   5.211
60375W        W32701  26.580  30.925  12.343
60376W        W32702  21.550  11.192  11.472
60377W        W32703   8.899  35.394   1.316
60378W        W32704   0.760  11.156   3.742
60379W        W32705  33.481  42.297  14.452
60380W        W32706  15.200  21.039   1.379
60381W        W32707  17.119  37.970   4.833
60382W        W32708  16.155  34.482   4.213
60383W        W32709   5.213  16.791  13.511
60384W        W32710   7.240  38.898  11.455
60385W        W32711   8.779  27.537   4.129
60386W        W32712  36.989  35.031  14.888
60387W        W32713  22.628  16.673   1.716
60388W        W32714  30.650   8.208   2.292
60389W        W32715  42.395  10.329  14.345
60390W        W32716  39.363  15.281  13.358
60391W        W32717  34.046  44.843   0.831
60392W        W32718  34.946  29.583   0.960
60393W        W32719  11.243  40.997   1.898
60394W        W32720  25.970   6.206   1.701
60395W        W32721  15.101  15.824  10.582
60396W        W32722  30.146  39.885  11.086
60397W        W32723  12.847  12.695  14.990
60398W        W32724  28.534  42.405  13.986
60399W        W32725  29.486  25.968   1.786
60400W        W32726  12.639  37.538   3.176
60401W        W32727  23.067  37.852  10.423
60402W        W32728  22.706  10.876  12.376
60403W        W32729  28.027  29.574  14.793
60404W        W32730  28.523  28.675  12.856
60405W        W32731  26.203   8.764   4.120
60406W        W32732  22.217  17.624  10.472
60407W        W32733  18.729  35.518  11.529
60408W        W32734   4.932   3.932  14.338
60409W        W32735  18.782  18.075   3.196
60410W        W32736  14.218  37.002   0.415
60411W        W32737  21.220   3.821   2.830
60412W        W32738  13.215  36.493   0.884
60413W        W32739  33.120   3.739  11.011
60414W        W32740  15.797   9.756  12.976
60415W        W32741   8.202  24.636   0.774
60416W        W32742  17.114  37.421  10.454
60417W        W32743  10.651  14.279   2.810
60418W        W32744  30.440  37.482   4.610
60419W        W32745  38.902  29.061  12.460
60420W        W32746  33.921  33.972   4.802
60421W        W32747  36.384   9.251  12.918
60422W        W32748   9.644  44.954   4.820
60423W        W32749  41.858  26.563  14.395
60424W        W32750   6.884  14.672  11.552
60425W        W32751  14.221   4.921   3.244
60426W        W32752  36.948  42.845   1.823
60427W        W32753   9.871   5.699  11.874
60428W        W32754   6.885  18.286   0.270
60429W        W32755   2.910  11.164  12.979
60430W        W32756  43.944  13.299  14.361
60431W        W32757  29.017  26.139   5.212
60432W        W32758   5.234  42.510  13.417
60433W        W32759  31.921   3.236  13.470
60434W        W32760  28.439  29.127   2.224
60435W        W32761  40.893  14.196   3.299
60436W        W32762  27.995   3.933  10.457
60437W        W32763  21.533  39.537   4.354
60438W        W32764   2.735   2.418   1.371
60439W        W32765  39.816  35.477   0.437
60440W        W32766  11.295  13.685  10.418
60441W        W32767  29.529  36.898  13.952
60442W        W32768  39.812  37.009   4.118
60443W        W32769  25.000  37.411   3.814
60444W        W32770   0.448   2.756   9.968
60445W        W32771   7.899  15.272  13.851
60446W        W32772   0.779  39.362  10.588
60447W        W32773  15.095  12.806  14.417
60448W        W32774   7.300  13.133   1.780
60449W        W32775  28.103  10.156   3.811
60450W        W32776   0.274  12.835  11.889
60451W        W32777  15.659  18.595  10.441
60452W        W32778  20.181  19.740   3.703
60453W        W32779  15.671  39.856  13.937
60454W        W32780   6.898  40.373   3.201
60455W        W32781  11.168  12.818   3.297
60456W        W32782  37.067  34.535  13.390
60457W        W32783  29.123  12.305  14.887
60458W        W32784   7.378   2.738  13.438
60459W        W32785   7.250  31.117   2.775
60460W        W32786  10.690  30.610  14.342
60461W        W32787   1.864  10.252   2.856
60462W        W32788  25.101  36.975   1.211
60463W        W32789  26.033   4.715   3.767
60464W        W32790  23.116  22.019  14.894
60465W        W32791  13.118  32.401   1.825
60466W        W32792  33.100  14.605   0.262
60467W        W32793  31.026  15.138   1.780
60468W        W32794  20.195  28.631  11.878
60469W        W32795  35.944   1.240  13.352
60470W        W32796  27.600  34.932  11.897
60471W        W32797  40.491  31.015   3.281
60472W        W32798  33.911  20.585   1.437
60473W        W32799  18.641  18.607   2.842
60474W        W32800   2.793  17.734   3.642
60475W        W32801   1.792  38.891   2.819
60476W        W32802  33.500  42.458  13.849
60477W        W32803  16.158  33.420   0.415
60478W        W32804  30.921  29.496  11.914
60479W        W32805  12.316   7.810   2.829
60480W        W32806  25.609  36.518  13.810
60481W        W32807   2.467  12.677   4.287
60482W        W32808  20.759  16.081  11.493
60483W        W32809  14.677  39.976   4.798
60484W        W32810   8.249  27.169  11.504
60485W        W32811  11.301  28.095   3.647
60486W        W32812  26.075  17.061  14.496
60487W        W32813   3.951  23.085  13.520
60488W        W32814  22.031  30.091   3.642
60489W        W32815  42.308   0.269  12.432
60490W        W32816  20.659  33.394   4.220
60491W        W32817   2.924  22.642  11.953
60492W        W32818  36.068  10.657  13.929
60493W        W32819   4.246  33.074   3.825
60494W        W32820  26.115  24.672   3.855
60495W        W32821  35.079  39.864  14.466
60496W        W32822  33.982  10.710  12.063
60497W        W32823  10.293  34.087  14.976
60498W        W32824  42.357  30.953   2.902
60499W        W32825   7.722  23.701  13.004
60500W        W32826  43.366  29.054  11.911
60501W        W32827  13.753  28.587  12.087
60502W        W32828  39.916   7.293  12.914
60503W        W32829  12.841  34.080  10.455
60504W        W32830   4.285   2.827   2.789
60505W        W32831  22.095   9.687   4.797
60506W        W32832   1.799  11.643  13.322
60507W        W32833  23.137  43.993  11.995
60508W        W32834  25.101   7.277   1.232
60509W        W32835  19.776  34.612   0.250
60510W        W32836  17.561  16.567   0.913
60511W        W32837  13.238  17.614  13.513
60512W        W32838  20.676  27.048  10.536
60513W        W32839  37.956  17.758   2.333
60514W        W32840  13.145   0.263   0.762
60515W        W32841   3.365  19.580  11.897
60516W        W32842  29.451  32.432   0.847
60517W        W32843  16.229  29.064   1.705
60518W        W32844  38.381  24.980   3.290
60519W        W32845  17.205   1.361   2.851
60520W        W32846   7.348  36.871   4.286
60521W        W32847  44.861   4.304  14.368
60522W        W32848  16.730  37.003   3.746
60523W        W32849  16.625  39.942  12.038
60524W        W32850  44.472  13.685   2.348
60525W        W32851  37.927  14.815   3.703
60526W        W32852  11.373  41.461  11.126
60527W        W32853  40.381  17.256  11.427
60528W        W32854  43.395  38.934   2.245
60529W        W32855   4.314  15.328   0.283
60530W        W32856  39.923  10.704   2.758
60531W        W32857  22.242  10.817  10.626
60532W        W32858   6.908  38.893  10.931
60533W        W32859   6.413  28.100  10.918
60534W        W32860   9.176  21.724   2.222
60535W        W32861   7.182  25.133   2.881
60536W        W32862  20.079  22.565  12.029
60537W        W32863  38.415  26.171  12.867
60538W        W32864  13.226  10.755  11.122
60539W        W32865  10.343  33.090  14.453
60540W        W32866  24.128  13.621   4.150
60541W        W32867  26.668  44.275   1.712
60542W        W32868   9.152  39.008  10.474
60543W        W32869  27.632  11.630  12.350
60544W        W32870  30.011  43.808   1.212
60545W        W32871  42.427  25.982   3.784
60546W        W32872   6.747  23.734   1.709
60547W        W32873  36.440  32.491  12.851
60548W        W32874  19.678  23.501  10.618
60549W        W32875  12.154  24.513  14.470
60550W        W32876  16.265  33.912   3.187
60551W        W32877  24.496  10.737  14.967
60552W        W32878   1.377  30.028  13.051
60553W        W32879  33.487  37.966   0.931
60554W        W32880   1.444  23.986  10.127
60555W        W32881  25.623  23.221  10.506
60556W        W32882   9.164   8.286   4.186
60557W        W32883  38.441  30.995   3.191
60558W        W32884   0.935  17.776   4.227
60559W        W32885  16.094   1.882   4.694
60560W        W32886  38.997  29.006   1.723
60561W        W32887   0.331  34.599   0.404
60562W        W32888   7.769  39.468   2.683
60563W        W32889  35.074  41.477  11.565
60564W        W32890  43.784   7.714  13.799
60565W        W32891  36.573  18.157  14.864
60566W        W32892  19.048  10.376  10.955
60567W        W32893  24.700  36.586   4.705
60568W        W32894   3.723   6.905  13.307
60569W        W32895  19.132  40.488   4.122
60570W        W32896   2.846  19.683  12.464
60571W        W32897  26.472  16.126   0.881
60572W        W32898  37.980  29.162   1.917
60573W        W32899  17.802  22.667   4.644
60574W        W32900  39.884  33.405  12.043
60575W        W32901  18.129   7.777   3.210
60576W        W32902  42.438  11.313  11.044
60577W        W32903  12.211  42.018  14.013
60578W        W32904   5.404  13.130   4.141
60579W        W32905   4.397  41.796   0.753
60580W        W32906  19.714   4.767   4.766
60581W        W32907  23.607  30.048   4.287
60582W        W32908   1.467   3.821  10.015
60583W        W32909  29.099  13.137   4.136
60584W        W32910  33.959  32.047  11.038
60585W        W32911  17.241   4.799   2.359
60586W        W32912   6.344   2.470   0.783
60587W        W32913  31.462  41.841  14.957
60588W        W32914  12.808  33.394   1.932
60589W        W32915  26.086   5.874   2.852
60590W        W32916  17.195  42.785   2.713
60591W        W32917  44.455  17.270  12.973
60592W        W32918  14.684  15.135  12.484
60593W        W32919  11.368   7.239   2.367
60594W        W32920  40.473  38.831   1.850
60595W        W32921  35.533  10.231   3.711
60596W        W32922   2.937  11.689  14.808
60597W        W32923  31.510   5.797  11.609
60598W        W32924   9.780  18.638   2.799
60599W        W32925   4.770  19.684  12.427
60600W        W32926  10.762  18.244  13.974
60601W        W32927  30.524   5.744   2.702
60602W        W32928  32.121  42.462   2.373
60603W        W32929  16.797  15.715  12.420
60604W        W32930  10.265   9.163   4.238
60605W        W32931  14.746  20.642  14.997
60606W        W32932  22.520  18.208   2.708
60607W        W32933  21.523  43.391  14.991
60608W        W32934  41.474   8.727  14.949
60609W        W32935  36.556  40.513  13.326
60610W        W32936   4.809  19.281  13.322
60611W        W32937  18.173   8.317  11.997
60612W        W32938  35.477  36.909   0.840
60613W        W32939  31.119  27.484   0.456
60614W        W32940   7.306  30.027   3.193
60615W        W32941   2.262   8.698  13.457
60616W        W32942  37.085  28.060  13.813
60617W        W32943  44.489  27.464  12.089
60618W        W32944  35.501  32.032   3.787
60619W        W32945  25.574  22.184   4.236
60620W        W32946   7.389   7.793   2.358
60621W        W32947  43.915  22.518  11.972
60622W        W32948  32.500  42.490   3.714
60623W        W32949  26.526  29.550   3.854
60624W        W32950  21.207  36.027  14.802
60625W        W32951  32.119  37.927   2.732
60626W        W32952   5.919  20.708   2.754
60627W        W32953   7.307   3.844   2.715
60628W        W32954  14.700   3.289  14.409
60629W        W32955  12.782  40.428  10.990
60630W        W32956  20.651  10.692  14.825
60631W        W32957   8.327  13.185   4.325
60632W        W32958  44.259  15.716   5.146
60633W        W32959   8.860  43.416  14.977
60634W        W32960  37.474   7.333   4.627
60635W        W32961  41.416  33.904   3.677
60636W        W32962  39.370  22.165  14.390
60637W        W32963   9.369  33.386   0.369
60638W        W32964  35.585  14.822  14.372
60639W        W32965  34.964  19.750  13.355
60640W        W32966  39.045  33.556  13.018
60641W        W32967  39.051  16.232  10.475
60642W        W32968  29.985  33.623   0.353
60643W        W32969  28.136  38.430  14.011
60644W        W32970  27.105  37.982   1.843
60645W        W32971  22.538  41.023  11.599
60646W        W32972  21.125  36.459  10.637
60647W        W32973  44.417  39.517  12.389
60648W        W32974  32.893  32.429   1.744
60649W        W32975   9.839  16.766  13.959
60650W        W32976  27.983   4.924  13.924
60651W        W32977  36.420  13.663   2.853
60652W        W32978  14.145  17.142   3.179
60653W        W32979  34.050  28.948   3.188
60654W        W32980   8.194  32.451   1.711
60655W        W32981  35.505  21.077  14.275
60656W        W32982  37.908  15.143   3.370
60657W        W32983  30.577  32.396   3.162
60658W        W32984  31.449  24.193   3.856
60659W        W32985   0.306   3.945  11.544
60660W        W32986  36.042   1.382  14.027
60661W        W32987  39.549   8.721  12.054
60662W        W32988  35.032   2.252  11.907
60663W        W32989   3.353  24.720   1.316
60664W        W32990  44.827  38.068  14.949
60665W        W32991  23.663   1.744   1.802
60666W        W32992  26.660  23.095  11.967
60667W        W32993  24.531   8.324   0.281
60668W        W32994  22.042  30.652   0.847
60669W        W32995   1.781  38.537   1.214
60670W        W32996  40.837  14.299   5.133
60671W        W32997  27.985  44.907   1.902
60672W        W32998  19.222  26.106   1.324
60673W        W32999  26.619   1.392   1.892
60674W        W33000  28.482  32.591  10.549
60675W        W33001  35.029  29.109  12.854
60676W        W33002   2.386   5.202  13.057
60677W        W33003  30.578  10.176   3.219
60678W        W33004  16.714  23.173   3.242
60679W        W33005  20.107  17.651  11.372
60680W        W33006  22.036  42.381   1.819
60681W        W33007  14.245  10.729   0.400
60682W        W33008  34.871   4.362   3.639
60683W        W33009  24.073  36.070  11.019
60684W        W33010   7.720  24.491   4.192
60685W        W33011  30.980  13.206  10.428
60686W        W33012  15.264  30.027   4.780
60687W        W33013  26.153  16.229   3.663
60688W        W33014  25.191  16.681  11.409
60689W        W33015  33.895  17.096   0.453
60690W        W33016  23.603  32.089  11.522
60691W        W33017  34.882  12.839   2.270
60692W        W33018  25.486  21.086   3.317
60693W        W33019  33.951  13.721  13.982
60694W        W33020   0.753  39.424  12.899
60695W        W33021   5.719   6.324  13.950
60696W        W33022  14.280   1.299   0.918
60697W        W33023  32.493  26.693  14.471
60698W        W33024  34.423  37.529  12.887
60699W        W33025  14.216  15.154   4.172
60700W        W33026  16.300  42.395  10.546
60701W        W33027  42.852  27.057   3.226
60702W        W33028   5.408   0.484   0.430
60703W        W33029  24.193  23.052  12.063
60704W        W33030  38.992  44.306  10.476
60705W        W33031  23.516  12.268   2.211
60706W        W33032   2.457   0.965   0.310
60707W        W33033  16.717   5.848   1.397
60708W        W33034   7.867  22.171   3.217
60709W        W33035  18.614   4.863  14.995
60710W        W33036  23.217  20.751   2.888
60711W        W33037  17.144  23.712  14.997
60712W        W33038  37.974  30.649  11.029
60713W        W33039  26.502  23.714  12.891
60714W        W33040  29.028  32.560  12.839
60715W        W33041  28.013  19.613   3.710
60716W        W33042   7.404  23.166  11.414
60717W        W33043   4.423  26.609   0.849
60718W        W33044  41.918   2.921  12.420
60719W        W33045  25.470  30.601  12.525
60720W        W33046  29.047  15.249  10.954
60721W        W33047  35.963  19.554   3.333
60722W        W33048  21.125  30.523  10.109
60723W        W33049  36.431  29.451  11.122
60724W        W33050   8.759  28.440  13.317
60725W        W33051  23.210  17.606   9.531
60726W        W33052  28.956  20.631  14.871
60727W        W33053  20.269  34.539  11.513
60728W        W33054   0.937   7.368  14.907
60729W        W33055  25.992  35.419  11.490
60730W        W33056  33.938  33.594  11.113
60731W        W33057  27.619  17.709   4.731
60732W        W33058  20.109  41.332  13.333
60733W        W33059  22.618  36.415   4.230
60734W        W33060  11.216   6.407   4.181
60735W        W33061  26.190  40.345  14.944
60736W        W33062   7.326  14.798   1.327
60737W        W33063  25.515  39.560   9.530
60738W        W33064  19.555   7.397   2.235
60739W        W33065   2.445   3.923   0.809
60740W        W33066  39.473  38.884   2.791
60741W        W33067  25.676   1.860   3.346
60742W        W33068  25.482  34.941  11.513
60743W        W33069   8.800  41.804  11.404
60744W        W33070  36.484  20.611  10.511
60745W        W33071  30.519  27.616   2.305
60746W        W33072   5.692  35.531  12.864
60747W        W33073  26.057  23.524  13.525
60748W        W33074  11.239  30.151  13.989
60749W        W33075  38.358  38.897  14.471
60750W        W33076  31.550  15.582  12.089
60751W        W33077  40.322  13.635   4.772
60752W        W33078   1.347  32.548   2.810
60753W        W33079  39.907   8.316  13.854
60754W        W33080  42.442  13.161  13.937
60755W        W33081  21.615  27.052  14.797
60756W        W33082   0.929  37.576  14.922
60757W        W33083  27.151   8.867  14.958
60758W        W33084  12.782  23.571   1.332
60759W        W33085  38.340  26.632   1.736
60760W        W33086  28.636   4.836  11.603
60761W        W33087   6.740  25.096  12.972
60762W        W33088  25.495  23.567   9.948
60763W        W33089  44.456  22.236   1.833
60764W        W33090  39.980   2.399  10.553
60765W        W33091  38.019  11.294   0.799
60766W        W33092  32.949   1.381  14.775
60767W        W33093  37.951  43.284   2.324
60768W        W33094  19.726  23.563   1.405
60769W        W33095  43.380  38.043   1.729
60770W        W33096  20.049  18.174   3.735
60771W        W33097  31.444   1.441   3.835
60772W        W33098  11.296   2.387   0.818
60773W        W33099   7.853  43.801  14.354
60774W        W33100  29.038   2.374   1.227
60775W        W33101  29.156   7.825   1.782
60776W        W33102  42.314   8.786   0.302
60777W        W33103  11.161  23.094   2.393
60778W        W33104   9.646   2.344   4.752
60779W        W33105  34.371  38.525  14.498
60780W        W33106  28.575  21.246  14.857
60781W        W33107  21.027  31.599   4.149
60782W        W33108   5.818  34.393   3.181
60783W        W33109  29.429   4.883  13.372
60784W        W33110  17.670  10.796  14.840
60785W        W33111  41.401   5.877   0.306
60786W        W33112  20.112  44.863  10.933
60787W        W33113  23.493   5.754   1.430
60788W        W33114  28.984  33.950   1.354
60789W        W33115   9.737  42.406   2.767
60790W        W33116  20.108   4.705  11.474
60791W        W33117  19.724  17.637  10.411
60792W        W33118   8.249  39.864  10.607
60793W        W33119  32.432  29.060   2.795
60794W        W33120   6.767  39.060  12.033
60795W        W33121  35.462  42.295   1.383
60796W        W33122  41.925   6.717  12.027
60797W        W33123   8.757  37.994  14.880
60798W        W33124  11.270  11.818  13.371
60799W        W33125  28.961  18.259  14.386
60800W        W33126   2.814   5.804   3.321
60801W        W33127  32.534  28.074  12.557
60802W        W33128  17.096  14.826  13.339
60803W        W33129  12.802  14.624   4.761
60804W        W33130  27.541  38.510   3.303
60805W        W33131  24.057  38.023  10.461
60806W        W33132  33.581  43.411   0.316
60807W        W33133  35.487  23.563  14.907
60808W        W33134  37.506  15.798  11.040
60809W        W33135  29.585   5.195   1.300
60810W        W33136   6.679  25.039  11.877
60811W        W33137  40.919  28.564   3.750
60812W        W33138  37.049  19.059  12.387
60813W        W33139   7.225  13.639  13.337
60814W        W33140  39.056  34.479  13.809
60815W        W33141  35.391  29.633   0.741
60816W        W33142  36.438   9.151  14.503
60817W        W33143  37.421  18.750   4.349
60818W        W33144  15.139  27.522   4.832
60819W        W33145   2.904  40.819  12.027
60820W        W33146  19.692  41.515  11.443
60821W        W33147   9.696   8.799  12.948
60822W        W33148  39.540  35.982   0.349
60823W        W33149  18.757  37.520  10.132
60824W        W33150  16.185   2.300   2.829
60825W        W33151  44.450  15.782  13.412
60826W        W33152  30.584  16.210   3.308
60827W        W33153  23.077  40.826  13.908
60828W        W33154  19.264  39.926  11.564
60829W        W33155   1.339  43.465   0.741
60830W        W33156  14.119   0.286   1.345
60831W        W33157   0.821   1.893   3.286
60832W        W33158  29.556  24.670   0.264
60833W        W33159   2.413  40.518   0.730
60834W        W33160  12.215  30.472  13.407
60835W        W33161  37.072   8.393  10.643
60836W        W33162  33.478  15.665   9.998
60837W        W33163  43.994  22.736   1.316
60838W        W33164  10.213  34.927   4.767
60839W        W33165  36.533  19.151   4.238
60840W        W33166  16.088  35.488  11.978
60841W        W33167  22.689  35.043   3.188
60842W        W33168   0.791  28.985  10.502
60843W        W33169  33.042   7.714   3.730
60844W        W33170  31.137  10.256   3.170
60845W        W33171   4.386   6.742   4.789
60846W        W33172  18.246   2.270  14.468
60847W        W33173   2.752  26.198   3.229
60848W        W33174  35.980  18.735  12.856
60849W        W33175  27.512  43.834   0.915
60850W        W33176  18.599   9.183   1.366
60851W        W33177  22.698  39.516  13.862
60852W        W33178  34.570  16.581  13.493
60853W        W33179  29.549   7.206  12.465
60854W        W33180  31.113  37.917   3.812
60855W        W33181   4.400  28.179   2.372
60856W        W33182   8.873  16.596   1.263
60857W        W33183  33.101   8.654  14.914
60858W        W33184  14.594  37.018   2.233
60859W        W33185  10.354  34.608  12.551
60860W        W33186  44.499  16.179   2.397
60861W        W33187  37.382  24.681   0.740
60862W        W33188  22.743  28.676   1.377
60863W        W33189  16.654  39.018   3.809
60864W        W33190  29.615  15.693  12.859
60865W        W33191  13.118  20.686   0.332
60866W        W33192  15.587  17.178   0.278
60867W        W33193   0.463  18.703  12.869
60868W        W33194  43.849  43.827   0.837
60869W        W33195  39.893  32.096   1.219
60870W        W33196  26.122   6.896  11.065
60871W        W33197   3.924   3.909   4.600
60872W        W33198  34.876  14.823   2.794
60873W        W33199  40.390  41.872  14.287
60874W        W33200  41.467  14.779   2.680
60875W        W33201   9.647  35.895  12.406
60876W        W33202  12.246  40.040   2.339
60877W        W33203  36.465   2.763  12.420
60878W        W33204  41.841  12.199  10.922
60879W        W33205  33.033  19.777   3.224
60880W        W33206  34.502  38.391  12.865
60881W        W33207  40.472   7.286   3.318
60882W        W33208  22.631  30.938  11.476
60883W        W33209  26.562  14.599  11.537
60884W        W33210   2.451  30.442  13.981
60885W        W33211  26.535  14.290  14.946
60886W        W33212  41.462  23.727   3.659
60887W        W33213  26.209   5.428   4.147
60888W        W33214   3.242   9.798  14.990
60889W        W33215  39.947  41.367   0.251
60890W        W33216  44.505  15.729   4.225
60891W        W33217  17.079  13.194  10.928
60892W        W33218  19.209   7.261   0.933
60893W        W33219  33.986  13.668   2.703
60894W        W33220  42.297  36.544   3.279
60895W        W33221  40.356  25.568   0.925
60896W        W33222  32.031  19.281   4.209
60897W        W33223  24.061  14.662   1.770
60898W        W33224  11.229  28.051   1.794
60899W        W33225  38.497  10.835   5.188
60900W        W33226  20.589   4.205  10.617
60901W        W33227   3.713  40.992  14.796
60902W        W33228  37.909  21.180  11.568
60903W        W33229  36.868  32.394   4.290
60904W        W33230  17.078   1.429   0.944
60905W        W33231  33.600  15.606   3.180
60906W        W33232  19.042  43.995  14.374
60907W        W33233  43.887  27.634   4.319
60908W        W33234  17.675  28.094  12.039
60909W        W33235  27.510  23.706   4.197
60910W        W33236  27.445   3.380  10.490
60911W        W33237  30.125   4.909   1.858
60912W        W33238   3.731  41.850  13.971
60913W        W33239  28.651  42.330   1.908
60914W        W33240   2.230  27.156  11.072
60915W        W33241   5.756  31.152   1.876
60916W        W33242   6.913  21.682   0.443
60917W        W33243  27.067  31.454   1.712
60918W        W33244  27.580   1.809   4.651
60919W        W33245  35.917  16.808   1.928
60920W        W33246  35.518  17.626   3.791
60921W        W33247  29.981  20.678   0.414
60922W        W33248  33.073  33.105  13.447
60923W        W33249  22.048  44.269   4.230
60924W        W33250  11.202   2.864   4.783
60925W        W33251  14.625  42.911   0.266
60926W        W33252  44.872   9.344   2.765
60927W        W33253  28.050  32.425   1.817
60928W        W33254  21.638  10.189  12.493
60929W        W33255   7.768  20.041  13.994
60930W        W33256  31.625  38.017   2.666
60931W        W33257   7.812  30.018   2.696
60932W        W33258  10.698  41.535   0.254
60933W        W33259   9.151   7.900   1.696
60934W        W33260  17.764  43.914   3.638
60935W        W33261   3.285  31.971   5.163
60936W        W33262  30.151  26.529  14.864
60937W        W33263  40.814  42.021  12.043
60938W        W33264  34.025  35.463   3.759
60939W        W33265   2.960  43.506   1.346
60940W        W33266  31.521  36.858  11.859
60941W        W33267  33.938  19.245  11.114
60942W        W33268  13.660   9.725   4.198
60943W        W33269   4.390  11.706  10.159
60944W        W33270  25.514  29.157   3.257
60945W        W33271  34.592  12.280  10.619
60946W        W33272  16.797  34.910  13.858
60947W        W33273  19.137   8.329   3.358
60948W        W33274   9.237  28.541  11.896
60949W        W33275  17.131  34.559   3.189
60950W        W33276  40.369  12.325   3.294
60951W        W33277  28.558  32.537  14.435
60952W        W33278  13.212   2.323  14.802
60953W        W33279  22.722  35.988   2.381
60954W        W33280  25.679  29.603   1.708
60955W        W33281  26.698  39.920  12.058
60956W        W33282  17.202   3.863  12.579
60957W        W33283  12.619  20.137   1.919
60958W        W33284  30.466   2.288   4.725
60959W        W33285  16.150  23.627   1.224
60960W        W33286  36.427  17.716  13.856
60961W        W33287  39.046  42.431   0.479
60962W        W33288  40.491  26.677  13.834
60963W        W33289  40.406  17.111  12.023
60964W        W33290  18.549  23.624   4.280
60965W        W33291   2.229   6.388   2.841
60966W        W33292  31.478  28.186   0.408
60967W        W33293  21.059  21.250  11.039
60968W        W33294  35.886   8.755   0.860
60969W        W33295  10.265  36.543  10.631
60970W        W33296  22.079  44.828  13.445
60971W        W33297  21.219  28.065  11.496
60972W        W33298  31.556  12.795  11.880
60973W        W33299  14.167   9.741   2.306
60974W        W33300  18.155   0.438  13.353
60975W        W33301  39.998  19.110   4.272
60976W        W33302  14.670  31.458   3.369
60977W        W33303  23.210   6.826   1.411
60978W        W33304  35.381  19.565  14.918
60979W        W33305  11.349  10.659  14.350
60980W        W33306  24.987   1.398  13.450
60981W        W33307  38.011  21.565  14.826
60982W        W33308  22.242   7.748  13.945
60983W        W33309  26.961  15.823  13.849
60984W        W33310   6.860   7.726   4.702
60985W        W33311  26.561  25.168  13.891
60986W        W33312   6.826  44.288  14.996
60987W        W33313  21.520  23.701  12.995
60988W        W33314  33.431   4.934   4.294
60989W        W33315  43.805  15.647  11.970
60990W        W33316  13.192  39.961  11.491
60991W        W33317  12.753  33.390  10.958
60992W        W33318  36.556  16.705   3.255
60993W        W33319  24.226  37.339   5.657
60994W        W33320   8.752   9.769  10.943
60995W        W33321  13.217  22.629   2.859
60996W        W33322  14.641  25.073  13.039
60997W        W33323  13.266  35.040   0.250
60998W        W33324  27.998  13.698  13.353
60999W        W33325   3.934  44.962  13.010
61000W        W33326  25.556  18.138   0.476
61001W        W33327   7.755  41.469  11.910
61002W        W33328  29.045  20.542   0.354
61003W        W33329  24.678  44.941   3.768
61004W        W33330  22.746  21.676  11.947
61005W        W33331  43.311  30.516   2.341
61006W        W33332  11.188  14.275  12.996
61007W        W33333  15.668  14.166   3.205
61008W        W33334  18.548  23.654  13.429
61009W        W33335  38.851  22.093   2.855
61010W        W33336  39.434   1.379   1.835
61011W        W33337   5.870  15.616   0.729
61012W        W33338  29.972  41.960   4.290
61013W        W33339   4.357   8.319   4.185
61014W        W33340  19.233   3.332  13.845
61015W        W33341  41.394  21.671  14.414
61016W        W33342  26.621  23.999  12.088
61017W        W33343   8.379  27.043   0.459
61018W        W33344  42.791   4.316  13.371
61019W        W33345  12.143  22.672  13.348
61020W        W33346  10.846   0.803  11.580
61021W        W33347  32.920  33.989  13.974
61022W        W33348  36.889   3.284  11.973
61023W        W33349   3.947   7.409   4.703
61024W        W33350   8.308  23.598   1.863
61025W        W33351  34.040  24.531   4.281
61026W        W33352  17.290  20.547  13.859
61027W        W33353  31.962   0.462   4.720
61028W        W33354   3.838   9.651  14.482
61029W        W33355  42.014  19.040   1.380
61030W        W33356  29.954  40.352  14.387
61031W        W33357   3.805  30.121  10.630
61032W        W33358  39.370   4.248  13.486
61033W        W33359  10.213  31.469   0.250
61034W        W33360  14.184  28.600  12.514
61035W        W33361  25.195  25.596  14.761
61036W        W33362  17.124  20.184   0.809
61037W        W33363  10.237  44.465   2.313
61038W        W33364  18.226   9.751   3.162
61039W        W33365  43.475   4.256  13.965
61040W        W33366   4.255  43.969   2.295
61041W        W33367  27.128  12.210  12.488
61042W        W33368  35.381   6.352   1.341
61043W        W33369  31.948  41.028   3.730
61044W        W33370  25.625  19.265  11.470
61045W        W33371  25.671  14.616  14.476
61046W        W33372   5.888  38.071  14.028
61047W        W33373  32.442  16.148  14.416
61048W        W33374  32.013  22.156  11.052
61049W        W33375  23.090  22.147   0.907
61050W        W33376  12.300   4.822   1.816
61051W        W33377  11.690  22.212  12.574
61052W        W33378  25.185  44.305   0.765
61053W        W33379   0.259   1.246  12.004
61054W        W33380  12.845  44.427   0.458
61055W        W33381   1.275  28.024  11.481
61056W        W33382   8.325   3.900   3.194
61057W        W33383   7.675  31.979   3.773
61058W        W33384  41.897  13.180  11.124
61059W        W33385  36.938   9.229  11.978
61060W        W33386  19.575  31.969  14.011
61061W        W33387  10.633  21.228   0.415
61062W        W33388  11.758   9.699   0.350
61063W        W33389   9.685  18.629  13.929
61064W        W33390  44.440  32.509   1.360
61065W        W33391  17.140  44.442   2.782
61066W        W33392  31.429  15.125   0.730
61067W        W33393  34.494   5.774  12.085
61068W        W33394   5.359   8.288   3.812
61069W        W33395  40.031  26.045  13.819
61070W        W33396  26.686  31.460   4.687
61071W        W33397  32.989  30.642   1.819
61072W        W33398   8.778  22.671  11.868
61073W        W33399  30.448   6.335  10.566
61074W        W33400   8.370  15.105  11.888
61075W        W33401  15.198   1.335  12.928
61076W        W33402  19.229  14.109   1.933
61077W        W33403  35.562   3.859   0.889
61078W        W33404  15.180  37.845   0.431
61079W        W33405  38.468   4.769  11.080
61080W        W33406  17.726   0.403  14.279
61081W        W33407  39.025   1.401  11.934
61082W        W33408   5.317  41.944   1.402
61083W        W33409  23.717  16.153   0.468
61084W        W33410  37.358  39.877  12.860
61085W        W33411  31.132  40.825   4.598
61086W        W33412   1.803  41.895  14.939
61087W        W33413  36.447  22.215  13.903
61088W        W33414  11.366  32.120  13.518
61089W        W33415  24.653   3.325   2.352
61090W        W33416  12.286   7.340   0.304
61091W        W33417  42.975   0.840   0.948
61092W        W33418  37.996  13.706  10.634
61093W        W33419  23.670  22.022  13.938
61094W        W33420   6.884  37.428  10.971
61095W        W33421  33.487  25.655   1.362
61096W        W33422  31.067   0.389   0.767
61097W        W33423  32.533  21.237  13.867
61098W        W33424  36.050   8.167  11.873
61099W        W33425  42.443  19.580   1.858
61100W        W33426  17.754   6.373   4.135
61101W        W33427  32.604  37.435   1.252
61102W        W33428  42.478  35.593  13.357
61103W        W33429  34.517  17.763   1.407
61104W        W33430   0.409  10.311  11.423
61105W        W33431  28.515  25.575  12.996
61106W        W33432  32.053  31.538  10.048
61107W        W33433   7.204  35.576   4.666
61108W        W33434   5.222  38.502  12.041
61109W        W33435  25.708  43.781  10.514
61110W        W33436  40.921  28.559  11.875
61111W        W33437  26.490  42.890   2.186
61112W        W33438   5.835  38.858   0.732
61113W        W33439  22.202  12.844   0.788
61114W        W33440  20.202  40.842  14.015
61115W        W33441  42.439  29.981   3.218
61116W        W33442  18.077  44.432   1.272
61117W        W33443  31.004  11.635  10.546
61118W        W33444  24.629   9.793  11.115
61119W        W33445  39.511   3.303  12.877
61120W        W33446  15.215  11.355   0.901
61121W        W33447  17.226  25.099   4.700
61122W        W33448   1.451  19.249   2.371
61123W        W33449  28.652  22.602  10.602
61124W        W33450  40.406  30.117  12.483
61125W        W33451  25.543  14.803  13.992
61126W        W33452   2.730   2.807   2.671
61127W        W33453  41.296  41.328  14.794
61128W        W33454  12.343  14.221  14.795
61129W        W33455   4.842  38.822   2.852
61130W        W33456  35.955  22.702  12.546
61131W        W33457  13.745   8.706  10.542
61132W        W33458  38.996  18.749   1.744
61133W        W33459  31.063   8.723   5.113
61134W        W33460   4.730  24.510  12.054
61135W        W33461  39.989  13.176   0.406
61136W        W33462  38.559   1.426   2.704
61137W        W33463   6.818  31.552  10.505
61138W        W33464   6.374   8.399   2.745
61139W        W33465  43.307  44.276  14.479
61140W        W33466  26.192  31.083  14.303
61141W        W33467  29.500  34.388   3.635
61142W        W33468  34.612  22.648   3.332
61143W        W33469  12.689  11.690  14.849
61144W        W33470  41.416  44.859   0.834
61145W        W33471  41.410  32.545   1.710
61146W        W33472  10.692  21.706  12.446
61147W        W33473  16.264  14.767  12.526
61148W        W33474  17.651  26.694  12.486
61149W        W33475  23.067  43.800   2.775
61150W        W33476  34.866   5.259   2.352
61151W        W33477  20.262  38.008   4.325
61152W        W33478   2.963  23.112  14.846
61153W        W33479  29.946  13.839  13.466
61154W        W33480  20.233   5.254  12.080
61155W        W33481  14.141  41.986   1.772
61156W        W33482  42.403  34.053   1.873
61157W        W33483   3.903  10.214  11.503
61158W        W33484  38.843  36.021   3.312
61159W        W33485   0.929   1.255   3.869
61160W        W33486  38.424   3.728  14.421
61161W        W33487  15.724  23.224  14.414
61162W        W33488  18.102  21.565   1.704
61163W        W33489  25.705  43.803  10.893
61164W        W33490  26.604  44.361   3.293
61165W        W33491  13.612   8.805   5.153
61166W        W33492  33.958  29.988  12.495
61167W        W33493  33.494  11.767  10.954
61168W        W33494  24.492   3.780   1.734
61169W        W33495  19.669  32.974  13.004
61170W        W33496  40.305  24.222  14.884
61171W        W33497  23.135  34.050  11.417
61172W        W33498   1.734  41.333   3.165
61173W        W33499  26.505   5.273   1.723
61174W        W33500  14.096  11.184  13.889
61175W        W33501   3.842  21.123   1.292
61176W        W33502  10.376  29.095   2.796
61177W        W33503  28.120   1.736   2.725
61178W        W33504  44.857  33.960   2.815
61179W        W33505  14.590   2.785   4.832
61180W        W33506  15.086  27.629  11.963
61181W        W33507   1.777   8.819   1.342
61182W        W33508  24.081   2.807  10.935
61183W        W33509   7.699  12.698  14.939
61184W        W33510  33.416  42.299   3.730
61185W        W33511  32.115   5.433  13.795
61186W        W33512  30.494  14.811  10.954
61187W        W33513  20.048  17.763  10.618
61188W        W33514  18.090  21.674   3.205
61189W        W33515   9.673  10.867  14.388
61190W        W33516  43.851  12.624   2.360
61191W        W33517  20.080  21.655  11.979
61192W        W33518  20.662  13.633  11.050
61193W        W33519   5.768  14.769   0.274
61194W        W33520  14.334  27.556  13.826
61195W        W33521  32.954  35.016  13.346
61196W        W33522  35.364   0.880  14.297
61197W        W33523  42.507  34.537  14.334
61198W        W33524  19.709  30.507  11.918
61199W        W33525  20.569  19.239  13.490
61200W        W33526  28.511  42.340   2.185
61201W        W33527  24.990  13.289  11.073
61202W        W33528  10.666  39.856   4.279
61203W        W33529   9.266   0.405  11.936
61204W        W33530  41.882  15.101  11.019
61205W        W33531   6.839  35.910   1.904
61206W        W33532  44.792  14.137   3.335
61207W        W33533  37.855  31.049  13.537
61208W        W33534  27.126  41.414  10.981
61209W        W33535  38.003  25.988  11.888
61210W        W33536  42.884  21.259   0.384
61211W        W33537   8.393   3.292   3.731
61212W        W33538  10.351  39.421  14.776
61213W        W33539  21.189   7.380   0.816
61214W        W33540   7.180  19.549  14.901
61215W        W33541  23.527  37.039  12.854
61216W        W33542   2.787  39.058  11.603
61217W        W33543  20.199  16.287   1.882
61218W        W33544  43.793  44.500   0.779
61219W        W33545  38.970  42.933   9.921
61220W        W33546  27.655   0.303  11.036
61221W        W33547  21.676  11.274  11.921
61222W        W33548  10.162   1.815  13.909
61223W        W33549   2.350  21.182   5.128
61224W        W33550  33.429  44.901   2.770
61225W        W33551  23.033  10.281  11.470
61226W        W33552  18.626  40.439  11.967
61227W        W33553  13.704  33.106  10.118
61228W        W33554  32.129   2.429  11.070
61229W        W33555  26.146  37.028  11.530
61230W        W33556  26.042  19.148   2.233
61231W        W33557  43.511   1.900  12.920
61232W        W33558  32.570  41.991  10.422
61233W        W33559  27.036  40.466  14.829
61234W        W33560  14.187   9.372   2.830
61235W        W33561  38.831  12.263  13.997
61236W        W33562  23.015  40.997  14.471
61237W        W33563  12.231  37.991   0.926
61238W        W33564  37.483  21.684   3.240
61239W        W33565   1.383  15.141  14.853
61240W        W33566  26.625  17.159   5.272
61241W        W33567  10.150  43.288   2.784
61242W        W33568  12.614  39.955   0.840
61243W        W33569  32.011  10.872  14.449
61244W        W33570  26.596  21.198   3.259
61245W        W33571   6.407  30.133  14.802
61246W        W33572  21.059  17.781  13.831
61247W        W33573   4.916  12.738   0.803
61248W        W33574  28.130  32.465  14.862
61249W        W33575  34.601  42.954  14.364
61250W        W33576  27.507  40.361  10.896
61251W        W33577  17.121  16.235  13.930
61252W        W33578   6.335  33.086  12.042
61253W        W33579   3.314  44.382   1.380
61254W        W33580  11.683  38.539  10.889
61255W        W33581  24.131  16.268  11.410
61256W        W33582   3.266  17.689   1.855
61257W        W33583   0.367   5.343   3.778
61258W        W33584  23.139  28.149  14.285
61259W        W33585  16.298  13.277  11.931
61260W        W33586  22.597   6.903   4.701
61261W        W33587   0.846  21.540  13.509
61262W        W33588  44.332  21.094   1.727
61263W        W33589   3.756  22.533   3.742
61264W        W33590   6.746  41.973  12.544
61265W        W33591   5.325  37.056  14.491
61266W        W33592  26.199  14.331  13.925
61267W        W33593  20.095   5.742  10.897
61268W        W33594  14.648  29.945  12.871
61269W        W33595  32.083  43.334   1.719
61270W        W33596  16.749  25.163   0.742
61271W        W33597  24.482  24.583  14.443
61272W        W33598  13.816  10.344  14.317
61273W        W33599  24.063  42.455  13.989
61274W        W33600   7.173  37.442   0.959
61275W        W33601   3.795  36.468  14.928
61276W        W33602  10.856  11.262  14.890
61277W        W33603  36.375  23.043  13.804
61278W        W33604  13.139  43.832   3.632
61279W        W33605  35.996  24.072  11.910
61280W        W33606  21.714  27.148   0.773
61281W        W33607  30.536   7.177   4.260
61282W        W33608  43.457  10.653   2.749
61283W        W33609  19.090  22.716  14.866
61284W        W33610  44.789  19.210   3.738
61285W        W33611  37.524  11.307  11.962
61286W        W33612  27.670   7.832  11.465
61287W        W33613  31.969  27.943  14.985
61288W        W33614  41.854  34.048   1.716
61289W        W33615  23.000  12.304   1.278
61290W        W33616   4.734  36.039  10.582
61291W        W33617  26.089  32.962   2.180
61292W        W33618   8.772  41.525  12.857
61293W        W33619  39.836  12.726  11.888
61294W        W33620   9.364  36.527   3.666
61295W        W33621  29.932  44.445  11.604
61296W        W33622   7.749  25.208   1.335
61297W        W33623  28.073  35.964   2.322
61298W        W33624   1.889   5.366   1.228
61299W        W33625  17.735  23.710  14.468
61300W        W33626  24.088  33.890   3.374
61301W        W33627   5.796  39.388   1.887
61302W        W33628  37.076  44.379   3.659
61303W        W33629  22.087  32.497   4.679
61304W        W33630  10.837  24.707  11.424
61305W        W33631  20.114   9.709   4.655
61306W        W33632   1.387  22.139   0.877
61307W        W33633  10.172  36.400  13.982
61308W        W33634  38.013  19.096   0.756
61309W        W33635   5.875  44.929  14.904
61310W        W33636   7.395  20.682   1.287
61311W        W33637   3.754  40.035  14.354
61312W        W33638  31.065  17.110  13.802
61313W        W33639  28.505  35.961   0.430
61314W        W33640  43.960  29.953  14.301
61315W        W33641  42.894  16.571   2.413
61316W        W33642   4.253  21.597   2.860
61317W        W33643  32.985  29.650   3.268
61318W        W33644  10.271   3.825   2.813
61319W        W33645   5.852  40.920  10.510
61320W        W33646  19.247  16.686  11.406
61321W        W33647  14.596  33.468   3.785
61322W        W33648  13.215  33.621  12.401
61323W        W33649   7.328   5.268  12.044
61324W        W33650  41.415  12.763   3.742
61325W        W33651  39.360  25.987  13.531
61326W        W33652  41.345  18.286  12.095
61327W        W33653  24.214  27.627   1.262
61328W        W33654  28.005   9.862  12.379
61329W        W33655  14.147  39.466   0.923
61330W        W33656  24.646  33.053  14.863
61331W        W33657  29.134   3.930  13.052
61332W        W33658   6.902  43.463   2.676
61333W        W33659  14.278  16.099   0.814
61334W        W33660  30.966  23.066  10.981
61335W        W33661  18.107  29.083  11.968
61336W        W33662  36.976  10.351  13.830
61337W        W33663  21.568  34.107  14.790
61338W        W33664  26.106  39.014  13.426
61339W        W33665   2.724  11.832   2.758
61340W        W33666  14.650  20.127  13.398
61341W        W33667  33.062  41.431   0.863
61342W        W33668  21.074  29.986  12.083
61343W        W33669  26.650  41.376  10.614
61344W        W33670  34.076  18.161   1.922
61345W        W33671  35.514  39.504   3.660
61346W        W33672  13.744  37.452  13.457
61347W        W33673  26.485  22.714  12.465
61348W        W33674  38.498  38.919  12.379
61349W        W33675  16.295  38.978  13.470
61350W        W33676  20.210  35.940  12.950
61351W        W33677  36.461  30.984  12.444
61352W        W33678  21.130  25.979  12.070
61353W        W33679  32.540   8.865  13.346
61354W        W33680  38.049  13.710  11.106
61355W        W33681  26.152  44.436  10.569
61356W        W33682  35.578  14.145   0.834
61357W        W33683   6.313  14.155  11.051
61358W        W33684  31.020  37.074  13.543
61359W        W33685  13.705  17.123  10.945
61360W        W33686   9.839  30.961   3.368
61361W        W33687  11.760  27.098  10.421
61362W        W33688  21.190   7.415   4.312
61363W        W33689  29.644  25.982   2.388
61364W        W33690  26.013  22.661   4.772
61365W        W33691  30.416  21.610   4.718
61366W        W33692   5.730   1.257   2.284
61367W        W33693  12.295  10.876   4.225
61368W        W33694  30.015  33.930   3.179
61369W        W33695  41.927   7.857   2.272
61370W        W33696  14.597  13.145  12.454
61371W        W33697  25.488   6.377   3.755
61372W        W33698  40.409   5.766  11.108
61373W        W33699  28.077  34.537  12.447
61374W        W33700  18.626   2.257  11.111
61375W        W33701  28.646  23.582   3.802
61376W        W33702   9.180  38.826   1.408
61377W        W33703  19.533   4.221  13.942
61378W        W33704  40.892  19.137  12.960
61379W        W33705  20.220  31.974   9.957
61380W        W33706  38.870  31.905  11.419
61381W        W33707  13.119  16.127   3.238
61382W        W33708  31.625  15.191  12.411
61383W        W33709  27.110   6.914   2.354
61384W        W33710  38.829   6.276  13.871
61385W        W33711  31.137  35.397  11.515
61386W        W33712   6.204   4.432  13.479
61387W        W33713  14.700  22.740  10.010
61388W        W33714  19.169  16.189  12.579
61389W        W33715  22.190  33.466   2.300
61390W        W33716  13.779  28.458   1.714
61391W        W33717  14.763  26.653  14.903
61392W        W33718  25.646  37.019   1.934
61393W        W33719  19.080  31.006  11.500
61394W        W33720   7.230  38.401  12.383
61395W        W33721  28.148  44.816  12.032
61396W        W33722   5.391  14.311   2.685
61397W        W33723  20.679  36.586   2.670
61398W        W33724   2.456  10.837  13.373
61399W        W33725  27.634  36.035  14.866
61400W        W33726  42.425  19.077  14.963
61401W        W33727  37.429  21.571  14.987
61402W        W33728  23.097   2.421   0.483
61403W        W33729   1.893  11.184  13.863
61404W        W33730   9.158  38.060  14.457
61405W        W33731  12.694  20.208   4.660
61406W        W33732  17.790  37.401  13.923
61407W        W33733   5.851  29.645   1.360
61408W        W33734  30.520  43.925  13.015
61409W        W33735  32.509  42.526  13.928
61410W        W33736   0.853  35.562   1.323
61411W        W33737  44.399  21.701   2.395
61412W        W33738  43.894  11.826   3.334
61413W        W33739  22.659  27.568   1.719
61414W        W33740   6.208  41.527  11.963
61415W        W33741  10.874  21.740  13.821
61416W        W33742  13.616   0.474  12.077
61417W        W33743  26.550  38.905   2.819
61418W        W33744  25.680   3.331  10.612
61419W        W33745  39.909  44.283  13.860
61420W        W33746  40.986  21.215  12.839
61421W        W33747  41.494   1.764   0.244
61422W        W33748  25.161  10.365  12.863
61423W        W33749  21.155  38.988  13.433
61424W        W33750  38.539  12.361   4.760
61425W        W33751  23.620  31.959   1.911
61426W        W33752   1.268  14.727   1.247
61427W        W33753   8.819  16.670  14.990
61428W        W33754   6.253  16.810   3.788
61429W        W33755   7.695  40.964   0.832
61430W        W33756   0.909   2.932   9.639
61431W        W33757   8.841  35.092   4.312
61432W        W33758  37.067  25.486  13.307
61433W        W33759  30.931   4.798   5.140
61434W        W33760  43.364  23.072   1.697
61435W        W33761  25.674   5.865   0.324
61436W        W33762   5.908  34.539   4.797
61437W        W33763  17.180  40.844   4.645
61438W        W33764  44.349   6.918   2.306
61439W        W33765  15.669  26.110  11.885
61440W        W33766  25.468  30.983  13.836
61441W        W33767   6.204  16.114   2.405
61442W        W33768  17.720  13.209  12.831
61443W        W33769  43.479  43.459   1.277
61444W        W33770   9.863   5.874   4.705
61445W        W33771   0.322  11.243  11.510
61446W        W33772  25.513  33.033   2.723
61447W        W33773  14.801  22.648   1.234
61448W        W33774  15.755  39.479   4.810
61449W        W33775  26.609  16.731   4.607
61450W        W33776  44.933  42.508   2.693
61451W        W33777  26.666  38.895  14.810
61452W        W33778   1.391  10.657   1.857
61453W        W33779  41.029  26.091  14.853
61454W        W33780  11.835   3.424  11.046
61455W        W33781  33.571  29.443  12.965
61456W        W33782  24.582   5.885   1.761
61457W        W33783  25.587  25.989   3.747
61458W        W33784  17.117  44.302   3.699
61459W        W33785  39.443  31.624   3.808
61460W        W33786  26.568  20.700   2.787
61461W        W33787   0.259  29.101  10.640
61462W        W33788   1.764  23.017   0.919
61463W        W33789  43.863   0.798   0.919
61464W        W33790   0.367  32.422  14.828
61465W        W33791  31.074  11.310   3.293
61466W        W33792  26.531  15.178   3.802
61467W        W33793  44.309  18.262   1.770
61468W        W33794   5.826  32.094   5.087
61469W        W33795  16.582  43.964   3.180
61470W        W33796   1.786  32.410  12.823
61471W        W33797  21.262  23.495   1.354
61472W        W33798  35.891  31.026   4.678
61473W        W33799  40.838  41.929   2.203
61474W        W33800   9.157  39.057   3.329
61475W        W33801   2.786  31.467   1.244
61476W        W33802   6.406   2.856  14.955
61477W        W33803   8.371  39.379   3.214
61478W        W33804  30.124   0.387   1.250
61479W        W33805  39.488  37.484  10.536
61480W        W33806  40.962  22.537  10.896
61481W        W33807  36.071  41.509   3.719
61482W        W33808  15.584  22.668   0.384
61483W        W33809   5.814  42.472  11.100
61484W        W33810  18.658  13.846   1.779
61485W        W33811  17.757  10.797   2.252
61486W        W33812  17.193  24.003  13.886
61487W        W33813   1.398  19.623  14.299
61488W        W33814  37.568   4.398  11.459
61489W        W33815  34.421  23.171  11.879
61490W        W33816   8.346  37.578   1.236
61491W        W33817  20.554  28.439  13.791
61492W        W33818  34.443  16.265  14.456
61493W        W33819   3.412  34.064  13.433
61494W        W33820   0.382  24.535   3.789
61495W        W33821  28.597   6.738  11.876
61496W        W33822  42.780   8.687   2.403
61497W        W33823  21.062  26.152  11.034
61498W        W33824   6.257  37.424   4.308
61499W        W33825  10.140  29.633  10.614
61500W        W33826   6.702  25.575  12.366
61501W        W33827  13.233  19.534  13.058
61502W        W33828   9.646   8.847   3.359
61503W        W33829  21.023  39.970  12.387
61504W        W33830  17.115  21.636  13.037
61505W        W33831  36.960  12.840  12.341
61506W        W33832  31.533  41.313   2.849
61507W        W33833  11.639  34.549  10.026
61508W        W33834  14.665   8.262   0.736
61509W        W33835  21.256  22.148   4.280
61510W        W33836  19.050   1.926  10.991
61511W        W33837  23.596  22.079  10.524
61512W        W33838   2.433  36.897   1.778
61513W        W33839  25.976  24.054  12.549
61514W        W33840  38.970  43.332   0.842
61515W        W33841  14.101  13.798  11.048
61516W        W33842  41.032  21.091  13.951
61517W        W33843   8.702  42.861   3.265
61518W        W33844  38.991  14.644   1.381
61519W        W33845  43.415  20.690   4.687
61520W        W33846   5.385  13.729  12.053
61521W        W33847  31.443  34.044   2.746
61522W        W33848  19.214  40.800   0.845
61523W        W33849  29.948  27.604  11.895
61524W        W33850   4.275  19.758  13.028
61525W        W33851  29.496  29.078  13.334
61526W        W33852  28.093  15.289  12.038
61527W        W33853  34.919  36.957   3.860
61528W        W33854  41.434  40.517  11.069
61529W        W33855  39.344   6.898  11.009
61530W        W33856   2.315  23.704   4.255
61531W        W33857  40.990  25.584   0.314
61532W        W33858   8.756  44.755   0.867
61533W        W33859  23.133  12.197   4.218
61534W        W33860   4.710   5.819  13.804
61535W        W33861   0.934  29.604  10.997
61536W        W33862   3.941  43.319   2.795
61537W        W33863   6.221  30.532   0.334
61538W        W33864  37.556  13.816  14.458
61539W        W33865  12.202   4.423   0.835
61540W        W33866  32.053  29.160  13.852
61541W        W33867  26.189  14.617  14.334
61542W        W33868   2.369  32.980   3.271
61543W        W33869  12.311  22.162  13.046
61544W        W33870  37.027  42.337   4.189
61545W        W33871  38.830  15.623   0.815
61546W        W33872  24.996  11.363   0.483
61547W        W33873  35.923  39.871  13.883
61548W        W33874  24.721  42.944  13.384
61549W        W33875   0.373   8.307   3.666
61550W        W33876  39.971  22.515  12.553
61551W        W33877   0.922   8.890   1.279
61552W        W33878  34.608  44.480  10.928
61553W        W33879  18.737  35.396  10.638
61554W        W33880  22.679   0.949   0.810
61555W        W33881  31.475  14.676  12.348
61556W        W33882  22.997   1.360  11.509
61557W        W33883  14.703  41.479   3.281
61558W        W33884  10.753   3.876   4.338
61559W        W33885  42.457  38.902   2.341
61560W        W33886  19.279  12.842   0.403
61561W        W33887  33.599  43.850  14.375
61562W        W33888  16.180  31.107  11.454
61563W        W33889  30.131  17.624  14.374
61564W        W33890  12.759   4.759   3.668
61565W        W33891  40.870   3.709  14.456
61566W        W33892  19.183  41.329   3.831
61567W        W33893   7.229  29.433   1.383
61568W        W33894  15.299  16.727   2.400
61569W        W33895  12.621  26.101   1.361
61570W        W33896  44.773   7.687  14.857
61571W        W33897  22.707  40.840  13.519
61572W        W33898  33.476  27.671  13.433
61573W        W33899  13.782  16.659  12.935
61574W        W33900   4.263  10.784   0.866
61575W        W33901  15.227  33.918  12.367
61576W        W33902   6.883  14.304  11.486
61577W        W33903  33.502  24.502  13.802
61578W        W33904  33.022  31.523   0.821
61579W        W33905  28.554  24.210   4.625
61580W        W33906  37.517  18.170  10.125
61581W        W33907  28.489   6.812   0.962
61582W        W33908  20.154   2.414  12.435
61583W        W33909  16.154  12.688  13.498
61584W        W33910  10.719   7.909  14.489
61585W        W33911  19.660   5.718   4.287
61586W        W33912  41.415   8.272  13.849
61587W        W33913  16.812  32.608  14.384
61588W        W33914  24.999  37.850   0.279
61589W        W33915  43.418   5.757  12.525
61590W        W33916  28.013   3.887  13.460
61591W        W33917  16.672  36.548  11.500
61592W        W33918  35.935   3.452   3.701
61593W        W33919  21.147  22.609   4.218
61594W        W33920  39.504  17.667   1.407
61595W        W33921   1.762  34.520  12.061
61596W        W33922  10.812  41.300  13.790
61597W        W33923  30.101  16.156  11.932
61598W        W33924   6.851   4.883  12.483
61599W        W33925  14.283  12.759   3.728
61600W        W33926  13.127  41.818  14.966
61601W        W33927  44.005  41.318  14.454
61602W        W33928  14.138  36.395  12.072
61603W        W33929   7.757  19.660  13.960
61604W        W33930  16.812  31.457  13.393
61605W        W33931  29.166  25.501  10.010
61606W        W33932  35.957  42.944  14.918
61607W        W33933  38.428  31.911  11.967
61608W        W33934  34.110  43.363  14.314
61609W        W33935  22.068  31.443  11.110
61610W        W33936  14.284  25.023   3.357
61611W        W33937  25.627  19.173  12.377
61612W        W33938  10.241   7.317   2.740
61613W        W33939  14.251  12.228  14.891
61614W        W33940  11.139  20.700  14.994
61615W        W33941  19.246  39.870   0.479
61616W        W33942  20.578  14.685  12.908
61617W        W33943  24.149   6.238  14.949
61618W        W33944  14.646  34.061  13.510
61619W        W33945   6.250  10.189   1.279
61620W        W33946   8.686  39.852  11.947
61621W        W33947  39.468  32.550  13.822
61622W        W33948  34.868   2.761  14.302
61623W        W33949  13.305  34.873   1.710
61624W        W33950  43.363  36.363  10.501
61625W        W33951  34.558  19.043  10.415
61626W        W33952  33.102  21.524  10.450
61627W        W33953   7.383  21.565   3.183
61628W        W33954  14.638  10.686   4.791
61629W        W33955  30.425  38.483  14.023
61630W        W33956  14.771  11.839   9.996
61631W        W33957  24.493  32.038  13.847
61632W        W33958  34.947  34.415   5.254
61633W        W33959  23.726  36.440  10.442
61634W        W33960   6.258  17.592   4.138
61635W        W33961  32.119  40.834  14.908
61636W        W33962  14.285  38.863   4.836
61637W        W33963  37.514   7.694  14.481
61638W        W33964  19.622  24.654   3.238
61639W        W33965   5.866  34.577  14.474
61640W        W33966  20.542  36.898  13.994
61641W        W33967   0.361  28.534  14.500
61642W        W33968   4.906  25.678   3.739
61643W        W33969  30.545  19.061   1.213
61644W        W33970  22.720  12.853  12.870
61645W        W33971  38.568  25.057   4.225
61646W        W33972  22.711  38.033   4.164
61647W        W33973  10.644   6.904  13.061
61648W        W33974  33.460  13.661   1.740
61649W        W33975  15.806  38.000  14.375
61650W        W33976  31.422  14.832  14.843
61651W        W33977  16.290   4.330  12.089
61652W        W33978   9.349   8.850  12.071
61653W        W33979   2.285   7.353  12.940
61654W        W33980  41.925  13.251   0.794
61655W        W33981  10.771  38.046   0.957
61656W        W33982  28.175  29.541   3.146
61657W        W33983   9.780   2.782  14.932
61658W        W33984   7.908  22.605   5.177
61659W        W33985   3.280  11.683  13.454
61660W        W33986  21.650   1.347  14.987
61661W        W33987  24.973  15.674  13.940
61662W        W33988  30.515   6.743  12.877
61663W        W33989  18.216  26.506   0.794
61664W        W33990   1.467   3.766   1.917
61665W        W33991  25.215  26.146   3.194
61666W        W33992   6.296  26.643  11.551
61667W        W33993  31.912  38.825   2.844
61668W        W33994  25.569  14.748  10.985
61669W        W33995  21.169  34.376   4.354
61670W        W33996  39.903  23.510   2.359
61671W        W33997  10.837   2.813  10.939
61672W        W33998  39.961   9.237  13.973
61673W        W33999  22.191   2.876   0.864
61674W        W34000  23.068  38.443   4.703
61675W        W34001   3.948  28.943  11.595
61676W        W34002  32.575  38.437  12.962
61677W        W34003  25.603   2.447  11.893
61678W        W34004  23.186  15.317  10.022
61679W        W34005  24.182  36.362   4.162
61680W        W34006  17.280  10.768   3.367
61681W        W34007  26.106   0.329   4.294
61682W        W34008  42.868   2.772   2.689
61683W        W34009  23.607  21.585  11.401
61684W        W34010   6.414  39.907  14.313
61685W        W34011  24.478   5.859   2.883
61686W        W34012  36.852  26.004   2.255
61687W        W34013  40.383  15.813   0.928
61688W        W34014  44.272  39.378  13.914
61689W        W34015  44.002  21.651  12.577
61690W        W34016   8.351   4.930  13.916
61691W        W34017  16.611  38.885   4.767
61692W        W34018   8.267  23.187   4.771
61693W        W34019   0.442  19.618  14.370
61694W        W34020  43.862   5.715  13.825
61695W        W34021  38.421  36.093   4.265
61696W        W34022  26.491  15.273   3.380
61697W        W34023  14.177   5.800  11.938
61698W        W34024  32.408  41.388  12.458
61699W        W34025  43.977   3.458   0.728
61700W        W34026   2.923  27.686  12.368
61701W        W34027  14.205  27.991   5.195
61702W        W34028  38.375  38.981  11.600
61703W        W34029  35.586  15.751   1.927
61704W        W34030   8.379  19.711  13.063
61705W        W34031  43.832  36.858  14.337
61706W        W34032   3.761   0.851  10.532
61707W        W34033  19.272  43.836   2.197
61708W        W34034   9.153   8.875  13.377
61709W        W34035   2.749  41.920  10.416
61710W        W34036  31.075  44.293  14.010
61711W        W34037  19.599  24.666   2.381
61712W        W34038  39.817  17.672   0.799
61713W        W34039  21.568  36.934  13.405
61714W        W34040  25.185  32.005   0.831
61715W        W34041   1.382  44.339   1.899
61716W        W34042  22.684  13.230  13.964
61717W        W34043   9.661  11.212   1.329
61718W        W34044  38.940  16.256  14.920
61719W        W34045  30.415  23.083   3.208
61720W        W34046  21.042  39.921  11.528
61721W        W34047  30.006   1.792  12.493
61722W        W34048  15.173   7.848   2.238
61723W        W34049   1.392   5.933   2.795
61724W        W34050  26.632   4.324   0.744
61725W        W34051  44.485  20.050  10.434
61726W        W34052  16.694  44.968  12.013
61727W        W34053  11.680  41.420  11.595
61728W        W34054  12.694  11.628  11.515
61729W        W34055  21.092   4.232   9.936
61730W        W34056  37.009   6.405   4.742
61731W        W34057  16.719   5.369   1.400
61732W        W34058   0.863  38.069  13.813
61733W        W34059   2.363  12.716   3.680
61734W        W34060  29.079   3.740   1.867
61735W        W34061  14.311  23.232   4.714
61736W        W34062   0.877  30.611  12.449
61737W        W34063  25.508  36.378   2.772
61738W        W34064  28.955  25.587  14.782
61739W        W34065  37.850   8.357  13.487
61740W        W34066  35.956  28.574   2.690
61741W        W34067  34.029   7.382   1.819
61742W        W34068  27.463   2.239  12.355
61743W        W34069  37.037   4.739  14.448
61744W        W34070  38.325  21.136   3.705
61745W        W34071   4.403   6.893  14.865
61746W        W34072  44.774  29.585  12.391
61747W        W34073  35.453  34.893   3.381
61748W        W34074  13.656  13.259   3.637
61749W        W34075   2.799   5.783   1.881
61750W        W34076  22.712  19.725   3.711
61751W        W34077  20.728  41.527   3.664
61752W        W34078  16.246   9.864   4.833
61753W        W34079   1.973  16.157   2.218
61754W        W34080  23.125   8.245  10.449
61755W        W34081  27.469   3.265   0.764
61756W        W34082   7.693  17.737   4.134
61757W        W34083  34.530  44.844  14.940
61758W        W34084  18.738  35.493   3.374
61759W        W34085  40.047  30.565  10.992
61760W        W34086  28.477  36.052  14.903
61761W        W34087  41.968   0.926  11.536
61762W        W34088  41.401  22.736  13.346
61763W        W34089   0.960  27.474   2.757
61764W        W34090  28.455  13.183  11.501
61765W        W34091   0.325  17.557  12.413
61766W        W34092  34.585  30.008   0.856
61767W        W34093  20.142  40.548   0.340
61768W        W34094  29.426  39.960  10.492
61769W        W34095  31.633  13.753   0.269
61770W        W34096  24.659  23.001   1.329
61771W        W34097   8.727  26.124  11.407
61772W        W34098  17.294  22.661   0.727
61773W        W34099   9.277  18.276   3.208
61774W        W34100   6.763  30.019  14.816
61775W        W34101   1.404  20.039  13.942
61776W        W34102  26.572  29.171  14.277
61777W        W34103  32.499  14.334   1.791
61778W        W34104  14.330  42.022   2.685
61779W        W34105  27.682  23.560   2.740
61780W        W34106  14.241  41.368   4.169
61781W        W34107  28.518  42.282   1.313
61782W        W34108  34.084  34.421  12.365
61783W        W34109  21.231  36.364   3.681
61784W        W34110  13.842  24.029   4.686
61785W        W34111  43.957  27.975   3.761
61786W        W34112  19.190   0.302   3.222
61787W        W34113   9.810   6.715   4.226
61788W        W34114  20.111  29.131  12.986
61789W        W34115  36.438  17.768  10.500
61790W        W34116  15.591  41.361   0.291
61791W        W34117   7.693   7.202   5.094
61792W        W34118  21.675   2.346  11.536
61793W        W34119  39.465  29.918   0.383
61794W        W34120   2.757   1.741   3.655
61795W        W34121  12.310  34.612   2.315
61796W        W34122   1.920  20.062   0.768
61797W        W34123  27.167   6.678   2.708
61798W        W34124  44.314   6.305   3.362
61799W        W34125  32.940  39.471  14.956
61800W        W34126  27.691  24.526   3.664
61801W        W34127  29.162  42.348  14.914
61802W        W34128  32.620  39.873   1.396
61803W        W34129  26.620  31.143  11.013
61804W        W34130  44.481  33.982  12.918
61805W        W34131  12.685  19.755   4.265
61806W        W34132  23.578  42.894   4.617
61807W        W34133  42.978  25.987   3.320
61808W        W34134  42.012  24.082  11.394
61809W        W34135  36.065  37.385  10.994
61810W        W34136   3.400  28.126  12.552
61811W        W34137   4.239  33.054  11.606
61812W        W34138  17.683  12.791   3.309
61813W        W34139  31.024  16.807  14.335
61814W        W34140  29.118  32.563   4.328
61815W        W34141   9.678  36.916   0.764
61816W        W34142  41.025  28.464   3.184
61817W        W34143  40.801   3.797   0.819
61818W        W34144  43.939  35.923  12.559
61819W        W34145  27.452  32.920  13.346
61820W        W34146  25.015  14.738  12.876
61821W        W34147  36.530  21.189   3.810
61822W        W34148   3.401  26.661  11.047
61823W        W34149  24.168  23.560   4.671
61824W        W34150   0.447   9.364   2.240
61825W        W34151  27.541  13.155  13.392
61826W        W34152  38.341  23.196   4.279
61827W        W34153  21.257  10.226   0.914
61828W        W34154  41.998   1.814  12.038
61829W        W34155   1.970  23.545   4.179
61830W        W34156  35.516  36.043   5.208
61831W        W34157  37.353  27.597   1.891
61832W        W34158  14.779  21.535   1.351
61833W        W34159  40.835  12.348   0.886
61834W        W34160   1.280  32.471  10.926
61835W        W34161  41.409  17.663  10.969
61836W        W34162  38.008  35.377   1.729
61837W        W34163  14.653  11.279  11.523
61838W        W34164  24.191   2.470  12.061
61839W        W34165  31.917   1.430  13.936
61840W        W34166  26.178  30.108   2.310
61841W        W34167  21.652  19.067   4.313
61842W        W34168   4.207  10.180   3.705
61843W        W34169   0.933  24.631  12.473
61844W        W34170  13.309  39.031  11.948
61845W        W34171   8.810  41.044   1.349
61846W        W34172  28.621   6.749  14.457
61847W        W34173   5.313  37.489   4.328
61848W        W34174   1.261   6.378  13.489
61849W        W34175   7.911  21.092  13.835
61850W        W34176  37.344  10.239   0.288
61851W        W34177   1.463   7.309  11.605
61852W        W34178   8.208  26.032  14.455
61853W        W34179  38.997  24.136  14.441
61854W        W34180  37.486  39.474  14.437
61855W        W34181  20.032   5.247   1.758
61856W        W34182  29.148   2.952   3.349
61857W        W34183  17.284  24.565   3.671
61858W        W34184  22.522  13.270   3.747
61859W        W34185  14.619   7.728  11.602
61860W        W34186  33.587  42.438   2.304
61861W        W34187   4.737   7.378   2.787
61862W        W34188  41.359  28.453   1.742
61863W        W34189  44.378  34.027   1.347
61864W        W34190   4.294  44.784   0.825
61865W        W34191   8.681  44.002  13.822
61866W        W34192  25.496  44.485  11.605
61867W        W34193  23.692  31.061  12.492
61868W        W34194  21.547   6.307   9.995
61869W        W34195  41.312  40.500   0.773
61870W        W34196  20.608   8.351  12.939
61871W        W34197  11.742  27.079  14.761
61872W        W34198  44.920  15.305   1.384
61873W        W34199  43.355   0.304   1.876
61874W        W34200  25.194  37.344  14.965
61875W        W34201  24.049  23.626   0.350
61876W        W34202  34.430  41.951   1.261
61877W        W34203  13.267  31.564   1.277
61878W        W34204   1.836   2.318   2.349
61879W        W34205  17.079  14.263   9.950
61880W        W34206  22.630  36.577  11.601
61881W        W34207  18.080  41.424  13.054
61882W        W34208   2.433  27.953   0.834
61883W        W34209  34.944  35.911   9.962
61884W        W34210  28.117  29.952   2.855
61885W        W34211  25.969  29.025   0.801
61886W        W34212  17.114  27.577   0.890
61887W        W34213  37.891  35.090   1.722
61888W        W34214   0.794  34.458  13.953
61889W        W34215  34.492  39.433   4.695
61890W        W34216   4.381  25.137  11.047
61891W        W34217  29.967  12.710   3.318
61892W        W34218   4.373   8.210   1.833
61893W        W34219  39.385  40.936  12.483
61894W        W34220  39.977  24.038   0.420
61895W        W34221  32.058   5.833  12.964
61896W        W34222  34.926  27.685  11.102
61897W        W34223  28.662   1.758  11.978
61898W        W34224  30.534   7.393   1.227
61899W        W34225  32.089  34.084  13.976
61900W        W34226  22.636  15.628  12.546
61901W        W34227  25.993  29.096   1.707
61902W        W34228  34.413  38.852  11.859
61903W        W34229  16.759  10.652  12.546
61904W        W34230   6.807  10.179   9.942
61905W        W34231   1.251  35.031   1.281
61906W        W34232  39.818  36.994   2.663
61907W        W34233  34.424   5.280   0.847
61908W        W34234   0.277  39.351   3.639
61909W        W34235   1.428  29.050   3.832
61910W        W34236  12.812  25.651   2.367
61911W        W34237  34.539  35.596  12.414
61912W        W34238   6.913  16.312  12.042
61913W        W34239   8.759  38.490  12.361
61914W        W34240  30.436  28.943   1.847
61915W        W34241  36.487   1.242  11.556
61916W        W34242   3.347  15.172  12.942
61917W        W34243  17.097  16.255   3.375
61918W        W34244   0.466  30.943   2.293
61919W        W34245   8.718  28.460  12.048
61920W        W34246  16.213  21.518  13.468
61921W        W34247  39.036  27.030   0.249
61922W        W34248  13.137  24.480   0.919
61923W        W34249  18.589  40.319   3.230
61924W        W34250  19.204  34.069  11.507
61925W        W34251  42.427  20.616  10.603
61926W        W34252  22.101  39.900  12.095
61927W        W34253  32.426  16.171   4.210
61928W        W34254   1.978   9.369   2.681
61929W        W34255  19.766  24.505  11.917
61930W        W34256  25.168  19.042  14.822
61931W        W34257  29.151  36.445   4.321
61932W        W34258  25.548  25.032   0.817
61933W        W34259  30.445  28.005   3.732
61934W        W34260  43.387  24.983  14.284
61935W        W34261  37.036  27.512   0.763
61936W        W34262   5.719  18.609  10.516
61937W        W34263  36.069  28.139  12.422
61938W        W34264  10.730  34.954   1.809
61939W        W34265   7.223  39.844   2.326
61940W        W34266  34.442  28.135  11.012
61941W        W34267  30.548  15.083   3.692
61942W        W34268  42.347  31.495   2.335
61943W        W34269  30.102  33.989   2.413
61944W        W34270  44.281  29.498   0.806
61945W        W34271  22.066  35.921  14.368
61946W        W34272  14.605  28.669  11.474
61947W        W34273  18.225   9.371   0.306
61948W        W34274  37.865  10.247   4.819
61949W        W34275  41.510   1.792   2.880
61950W        W34276  34.892  40.472   2.401
61951W        W34277  36.593   4.889  14.774
61952W        W34278  39.930  37.884   2.287
61953W        W34279  10.730  35.393  14.407
61954W        W34280  31.021  21.178  13.025
61955W        W34281  29.972   6.762  11.942
61956W        W34282  39.548  36.488  11.942
61957W        W34283  18.771  14.810  14.438
61958W        W34284  11.337  39.010   1.240
61959W        W34285  29.614  33.469  13.938
61960W        W34286   9.839  43.326   2.733
61961W        W34287  33.458  43.002   9.982
61962W        W34288  18.189  12.292  14.826
61963W        W34289   8.278  14.293   2.671
61964W        W34290  28.019   4.755  10.060
61965W        W34291  24.212   7.841   2.784
61966W        W34292  23.727  39.372  13.889
61967W        W34293  23.090   4.218   1.804
61968W        W34294  13.822  24.012   0.272
61969W        W34295  44.426  31.488   1.332
61970W        W34296  12.685  33.450   4.211
61971W        W34297  12.620   0.832   1.871
61972W        W34298  30.527  26.957  11.380
61973W        W34299  40.377  37.529   5.227
61974W        W34300  32.555   3.400  10.537
61975W        W34301  28.049   6.384   3.709
61976W        W34302  42.901  39.022   4.755
61977W        W34303   9.746  24.069   3.259
61978W        W34304  18.202  41.379   0.430
61979W        W34305  10.843  14.224  13.873
61980W        W34306   2.364  37.018   1.380
61981W        W34307  38.542   1.431  10.983
61982W        W34308   5.322  30.110   1.301
61983W        W34309   6.805   7.778  10.965
61984W        W34310  12.663  22.739   4.114
61985W        W34311   7.373  11.761  14.501
61986W        W34312  18.694  11.627   1.236
61987W        W34313  14.737  42.341  12.018
61988W        W34314   6.362  34.120   2.319
61989W        W34315  15.186  40.020   2.408
61990W        W34316  11.778  37.424   5.275
61991W        W34317  36.852   8.771  13.482
61992W        W34318  18.651  29.055   1.284
61993W        W34319   3.805   9.674  11.856
61994W        W34320  26.954  43.831  11.878
61995W        W34321  30.067  30.075  13.502
61996W        W34322  28.565  13.788  13.466
61997W        W34323  23.568  23.992   3.758
61998W        W34324  28.443  41.485   3.353
61999W        W34325  27.944  24.081   0.867
62000W        W34326  41.813   2.256   3.866
62001W        W34327   0.395  41.855  12.513
62002W        W34328  36.029  41.459  13.796
62003W        W34329  15.151   1.802  13.396
62004W        W34330  27.129   3.813   0.911
62005W        W34331  39.917  41.989  11.403
62006W        W34332  42.950  11.848   3.779
62007W        W34333   6.913   3.424   1.877
62008W        W34334  10.869  41.007   2.254
62009W        W34335   8.878  37.938   2.227
62010W        W34336  40.408  36.007   5.205
62011W        W34337  19.737  42.500  12.513
62012W        W34338   1.799  27.140  14.350
62013W        W34339  26.029  19.673  12.341
62014W        W34340  29.426  41.907   4.192
62015W        W34341  23.111  11.365   0.351
62016W        W34342  13.776  42.518  12.564
62017W        W34343  31.422   2.244   3.146
62018W        W34344   8.844  13.776  12.991
62019W        W34345  15.206  12.769   1.718
62020W        W34346  22.614  13.242   1.363
62021W        W34347  31.470  16.755  10.936
62022W        W34348  32.110  34.025   0.335
62023W        W34349  42.456  21.548   1.846
62024W        W34350  10.820   8.658  11.518
62025W        W34351  29.470  44.003   4.204
62026W        W34352  39.917  37.032  13.357
62027W        W34353  25.006  35.902   0.950
62028W        W34354  19.722  22.699  13.974
62029W        W34355   0.818   3.811  14.842
62030W        W34356  14.678  29.536  14.982
62031W        W34357  13.142  22.182  14.920
62032W        W34358  22.515  31.905   1.863
62033W        W34359   1.251  16.799   3.322
62034W        W34360  36.491  34.030  12.094
62035W        W34361  21.261   7.251   4.603
62036W        W34362  24.647  39.503  12.418
62037W        W34363   6.215  21.164  10.573
62038W        W34364   3.232  15.620  11.879
62039W        W34365  28.502  40.472   2.782
62040W        W34366  27.475  22.734  13.916
62041W        W34367  16.641  25.559   2.732
62042W        W34368  25.206  25.167   1.214
62043W        W34369  16.767  33.474   4.623
62044W        W34370  38.529  13.202   4.604
62045W        W34371  36.914  28.503   2.308
62046W        W34372   4.940  25.153  14.411
62047W        W34373  27.555  43.992  13.503
62048W        W34374  12.648  11.709  13.901
62049W        W34375  39.435  28.052  13.006
62050W        W34376  44.322  39.484   3.862
62051W        W34377   4.370  26.629   3.758
62052W        W34378   5.734  28.956  13.366
62053W        W34379  16.648   2.745   1.787
62054W        W34380  19.751  17.675   4.345
62055W        W34381   6.683  26.499   5.224
62056W        W34382  30.157  27.991   5.277
62057W        W34383  27.555  18.772  13.858
62058W        W34384   0.971  38.020  14.884
62059W        W34385  23.990  37.516   2.398
62060W        W34386  16.199  31.460  13.439
62061W        W34387   2.750  16.087   2.276
62062W        W34388   4.741  35.877  14.991
62063W        W34389   0.402   5.414   1.428
62064W        W34390  30.474  15.755   1.931
62065W        W34391  15.813   3.875  11.088
62066W        W34392  19.702  32.971   0.838
62067W        W34393  18.754   3.391   1.215
62068W        W34394  35.523  30.551  14.346
62069W        W34395   8.231  43.794   4.179
62070W        W34396  38.345  17.559   4.625
62071W        W34397  31.000  19.706   3.218
62072W        W34398  14.188  41.493  12.352
62073W        W34399   8.168  39.917   0.844
62074W        W34400  26.604   5.354  13.541
62075W        W34401  31.097  32.598  12.540
62076W        W34402  23.534  13.771  12.056
62077W        W34403  19.597  34.411  13.377
62078W        W34404  40.860  44.854  14.313
62079W        W34405  17.686   7.800  11.958
62080W        W34406  16.577  39.336   4.838
62081W        W34407  18.718   9.317  10.588
62082W        W34408  44.482  33.553  11.120
62083W        W34409  33.549  34.869   0.883
62084W        W34410  31.115  35.862   2.409
62085W        W34411  40.853   5.425  10.634
62086W        W34412   3.790  30.025  14.758
62087W        W34413   3.866  28.546   2.860
62088W        W34414  21.076   8.341  13.953
62089W        W34415  36.992  16.602   2.339
62090W        W34416  37.344   4.371   3.718
62091W        W34417  23.589   4.230  12.415
62092W        W34418   5.815  43.321   4.175
62093W        W34419  28.666  13.619   1.306
62094W        W34420   8.863   4.253   0.816
62095W        W34421  10.242  28.941   0.860
62096W        W34422  19.673  18.164  12.549
62097W        W34423  15.265  33.106   3.220
62098W        W34424  38.450  31.538  14.821
62099W        W34425  17.277  27.544  10.556
62100W        W34426  22.204  32.485  12.091
62101W        W34427  21.748  15.146  11.089
62102W        W34428  29.036  25.676  11.393
62103W        W34429  11.245  38.516  11.015
62104W        W34430  25.067  14.303   3.781
62105W        W34431  42.900  13.302   3.635
62106W        W34432  43.472  41.488   2.219
62107W        W34433  38.009  29.003   4.757
62108W        W34434  16.229  19.629  11.060
62109W        W34435  31.035  11.312   1.400
62110W        W34436  36.885  33.903   3.371
62111W        W34437  29.637   6.719  14.787
62112W        W34438  35.059  19.632   9.986
62113W        W34439  18.078  26.529   1.772
62114W        W34440   2.460  26.025   1.931
62115W        W34441  36.930  43.395   1.888
62116W        W34442  15.578  32.520  14.928
62117W        W34443  35.925  34.427   5.241
62118W        W34444  39.404  43.790  14.481
62119W        W34445  17.276  36.412  14.797
62120W        W34446  35.888  41.440  14.372
62121W        W34447  15.211  14.675   0.822
62122W        W34448  26.051   4.870  12.899
62123W        W34449  35.933  38.063  13.451
62124W        W34450  33.545   3.848   3.313
62125W        W34451  15.292   9.319  12.433
62126W        W34452  18.599  21.595  14.773
62127W        W34453  10.779  13.790   3.273
62128W        W34454   6.721  40.823  14.293
62129W        W34455  27.166   3.873   1.815
62130W        W34456  20.038  40.820   1.379
62131W        W34457  21.739   3.797   2.866
62132W        W34458   8.816   9.739   0.443
62133W        W34459  14.650   5.911  11.563
62134W        W34460  44.290   6.742   3.263
62135W        W34461  21.241  22.593  14.420
62136W        W34462  16.234  20.185  12.556
62137W        W34463  30.980   0.441  12.898
62138W        W34464   9.230  17.649  14.459
62139W        W34465  14.296   8.897   0.319
62140W        W34466  37.555   9.769   0.332
62141W        W34467  35.376   7.721   4.653
62142W        W34468  34.911  43.970   4.747
62143W        W34469  34.409   0.803   3.859
62144W        W34470  29.012  34.410   0.959
62145W        W34471   3.375   2.725   1.904
62146W        W34472   5.827  43.302  12.876
62147W        W34473  28.964  25.704  13.885
62148W        W34474  33.570   0.424  13.978
62149W        W34475  24.606  43.463   2.316
62150W        W34476  42.494  32.014   1.289
62151W        W34477  38.958  29.103  14.924
62152W        W34478  41.042  28.585  10.595
62153W        W34479   3.944   2.826   3.184
62154W        W34480  23.175  31.411  10.956
62155W        W34481  18.560   4.367  14.804
62156W        W34482   0.384  31.495  12.913
62157W        W34483  44.830   6.846  13.920
62158W        W34484  41.893  40.310   2.194
62159W        W34485  27.535  20.254   2.703
62160W        W34486  37.907  20.557   2.347
62161W        W34487   7.830  21.629   2.358
62162W        W34488   8.804  39.901   4.833
62163W        W34489  18.649  21.144  14.847
62164W        W34490  33.611   2.291  13.843
62165W        W34491   2.272  18.222  11.045
62166W        W34492  16.774   8.287   3.290
62167W        W34493  36.386  33.895   2.751
62168W        W34494  20.546  19.257   0.802
62169W        W34495  10.761  16.576   4.160
62170W        W34496   0.945  37.519   1.389
62171W        W34497  25.701  38.440  14.471
62172W        W34498  15.263  35.098  11.071
62173W        W34499  24.111  16.638  11.005
62174W        W34500  41.930   3.865   2.378
62175W        W34501  22.515   3.319  10.073
62176W        W34502   5.297  23.669  13.417
62177W        W34503  29.168  21.513  14.861
62178W        W34504  43.990   5.870  13.316
62179W        W34505  33.104  16.784  10.948
62180W        W34506   5.840  34.500  14.761
62181W        W34507  22.062  38.420   0.288
62182W        W34508  23.567  36.062  11.096
62183W        W34509   6.832  10.833  14.935
62184W        W34510   4.724  36.495  14.346
62185W        W34511   8.397   5.314   2.349
62186W        W34512  13.140   2.364   4.706
62187W        W34513   1.800  35.950   3.650
62188W        W34514  29.438  18.125  11.977
62189W        W34515  23.000   9.250  11.028
62190W        W34516  15.616  22.622  11.070
62191W        W34517  22.244   2.462  14.000
62192W        W34518  25.597   9.647  13.977
62193W        W34519  27.591  37.393   4.833
62194W        W34520  42.519  23.025   4.663
62195W        W34521   0.427  16.693   2.856
62196W        W34522  17.286  13.319   1.808
62197W        W34523  11.681   5.334  14.382
62198W        W34524  12.791  43.853  12.571
62199W        W34525   2.820  23.707  11.111
62200W        W34526   7.859  37.547  13.484
62201W        W34527  44.763  14.218  13.905
62202W        W34528  13.141  21.617   1.773
62203W        W34529  43.461   1.854  14.395
62204W        W34530  36.478  29.101   0.406
62205W        W34531  19.140   7.739  10.581
62206W        W34532  38.834  34.884  11.554
62207W        W34533  17.745  34.001   4.835
62208W        W34534  36.398  41.821   4.613
62209W        W34535   4.783  38.361  12.494
62210W        W34536  40.317  36.078   0.395
62211W        W34537  32.934   9.888   0.805
62212W        W34538  21.601  12.133  13.860
62213W        W34539  13.827  38.965  14.805
62214W        W34540   9.171  19.559   0.477
62215W        W34541   4.737   5.830   0.896
62216W        W34542  20.233   0.801   2.360
62217W        W34543  20.207  38.529   4.695
62218W        W34544  18.143  38.988   3.172
62219W        W34545  12.669  36.011  14.858
62220W        W34546  35.989  19.140   0.875
62221W        W34547  22.046   6.263   4.180
62222W        W34548   6.190  42.402   2.806
62223W        W34549  44.397  41.859   1.786
62224W        W34550  40.462   0.863  14.436
62225W        W34551  22.121  29.016  11.078
62226W        W34552   6.704  24.068  13.510
62227W        W34553  32.014  26.668   3.705
62228W        W34554   2.238  37.413   4.337
62229W        W34555  15.588  32.415   3.386
62230W        W34556  24.697  17.280   1.731
62231W        W34557  15.104  15.294  11.916
62232W        W34558  28.131  43.003  11.404
62233W        W34559  25.520  40.832   2.727
62234W        W34560  18.247  28.606  13.938
62235W        W34561  41.806  44.317   2.308
62236W        W34562  33.067   5.315   2.274
62237W        W34563  13.843  29.134   3.734
62238W        W34564  27.599   1.266   2.802
62239W        W34565   4.298  14.245   3.703
62240W        W34566  12.624  15.592  11.512
62241W        W34567  24.988  36.352  10.491
62242W        W34568  34.450  37.569   0.752
62243W        W34569  37.957   4.919  13.936
62244W        W34570  29.069  29.597  14.425
62245W        W34571  20.271  16.186  11.898
62246W        W34572  35.364  40.327   2.413
62247W        W34573  34.563  23.698   4.306
62248W        W34574  41.497  21.691  11.459
62249W        W34575   3.366  10.676  13.058
62250W        W34576  31.920   3.804   2.840
62251W        W34577  30.072  12.262  11.421
62252W        W34578  43.913   7.284  12.007
62253W        W34579  40.454  27.092  12.925
62254W        W34580  19.203  28.647  14.385
62255W        W34581  26.610  15.632  11.882
62256W        W34582   7.298   8.195  11.893
62257W        W34583  35.402  29.941   3.801
62258W        W34584  20.751   5.223   4.328
62259W        W34585  43.390  29.619   1.231
62260W        W34586   9.802  28.933  11.102
62261W        W34587  36.917   1.748   1.362
62262W        W34588   0.763  11.830   3.695
62263W        W34589  18.685  11.312   3.813
62264W        W34590  36.934  16.106   3.687
62265W        W34591  26.633  41.020   2.363
62266W        W34592  10.385  44.431  13.010
62267W        W34593  19.118   5.736   3.839
62268W        W34594   4.819  41.300  14.427
62269W        W34595   4.245  39.009   2.701
62270W        W34596   0.817  27.145  11.480
62271W        W34597  39.446  12.352   9.444
62272W        W34598  19.285  15.311  10.595
62273W        W34599   9.379  12.710  12.420
62274W        W34600   2.854  25.115  12.944
62275W        W34601  24.527  28.676   1.404
62276W        W34602   7.314  12.331  13.534
62277W        W34603  14.152  12.739   3.199
62278W        W34604  22.574  14.588  12.498
62279W        W34605   6.736  24.060   2.410
62280W        W34606   1.469  37.450  10.511
62281W        W34607   0.801  31.587   1.347
62282W        W34608   5.829  38.357   3.702
62283W        W34609  42.960  31.153   0.872
62284W        W34610  41.878  36.993  12.466
62285W        W34611  38.887  31.986   1.794
62286W        W34612  20.066  12.614  13.440
62287W        W34613   8.890  31.924   2.745
62288W        W34614   0.377  44.965  11.374
62289W        W34615   1.790  28.532  11.540
62290W        W34616  38.357   2.247   4.312
62291W        W34617  26.092  25.493  12.028
62292W        W34618  33.407   2.774   2.831
62293W        W34619  17.775  30.154   3.268
62294W        W34620   5.779   0.979  14.283
62295W        W34621   9.296  12.184  13.318
62296W        W34622  32.063   9.372  10.483
62297W        W34623  43.471  12.206   0.424
62298W        W34624   5.353   7.824  13.029
62299W        W34625  33.552  27.951   0.482
62300W        W34626  11.823  23.010  14.346
62301W        W34627  41.905  11.215   0.909
62302W        W34628  27.470  21.066  12.025
62303W        W34629  18.190  30.108   3.813
62304W        W34630  24.575  43.485  13.884
62305W        W34631  31.949   2.884  13.943
62306W        W34632  33.881  44.777   3.292
62307W        W34633  34.908   9.388   2.740
62308W        W34634  19.262  14.241   0.835
62309W        W34635  23.186  20.678   3.744
62310W        W34636  15.672  15.742  13.889
62311W        W34637  21.199  40.862  13.436
62312W        W34638   5.439   6.316   0.468
62313W        W34639  10.691  38.860   4.662
62314W        W34640   5.826  38.856   4.160
62315W        W34641  15.744  13.721  10.628
62316W        W34642  19.695   7.239   4.688
62317W        W34643  29.120  41.521   2.867
62318W        W34644  12.207  18.173   1.916
62319W        W34645  18.593   3.775  11.864
62320W        W34646  16.270  17.688  14.908
62321W        W34647  16.744   6.419   3.720
62322W        W34648  31.100   5.845  11.538
62323W        W34649  29.047  22.029  11.964
62324W        W34650   9.219  13.193   0.851
62325W        W34651  14.133  12.219   2.768
62326W        W34652  18.757  21.194   1.345
62327W        W34653  15.715  14.661   3.240
62328W        W34654  40.380  31.947   1.354
62329W        W34655  32.094   7.894   1.428
62330W        W34656  37.533  35.937  10.604
62331W        W34657  36.872  13.701  12.376
62332W        W34658  34.476  28.570  13.875
62333W        W34659  32.041  11.634   2.323
62334W        W34660   0.393  20.734  13.328
62335W        W34661  20.592   2.377  14.879
62336W        W34662  18.592  15.701   1.838
62337W        W34663  26.502  22.030   1.282
62338W        W34664  31.984  11.672   3.200
62339W        W34665   1.957  36.968   3.380
62340W        W34666   5.357   9.210  12.030
62341W        W34667  38.491  38.982   0.437
62342W        W34668  34.409   2.403   0.312
62343W        W34669  36.889  20.649   1.893
62344W        W34670  36.891   1.426  14.444
62345W        W34671  25.115  22.724  14.345
62346W        W34672  34.437  11.804   4.170
62347W        W34673  19.556  43.764   2.313
62348W        W34674  21.030  16.198  11.441
62349W        W34675  10.340  26.685   5.277
62350W        W34676  33.410  30.460   1.898
62351W        W34677  29.670  19.192   3.190
62352W        W34678  16.071  16.677  14.927
62353W        W34679  31.925  43.818   3.700
62354W        W34680  25.630  20.087  12.485
62355W        W34681  19.612  22.164   2.347
62356W        W34682  11.624  26.502  12.571
62357W        W34683   9.734  38.565   1.793
62358W        W34684   0.951  43.349   1.875
62359W        W34685  26.603  11.824  14.868
62360W        W34686  12.760  34.444   2.817
62361W        W34687  25.112  37.873  10.563
62362W        W34688  38.930  37.457   2.746
62363W        W34689  30.151   2.865   0.814
62364W        W34690  17.609  37.058   2.663
62365W        W34691  26.554  38.968   1.920
62366W        W34692  37.536   1.969   3.278
62367W        W34693  32.566  38.007   2.669
62368W        W34694   0.915  24.619   1.803
62369W        W34695   7.769  11.250   4.642
62370W        W34696  18.568  43.477   4.736
62371W        W34697  41.916  23.989   2.340
62372W        W34698  33.922   3.418  12.048
62373W        W34699  12.259  11.755   4.831
62374W        W34700  10.245  41.493  12.961
62375W        W34701  17.794  38.465  14.922
62376W        W34702  21.163  38.376   5.143
62377W        W34703  30.916  24.561  13.502
62378W        W34704  41.819  30.645   3.643
62379W        W34705  40.823  23.526  13.884
62380W        W34706  17.731  27.547  12.558
62381W        W34707   0.967   9.296   3.318
62382W        W34708  39.932  20.639  14.423
62383W        W34709   3.436  43.305  10.496
62384W        W34710   5.318   3.343   4.610
62385W        W34711  11.791  27.124   2.185
62386W        W34712  43.411  20.062  13.979
62387W        W34713   6.330   9.830  10.531
62388W        W34714  27.084   2.364   0.760
62389W        W34715  42.899   7.697   2.220
62390W        W34716  10.253   8.875  12.575
62391W        W34717   3.316  25.712   0.468
62392W        W34718  39.455  31.503  10.915
62393W        W34719  36.013  27.507  14.507
62394W        W34720  18.572   2.827  14.404
62395W        W34721  16.191  29.538  11.930
62396W        W34722  26.682  35.505  10.618
62397W        W34723   4.238  44.965   3.225
62398W        W34724  33.592   1.760   4.673
62399W        W34725  24.209  34.030  11.889
62400W        W34726  36.976   7.784   0.922
62401W        W34727  20.552  23.581  11.032
62402W        W34728  42.876  27.580   0.726
62403W        W34729  25.134  36.998   3.819
62404W        W34730  17.304  35.068   3.848
62405W        W34731  24.662  28.994   4.719
62406W        W34732  11.309  21.750   3.834
62407W        W34733  44.794   8.779  14.006
62408W        W34734  10.219  16.143  10.992
62409W        W34735  33.944  39.556   0.861
62410W        W34736  22.719  13.286   3.298
62411W        W34737  43.327  19.575  10.407
62412W        W34738  10.821  42.288  14.514
62413W        W34739  21.569  30.633  12.567
62414W        W34740  16.649   9.304  14.310
62415W        W34741  35.859   4.881   2.343
62416W        W34742  20.107  30.006   3.336
62417W        W34743  25.131  26.089  14.420
62418W        W34744  37.388  10.660  11.027
62419W        W34745   6.915  41.457  13.841
62420W        W34746  16.106  40.039  14.982
62421W        W34747  25.559  30.433  12.873
62422W        W34748  23.165  14.684   0.952
62423W        W34749  40.448  35.515   3.868
62424W        W34750  31.562   4.727   3.674
62425W        W34751  13.844  37.554  12.065
62426W        W34752  28.099   9.252  13.529
62427W        W34753   9.814  28.168  13.894
62428W        W34754   2.794  18.760   3.284
62429W        W34755  25.037   4.368  14.305
62430W        W34756  23.597  38.956  12.824
62431W        W34757  24.605  10.805  10.491
62432W        W34758  38.955   1.481  11.430
62433W        W34759   1.863   8.338   0.340
62434W        W34760  26.591  42.022  10.522
62435W        W34761   8.857   3.769  12.512
62436W        W34762  13.599  13.304   3.341
62437W        W34763  34.551  39.401  12.366
62438W        W34764   9.726   4.717   1.853
62439W        W34765  30.636  31.541  14.993
62440W        W34766  22.553  16.630   4.349
62441W        W34767  36.408  13.746   4.255
62442W        W34768  12.237   7.173  14.311
62443W        W34769  16.666  27.178  12.843
62444W        W34770  22.703  10.291   0.913
62445W        W34771  18.278   2.763  13.044
62446W        W34772  15.243  33.917   0.812
62447W        W34773  37.561  13.714   1.422
62448W        W34774  20.541  19.164   0.417
62449W        W34775  32.124   0.825   4.234
62450W        W34776  10.796  38.868  12.938
62451W        W34777  18.631  34.380   4.632
62452W        W34778  40.531  14.813   0.755
62453W        W34779   7.891  40.330  13.031
62454W        W34780  23.631  31.614   0.315
62455W        W34781  19.040  19.262  12.484
62456W        W34782  22.724  20.672   2.687
62457W        W34783  39.351  21.616   4.275
62458W        W34784  35.453   3.946   2.670
62459W        W34785  30.974  38.338   3.729
62460W        W34786  15.300  14.110  11.968
62461W        W34787   4.316  22.042   5.096
62462W        W34788   6.231  41.518  10.594
62463W        W34789  17.259   5.383   3.765
62464W        W34790  28.064  24.702   1.822
62465W        W34791  39.412  41.929   1.419
62466W        W34792  42.949  11.863  12.561
62467W        W34793   8.341  13.657  11.870
62468W        W34794  34.105  28.585   3.325
62469W        W34795  27.139  30.519  14.866
62470W        W34796  37.978  14.610   4.668
62471W        W34797   1.355   6.915   1.398
62472W        W34798  44.947  37.962   4.825
62473W        W34799  34.079  41.356  10.531
62474W        W34800  17.746   8.315  13.039
62475W        W34801   9.773  31.463  13.007
62476W        W34802  37.573  29.103   4.677
62477W        W34803  14.327   6.290  12.470
62478W        W34804  31.966  26.518  13.429
62479W        W34805  31.435  19.732   2.768
62480W        W34806  31.908   8.182  12.037
62481W        W34807  28.058  41.823  11.012
62482W        W34808  19.544  32.477   0.940
62483W        W34809   3.766  29.936  12.959
62484W        W34810  17.136  14.190  14.888
62485W        W34811  37.573   9.731  14.433
62486W        W34812   1.778  40.548   4.183
62487W        W34813  35.587  28.654   1.286
62488W        W34814  13.221  28.085  12.566
62489W        W34815  26.520  32.979   2.310
62490W        W34816  38.948  36.505   2.741
62491W        W34817  15.301  34.120   1.719
62492W        W34818  27.963   0.816  13.369
62493W        W34819  14.595  19.203  13.446
62494W        W34820  13.171  12.271   3.632
62495W        W34821  23.185  33.403   0.837
62496W        W34822  29.047  35.984   3.161
62497W        W34823  41.532  37.474   4.340
62498W        W34824  23.731   5.857  11.991
62499W        W34825   2.952  36.347   4.731
62500W        W34826   1.766  25.697  13.341
62501W        W34827  25.586   8.775   0.805
62502W        W34828   4.742  30.034   4.729
62503W        W34829  23.515  22.140   4.780
62504W        W34830  21.641  44.881  12.088
62505W        W34831  28.517  15.670   2.236
62506W        W34832  27.676  30.538  12.016
62507W        W34833  20.037  38.838   3.863
62508W        W34834  44.397   9.668   9.979
62509W        W34835  21.678   0.840  12.561
62510W        W34836   5.322  23.169   0.442
62511W        W34837  12.839  42.449   0.371
62512W        W34838  36.422  34.576  14.407
62513W        W34839  35.547   2.378  12.474
62514W        W34840  25.587  32.453  10.450
62515W        W34841  25.193  26.959  12.835
62516W        W34842  33.986  13.254  11.088
62517W        W34843   2.738  38.434   4.762
62518W        W34844  40.308  37.087  10.539
62519W        W34845  34.952  19.574  10.435
62520W        W34846  44.831   1.954   1.299
62521W        W34847  29.925   9.645   4.779
62522W        W34848  24.056  41.963  11.958
62523W        W34849  13.739  32.092   0.890
62524W        W34850  36.880  33.482   4.619
62525W        W34851  16.700  41.865   1.829
62526W        W34852   6.820   0.249   0.826
62527W        W34853  26.651  24.706   2.294
62528W        W34854  25.493   7.197  13.448
62529W        W34855  17.303   4.310   0.473
62530W        W34856   3.780  24.507  14.968
62531W        W34857  44.289   1.354   4.134
62532W        W34858  14.166  21.709  10.457
62533W        W34859  42.328  26.613   1.857
62534W        W34860  41.983  21.159  11.385
62535W        W34861   0.374  28.150   4.113
62536W        W34862  44.797  32.396  11.450
62537W        W34863  22.073  30.637   1.339
62538W        W34864  11.828  32.568  10.426
62539W        W34865  42.388   1.783  12.884
62540W        W34866  21.745  28.435   3.208
62541W        W34867  31.593  36.001   4.318
62542W        W34868   0.822  38.069   1.392
62543W        W34869  36.545  41.344  12.541
62544W        W34870  38.933  24.988   3.727
62545W        W34871   5.256  41.450   4.140
62546W        W34872   3.937   4.396   9.936
62547W        W34873  33.128  34.559  11.439
62548W        W34874  43.471  20.232  12.088
62549W        W34875  26.072   7.852   2.789
62550W        W34876  10.712  17.202   0.312
62551W        W34877  43.934  15.682  14.512
62552W        W34878  19.049  27.965  14.388
62553W        W34879   8.869   0.757  12.533
62554W        W34880  31.099  39.450   0.749
62555W        W34881  23.108  29.981  14.970
62556W        W34882  38.387  40.047   3.774
62557W        W34883  20.043  27.191   1.787
62558W        W34884  29.951  15.224  13.832
62559W        W34885   0.965  34.915   2.838
62560W        W34886  30.456  25.120  10.914
62561W        W34887  31.971  15.713   3.266
62562W        W34888  38.972   5.281  14.416
62563W        W34889  13.827  10.260   4.330
62564W        W34890  29.957   4.837   1.287
62565W        W34891  30.474  22.573   3.248
62566W        W34892  39.850  30.488   0.361
62567W        W34893  42.971  24.109   3.752
62568W        W34894  24.987  42.362  11.002
62569W        W34895  14.625   8.306   0.348
62570W        W34896  30.601  11.775   4.625
62571W        W34897   0.745   8.261  10.516
62572W        W34898  27.098   9.170  13.494
62573W        W34899  10.730  18.229   3.164
62574W        W34900  25.074  32.546  10.547
62575W        W34901  30.139  10.266   0.820
62576W        W34902   5.439  38.036   0.880
62577W        W34903  32.895  15.223   1.423
62578W        W34904  25.992  27.041   5.086
62579W        W34905   1.836   4.327   1.778
62580W        W34906   4.728   2.900  12.952
62581W        W34907  26.965  27.610   2.675
62582W        W34908  32.922  22.137  10.530
62583W        W34909  17.087  17.157   2.221
62584W        W34910  42.978  41.394  12.359
62585W        W34911  42.783  15.221   0.903
62586W        W34912  22.593  35.862  14.481
62587W        W34913  25.034   7.269  10.554
62588W        W34914  13.604  34.904  11.892
62589W        W34915   3.316   2.450  12.948
62590W        W34916  20.256  42.913  14.979
62591W        W34917  43.996  23.710  11.015
62592W        W34918  21.673  13.287   0.884
62593W        W34919  29.109  23.500   4.315
62594W        W34920  40.372  15.280   0.925
62595W        W34921  26.996  37.351   0.793
62596W        W34922  14.315  43.476  14.812
62597W        W34923  14.192   0.759  13.795
62598W        W34924  11.285  20.146  14.479
62599W        W34925   8.308  35.930  10.962
62600W        W34926   4.391  15.680   2.718
62601W        W34927   2.440  11.851   9.931
62602W        W34928   5.879  36.589   2.271
62603W        W34929  27.985  22.146  11.027
62604W        W34930  44.480  39.992   9.981
62605W        W34931   3.285  32.059   0.781
62606W        W34932   8.406  34.946   0.885
62607W        W34933  32.542   0.931  13.386
62608W        W34934  35.953  11.331  13.906
62609W        W34935  23.701  15.630   4.126
62610W        W34936  42.945  24.632   4.338
62611W        W34937  39.362   2.851   2.744
62612W        W34938  23.492  20.119  10.931
62613W        W34939  28.661  16.186   0.475
62614W        W34940  35.511   5.819   0.849
62615W        W34941  10.276   8.257   3.310
62616W        W34942  29.091   7.854   4.644
62617W        W34943  28.525  40.820   4.800
62618W        W34944  44.778   5.927   3.185
62619W        W34945   8.831  26.505   4.807
62620W        W34946  19.737  21.570   4.733
62621W        W34947   2.244  20.655   0.256
62622W        W34948  27.946  22.244   4.635
62623W        W34949  27.991   6.205   2.783
62624W        W34950  40.405  26.519   5.235
62625W        W34951  15.606  32.133   5.301
62626W        W34952  38.365  30.122   2.850
62627W        W34953  30.505   4.450  10.499
62628W        W34954   0.780  40.036   1.374
62629W        W34955  12.345  17.261  12.910
62630W        W34956  15.785  26.177  11.110
62631W        W34957  25.650  27.105   0.856
62632W        W34958   0.414  32.031  11.548
62633W        W34959  29.459  26.639  13.035
62634W        W34960  16.093  21.656  11.088
62635W        W34961  29.928  40.400   3.860
62636W        W34962   3.415  19.648   1.291
62637W        W34963   4.897   6.375  12.450
62638W        W34964  24.119  20.584   3.827
62639W        W34965   1.827   4.940   1.366
62640W        W34966  11.730  39.403   1.791
62641W        W34967  24.022  14.690   3.338
62642W        W34968  17.062  30.438   4.603
62643W        W34969  30.502  14.339   3.279
62644W        W34970  33.058  23.691   1.391
62645W        W34971  35.468  42.937   4.226
62646W        W34972  26.500  22.531   4.337
62647W        W34973   8.297  26.562  13.503
62648W        W34974   4.449  28.078   3.679
62649W        W34975  29.078  14.648  14.410
62650W        W34976  37.857   7.208  14.010
62651W        W34977  12.254  33.484  12.851
62652W        W34978  12.159  40.941  14.818
62653W        W34979  42.875  36.389   0.777
62654W        W34980  10.724  37.412   5.276
62655W        W34981  26.519  32.578  10.624
62656W        W34982  36.422  21.167   5.137
62657W        W34983  27.049   4.282   4.828
62658W        W34984  30.990   7.188  11.908
62659W        W34985  26.608  34.933  10.490
62660W        W34986  13.613   0.303  13.389
62661W        W34987  37.467  24.658   1.310
62662W        W34988  27.683  16.765   4.337
62663W        W34989  29.559  19.044   4.721
62664W        W34990  29.646  39.009  13.475
62665W        W34991  42.808   5.256   4.130
62666W        W34992  28.453  26.472  10.973
62667W        W34993  38.000  38.917  12.466
62668W        W34994  35.974  15.165  11.384
62669W        W34995  24.578  43.833  14.485
62670W        W34996  29.939  22.023  13.012
62671W        W34997  29.154   4.341   2.315
62672W        W34998  11.837  44.293   4.301
62673W        W34999  12.195  23.668   3.362
62674W        W35000  11.282  30.021   3.663
62675W        W35001   2.818  33.113  10.938
62676W        W35002  15.680  25.090   4.292
62677W        W35003  33.948  35.896   1.440
62678W        W35004   2.726  32.951  11.963
62679W        W35005  43.917  17.798  13.497
62680W        W35006  17.587  32.436   4.196
62681W        W35007  20.546  35.482  14.499
62682W        W35008  20.173  34.428  14.833
62683W        W35009  36.562   2.386  14.333
62684W        W35010  42.868  33.624  12.034
62685W        W35011   4.752  39.319  13.463
62686W        W35012  18.774   9.157   2.884
62687W        W35013  15.808  31.463  13.393
62688W        W35014  19.118  29.077  10.957
62689W        W35015  35.375  20.052  14.914
62690W        W35016  28.617  44.378  13.947
62691W        W35017  24.673  31.491   3.329
62692W        W35018  11.638  11.175  13.483
62693W        W35019  11.342   2.947   0.925
62694W        W35020   0.452  24.578  10.492
62695W        W35021   3.231  27.120  13.912
62696W        W35022   9.844  41.909   1.809
62697W        W35023   4.206  34.069  13.354
62698W        W35024  39.016   3.740  10.992
62699W        W35025  42.023   6.227   0.480
62700W        W35026   6.319  14.336   4.626
62701W        W35027  31.495   3.810  12.501
62702W        W35028  12.288   2.464  12.037
62703W        W35029  37.894  35.878   3.340
62704W        W35030  18.094  37.008   3.702
62705W        W35031  24.136   7.745  10.899
62706W        W35032  32.005   0.477  13.518
62707W        W35033   5.274   5.752   0.814
62708W        W35034  10.154  31.620  10.439
62709W        W35035  39.540   1.934  12.944
62710W        W35036   8.341  27.641   3.255
62711W        W35037  39.010  23.103  11.550
62712W        W35038  30.006  27.046  12.503
62713W        W35039  24.196  25.635  13.451
62714W        W35040   8.858  24.572  12.875
62715W        W35041   1.282  15.241   4.654
62716W        W35042  39.921  27.016   3.204
62717W        W35043  26.090   3.954  12.087
62718W        W35044  35.603  20.540   0.354
62719W        W35045   4.288  22.630  11.464
62720W        W35046   2.247  41.910   1.828
62721W        W35047   1.781   2.472   5.626
62722W        W35048  27.099  25.156   3.828
62723W        W35049   4.262  15.321  13.884
62724W        W35050  27.135  11.740  10.096
62725W        W35051   5.249  44.983  12.897
62726W        W35052   6.923  30.557  10.955
62727W        W35053   1.352  29.481   4.187
62728W        W35054   7.318  38.355  14.853
62729W        W35055  17.149  25.702   1.320
62730W        W35056  23.643  18.744  10.532
62731W        W35057  30.125  44.779  13.807
62732W        W35058  25.494  29.646  14.295
62733W        W35059   5.927  43.863  11.396
62734W        W35060  22.690  39.558   0.955
62735W        W35061   6.683  30.603  14.441
62736W        W35062  25.102  18.293  10.922
62737W        W35063  43.961  20.744  11.124
62738W        W35064  43.296   0.335   0.957
62739W        W35065  32.949  32.630  11.548
62740W        W35066  38.877  36.485  11.027
62741W        W35067   3.270  28.038   3.866
62742W        W35068  16.114   7.365  14.785
62743W        W35069   5.214  41.805  13.435
62744W        W35070   3.908  43.986  12.051
62745W        W35071  28.631  28.021   3.228
62746W        W35072   4.234   3.314  12.960
62747W        W35073   8.390   7.190  11.934
62748W        W35074  37.999   4.902   4.738
62749W        W35075   2.943  21.070   3.244
62750W        W35076   8.772   3.833  13.902
62751W        W35077  22.603   6.287  12.938
62752W        W35078  28.151  42.328  11.986
62753W        W35079  35.055   3.377  12.350
62754W        W35080  44.417  31.411  10.023
62755W        W35081  33.518  40.348  14.992
62756W        W35082  36.567   2.406  11.891
62757W        W35083  33.989   7.861  12.452
62758W        W35084  34.895  30.003   0.358
62759W        W35085  23.571  36.054   4.233
62760W        W35086  28.176  32.094  10.494
62761W        W35087  26.640  30.437  12.027
62762W        W35088  28.979  11.144  10.453
62763W        W35089  19.041   7.748  14.427
62764W        W35090   5.236  17.247   2.213
62765W        W35091  11.818  16.812  11.604
62766W        W35092   3.442  39.490  11.451
62767W        W35093  12.340  26.529  13.371
62768W        W35094   3.904  21.242   3.774
62769W        W35095  20.110  14.269   0.739
62770W        W35096  28.972  43.492  10.889
62771W        W35097  23.654   1.399   3.676
62772W        W35098  36.937  27.481  10.471
62773W        W35099  44.973  38.331  14.999
62774W        W35100   4.700   2.872   1.723
62775W        W35101   8.754  33.413   1.218
62776W        W35102  44.944  43.464   2.390
62777W        W35103  28.480  30.540   2.234
62778W        W35104  30.072  10.142  10.948
62779W        W35105  30.507  26.483   2.278
62780W        W35106   1.903  43.919   4.134
62781W        W35107  18.170  25.057   2.289
62782W        W35108  17.212   4.433  11.018
62783W        W35109  24.623  38.042  10.574
62784W        W35110  23.120   0.339  11.894
62785W        W35111  13.614  31.914  12.952
62786W        W35112  31.412  44.916   4.125
62787W        W35113  32.521   9.771  14.796
62788W        W35114   5.900  36.047  13.027
62789W        W35115  13.798  33.596  12.065
62790W        W35116  16.226  19.247   1.316
62791W        W35117   0.773  28.049  14.439
62792W        W35118  11.318  43.383   3.839
62793W        W35119  20.554  29.627   4.647
62794W        W35120   6.917  43.470   4.784
62795W        W35121  34.488   0.894   2.782
62796W        W35122  41.499  42.913  11.372
62797W        W35123  17.244   8.384  14.901
62798W        W35124   8.365  38.982   1.331
62799W        W35125  19.125   3.822   3.661
62800W        W35126  32.133   2.387   2.860
62801W        W35127  29.062  12.795  11.393
62802W        W35128  16.671  23.046  13.997
62803W        W35129  26.075  14.167  12.490
62804W        W35130  43.957  27.038   0.813
62805W        W35131  36.033   7.670  12.864
62806W        W35132  14.264  37.943  10.973
62807W        W35133  26.599  27.672   0.901
62808W        W35134   4.707  42.379   4.631
62809W        W35135  42.338   1.432   2.287
62810W        W35136  21.150  23.176  14.853
62811W        W35137   1.249   4.241   5.272
62812W        W35138  27.667   8.367   1.882
62813W        W35139  43.917  43.937   1.228
62814W        W35140  25.071  17.160   3.270
62815W        W35141  40.309  14.176  14.420
62816W        W35142  35.432  31.983  11.570
62817W        W35143  40.435  44.369   1.388
62818W        W35144   9.669  19.066   4.315
62819W        W35145  38.494  39.002  14.834
62820W        W35146  16.711  10.194   1.718
62821W        W35147  11.649  12.735   1.735
62822W        W35148  32.074  34.024   1.798
62823W        W35149  25.549  12.735   3.708
62824W        W35150  31.593  21.056  12.370
62825W        W35151  32.587   1.351  10.972
62826W        W35152   6.817  17.670   2.206
62827W        W35153  14.215  35.080   5.107
62828W        W35154  10.708  13.180  14.493
62829W        W35155  19.050   7.688  13.012
62830W        W35156  32.902  26.506   1.269
62831W        W35157  19.157   7.288  12.913
62832W        W35158  17.784  14.327   2.183
62833W        W35159  33.084   2.770  13.313
62834W        W35160   3.885   0.439  11.430
62835W        W35161  40.830  25.500  14.338
62836W        W35162   4.857  18.684  13.417
62837W        W35163  24.034  38.997  10.905
62838W        W35164   0.921  28.591  10.605
62839W        W35165   4.280  23.635  12.343
62840W        W35166  23.173  40.423   4.198
62841W        W35167  34.555  41.523   4.824
62842W        W35168  29.505  28.498  14.486
62843W        W35169   9.383  33.018   2.187
62844W        W35170  27.689  18.695   1.347
62845W        W35171  32.527  16.135  13.406
62846W        W35172  42.851  22.111   4.175
62847W        W35173   4.395  24.085  14.793
62848W        W35174  22.034  15.167  14.910
62849W        W35175  21.234  26.529  13.951
62850W        W35176   2.398  37.881  12.013
62851W        W35177  31.091  22.209  13.871
62852W        W35178  16.102  14.615   4.630
62853W        W35179   6.310  38.886   1.329
62854W        W35180  29.455  39.452   3.367
62855W        W35181  40.468  30.610   3.810
62856W        W35182  41.316   3.453  12.553
62857W        W35183  36.019  14.649   4.328
62858W        W35184   6.289   6.415   4.315
62859W        W35185  33.073  21.619  13.468
62860W        W35186  32.632  42.776   3.812
62861W        W35187   4.773  14.298   2.793
62862W        W35188   6.400  15.202  11.922
62863W        W35189  16.223  29.442  13.439
62864W        W35190  39.501  39.025   1.432
62865W        W35191   2.766  14.603  10.546
62866W        W35192  30.087  15.238   0.744
62867W        W35193  13.236  19.059   3.675
62868W        W35194  13.729  33.442   1.927
62869W        W35195  17.203  31.456  11.517
62870W        W35196  25.062  27.661   0.377
62871W        W35197  23.687  10.238   3.805
62872W        W35198  36.868  18.750   2.279
62873W        W35199  41.344   6.266  14.438
62874W        W35200  40.865  10.377   2.331
62875W        W35201  12.137  32.402  12.079
62876W        W35202  37.435  16.234  12.501
62877W        W35203   3.882   3.312  13.841
62878W        W35204   0.897  40.801   3.265
62879W        W35205   9.377  24.051   3.768
62880W        W35206  29.000   0.294  12.903
62881W        W35207  42.515  34.881   2.275
62882W        W35208  28.650  19.620   3.300
62883W        W35209  23.086  17.568   1.917
62884W        W35210   3.359  11.735  12.894
62885W        W35211   3.759  29.135  12.936
62886W        W35212  20.055   7.373  12.962
62887W        W35213   7.814  15.124   0.816
62888W        W35214  19.122  38.875   0.365
62889W        W35215  29.075   5.283  11.908
62890W        W35216   1.259  19.579  11.006
62891W        W35217  14.238  13.249   4.153
62892W        W35218  24.502   8.731  13.936
62893W        W35219   8.218   2.773  11.429
62894W        W35220  38.856   5.704  13.490
62895W        W35221   5.887  30.548   4.657
62896W        W35222  37.366  16.297  10.637
62897W        W35223   3.359  18.237  12.554
62898W        W35224  40.429  27.546  14.959
62899W        W35225  39.835  21.022   1.431
62900W        W35226  20.130  33.028   0.833
62901W        W35227  25.017   0.743   3.331
62902W        W35228   2.290   3.748   1.778
62903W        W35229  42.816  33.131   3.769
62904W        W35230  33.461  24.601   1.712
62905W        W35231  42.423  36.843   2.867
62906W        W35232  30.163  38.449   2.360
62907W        W35233  40.405   0.865   2.257
62908W        W35234  19.048  40.864   4.808
62909W        W35235   4.889  31.611  11.004
62910W        W35236  42.914  25.643  10.590
62911W        W35237  11.138  44.485   4.621
62912W        W35238  21.733  13.239   1.827
62913W        W35239  26.114  17.186   1.854
62914W        W35240  11.170  34.028  10.599
62915W        W35241  16.289   8.331   1.375
62916W        W35242  18.152  32.609   2.721
62917W        W35243   2.935   8.719   5.132
62918W        W35244  10.233  28.949   4.296
62919W        W35245  39.000  43.370   1.381
62920W        W35246  23.060  40.981   0.824
62921W        W35247  19.100   1.240   4.344
62922W        W35248  22.711  34.508   2.323
62923W        W35249   0.334  12.126  13.494
62924W        W35250   4.435  17.669   2.867
62925W        W35251   2.345   6.294   0.366
62926W        W35252  11.714   1.362   0.746
62927W        W35253  24.074  34.516  13.462
62928W        W35254  40.054   9.361   0.942
62929W        W35255  34.376  26.169   4.337
62930W        W35256   7.826  26.174   0.961
62931W        W35257  24.192   4.259  13.485
62932W        W35258  15.285  19.181   2.319
62933W        W35259  24.202  29.005  11.384
62934W        W35260  25.519   1.250  11.384
62935W        W35261  31.567  18.177   2.229
62936W        W35262  19.280   6.750   2.258
62937W        W35263  34.083  19.727   3.285
62938W        W35264  33.081  25.065  11.918
62939W        W35265  28.145  30.651  10.408
62940W        W35266  30.090  23.602   3.760
62941W        W35267  20.695  12.693   1.747
62942W        W35268  20.119  24.485  13.509
62943W        W35269  13.300   1.874   0.789
62944W        W35270  19.565  22.744  13.378
62945W        W35271  12.621   4.884  11.597
62946W        W35272  18.638  18.747  14.016
62947W        W35273  15.631  39.396  11.599
62948W        W35274  32.549  32.949  14.794
62949W        W35275  22.181  39.975   5.317
62950W        W35276  22.603  39.024  14.995
62951W        W35277   6.713  41.979  14.303
62952W        W35278   0.362  33.461  13.977
62953W        W35279  24.535   3.721  11.510
62954W        W35280  26.194  13.620  12.539
62955W        W35281   0.430   5.688   2.703
62956W        W35282   1.274  35.010   0.828
62957W        W35283  22.054   5.197  13.903
62958W        W35284  42.005  36.006   5.179
62959W        W35285  33.921   0.822   0.817
62960W        W35286  44.264  20.745  10.499
62961W        W35287  19.541  40.953  11.506
62962W        W35288  41.941  26.146  11.118
62963W        W35289   4.254  31.938   2.366
62964W        W35290  29.926  31.563   0.383
62965W        W35291  11.628  19.152  12.532
62966W        W35292  44.949  36.980  12.911
62967W        W35293  11.140  26.133  13.995
62968W        W35294  36.052  34.070  11.570
62969W        W35295   7.286  28.670   3.686
62970W        W35296  12.655  12.236   2.872
62971W        W35297  31.573   6.183  11.947
62972W        W35298  41.347  17.157  12.039
62973W        W35299  32.464   2.439   3.167
62974W        W35300  20.646  16.751   4.148
62975W        W35301  20.183  29.495   2.888
62976W        W35302  28.523   4.866   3.651
62977W        W35303  38.975   6.230   1.876
62978W        W35304  14.096  21.685  12.572
62979W        W35305  41.416  26.459  12.580
62980W        W35306  40.959  19.622   0.461
62981W        W35307  26.985  32.058   4.210
62982W        W35308   9.150  13.795  10.431
62983W        W35309   0.404   8.723   0.899
62984W        W35310   7.375  23.117  10.591
62985W        W35311  39.481  14.827   2.752
62986W        W35312   1.368   1.875  10.505
62987W        W35313  28.490   6.240   1.868
62988W        W35314   8.332  37.553   4.640
62989W        W35315  21.561  18.611  14.939
62990W        W35316  12.714   2.260  14.981
62991W        W35317  14.743  35.501   2.730
62992W        W35318   5.809  13.683  12.914
62993W        W35319   1.883  25.135  11.513
62994W        W35320   0.978  27.110   3.767
62995W        W35321  10.189  29.078  10.158
62996W        W35322  17.115  32.455  14.823
62997W        W35323  36.051  14.820  13.037
62998W        W35324  21.588  32.569   1.330
62999W        W35325  42.458  33.008  11.438
63000W        W35326  11.260  14.757  14.910
63001W        W35327  31.492  21.152  11.572
63002W        W35328  34.974  21.057  11.956
63003W        W35329  22.717  34.967   2.337
63004W        W35330  22.559  15.657   3.662
63005W        W35331   9.655  15.117   4.309
63006W        W35332  39.029  42.319   4.248
63007W        W35333   7.225  18.130  10.927
63008W        W35334  18.625  44.358  13.050
63009W        W35335  43.818   6.345   3.734
63010W        W35336  41.507  11.301  11.494
63011W        W35337  29.655  41.456   0.465
63012W        W35338  14.307   2.907  14.305
63013W        W35339  19.214  24.050  11.529
63014W        W35340  17.266  42.429   1.828
63015W        W35341   4.858  15.291   2.188
63016W        W35342  11.673  26.530  11.076
63017W        W35343   4.755  15.820  10.001
63018W        W35344  31.111  14.745   4.679
63019W        W35345  44.813  20.642  12.097
63020W        W35346   2.229  14.241   3.753
63021W        W35347  33.113  10.246  14.839
63022W        W35348  30.032  10.355   3.236
63023W        W35349  28.674  23.168   4.658
63024W        W35350  13.180   1.918   9.989
63025W        W35351   8.802   3.918  14.951
63026W        W35352  29.650  22.200  12.002
63027W        W35353  43.277   4.747  13.020
63028W        W35354  37.902  26.573  10.140
63029W        W35355  33.482  41.948   4.759
63030W        W35356  21.573  15.771  10.608
63031W        W35357  44.288  37.931  10.512
63032W        W35358   5.782  37.386   2.261
63033W        W35359  26.595  35.362  14.849
63034W        W35360   2.796  38.394  10.911
63035W        W35361  31.402  20.053  12.497
63036W        W35362  19.064  33.381  12.462
63037W        W35363   4.216   8.294  14.442
63038W        W35364  20.155  15.694  12.428
63039W        W35365  43.989  30.490   1.781
63040W        W35366  11.800  15.771   2.805
63041W        W35367  42.829  12.655   0.835
63042W        W35368  37.401  31.407  14.949
63043W        W35369  10.214  20.577  14.952
63044W        W35370  24.584  30.433   1.763
63045W        W35371   5.750  20.076   4.697
63046W        W35372   3.929   4.304   1.789
63047W        W35373  28.142  32.011  10.152
63048W        W35374   0.265   1.376   0.416
63049W        W35375   9.709   9.704  10.930
63050W        W35376   3.824  36.467   0.946
63051W        W35377  10.253  43.978  14.349
63052W        W35378  32.621   1.815  13.381
63053W        W35379  10.238  14.281  12.416
63054W        W35380  18.739  19.252  13.802
63055W        W35381  23.573  20.657  14.807
63056W        W35382   9.680  15.729  14.315
63057W        W35383  18.262   3.447   0.382
63058W        W35384  39.951   5.198   1.224
63059W        W35385   4.897   6.863   2.802
63060W        W35386  29.979  20.148  11.373
63061W        W35387  34.994   5.406  12.939
63062W        W35388  40.347   1.953   4.837
63063W        W35389  11.800   1.911   3.694
63064W        W35390  11.770  13.610  11.416
63065W        W35391  14.217   5.872  13.987
63066W        W35392  31.475  19.096   0.466
63067W        W35393  31.619  23.155   2.340
63068W        W35394   0.744   6.709  10.416
63069W        W35395  11.268  12.194   4.833
63070W        W35396  12.848  41.299   0.473
63071W        W35397  33.897  41.369   1.799
63072W        W35398  23.516  25.105   1.277
63073W        W35399  38.016  19.069   3.253
63074W        W35400  39.512  32.041   3.740
63075W        W35401  13.123  33.992   0.304
63076W        W35402  17.718  30.132  10.913
63077W        W35403  28.171  14.671   3.257
63078W        W35404  22.190  39.501  11.493
63079W        W35405  20.074  39.529  13.931
63080W        W35406  14.179  17.709  12.458
63081W        W35407   0.877  21.622   2.371
63082W        W35408  42.969  16.645   3.827
63083W        W35409  20.112  35.908   3.373
63084W        W35410  19.749  37.535  10.497
63085W        W35411   9.735   8.382   1.822
63086W        W35412  24.659  44.283  12.999
63087W        W35413  27.641  27.618  13.308
63088W        W35414  44.413   6.428  13.466
63089W        W35415  17.657  18.289  10.905
63090W        W35416  11.860  39.397   1.385
63091W        W35417  33.996  19.777  12.527
63092W        W35418  30.084  34.002  13.546
63093W        W35419  36.845   6.345   2.826
63094W        W35420  17.626   8.382   4.305
63095W        W35421  22.192  24.547  10.440
63096W        W35422  25.974  32.487  11.491
63097W        W35423  20.728  15.737   4.290
63098W        W35424   7.354  30.961   1.252
63099W        W35425  26.147  15.284   1.749
63100W        W35426  17.136  29.584   4.628
63101W        W35427   5.731  35.988   2.268
63102W        W35428  23.143  17.714   1.240
63103W        W35429  23.580  19.104   4.281
63104W        W35430  34.912   7.698   5.103
63105W        W35431  38.366  23.558  12.363
63106W        W35432  19.618  40.484   3.162
63107W        W35433  39.473   8.332  14.285
63108W        W35434  19.731  23.732   3.771
63109W        W35435   4.316   3.885   1.417
63110W        W35436   5.281   6.806  11.532
63111W        W35437  15.663  15.180   0.258
63112W        W35438  29.522  14.817   4.670
63113W        W35439  29.586  35.476   2.853
63114W        W35440  40.358  32.516  13.881
63115W        W35441  32.569  35.886   0.348
63116W        W35442  12.201  40.453  14.512
63117W        W35443  27.975  35.479  11.518
63118W        W35444  42.337   3.723  13.546
63119W        W35445   9.267  13.155   1.878
63120W        W35446  19.278  25.534   4.715
63121W        W35447  36.583  37.885  11.077
63122W        W35448  24.629  44.396  13.380
63123W        W35449  24.980  32.495   1.887
63124W        W35450  34.436  29.023   4.186
63125W        W35451  16.680   1.419  12.034
63126W        W35452  24.081  37.527  14.311
63127W        W35453  34.068  21.198  14.509
63128W        W35454  24.533  20.274   2.673
63129W        W35455  40.966  22.530  11.863
63130W        W35456  23.522  44.296  14.840
63131W        W35457  33.127  37.930  12.003
63132W        W35458  10.676  12.235  12.030
63133W        W35459  44.323  22.028   2.662
63134W        W35460  35.987  12.294   1.399
63135W        W35461  36.986  35.375   1.311
63136W        W35462   2.411  33.896   4.178
63137W        W35463   1.903   0.262   4.273
63138W        W35464  28.540  19.599   1.322
63139W        W35465  26.120  18.251  11.590
63140W        W35466  23.713   2.268  13.816
63141W        W35467  24.660   4.297   2.298
63142W        W35468  38.050  38.997  14.375
63143W        W35469  22.060  22.138  11.504
63144W        W35470  39.897  43.886  13.954
63145W        W35471  21.655  42.937   2.718
63146W        W35472   1.946   2.756  11.983
63147W        W35473  24.665  17.295   2.666
63148W        W35474  29.164  38.468   1.905
63149W        W35475  18.776  10.690   2.706
63150W        W35476  10.251   2.456   2.370
63151W        W35477  34.508  44.477  10.605
63152W        W35478  20.542  35.424   1.214
63153W        W35479  32.904  41.974   4.636
63154W        W35480  10.230  36.483  11.064
63155W        W35481  21.258  32.058  14.959
63156W        W35482  42.341  13.170   2.385
63157W        W35483   9.299  25.509  13.053
63158W        W35484  17.560  38.520   3.333
63159W        W35485  37.086  15.316  10.586
63160W        W35486   3.931  24.145   0.457
63161W        W35487  20.272  30.578   4.302
63162W        W35488  21.662   5.822  11.006
63163W        W35489   0.286  25.631  11.041
63164W        W35490  44.844   9.327  14.367
63165W        W35491  35.472  17.156  13.906
63166W        W35492  30.592  16.173   3.759
63167W        W35493  22.739  32.444   4.643
63168W        W35494  16.794  21.708   2.201
63169W        W35495  20.111  20.040  14.278
63170W        W35496  20.161  32.970  12.341
63171W        W35497  28.942  24.046   4.171
63172W        W35498  31.013  14.762  14.844
63173W        W35499  35.551  27.087   1.428
63174W        W35500   0.278  44.363  14.436
63175W        W35501  10.216  44.834  10.510
63176W        W35502  40.966  20.548   0.356
63177W        W35503   7.366  43.841   2.870
63178W        W35504  35.860   6.200   1.335
63179W        W35505  21.121  37.434   4.335
63180W        W35506   1.759   1.775  12.489
63181W        W35507  44.762  38.328  13.903
63182W        W35508  14.626  35.407  14.821
63183W        W35509   1.734  18.682   3.272
63184W        W35510   7.405  37.527   2.719
63185W        W35511  27.555  43.985  11.969
63186W        W35512   8.790  42.395   0.400
63187W        W35513   1.269  26.157   4.779
63188W        W35514  14.808   4.223  10.611
63189W        W35515  14.730  38.937   4.268
63190W        W35516  25.164  17.571   2.813
63191W        W35517   9.832  40.493   0.401
63192W        W35518   7.279   7.766  12.903
63193W        W35519  41.907  40.814   2.898
63194W        W35520   2.415  41.462   4.761
63195W        W35521   7.784  11.341   3.842
63196W        W35522  37.865   1.907   2.212
63197W        W35523   8.820   7.189  14.925
63198W        W35524  42.974  24.075   1.266
63199W        W35525  33.418  18.296   2.317
63200W        W35526  35.575  34.984   0.363
63201W        W35527  12.743   1.274  12.070
63202W        W35528  28.122  11.218   3.234
63203W        W35529   3.814   4.797  12.989
63204W        W35530  30.501  12.666  13.063
63205W        W35531  40.426   8.349  11.403
63206W        W35532  44.785  20.076   1.905
63207W        W35533  12.361  28.670  10.930
63208W        W35534   4.267  11.129   0.824
63209W        W35535  31.139  27.560   0.782
63210W        W35536  30.056  17.616   3.382
63211W        W35537  13.303  38.965  11.520
63212W        W35538   7.666  39.020  13.909
63213W        W35539  19.731   0.422  14.422
63214W        W35540   5.348   5.366   4.707
63215W        W35541   1.400  41.468   1.303
63216W        W35542  34.087  38.045  12.379
63217W        W35543  37.467  15.758   5.235
63218W        W35544  40.928   8.898   0.428
63219W        W35545  13.625  36.052   1.451
63220W        W35546   2.291   3.823   5.210
63221W        W35547   2.762  21.650   9.631
63222W        W35548  24.133  17.616  12.514
63223W        W35549   5.759  44.970  13.805
63224W        W35550  40.467   2.763  10.960
63225W        W35551  21.599  29.602   3.810
63226W        W35552  27.966  27.062   3.754
63227W        W35553  42.349  22.012   3.317
63228W        W35554  21.110  12.856  11.072
63229W        W35555  37.005   3.725   3.305
63230W        W35556  12.806  26.480   5.085
63231W        W35557  26.515  27.957   0.939
63232W        W35558  20.646  41.452  14.493
63233W        W35559  11.330  12.120  11.548
63234W        W35560  15.756  31.086  14.879
63235W        W35561  37.860  39.418  10.576
63236W        W35562   5.847   3.458  14.969
63237W        W35563  26.667  11.257   0.400
63238W        W35564  24.666  17.654  12.894
63239W        W35565  38.434   0.331   1.814
63240W        W35566   7.805  43.496  13.430
63241W        W35567  11.152   4.296   1.223
63242W        W35568  31.462  18.086  11.394
63243W        W35569  17.201  40.978  12.846
63244W        W35570   3.763  23.169  11.068
63245W        W35571  30.085  16.144  14.913
63246W        W35572  44.772  43.339  13.371
63247W        W35573   0.280  39.560  11.542
63248W        W35574  23.723  14.138   5.128
63249W        W35575  19.658  31.050  11.056
63250W        W35576  19.109  13.346   2.419
63251W        W35577  43.310  20.053  11.392
63252W        W35578  25.088  44.840  12.438
63253W        W35579  18.204  33.019  14.361
63254W        W35580  15.275  28.666   3.184
63255W        W35581  16.746  17.301  11.542
63256W        W35582  40.370  24.990  12.455
63257W        W35583  18.662   1.823  10.092
63258W        W35584   1.374  33.956   0.345
63259W        W35585   9.767  41.822  14.427
63260W        W35586  20.099  26.607  11.586
63261W        W35587  39.376   1.960  14.764
63262W        W35588  11.832  17.663  13.869
63263W        W35589  25.589  36.352  14.953
63264W        W35590  32.039   5.835  14.466
63265W        W35591   6.857  29.014   0.775
63266W        W35592  39.497   5.379  11.924
63267W        W35593  37.069  40.931  10.510
63268W        W35594  31.583  42.361   3.847
63269W        W35595   7.777  41.336   3.633
63270W        W35596  30.057  12.789   0.924
63271W        W35597  24.200  15.711   0.914
63272W        W35598  15.693  21.216   3.818
63273W        W35599  27.134  30.478   0.958
63274W        W35600   1.812  36.483  13.476
63275W        W35601  33.385   3.280  11.880
63276W        W35602  24.589  38.952  13.447
63277W        W35603  36.955  11.369  13.371
63278W        W35604  27.663  34.964   4.770
63279W        W35605  36.460  34.478   0.340
63280W        W35606  32.107   2.879   3.806
63281W        W35607  44.806  22.173  11.419
63282W        W35608  30.582  22.247   0.483
63283W        W35609  16.148   1.792   3.219
63284W        W35610   4.837  31.406   1.819
63285W        W35611  35.427   5.723   1.429
63286W        W35612  20.053  12.273   1.402
63287W        W35613  11.194  25.036  12.510
63288W        W35614  39.552  10.863  14.455
63289W        W35615  36.034  44.375   4.272
63290W        W35616  24.520  15.634   1.806
63291W        W35617  28.613  34.407  10.995
63292W        W35618  32.538  18.243   3.646
63293W        W35619  22.594  34.918   1.699
63294W        W35620  30.096   9.828  13.863
63295W        W35621   8.686   5.337  10.888
63296W        W35622   4.251   0.930  11.078
63297W        W35623  41.333  29.508  13.061
63298W        W35624  21.568  29.424   4.302
63299W        W35625   9.278  10.761   3.307
63300W        W35626  20.100  43.960   1.769
63301W        W35627  20.671  15.133   4.321
63302W        W35628  43.485  10.789   2.418
63303W        W35629   8.831  22.692   2.407
63304W        W35630   6.351   1.918   2.290
63305W        W35631   6.395  11.147  14.340
63306W        W35632  33.009  32.906   1.252
63307W        W35633  20.068  21.668   3.365
63308W        W35634  14.315  40.967   1.440
63309W        W35635  17.212  26.550   3.318
63310W        W35636   7.297  24.160   2.688
63311W        W35637  17.666  10.252  12.573
63312W        W35638  20.760  41.967   3.296
63313W        W35639  11.233   6.206  14.958
63314W        W35640  29.583   4.707   2.264
63315W        W35641  25.541  41.996  10.469
63316W        W35642  16.095   4.826   2.718
63317W        W35643  23.612  29.568  14.768
63318W        W35644  34.975  17.761   0.952
63319W        W35645  15.108  17.156   2.331
63320W        W35646  11.764  31.984   3.761
63321W        W35647  20.747  19.226  10.568
63322W        W35648  23.108  44.855   3.780
63323W        W35649  13.752  21.238  14.275
63324W        W35650  10.710  21.198  13.514
63325W        W35651  19.592  36.428   0.287
63326W        W35652  17.703  16.623   1.306
63327W        W35653  21.574   3.824  11.016
63328W        W35654  42.916  32.524   2.876
63329W        W35655  20.055  25.124  11.390
63330W        W35656  42.024  20.589   1.437
63331W        W35657  13.293  31.536   4.767
63332W        W35658   2.740  15.644  13.794
63333W        W35659  40.532  39.879   3.321
63334W        W35660  41.949  44.865  10.927
63335W        W35661   7.736  16.223  11.495
63336W        W35662  10.356   2.287   3.757
63337W        W35663   4.718  34.429  14.359
63338W        W35664   7.911  24.231   0.255
63339W        W35665  24.066  29.619   1.394
63340W        W35666   4.754   6.341   2.239
63341W        W35667   9.273  36.010  14.806
63342W        W35668  12.116  39.032  12.016
63343W        W35669   9.393  43.423   1.324
63344W        W35670  35.030  35.440   4.781
63345W        W35671  42.817  38.049  13.384
63346W        W35672  23.184  32.128  12.519
63347W        W35673  11.360   7.674  13.833
63348W        W35674  11.336  31.028   1.838
63349W        W35675  11.698  28.543  14.317
63350W        W35676   7.885  20.088   3.648
63351W        W35677  24.673  27.632   4.782
63352W        W35678  42.472  31.481   3.704
63353W        W35679  17.244  37.866  11.411
63354W        W35680  15.630  42.887   4.610
63355W        W35681  29.578  30.057   4.201
63356W        W35682  32.114  14.731  13.015
63357W        W35683  20.617  22.660  14.873
63358W        W35684   1.959  24.088  10.098
63359W        W35685  24.605  13.645  12.412
63360W        W35686   8.658  31.941  10.115
63361W        W35687  40.013  21.080  10.603
63362W        W35688  12.810  14.208   1.840
63363W        W35689  19.074  29.488  11.482
63364W        W35690  12.729  33.043   2.211
63365W        W35691  24.538  37.388   2.689
63366W        W35692  39.522   4.270   1.411
63367W        W35693  14.650  32.412   0.380
63368W        W35694  24.030  13.180  13.849
63369W        W35695  37.041   2.327  12.944
63370W        W35696  39.331  17.795  12.011
63371W        W35697  28.499   3.408  12.053
63372W        W35698  21.194  27.090   4.736
63373W        W35699  33.447  21.589  10.500
63374W        W35700  28.016  36.918  10.148
63375W        W35701  18.686  17.732  12.388
63376W        W35702   3.858   3.455  13.524
63377W        W35703  14.606  28.002  11.943
63378W        W35704  17.222  43.358   0.460
63379W        W35705   4.822  23.615  12.472
63380W        W35706  38.508  44.824  13.449
63381W        W35707  37.051  32.072   1.834
63382W        W35708   0.275  40.540   0.868
63383W        W35709   1.372  25.213  14.411
63384W        W35710  32.460   5.929  14.350
63385W        W35711   0.358  15.294  12.439
63386W        W35712   6.865  13.164   3.798
63387W        W35713  35.482   2.254   4.344
63388W        W35714   1.929   9.855  11.412
63389W        W35715   4.439   2.273  11.073
63390W        W35716  15.280  33.514  10.889
63391W        W35717  25.604  22.162   0.414
63392W        W35718   7.791  28.967  11.979
63393W        W35719  29.989  17.692  14.947
63394W        W35720   3.360  25.551   4.688
63395W        W35721  37.039  40.453   3.238
63396W        W35722  17.079  25.103  13.311
63397W        W35723  17.215   4.312  13.911
63398W        W35724   8.367  39.432  11.919
63399W        W35725  36.535  35.998  11.926
63400W        W35726  38.946  25.497   3.637
63401W        W35727  41.507  18.553   1.837
63402W        W35728  27.567  23.162  14.885
63403W        W35729   4.701  42.857   9.924
63404W        W35730  42.412  15.213  13.931
63405W        W35731  25.095  37.549  14.437
63406W        W35732  15.185  43.861   2.331
63407W        W35733  20.531  44.881   0.307
63408W        W35734  32.551  33.543   3.183
63409W        W35735  28.093  30.146  11.472
63410W        W35736   5.786   3.429   3.641
63411W        W35737   6.722  32.392  12.539
63412W        W35738  35.062  25.155   3.172
63413W        W35739  27.018  29.516   1.361
63414W        W35740  13.755  24.056   2.281
63415W        W35741   7.847  40.413  14.409
63416W        W35742  34.368  23.675  11.942
63417W        W35743  29.936  13.760   0.369
63418W        W35744  10.771   7.378  13.387
63419W        W35745  22.021  12.230  13.923
63420W        W35746  24.676   0.893  10.628
63421W        W35747  43.475  27.556  13.059
63422W        W35748  32.551  43.401   1.884
63423W        W35749  36.348  35.582  14.891
63424W        W35750   2.734  20.178  13.979
63425W        W35751  27.049   4.864   4.721
63426W        W35752   7.374   9.357   3.208
63427W        W35753   4.904  42.337  11.980
63428W        W35754  12.828  12.827  12.478
63429W        W35755  33.449   3.320  11.077
63430W        W35756   3.809  42.469   4.717
63431W        W35757  20.206  31.519  11.488
63432W        W35758  40.961   2.315  11.032
63433W        W35759   9.755   3.357  10.930
63434W        W35760  31.970  23.528  11.071
63435W        W35761   4.447   9.374  13.051
63436W        W35762  40.303  39.485   3.191
63437W        W35763   3.285   9.760   3.371
63438W        W35764  36.413  24.544   2.786
63439W        W35765  31.077   3.855   4.208
63440W        W35766  31.143  21.588   2.698
63441W        W35767  10.351  38.571  10.439
63442W        W35768  38.017  41.799   2.287
63443W        W35769  28.158  14.652  13.923
63444W        W35770  24.633  27.495   4.285
63445W        W35771  22.047  38.506   2.770
63446W        W35772  22.114   3.875  10.931
63447W        W35773   8.399  37.337   3.688
63448W        W35774  44.278  14.682  14.464
63449W        W35775  14.321  38.529   1.438
63450W        W35776   2.882  15.324   0.916
63451W        W35777  41.384   2.832  12.564
63452W        W35778  42.292  28.494  14.280
63453W        W35779  17.266  35.930  12.385
63454W        W35780  18.706  23.683   3.214
63455W        W35781  29.550  10.173  13.817
63456W        W35782  31.918  20.661  11.860
63457W        W35783  28.987   3.880  14.864
63458W        W35784  22.234  21.512   4.754
63459W        W35785  42.348  17.711   0.316
63460W        W35786   1.314   0.827   3.664
63461W        W35787  18.580  41.947  12.343
63462W        W35788  43.414  34.399   0.455
63463W        W35789  36.889  13.687   4.771
63464W        W35790   4.439  22.113   5.644
63465W        W35791  28.506  20.073   1.696
63466W        W35792  24.529   2.280  13.478
63467W        W35793  15.611  24.080  10.889
63468W        W35794  38.841  42.828  11.990
63469W        W35795   8.307   1.816  11.964
63470W        W35796  14.799  27.599   3.856
63471W        W35797  35.022  20.161   2.823
63472W        W35798  21.134  42.923   4.812
63473W        W35799  41.335  42.913  14.399
63474W        W35800  42.496  25.102   4.197
63475W        W35801  36.038  11.180   3.237
63476W        W35802  25.522  26.037   2.715
63477W        W35803  12.629   2.939  14.775
63478W        W35804  11.785  24.994   3.640
63479W        W35805  12.702  43.419  10.548
63480W        W35806  10.747  16.620   2.736
63481W        W35807  29.527  20.141  10.931
63482W        W35808  43.786  18.216   2.678
63483W        W35809  22.710  28.966  10.920
63484W        W35810  33.902  15.594  11.471
63485W        W35811   1.862  28.931  14.507
63486W        W35812  18.191  39.440  10.915
63487W        W35813  40.875  17.304   2.740
63488W        W35814   8.369  39.927  12.464
63489W        W35815  42.902  15.256  13.044
63490W        W35816  44.757  12.290   2.825
63491W        W35817   3.329  37.964   1.321
63492W        W35818  20.140  24.567   0.844
63493W        W35819  10.725   5.902   3.252
63494W        W35820  41.395  37.970   2.397
63495W        W35821  35.950  14.640   2.712
63496W        W35822  16.290   2.310  12.934
63497W        W35823  32.075  31.939  11.115
63498W        W35824  15.250  42.979  14.843
63499W        W35825  37.342  22.541  11.548
63500W        W35826  38.403  10.173   3.852
63501W        W35827   4.737  43.902   2.197
63502W        W35828  10.831   9.269   4.353
63503W        W35829   6.392  27.628  13.529
63504W        W35830  24.538  38.988  11.480
63505W        W35831  16.711  14.116   2.727
63506W        W35832   6.718  42.957  14.003
63507W        W35833  32.043  28.929  11.407
63508W        W35834  31.139  40.900   1.235
63509W        W35835  15.265  12.671   4.789
63510W        W35836  44.006  31.539   2.341
63511W        W35837  29.998  23.671   1.911
63512W        W35838  17.296   3.423   4.122
63513W        W35839  29.073  24.637   0.365
63514W        W35840  43.814  37.056  13.925
63515W        W35841  32.529  18.248  13.033
63516W        W35842   7.209  14.324  14.323
63517W        W35843   9.183  27.027  12.024
63518W        W35844  28.540  40.392   3.678
63519W        W35845  31.153  37.947  11.003
63520W        W35846  13.823  14.775   2.230
63521W        W35847  37.888  26.047  12.362
63522W        W35848  44.760   1.814   4.618
63523W        W35849   3.932  30.443   4.608
63524W        W35850   9.204   4.944   0.480
63525W        W35851   9.710  42.435  12.929
63526W        W35852  13.628   4.424   2.768
63527W        W35853  40.959  30.065   3.335
63528W        W35854  30.031  16.295   2.683
63529W        W35855   3.847  20.696   3.661
63530W        W35856  41.041  31.631  12.497
63531W        W35857  16.601   0.364   4.143
63532W        W35858  13.609   5.822   1.315
63533W        W35859   8.363  16.245  11.874
63534W        W35860  25.619  42.910  11.953
63535W        W35861   1.861  44.815  12.885
63536W        W35862   0.765  24.632   4.603
63537W        W35863   0.274   3.782   0.904
63538W        W35864   7.177  12.794   2.321
63539W        W35865  39.521  11.635   0.898
63540W        W35866  26.645  26.135  14.320
63541W        W35867  14.710  37.909   3.221
63542W        W35868   0.457  12.222  12.915
63543W        W35869  16.646  31.959  14.809
63544W        W35870   3.448  14.776   2.287
63545W        W35871  28.062  40.942   3.787
63546W        W35872  36.088  19.625   0.406
63547W        W35873  24.196  17.702  14.844
63548W        W35874  18.226  24.545   1.264
63549W        W35875  40.306   6.825  14.987
63550W        W35876  43.907   3.761   1.447
63551W        W35877  18.155  14.798  10.534
63552W        W35878  25.711  44.415  12.025
63553W        W35879   3.232  15.674  11.526
63554W        W35880  15.732  37.033  13.389
63555W        W35881  20.124  11.662   0.891
63556W        W35882   0.400  40.810  11.930
63557W        W35883  27.074  41.439   1.846
63558W        W35884  41.878   0.787   3.329
63559W        W35885   2.950   5.355   1.308
63560W        W35886  11.789  28.034  13.897
63561W        W35887  34.914  16.157  12.375
63562W        W35888  39.990  35.493  11.979
63563W        W35889  19.768  17.688  13.307
63564W        W35890  35.586  31.967   4.293
63565W        W35891  43.002  35.045  12.472
63566W        W35892  15.586  27.134   4.735
63567W        W35893  15.657  31.121  12.462
63568W        W35894   4.247  30.041   0.907
63569W        W35895  28.124  21.693   4.686
63570W        W35896  25.471  38.979   2.784
63571W        W35897  14.165  25.539  14.311
63572W        W35898  34.594   4.906   1.392
63573W        W35899  22.081  43.437  12.350
63574W        W35900  43.794   2.763   3.205
63575W        W35901   3.325  32.899   3.686
63576W        W35902  17.105   2.953  13.370
63577W        W35903  26.556  28.934  10.543
63578W        W35904  35.982  24.999   3.777
63579W        W35905  11.274  34.894  13.478
63580W        W35906  10.372   8.771   3.281
63581W        W35907  35.422  23.214  13.851
63582W        W35908  29.922   9.217   2.385
63583W        W35909  17.756  10.774   0.800
63584W        W35910  35.522  28.952   3.661
63585W        W35911  24.134   3.890   1.859
63586W        W35912   2.732  41.436   3.229
63587W        W35913  30.542  15.577   1.242
63588W        W35914  20.757  24.225  11.069
63589W        W35915  40.363  21.105  10.522
63590W        W35916  29.107  32.516  11.110
63591W        W35917  19.109   7.341  14.362
63592W        W35918  23.710  16.174   2.792
63593W        W35919  44.898  38.824  13.474
63594W        W35920  13.816  33.926  11.094
63595W        W35921  38.536  35.863  11.865
63596W        W35922   0.981  33.558   3.292
63597W        W35923   2.927   0.911  13.038
63598W        W35924  15.747   7.350  13.941
63599W        W35925  33.086  39.402   4.636
63600W        W35926   7.376  14.596  10.414
63601W        W35927   1.884  26.077   1.254
63602W        W35928  33.926  36.877  12.992
63603W        W35929   3.223  42.523   3.815
63604W        W35930  19.130  35.515  10.494
63605W        W35931   4.364  32.126  11.509
63606W        W35932  13.646  41.328  13.991
63607W        W35933  18.649  11.358  14.343
63608W        W35934  44.283  11.656  11.520
63609W        W35935  35.559  33.588   9.967
63610W        W35936  28.591  25.999  14.817
63611W        W35937  16.149  32.980   3.288
63612W        W35938  35.431  39.866   0.869
63613W        W35939   4.259  22.225   1.219
63614W        W35940  36.581  41.458  11.385
63615W        W35941   9.710  12.837  12.564
63616W        W35942  43.280  24.502  11.052
63617W        W35943  28.094  27.977   9.560
63618W        W35944  40.911  21.660  14.842
63619W        W35945  36.934  34.911   4.704
63620W        W35946  16.805  27.514  12.398
63621W        W35947   0.477  39.351   0.828
63622W        W35948  12.792  18.086  14.407
63623W        W35949  37.875  24.702  11.585
63624W        W35950  41.497  25.205   0.897
63625W        W35951  15.800  13.339   1.817
63626W        W35952  26.077  41.440   1.417
63627W        W35953  23.168  37.501   0.917
63628W        W35954  14.747  20.606  10.968
63629W        W35955  18.763  19.766   4.681
63630W        W35956  31.492  21.678  13.403
63631W        W35957  38.925   7.336   4.230
63632W        W35958  35.948  26.665  11.582
63633W        W35959  37.482  13.692  14.886
63634W        W35960  31.955  29.939  11.989
63635W        W35961   7.719   8.192  11.915
63636W        W35962  23.014  39.347  14.424
63637W        W35963  10.147  32.936  11.106
63638W        W35964   8.304  21.689  13.892
63639W        W35965  11.206  32.978   3.786
63640W        W35966  31.943   7.831   2.813
63641W        W35967  19.631  13.316  12.972
63642W        W35968  17.604  42.893   5.134
63643W        W35969  18.787   7.668   1.234
63644W        W35970   4.744  37.343   3.714
63645W        W35971  30.113   1.376  11.553
63646W        W35972   4.259   4.381   0.745
63647W        W35973   2.443  22.649  14.975
63648W        W35974  39.006  29.155   1.438
63649W        W35975   5.837   9.722   2.272
63650W        W35976  28.979   6.229   0.921
63651W        W35977  21.082  13.350   4.622
63652W        W35978  17.595  17.740  13.951
63653W        W35979  17.235  31.972  14.785
63654W        W35980  34.443   2.237  11.128
63655W        W35981  20.714  32.969   3.668
63656W        W35982  23.614  27.644  13.812
63657W        W35983  15.734  24.498   1.787
63658W        W35984  36.549  37.832  13.489
63659W        W35985  22.037   5.314  11.049
63660W        W35986  23.704  21.748  12.463
63661W        W35987  42.784  12.252  11.561
63662W        W35988   7.891  11.278   4.329
63663W        W35989   5.839  40.429  12.388
63664W        W35990  16.634   3.811   2.711
63665W        W35991  30.611  27.114  10.586
63666W        W35992  34.541  42.884   1.716
63667W        W35993  12.282  36.486   3.687
63668W        W35994  25.020  32.514   4.325
63669W        W35995  41.926  36.842   3.635
63670W        W35996  29.983  27.080   2.391
63671W        W35997   3.854  35.985  13.061
63672W        W35998  28.956  35.074  13.892
63673W        W35999   2.965  10.648   5.094
63674W        W36000  24.513   8.697   3.865
63675W        W36001   4.231  29.467  13.875
63676W        W36002  11.162   3.448   1.802
63677W        W36003   3.916   9.769  12.988
63678W        W36004  32.392  35.902   1.449
63679W        W36005  34.374  39.509   3.315
63680W        W36006   7.307  35.375  10.915
63681W        W36007   9.803  23.161   0.848
63682W        W36008   3.219  41.959   3.150
63683W        W36009  37.340  39.540  11.489
63684W        W36010  37.040  33.991  11.590
63685W        W36011  15.669   8.190   3.845
63686W        W36012  15.254  14.152   5.156
63687W        W36013   3.875   2.925   0.393
63688W        W36014  31.139  15.322  14.817
63689W        W36015  41.937  37.439  10.089
63690W        W36016  36.940   0.856  10.992
63691W        W36017   5.916  22.562  14.789
63692W        W36018   3.767  35.445  12.569
63693W        W36019   7.236  24.590   3.644
63694W        W36020  35.050  39.421   2.750
63695W        W36021  22.018  37.015   0.268
63696W        W36022  30.994   0.325   1.889
63697W        W36023  24.173  41.518   4.829
63698W        W36024  22.540  10.692  13.872
63699W        W36025  32.937  10.712   0.966
63700W        W36026  39.423  29.539   3.369
63701W        W36027  11.697   8.322  13.454
63702W        W36028  25.029  29.619   3.699
63703W        W36029  40.940  30.054   4.271
63704W        W36030   5.303  27.488   3.720
63705W        W36031  37.837  11.184  11.498
63706W        W36032  28.137  18.239  13.469
63707W        W36033   4.302  25.590   2.808
63708W        W36034  35.412  39.833  12.059
63709W        W36035  23.074   0.893  11.969
63710W        W36036   5.827  22.099   0.243
63711W        W36037  34.565   3.725   3.630
63712W        W36038  12.684  22.078  10.492
63713W        W36039  23.614  36.006  13.920
63714W        W36040   5.846  17.781   0.381
63715W        W36041  39.540  22.116   2.856
63716W        W36042  18.263  44.875  12.363
63717W        W36043   3.775  34.603   0.253
63718W        W36044   7.187  33.067  14.930
63719W        W36045   7.825   8.303   0.365
63720W        W36046   2.814   1.347  11.059
63721W        W36047   0.493  34.882   0.325
63722W        W36048   6.750  19.710  12.369
63723W        W36049   5.779  43.385  12.553
63724W        W36050   6.875  40.861  13.904
63725W        W36051   3.866   2.314   0.924
63726W        W36052  15.178  31.034   0.273
63727W        W36053  26.975  13.239  11.458
63728W        W36054  30.009   0.480  11.111
63729W        W36055  32.957   7.171   3.280
63730W        W36056   8.343   0.858  10.460
63731W        W36057  11.734   8.209  14.989
63732W        W36058   8.884  26.539   3.384
63733W        W36059  44.390  43.429   1.860
63734W        W36060  22.619   4.389  14.399
63735W        W36061   4.287  31.080   0.948
63736W        W36062  39.012  40.034   0.866
63737W        W36063  13.741  27.665   2.863
63738W        W36064  33.558  11.686   4.654
63739W        W36065  19.635  22.674   1.358
63740W        W36066  33.427  41.341   4.622
63741W        W36067  33.535  17.295  13.006
63742W        W36068   2.813  42.940  12.046
63743W        W36069   6.365  17.733   3.709
63744W        W36070   2.350  13.621  10.888
63745W        W36071  24.115  37.343  12.894
63746W        W36072  10.655  43.378  14.505
63747W        W36073  13.207  15.670  10.055
63748W        W36074   8.792   5.790   0.426
63749W        W36075  23.183  17.763   3.638
63750W        W36076  42.404  39.514  12.930
63751W        W36077  29.994  37.463  10.414
63752W        W36078  31.449  21.746   4.661
63753W        W36079  23.199  38.042   2.854
63754W        W36080   3.928  39.855  14.996
63755W        W36081   2.383  24.672  10.602
63756W        W36082  25.638  38.862  11.493
63757W        W36083  43.792  14.720   2.193
63758W        W36084  25.122   5.712   1.443
63759W        W36085  17.179  10.810   1.439
63760W        W36086  37.434   8.882   4.684
63761W        W36087  21.045   0.463  13.963
63762W        W36088   6.830  29.575   2.847
63763W        W36089  10.243  21.083   2.857
63764W        W36090  35.865   7.330   2.252
63765W        W36091  25.607  35.578   2.701
63766W        W36092  31.057   9.154  12.024
63767W        W36093  36.946  27.081  12.947
63768W        W36094   3.329  18.258   1.900
63769W        W36095  15.743  41.943   4.667
63770W        W36096  13.328  18.199   3.295
63771W        W36097  27.983  40.014   4.795
63772W        W36098  21.207   8.682   1.718
63773W        W36099  32.080  34.957   2.346
63774W        W36100  18.766   0.444   0.908
63775W        W36101  34.594  33.077  12.506
63776W        W36102  25.677  23.166  14.297
63777W        W36103  43.813  41.450   0.386
63778W        W36104  12.650  11.284   1.801
63779W        W36105  39.896  23.658  13.993
63780W        W36106   5.752  11.251  12.859
63781W        W36107  43.841  28.490  12.882
63782W        W36108  26.153   3.786   2.744
63783W        W36109  27.190  20.759   2.397
63784W        W36110  21.698  14.244  13.543
63785W        W36111  17.175  44.880   3.336
63786W        W36112  14.621  21.522  14.881
63787W        W36113  25.162  38.548  14.327
63788W        W36114   2.739  12.649   3.271
63789W        W36115  43.318  41.806  10.935
63790W        W36116  32.549  21.084  13.457
63791W        W36117   9.812   3.891   4.619
63792W        W36118  25.157   1.440  12.912
63793W        W36119  18.706  44.291   2.331
63794W        W36120  39.522  14.600   4.688
63795W        W36121  24.170  29.536   0.264
63796W        W36122  25.589  22.533  12.981
63797W        W36123  40.322  24.001  11.949
63798W        W36124  26.491  11.837   0.902
63799W        W36125   1.874  12.678  14.460
63800W        W36126  32.549  40.040   4.325
63801W        W36127  41.921   2.850  10.422
63802W        W36128   7.340  42.916   4.229
63803W        W36129  11.247   8.792   1.765
63804W        W36130  24.145  27.532  11.452
63805W        W36131   4.754   8.774   4.220
63806W        W36132  26.014  38.555  14.276
63807W        W36133  34.871  41.521   1.903
63808W        W36134   2.341  30.141   0.345
63809W        W36135  41.384  43.286  12.899
63810W        W36136   1.777   8.308   1.784
63811W        W36137  31.900  38.493   3.209
63812W        W36138  43.905  10.864  13.028
63813W        W36139   4.852  29.109   1.844
63814W        W36140  22.161   4.227  11.422
63815W        W36141   7.694  24.147  14.502
63816W        W36142  31.546  20.172   1.741
63817W        W36143  10.327  23.077   3.782
63818W        W36144   4.713  39.420  12.433
63819W        W36145  31.527   3.762   2.366
63820W        W36146  10.149   6.343  11.866
63821W        W36147  38.382   8.693   2.871
63822W        W36148  10.743  13.698  11.466
63823W        W36149  10.805  44.852   4.622
63824W        W36150  32.981   0.821   0.815
63825W        W36151  33.006  38.948   2.882
63826W        W36152   2.306  15.740  14.985
63827W        W36153  24.497  24.113  11.925
63828W        W36154  11.625  10.364  12.979
63829W        W36155  30.154   0.833   4.792
63830W        W36156  17.564  44.857   4.738
63831W        W36157  36.005  25.513  12.080
63832W        W36158  28.133  18.251  14.837
63833W        W36159  40.431  16.717   4.346
63834W        W36160  28.081   8.752  14.911
63835W        W36161  16.114   8.667   2.415
63836W        W36162   7.778  21.654   1.889
63837W        W36163  18.295  41.331  10.556
63838W        W36164  20.750   4.938  13.002
63839W        W36165   8.169   8.687   4.120
63840W        W36166  19.201  11.223  13.428
63841W        W36167  33.895  40.839   4.738
63842W        W36168  18.601  30.910  14.516
63843W        W36169  41.871  23.569  12.985
63844W        W36170  29.027  22.652   2.882
63845W        W36171   4.298  22.712   0.441
63846W        W36172  27.122   9.689  13.442
63847W        W36173  15.200  39.817  10.474
63848W        W36174  30.026  11.760   3.753
63849W        W36175  40.875  36.557  11.019
63850W        W36176  13.234   0.364   0.257
63851W        W36177   8.208  38.067   1.815
63852W        W36178   1.872  23.095  14.994
63853W        W36179  12.194  34.486   1.850
63854W        W36180  39.864  39.422   3.352
63855W        W36181  41.002  39.999   2.337
63856W        W36182  17.223  37.538   0.288
63857W        W36183  21.539  25.157  12.372
63858W        W36184   3.900   6.798   2.880
63859W        W36185   9.164  30.560  12.401
63860W        W36186  43.986  42.378   4.739
63861W        W36187  14.822  33.419  10.480
63862W        W36188  39.978  39.896   1.920
63863W        W36189  17.739  17.256   0.890
63864W        W36190  24.513   6.190  10.553
63865W        W36191  40.898  21.247   3.361
63866W        W36192   6.290  43.783   4.293
63867W        W36193   6.296  13.631   3.756
63868W        W36194  32.527  17.648  10.541
63869W        W36195  44.766  32.542  12.011
63870W        W36196  24.203  11.642   0.396
63871W        W36197  30.587   1.400   2.669
63872W        W36198  23.529  25.163   2.304
63873W        W36199  32.107   9.338   2.396
63874W        W36200  16.619  11.817  14.281
63875W        W36201  40.483  35.383   2.742
63876W        W36202  38.832  12.227   1.244
63877W        W36203  42.501  28.940   0.471
63878W        W36204  21.663  32.519   3.197
63879W        W36205  40.805   3.367  14.958
63880W        W36206  26.658  10.291   4.149
63881W        W36207  25.575   5.875  10.944
63882W        W36208   9.331  31.095   3.169
63883W        W36209  38.934   9.276  11.965
63884W        W36210  14.784  17.763  13.476
63885W        W36211  44.944  17.222   1.890
63886W        W36212  35.090   5.874   3.674
63887W        W36213   1.908  24.093   2.200
63888W        W36214  32.616   2.406   0.461
63889W        W36215  28.951  41.948   0.423
63890W        W36216   1.314  39.379   3.862
63891W        W36217   5.786  21.706   0.728
63892W        W36218   8.276  29.956   2.315
63893W        W36219  32.565   5.389   4.836
63894W        W36220  18.640  20.556   4.181
63895W        W36221  31.013   7.707  12.953
63896W        W36222  44.912  41.336   4.166
63897W        W36223  35.560  20.162  13.871
63898W        W36224   3.347   4.897   3.632
63899W        W36225   6.244  27.584   0.896
63900W        W36226  10.163  44.936  13.494
63901W        W36227  13.667   1.438  12.901
63902W        W36228  30.450   8.314  12.004
63903W        W36229  25.134  28.043  11.529
63904W        W36230  24.490   5.249   4.750
63905W        W36231   3.712  42.513  13.794
63906W        W36232  32.578  10.202   3.313
63907W        W36233  13.681  20.217  11.979
63908W        W36234   4.899  38.533   3.842
63909W        W36235  31.524   1.390  11.479
63910W        W36236  37.911   2.429  12.467
63911W        W36237  28.500  31.566   1.905
63912W        W36238   5.284  37.864  12.088
63913W        W36239  41.995  20.594   1.851
63914W        W36240   6.738  36.349  14.832
63915W        W36241  33.584  34.459   2.347
63916W        W36242   6.813  25.156  13.981
63917W        W36243  31.454  41.927   2.790
63918W        W36244   1.836  32.067   1.843
63919W        W36245  17.644  14.775  14.335
63920W        W36246   4.750  35.358   0.879
63921W        W36247   4.322  44.857  11.461
63922W        W36248   2.864  13.799  12.513
63923W        W36249  44.984  33.441  14.293
63924W        W36250  12.844   5.386   3.382
63925W        W36251  23.097  22.706   4.149
63926W        W36252  38.546   4.879   1.227
63927W        W36253  14.756   9.836   1.214
63928W        W36254  15.654  28.533  14.968
63929W        W36255   4.427   5.218  14.417
63930W        W36256  18.051  19.596   3.378
63931W        W36257  18.547  32.491  12.077
63932W        W36258  33.990  32.479  10.586
63933W        W36259  38.863  40.469   5.268
63934W        W36260  41.956   2.843  13.431
63935W        W36261   0.313   0.482   0.898
63936W        W36262   5.828  27.627   2.418
63937W        W36263  44.940   1.389  11.019
63938W        W36264  43.860  16.704  11.954
63939W        W36265  26.468  24.692   1.821
63940W        W36266  19.056  31.639   2.880
63941W        W36267  42.461   3.334  14.768
63942W        W36268  28.497  40.416  10.620
63943W        W36269   3.267  32.092  13.495
63944W        W36270  22.141  14.709  10.887
63945W        W36271  36.933  14.756  10.922
63946W        W36272  43.796   1.948  10.551
63947W        W36273   4.813  13.603   3.262
63948W        W36274   8.655  40.473   4.288
63949W        W36275   2.291  44.765  11.578
63950W        W36276  23.734  29.588   3.801
63951W        W36277  14.173  12.827  12.406
63952W        W36278   1.841  30.083  14.933
63953W        W36279  36.426  11.849  11.952
63954W        W36280  30.083  33.543   2.838
63955W        W36281  10.758  19.112   1.708
63956W        W36282  22.621  21.050  14.845
63957W        W36283   6.311  18.628   0.781
63958W        W36284   1.296  29.931  11.470
63959W        W36285  15.620  16.600   4.171
63960W        W36286  43.939  38.441  13.465
63961W        W36287   8.371  32.588   0.808
63962W        W36288  13.276  35.524   0.265
63963W        W36289   8.333  37.366  12.881
63964W        W36290  31.510  35.856   2.241
63965W        W36291   4.907  14.610  13.534
63966W        W36292  16.186  35.040   2.840
63967W        W36293  13.680  28.590   0.265
63968W        W36294  25.978  21.521  13.064
63969W        W36295  42.375  18.594   0.443
63970W        W36296  32.449  36.449   3.847
63971W        W36297  29.962  22.136  12.050
63972W        W36298  25.491  26.199  13.494
63973W        W36299  44.862  29.593  13.051
63974W        W36300  27.048  21.094  13.511
63975W        W36301  23.224  13.133  13.423
63976W        W36302  35.490  18.250  12.982
63977W        W36303   4.392  20.247   1.360
63978W        W36304  14.799  27.505  14.874
63979W        W36305  24.084   7.284   4.638
63980W        W36306  32.597  19.653   4.204
63981W        W36307  15.125  18.088  13.908
63982W        W36308  25.158  31.047  13.908
63983W        W36309  17.612  21.702  11.425
63984W        W36310  43.983  42.856  14.786
63985W        W36311   6.427  41.331  14.416
63986W        W36312  25.965  33.878   0.409
63987W        W36313  35.542   1.483  13.962
63988W        W36314  15.091   2.896   1.319
63989W        W36315  29.536   6.393   0.856
63990W        W36316  13.116  23.175   1.290
63991W        W36317  12.670  11.212   3.736
63992W        W36318   8.315   8.888  14.283
63993W        W36319  33.103  23.231  14.327
63994W        W36320  33.102   0.337  12.510
63995W        W36321  14.609  42.291   3.856
63996W        W36322  25.566  39.007  13.873
63997W        W36323  22.063   2.857  13.951
63998W        W36324   7.831  23.058   2.727
63999W        W36325  26.116   4.732  12.082
64000W        W36326  32.507  26.166   0.481
64001W        W36327  42.839  10.826   3.659
64002W        W36328   4.811   2.755   4.271
64003W        W36329  42.430   4.711   4.197
64004W        W36330  28.595  28.105   5.769
64005W        W36331  27.131   6.915  10.911
64006W        W36332   0.952  18.673   2.269
64007W        W36333  42.840  39.549   1.325
64008W        W36334  25.145  33.469  13.858
64009W        W36335  22.575   9.654  13.500
64010W        W36336   1.942  15.278  13.907
64011W        W36337   8.699   1.886   4.145
64012W        W36338  36.043  40.389   2.725
64013W        W36339   2.799  24.111   3.292
64014W        W36340  41.456   3.750  14.002
64015W        W36341  33.608  42.806   1.711
64016W        W36342   2.377   3.381  14.357
64017W        W36343   0.455  40.973   2.240
64018W        W36344  29.564  36.502  14.779
64019W        W36345  27.049  39.395   3.758
64020W        W36346  13.807  19.139   4.659
64021W        W36347  16.582   1.309   2.248
64022W        W36348  29.065  17.120  12.034
64023W        W36349  28.485  42.369   4.621
64024W        W36350   5.810  10.733  13.361
64025W        W36351  43.483  35.362  14.864
64026W        W36352  27.597  26.011   1.786
64027W        W36353  32.496  29.073  10.889
64028W        W36354  34.924  37.837  13.040
64029W        W36355   7.310  42.487  12.981
64030W        W36356  15.323  42.867   2.700
64031W        W36357  20.602   9.314   2.735
64032W        W36358  17.151  31.562   1.273
64033W        W36359   5.834  26.574  14.947
64034W        W36360  16.624  20.111   3.832
64035W        W36361   2.758  41.975   1.774
64036W        W36362   2.352  35.520   4.652
64037W        W36363  32.004  29.168   2.206
64038W        W36364  27.152   3.851  11.383
64039W        W36365  20.553  39.412  13.049
64040W        W36366  22.635  13.774   0.311
64041W        W36367   4.891  41.022   1.377
64042W        W36368  44.343  18.172  11.495
64043W        W36369  16.225  18.284   2.810
64044W        W36370  39.063  10.866  10.548
64045W        W36371  27.156  15.591  11.001
64046W        W36372   9.730  41.452   3.779
64047W        W36373  19.059  34.550  10.410
64048W        W36374  36.362  30.420  11.107
64049W        W36375  26.142   9.221  10.503
64050W        W36376  25.081  28.604   3.630
64051W        W36377  41.995  43.985  12.028
64052W        W36378  13.838   5.223  13.013
64053W        W36379   2.896   7.262   3.192
64054W        W36380  44.419  31.937  11.066
64055W        W36381  19.742  37.085  12.914
64056W        W36382  33.532   8.193   4.822
64057W        W36383  32.977  41.328  11.017
64058W        W36384  11.792  34.551   9.660
64059W        W36385  35.007  14.103  14.422
64060W        W36386  18.550  21.545   0.467
64061W        W36387  23.609  35.940   3.212
64062W        W36388   8.233  16.174   3.300
64063W        W36389   5.907   1.334   1.734
64064W        W36390  34.937  44.949  13.858
64065W        W36391  18.258  23.595  13.058
64066W        W36392  42.283  43.483  11.541
64067W        W36393  22.154  21.523   1.222
64068W        W36394  28.161  13.604   0.728
64069W        W36395  35.998   6.309  13.524
64070W        W36396  10.805  27.028  13.942
64071W        W36397  39.487  41.488   0.397
64072W        W36398   1.937  30.026   1.880
64073W        W36399  28.101  27.161  12.947
64074W        W36400  15.306  20.757   0.430
64075W        W36401  29.999  17.225   2.274
64076W        W36402  23.177  13.680   4.659
64077W        W36403  30.521   3.427   2.881
64078W        W36404  36.031  13.724   4.312
64079W        W36405  26.597  32.118   0.471
64080W        W36406  41.518  42.823   3.385
64081W        W36407  10.753   9.373   0.309
64082W        W36408  43.850   7.722   0.471
64083W        W36409  15.314  35.389  12.491
64084W        W36410  24.546  34.391   2.792
64085W        W36411  38.479  42.320   2.767
64086W        W36412  25.167  32.632   3.760
64087W        W36413   9.705  30.036   0.244
64088W        W36414   9.320   3.409  10.415
64089W        W36415  32.984   2.279  13.844
64090W        W36416  27.132   5.383   4.796
64091W        W36417   6.248  44.306   4.811
64092W        W36418  42.296  42.985  10.610
64093W        W36419  33.586  37.537  13.995
64094W        W36420  43.932  20.155  12.925
64095W        W36421  14.811  24.017   1.808
64096W        W36422  27.981   8.783  11.929
64097W        W36423  22.025  42.819  10.543
64098W        W36424  38.884  15.287   0.888
64099W        W36425  43.845  23.009  12.829
64100W        W36426  44.342   3.359  13.471
64101W        W36427  30.916  10.368  14.935
64102W        W36428  14.639  23.503   4.762
64103W        W36429  26.545  41.953  13.055
64104W        W36430  14.113  26.698   0.814
64105W        W36431   2.878  33.538  14.848
64106W        W36432   4.908  19.262   0.955
64107W        W36433  12.650  31.585  12.031
64108W        W36434  31.023  44.301   1.316
64109W        W36435  17.674  17.686   0.306
64110W        W36436   5.317  24.676  12.902
64111W        W36437   6.221  19.584   2.799
64112W        W36438  26.585  29.031   3.682
64113W        W36439  24.572  34.055   1.339
64114W        W36440  40.046  18.604   1.440
64115W        W36441  21.640   1.400  13.030
64116W        W36442   0.308  37.336   4.650
64117W        W36443  36.851  13.302   3.357
64118W        W36444  23.114   7.855   3.377
64119W        W36445  37.971  44.421  14.825
64120W        W36446  39.485  19.118  14.279
64121W        W36447   5.706  28.615  11.028
64122W        W36448  19.627  41.026   2.321
64123W        W36449  11.218  26.509   0.419
64124W        W36450  35.048   4.935  13.909
64125W        W36451  20.116  13.242  14.843
64126W        W36452   2.798   3.785  11.542
64127W        W36453   9.186  32.033  13.539
64128W        W36454  19.047   8.382  14.927
64129W        W36455  33.014  12.670   2.856
64130W        W36456  29.617  44.422   4.789
64131W        W36457  20.656  12.187  14.933
64132W        W36458  11.149   0.491   2.405
64133W        W36459  44.903   2.428  13.050
64134W        W36460   9.773  41.484  11.997
64135W        W36461  20.699   9.161   2.384
64136W        W36462  34.010  25.068   2.682
64137W        W36463  33.502  39.402   4.790
64138W        W36464  38.362  41.402  10.896
64139W        W36465  24.128  29.549   2.735
64140W        W36466  14.825  10.870  13.400
64141W        W36467  33.574  17.733  12.423
64142W        W36468  29.525  21.534  10.897
64143W        W36469  41.847   0.264  11.915
64144W        W36470   9.352   9.363   3.757
64145W        W36471  14.208  32.056  10.094
64146W        W36472   8.160   6.351  11.093
64147W        W36473  14.660  17.082  14.857
64148W        W36474  31.024  21.223  13.896
64149W        W36475  35.864  12.218  13.486
64150W        W36476  14.827  22.666   2.309
64151W        W36477  43.804  29.161  14.312
64152W        W36478  25.699   7.285  12.379
64153W        W36479  35.602  32.063  14.902
64154W        W36480  24.610   2.728  11.388
64155W        W36481  19.045  32.913  12.381
64156W        W36482  41.408  32.936   0.391
64157W        W36483  11.313   0.321   3.640
64158W        W36484  33.126  19.279  13.830
64159W        W36485  22.206  31.091  13.409
64160W        W36486  15.256  25.592   2.860
64161W        W36487  10.864  42.478   1.720
64162W        W36488  26.954  37.498  10.523
64163W        W36489  30.649  20.578   4.821
64164W        W36490  32.514  25.184   3.847
64165W        W36491  10.721  44.824   1.214
64166W        W36492  17.680  44.266   1.403
64167W        W36493  38.870  10.352  12.848
64168W        W36494  10.661  37.453  12.909
64169W        W36495  10.291  34.381  14.895
64170W        W36496  15.733  22.593   3.243
64171W        W36497   6.826   4.791   3.742
64172W        W36498  10.684  25.487   4.823
64173W        W36499  41.494  39.512  11.386
64174W        W36500  24.611   5.723  14.013
64175W        W36501   1.804  22.664   3.758
64176W        W36502   6.779  16.766   0.933
64177W        W36503  35.381  20.237  13.315
64178W        W36504  26.473  13.107   2.876
64179W        W36505  35.488  35.368  11.554
64180W        W36506   3.372  10.216  11.092
64181W        W36507  43.770   2.354   0.297
64182W        W36508  44.462  24.706   4.275
64183W        W36509  33.037  17.759   3.663
64184W        W36510   1.354  44.858   2.337
64185W        W36511  10.795  39.500  10.964
64186W        W36512  36.477  31.636  12.390
64187W        W36513   0.370  19.045   2.379
64188W        W36514  30.578  38.539  14.901
64189W        W36515   6.391  19.647  12.888
64190W        W36516  15.736  34.931   0.392
64191W        W36517   7.682  44.838  10.985
64192W        W36518  42.464  40.313   0.943
64193W        W36519  10.706  44.281   0.934
64194W        W36520  36.581  41.467   0.891
64195W        W36521  13.112  15.806   2.788
64196W        W36522  26.046   4.804  13.452
64197W        W36523   0.809  32.050   5.294
64198W        W36524   9.832  25.506  10.617
64199W        W36525  12.846  41.342  10.617
64200W        W36526  42.455   5.727  14.465
64201W        W36527   5.297  32.412  12.874
64202W        W36528   4.249  29.154   3.653
64203W        W36529   6.195   9.708   1.390
64204W        W36530  32.554  43.984   2.363
64205W        W36531  14.649  41.040  12.959
64206W        W36532  30.161   0.361   2.708
64207W        W36533  35.520   6.857  11.466
64208W        W36534  27.100   6.224  13.797
64209W        W36535  25.195   2.305  14.465
64210W        W36536  25.573   6.210  13.805
64211W        W36537  39.986  28.529  14.369
64212W        W36538  28.653  39.017   4.281
64213W        W36539  26.701  21.237   1.885
64214W        W36540  32.887  43.371  14.878
64215W        W36541   0.251  11.209  11.931
64216W        W36542  42.280   3.954  10.516
64217W        W36543  22.609   5.856  11.877
64218W        W36544  20.190  35.571   3.752
64219W        W36545  30.518  28.146   2.841
64220W        W36546   2.962   8.843  13.990
64221W        W36547  24.201  36.409  12.076
64222W        W36548  20.127  25.156   2.802
64223W        W36549  10.202  34.597   4.132
64224W        W36550  27.513  26.477   1.916
64225W        W36551  17.787   7.692   1.836
64226W        W36552  10.860  18.186   2.289
64227W        W36553   8.392  17.570  12.086
64228W        W36554  11.751  12.125  14.029
64229W        W36555   4.921  31.989   4.232
64230W        W36556  22.234  29.166   4.835
64231W        W36557  12.765  11.714   4.223
64232W        W36558  41.806   4.912   4.787
64233W        W36559  26.023  35.479   2.896
64234W        W36560  28.015  33.060   2.696
64235W        W36561  38.037   8.266   2.372
64236W        W36562  20.565  32.535   3.328
64237W        W36563  22.195  40.396  12.843
64238W        W36564  11.826  27.945   3.233
64239W        W36565  19.129  12.711  14.424
64240W        W36566  15.150  36.033  13.872
64241W        W36567  16.072   9.687   4.133
64242W        W36568  10.248  43.430  13.803
64243W        W36569  37.909  20.552  14.305
64244W        W36570  14.738   3.785   1.928
64245W        W36571   0.361   9.267  10.986
64246W        W36572  27.190  19.213   1.707
64247W        W36573  33.027  43.356   0.812
64248W        W36574  41.499  21.093  13.486
64249W        W36575  21.072  13.328   3.309
64250W        W36576  26.507  41.383   4.131
64251W        W36577  16.706  35.027   2.767
64252W        W36578  33.892  17.186  14.763
64253W        W36579  39.481  11.666  10.961
64254W        W36580   7.329  38.340  12.958
64255W        W36581  25.584  17.665  14.335
64256W        W36582  25.568  42.877   3.203
64257W        W36583   9.646   0.866   4.780
64258W        W36584   9.228   5.290  10.906
64259W        W36585  27.115   8.878  11.974
64260W        W36586   9.274   2.944   2.238
64261W        W36587  43.310  21.546  13.869
64262W        W36588  22.555  40.832   2.768
64263W        W36589  38.999   8.671   0.361
64264W        W36590  34.509   8.344  12.509
64265W        W36591   8.271   8.841   1.437
64266W        W36592  11.776  21.080   4.340
64267W        W36593  38.444  40.985  14.319
64268W        W36594  12.276   6.229  14.870
64269W        W36595   1.329  31.971  14.308
64270W        W36596   2.307  27.946   1.856
64271W        W36597  29.511  12.149  10.424
64272W        W36598   6.724  36.576   2.384
64273W        W36599  38.068  41.030  12.094
64274W        W36600   9.266   0.975   4.305
64275W        W36601   7.203  31.462   0.368
64276W        W36602   3.346  27.638  14.498
64277W        W36603  14.197  19.766   4.144
64278W        W36604  12.296  30.491   3.850
64279W        W36605  22.222  24.605  10.975
64280W        W36606   7.856   3.896   0.793
64281W        W36607   8.875  41.885   4.238
64282W        W36608  39.900  16.623  13.856
64283W        W36609  24.113  25.163  12.570
64284W        W36610  23.727  43.285  13.856
64285W        W36611   3.875  37.860   4.241
64286W        W36612   9.742  19.137   2.724
64287W        W36613   2.455  37.942  11.424
64288W        W36614   0.276  38.565   4.676
64289W        W36615  40.984  43.430   4.683
64290W        W36616  25.185  19.125   3.755
64291W        W36617  38.543   6.914   1.312
64292W        W36618  43.365  22.737  12.096
64293W        W36619   8.308   5.374   0.290
64294W        W36620  35.864  13.256  12.035
64295W        W36621  31.648  36.398  11.525
64296W        W36622  24.096   5.398  13.905
64297W        W36623   6.306  35.907   2.818
64298W        W36624  22.232   1.933  10.485
64299W        W36625  18.767  10.318  13.969
64300W        W36626  13.795  16.205  12.043
64301W        W36627  27.940  39.350   3.849
64302W        W36628  37.469  21.077  10.956
64303W        W36629  22.649   6.277  12.523
64304W        W36630  29.980  38.540  13.902
64305W        W36631  10.646  30.118  13.029
64306W        W36632  36.493  15.713   2.861
64307W        W36633  22.063  31.988   2.821
64308W        W36634   4.762  34.520  12.526
64309W        W36635  33.444  26.492  10.111
64310W        W36636   4.904  26.672  13.374
64311W        W36637  41.509  33.881   0.416
64312W        W36638   1.905  32.606  13.938
64313W        W36639   8.292  18.781   4.125
64314W        W36640  13.147  24.187   5.202
64315W        W36641  34.497  30.658  14.486
64316W        W36642   8.275  23.146  13.048
64317W        W36643   0.419   6.240   2.230
64318W        W36644  21.656  28.939  12.070
64319W        W36645  23.128  40.916  10.910
64320W        W36646   5.889   4.307  11.404
64321W        W36647  15.737  23.627  11.405
64322W        W36648  24.611  44.962   1.709
64323W        W36649  31.642  36.866   3.859
64324W        W36650  22.192  27.134  12.012
64325W        W36651   4.747  30.587   3.354
64326W        W36652  20.075  41.406  14.848
64327W        W36653   8.790  21.048  11.953
64328W        W36654   0.423   0.346  14.845
64329W        W36655  36.975  16.692  11.864
64330W        W36656  32.431  42.864  13.418
64331W        W36657  35.922  10.282  10.962
64332W        W36658   9.255   1.351  14.438
64333W        W36659  19.115   2.721  14.395
64334W        W36660  24.571  16.144   1.876
64335W        W36661   1.263  36.063   2.191
64336W        W36662   1.752   5.723   2.392
64337W        W36663  18.214  22.603  13.858
64338W        W36664  25.520   8.306  14.484
64339W        W36665  37.008  24.696  13.353
64340W        W36666  18.228  12.701   0.767
64341W        W36667  21.129  40.446  11.539
64342W        W36668  33.088   6.379  11.051
64343W        W36669   5.388  20.071   1.210
64344W        W36670  17.734  12.161   1.837
64345W        W36671  14.647  14.165  11.579
64346W        W36672  28.999  22.043   1.868
64347W        W36673   9.795  35.006   2.695
64348W        W36674  33.880  39.458   1.436
64349W        W36675  25.489   2.385  14.293
64350W        W36676  15.227   1.786  12.382
64351W        W36677  38.865  16.686   2.799
64352W        W36678   2.772  11.663  11.526
64353W        W36679  33.620  25.482  11.928
64354W        W36680  25.545   8.657   2.676
64355W        W36681  38.544  24.143  11.006
64356W        W36682   4.864  42.330   0.917
64357W        W36683  33.035  20.697   1.380
64358W        W36684  15.278  34.988  11.462
64359W        W36685   4.813  38.030   0.821
64360W        W36686  20.765  30.117   1.893
64361W        W36687  35.060  13.676   4.676
64362W        W36688  25.976  38.411   3.291
64363W        W36689  33.448   0.437  11.109
64364W        W36690  27.656  39.868   0.315
64365W        W36691  12.677  28.092   1.391
64366W        W36692  24.544  16.609  14.280
64367W        W36693  12.658  42.800   0.304
64368W        W36694  17.153   6.875   3.261
64369W        W36695  33.455  19.084  11.117
64370W        W36696  33.555  19.608   5.227
64371W        W36697   0.454   2.262  11.561
64372W        W36698   9.849  27.165   4.291
64373W        W36699  19.656   7.279   3.781
64374W        W36700   8.760  27.075   4.757
64375W        W36701  38.065  15.311   4.115
64376W        W36702   1.341  26.528  11.555
64377W        W36703  25.520  23.592  14.919
64378W        W36704  17.142  13.766  13.955
64379W        W36705  28.130   7.181  14.895
64380W        W36706  13.270  10.147   0.794
64381W        W36707  13.753  32.397  10.940
64382W        W36708   1.244  23.024   2.662
64383W        W36709  21.565   1.353  13.943
64384W        W36710  32.552   0.864   3.792
64385W        W36711   4.400  40.493   2.766
64386W        W36712  15.703  40.903   3.779
64387W        W36713  39.823   8.746  10.939
64388W        W36714  38.429  32.921  10.934
64389W        W36715  25.662  12.744   0.431
64390W        W36716  41.400  34.600  10.540
64391W        W36717  17.782   7.399   0.780
64392W        W36718  18.180  38.878   2.241
64393W        W36719  35.920  32.578  12.398
64394W        W36720   2.261  19.575  10.115
64395W        W36721  20.206  19.740  10.504
64396W        W36722  10.753  24.525   1.836
64397W        W36723  39.524  25.086   3.232
64398W        W36724  11.217   1.942   1.221
64399W        W36725  19.690  29.495   2.819
64400W        W36726   7.874   3.930  12.426
64401W        W36727  21.590  30.059  13.379
64402W        W36728  29.554  42.426   2.770
64403W        W36729  37.959  26.650   0.869
64404W        W36730  33.448   1.291   0.407
64405W        W36731  18.134  43.007   2.321
64406W        W36732  30.982  28.612   4.231
64407W        W36733   2.750  40.478   1.853
64408W        W36734  32.047   7.261  11.552
64409W        W36735   9.888  18.082   4.168
64410W        W36736  40.352  11.820  10.508
64411W        W36737   9.829   7.235  13.864
64412W        W36738  34.003  32.517  14.426
64413W        W36739  36.028  24.130  10.440
64414W        W36740  40.371  39.535  11.428
64415W        W36741  28.611   0.297   0.415
64416W        W36742  44.960  23.653  13.830
64417W        W36743  10.847  34.491   1.397
64418W        W36744  13.845   3.346  12.576
64419W        W36745   3.771  41.488  14.419
64420W        W36746  44.847   5.245   4.672
64421W        W36747  36.069  31.434   0.249
64422W        W36748  38.532  44.835  14.468
64423W        W36749  41.792  30.530  11.090
64424W        W36750  40.809  22.098  14.951
64425W        W36751   8.270  15.200  10.458
64426W        W36752   9.275  25.648  12.525
64427W        W36753   0.280  41.863   1.825
64428W        W36754  18.124  25.695   4.197
64429W        W36755  39.864  14.250   4.226
64430W        W36756   8.880  41.962   1.895
64431W        W36757  12.625   0.336   2.249
64432W        W36758  23.564  14.728   1.246
64433W        W36759  13.734  31.523   3.841
64434W        W36760  40.424  24.559  13.521
64435W        W36761  12.743   5.905   0.323
64436W        W36762  38.503   7.840   1.781
64437W        W36763  10.736  14.109   4.821
64438W        W36764  44.783  37.506  13.995
64439W        W36765  29.584  19.615   4.172
64440W        W36766  21.175   1.926   2.307
64441W        W36767  34.560  25.192   3.771
64442W        W36768  13.786  37.951   4.238
64443W        W36769  15.718  15.626   4.675
64444W        W36770  16.592  28.482   1.930
64445W        W36771  34.492   8.171   4.802
64446W        W36772   1.829  34.470  13.471
64447W        W36773  25.510  30.040   3.185
64448W        W36774  28.978   4.877   4.129
64449W        W36775  40.320  30.605   5.103
64450W        W36776  34.865  23.697   0.262
64451W        W36777   7.867  16.239   0.867
64452W        W36778  15.710   1.896   5.235
64453W        W36779   5.917   6.745  14.907
64454W        W36780   0.894  27.583  11.050
64455W        W36781  24.587  22.633  11.048
64456W        W36782   7.312  18.567   3.868
64457W        W36783   3.361   8.314   3.834
64458W        W36784  14.710  26.021   3.169
64459W        W36785  25.500  17.135   3.669
64460W        W36786  32.516  34.565  14.381
64461W        W36787  21.129   2.901  12.473
64462W        W36788  24.562  27.600  11.079
64463W        W36789  33.402  17.726  11.438
64464W        W36790  37.877  27.623   1.289
64465W        W36791  20.083  31.422  12.518
64466W        W36792  25.551  20.523   4.800
64467W        W36793  16.755  19.054   4.702
64468W        W36794  16.569   2.329   4.723
64469W        W36795   5.766   0.325   0.764
64470W        W36796  35.030  31.047   4.629
64471W        W36797  30.950  42.780   2.709
64472W        W36798  37.450  21.029   0.962
64473W        W36799  19.643  38.528   2.348
64474W        W36800  24.165  30.446  12.887
64475W        W36801  43.881  19.202  12.945
64476W        W36802   1.377  30.425  14.007
64477W        W36803  18.246  13.135   4.140
64478W        W36804  44.318  25.611   1.821
64479W        W36805  16.160   3.438  12.436
64480W        W36806  26.683  29.943   4.680
64481W        W36807   5.331  19.095  12.992
64482W        W36808   6.290  27.664   4.794
64483W        W36809   6.811  24.167   3.743
64484W        W36810  28.594  32.066  14.930
64485W        W36811   9.337  39.354   2.715
64486W        W36812  31.641  40.487  14.347
64487W        W36813  22.701  23.123  14.383
64488W        W36814  31.594  17.236  12.848
64489W        W36815  40.893   9.675   1.730
64490W        W36816  14.588  27.477   0.803
64491W        W36817  42.824   1.385   3.244
64492W        W36818  38.521   7.858  13.371
64493W        W36819   1.868  21.035   1.227
64494W        W36820  40.047  23.162   1.343
64495W        W36821  42.484  16.698  14.992
64496W        W36822  20.609  14.779   1.433
64497W        W36823  24.541  24.627  12.052
64498W        W36824  25.523  27.466   1.294
64499W        W36825  34.579  13.340  12.456
64500W        W36826   1.740  12.680  13.409
64501W        W36827  11.281  30.460  11.888
64502W        W36828  18.557  32.885  13.995
64503W        W36829  33.536  10.377   2.356
64504W        W36830  24.652  33.069  13.903
64505W        W36831  34.478  44.997   4.704
64506W        W36832  24.714  12.202   4.296
64507W        W36833  27.043  15.799  13.021
64508W        W36834  23.734   9.257  14.930
64509W        W36835  17.756  26.546   4.788
64510W        W36836  15.796   6.393   1.716
64511W        W36837  30.996   4.845  13.317
64512W        W36838   8.819  35.545  12.564
64513W        W36839  43.975  40.400   0.835
64514W        W36840  25.171   3.902   2.715
64515W        W36841  44.982   6.826   4.318
64516W        W36842   0.293  25.661  14.353
64517W        W36843  14.784  13.182  14.967
64518W        W36844  28.657   4.313   4.154
64519W        W36845  12.177  26.014   5.231
64520W        W36846   9.291  34.108   3.216
64521W        W36847   9.317  24.549  12.552
64522W        W36848  17.297   0.832  13.816
64523W        W36849  33.591  17.162   3.691
64524W        W36850  10.264  23.068   0.370
64525W        W36851   6.420  29.610   0.905
64526W        W36852  24.696   8.206  13.338
64527W        W36853  23.498   8.290   0.434
64528W        W36854  18.242  37.560  11.594
64529W        W36855  32.396  38.869  10.994
64530W        W36856  21.205  12.830  13.325
64531W        W36857   0.308   2.933   4.186
64532W        W36858  37.916  16.223  12.454
64533W        W36859   6.901   6.315  11.444
64534W        W36860  43.443  34.472  13.824
64535W        W36861  22.649   9.827  12.431
64536W        W36862  31.139   4.206   2.740
64537W        W36863  30.474  42.344   1.712
64538W        W36864   9.846   7.337   4.671
64539W        W36865   5.825  44.309  13.908
64540W        W36866   4.431   4.269   9.658
64541W        W36867  25.103  33.928   0.279
64542W        W36868  19.259   4.209  12.545
64543W        W36869   2.772  14.340  13.890
64544W        W36870  41.834   6.714   2.190
64545W        W36871  12.152   9.170   1.751
64546W        W36872  21.033  27.090   4.165
64547W        W36873  24.624   9.153   2.185
64548W        W36874  35.063  31.973   2.337
64549W        W36875   5.809  32.084   3.811
64550W        W36876  35.597  32.541   2.739
64551W        W36877  42.959   1.846  13.978
64552W        W36878  30.062  37.893  14.353
64553W        W36879  30.631  30.026   1.252
64554W        W36880  30.079  13.787   1.365
64555W        W36881  39.063   7.713   2.726
64556W        W36882  20.166  23.503  10.580
64557W        W36883  33.476  39.519   0.937
64558W        W36884  26.010  27.117   4.283
64559W        W36885  35.102  26.456   2.715
64560W        W36886   3.760  31.549  12.910
64561W        W36887  16.085  22.700   4.242
64562W        W36888  19.054  26.186   0.335
64563W        W36889   7.339   6.688  10.433
64564W        W36890  18.288  41.791   2.891
64565W        W36891  20.699  44.500   3.237
64566W        W36892  17.254  17.698  12.014
64567W        W36893  31.494  43.471  14.308
64568W        W36894  31.916  37.001   2.856
64569W        W36895  18.621  32.462  14.975
64570W        W36896   9.671  19.704  10.988
64571W        W36897  41.939  21.105  14.507
64572W        W36898  13.610  29.155   1.317
64573W        W36899  34.452  43.343   1.755
64574W        W36900  14.254  23.647   0.310
64575W        W36901  26.582  28.464  12.428
64576W        W36902  42.923  16.647  13.379
64577W        W36903   2.281   9.337  12.943
64578W        W36904   2.283  26.575   3.315
64579W        W36905  28.010   4.343  11.877
64580W        W36906  33.408  17.147   2.209
64581W        W36907   7.720   2.347  13.966
64582W        W36908  20.525  30.501  10.462
64583W        W36909  16.168  43.421  14.897
64584W        W36910  35.982  28.480  11.058
64585W        W36911  25.066  11.309   2.887
64586W        W36912  33.418  26.593  14.001
64587W        W36913  29.426  27.102   5.239
64588W        W36914   1.822  44.376  11.060
64589W        W36915  44.969  31.935   1.745
64590W        W36916  31.407  38.900   0.307
64591W        W36917   6.755  33.115   1.696
64592W        W36918   6.708  16.741   4.352
64593W        W36919  19.609  19.282   3.191
64594W        W36920   6.922   9.190   0.431
64595W        W36921  19.726  37.946  14.917
64596W        W36922  16.793  35.865  13.015
64597W        W36923  20.694  30.073  14.833
64598W        W36924  35.916  26.142  14.487
64599W        W36925  32.074  40.993   1.355
64600W        W36926  37.369  10.183   3.204
64601W        W36927  23.557  26.084   2.215
64602W        W36928  10.726  39.560   0.772
64603W        W36929  31.974  35.981   3.182
64604W        W36930  32.106  28.180   2.873
64605W        W36931  41.433  40.382   3.695
64606W        W36932  35.530  42.019   3.837
64607W        W36933  10.860  17.229   2.362
64608W        W36934  41.404  34.864   5.237
64609W        W36935  15.659  36.373   2.793
64610W        W36936  43.801  25.647   1.421
64611W        W36937   9.665  19.699  13.870
64612W        W36938  25.477   9.680  11.077
64613W        W36939  22.247  31.033   4.189
64614W        W36940  18.588   2.284   1.380
64615W        W36941   6.321  26.608   2.856
64616W        W36942   4.842  37.950  11.546
64617W        W36943   9.385  17.259   4.671
64618W        W36944  16.159  42.892  13.909
64619W        W36945   6.765  10.792   2.829
64620W        W36946  37.869  10.368  15.000
64621W        W36947  29.169  15.657   3.803
64622W        W36948  33.107  19.171  12.081
64623W        W36949  23.726  33.589  10.994
64624W        W36950  14.202   3.798   4.133
64625W        W36951  10.657  32.923  12.536
64626W        W36952  21.200  31.962   2.261
64627W        W36953  19.253  34.097   4.288
64628W        W36954   7.756  22.008  14.004
64629W        W36955   1.483  33.958   0.773
64630W        W36956  15.157  42.419   1.419
64631W        W36957  32.123  21.699   4.759
64632W        W36958  41.533  20.102  12.540
64633W        W36959  29.008   6.374  14.009
64634W        W36960  27.021  10.692  11.458
64635W        W36961  14.814   2.733  12.921
64636W        W36962   2.395  42.016   2.742
64637W        W36963  17.306  25.046  11.035
64638W        W36964  33.390   9.851   4.786
64639W        W36965  32.429  29.481  14.461
64640W        W36966   7.910  17.111  14.967
64641W        W36967  15.589  33.413   0.473
64642W        W36968  39.357  25.521   3.380
64643W        W36969  15.766  38.976  10.445
64644W        W36970   1.278  18.286   0.813
64645W        W36971  28.965   5.330  12.388
64646W        W36972  40.797  13.124   4.768
64647W        W36973  37.496  44.455   1.427
64648W        W36974   8.263   6.239  13.397
64649W        W36975   8.770  42.405   4.274
64650W        W36976  27.649   2.726   0.475
64651W        W36977  44.499  40.836  13.018
64652W        W36978  24.230  36.921  13.393
64653W        W36979   6.867  15.322   1.808
64654W        W36980  43.331  22.716   4.305
64655W        W36981  11.731  34.506  14.330
64656W        W36982  33.986  22.722  14.281
64657W        W36983  41.386   6.780   1.323
64658W        W36984  36.363  10.814  12.513
64659W        W36985  32.396  24.126  12.063
64660W        W36986  35.950  17.133   2.271
64661W        W36987  43.816  41.885  13.536
64662W        W36988  33.507  24.591  10.542
64663W        W36989  31.629  22.656   1.358
64664W        W36990  21.213   6.380   0.824
64665W        W36991  24.181  23.660  12.015
64666W        W36992  21.191   4.276   2.669
64667W        W36993  15.623  25.526  13.835
64668W        W36994  21.085   9.803   0.410
64669W        W36995  44.376  33.004   4.678
64670W        W36996  25.062  10.310  13.476
64671W        W36997  34.510  43.869  13.482
64672W        W36998  26.957  16.775  14.857
64673W        W36999  21.651  19.676   5.274
64674W        W37000  33.530   7.801  13.026
64675W        W37001   4.925  37.928   0.436
64676W        W37002  17.779  23.585  13.986
64677W        W37003  44.293   5.876   0.407
64678W        W37004  17.075  28.946  11.544
64679W        W37005  39.917   3.437   3.764
64680W        W37006  35.904   7.761  14.424
64681W        W37007  25.671  34.952   2.883
64682W        W37008  30.441   3.735   2.785
64683W        W37009   3.385  29.135  12.482
64684W        W37010   8.827  44.813   4.788
64685W        W37011  28.597  36.452  13.459
64686W        W37012   0.352  27.116  11.864
64687W        W37013  41.789  44.352  14.028
64688W        W37014  20.563  34.475  14.311
64689W        W37015  30.480  44.997   1.368
64690W        W37016  42.357  35.954   0.828
64691W        W37017  12.769  14.741   2.334
64692W        W37018  28.539  28.655  14.415
64693W        W37019  34.997  14.331  10.473
64694W        W37020   6.192  24.096   4.608
64695W        W37021   4.716  16.088  13.335
64696W        W37022   1.866   8.177  11.006
64697W        W37023  34.916  17.612  12.399
64698W        W37024  31.419  35.050  10.964
64699W        W37025  26.171  21.077   4.828
64700W        W37026  29.430   1.966  11.976
64701W        W37027  11.341  21.139  14.008
64702W        W37028   9.377  10.662   2.339
64703W        W37029  43.928  44.001   0.275
64704W        W37030  35.923  26.133   4.719
64705W        W37031   0.292   0.311  10.633
64706W        W37032  15.736  23.200  12.361
64707W        W37033  30.980  22.009  11.986
64708W        W37034  19.582  40.405   4.347
64709W        W37035  34.503  29.464  14.888
64710W        W37036   0.887  42.793   0.967
64711W        W37037  34.435  21.255  14.357
64712W        W37038  17.233  35.963  13.378
64713W        W37039  23.177   1.250   2.895
64714W        W37040  18.116  10.671  13.408
64715W        W37041   8.876   4.829  14.284
64716W        W37042  36.041  20.199   1.211
64717W        W37043  27.578  37.952  14.907
64718W        W37044  24.690  27.194   0.938
64719W        W37045   9.158  26.119   0.878
64720W        W37046  34.526  43.783   3.262
64721W        W37047  16.208   4.267   0.327
64722W        W37048  25.195  12.755   4.308
64723W        W37049  37.897  44.929  12.429
64724W        W37050  44.870  43.855  10.935
64725W        W37051   2.246  42.951   1.232
64726W        W37052   4.923  22.575  12.428
64727W        W37053  18.121   9.730   4.268
64728W        W37054  26.991  28.958   2.359
64729W        W37055   1.822  28.440   2.897
64730W        W37056   3.802  13.692   0.747
64731W        W37057  27.546   8.317   4.812
64732W        W37058  10.776  17.127   1.871
64733W        W37059  15.187  12.202   0.445
64734W        W37060   0.325   6.741   2.349
64735W        W37061  41.805  19.151   4.145
64736W        W37062  38.906  19.278  10.062
64737W        W37063  15.279  40.952  14.969
64738W        W37064   6.302  43.429  12.521
64739W        W37065  28.445  26.458   0.270
64740W        W37066  36.861  35.571   1.757
64741W        W37067  19.045  33.465  13.349
64742W        W37068  42.819  16.692  10.500
64743W        W37069   4.863  21.710  12.453
64744W        W37070   5.414  41.327  11.909
64745W        W37071  26.697  37.384  10.902
64746W        W37072   8.787  40.341   3.309
64747W        W37073  34.555   9.288  14.997
64748W        W37074  36.412  37.442   0.281
64749W        W37075  15.202  25.044  11.946
64750W        W37076  29.026  37.402   1.354
64751W        W37077  44.757  38.560   0.250
64752W        W37078  19.582  24.209  13.899
64753W        W37079  24.047  29.006  11.126
64754W        W37080  40.983  25.138   3.659
64755W        W37081   6.248  39.008  13.850
64756W        W37082  10.242  11.130   3.674
64757W        W37083  12.137   6.341  11.532
64758W        W37084  34.016  23.725   0.881
64759W        W37085  40.902   4.858  12.390
64760W        W37086  38.397   8.192   0.848
64761W        W37087  21.521  42.822  11.480
64762W        W37088   9.297   0.365   3.729
64763W        W37089  40.036  40.389  14.849
64764W        W37090  32.062  13.679   3.243
64765W        W37091  22.530  39.892   5.240
64766W        W37092  21.703  24.643   2.806
64767W        W37093  22.548   1.261  13.935
64768W        W37094  41.446   5.431  12.857
64769W        W37095  36.936  44.412  13.053
64770W        W37096  18.268  28.587  13.363
64771W        W37097  23.151  25.513   2.763
64772W        W37098  41.401  39.415   3.224
64773W        W37099  15.203  13.690  12.921
64774W        W37100  13.645  11.364   0.924
64775W        W37101  40.980   4.329  10.427
64776W        W37102  43.482  23.733   2.208
64777W        W37103  26.575   4.784  14.935
64778W        W37104  31.038  41.874   0.904
64779W        W37105  41.025  16.229  11.021
64780W        W37106  22.030   3.790   0.776
64781W        W37107  40.452  27.514   0.937
64782W        W37108  21.214  16.569   4.325
64783W        W37109   9.794  25.638  12.481
64784W        W37110   0.837  41.500   1.236
64785W        W37111  22.605   0.275   1.339
64786W        W37112   4.290  11.737   0.774
64787W        W37113  30.126  14.095   2.735
64788W        W37114  32.124  32.453  13.340
64789W        W37115  13.172   6.238   4.621
64790W        W37116  30.015   9.776   3.330
64791W        W37117  21.556  18.211   4.765
64792W        W37118  32.929  21.256   0.895
64793W        W37119  42.916  42.311   3.788
64794W        W37120  22.167  37.402  10.954
64795W        W37121  43.855  39.840   3.357
64796W        W37122  41.993   5.788  13.011
64797W        W37123  30.121  22.715  12.923
64798W        W37124  37.537   9.189   3.796
64799W        W37125  13.609   3.747   2.802
64800W        W37126   5.207  35.601   4.694
64801W        W37127  15.126   6.745   4.199
64802W        W37128  22.600  21.212   4.325
64803W        W37129   1.885   4.281  11.386
64804W        W37130  36.558   4.827  12.904
64805W        W37131   5.757  22.594   0.780
64806W        W37132  25.152  32.620   2.871
64807W        W37133  35.480  18.058   3.755
64808W        W37134  13.659  26.553  11.528
64809W        W37135  19.204  30.595  14.793
64810W        W37136  31.569  43.303   4.330
64811W        W37137   1.340  39.823  13.999
64812W        W37138  12.648  11.795   3.377
64813W        W37139  10.306  21.190   4.735
64814W        W37140  29.526  34.014   2.185
64815W        W37141   0.322  17.208  11.512
64816W        W37142  17.071  39.485  13.931
64817W        W37143  38.554  35.105   3.214
64818W        W37144  28.032  30.909  11.006
64819W        W37145  11.134  32.399   3.320
64820W        W37146  26.472  28.520   1.252
64821W        W37147  38.008   4.386   3.354
64822W        W37148   9.381  29.589  13.488
64823W        W37149  34.531   7.182   0.769
64824W        W37150  11.274  25.171  10.912
64825W        W37151  25.012  41.412   3.718
64826W        W37152   3.231  16.204  12.566
64827W        W37153  42.303  33.506  11.061
64828W        W37154  41.399  39.520   1.424
64829W        W37155  22.110  23.567   0.820
64830W        W37156  25.991  38.383  11.597
64831W        W37157  41.519  25.702  11.867
64832W        W37158  24.034  20.239  14.309
64833W        W37159  35.537  44.344   4.318
64834W        W37160   9.220  11.293   1.424
64835W        W37161  38.846  20.072  10.448
64836W        W37162  38.870   7.876   3.741
64837W        W37163  40.821  39.470  10.590
64838W        W37164   2.463  41.388  14.943
64839W        W37165   5.357  37.406   4.609
64840W        W37166  41.502  44.762  11.910
64841W        W37167  32.475  31.097  12.855
64842W        W37168   7.181  37.001  11.128
64843W        W37169  38.852  33.403   0.791
64844W        W37170  29.949  44.898   1.442
64845W        W37171  24.010  15.321   1.418
64846W        W37172  29.457  30.013  13.918
64847W        W37173  44.819  38.521   3.657
64848W        W37174  44.284  34.924  12.546
64849W        W37175  20.261  18.607  12.423
64850W        W37176  31.542  14.159  14.348
64851W        W37177  34.558  15.294  11.525
64852W        W37178  37.491   4.441  12.367
64853W        W37179   1.400  17.256   0.355
64854W        W37180   8.864  44.451   1.790
64855W        W37181  33.967  32.941  11.997
64856W        W37182  44.869  27.973   2.803
64857W        W37183  23.707  10.843  13.954
64858W        W37184   8.881  22.026  12.923
64859W        W37185  37.841  14.695   3.352
64860W        W37186   4.252  32.436  11.586
64861W        W37187  10.293  38.060  14.367
64862W        W37188  36.923  26.060  11.588
64863W        W37189  30.551   3.460  13.510
64864W        W37190  10.811  15.648  10.515
64865W        W37191   4.919  18.193   3.663
64866W        W37192  25.185  23.238  11.905
64867W        W37193  30.125  30.004   2.897
64868W        W37194  17.187  17.677   1.811
64869W        W37195  38.022   7.186  10.065
64870W        W37196   2.845  22.725  14.381
64871W        W37197  31.928   3.764  11.009
64872W        W37198  14.300  34.003  11.395
64873W        W37199  17.561   5.341  12.080
64874W        W37200  24.093  18.674   0.451
64875W        W37201  28.034  36.053  13.540
64876W        W37202  10.304  15.627   2.410
64877W        W37203   5.367  22.110   0.313
64878W        W37204  16.088  43.410   0.825
64879W        W37205  36.915  16.577  13.411
64880W        W37206  33.585  41.807  12.029
64881W        W37207  13.719  36.929   4.653
64882W        W37208  13.214  38.892   9.945
64883W        W37209  10.176   6.840  11.920
64884W        W37210   3.222  35.594   4.768
64885W        W37211  28.931  11.164   2.394
64886W        W37212  32.105   2.863   4.715
64887W        W37213  33.603   1.746  13.895
64888W        W37214  32.088  14.275   0.482
64889W        W37215   2.226  33.394   3.172
64890W        W37216  43.372  15.627   4.244
64891W        W37217  41.030   4.304   3.780
64892W        W37218  20.736  23.689   4.628
64893W        W37219  33.572  11.811   5.240
64894W        W37220  14.264  36.555   4.305
64895W        W37221  10.851  33.008   1.214
64896W        W37222  24.556  25.971  11.375
64897W        W37223  42.033  31.541  13.988
64898W        W37224  18.258  31.586   1.326
64899W        W37225   8.188  20.568   2.739
64900W        W37226  12.281  13.299  14.909
64901W        W37227  30.441   1.866  11.586
64902W        W37228  20.126   4.422   4.709
64903W        W37229  26.202  12.269   3.674
64904W        W37230  36.957   0.851   2.241
64905W        W37231  10.162  43.854  13.902
64906W        W37232  31.949  35.385  14.502
64907W        W37233  20.057  39.954  10.586
64908W        W37234  27.079  32.565   3.277
64909W        W37235  30.098  22.143  12.382
64910W        W37236  36.455  26.999   2.880
64911W        W37237   8.209   4.851  14.473
64912W        W37238   6.826  33.603   0.929
64913W        W37239  11.695  20.727   1.236
64914W        W37240  12.337  25.150   2.271
64915W        W37241  12.145  15.131  13.887
64916W        W37242  36.014   8.219   1.430
64917W        W37243  27.960  26.000   9.977
64918W        W37244  12.639  40.314  13.808
64919W        W37245  37.070  38.959  11.909
64920W        W37246  19.201  25.128   4.782
64921W        W37247  27.008  12.129  13.878
64922W        W37248  32.961   5.888   2.897
64923W        W37249  20.636  12.332   0.890
64924W        W37250  29.662   0.889  13.839
64925W        W37251   2.297  19.691   4.665
64926W        W37252  44.500  16.175  14.482
64927W        W37253  24.706  13.825  11.392
64928W        W37254  10.783  23.135   0.734
64929W        W37255  40.441   6.923   2.874
64930W        W37256  15.273  40.820  14.296
64931W        W37257   7.361  35.572   2.395
64932W        W37258  38.030  43.806   2.286
64933W        W37259  10.337  43.406   1.863
64934W        W37260  27.007  22.616   0.415
64935W        W37261  36.984  30.428  10.570
64936W        W37262   3.221  25.107  11.406
64937W        W37263  35.925   5.270   2.793
64938W        W37264  44.777  20.057   3.169
64939W        W37265  11.855   9.740  13.007
64940W        W37266   9.805  15.182  12.883
64941W        W37267   2.918  20.712   3.648
64942W        W37268  38.463  37.912  13.863
64943W        W37269  41.325  19.060   2.834
64944W        W37270  34.574  23.054  12.965
64945W        W37271  43.387  22.702  11.501
64946W        W37272  23.623  28.003   3.822
64947W        W37273  29.527  38.915  10.910
64948W        W37274  19.734  16.266   0.268
64949W        W37275  21.708  13.279   4.737
64950W        W37276  20.687  13.118   0.303
64951W        W37277   2.899   4.761   3.182
64952W        W37278  15.696  11.639  13.848
64953W        W37279  11.696   7.688  13.397
64954W        W37280  25.557   9.750   3.818
64955W        W37281  20.642   2.758   1.302
64956W        W37282  25.198  10.373   4.655
64957W        W37283  25.150   1.298  14.955
64958W        W37284  34.878  24.523   2.704
64959W        W37285   2.890  34.897   3.220
64960W        W37286  19.653  34.897   3.284
64961W        W37287   4.362  18.724   3.258
64962W        W37288   0.453   7.825   3.752
64963W        W37289  42.292  21.668  11.930
64964W        W37290   0.296   1.754   1.887
64965W        W37291  26.125  22.663  13.466
64966W        W37292  34.935  25.695   1.762
64967W        W37293  11.245  15.162   3.258
64968W        W37294  22.599  12.799  10.982
64969W        W37295   1.368   5.837  14.857
64970W        W37296   4.236  29.052   1.247
64971W        W37297  38.063  31.606   2.286
64972W        W37298  34.425  26.098  10.626
64973W        W37299  39.505  35.390  10.944
64974W        W37300  14.723  29.448  12.897
64975W        W37301  33.043  31.552   2.728
64976W        W37302   1.970   6.377   1.373
64977W        W37303  18.095  40.047  12.369
64978W        W37304  26.491  41.516  10.901
64979W        W37305   6.263  24.557   0.252
64980W        W37306  28.479  44.884   0.251
64981W        W37307   3.888   6.679   1.302
64982W        W37308  22.635   1.807   4.644
64983W        W37309  16.083  20.161   0.374
64984W        W37310  28.103  38.062   1.311
64985W        W37311  26.573  31.036  11.883
64986W        W37312  34.599  20.171  10.412
64987W        W37313  34.036  12.158   2.364
64988W        W37314   0.913  43.870  12.922
64989W        W37315  28.624  15.750   0.842
64990W        W37316  21.729  25.581  11.889
64991W        W37317   0.784  42.852  12.062
64992W        W37318  29.021  39.406   4.129
64993W        W37319  27.104  33.036  12.359
64994W        W37320   7.200   5.401   2.344
64995W        W37321   2.266   8.369   0.289
64996W        W37322  32.003   7.258  13.543
64997W        W37323  35.550  35.955  14.828
64998W        W37324   7.235  10.770  13.387
64999W        W37325  39.907  36.552  10.528
65000W        W37326   7.852  31.986   3.177
65001W        W37327  41.873  26.595  12.375
65002W        W37328  16.239  22.607  13.943
65003W        W37329   8.844  44.984  14.390
65004W        W37330  15.765  17.238   2.840
65005W        W37331  21.579  31.023  11.975
65006W        W37332  39.405  29.124   3.326
65007W        W37333   3.809  40.518   4.616
65008W        W37334  33.599  14.314  14.303
65009W        W37335  40.464   3.844  10.935
65010W        W37336  32.543  22.103  12.926
65011W        W37337  14.667  42.809   3.837
65012W        W37338  29.664   7.305   3.382
65013W        W37339  44.494  26.970  13.891
65014W        W37340  32.491  23.167  11.889
65015W        W37341  20.108   4.899   0.364
65016W        W37342  30.156  31.022   2.872
65017W        W37343  24.601  12.183  12.522
65018W        W37344  32.929  42.458  13.439
65019W        W37345   6.257  21.669  14.891
65020W        W37346  13.690  26.676  13.472
65021W        W37347  40.904  14.223   2.786
65022W        W37348   9.175  16.751  13.942
65023W        W37349  16.074  19.041  14.885
65024W        W37350   8.779   1.940   0.890
65025W        W37351  27.484  35.082  13.019
65026W        W37352   2.919  27.190   2.758
65027W        W37353  35.417  11.839   9.541
65028W        W37354   2.352  12.662   2.287
65029W        W37355  15.593  43.486   4.313
65030W        W37356  12.856  13.846  10.626
65031W        W37357   2.310  15.155  11.104
65032W        W37358  15.603  16.713  10.475
65033W        W37359  33.969  10.155  11.604
65034W        W37360  16.108  14.827  10.514
65035W        W37361  19.656   5.250   1.817
65036W        W37362  11.827  15.235  12.395
65037W        W37363  42.842  22.566   5.308
65038W        W37364  34.103  21.695   4.270
65039W        W37365  44.877   9.364  12.980
65040W        W37366   3.234  39.979   0.456
65041W        W37367   7.373  28.633  14.350
65042W        W37368  11.863  44.499   5.298
65043W        W37369  30.958  23.549  11.952
65044W        W37370  33.889  10.262  14.943
65045W        W37371  41.524  19.682   2.248
65046W        W37372  14.249  11.860   0.740
65047W        W37373   0.344   2.795  10.409
65048W        W37374  15.713   7.868   4.659
65049W        W37375  18.654  18.051  11.068
65050W        W37376  36.525  22.090  13.002
65051W        W37377   2.337  39.948  11.603
65052W        W37378  41.912  31.088   0.890
65053W        W37379  35.109  36.977   2.190
65054W        W37380  35.577  28.465  11.560
65055W        W37381  19.151  43.469  11.463
65056W        W37382  33.100  26.524   3.337
65057W        W37383   8.363   2.352   3.355
65058W        W37384  37.574  34.882  11.985
65059W        W37385  10.181  27.533   0.916
65060W        W37386  19.725  44.798  12.417
65061W        W37387  27.095  35.044  12.981
65062W        W37388  27.447   1.765   0.456
65063W        W37389  14.281  23.000  12.039
65064W        W37390  32.038  21.520   3.239
65065W        W37391   3.757  32.554  10.641
65066W        W37392  25.079   7.815   2.760
65067W        W37393  21.720   2.849  10.889
65068W        W37394  25.594  28.139  14.012
65069W        W37395  17.078  24.009  14.290
65070W        W37396   0.802  44.760   2.234
65071W        W37397   6.229  28.145  14.464
65072W        W37398   2.758  41.520  10.542
65073W        W37399  23.500   1.238  11.551
65074W        W37400  37.365  14.100  11.954
65075W        W37401  24.140  37.441   3.386
65076W        W37402  22.707  25.190  10.498
65077W        W37403  24.602  19.093   1.261
65078W        W37404  42.333  12.303  10.910
65079W        W37405   2.366  40.867  11.016
65080W        W37406  11.340  11.339  12.459
65081W        W37407  18.559  25.586   4.124
65082W        W37408   3.756  28.538   4.627
65083W        W37409   0.400   9.369   1.354
65084W        W37410  32.400  21.753  12.936
65085W        W37411  32.394  34.974   0.327
65086W        W37412  26.509  24.604  14.997
65087W        W37413  27.057  17.152  10.627
65088W        W37414   2.919  35.033  12.025
65089W        W37415  20.170  44.424   3.743
65090W        W37416   1.251   7.334  12.036
65091W        W37417  29.065  40.455   3.818
65092W        W37418  39.015   2.419  11.875
65093W        W37419   0.746  11.806  11.062
65094W        W37420  31.529  14.759   3.722
65095W        W37421  28.111  30.489   3.818
65096W        W37422  42.493  38.899   0.924
65097W        W37423  33.094  28.953   4.233
65098W        W37424   3.720   5.356  10.536
65099W        W37425  18.642   3.442   9.949
65100W        W37426  20.172  44.769   1.393
65101W        W37427  10.294  26.145  14.944
65102W        W37428  30.631   3.345   0.829
65103W        W37429  40.349   4.913   0.827
65104W        W37430  13.190  23.632   3.242
65105W        W37431  15.716  27.524   1.757
65106W        W37432   7.901  15.172   2.705
65107W        W37433   0.301   7.714   4.685
65108W        W37434  15.179  33.419  11.396
65109W        W37435  41.347   0.298   1.362
65110W        W37436  33.473  36.432   4.789
65111W        W37437  38.984  17.146  12.397
65112W        W37438  32.912   9.291   2.329
65113W        W37439  29.460   9.183   4.241
65114W        W37440  28.999  19.659   4.696
65115W        W37441  17.773  38.488  14.317
65116W        W37442  16.679   7.801   4.716
65117W        W37443  43.305  32.424   1.295
65118W        W37444  17.065   1.838   3.170
65119W        W37445   3.777   0.950  10.960
65120W        W37446  10.807   5.232   1.799
65121W        W37447  44.948   3.302   0.787
65122W        W37448  22.065  26.079  12.874
65123W        W37449   0.474  43.392   4.785
65124W        W37450  13.702   6.332   1.892
65125W        W37451  32.414  15.654   2.286
65126W        W37452  13.255   3.331   3.642
65127W        W37453  38.040  11.722  14.872
65128W        W37454  26.651  27.974   2.696
65129W        W37455  17.223  17.784   2.784
65130W        W37456  15.732  30.620  10.582
65131W        W37457  29.174  30.937  11.905
65132W        W37458  38.904  37.552   4.635
65133W        W37459  40.323  21.541  11.076
65134W        W37460  35.603   1.247   3.825
65135W        W37461  24.101  20.653   1.859
65136W        W37462  24.711   9.171   3.373
65137W        W37463  22.635  26.023   3.264
65138W        W37464  34.528  13.186   3.161
65139W        W37465  14.786   7.256  11.560
65140W        W37466  23.046  39.369   3.244
65141W        W37467  10.177   9.649  12.534
65142W        W37468  26.096  24.979   1.823
65143W        W37469  37.911  28.028   1.757
65144W        W37470  10.872  10.201  10.487
65145W        W37471  27.649  18.104  10.567
65146W        W37472  22.024  22.510   0.922
65147W        W37473  23.205  24.604   4.807
65148W        W37474  27.615   8.899  10.019
65149W        W37475  42.347  38.410  11.920
65150W        W37476  14.124   3.807   2.379
65151W        W37477  29.489  10.304   5.296
65152W        W37478  41.377  31.990   3.331
65153W        W37479  19.199  34.921   0.395
65154W        W37480  37.830  20.100  11.110
65155W        W37481   8.369   6.795   3.148
65156W        W37482  35.026   7.255   4.609
65157W        W37483  33.041  41.880  11.525
65158W        W37484  40.526  38.849   4.250
65159W        W37485  30.964  17.133   4.120
65160W        W37486  30.560   0.775   5.317
65161W        W37487  13.246  10.652  12.445
65162W        W37488  42.522  13.741   2.403
65163W        W37489  22.577  25.128   3.712
65164W        W37490  32.008  21.599  12.555
65165W        W37491  30.449   2.795  12.872
65166W        W37492  34.611   0.369   1.807
65167W        W37493  42.290  30.942   3.780
65168W        W37494   2.464  29.933   2.288
65169W        W37495  30.449  20.588  11.435
65170W        W37496   9.181   7.683  13.473
65171W        W37497  33.128  33.999   1.699
65172W        W37498  16.264  24.714   4.631
65173W        W37499  39.380  21.061   0.268
65174W        W37500  30.978  39.841   3.735
65175W        W37501   9.292  44.466   3.782
65176W        W37502  43.825  39.317  11.011
65177W        W37503   9.340  13.841  12.433
65178W        W37504  32.110  19.082  10.563
65179W        W37505  32.606  18.607   0.433
65180W        W37506   8.867  30.042   2.843
65181W        W37507  11.735  23.173  10.934
65182W        W37508  33.534   3.902   2.291
65183W        W37509  17.219  30.103   4.128
65184W        W37510  11.764  10.330   0.471
65185W        W37511   1.909  32.459  11.395
65186W        W37512   2.426  41.388  14.027
65187W        W37513  39.428   4.232   0.274
65188W        W37514  26.058  22.137   2.280
65189W        W37515  22.051  40.350   0.916
65190W        W37516  11.794  10.862   0.294
65191W        W37517  40.963  41.018   2.419
65192W        W37518   0.796  44.405  11.008
65193W        W37519  30.010  37.378   4.645
65194W        W37520  23.115   6.770  14.812
65195W        W37521  30.005  14.776  13.842
65196W        W37522  22.151  35.869   3.185
65197W        W37523  13.603  21.677  11.988
65198W        W37524   6.291  37.969  14.322
65199W        W37525   4.347  39.519   3.268
65200W        W37526  12.350  37.977  10.500
65201W        W37527  41.834  42.369   3.697
65202W        W37528  21.732   7.246  12.580
65203W        W37529  24.003  21.676   0.733
65204W        W37530  21.147   6.854  13.972
65205W        W37531  20.093  15.639   3.816
65206W        W37532   4.326   2.382   1.441
65207W        W37533  16.757  38.510   0.366
65208W        W37534  29.633  31.046  13.051
65209W        W37535  22.728  26.632   1.791
65210W        W37536  28.517  19.634   0.955
65211W        W37537   6.792  20.194  13.431
65212W        W37538  37.561  28.633   3.265
65213W        W37539   5.836  25.475   1.712
65214W        W37540   1.380  16.129   0.276
65215W        W37541  29.507  31.100  14.016
65216W        W37542  22.141  12.335   3.387
65217W        W37543  34.874   7.174   1.277
65218W        W37544   8.264  28.607   2.662
65219W        W37545  26.463   3.302   1.352
65220W        W37546  28.615   4.321   3.800
65221W        W37547  13.799  31.597   2.255
65222W        W37548  44.499  25.712   1.304
65223W        W37549  20.226  30.635  12.342
65224W        W37550  23.046  44.352   0.798
65225W        W37551  32.937   4.318   1.432
65226W        W37552  34.432  28.469   1.253
65227W        W37553  34.536  41.321  13.402
65228W        W37554   3.797  43.428  13.965
65229W        W37555  26.600  42.429  10.000
65230W        W37556  31.076  24.181   0.760
65231W        W37557   9.824  40.526  11.019
65232W        W37558  34.011  15.763   3.686
65233W        W37559  14.797   9.736  14.938
65234W        W37560   8.318  25.980  14.809
65235W        W37561  23.554   2.421  12.380
65236W        W37562  42.992  29.082   1.909
65237W        W37563  29.463  33.427  10.564
65238W        W37564  25.983  40.326  10.578
65239W        W37565  17.297  22.164   4.735
65240W        W37566  10.147  30.523  11.520
65241W        W37567  35.990  35.541   4.803
65242W        W37568  15.162  34.480   2.679
65243W        W37569  20.226   3.241   5.132
65244W        W37570  16.730  41.355  13.526
65245W        W37571  44.996   4.714  14.940
65246W        W37572  28.150  18.679  12.344
65247W        W37573   6.345  15.646  10.071
65248W        W37574  44.878  33.127   1.768
65249W        W37575   2.350  18.585   4.805
65250W        W37576  38.567  19.616   0.370
65251W        W37577  11.365  43.819   2.780
65252W        W37578  15.108  24.119  13.061
65253W        W37579   0.344   2.853  14.301
65254W        W37580  26.689   2.379  10.947
65255W        W37581   3.236  10.148   4.600
65256W        W37582  32.441  33.470   2.848
65257W        W37583   2.725  23.597   5.680
65258W        W37584  41.958   0.408  12.521
65259W        W37585  10.735  36.850  10.604
65260W        W37586  10.704  10.270   2.252
65261W        W37587  22.680  15.805   5.162
65262W        W37588  22.132   4.877  14.405
65263W        W37589  37.523  42.887   2.325
65264W        W37590  26.983  17.298  11.428
65265W        W37591  31.004   8.375  10.937
65266W        W37592  34.460  43.995   0.291
65267W        W37593  15.278  22.695   4.173
65268W        W37594  38.073  24.617  12.476
65269W        W37595   1.875  38.067  14.914
65270W        W37596   2.890  44.990   1.762
65271W        W37597  23.020   4.434  11.903
65272W        W37598  10.877  13.291  11.115
65273W        W37599  44.789  43.858   4.220
65274W        W37600  33.077  27.519   4.127
65275W        W37601  12.678  36.949   0.946
65276W        W37602  36.938  44.837   2.408
65277W        W37603  29.028   2.935   0.961
65278W        W37604  21.039  24.026  14.786
65279W        W37605   4.246  20.763   2.296
65280W        W37606  44.898  32.435   3.331
65281W        W37607  17.081   8.814   1.767
65282W        W37608  35.596  18.736   1.706
65283W        W37609   8.200   9.757   3.822
65284W        W37610  41.479  10.273   3.261
65285W        W37611  43.893  22.157  13.344
65286W        W37612  41.486   7.322  10.507
65287W        W37613  38.038  12.208  12.367
65288W        W37614  36.464  14.198   4.276
65289W        W37615  36.948  17.753  12.988
65290W        W37616  44.828  22.221  12.420
65291W        W37617  31.085   6.806   4.218
65292W        W37618  28.538  32.924  14.491
65293W        W37619  29.477   3.854   3.170
65294W        W37620  14.810  37.414   3.151
65295W        W37621   3.816  37.515  13.962
65296W        W37622   4.362   5.419  10.556
65297W        W37623  41.296   0.258  10.516
65298W        W37624  19.268  33.035   1.336
65299W        W37625  39.558  43.282   2.260
65300W        W37626  34.547  18.586  12.962
65301W        W37627  21.174   8.373  14.317
65302W        W37628   8.820  36.558   0.288
65303W        W37629   9.777   2.809  11.536
65304W        W37630  12.707  20.576  14.944
65305W        W37631   9.843  37.338  14.878
65306W        W37632   0.391  23.051   4.144
65307W        W37633  21.723   5.703  12.961
65308W        W37634  34.082   4.203   0.833
65309W        W37635   4.365  38.419   0.361
65310W        W37636  26.163  19.692  14.369
65311W        W37637  25.553  17.688   3.212
65312W        W37638   5.333   8.195   4.259
65313W        W37639  36.067  22.561  14.476
65314W        W37640  18.063  42.927  12.471
65315W        W37641  31.070   5.776   0.243
65316W        W37642   1.392  24.636   3.706
65317W        W37643  25.672  11.339  10.420
65318W        W37644   5.713  36.035   0.849
65319W        W37645  24.567  24.206  14.760
65320W        W37646  38.827  26.533  14.408
65321W        W37647  36.570  39.039   1.353
65322W        W37648  35.992  32.086   2.889
65323W        W37649  22.048  32.052  12.348
65324W        W37650  42.919  11.138   0.739
65325W        W37651  13.725  27.461  13.401
65326W        W37652  20.580   5.745   2.845
65327W        W37653  30.050  31.153  10.431
65328W        W37654   0.963  22.683   4.308
65329W        W37655  34.458   6.418   4.812
65330W        W37656  38.951  43.822   3.750
65331W        W37657  23.590   3.321  13.330
65332W        W37658  26.152  34.972  10.584
65333W        W37659  14.330  28.037  14.396
65334W        W37660  34.946   9.163   3.234
65335W        W37661   6.304   0.908   3.679
65336W        W37662  27.046   7.397   5.211
65337W        W37663  32.415  30.603   5.081
65338W        W37664   0.331  33.580  14.867
65339W        W37665  25.616   0.351   2.698
65340W        W37666  24.122  37.933   2.340
65341W        W37667  22.583  23.070   2.840
65342W        W37668  14.823  40.845   1.782
65343W        W37669  33.585  38.040  11.381
65344W        W37670   9.791   2.749  13.901
65345W        W37671   1.825  12.243  10.019
65346W        W37672  38.419  14.166   4.655
65347W        W37673  24.016  18.284  13.418
65348W        W37674  38.498  20.649  11.940
65349W        W37675  21.252  24.009  14.010
65350W        W37676   6.200  43.402  13.061
65351W        W37677   0.370  22.507   5.185
65352W        W37678  35.525  10.760  10.486
65353W        W37679   6.733  24.002   1.419
65354W        W37680  30.469  18.574   0.425
65355W        W37681  11.822  12.658  13.517
65356W        W37682  37.483  35.907   2.254
65357W        W37683  15.209   5.875  10.431
65358W        W37684  40.022  29.432  10.949
65359W        W37685  31.047  29.543  14.951
65360W        W37686  13.285  19.180   4.294
65361W        W37687  41.809   0.956   4.216
65362W        W37688  24.151  10.176   1.874
65363W        W37689  17.129  21.207   0.393
65364W        W37690  34.393   8.683  11.610
65365W        W37691  35.417  19.698  13.880
65366W        W37692   7.412  18.115  10.594
65367W        W37693  42.013  30.503   5.284
65368W        W37694  32.465   8.246   4.815
65369W        W37695   8.698  27.663   1.763
65370W        W37696   0.391  34.998   3.278
65371W        W37697  17.141  27.662   1.235
65372W        W37698   5.717  28.951  12.459
65373W        W37699  10.816   8.670   2.339
65374W        W37700   2.739  19.602  14.411
65375W        W37701   8.894  17.268   3.664
65376W        W37702  24.149  15.166   5.570
65377W        W37703  42.873  19.646  13.540
65378W        W37704  29.636  21.748  12.450
65379W        W37705  21.160  15.610  14.496
65380W        W37706  23.086  24.005  14.010
65381W        W37707  13.648  18.764  13.511
65382W        W37708  13.243  17.125   1.720
65383W        W37709  29.520  19.246  13.979
65384W        W37710  35.025   6.873  13.851
65385W        W37711  17.662  18.221  10.496
65386W        W37712   2.721  12.625  13.420
65387W        W37713  15.577   8.364  12.931
65388W        W37714  27.628  28.605   1.401
65389W        W37715  30.123  40.836   1.396
65390W        W37716  34.027  40.472  12.349
65391W        W37717  36.383  14.334  11.059
65392W        W37718   8.255   7.669   2.707
65393W        W37719  26.960  28.548  14.986
65394W        W37720  26.161  30.978   4.178
65395W        W37721  14.159  11.807   4.251
65396W        W37722   1.378  37.399  13.019
65397W        W37723   3.906   0.424   0.299
65398W        W37724  40.549  10.249   4.699
65399W        W37725   8.295  42.452  10.596
65400W        W37726  33.404   8.747  13.359
65401W        W37727  25.688  39.330  13.521
65402W        W37728   6.713   2.365  14.774
65403W        W37729  24.488  13.309   0.362
65404W        W37730  29.666  25.988  11.985
65405W        W37731   3.917  22.576   5.652
65406W        W37732   0.306   2.245  14.940
65407W        W37733  32.619  29.584   4.282
65408W        W37734  12.699  32.413  12.909
65409W        W37735  37.067  26.147  13.447
65410W        W37736  10.214  22.554   1.432
65411W        W37737  27.038  23.576  12.047
65412W        W37738   8.320  34.475  10.418
65413W        W37739  35.030  25.615  12.946
65414W        W37740   7.711  35.394   4.650
65415W        W37741  30.499  44.500  12.575
65416W        W37742  38.557  30.971  11.961
65417W        W37743  10.210  26.090  13.899
65418W        W37744  23.178  43.451  11.586
65419W        W37745   8.654   9.354   4.716
65420W        W37746   5.225   7.721  14.321
65421W        W37747   2.721  34.518   1.911
65422W        W37748  22.641  17.638  11.884
65423W        W37749  12.290  30.578  14.972
65424W        W37750  22.092  17.790   1.722
65425W        W37751  25.104  12.744  14.379
65426W        W37752  30.092  30.588   0.827
65427W        W37753   1.866   5.714  11.374
65428W        W37754   6.803   2.348   1.830
65429W        W37755  41.038  26.194  10.517
65430W        W37756  10.239   7.700  12.039
65431W        W37757  42.513  32.527   4.708
65432W        W37758  39.844  17.779  12.425
65433W        W37759  12.819  11.762  10.996
65434W        W37760   6.893   2.351   2.394
65435W        W37761  34.117  42.438  14.415
65436W        W37762  41.448  12.660   0.731
65437W        W37763  30.431  23.662   3.763
65438W        W37764  13.790   4.396  12.451
65439W        W37765  31.106   1.944   3.235
65440W        W37766  10.339  27.024  14.789
65441W        W37767   5.401  18.781  10.574
65442W        W37768  17.621  28.121  13.034
65443W        W37769  31.096   2.378  14.912
65444W        W37770  21.148  27.137   3.750
65445W        W37771  23.027  24.100  12.450
65446W        W37772  19.590  20.088  11.077
65447W        W37773   8.781  20.633  14.960
65448W        W37774   4.773  41.832  14.333
65449W        W37775   6.262  33.939  12.049
65450W        W37776   3.744  23.555  12.063
65451W        W37777  29.104  34.883   4.838
65452W        W37778  23.992  16.736  12.572
65453W        W37779  23.684  44.829  14.367
65454W        W37780  29.637   2.350   3.685
65455W        W37781  26.672  29.976  11.030
65456W        W37782  15.680  40.479   5.149
65457W        W37783  26.085  13.650   3.311
65458W        W37784  42.485   6.796   4.265
65459W        W37785  33.613   1.369  10.545
65460W        W37786  25.966  27.626   5.699
65461W        W37787  31.020  41.850   4.270
65462W        W37788  42.508  19.676  14.423
65463W        W37789   3.286  25.573   2.848
65464W        W37790   2.273  11.137  13.369
65465W        W37791  17.201   5.212   2.832
65466W        W37792  13.232   8.371   0.303
65467W        W37793  37.048  41.839  10.506
65468W        W37794  27.632  44.497  14.287
65469W        W37795  38.423   6.702   0.257
65470W        W37796   4.428  33.624   0.387
65471W        W37797  24.096  31.015  13.460
65472W        W37798  16.747  31.589  13.951
65473W        W37799  33.013  38.338   1.384
65474W        W37800   2.252  24.556  13.916
65475W        W37801   8.710   2.416  11.486
65476W        W37802  42.511  15.192   1.262
65477W        W37803  17.680   5.340   1.279
65478W        W37804  20.667   1.387   3.736
65479W        W37805  15.646  30.122   2.269
65480W        W37806  41.485  12.324   4.769
65481W        W37807  36.981  30.562  13.365
65482W        W37808  10.315  19.555  13.307
65483W        W37809  40.931  31.927  12.493
65484W        W37810  11.657  44.356  11.959
65485W        W37811  23.600  39.023  13.425
65486W        W37812  29.000  25.978  11.490
65487W        W37813  13.610  43.458  13.323
65488W        W37814  42.377   7.752  11.888
65489W        W37815  43.826  29.665   0.339
65490W        W37816  40.017  33.558   4.698
65491W        W37817  19.757  41.298  10.431
65492W        W37818   2.830  24.100   5.220
65493W        W37819  13.621  27.593  13.968
65494W        W37820  42.029  26.466  13.990
65495W        W37821  37.003   4.365   0.751
65496W        W37822  27.193  11.821  11.440
65497W        W37823  14.616  37.434  10.463
65498W        W37824  28.590  10.275  11.475
65499W        W37825  39.515  39.488  10.969
65500W        W37826  28.603  37.345  13.957
65501W        W37827  36.977  22.062  14.953
65502W        W37828   9.292  38.364   1.353
65503W        W37829  37.569  18.568   2.337
65504W        W37830  26.197  23.107   3.686
65505W        W37831  40.486  16.575   1.451
65506W        W37832   7.713  20.568  11.468
65507W        W37833   5.329  33.906  13.953
65508W        W37834  31.477   2.307   1.887
65509W        W37835  40.968  20.098   3.180
65510W        W37836  13.705  16.624   4.725
65511W        W37837  25.625  24.995  10.046
65512W        W37838  34.111   3.380  14.998
65513W        W37839  35.899  12.193  13.039
65514W        W37840   0.836  15.302  11.607
65515W        W37841  35.543  31.908  10.604
65516W        W37842   8.252  32.417  13.925
65517W        W37843  41.944  29.039  13.842
65518W        W37844  14.310  17.754  13.362
65519W        W37845  14.204  44.425   1.713
65520W        W37846   1.736  31.931   2.412
65521W        W37847  35.854  13.834  12.992
65522W        W37848   0.874   7.245   0.761
65523W        W37849   1.418   9.724  13.890
65524W        W37850  41.793  30.530   1.240
65525W        W37851  42.950  41.803  14.789
65526W        W37852  17.732  39.915  10.533
65527W        W37853   8.186  41.522  11.382
65528W        W37854  35.537  25.614  11.100
65529W        W37855  24.165  24.984   0.292
65530W        W37856  41.027   9.257  12.907
65531W        W37857  36.046   6.200   4.326
65532W        W37858  28.929   9.206  14.927
65533W        W37859  36.442  28.080   1.716
65534W        W37860   2.357  15.712   1.864
65535W        W37861  31.562  36.066   4.762
65536W        W37862  17.795  24.023   3.214
65537W        W37863   0.485  23.530   2.752
65538W        W37864  36.387  24.654   4.149
65539W        W37865  20.079   0.757   0.796
65540W        W37866   5.879  35.426   4.598
65541W        W37867   7.754  11.739  11.939
65542W        W37868   7.213   3.250   3.295
65543W        W37869  24.679  10.759  12.092
65544W        W37870  22.232   5.819  12.931
65545W        W37871  17.780  33.939  12.838
65546W        W37872   7.257  18.174   3.729
65547W        W37873   4.258  18.247  14.834
65548W        W37874  40.043  13.262  12.043
65549W        W37875  36.459  37.063   3.217
65550W        W37876  34.597   1.261   4.121
65551W        W37877  23.217   1.333  11.123
65552W        W37878  33.071  41.419  14.836
65553W        W37879   2.948   0.761  11.595
65554W        W37880  42.850  29.060  12.411
65555W        W37881   8.851  20.592   3.223
65556W        W37882  20.729  29.021  14.329
65557W        W37883  15.675  18.563   0.387
65558W        W37884  38.928  27.595  10.925
65559W        W37885   5.342  32.017  12.029
65560W        W37886  24.045  22.575   1.292
65561W        W37887   6.381   1.948  13.064
65562W        W37888  41.398  36.475   3.177
65563W        W37889   8.897  27.181   2.251
65564W        W37890   4.822  11.628  14.812
65565W        W37891  31.979  31.578  11.862
65566W        W37892   1.870  37.072   0.912
65567W        W37893   5.238  10.282  13.477
65568W        W37894  41.830  33.961   3.353
65569W        W37895  10.248  30.450   3.271
65570W        W37896  40.853  35.064  14.887
65571W        W37897   8.758  42.413  11.125
65572W        W37898  29.632  38.509   0.437
65573W        W37899  37.391  29.458   1.337
65574W        W37900   8.257  26.461   0.454
65575W        W37901  26.537  11.750  11.969
65576W        W37902   6.212  11.197   4.207
65577W        W37903   6.225  12.852  10.530
65578W        W37904  36.355   0.819   1.434
65579W        W37905  13.230  18.583  10.462
65580W        W37906  16.782   7.850  11.975
65581W        W37907   4.733  43.351  13.888
65582W        W37908  24.663   3.223   3.280
65583W        W37909   2.751   1.404   4.641
65584W        W37910   9.750  41.972  10.903
65585W        W37911  31.040  11.648   5.290
65586W        W37912  32.985  18.153   3.342
65587W        W37913  26.582  18.247  10.441
65588W        W37914  35.538  31.445  11.856
65589W        W37915  25.982  18.765  13.016
65590W        W37916  18.568  40.029  10.607
65591W        W37917  44.910  39.835   2.401
65592W        W37918  43.430  11.311   1.859
65593W        W37919   9.151  42.503   2.217
65594W        W37920  42.314  18.557   1.931
65595W        W37921   5.259  27.991  14.024
65596W        W37922   1.754  19.566   2.234
65597W        W37923   2.287   6.703  13.405
65598W        W37924  42.377  20.738  13.330
65599W        W37925  20.145  13.347   0.348
65600W        W37926  14.121  10.246  14.420
65601W        W37927   7.861  27.465   2.743
65602W        W37928  24.609  25.613   2.371
65603W        W37929  11.192  23.058   0.862
65604W        W37930   9.775   9.788   2.265
65605W        W37931  14.104  44.461  13.800
65606W        W37932  24.141   0.807   5.285
65607W        W37933  36.036  11.148   4.806
65608W        W37934  28.111   0.880   3.244
65609W        W37935  35.579   4.315  12.008
65610W        W37936  38.024  29.437   2.319
65611W        W37937  25.710  42.449   1.847
65612W        W37938  14.135   8.172  11.905
65613W        W37939  23.107  42.434  13.876
65614W        W37940  12.355   5.804   4.722
65615W        W37941  42.946  21.063   2.213
65616W        W37942  28.163  28.140  13.991
65617W        W37943   0.325   5.335   2.741
65618W        W37944  17.715  25.569   0.355
65619W        W37945  34.422  19.070  12.580
65620W        W37946  18.610  22.692  10.027
65621W        W37947  22.745  28.678  14.434
65622W        W37948   6.242  20.238   4.782
65623W        W37949  43.873  26.533   0.467
65624W        W37950  36.545  42.467   0.424
65625W        W37951  35.954  38.941  12.017
65626W        W37952  29.950  40.814   0.732
65627W        W37953   8.215   0.953   4.187
65628W        W37954  10.185   4.236   2.281
65629W        W37955  27.053   0.318  13.450
65630W        W37956  32.419  13.756   3.321
65631W        W37957   8.877   6.764  13.396
65632W        W37958   7.260  30.609   3.689
65633W        W37959  10.193  13.302  14.025
65634W        W37960   2.830  12.183   3.809
65635W        W37961  20.197  25.604   3.371
65636W        W37962   6.743  21.251   2.236
65637W        W37963  13.632  22.179  11.855
65638W        W37964  27.060  19.082  10.467
65639W        W37965   2.783  14.240   4.252
65640W        W37966  38.363  41.877  11.959
65641W        W37967  38.842   8.741   3.812
65642W        W37968  21.224  23.637  14.472
65643W        W37969   7.874  25.012  11.931
65644W        W37970  37.567  20.569   0.896
65645W        W37971  15.784   5.910  10.608
65646W        W37972  34.047   1.746   2.194
65647W        W37973   3.853  28.051   2.389
65648W        W37974   1.335  18.215  12.577
65649W        W37975  21.039  16.105   4.678
65650W        W37976  28.022  38.848   2.832
65651W        W37977  27.448  43.447   1.889
65652W        W37978  23.042  32.038  12.901
65653W        W37979   1.381  18.775  14.949
65654W        W37980  25.551  40.463  11.443
65655W        W37981  14.662  35.015   0.751
65656W        W37982  42.459  17.761  14.896
65657W        W37983  17.120  26.684   2.227
65658W        W37984  20.542  23.533   2.188
65659W        W37985   1.447  35.510  12.384
65660W        W37986  21.150  43.987   2.848
65661W        W37987  43.317  14.607  12.061
65662W        W37988   6.906  27.532   4.702
65663W        W37989  21.225  31.037   1.761
65664W        W37990  15.154  28.941  10.535
65665W        W37991  15.253  41.998   2.808
65666W        W37992   1.857  35.893  10.506
65667W        W37993  35.948  44.280   1.381
65668W        W37994  30.447  12.337  10.916
65669W        W37995  36.891  41.819   4.817
65670W        W37996  31.001  41.392   4.292
65671W        W37997  44.891  32.397  10.573
65672W        W37998  25.684  27.196  14.901
65673W        W37999  38.890   1.453   1.276
65674W        W38000  39.915  11.735  12.516
65675W        W38001  26.076  35.476  14.983
65676W        W38002   2.410  25.626  10.963
65677W        W38003  26.966  18.221  12.515
65678W        W38004  20.551  15.801   1.294
65679W        W38005  27.166  33.423   1.384
65680W        W38006   2.889   2.471   3.260
65681W        W38007  16.267  24.043  13.935
65682W        W38008  44.940  41.829  12.854
65683W        W38009  12.761  12.229   4.739
65684W        W38010  11.683  42.806  11.559
65685W        W38011   1.777   5.841  10.962
65686W        W38012   0.256   3.849   5.108
65687W        W38013  19.233   9.800  14.821
65688W        W38014   0.840  10.684  11.437
65689W        W38015   6.392  40.429   1.405
65690W        W38016  40.877   6.850  10.911
65691W        W38017  21.638  23.044  12.827
65692W        W38018  38.418  44.292  14.942
65693W        W38019  31.949  36.511   5.189
65694W        W38020  39.340  35.087  14.471
65695W        W38021  18.685  42.437  14.464
65696W        W38022  36.911   9.831  10.008
65697W        W38023  35.486   5.738  11.602
65698W        W38024  25.496   0.945  13.919
65699W        W38025  19.205  21.736   3.787
65700W        W38026   3.441  41.525  14.304
65701W        W38027  23.187  21.084  12.403
65702W        W38028  23.604  16.144  14.442
65703W        W38029  12.806  12.231   1.879
65704W        W38030   3.839  14.738  10.641
65705W        W38031  26.058  32.416   3.249
65706W        W38032   4.797  24.602   3.154
65707W        W38033  36.350  25.656  11.508
65708W        W38034  13.704  32.434   3.350
65709W        W38035  36.559  10.802   0.927
65710W        W38036  25.089   4.412  11.949
65711W        W38037   7.398   0.307   3.749
65712W        W38038  44.332  12.732   1.380
65713W        W38039  40.836  30.525   4.255
65714W        W38040  29.149   4.387  10.431
65715W        W38041  37.006  17.560  14.810
65716W        W38042   0.789  18.681  12.841
65717W        W38043   4.738  43.784   3.677
65718W        W38044  34.031   4.449  10.444
65719W        W38045  36.527  25.488   0.797
65720W        W38046   1.291  11.831  10.123
65721W        W38047   2.355  16.749   0.409
65722W        W38048  22.240  39.043  10.597
65723W        W38049  44.265   9.258   2.828
65724W        W38050   2.728  35.092  14.425
65725W        W38051  15.635  32.976  10.974
65726W        W38052  10.849  35.460   4.192
65727W        W38053   1.478  12.274   0.376
65728W        W38054  17.675  31.427   4.299
65729W        W38055  23.638  42.829   1.243
65730W        W38056  33.950  15.141  12.927
65731W        W38057  38.874  18.266  12.908
65732W        W38058  15.310   3.766   2.824
65733W        W38059  31.143  41.515  10.933
65734W        W38060  20.604  29.428  13.903
65735W        W38061  13.261  40.324  10.553
65736W        W38062  24.628  44.370  10.631
65737W        W38063  28.634  32.111  13.334
65738W        W38064  18.226  29.569   3.740
65739W        W38065   1.381  42.843   2.248
65740W        W38066  37.536  26.982  13.027
65741W        W38067  16.638  43.797   1.927
65742W        W38068  10.213  24.530   4.746
65743W        W38069  33.998  44.911   4.218
65744W        W38070   4.411   9.768   2.269
65745W        W38071  33.485   2.387   3.678
65746W        W38072  11.184  18.165  10.522
65747W        W38073  21.191   5.730  14.763
65748W        W38074  31.562  34.412   3.668
65749W        W38075   5.754   9.201   1.878
65750W        W38076  24.171  15.731   0.277
65751W        W38077  23.507  21.724   3.228
65752W        W38078  41.916   2.282  11.064
65753W        W38079  13.604  39.431  11.044
65754W        W38080  26.964   3.442  13.935
65755W        W38081  24.549  19.192   1.794
65756W        W38082  25.636  14.792   1.919
65757W        W38083   6.190  17.690  11.106
65758W        W38084  44.484  25.545  14.515
65759W        W38085  36.086  23.079  13.031
65760W        W38086   9.316  21.144   1.443
65761W        W38087  13.742  21.099  12.564
65762W        W38088  44.964  19.127  11.467
65763W        W38089  11.819  15.632  14.762
65764W        W38090  10.684  36.366  10.633
65765W        W38091  33.078  38.391  10.620
65766W        W38092   6.889   3.341  13.833
65767W        W38093  29.505  26.669   5.232
65768W        W38094  13.668  30.981  10.514
65769W        W38095  19.090   2.306  12.016
65770W        W38096   7.346  44.976   1.354
65771W        W38097  42.398  35.008  14.029
65772W        W38098  43.282  11.156   4.170
65773W        W38099   0.807   2.799  10.621
65774W        W38100  38.392  40.974  11.521
65775W        W38101  38.547  26.555   3.376
65776W        W38102   6.916  23.569  12.508
65777W        W38103   5.212   9.687  11.409
65778W        W38104   2.378  43.458  14.862
65779W        W38105  12.741  32.140  14.381
65780W        W38106  28.143   5.328  13.329
65781W        W38107   2.463  33.946  12.377
65782W        W38108  32.515  16.787  12.094
65783W        W38109  43.512  22.511  13.999
65784W        W38110  33.883  23.082  14.801
65785W        W38111  30.504  26.528  11.562
65786W        W38112   2.818  11.177  12.493
65787W        W38113  33.878  28.141   0.290
65788W        W38114  19.761  43.418  14.867
65789W        W38115   2.871  28.652  12.024
65790W        W38116  41.416  39.405  12.076
65791W        W38117  25.023  44.985  10.976
65792W        W38118  38.486  16.236  14.377
65793W        W38119  10.762  31.427   4.667
65794W        W38120  32.002  10.182  13.537
65795W        W38121   2.306  26.203  13.811
65796W        W38122  16.231  25.052  11.866
65797W        W38123  12.675  44.289   3.337
65798W        W38124  12.831  34.396  11.886
65799W        W38125  34.102  42.810   1.390
65800W        W38126  11.766   8.696   0.418
65801W        W38127   7.288  32.961   2.682
65802W        W38128   7.416  38.523  11.998
65803W        W38129  24.179  23.106   1.386
65804W        W38130  15.659   6.208  11.506
65805W        W38131  38.049  41.293  14.324
65806W        W38132  11.763  24.168   4.121
65807W        W38133  32.402  37.390  10.506
65808W        W38134  42.329  27.561   1.239
65809W        W38135  24.035  28.644  13.825
65810W        W38136   3.311  33.621   4.776
65811W        W38137  32.025  11.332   2.815
65812W        W38138  19.631  43.945  11.027
65813W        W38139  13.740  10.157  11.458
65814W        W38140   5.422  21.620   2.766
65815W        W38141  38.423  42.994  13.822
65816W        W38142   2.955  23.174   2.394
65817W        W38143  21.549  29.457  14.937
65818W        W38144   3.709  29.667  10.629
65819W        W38145  43.873  42.438  11.531
65820W        W38146  22.033  14.725  10.644
65821W        W38147  26.603  20.044   1.352
65822W        W38148  16.684  12.695  10.474
65823W        W38149  24.521  43.979  10.994
65824W        W38150  29.976  18.272  13.338
65825W        W38151  10.689  28.643   3.668
65826W        W38152  41.311  20.049   1.851
65827W        W38153   1.438  36.532   2.844
65828W        W38154  14.599  36.019   1.865
65829W        W38155  39.436   3.235   3.710
65830W        W38156   3.272  10.685  13.898
65831W        W38157  18.666  25.498  14.939
65832W        W38158  22.016  21.564  14.490
65833W        W38159  24.133  28.942  12.535
65834W        W38160   2.341   6.204   5.221
65835W        W38161   4.732   2.292   4.214
65836W        W38162   3.882  43.812  13.061
65837W        W38163  42.933  13.842  11.601
65838W        W38164  11.220  37.033   4.798
65839W        W38165  11.275  25.129  12.926
65840W        W38166  34.966  37.569  11.114
65841W        W38167  13.290  30.534   2.257
65842W        W38168  12.776  12.674  12.061
65843W        W38169   5.775  34.113  13.791
65844W        W38170  23.036  19.694   4.234
65845W        W38171  29.975  19.280   4.209
65846W        W38172  35.446   7.879  10.963
65847W        W38173  40.368  21.176   2.368
65848W        W38174  40.983  11.157  12.920
65849W        W38175  22.692  31.627  14.451
65850W        W38176  17.126  14.170   1.251
65851W        W38177  44.275  17.690  11.899
65852W        W38178  40.834  42.958  10.601
65853W        W38179  38.052  15.684  10.404
65854W        W38180   8.400   7.277   0.281
65855W        W38181  34.394  23.136   4.740
65856W        W38182  29.513  30.529  11.006
65857W        W38183  19.559  33.962   4.600
65858W        W38184  31.067  44.988  13.349
65859W        W38185  37.534   3.460   5.154
65860W        W38186  27.082  24.010   1.766
65861W        W38187  10.351   9.276   0.906
65862W        W38188  31.928  33.448   0.481
65863W        W38189  26.100  15.672   3.334
65864W        W38190  37.997  41.953  14.430
65865W        W38191  36.042   7.901   2.802
65866W        W38192   3.408  32.484   4.321
65867W        W38193   4.306   4.387   2.845
65868W        W38194  22.672  41.951  10.623
65869W        W38195   4.423  42.904   4.218
65870W        W38196  44.929   1.858   3.817
65871W        W38197  16.216  26.617  14.906
65872W        W38198  33.080  39.464   0.261
65873W        W38199  42.453  32.584  11.464
65874W        W38200  28.052  13.149   1.415
65875W        W38201  23.625  31.947  14.282
65876W        W38202  37.013  39.016  13.915
65877W        W38203  39.468   4.864  14.338
65878W        W38204   6.243  19.535  13.364
65879W        W38205  20.636   9.288  12.979
65880W        W38206  14.598  22.019   1.863
65881W        W38207  42.879  39.391  11.930
65882W        W38208  35.044  22.091  11.501
65883W        W38209  35.508  17.128   0.350
65884W        W38210  43.973  16.179   4.329
65885W        W38211  42.829  12.309   4.215
65886W        W38212  28.118   1.405   0.417
65887W        W38213  11.226  24.497  10.049
65888W        W38214  15.098   4.348  12.873
65889W        W38215  27.152  44.967   1.230
65890W        W38216  21.038  27.944   2.853
65891W        W38217  25.968  19.067  12.523
65892W        W38218  24.167  16.139  10.552
65893W        W38219  43.359   8.206  11.021
65894W        W38220  29.004  10.799  12.047
65895W        W38221  13.237  40.952   4.310
65896W        W38222  37.937  12.681  13.361
65897W        W38223  15.087  12.151   1.900
65898W        W38224  13.312  31.933   0.962
65899W        W38225   9.218  41.398  10.058
65900W        W38226  23.514   6.763  12.041
65901W        W38227  16.272   6.217  14.326
65902W        W38228   6.838  40.369  13.361
65903W        W38229   7.743  18.736  13.916
65904W        W38230  32.550  22.578   0.394
65905W        W38231  37.054  36.938  10.567
65906W        W38232  21.672  32.636   0.474
65907W        W38233  35.909  37.858   3.198
65908W        W38234  42.864  30.088  10.406
65909W        W38235  33.001  34.901   0.812
65910W        W38236  35.540  25.214  11.564
65911W        W38237   4.417  14.790   3.664
65912W        W38238  43.397  18.150  13.911
65913W        W38239  39.528  18.078  12.554
65914W        W38240   4.854   2.805   2.701
65915W        W38241  12.279   3.710  12.537
65916W        W38242   1.461  38.399   0.875
65917W        W38243  19.575   9.209  13.911
65918W        W38244  25.198  12.720   4.652
65919W        W38245   1.825  22.076  10.594
65920W        W38246  36.356  40.840   4.352
65921W        W38247  18.747  20.702   2.300
65922W        W38248  27.189  34.517  12.493
65923W        W38249  31.443  29.598   3.774
65924W        W38250   5.875  22.738   1.291
65925W        W38251  29.086  16.161   2.863
65926W        W38252  14.779  12.229  11.915
65927W        W38253  12.735  10.274  14.394
65928W        W38254   7.400   9.848  11.891
65929W        W38255  41.848  34.060   0.359
65930W        W38256  25.518  20.556  12.035
65931W        W38257  21.035  30.468   3.813
65932W        W38258  14.180  14.278  13.453
65933W        W38259   4.217   7.765  13.514
65934W        W38260  38.355  30.910   0.812
65935W        W38261  17.721  12.167  12.033
65936W        W38262  30.937  16.124   1.229
65937W        W38263   6.377  40.871   3.856
65938W        W38264  41.316   7.859  13.867
65939W        W38265  32.570  41.319   1.247
65940W        W38266  39.890  26.051  12.465
65941W        W38267  29.482   3.746  11.439
65942W        W38268  44.341  18.057  14.810
65943W        W38269  41.494  31.000   2.880
65944W        W38270   5.410   2.805  11.981
65945W        W38271  20.525  16.127   4.282
65946W        W38272   5.864  30.107  11.612
65947W        W38273   4.699  28.000   2.277
65948W        W38274  38.351  37.008   4.660
65949W        W38275  34.528  29.927   3.258
65950W        W38276   1.260  16.152  11.492
65951W        W38277  20.087  35.505   3.250
65952W        W38278  40.804  23.992   1.857
65953W        W38279  17.076  38.409   4.837
65954W        W38280  20.724  25.183   4.784
65955W        W38281  17.698  28.059  10.460
65956W        W38282  40.023  39.517  14.876
65957W        W38283  26.015   0.838   3.169
65958W        W38284  20.239   0.320  13.981
65959W        W38285  16.790  11.774  14.798
65960W        W38286  13.108  29.578   0.414
65961W        W38287   7.887  31.139   2.255
65962W        W38288  14.738  44.874  14.787
65963W        W38289   5.420  13.174  14.393
65964W        W38290  42.400  29.618  14.889
65965W        W38291  19.269   2.943   4.744
65966W        W38292  32.055  29.604  14.422
65967W        W38293   3.739  25.624  13.473
65968W        W38294  23.654  35.994   4.637
65969W        W38295  22.644   4.322   3.329
65970W        W38296  26.700  12.706  11.384
65971W        W38297   9.823  13.618  12.495
65972W        W38298  22.573  37.573  12.874
65973W        W38299  38.065   5.429   0.374
65974W        W38300  27.555   0.960  11.441
65975W        W38301  38.554   7.870   4.298
65976W        W38302  23.216  15.580   5.679
65977W        W38303   3.458  26.080   0.422
65978W        W38304  40.835  18.595  13.861
65979W        W38305  44.285  25.600  13.998
65980W        W38306  12.755  12.135   3.206
65981W        W38307  11.706  23.652   0.864
65982W        W38308   2.813   8.258   0.335
65983W        W38309  32.129  34.424  11.496
65984W        W38310   5.795  31.622   0.357
65985W        W38311  19.126  36.488   0.398
65986W        W38312  23.566   5.399   4.121
65987W        W38313  30.967  15.617   1.373
65988W        W38314  26.608   8.206  11.482
65989W        W38315   3.347  30.023  14.493
65990W        W38316  22.181  22.705   4.343
65991W        W38317  26.105  16.807   4.219
65992W        W38318   3.844  44.857   0.903
65993W        W38319  24.484  35.017  12.971
65994W        W38320  32.446  23.100   1.858
65995W        W38321  11.771  13.765  12.501
65996W        W38322  40.002  15.616   4.208
65997W        W38323  29.962  20.703  14.870
65998W        W38324  34.071   7.319   2.406
65999W        W38325   7.752  37.335  14.971
66000W        W38326  31.990  27.676   2.354
66001W        W38327  12.673  16.573   1.737
66002W        W38328  21.125  24.166  10.943
66003W        W38329  34.916  12.141   3.802
66004W        W38330  42.860  40.873   1.844
66005W        W38331  44.917  40.820  13.820
66006W        W38332  18.216  27.003   0.361
66007W        W38333  19.093  10.303  14.501
66008W        W38334  14.315  39.843   1.413
66009W        W38335  36.531  13.773  14.363
66010W        W38336  38.503  12.235  11.580
66011W        W38337  43.895  11.703  14.467
66012W        W38338  25.015  27.682   2.701
66013W        W38339   6.838  21.616  14.388
66014W        W38340   6.688   3.448   0.453
66015W        W38341  41.410  10.234  12.358
66016W        W38342  40.438  28.103  10.093
66017W        W38343  30.135  38.904   4.215
66018W        W38344  30.499  11.830   2.287
66019W        W38345  13.337  10.309   1.770
66020W        W38346  26.030  24.088   4.245
66021W        W38347   8.181  21.532  13.505
66022W        W38348  13.240  39.904  14.029
66023W        W38349  11.358   7.880  11.533
66024W        W38350  26.080  32.498   2.355
66025W        W38351  43.886  39.042  12.824
66026W        W38352  15.189   0.430   0.933
66027W        W38353  33.052  27.020   3.636
66028W        W38354  21.018  38.475   9.452
66029W        W38355  17.271  26.621   5.275
66030W        W38356  10.235  34.501   1.443
66031W        W38357  32.489  17.087   0.462
66032W        W38358  13.600  39.480   0.443
66033W        W38359  17.213  23.158   1.232
66034W        W38360  27.116  18.719   2.699
66035W        W38361  28.664  17.646  11.058
66036W        W38362  28.486  40.035  14.302
66037W        W38363  38.002   2.872   3.848
66038W        W38364  37.502   6.226  14.501
66039W        W38365  20.030   2.375   3.148
66040W        W38366   4.420  41.461   2.831
66041W        W38367  23.649  10.146   4.306
66042W        W38368  34.073  37.426  13.382
66043W        W38369   4.336   3.269   1.378
66044W        W38370  42.907   2.947   0.464
66045W        W38371  34.586  36.436   5.600
66046W        W38372   4.883  41.446   3.337
66047W        W38373  11.852  22.143   3.251
66048W        W38374   1.738  19.271  14.927
66049W        W38375   2.895  43.423  14.434
66050W        W38376  37.963   1.251  12.478
66051W        W38377  19.171  15.823  11.541
66052W        W38378  31.077  25.106   2.208
66053W        W38379  31.482  21.532   4.161
66054W        W38380  31.492  39.046   4.681
66055W        W38381  30.633  16.096   0.363
66056W        W38382  32.906  12.849  14.004
66057W        W38383  42.415  23.193   3.835
66058W        W38384  18.060  14.196   1.271
66059W        W38385  17.599  26.686  13.989
66060W        W38386   2.958   4.795   0.258
66061W        W38387   3.290  17.160  13.520
66062W        W38388   1.745  28.118   4.324
66063W        W38389  10.668  11.857   0.863
66064W        W38390  40.830  37.348  10.896
66065W        W38391  36.097  12.138   5.806
66066W        W38392   4.253  12.300  12.069
66067W        W38393  38.875  20.028   4.612
66068W        W38394  42.326  25.207  13.359
66069W        W38395  27.153  30.414   9.965
66070W        W38396  30.095  14.758   4.830
66071W        W38397   5.252  26.502   4.334
66072W        W38398  32.509  33.596  13.891
66073W        W38399  32.598   7.406  13.976
66074W        W38400   1.336  28.525  10.582
66075W        W38401  40.866  24.113  13.486
66076W        W38402   4.724  15.802  12.932
66077W        W38403   8.659  20.545  11.890
66078W        W38404  36.924  39.813  14.511
66079W        W38405  42.374   2.256   0.835
66080W        W38406   8.858  33.418  11.906
66081W        W38407  20.598  29.462  14.887
66082W        W38408  29.109  18.249   4.264
66083W        W38409  23.039  31.476   4.795
66084W        W38410  33.597  38.041  12.053
66085W        W38411  35.410  18.120   3.161
66086W        W38412  36.492  33.599   2.816
66087W        W38413   7.804  21.060   3.297
66088W        W38414  19.772  10.727   4.269
66089W        W38415  24.093   1.870  12.881
66090W        W38416  20.139  39.031  14.973
66091W        W38417  30.612  33.991  11.420
66092W        W38418  24.195  39.927  12.426
66093W        W38419  25.972  18.081   3.864
66094W        W38420  31.135  13.161  12.922
66095W        W38421  10.639   0.337  14.350
66096W        W38422  18.093   2.810   0.264
66097W        W38423  14.802  12.142   1.345
66098W        W38424  11.216  15.149   0.815
66099W        W38425  14.664   9.297   1.931
66100W        W38426  35.996  20.242   2.247
66101W        W38427   9.688  33.412  12.024
66102W        W38428  19.719  41.918  13.954
66103W        W38429  22.728   4.768   1.390
66104W        W38430  30.964  33.070  11.048
66105W        W38431  33.574  24.091   0.798
66106W        W38432  39.840  32.636  12.054
66107W        W38433  15.295  14.622  11.551
66108W        W38434   0.941  41.469  13.417
66109W        W38435  30.999  31.417  14.969
66110W        W38436  28.142  34.106   1.904
66111W        W38437  38.901  30.658  13.393
66112W        W38438  42.027  22.712   1.270
66113W        W38439  12.823  38.384  10.579
66114W        W38440  27.534  35.449   4.652
66115W        W38441  28.068  30.561   3.283
66116W        W38442  34.387  36.579   9.510
66117W        W38443  11.247  40.818  14.869
66118W        W38444   6.186  27.528   1.806
66119W        W38445  42.006  33.991   1.249
66120W        W38446  11.177  41.351  13.502
66121W        W38447  28.489  31.098  13.537
66122W        W38448  22.690   6.730   1.217
66123W        W38449  27.565  12.230   3.216
66124W        W38450  36.437  13.784  14.032
66125W        W38451  16.691  13.728   3.273
66126W        W38452   4.822  17.706   0.763
66127W        W38453  19.702  12.704  13.923
66128W        W38454  24.174  24.576  13.870
66129W        W38455  29.939  40.479   2.887
66130W        W38456  39.863  28.639  10.527
66131W        W38457  28.993   5.829  13.506
66132W        W38458   8.744   6.220   4.704
66133W        W38459  23.065  24.577  13.891
66134W        W38460   5.890  42.998  12.392
66135W        W38461   1.357  12.167  12.908
66136W        W38462  23.205  23.579   3.823
66137W        W38463  19.153  21.568  12.539
66138W        W38464  41.431  12.350   3.857
66139W        W38465  34.543  37.903   4.169
66140W        W38466  32.910  40.911   0.258
66141W        W38467   7.318  21.226  11.018
66142W        W38468  29.139  35.987  10.529
66143W        W38469   6.192   8.236   0.256
66144W        W38470  19.272  16.083   3.658
66145W        W38471   5.857  28.635   2.367
66146W        W38472   4.916  23.070   0.931
66147W        W38473  18.136  25.524   2.821
66148W        W38474  33.476   4.852   1.837
66149W        W38475  30.553  20.120   1.732
66150W        W38476  24.667  18.190   4.256
66151W        W38477  33.387  35.103   3.215
66152W        W38478  10.233  20.608   2.680
66153W        W38479  25.529   1.883   0.912
66154W        W38480  12.164  26.968   0.311
66155W        W38481  12.361  12.146  14.020
66156W        W38482   5.313  16.758  12.561
66157W        W38483  19.095   1.435  11.415
66158W        W38484  44.456  40.868  14.407
66159W        W38485   3.887  34.000   3.289
66160W        W38486  19.768  29.071   1.213
66161W        W38487  39.012  36.043  14.421
66162W        W38488  41.449   4.738   0.329
66163W        W38489   3.368  24.201  11.068
66164W        W38490  40.816  21.060   1.845
66165W        W38491  10.334  33.563   1.819
66166W        W38492  11.255  26.163  14.896
66167W        W38493   2.373   5.224   2.704
66168W        W38494  10.667  17.079  10.121
66169W        W38495  42.998   1.279  11.566
66170W        W38496  21.617  15.205   4.789
66171W        W38497  30.609   6.719   4.354
66172W        W38498  32.046  40.320  11.973
66173W        W38499   7.687  22.658   3.741
66174W        W38500  16.085  18.552  10.494
66175W        W38501  20.173  18.142   1.886
66176W        W38502  35.916   2.305  11.019
66177W        W38503   5.365  17.283  14.954
66178W        W38504  42.932  42.003   4.288
66179W        W38505   7.375  36.549   1.397
66180W        W38506  37.381  31.433  10.435
66181W        W38507  34.526  11.236   4.124
66182W        W38508  44.808  16.596   3.694
66183W        W38509  38.885  15.296  10.565
66184W        W38510   0.403  39.558   4.600
66185W        W38511   6.355  41.819   2.844
66186W        W38512  25.655  30.603   2.735
66187W        W38513  27.549  44.981   2.707
66188W        W38514  15.701  44.949   4.248
66189W        W38515  25.475  18.093   3.682
66190W        W38516   6.262  11.372  12.390
66191W        W38517  36.037  41.904  12.072
66192W        W38518  30.029  13.240  11.401
66193W        W38519  14.196  34.486   1.862
66194W        W38520   8.809   5.202   2.308
66195W        W38521   2.896  25.190  11.582
66196W        W38522  35.951  31.138  11.948
66197W        W38523  29.429   3.329   3.253
66198W        W38524  13.146  28.087   1.250
66199W        W38525  33.023  40.465  11.931
66200W        W38526  37.412  36.051  13.339
66201W        W38527  14.688  43.773  11.927
66202W        W38528  36.432  14.750   1.705
66203W        W38529  25.992  29.019  14.885
66204W        W38530   2.365  10.827   3.859
66205W        W38531   0.453  10.857   9.970
66206W        W38532   8.380   2.365   2.179
66207W        W38533  37.554   6.789  14.817
66208W        W38534  17.234  25.019   2.311
66209W        W38535  10.733  21.656   0.733
66210W        W38536  35.446  33.540   1.273
66211W        W38537  19.054  42.883   1.715
66212W        W38538  15.723  25.566  11.531
66213W        W38539   4.805  11.756   1.300
66214W        W38540  28.042   2.777  11.542
66215W        W38541  24.584  27.511  14.804
66216W        W38542   7.298  18.682   1.323
66217W        W38543  31.633  42.360  11.603
66218W        W38544  31.108  23.560   2.354
66219W        W38545  37.480  35.368  11.409
66220W        W38546  23.166   5.891   1.423
66221W        W38547  27.968  17.613  14.928
66222W        W38548  31.984  29.055   1.378
66223W        W38549  42.362   2.867  13.370
66224W        W38550  30.534  26.049  13.356
66225W        W38551  16.647  41.035   1.839
66226W        W38552  23.702   0.784   3.769
66227W        W38553   2.881   7.220   4.817
66228W        W38554  15.725  43.947   2.675
66229W        W38555  17.062  22.101  14.918
66230W        W38556  44.443  42.307  11.071
66231W        W38557  14.118  42.989   1.892
66232W        W38558  15.172   4.427   2.728
66233W        W38559  24.148  15.651   3.796
66234W        W38560  20.274  23.717   4.652
66235W        W38561   6.683  43.975  14.358
66236W        W38562   8.313  19.614  14.294
66237W        W38563  33.512   1.936  11.415
66238W        W38564  32.003  12.793  12.500
66239W        W38565  17.216  23.179  13.382
66240W        W38566  26.456  31.552  14.878
66241W        W38567  11.286  22.569   2.773
66242W        W38568  13.206  27.987   5.221
66243W        W38569  17.670  20.090   2.831
66244W        W38570  41.016  33.953  13.479
66245W        W38571  31.633  21.641  14.429
66246W        W38572  40.325  39.416  10.918
66247W        W38573  36.852  20.086   1.241
66248W        W38574  42.977  19.535  12.368
66249W        W38575  31.509   2.827   4.611
66250W        W38576  37.399  21.092   4.257
66251W        W38577  40.975  41.811   3.662
66252W        W38578  12.192  40.989  13.311
66253W        W38579  18.125  31.959   0.907
66254W        W38580  14.251   5.779   1.406
66255W        W38581   5.228  32.487   2.257
66256W        W38582  11.302  12.674  13.480
66257W        W38583  35.474  17.642  11.917
66258W        W38584  26.128  31.082  11.579
66259W        W38585   9.185  24.014   0.405
66260W        W38586  32.037  24.178   3.844
66261W        W38587  20.611  42.326  12.049
66262W        W38588   5.380  34.456   4.281
66263W        W38589  43.384   5.293  14.917
66264W        W38590  31.412  28.183   4.115
66265W        W38591  36.950  31.087   0.811
66266W        W38592  23.139  44.418  13.033
66267W        W38593  29.063   3.725   2.290
66268W        W38594  14.315  24.540  14.842
66269W        W38595   2.747   0.820   4.762
66270W        W38596  34.069  16.584   2.349
66271W        W38597  17.180  37.421   2.204
66272W        W38598   2.341  23.219  12.430
66273W        W38599  40.330  42.780   5.214
66274W        W38600   6.376  23.631   4.666
66275W        W38601  38.038  13.672   1.842
66276W        W38602  12.813   8.847   4.646
66277W        W38603  16.610   0.276  11.041
66278W        W38604  34.873  14.165  11.935
66279W        W38605  19.187  32.058   3.842
66280W        W38606   0.850  12.319  10.518
66281W        W38607  12.799  17.779  11.973
66282W        W38608  41.799   6.255  13.909
66283W        W38609   8.164  34.543  13.937
66284W        W38610  17.069  28.540   0.439
66285W        W38611   9.820  29.136  12.359
66286W        W38612   7.275  23.038  14.322
66287W        W38613  23.199  21.100  11.977
66288W        W38614  18.213  19.629  13.400
66289W        W38615  19.202  27.152  11.516
66290W        W38616  29.105  33.094   0.470
66291W        W38617   4.410  27.579   0.944
66292W        W38618  41.925  22.539  14.907
66293W        W38619  23.730  42.937  10.912
66294W        W38620  31.565  17.703  14.461
66295W        W38621  12.127  20.037  13.018
66296W        W38622  26.495  37.072   4.349
66297W        W38623  41.934  41.846  10.481
66298W        W38624   6.806   7.791  10.620
66299W        W38625  26.979  35.558  12.500
66300W        W38626  43.483  22.184  11.982
66301W        W38627  17.067  12.653  12.831
66302W        W38628  35.943  40.487   2.196
66303W        W38629  21.595  12.315  14.420
66304W        W38630  24.208  31.942   2.252
66305W        W38631  24.715  18.072   2.864
66306W        W38632  31.445  17.786  11.955
66307W        W38633   8.869  18.778  10.431
66308W        W38634   6.296   2.737  11.097
66309W        W38635  36.411  43.805   0.960
66310W        W38636  12.851  26.992   2.198
66311W        W38637  41.818  19.077  10.982
66312W        W38638   1.242  39.973   1.707
66313W        W38639   4.254  25.557   1.341
66314W        W38640  36.005  10.831  12.925
66315W        W38641  17.278  41.331  14.781
66316W        W38642  36.517  36.964  12.380
66317W        W38643  28.554  13.294   4.705
66318W        W38644  33.570  25.169   5.179
66319W        W38645   8.311  43.360  10.632
66320W        W38646  20.551   9.704  12.528
66321W        W38647  22.179  39.891   2.868
66322W        W38648  25.091  29.498   0.805
66323W        W38649  44.402  27.119   9.944
66324W        W38650  20.679  32.925  10.607
66325W        W38651  19.264  28.041  12.888
66326W        W38652   9.777  25.967  14.925
66327W        W38653  25.684  31.626   1.271
66328W        W38654  34.025  34.920   3.663
66329W        W38655  38.009  18.286   1.719
66330W        W38656   2.958  22.129   4.639
66331W        W38657  41.998  22.249  10.934
66332W        W38658  33.578  37.481  12.850
66333W        W38659   4.383   2.888  12.884
66334W        W38660  12.177  42.891   4.765
66335W        W38661  15.109  34.451  12.417
66336W        W38662  16.127  32.015   1.395
66337W        W38663  16.756  32.408   3.164
66338W        W38664  12.681  38.046  11.536
66339W        W38665  43.504   7.723  10.943
66340W        W38666  16.596   4.802  14.384
66341W        W38667  13.761   3.379  13.846
66342W        W38668  36.875  29.627   1.257
66343W        W38669  38.989  11.759  10.456
66344W        W38670  32.581  32.069   3.834
66345W        W38671  34.029  32.489   0.272
66346W        W38672  23.685  35.495   4.837
66347W        W38673   5.277  32.041   0.806
66348W        W38674  29.107  14.648  13.336
66349W        W38675   5.863  20.558   0.417
66350W        W38676  41.533  21.555   4.779
66351W        W38677  16.734   9.288   2.818
66352W        W38678  25.597  15.276   1.909
66353W        W38679  18.760  43.955   1.747
66354W        W38680  13.173  38.833  12.404
66355W        W38681  17.723  32.020  14.901
66356W        W38682  16.684  41.041  11.572
66357W        W38683  12.788  42.441  10.553
66358W        W38684  27.971  36.513   4.118
66359W        W38685  30.096   3.274   4.682
66360W        W38686   5.752  33.384   1.809
66361W        W38687  44.438  15.154  14.998
66362W        W38688  31.937  26.675   9.984
66363W        W38689   6.357  44.763   2.713
66364W        W38690  41.990   6.306   5.127
66365W        W38691  21.714  41.385   1.407
66366W        W38692  15.693   3.233  11.974
66367W        W38693   1.952  30.981  11.485
66368W        W38694  10.338  33.454  10.453
66369W        W38695  30.916  28.440   0.415
66370W        W38696  33.078  30.105  13.501
66371W        W38697  34.398  22.013  14.855
66372W        W38698  43.955   9.350  13.434
66373W        W38699   4.718  24.018  13.432
66374W        W38700  31.404  25.517  14.858
66375W        W38701  35.477  15.698   1.228
66376W        W38702  32.635   8.375   3.328
66377W        W38703   6.213   6.710  14.936
66378W        W38704  20.111  11.765   4.157
66379W        W38705  39.005  25.108   4.647
66380W        W38706  19.545   1.941  13.411
66381W        W38707  15.810  11.215  12.885
66382W        W38708   8.737  24.516  11.977
66383W        W38709   2.917  24.990  12.000
66384W        W38710  23.584  34.893   2.295
66385W        W38711   6.873  14.775   3.164
66386W        W38712  12.642  21.113   3.169
66387W        W38713  23.712   7.200   0.940
66388W        W38714  36.057  34.933  14.000
66389W        W38715  40.988  26.956  13.333
66390W        W38716  32.959  43.327  12.910
66391W        W38717  38.516  20.229   3.724
66392W        W38718  28.948  40.986   2.818
66393W        W38719  16.684   6.829  14.963
66394W        W38720  42.842   3.906   2.804
66395W        W38721  22.117  13.677   4.711
66396W        W38722  28.488  16.250   1.283
66397W        W38723  15.128  13.340   2.197
66398W        W38724  10.752   0.491   0.352
66399W        W38725   5.761  41.011  12.453
66400W        W38726  19.177  16.727  11.104
66401W        W38727  22.544  15.162  14.869
66402W        W38728  15.325   4.251  14.325
66403W        W38729  43.431  32.935  11.584
66404W        W38730  26.203  11.209   2.374
66405W        W38731  28.605  11.241  11.509
66406W        W38732  20.722  43.861  12.399
66407W        W38733  30.914  26.621   4.305
66408W        W38734  36.024   6.261  10.542
66409W        W38735  25.632  27.621   4.832
66410W        W38736  31.506  10.274  12.459
66411W        W38737  10.328  26.955   2.386
66412W        W38738  17.121  37.472  14.327
66413W        W38739  11.638  16.174  12.995
66414W        W38740  22.046  31.033  10.539
66415W        W38741  38.417  16.773   1.826
66416W        W38742  34.938  27.486   3.230
66417W        W38743  30.957   7.813  12.071
66418W        W38744  36.501  39.933   4.273
66419W        W38745  27.188  14.109  14.882
66420W        W38746  35.943  22.738  12.041
66421W        W38747  29.582  29.169  10.520
66422W        W38748  38.397   2.356   0.406
66423W        W38749  36.563  11.246  11.484
66424W        W38750  32.961   5.340   4.767
66425W        W38751  24.078  43.367  11.607
66426W        W38752  36.558  22.593   0.250
66427W        W38753  13.168  33.533  10.968
66428W        W38754   5.757  28.585   4.224
66429W        W38755  10.285  34.605   3.688
66430W        W38756  24.981  15.616  12.363
66431W        W38757  27.544  24.517   0.275
66432W        W38758  17.168  29.581   0.312
66433W        W38759  26.627  14.148  12.466
66434W        W38760  41.378  34.557  10.901
66435W        W38761  18.716  20.212  12.910
66436W        W38762  21.567  42.875  13.347
66437W        W38763  14.273  15.658  11.397
66438W        W38764  21.160   2.413  10.516
66439W        W38765  21.247  15.701  10.003
66440W        W38766  20.540  15.216  14.019
66441W        W38767  33.409  39.033   2.730
66442W        W38768  12.706  14.741  11.372
66443W        W38769  12.710  30.120   2.722
66444W        W38770   7.375  21.197  11.916
66445W        W38771  36.039  29.597  10.615
66446W        W38772  10.839  26.202   5.642
66447W        W38773  14.290   7.874  14.455
66448W        W38774   2.441  42.497   4.213
66449W        W38775  15.631  39.328   4.249
66450W        W38776   0.766  29.001   4.176
66451W        W38777  28.536  37.373   4.127
66452W        W38778  44.924  36.352  13.469
66453W        W38779  24.686  19.732  10.436
66454W        W38780  17.638  37.579   3.168
66455W        W38781  18.656  40.462   0.246
66456W        W38782  10.825   2.868   4.272
66457W        W38783  25.992  11.221  14.349
66458W        W38784  37.922  19.053  12.884
66459W        W38785  24.995  31.934  10.464
66460W        W38786  14.326  14.241  14.949
66461W        W38787  13.195  40.979   4.639
66462W        W38788  13.278   4.243  14.946
66463W        W38789  36.469  41.317  10.036
66464W        W38790  33.082  16.083  14.354
66465W        W38791   8.833  20.662   1.275
66466W        W38792   2.947  38.354   1.313
66467W        W38793  28.506  19.224   0.874
66468W        W38794  32.441  26.527   1.914
66469W        W38795  31.141  25.064  11.523
66470W        W38796  11.246  12.144  12.008
66471W        W38797   9.835  25.058   2.346
66472W        W38798  36.385   1.252   3.863
66473W        W38799  20.140  22.086  14.759
66474W        W38800   8.829   5.303   4.777
66475W        W38801  39.877  41.437   4.732
66476W        W38802  35.379  27.448   0.742
66477W        W38803  33.431  13.331  11.070
66478W        W38804  27.566  25.579   1.771
66479W        W38805  27.098  17.177  14.394
66480W        W38806  15.255  37.470  13.819
66481W        W38807  24.152   9.197   1.800
66482W        W38808  39.830   6.690  14.334
66483W        W38809  38.902  25.068   3.365
66484W        W38810  39.865  21.712   2.285
66485W        W38811  17.562  29.137   4.719
66486W        W38812   7.294  22.629   3.362
66487W        W38813   5.772  27.048   0.281
66488W        W38814  31.916  15.305   2.838
66489W        W38815  12.810  37.439  11.113
66490W        W38816  14.659  24.562  14.869
66491W        W38817  10.189  29.036  13.986
66492W        W38818  22.583  39.994  13.328
66493W        W38819  25.042  44.472  13.033
66494W        W38820  39.899  13.198   2.746
66495W        W38821  29.477   9.691  14.489
66496W        W38822  36.991  30.159  13.443
66497W        W38823  32.410   9.848   4.188
66498W        W38824  11.143   5.194  13.493
66499W        W38825   6.827  29.966  11.401
66500W        W38826  35.095   9.676   4.660
66501W        W38827  39.395  35.045  11.009
66502W        W38828   2.283   2.425  13.512
66503W        W38829  10.863  23.001  11.591
66504W        W38830  27.578   8.303   1.317
66505W        W38831  32.454  11.231   0.408
66506W        W38832  32.613  13.160  12.052
66507W        W38833  43.489  24.537   1.753
66508W        W38834  18.657  35.939   3.701
66509W        W38835  28.088   6.228   1.773
66510W        W38836  30.923  35.435   1.341
66511W        W38837   4.743  30.982   1.873
66512W        W38838  44.499   4.739   2.816
66513W        W38839  13.639  21.678   1.772
66514W        W38840  30.051  19.590   3.345
66515W        W38841  37.458  41.852   0.739
66516W        W38842  11.731   9.364   4.609
66517W        W38843  18.610   3.934  10.919
66518W        W38844   2.264  19.776   4.292
66519W        W38845  10.197  27.960   4.598
66520W        W38846   5.263   7.833   1.703
66521W        W38847  12.808  23.707  12.344
66522W        W38848  36.549  12.223   2.190
66523W        W38849  27.972  29.944  10.415
66524W        W38850  21.736   3.303   1.744
66525W        W38851  38.017   8.741  11.127
66526W        W38852  12.122  31.539  14.437
66527W        W38853  37.476   2.360   0.260
66528W        W38854   1.322  33.040  11.481
66529W        W38855  29.958  43.430   1.441
66530W        W38856  28.036   8.708  12.918
66531W        W38857   6.798  26.562  11.069
66532W        W38858  25.714  12.133   4.132
66533W        W38859   5.384  31.949  10.000
66534W        W38860  33.979   4.699  13.432
66535W        W38861  37.008  41.842  11.000
66536W        W38862  13.817   6.890  10.495
66537W        W38863   1.850   1.802   9.963
66538W        W38864  21.607   9.733   2.207
66539W        W38865  35.489   6.345  14.505
66540W        W38866  23.197  13.205  12.993
66541W        W38867  36.041  42.030   1.926
66542W        W38868  18.774  21.591  11.582
66543W        W38869   0.382  11.189  11.053
66544W        W38870  26.137  29.431   0.916
66545W        W38871  36.535  44.320  11.548
66546W        W38872  30.004  21.240   2.693
66547W        W38873  19.591  26.654  10.994
66548W        W38874  30.498  16.136  11.479
66549W        W38875  29.482  17.629  11.856
66550W        W38876  29.626   1.292   4.820
66551W        W38877  14.835   0.835  12.928
66552W        W38878  36.044  14.192  13.462
66553W        W38879  27.175  16.194   4.300
66554W        W38880   7.713  31.957   4.336
66555W        W38881  44.311  33.595  12.344
66556W        W38882   5.885   2.248  13.368
66557W        W38883  19.084  37.882  14.467
66558W        W38884  21.700  15.821   4.286
66559W        W38885  33.064   7.826  11.025
66560W        W38886   2.261  20.696  12.418
66561W        W38887  36.993  23.609  11.098
66562W        W38888  32.398  36.016   4.818
66563W        W38889  43.305  13.185   3.222
66564W        W38890  39.812  18.173  12.447
66565W        W38891  25.688   5.336   1.434
66566W        W38892  41.043  37.568   3.301
66567W        W38893  35.575  26.980   0.430
66568W        W38894  25.986  21.114   0.457
66569W        W38895  13.126  12.287  12.079
66570W        W38896  13.722  37.025   2.383
66571W        W38897  13.799   5.802  12.382
66572W        W38898  24.007  28.969  13.958
66573W        W38899   4.880  24.580  13.436
66574W        W38900   0.805   0.888   3.786
66575W        W38901  28.023  39.427  13.814
66576W        W38902  22.610   5.841   2.405
66577W        W38903   8.776  23.604   2.300
66578W        W38904  11.142  19.755  11.920
66579W        W38905   8.691   0.957  12.823
66580W        W38906  31.038   6.184  13.331
66581W        W38907  16.620  36.852  14.367
66582W        W38908  27.184  32.907   0.888
66583W        W38909  15.105  29.589   3.170
66584W        W38910  30.972  10.758   4.646
66585W        W38911  19.696  25.552  11.019
66586W        W38912   6.294  34.898   0.849
66587W        W38913   7.710  19.546   3.316
66588W        W38914  41.484  20.204   2.218
66589W        W38915  10.657   2.410   4.304
66590W        W38916  14.625  33.493   2.753
66591W        W38917  42.938  35.946  13.396
66592W        W38918  19.779  20.550   3.218
66593W        W38919  41.996  17.202  12.976
66594W        W38920  25.987  37.912   0.421
66595W        W38921  42.993  12.764   2.687
66596W        W38922  29.960   3.832  14.506
66597W        W38923   8.329   4.878   1.433
66598W        W38924  18.108   4.729  14.022
66599W        W38925  43.476   1.762   1.409
66600W        W38926  37.428   0.366   3.719
66601W        W38927  39.024  26.130   4.761
66602W        W38928  33.017  13.656   3.783
66603W        W38929  39.396  26.036  11.513
66604W        W38930  34.598  38.848  11.114
66605W        W38931  36.075  32.413  10.973
66606W        W38932  18.638   1.790  14.908
66607W        W38933  27.591  25.965   1.271
66608W        W38934   7.846   0.475   2.266
66609W        W38935  16.785  11.855  11.902
66610W        W38936   9.702  16.785   0.888
66611W        W38937  15.703   2.900  13.948
66612W        W38938   8.881  30.473   2.394
66613W        W38939  16.755  42.778   1.407
66614W        W38940   8.775  23.131  14.826
66615W        W38941  23.573  17.574   0.877
66616W        W38942  13.665  16.763  11.953
66617W        W38943  34.906  10.730  12.484
66618W        W38944  21.256  21.608  11.611
66619W        W38945   1.741  34.115   3.708
66620W        W38946   3.346  40.048  10.978
66621W        W38947  23.600   4.903   1.849
66622W        W38948  22.095   9.324  11.093
66623W        W38949  16.237  29.925   1.877
66624W        W38950   4.324  22.021  13.337
66625W        W38951  28.614  43.984  12.503
66626W        W38952  21.107   2.442   0.451
66627W        W38953  11.813  17.204  11.026
66628W        W38954  40.511  33.053  12.344
66629W        W38955  13.790  38.498   2.685
66630W        W38956  28.179  36.394   3.798
66631W        W38957  39.000  15.635  14.380
66632W        W38958  21.055  12.224   4.179
66633W        W38959  35.523   7.852   1.274
66634W        W38960  34.461   3.775  13.996
66635W        W38961   7.335   6.248  12.427
66636W        W38962  37.336   3.882   0.946
66637W        W38963  14.743  11.218  13.421
66638W        W38964   5.726  24.058   4.809
66639W        W38965  24.006  34.600   3.279
66640W        W38966  32.076  19.261   1.315
66641W        W38967  17.673  20.748  13.023
66642W        W38968  28.000   1.303  13.819
66643W        W38969   1.301  40.413   3.325
66644W        W38970   8.791  14.754   1.440
66645W        W38971  32.538  15.600   0.337
66646W        W38972   9.305  11.240   4.282
66647W        W38973  14.768   3.911   0.346
66648W        W38974  40.977   6.754   1.387
66649W        W38975   6.760  33.498  11.102
66650W        W38976  23.099  20.238  11.087
66651W        W38977  25.656   8.720  11.944
66652W        W38978  13.622  32.466  14.902
66653W        W38979  21.110  16.761   2.887
66654W        W38980  25.094  16.129  14.382
66655W        W38981  32.407   4.229  14.359
66656W        W38982   6.814  35.899  11.081
66657W        W38983   6.799  10.748   0.324
66658W        W38984  19.254  24.165  11.114
66659W        W38985   0.456  18.586  10.521
66660W        W38986  15.624  27.969   1.378
66661W        W38987   3.361   8.386  14.878
66662W        W38988  14.177  34.965   4.721
66663W        W38989  43.765  28.507  14.868
66664W        W38990   3.453  19.686  11.549
66665W        W38991   7.732  24.001  13.042
66666W        W38992  37.494   9.759   3.727
66667W        W38993  31.513  11.809  12.058
66668W        W38994   2.776  42.494   2.247
66669W        W38995  18.237  14.301  12.385
66670W        W38996  22.679   5.697   1.231
66671W        W38997  11.795   7.871  12.839
66672W        W38998  35.982   2.778  11.059
66673W        W38999   5.721  11.740  10.893
66674W        W39000   9.361  14.163   4.219
66675W        W39001  13.280   9.354   3.708
66676W        W39002  41.518  17.633  13.013
66677W        W39003  16.685  39.479  10.558
66678W        W39004   1.337  31.417  13.333
66679W        W39005  37.409  19.107  11.453
66680W        W39006  39.321  32.533  12.574
66681W        W39007   3.254  35.041   5.137
66682W        W39008  40.514  21.718   1.806
66683W        W39009   6.807  26.178  14.298
66684W        W39010  10.372  32.437  12.494
66685W        W39011   8.359  29.475   0.755
66686W        W39012  40.491  29.926   0.804
66687W        W39013  36.078  13.337   4.287
66688W        W39014  19.691  17.615  14.824
66689W        W39015  42.907  19.198   4.704
66690W        W39016  42.413  25.178  10.442
66691W        W39017  36.988  34.464   0.805
66692W        W39018  20.221  34.423   4.173
66693W        W39019  20.090  11.149   4.622
66694W        W39020  43.281  39.477   3.759
66695W        W39021  41.887   6.390  13.424
66696W        W39022  20.691  31.516  11.122
66697W        W39023  34.485  12.792   0.396
66698W        W39024   6.754  17.172   4.822
66699W        W39025  21.106  34.931  10.629
66700W        W39026   5.309   7.798   0.433
66701W        W39027  19.654  44.411   1.784
66702W        W39028  37.350  37.509  12.574
66703W        W39029  28.040  11.812   1.240
66704W        W39030  41.001   1.815  14.454
66705W        W39031  34.574  32.481  14.433
66706W        W39032  44.948  44.361  11.119
66707W        W39033  33.048  35.599   3.864
66708W        W39034  42.807  22.052   2.343
66709W        W39035   2.228  42.307  11.069
66710W        W39036   9.214  38.440   0.874
66711W        W39037  19.624  15.723  13.486
66712W        W39038   6.916  34.604  12.351
66713W        W39039  39.915  40.956  14.926
66714W        W39040  16.578  14.821   3.718
66715W        W39041  17.797  32.400  12.008
66716W        W39042  23.112  21.750   3.823
66717W        W39043  27.552  30.555   2.717
66718W        W39044  44.866  30.500   3.730
66719W        W39045  38.354  43.498  12.994
66720W        W39046  33.074   0.284   1.741
66721W        W39047  13.314  30.425  14.781
66722W        W39048  41.388  11.709   4.759
66723W        W39049  32.446  11.739   1.919
66724W        W39050  44.384   3.945   2.415
66725W        W39051  12.197  14.712   4.294
66726W        W39052  24.099   1.857  11.509
66727W        W39053  34.590   3.215   0.379
66728W        W39054  31.590  40.520   2.866
66729W        W39055  32.519  33.090   3.240
66730W        W39056  39.878  25.135  14.824
66731W        W39057  39.904  22.248  14.444
66732W        W39058  23.222  22.639   1.345
66733W        W39059  41.517   9.381  11.486
66734W        W39060  14.739  16.294  14.809
66735W        W39061   5.722  17.074   3.731
66736W        W39062   6.319  17.230  13.436
66737W        W39063  12.142   8.727   0.304
66738W        W39064  29.500  14.330  10.004
66739W        W39065   6.238  24.634  14.823
66740W        W39066  25.627  12.656  10.996
66741W        W39067  32.087  26.143  12.095
66742W        W39068   8.172  34.514  13.449
66743W        W39069  15.711   3.279  10.006
66744W        W39070  22.108  39.040  13.516
66745W        W39071   7.894  16.572   0.734
66746W        W39072  11.235   8.340   4.654
66747W        W39073  27.579   9.875   0.951
66748W        W39074  22.590  44.299   1.935
66749W        W39075   1.307   2.358  11.934
66750W        W39076  34.520  14.670   2.786
66751W        W39077  15.135  31.007   2.699
66752W        W39078  21.046  21.668   4.180
66753W        W39079  15.196  15.653   3.670
66754W        W39080  22.733  43.993  12.436
66755W        W39081   7.402  33.551   4.641
66756W        W39082  11.738   3.423   3.871
66757W        W39083  41.530  38.469   2.901
66758W        W39084  15.256  14.226   4.611
66759W        W39085  24.610  36.592   3.373
66760W        W39086  28.102  41.865   5.157
66761W        W39087  35.489  28.645   2.719
66762W        W39088  29.946  16.753  14.965
66763W        W39089   1.449  37.076  10.546
66764W        W39090  32.566   3.907   3.826
66765W        W39091  36.024   1.844   4.230
66766W        W39092  35.430   0.868   4.322
66767W        W39093  17.228  18.788   0.467
66768W        W39094   4.391  25.061  13.480
66769W        W39095  31.123   5.370   0.300
66770W        W39096  41.803   0.267  11.422
66771W        W39097   8.834  32.907  14.369
66772W        W39098  14.111  15.812   2.749
66773W        W39099  14.175  26.628   3.205
66774W        W39100  19.127  34.394   3.185
66775W        W39101   6.858  34.953  13.814
66776W        W39102  33.521  30.658   2.761
66777W        W39103  38.421  10.802   0.938
66778W        W39104  16.673  11.358  11.085
66779W        W39105  41.371  41.369   0.771
66780W        W39106  15.150   8.367   2.199
66781W        W39107  26.476  33.984  14.843
66782W        W39108  27.997  16.292  11.524
66783W        W39109  44.287  30.146   0.938
66784W        W39110  29.132   7.188   2.216
66785W        W39111  18.257  27.608  12.926
66786W        W39112  25.522   8.322   3.670
66787W        W39113  26.663  34.600  14.824
66788W        W39114  37.949   1.890  12.450
66789W        W39115  38.883  15.086   4.626
66790W        W39116  17.197  14.169   4.744
66791W        W39117   1.269  22.062  14.510
66792W        W39118  42.396  14.285   1.260
66793W        W39119  28.050  31.436   3.673
66794W        W39120  25.020   1.923  13.913
66795W        W39121  35.858  40.846   0.795
66796W        W39122  23.732   0.759   3.310
66797W        W39123  43.492  11.157  13.340
66798W        W39124  19.136  42.319   1.352
66799W        W39125   9.163  21.602  13.005
66800W        W39126  35.489  26.002   0.386
66801W        W39127  25.638  18.705   0.285
66802W        W39128  14.716  41.391  11.390
66803W        W39129  24.098   1.883   2.273
66804W        W39130  15.821  20.111  10.986
66805W        W39131  30.491   9.719  11.438
66806W        W39132  37.936  16.599  12.840
66807W        W39133  12.633  29.579  13.387
66808W        W39134  16.625  24.684   4.114
66809W        W39135   4.776  31.006   2.359
66810W        W39136   1.754  40.865   0.827
66811W        W39137   9.360  38.480  12.904
66812W        W39138  32.455   8.720  10.536
66813W        W39139  14.097  11.750   4.693
66814W        W39140  17.726  19.108  11.375
66815W        W39141  35.086  39.854   0.329
66816W        W39142  23.592  43.320  12.576
66817W        W39143  27.137  42.342   4.249
66818W        W39144  14.668  23.074   3.307
66819W        W39145   9.267  26.957   1.253
66820W        W39146  18.690  22.586   0.913
66821W        W39147  20.732  36.942  13.347
66822W        W39148  37.929   1.315   0.367
66823W        W39149  33.068  44.498   2.418
66824W        W39150  44.945   2.334  10.408
66825W        W39151   4.364  44.371   3.869
66826W        W39152  25.628  18.745  10.450
66827W        W39153  31.508  37.566   0.355
66828W        W39154  24.999  25.619   3.357
66829W        W39155  37.398   1.935   0.857
66830W        W39156  43.379  18.661  10.982
66831W        W39157  32.535  33.995   3.316
66832W        W39158  43.014   8.334  12.399
66833W        W39159  22.134  19.619  11.980
66834W        W39160  35.109  26.696  13.933
66835W        W39161  36.368  36.421   1.916
66836W        W39162   6.391  20.759   2.245
66837W        W39163   0.745   0.786  10.993
66838W        W39164  28.602  28.628  13.334
66839W        W39165  42.335  21.647  14.431
66840W        W39166   4.779   5.781  10.468
66841W        W39167  42.809  40.911   3.679
66842W        W39168   7.283  14.626  13.514
66843W        W39169  24.148  44.336   4.826
66844W        W39170  40.357  36.067  14.873
66845W        W39171  32.404   2.818  11.545
66846W        W39172  28.030   7.795  13.390
66847W        W39173  36.935  14.779   1.314
66848W        W39174  39.925  37.898  11.116
66849W        W39175  43.785  20.113  11.086
66850W        W39176  21.027   6.370   3.218
66851W        W39177   2.946  42.389   1.757
66852W        W39178  18.053   8.215   3.663
66853W        W39179  18.752  41.002   1.708
66854W        W39180  30.942  21.588   2.298
66855W        W39181  36.997  33.080  14.920
66856W        W39182  28.017  39.405  14.903
66857W        W39183  41.361  39.383   2.810
66858W        W39184  13.152   3.346   2.679
66859W        W39185  39.815   4.811   2.818
66860W        W39186  23.733   5.257  12.083
66861W        W39187   5.758  19.567  10.515
66862W        W39188  15.140  34.087  12.909
66863W        W39189  44.927   7.243   0.466
66864W        W39190  23.499   7.838   1.926
66865W        W39191   9.322  20.704   2.697
66866W        W39192  36.414  15.167  10.545
66867W        W39193  27.529   5.901   2.847
66868W        W39194  42.310  27.032   3.764
66869W        W39195  25.065  41.949   5.083
66870W        W39196  12.842  11.177  12.352
66871W        W39197  29.153  38.888  14.009
66872W        W39198  38.999  10.643  11.560
66873W        W39199  30.145  24.711   0.862
66874W        W39200   4.783  24.213   3.225
66875W        W39201  36.550   0.453  13.546
66876W        W39202   4.428  20.084  12.479
66877W        W39203  14.145  39.530  11.529
66878W        W39204  19.689  38.958   4.284
66879W        W39205   8.202  32.073  14.839
66880W        W39206  10.175  37.954  10.972
66881W        W39207  39.880  19.221   3.158
66882W        W39208  35.930   0.886   3.845
66883W        W39209  43.892  12.702  10.450
66884W        W39210   6.413  10.314   3.804
66885W        W39211   8.262  25.075  14.311
66886W        W39212  28.096  30.461   4.246
66887W        W39213  28.944   9.683   2.785
66888W        W39214  26.549  21.575   1.922
66889W        W39215  32.597  35.033  10.437
66890W        W39216  14.718  25.554   1.714
66891W        W39217   0.818   7.707   3.263
66892W        W39218  39.997  22.066  10.487
66893W        W39219  25.623  25.494  12.473
66894W        W39220  39.981  10.748  10.950
66895W        W39221   0.477  42.425  14.377
66896W        W39222   0.422  31.135   3.261
66897W        W39223  27.673   5.688  14.785
66898W        W39224   0.321   6.236   3.814
66899W        W39225  21.157  35.946   0.349
66900W        W39226  29.589  33.491   3.735
66901W        W39227   0.384   6.337  10.443
66902W        W39228   6.206  42.478   0.412
66903W        W39229  37.481  35.438  13.951
66904W        W39230  43.821   2.909   0.883
66905W        W39231   3.786  12.835  11.986
66906W        W39232   2.229  27.057  13.452
66907W        W39233  39.548   5.393  11.587
66908W        W39234  16.259   6.711   0.389
66909W        W39235  18.688  16.232  10.570
66910W        W39236  30.017  12.262  14.920
66911W        W39237  43.835  15.209  12.432
66912W        W39238  40.348   4.396   1.778
66913W        W39239  20.121  17.204  13.527
66914W        W39240   2.914  26.139   4.826
66915W        W39241  31.945  13.118   3.814
66916W        W39242  27.628  39.970  14.286
66917W        W39243  14.102  43.455  13.890
66918W        W39244  26.157  39.013  11.504
66919W        W39245  16.262  23.199   0.873
66920W        W39246  26.664  33.005  10.085
66921W        W39247  30.558  29.462  14.920
66922W        W39248  41.824  27.981   4.709
66923W        W39249  44.481  25.118   2.291
66924W        W39250  20.133  44.397  10.538
66925W        W39251   8.866  41.427  13.473
66926W        W39252  25.172  16.300   4.279
66927W        W39253  23.118   0.457  13.323
66928W        W39254  40.814   7.744  14.890
66929W        W39255   9.677  30.997  12.845
66930W        W39256   4.422  27.602   3.737
66931W        W39257  36.494  24.975  12.941
66932W        W39258  44.909   3.232   4.346
66933W        W39259  14.202  38.381  12.986
66934W        W39260  44.824  22.057  14.293
66935W        W39261  37.004  41.874  12.530
66936W        W39262   3.219   8.825  13.356
66937W        W39263  34.023  18.627   4.146
66938W        W39264  42.484   7.743   0.310
66939W        W39265  28.674  31.028   4.238
66940W        W39266   6.188  14.214   1.212
66941W        W39267  29.538  40.352   4.656
66942W        W39268  26.129  44.453   4.777
66943W        W39269  26.037  39.387  11.915
66944W        W39270  32.026  33.888   4.246
66945W        W39271   8.706   7.328   1.299
66946W        W39272  22.685   8.891  13.489
66947W        W39273   9.258  35.984  10.062
66948W        W39274   1.463  28.605   2.205
66949W        W39275  35.064  21.665  13.825
66950W        W39276  43.995  24.992  14.784
66951W        W39277  18.613  17.664  10.964
66952W        W39278  21.572  43.450  12.935
66953W        W39279   7.381  17.604  12.064
66954W        W39280  29.061  19.200  11.933
66955W        W39281  11.735  14.756  14.829
66956W        W39282  13.826  35.977  10.441
66957W        W39283   7.733  38.923  11.107
66958W        W39284   0.906  18.132  11.030
66959W        W39285  18.087  23.155  14.957
66960W        W39286   7.752   1.874   0.263
66961W        W39287  16.246  11.194   0.899
66962W        W39288   8.680  21.521  14.989
66963W        W39289  15.658  41.887   1.734
66964W        W39290  16.642  16.799   0.807
66965W        W39291   4.932  36.974  12.958
66966W        W39292  34.007  10.186   2.849
66967W        W39293  32.620  32.600   0.955
66968W        W39294  34.579  33.923   5.155
66969W        W39295  18.717  43.826   2.300
66970W        W39296   8.381  42.809   0.460
66971W        W39297   0.951  22.006   2.762
66972W        W39298   3.257   1.386  14.433
66973W        W39299   9.380  22.592   4.353
66974W        W39300  18.756  30.601  14.859
66975W        W39301  17.630   7.892   0.429
66976W        W39302  34.430  16.698  12.378
66977W        W39303  34.594  28.533   4.156
66978W        W39304  31.427  21.213   3.242
66979W        W39305  18.279   2.856  14.942
66980W        W39306   0.831  27.585  13.362
66981W        W39307  31.450  14.148   4.190
66982W        W39308  28.049  38.922  13.053
66983W        W39309  38.534   7.806  12.356
66984W        W39310  16.665  36.375  10.521
66985W        W39311  20.164   5.799   4.326
66986W        W39312  26.023   8.657  11.573
66987W        W39313  21.544  41.495   0.292
66988W        W39314  32.545   8.271   2.744
66989W        W39315  26.157  43.789  12.527
66990W        W39316  10.294   9.179  11.970
66991W        W39317  22.674  30.073   1.385
66992W        W39318  42.482   2.773  11.426
66993W        W39319   5.330  28.538  13.812
66994W        W39320   0.302  21.102   3.730
66995W        W39321  30.083  14.719  14.998
66996W        W39322  42.894  30.044   0.944
66997W        W39323  27.447  25.991  12.374
66998W        W39324  38.824  43.355  14.873
66999W        W39325  13.258  12.140   0.939
67000W        W39326  40.007  22.714   0.274
67001W        W39327  16.246  30.552   0.830
67002W        W39328  28.085  38.924  13.933
67003W        W39329   6.723  10.292   3.316
67004W        W39330  19.562  13.231   3.253
67005W        W39331  32.458  19.122  12.033
67006W        W39332  36.058   8.161  13.430
67007W        W39333  10.839  25.557  14.378
67008W        W39334  39.550  13.692  12.078
67009W        W39335  20.095  43.923  11.997
67010W        W39336  33.058   1.906   4.742
67011W        W39337  25.647  35.367  11.430
67012W        W39338  28.102   3.914  11.417
67013W        W39339  29.575  29.447  13.014
67014W        W39340  36.052  18.698   2.704
67015W        W39341   4.911  34.098  12.926
67016W        W39342  13.348  33.011  14.856
67017W        W39343   7.376  32.993  12.840
67018W        W39344  18.709  34.999  10.914
67019W        W39345  29.932   9.381   2.794
67020W        W39346  32.607  34.375  13.833
67021W        W39347  27.954  20.177   4.808
67022W        W39348  14.774  34.030   4.236
67023W        W39349   1.739  18.693   2.685
67024W        W39350  18.120  24.019   0.323
67025W        W39351  23.500  13.612   2.746
67026W        W39352  22.684  32.469  10.024
67027W        W39353   6.904   3.373   1.375
67028W        W39354  19.667   1.362  13.975
67029W        W39355  39.879  20.082   3.830
67030W        W39356  36.958  17.242   0.758
67031W        W39357  11.667   9.229   4.134
67032W        W39358  32.457  29.106   4.146
67033W        W39359  21.159  17.576  11.411
67034W        W39360  41.342   6.848   4.698
67035W        W39361  36.978  37.576  13.446
67036W        W39362   8.804  10.873  11.935
67037W        W39363  32.982  31.045  10.983
67038W        W39364  10.267  10.183  12.059
67039W        W39365  33.030  31.903   2.360
67040W        W39366  15.183  16.759   4.134
67041W        W39367  36.888  24.201  11.387
67042W        W39368  14.201  20.203  14.434
67043W        W39369   7.750  21.698   3.291
67044W        W39370  11.786  38.342   0.901
67045W        W39371  44.367  36.893  12.839
67046W        W39372  38.380  29.962  11.557
67047W        W39373   9.167  13.123  11.984
67048W        W39374   9.286  32.907  10.593
67049W        W39375  30.604  19.280  12.552
67050W        W39376  24.584  21.575  13.505
67051W        W39377  16.186  35.870  13.447
67052W        W39378  30.087  36.366   2.277
67053W        W39379  18.765  16.136  14.295
67054W        W39380  28.186   6.844  13.446
67055W        W39381  12.228  15.294   3.275
67056W        W39382   6.752  33.961  14.432
67057W        W39383  38.001  10.713   4.310
67058W        W39384  17.799  41.931   4.136
67059W        W39385  20.606  30.969   2.200
67060W        W39386   2.957  41.438  11.391
67061W        W39387  42.400  44.793  13.474
67062W        W39388  33.884  29.445  10.439
67063W        W39389  26.124  31.488   4.814
67064W        W39390   0.856  40.525  13.500
67065W        W39391  20.049  42.971   4.242
67066W        W39392   5.700  30.609   4.131
67067W        W39393  22.056  30.163  14.933
67068W        W39394   6.339  17.675   2.799
67069W        W39395  15.091  42.399  10.967
67070W        W39396  37.918   9.298  10.634
67071W        W39397  35.601   8.359  12.400
67072W        W39398  10.770  43.000  14.472
67073W        W39399  43.494  11.636  11.935
67074W        W39400  14.334  42.450   1.731
67075W        W39401  14.328  36.385   0.278
67076W        W39402  32.952  13.710  12.093
67077W        W39403  30.929  17.120   3.279
67078W        W39404  26.969  42.380  14.965
67079W        W39405  23.215  27.649   0.909
67080W        W39406  11.277  17.632   3.698
67081W        W39407   6.193   9.176   0.407
67082W        W39408  11.761   7.372   0.896
67083W        W39409   8.805  17.134   4.835
67084W        W39410   9.337  17.670   0.763
67085W        W39411  10.856   0.768  10.890
67086W        W39412  16.664  29.031   3.663
67087W        W39413  36.998  40.857   2.717
67088W        W39414   6.919  10.697  12.028
67089W        W39415  33.920   5.827  12.497
67090W        W39416  37.572   2.425   2.765
67091W        W39417  44.807  14.159   0.405
67092W        W39418  25.515   7.311  10.011
67093W        W39419  29.959   7.835  11.520
67094W        W39420  24.580  23.996   1.216
67095W        W39421  12.732  36.466   0.931
67096W        W39422  13.245   3.734  12.397
67097W        W39423   5.724   4.889   1.312
67098W        W39424  40.321  26.683   3.696
67099W        W39425   2.811  19.187   1.734
67100W        W39426  19.180  39.479  14.313
67101W        W39427  26.061  44.008  14.849
67102W        W39428   6.797  15.218   4.189
67103W        W39429  29.558  37.022  12.832
67104W        W39430  19.206  18.635  14.416
67105W        W39431  23.158  23.151   4.822
67106W        W39432  29.663  42.454  10.539
67107W        W39433  19.212  28.005  11.111
67108W        W39434  22.530   3.821  10.413
67109W        W39435  41.301  25.682   2.671
67110W        W39436  36.094  32.425   1.258
67111W        W39437  19.087   1.410   4.735
67112W        W39438  20.531   8.702  12.826
67113W        W39439  13.279  42.280   1.356
67114W        W39440  23.138   9.390   1.246
67115W        W39441  35.896  15.651  14.863
67116W        W39442  12.784  39.017   0.370
67117W        W39443  42.464   5.759  11.937
67118W        W39444   3.753  38.933   0.294
67119W        W39445   8.670  24.161   3.238
67120W        W39446  16.608  10.309   3.224
67121W        W39447  26.607  28.436   5.194
67122W        W39448  38.346   7.399   4.298
67123W        W39449  28.448  44.896   2.414
67124W        W39450  36.874  18.605  10.444
67125W        W39451   7.828  20.111  14.286
67126W        W39452  28.948  23.647  11.977
67127W        W39453  26.559  44.269  11.438
67128W        W39454  39.415  15.300  11.952
67129W        W39455  36.514  36.348  13.833
67130W        W39456  18.172  15.623  13.936
67131W        W39457  30.519  37.904  12.938
67132W        W39458  23.994   0.462   0.888
67133W        W39459  28.453   5.331   1.230
67134W        W39460  32.088  33.045   1.249
67135W        W39461  11.728  40.332  11.408
67136W        W39462   4.760   3.832   4.161
67137W        W39463  19.084  44.930  14.313
67138W        W39464  19.761  17.649  11.041
67139W        W39465  24.174   6.680   4.650
67140W        W39466   0.850  19.602  12.003
67141W        W39467  27.475   3.439  12.345
67142W        W39468  15.150  43.298   0.443
67143W        W39469  14.711   7.820   4.736
67144W        W39470   9.357   8.298  14.936
67145W        W39471   8.703  37.895  12.352
67146W        W39472   7.863   8.193   1.699
67147W        W39473  31.566   7.276  11.441
67148W        W39474   5.721   5.310   2.210
67149W        W39475  31.618  21.730  11.394
67150W        W39476  18.671   8.254  10.887
67151W        W39477  41.390   6.305  10.541
67152W        W39478  35.438  22.122   1.223
67153W        W39479  20.687  41.395  13.489
67154W        W39480   5.767  42.871   3.672
67155W        W39481  21.226  26.527   2.900
67156W        W39482  44.001  15.603   1.435
67157W        W39483  41.891  15.787   1.446
67158W        W39484  39.499  13.342   0.397
67159W        W39485  27.960  27.639  10.609
67160W        W39486  20.667  36.068   1.303
67161W        W39487   7.266  38.921  13.332
67162W        W39488  29.505  38.834   3.229
67163W        W39489  36.897   3.429  13.476
67164W        W39490  21.224   8.240   2.826
67165W        W39491  35.397  25.017   0.941
67166W        W39492   2.397  29.168  11.004
67167W        W39493  34.053  24.652  10.447
67168W        W39494  26.185  22.250  12.836
67169W        W39495  16.122  22.718  11.110
67170W        W39496  14.321  31.625   2.188
67171W        W39497  12.610   9.231  13.843
67172W        W39498   6.326  35.929  14.973
67173W        W39499  37.385  15.819  10.642
67174W        W39500   5.409   8.821  10.563
67175W        W39501  43.782  14.669   2.788
67176W        W39502   9.830  24.055  10.432
67177W        W39503  18.223   2.436   4.658
67178W        W39504  21.514  42.494   1.263
67179W        W39505  44.308  23.071   3.836
67180W        W39506  22.533  36.529  13.486
67181W        W39507   2.432  17.273  14.019
67182W        W39508   7.891  17.637  13.989
67183W        W39509  22.515   3.372  13.976
67184W        W39510  12.322  25.000   2.762
67185W        W39511  24.107  34.945   2.745
67186W        W39512   2.874  23.512  12.375
67187W        W39513  13.196   4.780   4.261
67188W        W39514  36.957  21.537  10.591
67189W        W39515  21.748  41.946  14.333
67190W        W39516  11.170   6.309  11.900
67191W        W39517  34.115  18.582  11.506
67192W        W39518  23.704  36.914  12.514
67193W        W39519  41.292   8.809  13.405
67194W        W39520  29.477  26.983  10.988
67195W        W39521   5.882  36.926   4.303
67196W        W39522  10.727  11.736  10.962
67197W        W39523  12.157  19.207  12.048
67198W        W39524  30.613   5.753  11.436
67199W        W39525  25.496  11.662  14.448
67200W        W39526  42.357  37.881   2.733
67201W        W39527   1.860  19.590   1.241
67202W        W39528  18.287  41.465  13.378
67203W        W39529  36.002  22.706  13.879
67204W        W39530  20.672  23.500   1.358
67205W        W39531  22.194  12.642  13.476
67206W        W39532  36.591   4.753   3.757
67207W        W39533  39.404  33.442   3.855
67208W        W39534  26.618  38.481  11.494
67209W        W39535  34.999  15.696  12.013
67210W        W39536  20.176  41.899  13.339
67211W        W39537  32.981  37.030  11.964
67212W        W39538  24.509  38.024   3.743
67213W        W39539  25.101  42.451   0.481
67214W        W39540  14.232  15.773  13.501
67215W        W39541  23.091   3.931  13.931
67216W        W39542  20.067   2.765   2.361
67217W        W39543  40.341  13.776  14.940
67218W        W39544  14.159  40.379   3.755
67219W        W39545  18.287  15.284   2.779
67220W        W39546  21.253   0.293  14.986
67221W        W39547  39.403  35.972   1.879
67222W        W39548  35.369  12.362   9.462
67223W        W39549  30.422  10.711   0.844
67224W        W39550  40.329  39.868  14.835
67225W        W39551   4.318  33.046   1.287
67226W        W39552  29.571  25.187   9.920
67227W        W39553  33.434  25.007  12.573
67228W        W39554  22.505  35.047  14.333
67229W        W39555  44.767  36.978  11.488
67230W        W39556   8.841  22.502   2.730
67231W        W39557  42.364  14.232  14.376
67232W        W39558  23.001  16.605  13.501
67233W        W39559  31.962  13.257   5.306
67234W        W39560  13.122   0.967  14.425
67235W        W39561  15.212  13.818  14.846
67236W        W39562   0.248  36.061   1.914
67237W        W39563  22.163   5.733   2.384
67238W        W39564  39.411  39.954   4.127
67239W        W39565   8.226  41.804   1.338
67240W        W39566  39.318  36.572  13.447
67241W        W39567  28.172   6.428  10.889
67242W        W39568  38.350  40.939   4.641
67243W        W39569  29.648  31.056  11.584
67244W        W39570  43.839  23.497  12.083
67245W        W39571  30.062   3.219  14.979
67246W        W39572  25.539  37.483  13.824
67247W        W39573   6.221   4.900   5.150
67248W        W39574  15.610  32.996   1.935
67249W        W39575   4.724  15.589  11.901
67250W        W39576  11.688  39.440  13.915
67251W        W39577  44.995  38.932   0.836
67252W        W39578   2.745  11.796   1.822
67253W        W39579   7.320  23.989   2.198
67254W        W39580  36.508   1.270   0.329
67255W        W39581   1.375  14.275   3.832
67256W        W39582  32.980  18.181  14.901
67257W        W39583   2.922  25.579   2.818
67258W        W39584  19.092  27.504  13.378
67259W        W39585  35.898  28.111   5.267
67260W        W39586  13.109   2.255  10.974
67261W        W39587  30.627  40.362   2.719
67262W        W39588  31.005  17.153  14.966
67263W        W39589  25.000  10.298   1.737
67264W        W39590  25.617  21.072   2.730
67265W        W39591   2.878  29.663   4.661
67266W        W39592  26.696  39.864   0.345
67267W        W39593  44.475  16.731   4.652
67268W        W39594  41.484  30.566   2.841
67269W        W39595  34.946  30.637  12.435
67270W        W39596  36.014  16.678   1.254
67271W        W39597  25.614  13.624  13.869
67272W        W39598  37.831   0.873   0.771
67273W        W39599   0.792  32.577  13.539
67274W        W39600   8.887  41.860   5.208
67275W        W39601  33.982  26.103   4.640
67276W        W39602   7.261  20.153  12.445
67277W        W39603  29.929  26.534   1.444
67278W        W39604  24.079  35.060  13.898
67279W        W39605  31.546   9.167   3.337
67280W        W39606  29.503  13.689   1.732
67281W        W39607  36.856  35.470  12.532
67282W        W39608  44.874  17.592  13.320
67283W        W39609  17.723  26.672  13.010
67284W        W39610   2.885  26.665   3.708
67285W        W39611   6.350  20.569  11.455
67286W        W39612  19.060  39.545   3.712
67287W        W39613  16.567  24.157  12.350
67288W        W39614  32.957  36.925   1.862
67289W        W39615  14.192   0.825   0.852
67290W        W39616  38.531  37.891   1.241
67291W        W39617  19.700  11.677  13.820
67292W        W39618   1.320   6.836  11.033
67293W        W39619  24.505   5.823  11.600
67294W        W39620  42.023   3.713   0.835
67295W        W39621   2.438  15.793   3.239
67296W        W39622  37.849  40.953  13.380
67297W        W39623  28.595  16.567  13.842
67298W        W39624  40.371  10.860   3.652
67299W        W39625   4.747  15.693   4.606
67300W        W39626   2.402   6.206  10.497
67301W        W39627  19.688  12.679  12.054
67302W        W39628  35.863   4.372   3.638
67303W        W39629  10.237  26.089  12.453
67304W        W39630  24.063  43.961  14.758
67305W        W39631  41.863   3.796   2.831
67306W        W39632   5.270  29.436   0.728
67307W        W39633  27.485   9.247  11.564
67308W        W39634   6.855  35.018   0.838
67309W        W39635   1.242  15.300  12.862
67310W        W39636  44.923  15.089  12.091
67311W        W39637  27.686  24.719   4.277
67312W        W39638  10.142  21.212   3.749
67313W        W39639   2.952  31.624  10.454
67314W        W39640   8.291  32.001  11.579
67315W        W39641  22.128  44.284  14.369
67316W        W39642   2.472  43.808  11.435
67317W        W39643   3.746   6.398  10.476
67318W        W39644  37.527  25.108   2.306
67319W        W39645  13.682  39.330   2.419
67320W        W39646  35.384  41.305  14.991
67321W        W39647  13.821  25.170  12.483
67322W        W39648  19.240  39.362   0.869
67323W        W39649  44.800  23.197   1.365
67324W        W39650  23.570  37.551  11.431
67325W        W39651  30.565  41.343  14.880
67326W        W39652  19.185  38.921  14.464
67327W        W39653  42.420  11.721  14.435
67328W        W39654  43.811  35.876  11.385
67329W        W39655  14.247   1.941  13.995
67330W        W39656   4.831  31.898   1.271
67331W        W39657  15.325   2.399   0.766
67332W        W39658  14.682  13.677   1.738
67333W        W39659  20.152   3.214  12.998
67334W        W39660  40.356  15.671  11.928
67335W        W39661  22.997  33.060  14.317
67336W        W39662   5.288  18.578   2.372
67337W        W39663  13.748  14.153  14.300
67338W        W39664  23.524  17.567   2.758
67339W        W39665  11.277  11.163   2.408
67340W        W39666   1.251   4.419  10.974
67341W        W39667  31.566  35.109  10.420
67342W        W39668  10.826   3.270   4.241
67343W        W39669  22.633  39.501   9.559
67344W        W39670  19.705  38.072  12.070
67345W        W39671  12.157   7.212   4.700
67346W        W39672  21.165  14.658  11.417
67347W        W39673  20.076  41.978  12.945
67348W        W39674  21.144  44.380   1.854
67349W        W39675  33.555  19.056  12.452
67350W        W39676  33.997  37.041   1.745
67351W        W39677  10.375  34.026  12.357
67352W        W39678  13.818  10.259   2.811
67353W        W39679   8.229  13.235   0.322
67354W        W39680  14.794  17.190  13.395
67355W        W39681   5.431  15.791   2.290
67356W        W39682  24.072  16.137  12.873
67357W        W39683  15.113  30.448   2.687
67358W        W39684   7.263  19.638   4.784
67359W        W39685  24.579  32.424   1.915
67360W        W39686   6.732  17.131  12.490
67361W        W39687   8.782  11.251  13.350
67362W        W39688  37.399  11.836  10.487
67363W        W39689  19.251  19.260  10.961
67364W        W39690  29.628  26.042   0.789
67365W        W39691  29.432  23.592  11.377
67366W        W39692  44.493  23.535  11.943
67367W        W39693  17.581   8.264   1.306
67368W        W39694  43.985  20.569   3.635
67369W        W39695  35.512   0.833  10.458
67370W        W39696  13.161  33.990  13.060
67371W        W39697  16.152  26.158   0.376
67372W        W39698  42.798   4.800  11.542
67373W        W39699  36.910  33.609  14.368
67374W        W39700  32.111  23.528  12.886
67375W        W39701  31.607  42.472  12.372
67376W        W39702  29.666  22.193  14.878
67377W        W39703  27.967  25.557   4.302
67378W        W39704  44.926  32.141  12.387
67379W        W39705  15.729  18.235  11.890
67380W        W39706  28.451  26.079  11.434
67381W        W39707  24.212   9.656  10.519
67382W        W39708  43.924  17.212  13.877
67383W        W39709  13.296  19.599  13.400
67384W        W39710  37.491  35.454   1.744
67385W        W39711  37.499  13.339  12.474
67386W        W39712  17.207  31.081  12.524
67387W        W39713  24.191  21.174  14.451
67388W        W39714  19.100   4.379   0.775
67389W        W39715  11.230  35.561   5.207
67390W        W39716  40.362  25.542  14.330
67391W        W39717  29.050  25.635   9.454
67392W        W39718  34.039  24.018   4.625
67393W        W39719  32.980   2.314  13.010
67394W        W39720  12.298   8.232  12.475
67395W        W39721  22.590  19.639  10.508
67396W        W39722  18.662  24.699  13.802
67397W        W39723  33.927   9.690  12.965
67398W        W39724  34.554  26.156  11.380
67399W        W39725  27.585  33.602   1.771
67400W        W39726  32.451  43.484  13.057
67401W        W39727  30.050  35.362   4.344
67402W        W39728  13.696  16.609  10.546
67403W        W39729  14.716  19.083   0.478
67404W        W39730   7.373   7.752  13.488
67405W        W39731  21.259  15.179  12.881
67406W        W39732   9.298  16.215   4.700
67407W        W39733  40.902  13.125  11.086
67408W        W39734  21.527  12.353   4.650
67409W        W39735   9.264  19.056   1.326
67410W        W39736  13.267  33.406  14.499
67411W        W39737  23.144  30.931  13.374
67412W        W39738  24.201  28.143   3.668
67413W        W39739  18.101   3.859   1.377
67414W        W39740  41.026  14.742  10.972
67415W        W39741  30.594  42.412   1.292
67416W        W39742  17.690  25.978   2.891
67417W        W39743  39.528   1.736   2.385
67418W        W39744  14.278   0.402   3.802
67419W        W39745  15.791  43.008   0.756
67420W        W39746  33.592  29.516  12.468
67421W        W39747   1.402  27.059   4.159
67422W        W39748  20.228  20.581   4.224
67423W        W39749  36.019  34.054  12.900
67424W        W39750   0.857  37.018   3.641
67425W        W39751   8.274  14.104  11.427
67426W        W39752  41.988  41.837  12.027
67427W        W39753  14.233  15.326  14.448
67428W        W39754  26.480   6.361   0.807
67429W        W39755  21.697  35.054   3.789
67430W        W39756  35.414  36.526  14.894
67431W        W39757   6.922   8.350  10.950
67432W        W39758  13.780  17.250  12.454
67433W        W39759  26.697  26.192   0.903
67434W        W39760  30.968  15.316   4.307
67435W        W39761   4.332  20.558  11.084
67436W        W39762   0.888   5.301   2.374
67437W        W39763  27.492  28.142  11.034
67438W        W39764  10.714  35.475   2.833
67439W        W39765  41.815  32.127   0.800
67440W        W39766  26.665  42.507  11.885
67441W        W39767  13.642  34.979  13.918
67442W        W39768  35.930   1.870  11.504
67443W        W39769  33.497   0.784   4.639
67444W        W39770   1.862   6.377   4.208
67445W        W39771   9.688  13.769   2.197
67446W        W39772  32.912  18.715   2.895
67447W        W39773  34.906  30.419   1.255
67448W        W39774  43.330  18.655   4.644
67449W        W39775   7.890   7.200   2.777
67450W        W39776   8.403  35.912  11.868
67451W        W39777  22.671   8.656  11.126
67452W        W39778   5.261  40.467   3.716
67453W        W39779   5.858  25.202  13.424
67454W        W39780   8.804   9.156  14.955
67455W        W39781  21.729   9.683   1.419
67456W        W39782  11.343  29.941  14.479
67457W        W39783   3.735  21.660  10.090
67458W        W39784  14.162  27.466   3.294
67459W        W39785  44.998  17.234   0.737
67460W        W39786  23.114  10.357   1.434
67461W        W39787  19.610  19.765  11.489
67462W        W39788  44.435  26.089   0.742
67463W        W39789  41.793  44.865   0.279
67464W        W39790  43.464   9.778  11.951
67465W        W39791  35.043   4.327  11.879
67466W        W39792   6.880   3.779   1.338
67467W        W39793  31.142   1.415  12.065
67468W        W39794  35.545  13.695  11.515
67469W        W39795   3.899  11.670   5.110
67470W        W39796  21.029  17.702   0.763
67471W        W39797  40.394  39.419  12.464
67472W        W39798  41.978   9.865   3.642
67473W        W39799  26.060  15.276  14.308
67474W        W39800  10.264  15.314   2.806
67475W        W39801  41.926  25.996  12.479
67476W        W39802  32.902   8.218   4.803
67477W        W39803  10.653   6.785  13.537
67478W        W39804  33.924   6.773   4.808
67479W        W39805  10.346  10.722  13.405
67480W        W39806  41.332  37.893  12.411
67481W        W39807  31.148  21.653   0.326
67482W        W39808   2.788  18.685   2.766
67483W        W39809  11.721  23.108   4.247
67484W        W39810  12.248  27.637   0.777
67485W        W39811  32.056  38.053   1.290
67486W        W39812  15.669  23.232  10.582
67487W        W39813  11.258  14.722  12.541
67488W        W39814  16.637  39.442  13.000
67489W        W39815  34.562   3.446   2.260
67490W        W39816  10.739  23.190  12.950
67491W        W39817  10.716  21.108   2.892
67492W        W39818   6.376  28.436  11.945
67493W        W39819  37.573  12.339   3.236
67494W        W39820  19.068   7.780   3.357
67495W        W39821  31.576  32.622  12.476
67496W        W39822   9.392  35.035   1.832
67497W        W39823  27.525  17.069  12.016
67498W        W39824  37.472  18.095  11.052
67499W        W39825   4.896  25.469  14.896
67500W        W39826  42.474  11.653  10.900
67501W        W39827  39.884   3.785  10.580
67502W        W39828  13.239   0.787  13.498
67503W        W39829   2.382  22.641  14.383
67504W        W39830  30.518   5.237   1.255
67505W        W39831  18.267  33.094   0.451
67506W        W39832  29.018   0.786   2.243
67507W        W39833  25.017   1.288   3.659
67508W        W39834   2.858   3.767   4.200
67509W        W39835   4.390  12.642  11.522
67510W        W39836  27.990  41.904   3.721
67511W        W39837  16.176  39.381   3.327
67512W        W39838  44.437  24.102   0.483
67513W        W39839  19.588  44.007  14.806
67514W        W39840  41.360  31.124   2.242
67515W        W39841  32.473  11.367   0.869
67516W        W39842   0.783  25.471  10.565
67517W        W39843  31.413  30.946  13.489
67518W        W39844   1.289  32.474  10.544
67519W        W39845   8.742  21.077  11.584
67520W        W39846  24.071  11.740  14.997
67521W        W39847  41.862   6.765   1.418
67522W        W39848   1.250  12.759  10.959
67523W        W39849  28.621  34.998  12.059
67524W        W39850   3.887   7.724  10.990
67525W        W39851  19.630  31.030   1.770
67526W        W39852  42.511   7.391   4.140
67527W        W39853  37.343   5.890  11.372
67528W        W39854  39.809  11.631   0.291
67529W        W39855   9.656  20.266  14.916
67530W        W39856  10.190  31.004   1.836
67531W        W39857  43.979  27.571   0.941
67532W        W39858  28.141  29.425  11.021
67533W        W39859  24.126  15.679   4.153
67534W        W39860  30.914  16.738  14.841
67535W        W39861  34.082  12.321  14.812
67536W        W39862  13.278  44.983   0.438
67537W        W39863  44.282  16.134   1.720
67538W        W39864  28.038  16.125  12.458
67539W        W39865  30.493  29.124  12.580
67540W        W39866  11.261  39.368   4.171
67541W        W39867  15.281   7.828   1.269
67542W        W39868  39.988   5.732   3.735
67543W        W39869   5.871  10.194  13.812
67544W        W39870  22.088  15.720  11.039
67545W        W39871  32.472  32.998  13.825
67546W        W39872  28.107  34.520   0.483
67547W        W39873  39.476   9.655   1.817
67548W        W39874  12.281  44.306  13.867
67549W        W39875   5.732  42.355  13.461
67550W        W39876  42.784   5.392  13.352
67551W        W39877   2.855  42.300  11.098
67552W        W39878  40.990  23.715  11.567
67553W        W39879   7.710  24.193  11.530
67554W        W39880   3.306  13.224  13.873
67555W        W39881  40.909   7.289  12.552
67556W        W39882   2.766  28.467  14.463
67557W        W39883  12.788  41.404   4.289
67558W        W39884  34.056   5.275   4.239
67559W        W39885  23.566   0.296  14.016
67560W        W39886   2.409  14.632  12.082
67561W        W39887  38.503  31.533  14.399
67562W        W39888  23.111  32.956   0.332
67563W        W39889  22.153  11.718   4.160
67564W        W39890  16.266  29.637   4.795
67565W        W39891   6.685  18.621   2.244
67566W        W39892   0.463   3.400   2.214
67567W        W39893  11.255   3.411   0.909
67568W        W39894   8.732  43.335   1.772
67569W        W39895  27.185  22.592  13.953
67570W        W39896  36.860  24.490   4.661
67571W        W39897   1.294   1.977  12.515
67572W        W39898  31.632  35.969  13.374
67573W        W39899   5.267  14.277  13.004
67574W        W39900  31.613  32.141  10.065
67575W        W39901  12.268  34.433  10.641
67576W        W39902  17.598  20.247   1.758
67577W        W39903  13.744  43.410   0.807
67578W        W39904   5.319  38.358   2.685
67579W        W39905  32.592  37.491   1.836
67580W        W39906  32.063  11.222   0.759
67581W        W39907  20.258  24.210   3.274
67582W        W39908  25.514  37.006   4.207
67583W        W39909  34.496  23.720  13.323
67584W        W39910   4.319  24.994   0.319
67585W        W39911  28.477  31.092   3.166
67586W        W39912  28.125  42.875  10.441
67587W        W39913   0.340   6.870   2.736
67588W        W39914   9.214   5.770   1.424
67589W        W39915  39.984   6.713  10.442
67590W        W39916  32.544  12.679  12.017
67591W        W39917   8.211  34.468   2.308
67592W        W39918  15.620   0.471  14.000
67593W        W39919  32.120  26.510  12.959
67594W        W39920  19.580  10.309  10.621
67595W        W39921  23.046   5.248   2.714
67596W        W39922  41.466  15.280  10.434
67597W        W39923  36.964  37.952   1.432
67598W        W39924   3.878   3.945   9.967
67599W        W39925  16.209  27.015  12.515
67600W        W39926  41.381  10.814  14.382
67601W        W39927  16.754  10.791  13.857
67602W        W39928  36.537  36.379   2.862
67603W        W39929  19.705  19.724  10.536
67604W        W39930  32.455  33.097   3.698
67605W        W39931  39.982  34.092  11.054
67606W        W39932  21.184  21.541  13.382
67607W        W39933  29.013  15.610  13.337
67608W        W39934   6.901  19.276  12.577
67609W        W39935  34.042  33.882   4.243
67610W        W39936  28.979   8.900   2.662
67611W        W39937   2.889   2.851   3.789
67612W        W39938  11.683  22.211  11.548
67613W        W39939   1.810   3.390   1.319
67614W        W39940  21.045  11.228  12.580
67615W        W39941  21.732  39.326   4.650
67616W        W39942   8.200  20.599  14.843
67617W        W39943  24.560  11.677   3.192
67618W        W39944  28.972  40.807  12.830
67619W        W39945  21.160  19.233   0.419
67620W        W39946  24.685  43.016   1.882
67621W        W39947   3.455   0.393  13.377
67622W        W39948  10.724  33.447  11.556
67623W        W39949  24.141  18.664   1.344
67624W        W39950  41.863  11.795  14.446
67625W        W39951  27.993   0.462   0.382
67626W        W39952  27.553  30.467  12.843
67627W        W39953  42.844   8.870  14.487
67628W        W39954   6.816  28.451  12.045
67629W        W39955   2.837   4.402   0.342
67630W        W39956  36.040   8.746  12.486
67631W        W39957   1.806  40.500   3.761
67632W        W39958  36.553  43.003  11.397
67633W        W39959  34.542  12.327  14.849
67634W        W39960  29.627  43.464   4.650
67635W        W39961  37.338  20.765   3.169
67636W        W39962  34.581  21.101   0.842
67637W        W39963  29.531  26.157   4.274
67638W        W39964  35.445  20.567   1.398
67639W        W39965  43.954  10.701   3.228
67640W        W39966   3.936   2.294  14.935
67641W        W39967  15.795  41.387  13.361
67642W        W39968   9.694  18.547   4.728
67643W        W39969   4.763  17.216   3.655
67644W        W39970  10.338  36.533  12.887
67645W        W39971  14.740  32.503   3.201
67646W        W39972  30.959  44.393  14.914
67647W        W39973   9.275  24.692  11.985
67648W        W39974  27.503  14.597  11.058
67649W        W39975  24.652  13.139  12.936
67650W        W39976  20.052  30.530   3.252
67651W        W39977  19.758  10.209   1.828
67652W        W39978  42.894  16.259  13.386
67653W        W39979  14.298  21.743  14.308
67654W        W39980  27.593  43.446   4.660
67655W        W39981  29.562  29.072  14.769
67656W        W39982   6.772  10.334   1.912
67657W        W39983   4.361   1.831  14.793
67658W        W39984  12.705  41.856   1.722
67659W        W39985  16.223   4.399   3.246
67660W        W39986  29.098  11.819  10.592
67661W        W39987  14.748   0.338  10.492
67662W        W39988  41.471   2.271  12.948
67663W        W39989  19.235   7.901   4.215
67664W        W39990  16.313  32.501  11.101
67665W        W39991  35.919   2.375   1.282
67666W        W39992  19.268  19.212   0.912
67667W        W39993  40.953  35.869  12.480
67668W        W39994  16.805  37.976   4.153
67669W        W39995  36.512  18.714   2.703
67670W        W39996  39.349  26.030  13.884
67671W        W39997   3.347  29.065   1.223
67672W        W39998  38.386  43.880  13.860
67673W        W39999   5.802  39.992   1.701
67674W        W40000  10.383  29.670  11.578
67675W        W40001   5.738  19.536  14.353
67676W        W40002  43.927  33.440   4.678
67677W        W40003  27.653  44.482   2.289
67678W        W40004   3.784  17.124  12.992
67679W        W40005   7.266  30.065  14.018
67680W        W40006   8.233   3.312  11.039
67681W        W40007   7.874  28.541   2.765
67682W        W40008  34.472  38.518  11.420
67683W        W40009  36.380  10.722   5.632
67684W        W40010  11.292  20.608  13.319
67685W        W40011  32.962  23.205   3.761
67686W        W40012   8.372  26.590   4.184
67687W        W40013  22.045  14.117  11.027
67688W        W40014  10.171  34.580   2.385
67689W        W40015  38.837  39.046   3.160
67690W        W40016  24.650  33.048  12.395
67691W        W40017  33.492  19.275  13.318
67692W        W40018  30.938  16.769   4.600
67693W        W40019  37.923  42.517   2.672
67694W        W40020   8.290  39.462   0.321
67695W        W40021  35.065  15.731  13.380
67696W        W40022  21.745  38.498  12.070
67697W        W40023  44.869  11.370   3.731
67698W        W40024  21.247  12.847  14.889
67699W        W40025  17.692  11.813   3.751
67700W        W40026  24.585   9.872   0.910
67701W        W40027  17.730  18.237   4.275
67702W        W40028  30.527  23.093  12.369
67703W        W40029  29.992  37.020   4.304
67704W        W40030  17.215  19.056  10.606
67705W        W40031  16.306  44.885   0.798
67706W        W40032  24.063  40.350  12.916
67707W        W40033  19.612  39.810   0.465
67708W        W40034  18.078   5.215  12.350
67709W        W40035  40.025   0.794   2.217
67710W        W40036  21.254   2.821  13.992
67711W        W40037   7.696  27.062  10.493
67712W        W40038  22.109  19.259   4.209
67713W        W40039  27.476   6.711   4.176
67714W        W40040  38.497  43.896  12.481
67715W        W40041   5.815  15.663   2.389
67716W        W40042  29.129  36.423   1.858
67717W        W40043  28.967  18.202  12.412
67718W        W40044  17.716  33.544   2.698
67719W        W40045  28.598  27.468  12.925
67720W        W40046  25.083  10.372  10.609
67721W        W40047  31.959   1.753  10.083
67722W        W40048  44.950  18.055   3.740
67723W        W40049  27.109  27.546   5.084
67724W        W40050   0.454   3.230  14.418
67725W        W40051  18.730   9.231  12.982
67726W        W40052   3.905  32.103   1.290
67727W        W40053   1.866  18.785   2.289
67728W        W40054  37.421  24.983   4.751
67729W        W40055   3.306  20.037  11.976
67730W        W40056   0.767  16.122   4.633
67731W        W40057  35.912  14.222   2.274
67732W        W40058  25.044   7.251  11.072
67733W        W40059  44.006   9.203  14.909
67734W        W40060   4.307  30.925   1.443
67735W        W40061  43.271  39.942  12.444
67736W        W40062  40.974  30.001   1.752
67737W        W40063  26.592  23.634  11.502
67738W        W40064  19.670   9.682   1.824
67739W        W40065  22.250  18.062   4.178
67740W        W40066   7.824  15.788  13.055
67741W        W40067  24.589  14.674   1.818
67742W        W40068  44.962   7.835  14.384
67743W        W40069  13.151  32.136   1.711
67744W        W40070  27.491  17.568   0.328
67745W        W40071  29.518  43.492  11.912
67746W        W40072   5.769  24.163  14.936
67747W        W40073  12.688  38.019   4.248
67748W        W40074  11.145  18.172  14.844
67749W        W40075  26.126  24.042  12.928
67750W        W40076  18.215  18.085  12.056
67751W        W40077  36.472  42.844  14.881
67752W        W40078  24.133  43.844   4.277
67753W        W40079  33.130   8.284  12.932
67754W        W40080  29.634  35.543  14.292
67755W        W40081   5.208   2.962   3.342
67756W        W40082  31.107  18.170   3.225
67757W        W40083   3.253  34.609   2.731
67758W        W40084   5.246  29.053  14.282
67759W        W40085  27.530  19.735   1.799
67760W        W40086  18.097  23.046  13.027
67761W        W40087  27.038  39.461  13.429
67762W        W40088  39.448  43.395   3.652
67763W        W40089  28.510  34.596  14.916
67764W        W40090  21.546  13.648   0.420
67765W        W40091  32.475  37.995  10.517
67766W        W40092  20.609  24.993  11.904
67767W        W40093   8.878  30.952  13.936
67768W        W40094  12.276   4.912   3.790
67769W        W40095  41.950   6.704   1.759
67770W        W40096  21.098  17.283  12.086
67771W        W40097  24.540  42.972  10.899
67772W        W40098  19.738  30.084   3.819
67773W        W40099  41.910  44.370  11.563
67774W        W40100   2.749   7.335   2.852
67775W        W40101  44.458  15.151   2.240
67776W        W40102  10.810  44.821   2.246
67777W        W40103  25.099   2.821   4.188
67778W        W40104   6.250  20.162   1.695
67779W        W40105   6.369  32.538   2.412
67780W        W40106  33.455   6.874  11.061
67781W        W40107  29.120  41.300   1.918
67782W        W40108  30.587  40.461  13.478
67783W        W40109  36.093  35.893   3.854
67784W        W40110  33.523  18.095  12.018
67785W        W40111  34.882  25.602  11.029
67786W        W40112   6.277  37.427  10.519
67787W        W40113  41.003   7.320  10.523
67788W        W40114  41.404  12.351   2.746
67789W        W40115  32.472  42.865  13.932
67790W        W40116  24.520  12.684  14.970
67791W        W40117  19.139  38.357  11.465
67792W        W40118   2.230  43.472   3.301
67793W        W40119  35.107  34.940  12.453
67794W        W40120  35.476  24.694  12.407
67795W        W40121  13.277  32.026   0.307
67796W        W40122  43.871  24.067   0.797
67797W        W40123  12.331  19.118   2.768
67798W        W40124  33.059  38.363  11.998
67799W        W40125  31.965   0.895   4.806
67800W        W40126  17.611  12.151   2.803
67801W        W40127   3.858   3.374   3.790
67802W        W40128  35.996   5.785   3.658
67803W        W40129  43.288  19.049  12.369
67804W        W40130  38.462  27.979   1.237
67805W        W40131  26.114  11.626  10.959
67806W        W40132  26.558  16.801  13.840
67807W        W40133  29.567  35.403   4.815
67808W        W40134   6.262  22.585  12.497
67809W        W40135  44.344  38.892   3.691
67810W        W40136  29.041  33.509   4.698
67811W        W40137  11.859   7.677   2.373
67812W        W40138  17.167   9.355  14.340
67813W        W40139   6.182  40.929  14.834
67814W        W40140  39.952  13.827  12.911
67815W        W40141  20.244  43.405  12.872
67816W        W40142  21.652   6.260   2.702
67817W        W40143  17.247  23.531  13.399
67818W        W40144  19.167  38.378  13.929
67819W        W40145  42.298   5.777   0.827
67820W        W40146  37.373  27.039  10.467
67821W        W40147  17.673  23.560  12.086
67822W        W40148  23.115   8.350  10.920
67823W        W40149  41.495   2.823  13.398
67824W        W40150  26.603   2.940  12.077
67825W        W40151   3.875  12.713   1.924
67826W        W40152  25.074  14.817   0.868
67827W        W40153  42.852  26.698   0.283
67828W        W40154   6.400  27.573   1.346
67829W        W40155  42.393   7.379   1.281
67830W        W40156  35.996  43.810   0.912
67831W        W40157  43.456   6.201   2.868
67832W        W40158   5.837   5.232  13.024
67833W        W40159  34.897  37.336  12.004
67834W        W40160   2.333  44.327   3.763
67835W        W40161  26.182  12.233  11.375
67836W        W40162   5.914  40.506   2.833
67837W        W40163  15.617  13.152   4.723
67838W        W40164  26.531  44.341   0.910
67839W        W40165  41.963  44.826   2.178
67840W        W40166  35.394  21.668  14.432
67841W        W40167  22.072  19.156   4.631
67842W        W40168  41.034  14.728   4.737
67843W        W40169  11.164  30.416  11.046
67844W        W40170  40.033  35.428   2.268
67845W        W40171  18.757  23.188   2.277
67846W        W40172   0.473  23.508  13.974
67847W        W40173  22.692  23.516  12.394
67848W        W40174  37.978   9.270   4.774
67849W        W40175  39.938  23.093  12.558
67850W        W40176  15.794  23.712  13.839
67851W        W40177  33.402  22.691  11.070
67852W        W40178  25.497  40.333  10.607
67853W        W40179  22.075   4.444  13.350
67854W        W40180  44.361   0.791   2.739
67855W        W40181  15.155  26.106   4.236
67856W        W40182  39.444  35.874   3.864
67857W        W40183  32.899  28.524  12.077
67858W        W40184  39.979   7.344  12.405
67859W        W40185  36.988  22.050   3.860
67860W        W40186  26.974  42.972   1.324
67861W        W40187  31.623   1.966  14.473
67862W        W40188  41.896  19.557  10.507
67863W        W40189  38.545   2.838   1.318
67864W        W40190  34.930  26.661   0.884
67865W        W40191  43.383  22.233   4.199
67866W        W40192  15.309  10.855   2.237
67867W        W40193  34.535   1.270  12.531
67868W        W40194   4.239   6.898   2.350
67869W        W40195  10.663  30.568   4.195
67870W        W40196  22.055  18.584   4.318
67871W        W40197  16.210  25.685   3.839
67872W        W40198  17.106   9.322   4.617
67873W        W40199  33.611  27.503   3.758
67874W        W40200   4.867   0.411   4.615
67875W        W40201  27.499  22.225  13.331
67876W        W40202   2.445  39.859   1.811
67877W        W40203  29.484   6.329  14.979
67878W        W40204   2.773  22.575  10.093
67879W        W40205  16.789  21.207   2.807
67880W        W40206  38.508  32.003   3.661
67881W        W40207   6.838  20.270  11.870
67882W        W40208  18.254  19.575   2.223
67883W        W40209  36.982  26.649   4.313
67884W        W40210  12.842  13.248  13.427
67885W        W40211  31.970  12.802   3.866
67886W        W40212  24.511  39.509  14.810
67887W        W40213   5.215  30.470  13.871
67888W        W40214  32.609  20.183   2.302
67889W        W40215  37.546  19.669  12.342
67890W        W40216  33.551  34.110  10.025
67891W        W40217   4.886  38.936   5.268
67892W        W40218  37.967  32.035   4.766
67893W        W40219  15.132  14.198   2.292
67894W        W40220  33.094  28.995   0.331
67895W        W40221  25.111  11.674   3.850
67896W        W40222  37.568  25.613  11.381
67897W        W40223   1.393  36.453   2.327
67898W        W40224   3.761  23.183   4.323
67899W        W40225  34.425   4.846   0.452
67900W        W40226  43.370  33.452  11.493
67901W        W40227  33.907   4.901   0.307
67902W        W40228  37.419   6.311   2.399
67903W        W40229  33.431   8.238   2.744
67904W        W40230   1.866  22.545   2.773
67905W        W40231  26.085  10.829  14.836
67906W        W40232  20.624  34.026   4.745
67907W        W40233  26.988  44.306  12.922
67908W        W40234  27.137  39.026  11.064
67909W        W40235  28.013  24.130  13.015
67910W        W40236  28.549  40.335   0.409
67911W        W40237  14.339  30.535   4.214
67912W        W40238   7.252   7.821   0.383
67913W        W40239  25.979  15.188   4.217
67914W        W40240  30.065  23.628  12.442
67915W        W40241  11.144   2.360  10.593
67916W        W40242  41.042   1.836   3.367
67917W        W40243  15.739  28.930   4.282
67918W        W40244  31.531   5.873  12.560
67919W        W40245  25.490  24.171   2.894
67920W        W40246   8.179  12.182   0.396
67921W        W40247   0.917  29.533  13.482
67922W        W40248   7.885  29.115  10.121
67923W        W40249  22.022   8.398   2.389
67924W        W40250  16.173  38.063   1.416
67925W        W40251  17.687  24.515  12.461
67926W        W40252  39.319  14.620  12.544
67927W        W40253  44.495  10.774   2.793
67928W        W40254  36.930   4.784   2.751
67929W        W40255  32.931  19.777   0.259
67930W        W40256  39.898  28.997   4.328
67931W        W40257  21.204  41.386  11.606
67932W        W40258  18.212  23.504   0.835
67933W        W40259   6.294  29.529  12.361
67934W        W40260   1.755  36.508  11.510
67935W        W40261  21.682  29.994  12.507
67936W        W40262  26.988   1.830  14.887
67937W        W40263  37.480  37.393  12.978
67938W        W40264  43.292   1.855  12.492
67939W        W40265  20.726  13.735   0.304
67940W        W40266  13.774  18.189   4.706
67941W        W40267   4.311  38.904  14.451
67942W        W40268  37.086  43.939  11.413
67943W        W40269  41.921  28.950   0.447
67944W        W40270  33.508   0.291   2.851
67945W        W40271  22.604  28.015   3.830
67946W        W40272  33.534   0.830   3.662
67947W        W40273  34.969  36.062  12.827
67948W        W40274  18.139  43.850  11.888
67949W        W40275  24.991  22.734  13.859
67950W        W40276   1.348   6.861  11.888
67951W        W40277  11.648  43.968  10.950
67952W        W40278  17.722   8.825   0.250
67953W        W40279  40.317  37.376  14.853
67954W        W40280  29.624   7.877   1.285
67955W        W40281   2.916  40.544  10.634
67956W        W40282  42.843  39.317  12.413
67957W        W40283  10.209  40.813  11.947
67958W        W40284  27.457  41.837  12.063
67959W        W40285  23.087  15.099  10.609
67960W        W40286  42.867  27.161  13.410
67961W        W40287  30.061  37.495   0.881
67962W        W40288  38.906  28.167   3.756
67963W        W40289  24.167   4.937  14.809
67964W        W40290  29.064   1.252  13.322
67965W        W40291  28.078  15.699   0.299
67966W        W40292  44.774  20.608   0.439
67967W        W40293   4.288  42.362   3.260
67968W        W40294  41.484  35.485   2.859
67969W        W40295  24.157  16.617   2.679
67970W        W40296  36.855  25.978   4.818
67971W        W40297  24.668   3.740   4.762
67972W        W40298  27.170  16.637   2.801
67973W        W40299   9.679  35.600   0.281
67974W        W40300  21.036  41.314  14.424
67975W        W40301  12.227   3.734   3.631
67976W        W40302  36.428  38.447   0.756
67977W        W40303   2.380   4.820  10.145
67978W        W40304   5.931  39.432  13.941
67979W        W40305   0.827  12.692  13.311
67980W        W40306  23.661  29.076   4.754
67981W        W40307  40.874  23.519   3.318
67982W        W40308   8.665  31.987  13.003
67983W        W40309  13.148  10.258  12.902
67984W        W40310   9.164  28.004   3.148
67985W        W40311  43.331  27.999  14.874
67986W        W40312   8.219  23.728  14.414
67987W        W40313  16.661   8.816   0.913
67988W        W40314   3.264  15.583  14.390
67989W        W40315   0.402  44.808  11.000
67990W        W40316  18.674   6.731  10.899
67991W        W40317  15.269  15.108   1.265
67992W        W40318  19.592  29.561   4.719
67993W        W40319  12.253  25.632  10.915
67994W        W40320  23.684  26.463  11.535
67995W        W40321  29.556   4.845  14.304
67996W        W40322  35.601   7.690   3.698
67997W        W40323  22.580  37.931   4.598
67998W        W40324  41.491  32.442  14.760
67999W        W40325  35.989   4.441  14.373
68000W        W40326  10.878  24.688  12.405
68001W        W40327  32.957   1.843   4.333
68002W        W40328  38.856   8.236   0.727
68003W        W40329  24.057  42.364   1.386
68004W        W40330  18.176  20.710  13.429
68005W        W40331  20.102  39.039  12.048
68006W        W40332   2.267  33.064  13.888
68007W        W40333  23.632  40.499  14.392
68008W        W40334  16.657  19.134  11.373
68009W        W40335  44.331  39.918   0.301
68010W        W40336  31.081  40.545   4.295
68011W        W40337  16.302   1.809  11.004
68012W        W40338  12.280   8.760   0.861
68013W        W40339   7.864  12.341   4.779
68014W        W40340   6.781  27.520   3.659
68015W        W40341  36.947  22.117  10.513
68016W        W40342  18.675  12.274   0.403
68017W        W40343  36.924  25.478   4.695
68018W        W40344  34.110  16.805   2.801
68019W        W40345  23.645   9.824  10.439
68020W        W40346  27.549   7.273  11.446
68021W        W40347  37.345  17.124   2.754
68022W        W40348  11.711  26.138   3.349
68023W        W40349  26.469  15.172   0.906
68024W        W40350  21.055  22.662  12.451
68025W        W40351  11.848  39.364   0.868
68026W        W40352  36.877  23.506   1.358
68027W        W40353  11.760   4.836   1.427
68028W        W40354  13.121  33.473  10.467
68029W        W40355   6.691   8.782  10.898
68030W        W40356  10.292   9.278  12.847
68031W        W40357   0.252  19.180   3.829
68032W        W40358   0.966  30.453   2.765
68033W        W40359   4.295   7.746   3.861
68034W        W40360  44.313   9.294  10.585
68035W        W40361   6.400  38.989   0.429
68036W        W40362  26.011   4.732  10.469
68037W        W40363  37.570  36.894  13.310
68038W        W40364   1.456   7.257   0.938
68039W        W40365  31.470  42.925  11.970
68040W        W40366  19.589  16.124  11.970
68041W        W40367   6.846  21.535  11.984
68042W        W40368  20.054  10.200  10.983
68043W        W40369  41.937  44.908   4.730
68044W        W40370   3.354   2.797  13.910
68045W        W40371  19.210  14.809   0.282
68046W        W40372  13.218  40.367   5.227
68047W        W40373  30.549   7.761  14.886
68048W        W40374  19.231  37.972  11.886
68049W        W40375  18.561  38.403   0.324
68050W        W40376   4.873  34.388   0.336
68051W        W40377  44.366  32.127   3.839
68052W        W40378  10.810  33.876   1.281
68053W        W40379  42.967   0.763  14.005
68054W        W40380  32.950  43.831   3.215
68055W        W40381  38.570   7.864   4.658
68056W        W40382  40.525  10.224   3.633
68057W        W40383  24.588   6.878  12.498
68058W        W40384  11.232  28.056   4.831
68059W        W40385  33.953  35.082   2.881
68060W        W40386  17.762  23.611  12.937
68061W        W40387  23.053  35.953   1.862
68062W        W40388   8.221  33.548  12.487
68063W        W40389  37.086  25.114   1.412
68064W        W40390   8.296   4.740   0.842
68065W        W40391   0.387  28.681   0.802
68066W        W40392  13.304   9.214   2.219
68067W        W40393  31.055  32.101  13.523
68068W        W40394   8.827   4.905   2.828
68069W        W40395  15.805   2.879   0.934
68070W        W40396   3.310  27.990   4.283
68071W        W40397   2.328  26.532  13.045
68072W        W40398   0.472  37.481  10.641
68073W        W40399  33.992   2.411   3.217
68074W        W40400  28.512  23.529   0.843
68075W        W40401  44.335  35.568  12.430
68076W        W40402   2.389   3.379   3.703
68077W        W40403  12.198   4.354  14.793
68078W        W40404  36.005   6.775   2.775
68079W        W40405   9.160  28.126  10.410
68080W        W40406  19.240   8.211   0.245
68081W        W40407  33.972  23.697   0.360
68082W        W40408  37.023  39.517  10.615
68083W        W40409  32.991   7.235   4.820
68084W        W40410  36.423  44.948  12.478
68085W        W40411   0.779  11.215   4.705
68086W        W40412  19.728  21.755  13.322
68087W        W40413  30.026   9.701   0.326
68088W        W40414  20.575   5.689  13.496
68089W        W40415  17.589  25.592   2.810
68090W        W40416  41.388  12.849  11.490
68091W        W40417  25.114  13.226  11.593
68092W        W40418   5.376  26.046  11.451
68093W        W40419  40.385  20.111   3.677
68094W        W40420   8.889  27.133  12.577
68095W        W40421  35.595   6.330  13.354
68096W        W40422   6.219   2.893   2.680
68097W        W40423  27.546  32.957  12.408
68098W        W40424  10.721  18.117  11.876
68099W        W40425  11.621   9.380   0.916
68100W        W40426  24.212  10.747  11.889
68101W        W40427   5.232  33.915  11.371
68102W        W40428  16.701  44.956  14.318
68103W        W40429   9.374   9.679  10.952
68104W        W40430  31.150   9.814  12.936
68105W        W40431  18.557  39.411  11.953
68106W        W40432  22.232  14.832   3.318
68107W        W40433  22.585  15.230   3.863
68108W        W40434  24.688  31.089  10.431
68109W        W40435  27.009  19.141  13.843
68110W        W40436  41.895   5.695   0.313
68111W        W40437  42.426  14.757  14.843
68112W        W40438  21.697  34.016   3.249
68113W        W40439   7.899   2.251   2.331
68114W        W40440  17.291  32.606   2.304
68115W        W40441  36.842  27.947  11.549
68116W        W40442   0.786  34.510  12.931
68117W        W40443   8.824   7.865   0.352
68118W        W40444  22.651  14.817   2.879
68119W        W40445  10.195  14.612  11.100
68120W        W40446  21.590  17.791  13.882
68121W        W40447  10.703  23.675   1.853
68122W        W40448  27.544  21.520   4.322
68123W        W40449   0.784   3.893   2.707
68124W        W40450  11.233  15.608   4.123
68125W        W40451  13.223  31.948  14.785
68126W        W40452  23.192  37.872  14.805
68127W        W40453  37.352  12.227  14.442
68128W        W40454  20.708  38.500   5.578
68129W        W40455  27.128  13.640   4.330
68130W        W40456  39.417  34.551   2.742
68131W        W40457  19.222   5.239   1.720
68132W        W40458  31.583   8.162   1.853
68133W        W40459  33.589  44.413   4.672
68134W        W40460  36.563   7.692  10.559
68135W        W40461  38.942  34.903   0.435
68136W        W40462  20.131   8.709   0.429
68137W        W40463  24.163  30.602   1.351
68138W        W40464  43.830  18.063  14.349
68139W        W40465  35.946   2.281  13.530
68140W        W40466  16.759  43.396  14.984
68141W        W40467  17.701   5.770   0.292
68142W        W40468   6.726  30.604  13.533
68143W        W40469  20.244   5.911  12.385
68144W        W40470  23.097  26.548  11.571
68145W        W40471   6.814  31.964  11.858
68146W        W40472  26.184   8.277  14.010
68147W        W40473  24.575   0.489  14.302
68148W        W40474  19.172  44.366   4.164
68149W        W40475  25.110   3.856   3.828
68150W        W40476  29.008  36.025  13.011
68151W        W40477   7.189  40.447   1.708
68152W        W40478  41.395  44.952  11.491
68153W        W40479  20.764   2.904   1.785
68154W        W40480  20.522   4.366  14.354
68155W        W40481   9.326  37.037  14.835
68156W        W40482  23.711  36.886   9.657
68157W        W40483  10.700  22.514  12.906
68158W        W40484  15.716   8.857  12.432
68159W        W40485  34.933  32.125   4.213
68160W        W40486  21.517  26.048   2.252
68161W        W40487  29.558  25.575  13.421
68162W        W40488  12.675  25.039   4.836
68163W        W40489  19.219  34.084   3.283
68164W        W40490  33.492  28.503   0.924
68165W        W40491   5.358  39.456  10.441
68166W        W40492  28.017  27.673   0.289
68167W        W40493  27.571  42.935  11.537
68168W        W40494  38.865   4.778   3.832
68169W        W40495  23.208  44.986  13.941
68170W        W40496  35.493  13.663  13.938
68171W        W40497  30.564  26.516   0.903
68172W        W40498  37.485  37.579   4.208
68173W        W40499  23.604  23.716  14.475
68174W        W40500  19.228   4.707   4.601
68175W        W40501  25.966  21.558   3.289
68176W        W40502  14.112  41.476  13.815
68177W        W40503  26.132  17.576  13.985
68178W        W40504   6.804  12.628  14.947
68179W        W40505  33.010  28.596  11.095
68180W        W40506  27.957  17.192   2.323
68181W        W40507  25.987  32.892  13.471
68182W        W40508  25.675  15.667   9.637
68183W        W40509   9.646  10.383  10.924
68184W        W40510  20.574  17.609   4.710
68185W        W40511  44.468  41.916   1.357
68186W        W40512   8.757   3.828   4.289
68187W        W40513  20.608   0.261   0.407
68188W        W40514   1.744  22.522   2.308
68189W        W40515   5.235   1.960  11.476
68190W        W40516  34.449  11.324   3.757
68191W        W40517   8.693  23.679  12.885
68192W        W40518  24.648  36.494  12.466
68193W        W40519  37.532   9.313  11.907
68194W        W40520  21.187  18.246  14.985
68195W        W40521  16.303  25.683   1.431
68196W        W40522  30.010  36.079  12.375
68197W        W40523  44.858  25.185   3.377
68198W        W40524  37.905   0.981  14.911
68199W        W40525  26.982  23.241  13.818
68200W        W40526   8.846  36.913  14.809
68201W        W40527  18.264  23.676  12.490
68202W        W40528  13.293  31.589   2.416
68203W        W40529  28.519  26.183   9.970
68204W        W40530  26.499  31.991  10.114
68205W        W40531  24.698  15.710  13.341
68206W        W40532  30.445  31.125   3.646
68207W        W40533   1.867  36.013  12.521
68208W        W40534  40.515  22.206   4.218
68209W        W40535  14.320   2.312  10.581
68210W        W40536  32.584   5.208  11.600
68211W        W40537  28.548   8.283  11.534
68212W        W40538  25.024  11.367  14.337
68213W        W40539   0.332  15.619  11.028
68214W        W40540  41.838  24.551   3.844
68215W        W40541  23.123  37.551   3.382
68216W        W40542  38.344   3.246   1.242
68217W        W40543  22.710   5.885   4.791
68218W        W40544   4.939  29.114   0.461
68219W        W40545  22.056   5.294  12.457
68220W        W40546  11.130  30.146  14.843
68221W        W40547  21.092  27.970   3.256
68222W        W40548  19.554  35.582   4.149
68223W        W40549  15.212  26.488   4.239
68224W        W40550  40.048  35.010  13.978
68225W        W40551  41.410  15.135  12.473
68226W        W40552   1.972  43.326  11.008
68227W        W40553  33.895  43.778   0.341
68228W        W40554   4.383   5.878   3.147
68229W        W40555  33.941  27.090   4.211
68230W        W40556  32.959  27.571  14.416
68231W        W40557  20.623  31.491   3.230
68232W        W40558  27.499  18.744   2.866
68233W        W40559   9.391   4.307   4.834
68234W        W40560  27.025  30.125   4.315
68235W        W40561  34.880  33.595   0.407
68236W        W40562  30.516  25.505   4.745
68237W        W40563  10.179   0.935   4.702
68238W        W40564  41.841  13.736  13.864
68239W        W40565  32.408  27.544   4.718
68240W        W40566  19.165   3.274   2.748
68241W        W40567  35.910  18.703   0.332
68242W        W40568  37.024  43.454  14.762
68243W        W40569   4.875  40.484   1.864
68244W        W40570  35.502  22.523  12.916
68245W        W40571  10.867  23.006  14.781
68246W        W40572  19.649  24.012   3.717
68247W        W40573   1.953  10.843  14.991
68248W        W40574  26.091  38.024  11.540
68249W        W40575  38.837  25.710  14.835
68250W        W40576  33.443  27.125  11.552
68251W        W40577   1.965  18.607   1.433
68252W        W40578  25.707  28.072   2.817
68253W        W40579   6.206  24.498  10.925
68254W        W40580  20.035  42.802   1.863
68255W        W40581  22.194  43.928  14.330
68256W        W40582  26.083  28.642  11.865
68257W        W40583  16.650  15.649   2.742
68258W        W40584  31.403  19.166   4.761
68259W        W40585  41.891  18.563  14.398
68260W        W40586   4.709  27.030  11.020
68261W        W40587  44.862  26.080   1.281
68262W        W40588  15.190   8.660   2.260
68263W        W40589   7.189  10.267  14.285
68264W        W40590  16.149  35.998   4.342
68265W        W40591   0.801   7.832  11.523
68266W        W40592  21.620  20.226  12.360
68267W        W40593  11.672  36.033  14.854
68268W        W40594  33.960  40.889   3.212
68269W        W40595  20.185  16.163   0.827
68270W        W40596  33.021   5.359   3.353
68271W        W40597  24.513   0.442  12.454
68272W        W40598   1.431  34.113  14.849
68273W        W40599  31.961   4.887  10.614
68274W        W40600  41.421  44.266   2.181
68275W        W40601  18.107   1.918   1.795
68276W        W40602  35.455  25.975   1.237
68277W        W40603  31.124  11.697   3.360
68278W        W40604  40.019  39.994  11.931
68279W        W40605  14.800   7.763  13.383
68280W        W40606   0.759   0.429  11.872
68281W        W40607  35.959  34.408  14.855
68282W        W40608  41.976  27.068  11.046
68283W        W40609  18.211  34.534  12.830
68284W        W40610  38.418  27.637   1.707
68285W        W40611  36.905   5.345   2.695
68286W        W40612  17.208  32.086  12.997
68287W        W40613  21.682  25.138   0.313
68288W        W40614  24.717  31.974  14.437
68289W        W40615  36.850   8.282  12.836
68290W        W40616  32.045  44.848  13.532
68291W        W40617   2.909  30.634  10.960
68292W        W40618  10.284  10.233  10.042
68293W        W40619  31.599   6.195  10.907
68294W        W40620   4.247  43.979   1.714
68295W        W40621  27.669  10.838  10.471
68296W        W40622   3.867  34.571   1.808
68297W        W40623  34.580  29.956  10.544
68298W        W40624   3.937  36.550  12.036
68299W        W40625  43.330  36.877   3.834
68300W        W40626   0.984   8.707  12.436
68301W        W40627  11.259  41.946  13.896
68302W        W40628  36.859  33.999  13.439
68303W        W40629  35.941  38.332  13.511
68304W        W40630  30.930  21.216  10.507
68305W        W40631  38.492  29.448   3.717
68306W        W40632  40.042  12.846  14.399
68307W        W40633  12.229  22.568   4.832
68308W        W40634  43.389  31.992  11.425
68309W        W40635  15.605   3.370  10.496
68310W        W40636  13.700  29.115  11.514
68311W        W40637   8.377  24.197   2.265
68312W        W40638  30.122  26.507  11.462
68313W        W40639  16.119  17.590   4.194
68314W        W40640  37.932   6.190  10.450
68315W        W40641  41.899  12.655   1.822
68316W        W40642   3.335   2.869  12.537
68317W        W40643  12.640  12.122  11.472
68318W        W40644   5.704  26.079   0.921
68319W        W40645  21.626  38.449  12.426
68320W        W40646  27.596  35.865   4.292
68321W        W40647   2.325  15.204   3.174
68322W        W40648  15.636  41.966   0.915
68323W        W40649  25.003  32.015   2.878
68324W        W40650  23.682  38.509  14.837
68325W        W40651  30.070  23.241   4.717
68326W        W40652   4.371  19.245  12.567
68327W        W40653  32.092  39.540   4.333
68328W        W40654  15.181  38.336   1.372
68329W        W40655  27.491  42.923  14.784
68330W        W40656  16.664   8.292   0.832
68331W        W40657   7.843   6.192  14.815
68332W        W40658  38.418  27.075   3.771
68333W        W40659  25.482  18.560  13.516
68334W        W40660  18.609  17.799  11.597
68335W        W40661  37.844  26.500  14.502
68336W        W40662  16.740   9.221   4.281
68337W        W40663   7.344  40.324  11.431
68338W        W40664  30.490   9.669  12.041
68339W        W40665  12.248  32.011  13.065
68340W        W40666  28.148  43.948  12.452
68341W        W40667   0.474  11.325  13.380
68342W        W40668  31.524  31.985  10.970
68343W        W40669  26.152  15.725   9.627
68344W        W40670   7.801  25.025   3.292
68345W        W40671  28.622  11.332   1.350
68346W        W40672   2.754   5.244   3.656
68347W        W40673  26.532  15.709   4.179
68348W        W40674  27.666   5.723  14.302
68349W        W40675  40.422  12.792   0.339
68350W        W40676   7.212  43.788  14.372
68351W        W40677  42.016  42.018  13.986
68352W        W40678   7.685  40.892   2.811
68353W        W40679   1.242  17.179  10.460
68354W        W40680   5.925  12.194   0.382
68355W        W40681   7.270  13.724   0.803
68356W        W40682   5.780  36.497  10.489
68357W        W40683  28.469  23.131  12.544
68358W        W40684  27.079  15.157  14.904
68359W        W40685   4.440  36.085   1.806
68360W        W40686   6.323  43.405  13.339
68361W        W40687   7.775  13.307   3.645
68362W        W40688  12.853  34.042   0.440
68363W        W40689   0.819   5.194   1.806
68364W        W40690  16.583  14.758  11.986
68365W        W40691  38.521  27.530   0.310
68366W        W40692  40.923  32.979   3.858
68367W        W40693  29.015  28.102  12.446
68368W        W40694  17.297  40.912  10.903
68369W        W40695  30.570  13.705   0.345
68370W        W40696  10.696  15.605   0.333
68371W        W40697  43.883  26.566   4.668
68372W        W40698  24.223  25.544   4.201
68373W        W40699  17.068   5.864   3.733
68374W        W40700  22.078  29.565  10.618
68375W        W40701  22.573   9.264   0.821
68376W        W40702  34.058  43.867  13.970
68377W        W40703   5.905  32.904  12.831
68378W        W40704   8.380   7.702   4.332
68379W        W40705  13.785   9.291  10.910
68380W        W40706   9.687   7.222   1.882
68381W        W40707  23.663  24.531   3.709
68382W        W40708  16.574   7.219  12.858
68383W        W40709   3.396  30.595   0.458
68384W        W40710  10.790  25.160  11.527
68385W        W40711  41.039  23.571  14.413
68386W        W40712  39.342  37.448   1.742
68387W        W40713  38.363  10.342   9.622
68388W        W40714  36.443  20.249   4.150
68389W        W40715   4.931  26.953  11.519
68390W        W40716  16.291  22.548  10.631
68391W        W40717  38.949  44.943  11.514
68392W        W40718   5.297   1.974   0.328
68393W        W40719  38.999  20.656  10.021
68394W        W40720   4.837  21.590  11.611
68395W        W40721  37.336   4.283  10.638
68396W        W40722  34.038  14.309   0.330
68397W        W40723  18.168   6.219   0.346
68398W        W40724  29.611   7.726   2.367
68399W        W40725  11.346  38.918   4.309
68400W        W40726  18.591  23.580   0.962
68401W        W40727   0.328  20.163   3.691
68402W        W40728   9.344  28.980   0.737
68403W        W40729   8.396  26.058   4.133
68404W        W40730  12.208  38.503  12.061
68405W        W40731   2.835  19.154  10.933
68406W        W40732  41.802  24.653  13.923
68407W        W40733  15.219  22.640   0.250
68408W        W40734  22.593  40.407  14.931
68409W        W40735  29.468  35.568   0.771
68410W        W40736   9.749  34.995  14.423
68411W        W40737  20.717  23.191   2.287
68412W        W40738  29.557   6.269  12.923
68413W        W40739  23.584  18.683  12.513
68414W        W40740  43.858  25.475   4.824
68415W        W40741  17.232  43.903   1.301
68416W        W40742  40.501   6.771  11.432
68417W        W40743  43.380  21.634   2.188
68418W        W40744  26.018  15.237   3.649
68419W        W40745  26.095   3.885  10.563
68420W        W40746  42.444  29.991   0.254
68421W        W40747  13.773  21.231   2.297
68422W        W40748  42.502  42.009  12.492
68423W        W40749   0.398  32.116   3.324
68424W        W40750  27.569   7.731  10.924
68425W        W40751  29.544  15.740   2.808
68426W        W40752  24.601  36.992   2.862
68427W        W40753  15.205   4.718   1.268
68428W        W40754  20.543  33.570  10.923
68429W        W40755  28.476  28.645   3.808
68430W        W40756  34.502  36.520  14.006
68431W        W40757  17.064  35.448  14.476
68432W        W40758  12.270  18.610   1.716
68433W        W40759  14.134   7.293  14.974
68434W        W40760  35.093  25.602   3.189
68435W        W40761  22.186  33.429  14.907
68436W        W40762   5.245  14.123   1.415
68437W        W40763  14.210  38.037  11.602
68438W        W40764  27.959  15.326  13.948
68439W        W40765  15.163  22.199   2.847
68440W        W40766   5.886  38.011  14.480
68441W        W40767   4.417  13.835  12.066
68442W        W40768  13.300  37.936  13.801
68443W        W40769  20.757  22.012  10.968
68444W        W40770  27.151   6.200   4.728
68445W        W40771  19.113   1.835   0.403
68446W        W40772  39.334  39.394   4.268
68447W        W40773  22.600   1.926  10.128
68448W        W40774  33.537  38.977   0.386
68449W        W40775  30.559  13.827  12.412
68450W        W40776   3.445  31.063   3.867
68451W        W40777  20.547  44.815  13.338
68452W        W40778   0.767  38.860   4.182
68453W        W40779  37.893   9.312   1.836
68454W        W40780  23.199   7.182  14.778
68455W        W40781  44.803  43.018  14.351
68456W        W40782  39.480  42.487  12.016
68457W        W40783  38.958  26.507  10.429
68458W        W40784   9.253  31.533   2.757
68459W        W40785   8.189  17.086  11.956
68460W        W40786  13.699  23.191   3.327
68461W        W40787  37.406   3.427  12.987
68462W        W40788  41.023  13.688   3.731
68463W        W40789  34.504   8.789  12.909
68464W        W40790  25.123  18.593  10.973
68465W        W40791   4.423  42.330   4.629
68466W        W40792  41.843   3.283   9.928
68467W        W40793  21.150  18.132  13.310
68468W        W40794   4.935  13.741   0.468
68469W        W40795   3.326  13.732  10.482
68470W        W40796  31.960  28.447   1.772
68471W        W40797  24.627  30.127   0.897
68472W        W40798   6.700  10.368   4.778
68473W        W40799   0.837  37.430  12.866
68474W        W40800  41.005   7.740  14.373
68475W        W40801  26.056  29.560   0.253
68476W        W40802  35.457  31.568  10.419
68477W        W40803   5.890  14.624   0.767
68478W        W40804  29.610   2.904  12.417
68479W        W40805  33.969  26.129   2.817
68480W        W40806  14.206  31.637   3.653
68481W        W40807  37.059  22.559  10.584
68482W        W40808   3.920  13.182   3.775
68483W        W40809  36.567  23.691  13.860
68484W        W40810  35.962  41.868   1.273
68485W        W40811  20.212   2.858  14.401
68486W        W40812  19.586   6.677  11.404
68487W        W40813   4.444  32.616   3.801
68488W        W40814  34.583  13.646  11.994
68489W        W40815   8.316  21.204  14.434
68490W        W40816  19.573   0.859  11.601
68491W        W40817  25.159   8.218  13.378
68492W        W40818  27.675   5.280   1.363
68493W        W40819   1.864  16.576  12.056
68494W        W40820  44.362  20.764  13.442
68495W        W40821  29.144  34.440  12.981
68496W        W40822   9.199  34.460   1.360
68497W        W40823  24.528  31.060   2.759
68498W        W40824  30.155  41.347   2.794
68499W        W40825  19.576  34.033   3.368
68500W        W40826  14.733  41.512   5.247
68501W        W40827  15.745  23.049   1.272
68502W        W40828  12.243  12.318   2.795
68503W        W40829  35.551   1.349   0.756
68504W        W40830   0.981  18.237  10.483
68505W        W40831  10.666   7.358  11.393
68506W        W40832   0.417  22.076   4.752
68507W        W40833   4.884   4.345  14.965
68508W        W40834  33.885  39.959  13.904
68509W        W40835  14.774  44.887  12.984
68510W        W40836  28.982  10.285   1.214
68511W        W40837  24.552  43.443   1.429
68512W        W40838  37.499  41.786  12.904
68513W        W40839  16.310  44.296  10.585
68514W        W40840  34.390   0.858   0.243
68515W        W40841  37.867  12.116   4.243
68516W        W40842  13.183  10.279   1.437
68517W        W40843  27.460  29.987   2.664
68518W        W40844  14.144  18.235   0.779
68519W        W40845   8.677   7.268   2.257
68520W        W40846  31.120  28.951  14.388
68521W        W40847  42.311  23.134  12.568
68522W        W40848  44.497  19.602   1.234
68523W        W40849   2.297   0.761  13.968
68524W        W40850   0.751  40.032  13.932
68525W        W40851  30.986  32.572  10.528
68526W        W40852  39.919  16.100  12.031
68527W        W40853  15.260   0.972   1.856
68528W        W40854  27.583  21.204   4.663
68529W        W40855  34.444  29.074  12.912
68530W        W40856  15.152   2.773  12.533
68531W        W40857  27.663  24.213  10.495
68532W        W40858   6.415  19.651   1.888
68533W        W40859  24.490  31.090  12.010
68534W        W40860  22.713  29.460   3.727
68535W        W40861  19.082  40.354  12.982
68536W        W40862  23.593   3.817  12.473
68537W        W40863  32.048  36.034   1.405
68538W        W40864   8.746  29.982   1.250
68539W        W40865  20.586  30.986   3.835
68540W        W40866   2.837  21.239  11.609
68541W        W40867  38.995  34.490  10.591
68542W        W40868  38.326  30.093  11.105
68543W        W40869  15.203  32.454   3.868
68544W        W40870  20.065  27.584   3.205
68545W        W40871   5.921  28.503   2.878
68546W        W40872  43.778  10.867   2.375
68547W        W40873  42.903  44.000  12.549
68548W        W40874  28.995  35.902  10.963
68549W        W40875  43.783  14.110  12.823
68550W        W40876  44.933   5.379  11.444
68551W        W40877   7.909  30.451   1.236
68552W        W40878  30.565  17.278   2.689
68553W        W40879   2.832  16.642  10.556
68554W        W40880  37.421  20.176   2.672
68555W        W40881  15.714  41.798   1.374
68556W        W40882  23.728   4.873   0.966
68557W        W40883  14.331  16.302   1.266
68558W        W40884  11.850   5.344   4.833
68559W        W40885  31.607  34.571  13.817
68560W        W40886  26.092  25.577  13.012
68561W        W40887  23.984  15.178  11.487
68562W        W40888  18.729  24.501   4.660
68563W        W40889  42.398  14.819  11.580
68564W        W40890  26.028   9.683   1.890
68565W        W40891  31.521  26.575  14.398
68566W        W40892  33.518  17.149  10.505
68567W        W40893  28.135  17.644  13.465
68568W        W40894  44.393  24.163  12.873
68569W        W40895  26.671   0.407  10.587
68570W        W40896   6.719  42.991   2.371
68571W        W40897  16.111  43.392   3.155
68572W        W40898   2.838  10.704   3.372
68573W        W40899   1.949  23.598   0.477
68574W        W40900  36.392  43.366  12.461
68575W        W40901  27.521   1.964  11.882
68576W        W40902  30.479   0.276  11.402
68577W        W40903  29.041  44.365  10.897
68578W        W40904  17.566  10.640   0.419
68579W        W40905  28.120  25.195  14.463
68580W        W40906  16.591  15.665   3.640
68581W        W40907   2.729   9.743   9.635
68582W        W40908  17.260   8.200   4.347
68583W        W40909   7.228  20.061  13.919
68584W        W40910   7.261   0.828   3.211
68585W        W40911  38.840  15.261   3.636
68586W        W40912  14.595  34.433   4.776
68587W        W40913  24.087  16.077   4.311
68588W        W40914  43.500  39.361  13.479
68589W        W40915  43.807   6.218  12.381
68590W        W40916  39.555  36.908   1.292
68591W        W40917  23.529  37.409   5.760
68592W        W40918   3.221  38.540   0.326
68593W        W40919  25.205   2.965  14.421
68594W        W40920  22.680  39.887  11.417
68595W        W40921  14.190  19.176   2.748
68596W        W40922  11.719   6.314  11.492
68597W        W40923  37.860  26.023   2.707
68598W        W40924   7.697  21.189   2.848
68599W        W40925  34.476   1.843   1.444
68600W        W40926  30.149  37.996   4.816
68601W        W40927  27.194   6.691   4.719
68602W        W40928  14.253  33.567  10.928
68603W        W40929  37.027  11.132  11.011
68604W        W40930  17.288  22.230  11.528
68605W        W40931   6.376  22.618   9.980
68606W        W40932   6.306   3.848   3.369
68607W        W40933  39.819  27.955  14.889
68608W        W40934  11.671  33.909  12.097
68609W        W40935   4.914  38.013  13.880
68610W        W40936   2.350  30.432  14.846
68611W        W40937  16.774  29.164  12.349
68612W        W40938  10.668   9.318   3.255
68613W        W40939  39.821  39.811   1.438
68614W        W40940  33.918   3.856   3.168
68615W        W40941  39.514   5.271  11.054
68616W        W40942  26.703  22.233  11.922
68617W        W40943  14.781  19.688   1.271
68618W        W40944   3.430   9.661   5.627
68619W        W40945  18.286  10.353   2.740
68620W        W40946  29.969   6.760   0.963
68621W        W40947  25.156   2.853  12.877
68622W        W40948   6.904   3.833   2.887
68623W        W40949  37.484  37.462   3.195
68624W        W40950  19.730  37.864   1.731
68625W        W40951  41.304  23.653  12.043
68626W        W40952  39.895  13.700   0.351
68627W        W40953  40.381  40.884   4.219
68628W        W40954  44.907  17.609  12.553
68629W        W40955  27.532  15.179   1.279
68630W        W40956  22.150  26.027   3.787
68631W        W40957  27.485  26.501  11.951
68632W        W40958  24.669  25.995   2.840
68633W        W40959  32.903  34.577   1.273
68634W        W40960  17.637  22.610   2.245
68635W        W40961   4.242  18.282  14.344
68636W        W40962  15.598   0.826  12.981
68637W        W40963  35.483   9.823  14.867
68638W        W40964  29.584  43.775  12.483
68639W        W40965  34.422  13.155  14.831
68640W        W40966   0.486   2.258   5.106
68641W        W40967  20.561  38.870   5.119
68642W        W40968  16.240  42.009   2.897
68643W        W40969   3.272  40.899   3.754
68644W        W40970  11.219  33.897   4.632
68645W        W40971  44.280  44.268  12.507
68646W        W40972  21.200  21.725   0.399
68647W        W40973  16.272  37.928  10.589
68648W        W40974  31.960  20.180   3.812
68649W        W40975  23.649  25.604  12.572
68650W        W40976  17.643  12.322   3.714
68651W        W40977  39.534  17.795   3.868
68652W        W40978   8.335   7.886   0.444
68653W        W40979  43.809  38.866  13.825
68654W        W40980  34.987  24.052   4.294
68655W        W40981   6.686  11.356  11.547
68656W        W40982   6.362  38.835   2.803
68657W        W40983  12.812   9.643   3.846
68658W        W40984  21.646  39.981   2.244
68659W        W40985   9.226  36.986   1.745
68660W        W40986  13.845  15.281  10.589
68661W        W40987  26.500   2.798  14.952
68662W        W40988  39.452  36.381  10.507
68663W        W40989  33.931  29.005   0.734
68664W        W40990  25.217  43.297  14.461
68665W        W40991  13.738  19.281  10.559
68666W        W40992   8.759  21.165  10.917
68667W        W40993  22.110  32.911  13.811
68668W        W40994  20.195  12.145   3.786
68669W        W40995  34.918   8.732   2.230
68670W        W40996  10.665  17.173   4.749
68671W        W40997  40.835  15.276   3.718
68672W        W40998  14.816  35.095  10.898
68673W        W40999  24.560  43.937  12.502
68674W        W41000  11.832   0.938  11.953
68675W        W41001  20.175  39.860   3.752
68676W        W41002  17.172  10.222   2.774
68677W        W41003  43.843  17.164  11.493
68678W        W41004  33.570   7.401   2.860
68679W        W41005  27.626  35.422  12.504
68680W        W41006   0.251  38.417   1.849
68681W        W41007  31.648  30.416  12.994
68682W        W41008  37.545  17.681  10.436
68683W        W41009  28.656  12.743   1.820
68684W        W41010  16.809  26.990   0.915
68685W        W41011  29.514  29.494   2.241
68686W        W41012  44.981  43.485  12.881
68687W        W41013  37.529  34.614   2.383
68688W        W41014  10.763  37.481  11.593
68689W        W41015  42.511  33.622   4.281
68690W        W41016  11.291  29.071  13.474
68691W        W41017  24.606  18.178  13.926
68692W        W41018   7.360  27.057  12.852
68693W        W41019  13.296   0.840   3.235
68694W        W41020  30.595  14.677  14.427
68695W        W41021  13.258  24.056  13.470
68696W        W41022  20.109   5.335   1.350
68697W        W41023  19.703   3.224  12.341
68698W        W41024   7.746   7.380  11.494
68699W        W41025   0.918  18.700  10.910
68700W        W41026  34.110  17.579   4.622
68701W        W41027  12.255  11.671  11.965
68702W        W41028  34.966  16.734   1.737
68703W        W41029  39.406  40.546  12.911
68704W        W41030  30.482  38.860  13.929
68705W        W41031  22.246  35.552   2.191
68706W        W41032   1.481  40.016   1.255
68707W        W41033  15.296  33.964  14.320
68708W        W41034  25.140  16.735   3.702
68709W        W41035   8.327  13.118  10.581
68710W        W41036  36.418  14.787   4.755
68711W        W41037  11.242   6.307  13.416
68712W        W41038  41.393  42.820   2.395
68713W        W41039   7.849  19.629   1.267
68714W        W41040  14.231   6.278  14.442
68715W        W41041   7.183  32.943  14.382
68716W        W41042  27.483  33.067  10.567
68717W        W41043  35.852  41.532  13.312
68718W        W41044   3.720   0.315  13.503
68719W        W41045   8.656  32.524   3.358
68720W        W41046   3.412   2.375  10.033
68721W        W41047  39.355  40.310   4.685
68722W        W41048  42.022   9.264   2.812
68723W        W41049  16.628  32.030   3.368
68724W        W41050   1.447  20.540  12.978
68725W        W41051  11.180  38.555  12.862
68726W        W41052  23.182  42.410   0.425
68727W        W41053   4.221  34.571  13.924
68728W        W41054  10.717  25.999   2.706
68729W        W41055  34.476  42.872  13.967
68730W        W41056  38.343  30.633   2.727
68731W        W41057   1.807   4.420  13.799
68732W        W41058   1.281  44.260   4.213
68733W        W41059   9.843  37.858   0.399
68734W        W41060   3.726   5.219  13.035
68735W        W41061  32.445  10.317   0.927
68736W        W41062  18.162  38.379  13.840
68737W        W41063  38.975  42.968  10.407
68738W        W41064   0.474  38.952   3.178
68739W        W41065  38.336   1.735   0.380
68740W        W41066  24.637  32.902   3.378
68741W        W41067  23.095  29.641   2.401
68742W        W41068  21.065  39.425   1.728
68743W        W41069  12.306   9.191   2.870
68744W        W41070  41.423   0.432  14.288
68745W        W41071  32.523  43.291  11.950
68746W        W41072  34.109  17.771   2.774
68747W        W41073  35.090  16.175  14.031
68748W        W41074  33.410  37.890  12.903
68749W        W41075  10.216  27.458  12.404
68750W        W41076   6.425  28.037  10.108
68751W        W41077   0.822  35.104   1.792
68752W        W41078  33.427  30.466  10.149
68753W        W41079  42.474   6.373   2.276
68754W        W41080  26.512  38.822  12.825
68755W        W41081  28.161  24.183  11.860
68756W        W41082  41.852  35.567   0.883
68757W        W41083  37.380  34.082   2.410
68758W        W41084   4.216  31.455  14.386
68759W        W41085   1.763  20.040  14.294
68760W        W41086  20.268  32.416   4.606
68761W        W41087  35.005  37.960   0.395
68762W        W41088  43.358  25.009  13.955
68763W        W41089  39.868  13.149   3.166
68764W        W41090  10.309  12.140  13.812
68765W        W41091   0.475   4.252  11.915
68766W        W41092  37.871  10.647   1.892
68767W        W41093  33.874  14.734  11.601
68768W        W41094  43.871  26.592  11.390
68769W        W41095   9.190  34.947   2.760
68770W        W41096  32.955  15.797   3.152
68771W        W41097  44.388  43.375  13.504
68772W        W41098  10.190  35.413  14.498
68773W        W41099  32.617   0.428  11.922
68774W        W41100   3.848  20.255  11.939
68775W        W41101  25.215  14.723   5.260
68776W        W41102   0.909  22.232   2.249
68777W        W41103  30.430   6.818   1.298
68778W        W41104  36.493  13.617  11.917
68779W        W41105  39.323  43.501   1.900
68780W        W41106   4.727  32.970  11.920
68781W        W41107  31.072  38.931   5.312
68782W        W41108   8.760  15.721   3.291
68783W        W41109  44.945  37.352  14.445
68784W        W41110  33.600   7.864   2.372
68785W        W41111   9.269  41.494  11.585
68786W        W41112  14.613  25.523  12.956
68787W        W41113  22.680  26.143   1.929
68788W        W41114  19.088  40.003  13.900
68789W        W41115  29.123  44.950  11.588
68790W        W41116  29.633  36.990   4.770
68791W        W41117  29.030   3.267  11.589
68792W        W41118  20.573  20.760   4.134
68793W        W41119  43.964  17.283   1.869
68794W        W41120  38.033   8.684  12.090
68795W        W41121  37.544  33.045   4.828
68796W        W41122  17.159  37.387  13.895
68797W        W41123   9.770  30.961   0.829
68798W        W41124   2.885  26.653   1.848
68799W        W41125   8.260  44.307  13.863
68800W        W41126  28.543  28.447   0.478
68801W        W41127  12.116  44.978   2.312
68802W        W41128  17.122  10.692   1.886
68803W        W41129   0.485   1.872   1.269
68804W        W41130   7.350  38.542   4.349
68805W        W41131  21.578  27.077   2.770
68806W        W41132  40.536  10.237  12.994
68807W        W41133  29.617  28.552   4.819
68808W        W41134  22.643  33.901  14.959
68809W        W41135  19.051  23.215   2.417
68810W        W41136  29.081   8.275   3.328
68811W        W41137  13.723  19.768   2.228
68812W        W41138  42.325  20.186   4.624
68813W        W41139  10.355  30.049  11.398
68814W        W41140  18.158  13.729  14.974
68815W        W41141  34.446  25.136  14.026
68816W        W41142   2.786  20.541   1.359
68817W        W41143  28.983  33.501  13.971
68818W        W41144  41.402  32.055  14.346
68819W        W41145  21.211   3.852  13.441
68820W        W41146  26.001  12.362  12.438
68821W        W41147  12.352  24.107  10.010
68822W        W41148  12.718   7.732   4.690
68823W        W41149  30.656   8.322   2.757
68824W        W41150  36.565  32.570   1.901
68825W        W41151  17.661   9.815   4.802
68826W        W41152  21.743  12.129   0.884
68827W        W41153  20.274  35.019  14.891
68828W        W41154   5.346   8.849   5.288
68829W        W41155  16.650  29.079   3.285
68830W        W41156  26.698  29.090   4.135
68831W        W41157  33.581   3.731   3.855
68832W        W41158  17.737   2.729  13.047
68833W        W41159  28.085   6.767   0.805
68834W        W41160  12.612  19.228  12.868
68835W        W41161   5.839  10.316  11.397
68836W        W41162  31.059   7.713   4.611
68837W        W41163  43.359  39.432  14.761
68838W        W41164  13.610  30.445  14.387
68839W        W41165  11.829  21.607  12.910
68840W        W41166   9.746  41.866  12.905
68841W        W41167   5.896  20.205  12.503
68842W        W41168  30.125  15.707   4.836
68843W        W41169  14.693  33.594   1.267
68844W        W41170  11.636  40.920  11.570
68845W        W41171   1.918  28.523   3.249
68846W        W41172  16.121  12.160  11.024
68847W        W41173  37.859  12.299  14.001
68848W        W41174  10.820  35.936   4.182
68849W        W41175  16.797  33.962   3.309
68850W        W41176  22.098   8.200  13.980
68851W        W41177  34.520  34.508  12.041
68852W        W41178  12.342   1.347  13.821
68853W        W41179   9.773  14.731  13.417
68854W        W41180  42.388   3.337  13.963
68855W        W41181  28.492  10.860  14.345
68856W        W41182  33.079   4.239  10.438
68857W        W41183   1.922  37.392   4.624
68858W        W41184  27.548  33.478  12.434
68859W        W41185  38.487  23.128  13.450
68860W        W41186  40.847  11.684   1.390
68861W        W41187  37.365  28.481   0.334
68862W        W41188   8.332  10.690   2.696
68863W        W41189   9.847  44.362  11.114
68864W        W41190  42.956  17.723  11.901
68865W        W41191  12.766  33.610   5.610
68866W        W41192  40.955  27.504   2.678
68867W        W41193  20.655   1.894  13.541
68868W        W41194  17.792  25.990   4.697
68869W        W41195  24.091  11.365   3.386
68870W        W41196  29.641  37.026  14.479
68871W        W41197  32.542   6.916  10.447
68872W        W41198  37.514  26.511  11.908
68873W        W41199  30.558  18.220   4.635
68874W        W41200  39.820  32.983  14.774
68875W        W41201   0.902  14.262  10.944
68876W        W41202  15.315  26.150  14.376
68877W        W41203  41.013   3.343   4.163
68878W        W41204   5.235  23.519   0.257
68879W        W41205   5.304  39.860   2.354
68880W        W41206  44.009  37.985   3.686
68881W        W41207  20.271  37.476   1.891
68882W        W41208  23.012  34.511  12.568
68883W        W41209  42.998  23.586  12.916
68884W        W41210  24.651  18.217   3.653
68885W        W41211   9.383   7.175   3.688
68886W        W41212  33.591   2.960   3.707
68887W        W41213  18.296  23.726   1.882
68888W        W41214  16.122  39.456   4.204
68889W        W41215   6.342  31.461   1.907
68890W        W41216  44.426  20.218   1.774
68891W        W41217  10.860  34.993  12.475
68892W        W41218  39.380  29.652  14.974
68893W        W41219  31.148  40.824  14.485
68894W        W41220  32.620   1.796  12.872
68895W        W41221  38.423  37.034   0.385
68896W        W41222  33.036  22.552  14.994
68897W        W41223   0.405  20.576   4.750
68898W        W41224  14.135  19.602  11.610
68899W        W41225  23.666   3.747   0.250
68900W        W41226  37.528  29.962  14.404
68901W        W41227   7.182  17.164   1.927
68902W        W41228  26.556  19.187   0.256
68903W        W41229  29.663   3.270   2.412
68904W        W41230  24.723  21.601   2.306
68905W        W41231   4.879  20.095  13.014
68906W        W41232  40.924  24.602  11.535
68907W        W41233  33.998  41.928   4.809
68908W        W41234  11.178  15.749   1.932
68909W        W41235  13.276  15.244  11.034
68910W        W41236  10.277  17.209   4.339
68911W        W41237  38.839  44.314   5.297
68912W        W41238   0.257   4.906  11.867
68913W        W41239  28.048   7.841  10.601
68914W        W41240  12.124  42.355  10.941
68915W        W41241  12.654  15.781   2.886
68916W        W41242  21.154  23.653   4.824
68917W        W41243  20.050  18.557   4.143
68918W        W41244  19.159  29.055   4.153
68919W        W41245  39.817  25.647  12.876
68920W        W41246  36.427  16.079   3.291
68921W        W41247  22.511  39.895  10.088
68922W        W41248  39.355  25.210   1.914
68923W        W41249   6.301  23.198  14.285
68924W        W41250  14.711  28.139  10.555
68925W        W41251   7.244  34.456  12.940
68926W        W41252   3.326  40.355  13.536
68927W        W41253  36.007  21.517   3.743
68928W        W41254   3.298  29.969   3.158
68929W        W41255   7.299  14.301  10.498
68930W        W41256  12.628  10.750   0.841
68931W        W41257   4.740  31.503   0.403
68932W        W41258  22.746  17.689  13.001
68933W        W41259  21.021  27.494   4.704
68934W        W41260  14.729  10.310  11.377
68935W        W41261  40.478   5.695  11.950
68936W        W41262  38.443  34.553   1.352
68937W        W41263  40.437   7.374  12.546
68938W        W41264   4.280   5.308  11.606
68939W        W41265  15.637  37.559   4.114
68940W        W41266   6.681   9.311   3.287
68941W        W41267   8.850  20.154   1.794
68942W        W41268   4.887   7.220   3.291
68943W        W41269  11.778  24.095   1.727
68944W        W41270  27.617  38.015  10.937
68945W        W41271   5.894  37.461  12.403
68946W        W41272  27.960  31.002  13.446
68947W        W41273   0.304   1.420   4.743
68948W        W41274  16.125  12.612   3.385
68949W        W41275  12.774  32.610   4.758
68950W        W41276  35.507  29.656  13.993
68951W        W41277  43.789  10.359  10.500
68952W        W41278  32.594   2.260  13.805
68953W        W41279   9.726  22.662   0.802
68954W        W41280  39.549   2.794   3.296
68955W        W41281  26.683  15.150  14.822
68956W        W41282   7.240  21.525   2.707
68957W        W41283  30.647   5.731   4.336
68958W        W41284   2.818   4.891  10.064
68959W        W41285  40.945  17.089   0.744
68960W        W41286   1.250  23.715   9.977
68961W        W41287  19.601  29.108   4.287
68962W        W41288  12.196  34.489  10.898
68963W        W41289  42.978  11.343   4.215
68964W        W41290  39.540  17.134   3.739
68965W        W41291  42.792  10.718  13.905
68966W        W41292  34.893  44.824  10.528
68967W        W41293  42.876  17.302  12.470
68968W        W41294  37.473  27.552   0.832
68969W        W41295   4.215  34.062   3.182
68970W        W41296  35.871   6.346  11.082
68971W        W41297  32.079  27.660  12.930
68972W        W41298  36.886  42.401  13.487
68973W        W41299  39.482  39.971  10.971
68974W        W41300  36.549  19.187   2.227
68975W        W41301  29.077   4.884   2.236
68976W        W41302  41.327   4.789   4.352
68977W        W41303  40.485  36.478   2.833
68978W        W41304   2.824  10.811   3.764
68979W        W41305  22.605  39.449   2.201
68980W        W41306  36.007  19.226   0.403
68981W        W41307  15.144  26.203  14.762
68982W        W41308  38.029  21.038  10.462
68983W        W41309   8.396   3.359  12.864
68984W        W41310  41.324   0.974  12.407
68985W        W41311   7.761  44.988  11.451
68986W        W41312  11.645  13.756  14.439
68987W        W41313  11.238   8.307   0.794
68988W        W41314  37.966   1.834   0.761
68989W        W41315  21.631  24.509  10.639
68990W        W41316  15.661   1.274   1.694
68991W        W41317  31.505  32.400  13.871
68992W        W41318   7.825   1.934  11.051
68993W        W41319   7.182  34.583  10.527
68994W        W41320  40.892   3.353  11.094
68995W        W41321  18.754  38.429   1.770
68996W        W41322  23.132   9.353   2.783
68997W        W41323   4.872  22.591   2.372
68998W        W41324  27.093  29.963  13.861
68999W        W41325   5.254  30.542  10.432
69000W        W41326  13.718   6.698   2.276
69001W        W41327   6.357  17.580  12.038
69002W        W41328  36.036   4.261   0.307
69003W        W41329  12.740  13.295   0.947
69004W        W41330   9.791   8.886   1.432
69005W        W41331  16.709  34.427   0.418
69006W        W41332   5.735  21.124  13.421
69007W        W41333   5.266   0.905   3.227
69008W        W41334  34.091  34.000   2.338
69009W        W41335  28.112  17.729   0.923
69010W        W41336  25.043  21.728   1.356
69011W        W41337  39.352  25.150  14.893
69012W        W41338  11.352   1.383   2.868
69013W        W41339  14.643  31.118  12.491
69014W        W41340  12.795  14.759   3.202
69015W        W41341  37.414  43.486  13.844
69016W        W41342  15.578  42.882  13.450
69017W        W41343  25.582   6.193  12.934
69018W        W41344  43.903  34.928   0.408
69019W        W41345  43.281  28.064   3.630
69020W        W41346  14.329  36.489  12.935
69021W        W41347  40.039  40.906  14.484
69022W        W41348  22.707  29.456   1.248
69023W        W41349  24.667  25.091   1.833
69024W        W41350  21.105  26.566   1.926
69025W        W41351  15.679  27.527   3.237
69026W        W41352   2.901  42.894  12.981
69027W        W41353  41.377  32.402  13.927
69028W        W41354  43.316  12.746  13.350
69029W        W41355  19.658  23.026   4.741
69030W        W41356  39.547  14.645   1.762
69031W        W41357   3.916  30.048  13.831
69032W        W41358  43.373  24.065   4.689
69033W        W41359  26.666  25.658   0.951
69034W        W41360   6.748  22.148   0.790
69035W        W41361  11.300  11.356   3.283
69036W        W41362   0.353  32.577  14.015
69037W        W41363   5.783  30.922   0.910
69038W        W41364  19.696  14.696  12.551
69039W        W41365   5.738  26.641   2.318
69040W        W41366  26.659  32.540   2.200
69041W        W41367  18.152  19.627   3.766
69042W        W41368  29.927  41.041   0.459
69043W        W41369  24.119  34.114   2.295
69044W        W41370  39.005   6.286  11.006
69045W        W41371  39.901  20.179  11.990
69046W        W41372  26.026  38.870  14.962
69047W        W41373  44.819  18.054   1.930
69048W        W41374  34.535  29.573   2.825
69049W        W41375  42.907  43.273   0.445
69050W        W41376  43.377  35.068  14.430
69051W        W41377  27.010   6.410  10.503
69052W        W41378  19.662  44.308  13.021
69053W        W41379   8.269  11.145  13.803
69054W        W41380  26.695  43.978   9.999
69055W        W41381  19.759  44.290  10.896
69056W        W41382  44.921   0.775   4.150
69057W        W41383  11.768  41.838  12.995
69058W        W41384   8.285  18.654   2.722
69059W        W41385  17.621  39.475   0.401
69060W        W41386   5.703  23.185  13.998
69061W        W41387  42.437  13.612  14.311
69062W        W41388  23.046   0.395  12.499
69063W        W41389  28.934  44.001  10.468
69064W        W41390  43.802  27.001  13.864
69065W        W41391   4.751  42.501  13.008
69066W        W41392  31.448  30.071  12.854
69067W        W41393  17.271  27.974   4.119
69068W        W41394  16.170  13.818  10.493
69069W        W41395  41.476  30.517  11.949
69070W        W41396  15.326   7.393  14.801
69071W        W41397  40.923  21.742   0.879
69072W        W41398   3.915   9.840  12.419
69073W        W41399  17.099   5.883   1.336
69074W        W41400  11.862  40.028   4.635
69075W        W41401   2.391   9.743  13.012
69076W        W41402  44.995  20.042  10.979
69077W        W41403   6.776  11.796   2.837
69078W        W41404  39.554  35.549   1.697
69079W        W41405  11.673  41.430  12.521
69080W        W41406  26.066  39.824   4.655
69081W        W41407   0.824  26.597  14.482
69082W        W41408  15.157  37.384   2.415
69083W        W41409  24.584  42.441   3.337
69084W        W41410   9.846  31.647   0.864
69085W        W41411  33.491  21.139   4.306
69086W        W41412  25.054  39.438   9.979
69087W        W41413   4.794  17.663   1.223
69088W        W41414  41.952   2.265   4.270
69089W        W41415  22.533  21.754   4.752
69090W        W41416   8.390  19.272   4.684
69091W        W41417  15.821  19.141  13.932
69092W        W41418   7.778   7.817   1.901
69093W        W41419  43.423  42.389  11.455
69094W        W41420  43.820  18.187  12.943
69095W        W41421  35.984   1.354   1.253
69096W        W41422   5.245  20.695   1.752
69097W        W41423  26.016   6.843  12.378
69098W        W41424  29.433  18.106  13.983
69099W        W41425  43.395  29.142  14.428
69100W        W41426  38.943   9.354   4.669
69101W        W41427  36.548  28.671  10.606
69102W        W41428  20.548  11.334  13.926
69103W        W41429  27.689   9.205   0.876
69104W        W41430   7.397  29.519  12.907
69105W        W41431  19.587  14.168   3.220
69106W        W41432   9.673  13.665  10.605
69107W        W41433  35.982  30.112   2.246
69108W        W41434  14.299  28.463  13.972
69109W        W41435   1.468  21.156   3.707
69110W        W41436   8.336   7.352   1.832
69111W        W41437   9.171  15.231  14.937
69112W        W41438  11.672  18.167  14.296
69113W        W41439  40.541  16.256  14.961
69114W        W41440   0.444  19.253  14.812
69115W        W41441  19.055  36.866   2.358
69116W        W41442  41.887   3.459   5.273
69117W        W41443  18.088   4.735   2.822
69118W        W41444  40.904  15.606  13.352
69119W        W41445  40.876  28.136  14.497
69120W        W41446  19.261  18.067   2.819
69121W        W41447   7.217   3.925  12.420
69122W        W41448   5.828  30.486  10.990
69123W        W41449   0.747  28.593   4.696
69124W        W41450  20.626  22.247   4.268
69125W        W41451   4.416  14.670  14.284
69126W        W41452  40.881  42.505  11.892
69127W        W41453   5.313  24.513   2.244
69128W        W41454  37.576  13.328  14.488
69129W        W41455  13.705  27.016  13.812
69130W        W41456  25.097  44.992  11.905
69131W        W41457  42.030  35.075   3.278
69132W        W41458  15.084  18.207   1.404
69133W        W41459   2.334  12.776  11.896
69134W        W41460  24.655  18.775  13.526
69135W        W41461  26.555  18.073  10.935
69136W        W41462   5.414  33.109   3.346
69137W        W41463  22.051   2.381   4.291
69138W        W41464  24.116  16.758   4.619
69139W        W41465   4.805  29.097  11.958
69140W        W41466   9.187   3.422   0.826
69141W        W41467  40.916   3.903   1.441
69142W        W41468  18.735   9.773   0.918
69143W        W41469  31.543  31.938   3.311
69144W        W41470  24.680  15.125  14.346
69145W        W41471  12.670   6.319   1.335
69146W        W41472  39.334  37.843  11.965
69147W        W41473  24.527  31.618  10.526
69148W        W41474   9.743  15.267   2.334
69149W        W41475  44.260  42.912  13.369
69150W        W41476  22.531  25.553   4.718
69151W        W41477   6.304  26.456   0.736
69152W        W41478  32.891  23.046  10.899
69153W        W41479  18.725  11.269   2.757
69154W        W41480  19.173  43.773  14.962
69155W        W41481  42.399  38.913   4.219
69156W        W41482  36.965  19.065  11.045
69157W        W41483  19.582  36.397  11.447
69158W        W41484  26.457   4.929  10.470
69159W        W41485   5.313  34.905  12.872
69160W        W41486  19.560  41.815   2.244
69161W        W41487  23.061  22.642   4.746
69162W        W41488  21.099  32.917  13.835
69163W        W41489  44.326  26.155  10.938
69164W        W41490  40.035   0.420  12.947
69165W        W41491   7.695  39.939  13.927
69166W        W41492  39.481  12.360   3.663
69167W        W41493  42.409  29.949  11.557
69168W        W41494   6.413  17.068   0.808
69169W        W41495  42.842  26.689   3.316
69170W        W41496  22.247  31.515   2.262
69171W        W41497  20.159  31.989   1.347
69172W        W41498  41.447  30.084  14.348
69173W        W41499  28.060  29.470  11.485
69174W        W41500  17.594  17.596   3.150
69175W        W41501  20.594  35.006  11.504
69176W        W41502   9.644  35.981   3.327
69177W        W41503  31.428   1.876   1.272
69178W        W41504   0.467  42.842  12.357
69179W        W41505  18.628  42.866   5.091
69180W        W41506  31.959  17.084   4.320
69181W        W41507   4.317  33.545   1.233
69182W        W41508  18.251  20.656  10.603
69183W        W41509  21.035   6.874   0.250
69184W        W41510  35.390   9.788  11.941
69185W        W41511  12.200  39.532  13.968
69186W        W41512  28.140   5.214   1.904
69187W        W41513   4.236  34.119   0.385
69188W        W41514  37.418  10.757   1.451
69189W        W41515  17.115  28.677  11.423
69190W        W41516   6.184  17.095   1.823
69191W        W41517  36.880   0.407   3.170
69192W        W41518  39.407   8.397  12.838
69193W        W41519  22.047  33.430   1.900
69194W        W41520  17.638  25.009  12.017
69195W        W41521  40.879  16.232   3.856
69196W        W41522  34.885  29.597   0.335
69197W        W41523  16.118   5.721   0.383
69198W        W41524   4.707   7.283   1.400
69199W        W41525  31.070  32.622  11.597
69200W        W41526  22.654  41.339   2.354
69201W        W41527  30.033  39.531   2.309
69202W        W41528  42.416  41.793   1.316
69203W        W41529  27.163  29.497  13.529
69204W        W41530   6.203  18.177  13.547
69205W        W41531  38.543  23.709  10.451
69206W        W41532  21.036  38.413   3.226
69207W        W41533  28.082   3.929   1.290
69208W        W41534  37.033  32.060   2.694
69209W        W41535   6.221   5.709   3.355
69210W        W41536   4.344  30.440  11.975
69211W        W41537  27.607  10.737   1.753
69212W        W41538  13.604   0.743   0.350
69213W        W41539   5.308  27.124  12.853
69214W        W41540   2.384  36.526  13.897
69215W        W41541  19.647  39.064   4.611
69216W        W41542  36.376  26.201   4.821
69217W        W41543  33.502  29.015   3.785
69218W        W41544  20.214  15.681   3.332
69219W        W41545  32.576  29.645  13.480
69220W        W41546  18.784  32.612  13.922
69221W        W41547  39.412  28.957   3.765
69222W        W41548   6.869   3.405   2.213
69223W        W41549  15.582  37.846   2.232
69224W        W41550  26.984  23.121   3.731
69225W        W41551  37.516  14.271  10.145
69226W        W41552  34.094  26.512   4.695
69227W        W41553   9.873  31.576   1.848
69228W        W41554  36.027  34.998   5.746
69229W        W41555   4.909  19.179  14.277
69230W        W41556  36.429  11.850   4.707
69231W        W41557  34.470   6.336  11.509
69232W        W41558  29.006  36.512  10.431
69233W        W41559  16.230  40.398  14.436
69234W        W41560  17.098  42.834   3.363
69235W        W41561  33.063  25.685   4.805
69236W        W41562   3.362  12.800   1.308
69237W        W41563   1.767   3.733   4.623
69238W        W41564  34.528   9.876   0.267
69239W        W41565  38.897  42.968   5.296
69240W        W41566  11.686  15.640   3.855
69241W        W41567   3.903   4.832  13.440
69242W        W41568   4.328  16.787   1.838
69243W        W41569   4.907  44.448  14.893
69244W        W41570   3.841  13.786  13.818
69245W        W41571   7.814  27.155   1.854
69246W        W41572  15.300  12.342  13.910
69247W        W41573  31.901  21.528  10.623
69248W        W41574  21.525  38.855   1.845
69249W        W41575   0.969  25.494  14.468
69250W        W41576  20.594   8.292   1.904
69251W        W41577  18.115  15.689   0.326
69252W        W41578   5.763   9.169  12.384
69253W        W41579  38.868  27.145  10.489
69254W        W41580  39.992  41.408  13.019
69255W        W41581  31.983   2.272   0.890
69256W        W41582   9.677  16.133   2.755
69257W        W41583  40.919  25.143  14.891
69258W        W41584  19.590  31.449  13.401
69259W        W41585  20.618  38.373  11.415
69260W        W41586  24.011  16.225   3.762
69261W        W41587  41.856  22.185  13.879
69262W        W41588  40.393  13.257   1.715
69263W        W41589   3.320  41.317   3.631
69264W        W41590  10.213   3.914   1.769
69265W        W41591   2.375  39.007  13.006
69266W        W41592   0.807  22.620   5.740
69267W        W41593  15.312  17.300   2.680
69268W        W41594  40.852  31.488  12.861
69269W        W41595  16.778   0.439  14.900
69270W        W41596  33.513  11.719   4.350
69271W        W41597   2.900  19.231  10.527
69272W        W41598  37.872  17.101  12.380
69273W        W41599  40.882  17.259   4.283
69274W        W41600  23.641   5.355   4.788
69275W        W41601  44.775  41.010   1.285
69276W        W41602  11.196  33.886   1.733
69277W        W41603  22.222  14.117  14.889
69278W        W41604  14.772  38.031  13.534
69279W        W41605  31.050   2.731   3.657
69280W        W41606  40.008  14.710   2.805
69281W        W41607   3.403   7.791   0.891
69282W        W41608  23.186  35.099   0.901
69283W        W41609  39.905  17.700  10.455
69284W        W41610   7.305  44.305   0.835
69285W        W41611   6.914  37.581  10.141
69286W        W41612   2.381   5.847  14.323
69287W        W41613  36.476  19.126  14.444
69288W        W41614  31.144  37.830  11.423
69289W        W41615  16.186  13.790  11.044
69290W        W41616   7.290  15.594  11.447
69291W        W41617   2.786   5.219  13.384
69292W        W41618  18.760  23.104  13.419
69293W        W41619  18.628  37.351  14.323
69294W        W41620  27.542  30.017   4.151
69295W        W41621   9.284   9.286   0.258
69296W        W41622  37.514  14.762   2.319
69297W        W41623  23.597   7.260   4.624
69298W        W41624  28.025  31.145  11.409
69299W        W41625  16.798  15.805   1.818
69300W        W41626  28.548  27.472   1.931
69301W        W41627   2.264  10.146  12.849
69302W        W41628  27.487   4.247   0.294
69303W        W41629  29.109  35.989  11.897
69304W        W41630   5.740   6.873   0.260
69305W        W41631  26.565  39.439  10.963
69306W        W41632  37.510  26.560   0.332
69307W        W41633   2.803  28.560  12.542
69308W        W41634  42.910  31.465  12.044
69309W        W41635  39.354  39.970  14.411
69310W        W41636   0.303  40.004   3.822
69311W        W41637  20.135  29.014  12.062
69312W        W41638   3.929  30.582  12.527
69313W        W41639  12.644  35.042  13.029
69314W        W41640   0.334  20.133  11.026
69315W        W41641   3.768  32.992  12.418
69316W        W41642  28.507  29.130   9.611
69317W        W41643  38.341   5.834  10.406
69318W        W41644  33.980   5.758   3.266
69319W        W41645  40.980  10.290  14.881
69320W        W41646   5.366  41.875  13.800
69321W        W41647  20.174  21.025  11.509
69322W        W41648  23.551  43.470   2.743
69323W        W41649   1.258  40.544   2.342
69324W        W41650   2.366  31.904   9.956
69325W        W41651  21.732   4.800  13.844
69326W        W41652  43.297   5.757  12.861
69327W        W41653   2.812  11.736  10.526
69328W        W41654   3.348  17.668   1.249
69329W        W41655  16.706  36.946  13.520
69330W        W41656   7.779  40.361   9.981
69331W        W41657   2.252  27.946  10.140
69332W        W41658  19.140  15.240  13.444
69333W        W41659  28.522  10.336   4.342
69334W        W41660   3.747   8.194  13.812
69335W        W41661  19.069  14.615   1.318
69336W        W41662  39.357   2.385  13.930
69337W        W41663  26.128  28.961  12.472
69338W        W41664  20.527  29.598   2.343
69339W        W41665   0.877  43.476   4.235
69340W        W41666  20.052  39.856   1.696
69341W        W41667  22.699  20.600  11.409
69342W        W41668  31.138  26.459   2.665
69343W        W41669   5.711  16.089   2.712
69344W        W41670  29.426  25.513  14.360
69345W        W41671  17.289   3.426   3.355
69346W        W41672  14.110  35.045  13.500
69347W        W41673  41.856  13.153   2.307
69348W        W41674  39.340  19.073   3.821
69349W        W41675  44.272   1.944   3.285
69350W        W41676   1.285  11.847   4.638
69351W        W41677  36.008  31.470  11.579
69352W        W41678   6.687  25.679  10.951
69353W        W41679   0.490  37.544   4.293
69354W        W41680  35.358  43.314   0.459
69355W        W41681  41.488   9.773  10.454
69356W        W41682   0.969  12.313   3.326
69357W        W41683  27.477   0.788   4.139
69358W        W41684  40.828  32.900  11.508
69359W        W41685  24.157  15.670  13.977
69360W        W41686  12.129  31.488   2.848
69361W        W41687  34.069   7.182   4.133
69362W        W41688  12.669   1.956   0.912
69363W        W41689  36.843  32.633   0.869
69364W        W41690   0.913  35.509  14.404
69365W        W41691  35.572  34.543  12.941
69366W        W41692  21.561   1.918   4.256
69367W        W41693  42.919  37.033   0.793
69368W        W41694  28.614   0.817   1.923
69369W        W41695  26.951  19.183  11.547
69370W        W41696  19.550  41.320   2.249
69371W        W41697  29.958  34.586  12.416
69372W        W41698  24.614  23.498   1.340
69373W        W41699  19.253   1.861  11.554
69374W        W41700  15.321  26.489   3.347
69375W        W41701  18.105   4.420  13.979
69376W        W41702  18.284  40.993  12.874
69377W        W41703  42.282  17.749  12.514
69378W        W41704  14.242   6.219  14.999
69379W        W41705  36.585  15.611   3.349
69380W        W41706  38.975   3.851   0.437
69381W        W41707   6.740  37.440   1.270
69382W        W41708  31.031  29.123  13.918
69383W        W41709  29.477  11.692   3.283
69384W        W41710  41.296  43.422  12.025
69385W        W41711  15.738  43.412   2.683
69386W        W41712   9.800  42.883  11.539
69387W        W41713  14.802  22.687   4.616
69388W        W41714   2.935  28.965   3.640
69389W        W41715  15.208  21.672   4.601
69390W        W41716   1.478  12.675   1.374
69391W        W41717  22.530  26.082  14.421
69392W        W41718  13.772   4.710  14.873
69393W        W41719  30.069  44.331   0.923
69394W        W41720  15.083  10.139   3.169
69395W        W41721  16.197  14.141  10.997
69396W        W41722  37.886  23.733   3.271
69397W        W41723  21.206  16.297  14.799
69398W        W41724  42.473  18.213   3.678
69399W        W41725  44.763  44.828   0.842
69400W        W41726  11.735   2.363   0.341
69401W        W41727  30.418  21.191   0.422
69402W        W41728  21.597  14.118  12.430
69403W        W41729  32.614  27.016  10.532
69404W        W41730  36.508  31.110  13.905
69405W        W41731  21.099  36.045   2.248
69406W        W41732  17.578  41.355  13.472
69407W        W41733  18.595  14.114   3.367
69408W        W41734  25.980   2.438   4.692
69409W        W41735   3.805   7.341  10.046
69410W        W41736   0.384   9.359  11.862
69411W        W41737  14.659  18.684  11.518
69412W        W41738  28.165  32.134  12.839
69413W        W41739  17.086  38.401   1.283
69414W        W41740   5.225  31.534  14.488
69415W        W41741   7.789  27.667   1.228
69416W        W41742  20.542  15.740  14.417
69417W        W41743  24.603  11.835   0.258
69418W        W41744  34.595  30.005  11.447
69419W        W41745  42.839   2.441  14.495
69420W        W41746  36.386  33.109  12.998
69421W        W41747  25.049  26.681   2.700
69422W        W41748  34.990  34.490  12.393
69423W        W41749   5.341  42.452  11.083
69424W        W41750  23.047  31.909  10.447
69425W        W41751  26.013   9.835   3.268
69426W        W41752  39.347  20.536  13.335
69427W        W41753   1.811  41.944  13.805
69428W        W41754  22.031  28.445   2.314
69429W        W41755  37.529   9.320  14.436
69430W        W41756  32.456   1.311  14.986
69431W        W41757  16.780  24.049   0.277
69432W        W41758  19.637  36.925  11.028
69433W        W41759  21.107  15.605   4.271
69434W        W41760  27.074  22.529   2.682
69435W        W41761  15.134   2.247   0.433
69436W        W41762  39.831  28.674   4.297
69437W        W41763   6.382   5.436  11.031
69438W        W41764  35.858  36.433   5.202
69439W        W41765  10.785  15.627  10.911
69440W        W41766  24.625  12.347  14.313
69441W        W41767  17.245  24.653  11.562
69442W        W41768  43.805  40.451   1.293
69443W        W41769  41.822  33.006   3.314
69444W        W41770   5.330  31.610   4.684
69445W        W41771  34.586  21.220  11.097
69446W        W41772  43.375  12.672   0.434
69447W        W41773  34.401  35.918   2.294
69448W        W41774  33.503  35.077  13.382
69449W        W41775  38.418   1.945  10.508
69450W        W41776   6.195  33.018   4.650
69451W        W41777  30.025  36.865   3.660
69452W        W41778   5.232   6.196  11.045
69453W        W41779  21.523   7.387  14.416
69454W        W41780  28.103  29.100   4.642
69455W        W41781  11.715  35.871   3.851
69456W        W41782  35.563   3.709   0.416
69457W        W41783  44.264  36.909   1.804
69458W        W41784  29.919  20.767  11.997
69459W        W41785  17.077  11.318   4.820
69460W        W41786   0.880  17.591   1.834
69461W        W41787  24.569  19.741   2.252
69462W        W41788  28.663  11.850   3.851
69463W        W41789   7.875  36.920   1.782
69464W        W41790  36.574  14.181   3.688
69465W        W41791  21.692  31.012  12.418
69466W        W41792  13.157  28.542  11.513
69467W        W41793   1.250   1.782   3.169
69468W        W41794  10.719  23.671  13.054
69469W        W41795  40.312  30.116   1.381
69470W        W41796   4.825  30.933  12.060
69471W        W41797  14.790  14.150   1.369
69472W        W41798  26.554  28.623  13.405
69473W        W41799  27.024  44.998   4.199
69474W        W41800   5.305   3.887  13.874
69475W        W41801  25.603  22.022   4.624
69476W        W41802  23.507  35.482   2.741
69477W        W41803  23.987  32.899   3.844
69478W        W41804  41.916  19.137  13.400
69479W        W41805  31.132  16.171   4.312
69480W        W41806  40.911   7.706  13.833
69481W        W41807  31.136  19.688   5.321
69482W        W41808   4.925   2.421   0.736
69483W        W41809  35.421   9.212  11.871
69484W        W41810   9.271  19.069   0.779
69485W        W41811  35.393  18.638   0.851
69486W        W41812  35.425  16.662   0.933
69487W        W41813  30.458  35.033   4.219
69488W        W41814  27.505  31.597  13.363
69489W        W41815  38.962  10.818   0.832
69490W        W41816   6.886  21.153  13.833
69491W        W41817   5.845   0.929  14.961
69492W        W41818   5.735  27.575   3.813
69493W        W41819   1.411  17.219  13.923
69494W        W41820   7.399  14.697   2.187
69495W        W41821  35.489  29.991   0.472
69496W        W41822  20.091   2.833   3.387
69497W        W41823  29.510  27.592  14.031
69498W        W41824  26.671  10.803  10.555
69499W        W41825  21.127  29.126   4.163
69500W        W41826  33.432  40.496  14.339
69501W        W41827  40.341  23.551   0.896
69502W        W41828   9.158  39.344  13.847
69503W        W41829  32.088  25.153  11.944
69504W        W41830  27.681  20.217  10.631
69505W        W41831  26.131  41.872   0.427
69506W        W41832  11.713  37.889  12.065
69507W        W41833  32.455   2.308   4.761
69508W        W41834  17.104  11.751  11.920
69509W        W41835  15.179   4.308   0.404
69510W        W41836  28.681   4.888  10.536
69511W        W41837  35.022  37.570   1.306
69512W        W41838  44.428  31.612   2.713
69513W        W41839  12.157  42.862  14.338
69514W        W41840  31.956  11.155   4.786
69515W        W41841  25.682   5.761  12.083
69516W        W41842  35.997  41.916   2.233
69517W        W41843  38.825  11.174   1.412
69518W        W41844  12.617  43.276   4.208
69519W        W41845  22.084   8.849  13.860
69520W        W41846  44.384   4.395   2.885
69521W        W41847  12.651  40.877  12.498
69522W        W41848  11.785  42.298   4.712
69523W        W41849  35.453  22.995  12.541
69524W        W41850  30.595  38.518  12.013
69525W        W41851  29.061  39.385   0.852
69526W        W41852  27.085   2.397  12.092
69527W        W41853  29.051  17.642  10.473
69528W        W41854   7.841   3.819  11.044
69529W        W41855  22.093  35.450   4.628
69530W        W41856  25.664  41.314   4.691
69531W        W41857  25.196  14.187   2.840
69532W        W41858  31.643  17.798   1.346
69533W        W41859   7.850  24.531  11.506
69534W        W41860   4.250  29.627  12.908
69535W        W41861   7.812  30.935   4.306
69536W        W41862   4.307  20.735   3.751
69537W        W41863  12.125   1.830  14.023
69538W        W41864  22.503  15.177   5.143
69539W        W41865   6.878  26.528  14.279
69540W        W41866  40.323  15.183  11.966
69541W        W41867  39.031  41.869   1.307
69542W        W41868  23.491   3.325   3.176
69543W        W41869  15.604   5.331  11.929
69544W        W41870  16.609  40.836   2.316
69545W        W41871  35.054  43.797   3.250
69546W        W41872   4.806  41.930   0.787
69547W        W41873  18.154  16.204   3.152
69548W        W41874  18.663  29.574   0.880
69549W        W41875   9.786   5.694  12.857
69550W        W41876  30.475   0.431   4.348
69551W        W41877  20.564  31.485   1.285
69552W        W41878   9.358  12.266  11.106
69553W        W41879  13.294  10.806  10.414
69554W        W41880  30.923  39.352  12.823
69555W        W41881  24.060  24.488  12.017
69556W        W41882  11.698   8.899  13.941
69557W        W41883  28.656  11.270  14.855
69558W        W41884  32.926  44.499  14.866
69559W        W41885  43.290  40.514  13.341
69560W        W41886  12.244  42.889   1.252
69561W        W41887  21.200  37.884  11.926
69562W        W41888  12.332  28.613   1.254
69563W        W41889  32.062   5.323   0.364
69564W        W41890  41.387   5.765   1.392
69565W        W41891   8.811  15.212  10.467
69566W        W41892   5.742  33.966   4.634
69567W        W41893  41.501  29.129  10.989
69568W        W41894  33.903  37.570  10.483
69569W        W41895   3.839  16.140   3.176
69570W        W41896  23.133  31.133  14.291
69571W        W41897  19.771  26.686   2.387
69572W        W41898  25.644  30.023   1.250
69573W        W41899   2.943  24.509   3.354
69574W        W41900   1.790  38.936   0.750
69575W        W41901   2.931  15.114  14.976
69576W        W41902  14.170  25.040   0.477
69577W        W41903  27.034  32.452  14.455
69578W        W41904  29.076  32.899   2.811
69579W        W41905  13.208  44.820  11.073
69580W        W41906  24.172  15.619  12.504
69581W        W41907  34.590  29.521  14.294
69582W        W41908  38.990   5.736   3.748
69583W        W41909  35.959  37.401   0.427
69584W        W41910  32.952  16.656   2.845
69585W        W41911   6.215  11.713  11.517
69586W        W41912  12.782  23.508  11.562
69587W        W41913   2.891  29.623  11.035
69588W        W41914   3.879  42.324  14.509
69589W        W41915   2.841   4.257  14.283
69590W        W41916  41.485  12.804  12.069
69591W        W41917  11.268  33.533   0.414
69592W        W41918  22.226  25.159  11.526
69593W        W41919  37.871  38.353  14.452
69594W        W41920  31.943  21.049   4.240
69595W        W41921  32.054  24.539  10.977
69596W        W41922  10.774  42.997  10.601
69597W        W41923   6.189  26.122   2.370
69598W        W41924   1.762   8.374   3.158
69599W        W41925  23.135  28.952   1.834
69600W        W41926  29.611   2.444  13.356
69601W        W41927  44.772  13.303  12.033
69602W        W41928  29.140  44.882  13.027
69603W        W41929  13.776  34.508   4.654
69604W        W41930  31.503   3.939  11.591
69605W        W41931   0.376   1.896   3.712
69606W        W41932  30.156  27.066  13.413
69607W        W41933  44.948   4.869  14.404
69608W        W41934  17.580  34.078   1.248
69609W        W41935  36.541   9.376   2.191
69610W        W41936  27.665  13.269   3.334
69611W        W41937  28.601   2.287  10.926
69612W        W41938  18.547  36.585  12.053
69613W        W41939  12.327  32.093   4.739
69614W        W41940   8.716  37.371  12.979
69615W        W41941  28.579  40.399  13.047
69616W        W41942  19.077  22.645   1.212
69617W        W41943  32.130   9.774   0.769
69618W        W41944  33.421   1.887   3.666
69619W        W41945  22.629  25.684   2.296
69620W        W41946  17.792   5.193   3.369
69621W        W41947   5.838  14.120  14.432
69622W        W41948  38.877  32.433   2.279
69623W        W41949  35.564  21.635   1.914
69624W        W41950  27.185  39.851  14.352
69625W        W41951  10.138  31.088   3.781
69626W        W41952   7.780  40.975  11.902
69627W        W41953  37.015  13.827  10.998
69628W        W41954   3.906  33.971   4.644
69629W        W41955   3.296  14.221   9.978
69630W        W41956  39.351  31.471   1.728
69631W        W41957  23.619   5.932  12.551
69632W        W41958  14.206  27.575  12.359
69633W        W41959  17.249  44.764  12.008
69634W        W41960  31.543  18.600   4.237
69635W        W41961  40.952  31.999   1.888
69636W        W41962   9.224  36.471   2.670
69637W        W41963  25.971   1.393   3.844
69638W        W41964  38.054  34.551   1.812
69639W        W41965  22.014   0.903  14.939
69640W        W41966  25.615  30.584  13.807
69641W        W41967  17.762  26.033  12.563
69642W        W41968   1.406  27.594  12.500
69643W        W41969  43.415  28.498  11.430
69644W        W41970  41.382  14.186  12.867
69645W        W41971  11.648  15.294   3.715
69646W        W41972  40.007  21.171   1.871
69647W        W41973  19.572  23.586  13.990
69648W        W41974  37.922   4.758   3.246
69649W        W41975  35.415  36.042   4.195
69650W        W41976   2.374  39.833   1.406
69651W        W41977  27.179  10.289   4.142
69652W        W41978   0.480  40.918   3.323
69653W        W41979  33.554  27.625  12.465
69654W        W41980  16.681  23.597  13.999
69655W        W41981  39.530  30.950  10.632
69656W        W41982   8.356  17.097   2.295
69657W        W41983   0.467   0.796  14.325
69658W        W41984  38.890  28.028  10.631
69659W        W41985  25.137  43.004   2.334
69660W        W41986   3.935  31.620   1.717
69661W        W41987  39.056  28.548  12.367
69662W        W41988  37.964  41.464   4.636
69663W        W41989   2.814  25.076  14.970
69664W        W41990  18.791   9.330   3.700
69665W        W41991  43.934  13.712  14.385
69666W        W41992   4.258  33.110   4.339
69667W        W41993  10.844  29.536   2.255
69668W        W41994  42.859   9.385  13.914
69669W        W41995  30.483  28.621  10.597
69670W        W41996   9.391   0.921  14.434
69671W        W41997  25.514  14.803   4.253
69672W        W41998  16.696  14.654   1.436
69673W        W41999  11.764   7.680   1.217
69674W        W42000   9.308   7.191  13.984
69675W        W42001  33.054  30.051  11.073
69676W        W42002  19.273  32.083   4.758
69677W        W42003   4.303  31.987  10.966
69678W        W42004   7.339  25.647  11.558
69679W        W42005  31.644   6.339  12.951
69680W        W42006  15.800   7.846   2.781
69681W        W42007  26.025   0.776  13.440
69682W        W42008   8.201  24.127  11.111
69683W        W42009   7.275  28.027  13.334
69684W        W42010  16.746  22.075  10.981
69685W        W42011  37.993  21.040  12.393
69686W        W42012  17.756  12.140   3.346
69687W        W42013  44.287  14.236   4.646
69688W        W42014  37.578  17.204  12.902
69689W        W42015  26.657   8.713   4.835
69690W        W42016   7.199   1.297   3.840
69691W        W42017  43.308  32.001   0.857
69692W        W42018  24.700   9.818   1.352
69693W        W42019   2.304   6.701   4.712
69694W        W42020  23.207  27.984   4.798
69695W        W42021  20.211  36.909   2.378
69696W        W42022  30.982  30.130  12.469
69697W        W42023   7.774  11.278  12.973
69698W        W42024  13.833  17.671   3.840
69699W        W42025  20.095   3.932   0.404
69700W        W42026  33.454  31.484   1.348
69701W        W42027  40.314  44.343  13.878
69702W        W42028  34.577  23.211   2.831
69703W        W42029  25.014  26.079  14.901
69704W        W42030   3.907  24.544  11.992
69705W        W42031   6.763  39.460  13.829
69706W        W42032  13.216   0.404  11.890
69707W        W42033   4.432  28.602  12.968
69708W        W42034  39.516  40.466  11.118
69709W        W42035  35.061  44.333  10.151
69710W        W42036  12.287  44.908   0.309
69711W        W42037  40.458  11.689   0.901
69712W        W42038  30.588  26.128   4.770
69713W        W42039  24.531  13.791  10.489
69714W        W42040  43.853  41.444   3.324
69715W        W42041   4.332   2.337   3.838
69716W        W42042  29.085   4.359  12.989
69717W        W42043  25.005  26.110  13.330
69718W        W42044  20.206  14.154  10.106
69719W        W42045  15.302  42.495  14.845
69720W        W42046  19.224  26.041  12.348
69721W        W42047  28.445  44.861   3.359
69722W        W42048  12.119  40.975  11.565
69723W        W42049  41.808  30.464  12.068
69724W        W42050  43.978  43.991  11.483
69725W        W42051   9.887  21.580   4.655
69726W        W42052  21.212  14.147   3.864
69727W        W42053  23.563   8.392  14.879
69728W        W42054  25.684   7.184   1.266
69729W        W42055  13.281  18.082  14.800
69730W        W42056  15.085  15.197   1.729
69731W        W42057  13.826  39.486  12.343
69732W        W42058  41.033  26.997  14.789
69733W        W42059  20.725   0.831  14.308
69734W        W42060  35.961  30.476  10.570
69735W        W42061  13.251   7.750  14.406
69736W        W42062   8.821  11.187   1.313
69737W        W42063  31.458  41.956   2.233
69738W        W42064   3.927  26.671  13.983
69739W        W42065  17.726  37.049  14.008
69740W        W42066  18.264  34.540  11.885
69741W        W42067  17.241  28.668  13.367
69742W        W42068  41.409  43.507   5.296
69743W        W42069  18.100  42.885  11.589
69744W        W42070   2.745  22.031  13.880
69745W        W42071  23.589  18.262   1.757
69746W        W42072  20.666  34.416  14.813
69747W        W42073  43.430  15.822   1.435
69748W        W42074  30.992  25.993  14.451
69749W        W42075  17.715  26.139  13.456
69750W        W42076  20.076   5.840   1.293
69751W        W42077  11.287  35.414  12.958
69752W        W42078  28.929  20.258  10.513
69753W        W42079  11.175  22.501  10.927
69754W        W42080   2.875  11.200  10.091
69755W        W42081   1.276  43.003  11.595
69756W        W42082  30.426  27.496   2.739
69757W        W42083  41.844  44.963  11.426
69758W        W42084  23.610  11.718  12.898
69759W        W42085  42.944  26.526  13.035
69760W        W42086  41.405  30.611  14.971
69761W        W42087  32.130   3.447  10.563
69762W        W42088   8.231  22.540   2.277
69763W        W42089   5.803   8.872  10.431
69764W        W42090  29.947   3.942  10.531
69765W        W42091  19.593  20.762  13.470
69766W        W42092  32.098  30.161   3.226
69767W        W42093   3.738  33.416   4.183
69768W        W42094  32.418  41.828  13.404
69769W        W42095  27.043  43.988   3.639
69770W        W42096  44.320  21.063  14.930
69771W        W42097  33.921  26.635  11.401
69772W        W42098  10.750   8.195   2.872
69773W        W42099  17.743  16.585  14.953
69774W        W42100   6.324  26.032   3.298
69775W        W42101  25.038   5.349   4.172
69776W        W42102  18.580  24.503  14.859
69777W        W42103   5.368  34.989  11.090
69778W        W42104  44.338  36.514  14.922
69779W        W42105  23.504  39.892   3.220
69780W        W42106  24.693  21.692   4.316
69781W        W42107  26.700  36.846  14.975
69782W        W42108  23.526  30.431   2.234
69783W        W42109  36.416  18.734   0.881
69784W        W42110  32.573  44.493   0.875
69785W        W42111  24.171  39.893  13.316
69786W        W42112   7.276  21.552   1.433
69787W        W42113  10.273  25.176   2.393
69788W        W42114   5.930   8.194   1.414
69789W        W42115  24.993   4.866  13.449
69790W        W42116  31.121  34.517   3.204
69791W        W42117  39.966  42.348   4.683
69792W        W42118  35.521   6.707   4.830
69793W        W42119  23.197  38.903   9.960
69794W        W42120  38.052   0.871  11.371
69795W        W42121  19.090   6.389  11.924
69796W        W42122  38.987  17.605  10.083
69797W        W42123  20.123   7.910  13.896
69798W        W42124  13.309  38.468  12.385
69799W        W42125  32.629  40.980  14.005
69800W        W42126   1.740  28.975  11.510
69801W        W42127  37.405  38.489  12.493
69802W        W42128  12.211  29.036   0.317
69803W        W42129  31.504  23.175   1.778
69804W        W42130  18.690  26.659   1.410
69805W        W42131  38.346  30.090  13.396
69806W        W42132   4.239  13.767   1.234
69807W        W42133  40.917   4.883   1.767
69808W        W42134  32.450  14.593  13.866
69809W        W42135  14.123  20.098  10.901
69810W        W42136  22.007  36.919  10.464
69811W        W42137  32.950   3.301  10.432
69812W        W42138  44.843  34.408   0.860
69813W        W42139  34.075  26.073  13.874
69814W        W42140  30.432  12.654  13.991
69815W        W42141   8.656  12.270   2.679
69816W        W42142  26.991  44.765   0.405
69817W        W42143   9.205  42.896   2.415
69818W        W42144  23.656  32.020   2.734
69819W        W42145  40.424   0.351   0.886
69820W        W42146  28.133   1.869  13.792
69821W        W42147  22.138  22.675  13.810
69822W        W42148  29.645  31.481   2.694
69823W        W42149  12.160  29.109   3.689
69824W        W42150   7.849  42.338  12.859
69825W        W42151  26.457  43.984   1.806
69826W        W42152  26.559  43.863  10.432
69827W        W42153  11.367   3.438   3.376
69828W        W42154  28.180   1.939   9.946
69829W        W42155   4.780   4.885  10.512
69830W        W42156  44.828  15.741   0.474
69831W        W42157  31.596  29.012  13.382
69832W        W42158  43.311  18.111  12.976
69833W        W42159   4.315  12.638   3.788
69834W        W42160   5.824  21.236   3.734
69835W        W42161  36.028  26.135   2.236
69836W        W42162   2.337  37.572   3.765
69837W        W42163  15.585  30.635  13.019
69838W        W42164  29.118  18.139   2.383
69839W        W42165   3.759  43.937  10.588
69840W        W42166  30.027  12.734   2.834
69841W        W42167   8.899  34.456   0.743
69842W        W42168   4.216  37.917   2.274
69843W        W42169   3.241  37.835  10.974
69844W        W42170  29.053  24.201  10.890
69845W        W42171  35.473  16.198   0.356
69846W        W42172  26.504   0.325  10.982
69847W        W42173  10.744  28.119  13.497
69848W        W42174  33.071  20.271  11.070
69849W        W42175  19.711  23.000   3.808
69850W        W42176  35.486  32.996  10.601
69851W        W42177  16.793  13.600  10.571
69852W        W42178  12.832  34.438   4.280
69853W        W42179   9.353   4.773  13.464
69854W        W42180  13.805  18.217  13.467
69855W        W42181  15.175  17.764   0.769
69856W        W42182  13.326  16.626   4.678
69857W        W42183  18.788  27.010   2.328
69858W        W42184  24.555  14.275  12.909
69859W        W42185  21.141  42.502  13.867
69860W        W42186  32.438  44.473  14.312
69861W        W42187  19.659  29.143  13.929
69862W        W42188  31.446  30.940   2.253
69863W        W42189  29.113   9.764   2.353
69864W        W42190  43.934  17.249   2.842
69865W        W42191  24.590  42.296  14.807
69866W        W42192   7.765  19.090   1.837
69867W        W42193  18.170  40.390   0.775
69868W        W42194  19.096   6.371   3.365
69869W        W42195  29.104  27.035   4.337
69870W        W42196  21.519  12.770   1.850
69871W        W42197  36.524  35.380   1.696
69872W        W42198  40.977   0.308   4.121
69873W        W42199  22.174  30.439   3.739
69874W        W42200  37.437  38.541  10.514
69875W        W42201  32.033  36.555   1.812
69876W        W42202   0.748  37.049   0.954
69877W        W42203  19.758  24.077   0.909
69878W        W42204  22.170  33.519  10.489
69879W        W42205   9.770  26.667  14.936
69880W        W42206  25.110  23.503   2.873
69881W        W42207  37.475  40.463  12.946
69882W        W42208  32.973  29.118  11.025
69883W        W42209  29.601  41.475  12.958
69884W        W42210  31.407  23.701   1.220
69885W        W42211   9.667  40.511   1.344
69886W        W42212  21.037  22.645   3.759
69887W        W42213  28.971   8.807  13.825
69888W        W42214   4.811  37.905  10.115
69889W        W42215  12.841  28.442   3.378
69890W        W42216  15.603  11.168   0.454
69891W        W42217   3.894   5.369   2.237
69892W        W42218  40.354  26.689  13.533
69893W        W42219  11.344  30.916   3.323
69894W        W42220  18.640  12.293   3.646
69895W        W42221  10.374  37.485   4.247
69896W        W42222  20.710  23.181  14.386
69897W        W42223  19.744  41.303  13.393
69898W        W42224  24.193  28.075   2.814
69899W        W42225  41.787   1.740  11.446
69900W        W42226  27.664  30.112  14.511
69901W        W42227  27.033  28.506   1.880
69902W        W42228   2.310   8.396   0.786
69903W        W42229   2.919  39.314  13.513
69904W        W42230   8.207  21.028  13.311
69905W        W42231  17.698  43.406   2.190
69906W        W42232  24.572  36.904  11.069
69907W        W42233  12.682   3.264  10.953
69908W        W42234   5.735  33.615   0.926
69909W        W42235   7.325  29.473   0.370
69910W        W42236   2.874  20.137   0.439
69911W        W42237  39.025  30.652  14.006
69912W        W42238   0.747  22.061  11.001
69913W        W42239  28.458  24.533   2.415
69914W        W42240  37.529  21.669   3.773
69915W        W42241   2.911   0.857   2.304
69916W        W42242  29.554  44.909  11.953
69917W        W42243  23.222  13.206   0.419
69918W        W42244  32.448  39.546  11.032
69919W        W42245   2.372  38.936  13.942
69920W        W42246  43.282  16.732  13.025
69921W        W42247   4.920  26.509   2.219
69922W        W42248  21.035  29.074   4.838
69923W        W42249  12.135  16.678  11.465
69924W        W42250  29.558  18.715   0.420
69925W        W42251   0.915  37.063   0.393
69926W        W42252  10.663  12.629   0.795
69927W        W42253  29.630  36.066   9.920
69928W        W42254  11.655  38.026   3.723
69929W        W42255  27.457  14.308   1.293
69930W        W42256  27.516  44.367  13.939
69931W        W42257  12.788   5.826  13.381
69932W        W42258  27.552  15.236   0.909
69933W        W42259  16.749  22.682  12.555
69934W        W42260  35.545  43.319   2.825
69935W        W42261  10.327   2.926  12.048
69936W        W42262  19.611  18.195   1.321
69937W        W42263  16.212  38.888   4.231
69938W        W42264  42.829  17.109   0.362
69939W        W42265   7.397  39.926   1.311
69940W        W42266  25.540  27.573   4.340
69941W        W42267  30.421   0.857   4.156
69942W        W42268  30.025  26.955   1.315
69943W        W42269  25.206   1.834  14.972
69944W        W42270  34.059  43.773  10.502
69945W        W42271   8.206  36.974  13.884
69946W        W42272  42.796   4.860   0.482
69947W        W42273  44.770   3.411   1.813
69948W        W42274  18.126  33.496  11.883
69949W        W42275   9.313   2.472   3.384
69950W        W42276  31.506  14.304   1.736
69951W        W42277  24.529   4.761  13.808
69952W        W42278  15.229   5.346  12.435
69953W        W42279  15.782  40.803   3.295
69954W        W42280  13.641  26.077   3.359
69955W        W42281  35.006  16.598   1.238
69956W        W42282  13.846  21.139   0.357
69957W        W42283   4.713  35.884  10.950
69958W        W42284  22.240  41.847   4.736
69959W        W42285  22.715  18.561  11.943
69960W        W42286  44.952  13.140  10.500
69961W        W42287  27.506  14.184  11.979
69962W        W42288  27.046   1.471  12.095
69963W        W42289  19.163  41.360  12.551
69964W        W42290  29.029  21.041  11.449
69965W        W42291  33.050  35.464   3.273
69966W        W42292   1.966  16.744   3.230
69967W        W42293  12.205  44.456  12.541
69968W        W42294  34.904  38.400  12.493
69969W        W42295  14.626  11.848   1.387
69970W        W42296  19.611   2.903   2.267
69971W        W42297  33.984  32.896  13.402
69972W        W42298  17.602  40.517  10.537
69973W        W42299  41.415  10.660   1.357
69974W        W42300  22.160  17.130   1.365
69975W        W42301   0.365  36.862  13.504
69976W        W42302  41.526  40.903   1.813
69977W        W42303  42.398  13.322  10.576
69978W        W42304  27.194  17.733   4.615
69979W        W42305   0.295  16.177   3.741
69980W        W42306   4.331  27.149  12.920
69981W        W42307  29.012  20.188  11.467
69982W        W42308  26.978  28.096   1.784
69983W        W42309  42.857  21.552   2.410
69984W        W42310  34.575  29.038  12.421
69985W        W42311  20.640  37.977  11.469
69986W        W42312  33.535   1.253   3.310
69987W        W42313  15.685  15.786   3.320
69988W        W42314  28.631  10.247  10.448
69989W        W42315  10.852  27.103   1.426
69990W        W42316  10.876   0.488  11.991
69991W        W42317  25.659   6.371  14.349
69992W        W42318  24.630  43.966   0.481
69993W        W42319  31.930  15.610   0.468
69994W        W42320  38.527  10.233   0.783
69995W        W42321  13.661  39.953   0.875
69996W        W42322   5.327   5.395  11.033
69997W        W42323  30.657  19.210   2.889
69998W        W42324  36.878   8.799   4.351
69999W        W42325   6.920  13.243   3.184
70000W        W42326  39.046  22.116  12.957
70001W        W42327  25.161  43.297   1.336
70002W        W42328  30.642  18.776   4.123
70003W        W42329  41.502  27.035  13.826
70004W        W42330   7.249  13.811   2.740
70005W        W42331  11.629  19.627   2.232
70006W        W42332  28.943  27.571  10.931
70007W        W42333  23.226  24.663   2.742
70008W        W42334   2.810  10.334   4.801
70009W        W42335  29.034  30.445  13.378
70010W        W42336  37.458  41.889  11.087
70011W        W42337  37.498  44.421   3.830
70012W        W42338  23.708   3.744   2.301
70013W        W42339  36.511   7.738   3.740
70014W        W42340   8.854  15.656  12.930
70015W        W42341  11.750  36.403   2.211
70016W        W42342  16.210  40.914   2.285
70017W        W42343  25.167   6.267  10.440
70018W        W42344  43.375  36.575  13.843
70019W        W42345  35.068  35.481  13.455
70020W        W42346  25.658  32.910   2.401
70021W        W42347  33.489  38.485  11.019
70022W        W42348  26.122   9.315  13.893
70023W        W42349  21.022   8.201   4.631
70024W        W42350  20.530  31.431  14.356
70025W        W42351  36.963  14.224  10.631
70026W        W42352  26.562  31.012   3.740
70027W        W42353  12.644  13.796   4.771
70028W        W42354  16.287  28.980   5.283
70029W        W42355  38.528  44.757   1.261
70030W        W42356  19.143   7.326   0.311
70031W        W42357  30.525  33.101   1.379
70032W        W42358  35.365  22.540  14.895
70033W        W42359  26.985  44.433   4.341
70034W        W42360  38.897  17.295  11.533
70035W        W42361  33.964   9.647  12.460
70036W        W42362  36.501  38.916   0.870
70037W        W42363   1.467  31.936  12.350
70038W        W42364  28.513   4.937  14.895
70039W        W42365  28.658  33.468   3.721
70040W        W42366  15.589  12.681   1.734
70041W        W42367  29.968   8.684   1.323
70042W        W42368  21.634  34.036   0.847
70043W        W42369  33.416  30.022   0.959
70044W        W42370   5.352  42.518   4.273
70045W        W42371  12.800   8.176  10.533
70046W        W42372  44.836  44.335  14.295
70047W        W42373   3.764  26.474  14.777
70048W        W42374  21.172  14.759   0.819
70049W        W42375  41.460   9.830   3.767
70050W        W42376  10.218  20.069  11.076
70051W        W42377  28.038   5.784  12.046
70052W        W42378  20.245   3.722   4.811
70053W        W42379  21.614   1.840   0.852
70054W        W42380  31.426  28.654   1.754
70055W        W42381  39.949  27.600  14.415
70056W        W42382  24.014  16.088  10.927
70057W        W42383  40.033  12.738  13.310
70058W        W42384  23.989   3.420   3.348
70059W        W42385   0.477  34.083   1.278
70060W        W42386  18.123  17.772   2.360
70061W        W42387  32.637  39.978   3.354
70062W        W42388  43.466  39.398   1.702
70063W        W42389  44.485  18.633  14.807
70064W        W42390  30.019  31.083  12.419
70065W        W42391  35.382   5.362   3.372
70066W        W42392  29.501   4.404  11.575
70067W        W42393  23.005  15.811  11.520
70068W        W42394  40.941  16.162  13.979
70069W        W42395   8.358   5.778   4.820
70070W        W42396  12.701   6.921  12.045
70071W        W42397  34.553  20.622   1.723
70072W        W42398   0.797  42.395  14.996
70073W        W42399  26.613   5.783   0.811
70074W        W42400  43.297   3.782   1.888
70075W        W42401  12.661  20.056   1.382
70076W        W42402  17.098  15.735   3.807
70077W        W42403  43.848  44.291   4.253
70078W        W42404   5.270  20.630  13.871
70079W        W42405  32.994  28.109   1.834
70080W        W42406  19.538  40.806   3.722
70081W        W42407  31.600  38.975   1.318
70082W        W42408   3.404  41.419   0.759
70083W        W42409  18.268  19.684  12.009
70084W        W42410  30.486  27.088   1.831
70085W        W42411  29.160  41.366   0.812
70086W        W42412  27.105  24.720   3.733
70087W        W42413  18.615  30.909  10.630
70088W        W42414  17.639  36.400  13.862
70089W        W42415  13.782   7.856   4.343
70090W        W42416  38.566  10.777  11.391
70091W        W42417   9.825  23.006   3.170
70092W        W42418  37.036  29.574  13.939
70093W        W42419  14.677  31.037  13.540
70094W        W42420  37.341  28.128  12.451
70095W        W42421   5.269  25.540   4.261
70096W        W42422  11.662  37.029  12.559
70097W        W42423   6.884  18.685   1.781
70098W        W42424  30.592   5.296  13.362
70099W        W42425   3.846  27.608   4.134
70100W        W42426   1.269   2.292   1.919
70101W        W42427  16.098   8.857  14.465
70102W        W42428  36.524  37.484  12.512
70103W        W42429  17.120  31.438  13.482
70104W        W42430  13.263  44.271  11.465
70105W        W42431  33.958  23.217   2.877
70106W        W42432  43.296   6.265  10.053
70107W        W42433  40.809  19.707   4.680
70108W        W42434  23.209  29.027  12.406
70109W        W42435   3.780   7.795   2.810
70110W        W42436  35.485  41.510  13.968
70111W        W42437  44.871  23.112  13.394
70112W        W42438  41.512  18.725   0.473
70113W        W42439  17.119  41.880   2.183
70114W        W42440  22.080  25.043   1.372
70115W        W42441  41.898  28.059  13.473
70116W        W42442  35.932  35.446   2.771
70117W        W42443   6.850   6.880  14.937
70118W        W42444  30.943  29.963  10.566
70119W        W42445  24.145  43.434  13.891
70120W        W42446  10.268  10.369  13.510
70121W        W42447  28.671  16.191   0.865
70122W        W42448  32.574  32.583  10.449
70123W        W42449  22.745   2.868  12.465
70124W        W42450  16.225  18.217   0.914
70125W        W42451  21.141  33.459   1.707
70126W        W42452  38.496  13.237   1.342
70127W        W42453   4.913  33.050  11.522
70128W        W42454  31.136  30.991   2.325
70129W        W42455  29.017  30.591   1.876
70130W        W42456  25.996  11.177  14.860
70131W        W42457  10.839   9.745  10.601
70132W        W42458   6.820  20.164   2.836
70133W        W42459  23.171  33.521  11.032
70134W        W42460  27.478  12.192  11.062
70135W        W42461  39.456  44.963  12.046
70136W        W42462  35.566  37.967  12.966
70137W        W42463  10.289  23.105   3.191
70138W        W42464  10.336  26.151  10.925
70139W        W42465   5.253  25.705   3.690
70140W        W42466   4.901  14.254   1.230
70141W        W42467  34.484  25.066   4.266
70142W        W42468  18.082  27.109   2.851
70143W        W42469  15.681  21.546   1.319
70144W        W42470  27.093  23.038  11.562
70145W        W42471  14.671   6.909   1.313
70146W        W42472  28.622  10.736  10.421
70147W        W42473  27.568  40.845   2.250
70148W        W42474   2.860  39.944   4.744
70149W        W42475  17.123  30.648  10.050
70150W        W42476  30.548   2.932  12.062
70151W        W42477  26.478  14.610   2.197
70152W        W42478  39.050  33.032   3.674
70153W        W42479  18.175  13.153  12.411
70154W        W42480  34.489  11.148  11.128
70155W        W42481  36.020  44.901   4.147
70156W        W42482  29.156  33.930  14.487
70157W        W42483  19.268  24.710   4.342
70158W        W42484  16.580  21.103  13.532
70159W        W42485   9.273   2.832  13.865
70160W        W42486  41.969  17.157   1.812
70161W        W42487  25.020   6.892   2.835
70162W        W42488  26.204   8.366   4.601
70163W        W42489  33.057  31.501   3.362
70164W        W42490  16.720   1.479   4.255
70165W        W42491  29.130  19.721  13.383
70166W        W42492  27.684  30.507   4.179
70167W        W42493  32.953   4.846   4.131
70168W        W42494  21.672  18.767  11.880
70169W        W42495  25.522   3.809  11.491
70170W        W42496  25.655  19.729   1.755
70171W        W42497  13.244  17.654   4.202
70172W        W42498  25.688  22.652   2.877
70173W        W42499  42.932  15.710   3.207
70174W        W42500  12.738  18.208  13.861
70175W        W42501   8.848  31.993  14.513
70176W        W42502  40.336  34.428  12.569
70177W        W42503  17.751  40.866  11.117
70178W        W42504  17.186  32.968   3.847
70179W        W42505   2.441  15.310   2.826
70180W        W42506   3.264   8.683   2.679
70181W        W42507   7.852  13.217   2.211
70182W        W42508  37.855  44.398   3.198
70183W        W42509  42.303  44.298   1.305
70184W        W42510  37.042  31.566   4.259
70185W        W42511  29.473  38.436   3.679
70186W        W42512  34.018   0.282   2.835
70187W        W42513  22.013  29.637  11.598
70188W        W42514  22.050   1.285   2.295
70189W        W42515  31.437  36.936  13.428
70190W        W42516   1.841  10.827   3.238
70191W        W42517  38.879  15.665  12.474
70192W        W42518  11.134  35.425  13.865
70193W        W42519  17.618  27.679   2.333
70194W        W42520  31.005  10.373   0.808
70195W        W42521   6.798  35.889   3.320
70196W        W42522  41.881  14.220   1.394
70197W        W42523  16.114  15.726   4.122
70198W        W42524   8.397  36.043  11.519
70199W        W42525  21.180  12.252  13.966
70200W        W42526  29.041  18.669   2.222
70201W        W42527   4.376  16.677   0.958
70202W        W42528  20.151  28.437  13.314
70203W        W42529  22.695  42.849  11.916
70204W        W42530   4.277   3.778   5.205
70205W        W42531  33.555   8.840   3.851
70206W        W42532   4.815  22.028   0.858
70207W        W42533  40.991   6.369  12.072
70208W        W42534   4.781  39.407  13.887
70209W        W42535  31.466  12.614  12.342
70210W        W42536  40.798  12.619   4.185
70211W        W42537   1.844  11.301   4.120
70212W        W42538  34.090  37.403   2.414
70213W        W42539  18.698   2.850  11.024
70214W        W42540  10.298  14.267   5.138
70215W        W42541  27.038  37.471  13.840
70216W        W42542  44.361  40.476  11.553
70217W        W42543  35.534  18.193   2.867
70218W        W42544  38.057   0.985  14.024
70219W        W42545  40.007  26.470  10.607
70220W        W42546  24.716  24.718   4.677
70221W        W42547  26.621  42.940   4.176
70222W        W42548  29.515  39.898  14.886
70223W        W42549  28.460  19.116   0.256
70224W        W42550  34.568  13.340  12.926
70225W        W42551  34.388   0.331   3.353
70226W        W42552  28.512  24.682   0.349
70227W        W42553  31.438  22.597   2.777
70228W        W42554  24.722  29.169   1.780
70229W        W42555   4.788  34.507   1.908
70230W        W42556  42.410   2.404   2.327
70231W        W42557   0.786   4.323   1.264
70232W        W42558  30.516   5.781  14.861
70233W        W42559  28.944   8.784   3.780
70234W        W42560  42.359   7.366   2.294
70235W        W42561   5.300  42.343   0.274
70236W        W42562  32.926  17.566  12.082
70237W        W42563  14.822  37.947  11.495
70238W        W42564  34.076   9.348  12.963
70239W        W42565  21.693  10.287  13.509
70240W        W42566   6.206   1.461   3.857
70241W        W42567  34.053  24.647  12.384
70242W        W42568  34.551  21.755   2.662
70243W        W42569  14.333  36.367  13.963
70244W        W42570   3.920  13.268  10.900
70245W        W42571   6.720  36.020   1.430
70246W        W42572  37.406  20.744  13.325
70247W        W42573  30.497   9.342   4.205
70248W        W42574  20.056   2.730  11.946
70249W        W42575   9.347   1.769   1.752
70250W        W42576   3.745  17.615  14.871
70251W        W42577   6.920  25.995  10.536
70252W        W42578  41.430   3.804   3.233
70253W        W42579  10.198   3.865   0.408
70254W        W42580  37.887  14.182  11.537
70255W        W42581  23.623   4.286  13.924
70256W        W42582  26.014  17.624   3.294
70257W        W42583  29.598   9.175   4.671
70258W        W42584  42.506  14.639  11.989
70259W        W42585  40.882  28.167  10.503
70260W        W42586   5.267   0.429  13.850
70261W        W42587  23.723  37.934   3.319
70262W        W42588  39.826  41.327  14.909
70263W        W42589  30.971   8.658   2.376
70264W        W42590  36.441  35.967   9.951
70265W        W42591  33.894  29.606   4.776
70266W        W42592  41.495  19.598   1.765
70267W        W42593  32.074  14.810  12.456
70268W        W42594  32.420  43.986  11.889
70269W        W42595  20.578   7.688  13.963
70270W        W42596   8.192  35.514  12.571
70271W        W42597   5.424  38.988   1.448
70272W        W42598   4.731  23.727  13.916
70273W        W42599  33.882   3.900  12.565
70274W        W42600  16.759  18.090  10.449
70275W        W42601  23.232  34.023   1.405
70276W        W42602  22.566  37.888   5.167
70277W        W42603  39.946  21.023   2.804
70278W        W42604  23.056  16.200  14.338
70279W        W42605  34.971  43.905  10.547
70280W        W42606  37.554  18.106   3.766
70281W        W42607  29.997  11.811   4.315
70282W        W42608  41.336  26.108  10.596
70283W        W42609   9.343  44.993  13.029
70284W        W42610  42.816   5.806  14.476
70285W        W42611  24.678  13.329  14.918
70286W        W42612   7.681  43.481   0.920
70287W        W42613  35.541   6.819  12.534
70288W        W42614  25.194  30.144   0.415
70289W        W42615   1.916   1.320   1.395
70290W        W42616  40.872   7.405  13.395
70291W        W42617  16.751  40.907  14.441
70292W        W42618  24.031  27.982  13.482
70293W        W42619  40.929   0.313   2.673
70294W        W42620  13.275  37.410  12.569
70295W        W42621  26.031   6.792  13.890
70296W        W42622  26.106  21.642  11.396
70297W        W42623  42.794  27.606  14.373
70298W        W42624  43.863  41.997   1.873
70299W        W42625   3.310  25.133  12.409
70300W        W42626  18.057  18.156  14.842
70301W        W42627  28.957  42.830  13.985
70302W        W42628  26.013  30.083  13.449
70303W        W42629  34.395   1.252  14.975
70304W        W42630  12.634  19.644  14.286
70305W        W42631  37.976   9.734   1.451
70306W        W42632  14.216  13.681  13.519
70307W        W42633  30.042  23.100  14.971
70308W        W42634  37.972  36.386   1.806
70309W        W42635  23.498   8.372   3.722
70310W        W42636   1.369  22.508   3.724
70311W        W42637   0.885  28.058   2.213
70312W        W42638  24.698  23.011  11.095
70313W        W42639  40.805   0.259  13.461
70314W        W42640   6.911   1.464   2.298
70315W        W42641   6.268  36.939   0.955
70316W        W42642  33.566  16.092  12.992
70317W        W42643  24.055  42.777  11.001
70318W        W42644  12.125  43.789  13.353
70319W        W42645  33.070  21.577  14.408
70320W        W42646   8.245  32.573  14.400
70321W        W42647  25.535  11.275   0.832
70322W        W42648  22.016  35.985   0.301
70323W        W42649  37.452  28.002  14.442
70324W        W42650  40.534   7.740  12.075
70325W        W42651  40.838  12.611  11.449
70326W        W42652  33.482  24.033  11.010
70327W        W42653  34.872  28.050   1.724
70328W        W42654  15.173  25.219   1.771
70329W        W42655  28.639  17.671   2.305
70330W        W42656  35.533  25.207   1.278
70331W        W42657   9.825  24.072  14.009
70332W        W42658  14.168  15.601  13.869
70333W        W42659   9.716  27.557   3.363
70334W        W42660   5.357   2.852  11.031
70335W        W42661   5.247  30.562   2.788
70336W        W42662   5.749  32.553   4.192
70337W        W42663  25.482  30.108  14.848
70338W        W42664   8.164  27.000  14.302
70339W        W42665  32.442  39.017  13.991
70340W        W42666  18.207  40.872   2.746
70341W        W42667  17.701  41.361  14.884
70342W        W42668  17.746   9.654  13.811
70343W        W42669  37.408   9.845  12.433
70344W        W42670  17.686  37.571  12.851
70345W        W42671  39.347  33.429  10.614
70346W        W42672  28.444   3.778   1.823
70347W        W42673  18.616  31.563  10.535
70348W        W42674   8.284  27.538  14.982
70349W        W42675  19.125   5.741  14.274
70350W        W42676  11.670  19.056  10.411
70351W        W42677  39.015  40.900  11.122
70352W        W42678   7.889  31.034  11.460
70353W        W42679  17.122  29.953  10.468
70354W        W42680  14.639  16.092   4.680
70355W        W42681  24.998   5.227  13.943
70356W        W42682  35.916  31.959  11.059
70357W        W42683  10.663  13.714   2.662
70358W        W42684  39.480  12.169  14.293
70359W        W42685  36.846  16.317  10.926
70360W        W42686  43.496  35.475  10.473
70361W        W42687  20.202  40.423   2.847
70362W        W42688  36.979   6.411  12.879
70363W        W42689  13.293  43.488  11.931
70364W        W42690  36.522  10.679  11.085
70365W        W42691   3.251  23.150   1.326
70366W        W42692  42.282  12.706  13.971
70367W        W42693  15.813  30.086  13.959
70368W        W42694  23.674  19.714  13.456
70369W        W42695   1.436  11.210   4.269
70370W        W42696   7.238  39.046   0.349
70371W        W42697  31.034  32.499   0.856
70372W        W42698   8.835  35.908   4.306
70373W        W42699  22.628   3.303  13.441
70374W        W42700  24.087  28.113  11.410
70375W        W42701  32.908  23.227   1.367
70376W        W42702   9.190   0.810  11.888
70377W        W42703  44.482   4.418   1.397
70378W        W42704  15.772  22.567   4.656
70379W        W42705   5.779   9.718   4.608
70380W        W42706   4.844  26.532   1.379
70381W        W42707  32.056  44.309   1.380
70382W        W42708  22.049  19.729   0.453
70383W        W42709  27.017  15.582  11.913
70384W        W42710  14.835  40.896   4.337
70385W        W42711  35.968  17.224  10.615
70386W        W42712  42.485  44.499  14.915
70387W        W42713  34.936  38.973  11.982
70388W        W42714  25.618  44.900   2.842
70389W        W42715  41.842  16.099  11.916
70390W        W42716  24.493   0.887   4.187
70391W        W42717   8.226  20.084  11.013
70392W        W42718  26.196  31.934   3.675
70393W        W42719  36.856  17.758   4.652
70394W        W42720  18.272  35.955  12.088
70395W        W42721  18.176  11.362  11.931
70396W        W42722  17.154   8.166   0.284
70397W        W42723   9.814  24.218   1.337
70398W        W42724  39.887  31.506  10.967
70399W        W42725   1.944   9.809   5.139
70400W        W42726  35.916  12.202   1.808
70401W        W42727  10.222  14.327  13.856
70402W        W42728  22.121  32.010  14.965
70403W        W42729  38.958   3.419   0.396
70404W        W42730  40.422  44.829  11.018
70405W        W42731  44.897  32.978  14.411
70406W        W42732  10.685  30.421   2.670
70407W        W42733  28.031  24.993   1.368
70408W        W42734  14.797  42.290   2.718
70409W        W42735  40.538  23.153   2.188
70410W        W42736  42.813  18.639  13.483
70411W        W42737   9.268  12.628  11.869
70412W        W42738  11.652   9.163   3.725
70413W        W42739   6.905  22.140  14.832
70414W        W42740  26.639  10.335  14.290
70415W        W42741  25.515  27.069   2.209
70416W        W42742  41.828   1.898   0.309
70417W        W42743  32.623  15.237  14.996
70418W        W42744  27.560  22.700   4.293
70419W        W42745   0.861   9.277  13.411
70420W        W42746  11.770  38.902  10.596
70421W        W42747  23.059   1.865   4.168
70422W        W42748  20.055   2.453   0.404
70423W        W42749  42.368  31.406  13.893
70424W        W42750   5.777  21.048  12.419
70425W        W42751  20.097   1.430   2.757
70426W        W42752  15.620  21.103  10.006
70427W        W42753   8.842  24.041   2.225
70428W        W42754  19.703  27.581  10.476
70429W        W42755   5.724  27.992  14.392
70430W        W42756  18.665  26.060   0.278
70431W        W42757  18.575  20.625  12.824
70432W        W42758   9.792  18.067  11.454
70433W        W42759  12.815  26.516  12.079
70434W        W42760  38.820  21.529  10.466
70435W        W42761   6.877  34.093  12.466
70436W        W42762  36.923  33.610   0.286
70437W        W42763  34.490  40.034  12.052
70438W        W42764  36.092  17.779  14.404
70439W        W42765  40.319  12.361   4.621
70440W        W42766  36.857  12.355  11.978
70441W        W42767  25.067   1.331  12.453
70442W        W42768  30.450  19.583  14.872
70443W        W42769  14.233   1.788   2.741
70444W        W42770   9.742  36.435   1.411
70445W        W42771   8.334  35.490  12.009
70446W        W42772  34.038  20.111  14.344
70447W        W42773  35.964  27.044   2.223
70448W        W42774  16.245  19.632   1.881
70449W        W42775  33.473   9.358  12.505
70450W        W42776  18.112   1.433  11.431
70451W        W42777   5.852  37.565   1.359
70452W        W42778  39.391  29.924   3.210
70453W        W42779  13.721  35.431   2.748
70454W        W42780   4.316  36.059  13.338
70455W        W42781  14.264   7.391  13.049
70456W        W42782  34.040   8.290   3.334
70457W        W42783  13.186  30.458  13.837
70458W        W42784  24.992  38.966  12.988
70459W        W42785  21.514   5.415   2.690
70460W        W42786  25.074  24.044  11.012
70461W        W42787  27.479   1.889   0.966
70462W        W42788  35.518   9.332  14.353
70463W        W42789  34.480  27.137  10.592
70464W        W42790  34.544   4.773   4.177
70465W        W42791  12.730  25.527   1.348
70466W        W42792  17.177  40.044  13.420
70467W        W42793   8.289  33.564   3.304
70468W        W42794  17.241  36.425   2.377
70469W        W42795   2.894   5.749  11.864
70470W        W42796  39.845  42.827  14.303
70471W        W42797  42.823  17.289   4.747
70472W        W42798  33.501  26.522   4.794
70473W        W42799  32.965   8.855   0.468
70474W        W42800  24.598  28.076   4.776
70475W        W42801   8.767   5.830  13.014
70476W        W42802  13.750   4.396   1.695
70477W        W42803  42.315   9.857   3.229
70478W        W42804   8.398  38.070  14.934
70479W        W42805  35.935  34.419   1.354
70480W        W42806  31.423  24.655   1.417
70481W        W42807  38.946  40.881  11.950
70482W        W42808  27.671  39.940  13.907
70483W        W42809  27.616   5.343   2.244
70484W        W42810  31.486  29.926   3.791
70485W        W42811   5.772  14.803   1.810
70486W        W42812  13.647  39.042   0.929
70487W        W42813  19.759  41.868   1.851
70488W        W42814   0.350   9.307   1.710
70489W        W42815  39.453  41.982   2.739
70490W        W42816   3.359  12.830  12.874
70491W        W42817  29.130  44.335   0.899
70492W        W42818   3.364   2.887   3.654
70493W        W42819   0.286  29.477  14.874
70494W        W42820   7.725  22.110   0.928
70495W        W42821  21.103  32.596   0.803
70496W        W42822  19.076  37.066  13.480
70497W        W42823  13.176   6.761   4.790
70498W        W42824  19.190  33.916   4.726
70499W        W42825  15.623  19.579  14.973
70500W        W42826  30.598  17.628  12.007
70501W        W42827  29.989  31.439   1.246
70502W        W42828  28.509  39.343  13.816
70503W        W42829   6.388   8.273   4.610
70504W        W42830  32.602  34.595  14.916
70505W        W42831  39.465  27.039  14.799
70506W        W42832  26.690  12.741   1.830
70507W        W42833  12.827  27.173  10.013
70508W        W42834   5.404  36.031  14.032
70509W        W42835  21.565  15.184   1.291
70510W        W42836  24.217   1.462   4.145
70511W        W42837   6.768  28.978   2.189
70512W        W42838  21.144  20.214   2.356
70513W        W42839  38.388  35.490  14.934
70514W        W42840  16.150  20.623  11.947
70515W        W42841  17.197  22.688   2.881
70516W        W42842  15.323  36.949  12.416
70517W        W42843  16.804  32.887  13.850
70518W        W42844   4.420  36.430   4.284
70519W        W42845   2.251  37.084  12.852
70520W        W42846  15.137  38.490  11.937
70521W        W42847  38.030  32.995  14.791
70522W        W42848   6.381  30.462   3.214
70523W        W42849   8.338  25.209  14.812
70524W        W42850  44.413  24.208   1.211
70525W        W42851  17.233  32.934  12.386
70526W        W42852  15.793   1.733   2.343
70527W        W42853   3.262  32.008   2.389
70528W        W42854   4.328  32.919   3.183
70529W        W42855   9.794  34.478   2.190
70530W        W42856   4.811  27.663   1.325
70531W        W42857  38.006  27.952   0.841
70532W        W42858   1.770  12.243   4.631
70533W        W42859   9.162  14.597   0.871
70534W        W42860  18.148  15.785  10.586
70535W        W42861  44.789  38.363  10.912
70536W        W42862  22.146  30.956  13.992
70537W        W42863  26.573  34.579  11.465
70538W        W42864  41.537  30.528   1.412
70539W        W42865  32.539  19.066  13.920
70540W        W42866  13.790  16.206   4.730
70541W        W42867  10.182  27.083   3.734
70542W        W42868  40.002  29.607   1.882
70543W        W42869  43.332   7.200  11.008
70544W        W42870  13.315  12.764  12.086
70545W        W42871  44.877   7.363   1.930
70546W        W42872  33.455  24.536  14.368
70547W        W42873  41.937  41.432   3.227
70548W        W42874  33.120   2.335   1.405
70549W        W42875  30.043  14.238   1.301
70550W        W42876  40.856   4.887  14.474
70551W        W42877  22.599  40.896   0.404
70552W        W42878  41.402  44.359  10.957
70553W        W42879  24.632  11.186  14.918
70554W        W42880  20.635  22.121   2.214
70555W        W42881  12.628  41.855   0.306
70556W        W42882  38.945  23.052   4.809
70557W        W42883  18.235  21.588  14.005
70558W        W42884   0.967  32.460  14.940
70559W        W42885  43.505  41.920  12.024
70560W        W42886  16.592  41.349  14.818
70561W        W42887  20.100  19.239  11.455
70562W        W42888  23.198  20.228   2.318
70563W        W42889  28.161  25.583   2.747
70564W        W42890  29.628  20.160   4.224
70565W        W42891  30.496   7.265   3.704
70566W        W42892  21.165  24.005   0.429
70567W        W42893  14.205  28.038  13.966
70568W        W42894  18.748  21.726  11.022
70569W        W42895  12.631  33.020   0.923
70570W        W42896  19.741  42.445  14.419
70571W        W42897  11.137  20.157   4.351
70572W        W42898   4.730   8.804  12.342
70573W        W42899  37.439  33.084   3.863
70574W        W42900  39.339   2.354  13.467
70575W        W42901  26.612  24.159  11.473
70576W        W42902  11.325   6.308   0.731
70577W        W42903  28.668  30.651  13.377
70578W        W42904  27.989  27.445   4.600
70579W        W42905  37.340  28.663   3.793
70580W        W42906  19.778  16.087  12.433
70581W        W42907  13.189  22.512  12.938
70582W        W42908  30.989  44.852   4.681
70583W        W42909  20.236  38.981   2.355
70584W        W42910  13.796  34.418  10.426
70585W        W42911   9.735  44.859  13.504
70586W        W42912   8.351  40.324  13.443
70587W        W42913  21.673  14.683  12.847
70588W        W42914  30.936  24.009   0.281
70589W        W42915  29.629   8.808  11.024
70590W        W42916  44.328  10.216   3.253
70591W        W42917  13.310  20.745  11.899
70592W        W42918  31.123  30.492  13.815
70593W        W42919  16.273  13.150   2.194
70594W        W42920  42.986  30.155  12.889
70595W        W42921  38.428  42.527  11.010
70596W        W42922  44.423  21.531  12.018
70597W        W42923  25.660   2.770  11.437
70598W        W42924  14.184  31.972   2.262
70599W        W42925  43.507  23.100   0.294
70600W        W42926  32.063   7.275  13.055
70601W        W42927  30.001  11.235   1.396
70602W        W42928  11.299  28.958   4.831
70603W        W42929  43.014  14.813  14.457
70604W        W42930   6.773   0.756   0.254
70605W        W42931  45.000  35.987  13.896
70606W        W42932  43.295  35.450  11.584
70607W        W42933  18.107  35.589  12.523
70608W        W42934  18.602  43.935   3.648
70609W        W42935  25.218  43.987  10.958
70610W        W42936  22.059  25.055   3.149
70611W        W42937   7.750   4.230  13.462
70612W        W42938   1.870   9.224   1.903
70613W        W42939  40.859   0.308   2.383
70614W        W42940  31.899  17.121   0.310
70615W        W42941   4.858   2.966   5.135
70616W        W42942  31.579  44.967  10.516
70617W        W42943  43.845  27.489  12.895
70618W        W42944  12.739  42.982   4.248
70619W        W42945  41.989  35.070  10.530
70620W        W42946  17.239   6.358   0.782
70621W        W42947   3.888  33.454   4.661
70622W        W42948  16.230  20.682  10.975
70623W        W42949  23.026  42.986   1.403
70624W        W42950   3.273   9.706  13.018
70625W        W42951   6.863  37.581   2.356
70626W        W42952  13.155  21.228  12.501
70627W        W42953   2.733   4.214  11.107
70628W        W42954  19.753  11.345  12.924
70629W        W42955  38.962   3.237   5.282
70630W        W42956  26.175  25.700   2.307
70631W        W42957  22.618  41.839  13.798
70632W        W42958   9.791  27.620   0.378
70633W        W42959  36.581   9.282  11.037
70634W        W42960  20.575  32.605  10.444
70635W        W42961  13.197   4.898   2.297
70636W        W42962  40.388   5.737  10.629
70637W        W42963  12.161  42.287   3.194
70638W        W42964   9.353  34.609  10.407
70639W        W42965  13.113  25.977  13.949
70640W        W42966  14.207  42.840   4.198
70641W        W42967   6.256  37.866  12.907
70642W        W42968  28.159  13.289  14.352
70643W        W42969  36.906  26.042  10.483
70644W        W42970  39.049  16.584  13.863
70645W        W42971  39.841  15.322   3.371
70646W        W42972  28.673  38.820  13.396
70647W        W42973   0.406   2.231   2.418
70648W        W42974   1.930  27.968  11.069
70649W        W42975  21.078  36.943   1.880
70650W        W42976  13.178   7.289   3.756
70651W        W42977   0.817  26.024   1.427
70652W        W42978  31.403   6.823   4.148
70653W        W42979   3.713  12.276   9.610
70654W        W42980   8.376  29.016  13.461
70655W        W42981   3.343  29.517   4.274
70656W        W42982  35.010  24.575  11.549
70657W        W42983   9.803   6.756   2.885
70658W        W42984  28.144  33.028  14.510
70659W        W42985  22.622  14.764  11.880
70660W        W42986   4.368  11.796   3.795
70661W        W42987  32.095  42.947   2.419
70662W        W42988   5.853  29.491  12.497
70663W        W42989   2.894   9.279  12.360
70664W        W42990   4.305   6.235  13.005
70665W        W42991   0.851  30.095  14.396
70666W        W42992  10.845  34.383  14.341
70667W        W42993   7.271  13.170   0.365
70668W        W42994  38.970  29.513   3.373
70669W        W42995   8.853  22.137   1.842
70670W        W42996  44.964  21.223  13.320
70671W        W42997  40.051   3.756  13.532
70672W        W42998   7.399  42.448   4.279
70673W        W42999  30.921  17.085   1.446
70674W        W43000   3.428  26.524   0.795
70675W        W43001  41.434  30.642   2.354
70676W        W43002  39.451   7.229   0.381
70677W        W43003  15.719  27.093  13.847
70678W        W43004  32.527  43.999  14.337
70679W        W43005   4.379  29.166  12.341
70680W        W43006   1.321  43.411   3.279
70681W        W43007   5.224  32.476  13.934
70682W        W43008  36.896  24.615   1.916
70683W        W43009  10.323  10.274  12.427
70684W        W43010   7.359  33.588  14.032
70685W        W43011  43.339   9.860  12.545
70686W        W43012  36.446  35.032  14.438
70687W        W43013  35.942  25.981  13.406
70688W        W43014  37.568   5.217   3.840
70689W        W43015  37.464  16.651  12.895
70690W        W43016   6.307  35.951   4.334
70691W        W43017  22.222  28.997   2.820
70692W        W43018   2.855  14.183   2.305
70693W        W43019  10.817  30.050  10.923
70694W        W43020  24.103   2.910  14.875
70695W        W43021   9.687  31.455  13.897
70696W        W43022  31.026  34.075   1.715
70697W        W43023   6.375   9.788   2.754
70698W        W43024   9.710  31.609   2.719
70699W        W43025   7.304   4.710  10.573
70700W        W43026  17.239  29.487  13.991
70701W        W43027  41.352  10.806  11.572
70702W        W43028  28.945  36.895  11.562
70703W        W43029  41.838  44.502  10.919
70704W        W43030   5.892  30.969   3.372
70705W        W43031   0.802   5.209  10.536
70706W        W43032  43.505  33.103  13.311
70707W        W43033   9.195  21.068   5.232
70708W        W43034  38.484   5.337   0.874
70709W        W43035  37.488   3.390  10.628
70710W        W43036  14.777  35.433  11.014
70711W        W43037   6.699  41.001  14.911
70712W        W43038  10.846   7.864   1.719
70713W        W43039  28.528   0.795  10.541
70714W        W43040  21.572   5.298   4.776
70715W        W43041  27.455  20.639  12.063
70716W        W43042  19.767  28.965   2.837
70717W        W43043  36.031   3.437   3.258
70718W        W43044  22.101  16.158   0.934
70719W        W43045  29.481  26.164  10.456
70720W        W43046  43.307   1.473   4.604
70721W        W43047  14.642  42.966  13.880
70722W        W43048   6.345   0.337  10.405
70723W        W43049  34.463  32.079   1.846
70724W        W43050  37.872  30.548  10.622
70725W        W43051  10.752  37.518  10.422
70726W        W43052   4.320   9.885   2.871
70727W        W43053  15.720   8.683  11.952
70728W        W43054   1.855  38.857  14.505
70729W        W43055  16.778  11.656   0.334
70730W        W43056  25.700  41.303   0.879
70731W        W43057  10.849  37.546   4.829
70732W        W43058  13.118  35.417   4.304
70733W        W43059  34.885  36.520   2.716
70734W        W43060  39.054   2.778  10.891
70735W        W43061  41.354  17.641   4.773
70736W        W43062  16.797  39.920   4.222
70737W        W43063   0.880  27.546  12.942
70738W        W43064  21.719  35.424  12.527
70739W        W43065   0.479  35.375   1.268
70740W        W43066  32.405   6.838   2.828
70741W        W43067  37.464  25.684   1.248
70742W        W43068  20.159  22.737   1.413
70743W        W43069  27.150   3.840  10.531
70744W        W43070   1.767  25.683   2.766
70745W        W43071  28.138  32.522   2.323
70746W        W43072  17.223  38.498  14.353
70747W        W43073  19.651  43.771   0.331
70748W        W43074  26.666  22.041   9.946
70749W        W43075  42.911  25.172   0.875
70750W        W43076  44.812   9.380   0.909
70751W        W43077   1.355  31.495  13.980
70752W        W43078  44.270  41.972  14.415
70753W        W43079  22.542   7.880  13.046
70754W        W43080   3.273   3.937  10.539
70755W        W43081   5.194  32.935   2.271
70756W        W43082  22.021  27.000   4.695
70757W        W43083  37.521  36.850   4.140
70758W        W43084  14.745  24.494  13.334
70759W        W43085  30.632  33.083  11.878
70760W        W43086   9.667   3.876   3.383
70761W        W43087  11.161  20.730  12.395
70762W        W43088  25.017  33.061   4.769
70763W        W43089  13.762  15.166   2.192
70764W        W43090  10.727   4.856  11.105
70765W        W43091  14.703  17.771  12.942
70766W        W43092   2.947   9.211   1.917
70767W        W43093  19.182  27.993   2.320
70768W        W43094   9.735  11.703   2.719
70769W        W43095  35.924  25.997  14.922
70770W        W43096  26.546  38.887   5.101
70771W        W43097  33.406   3.817  13.968
70772W        W43098   4.808  37.581  12.486
70773W        W43099  29.064  29.963   0.869
70774W        W43100  20.730  28.594   0.468
70775W        W43101  38.475  31.969  14.977
70776W        W43102   3.914  25.071   3.856
70777W        W43103  42.012  11.868  11.928
70778W        W43104  18.547  43.428  14.410
70779W        W43105  16.125  27.612  14.928
70780W        W43106  13.288  14.280  11.866
70781W        W43107   5.230  21.255   0.243
70782W        W43108  15.660   0.338   3.211
70783W        W43109  32.043  12.260  14.771
70784W        W43110   1.356   4.443  12.864
70785W        W43111  14.669  26.614   1.866
70786W        W43112  33.884  20.151   4.673
70787W        W43113  21.599   2.820   3.314
70788W        W43114  26.176  17.172   2.698
70789W        W43115   3.390  27.951  11.904
70790W        W43116  15.189  34.033  10.943
70791W        W43117  13.175   3.366  10.145
70792W        W43118  22.073  17.302   4.743
70793W        W43119  19.753  13.620   1.890
70794W        W43120  34.377  35.903   4.307
70795W        W43121  15.172   9.382   4.133
70796W        W43122  19.633  27.672   3.365
70797W        W43123   0.825  44.931   2.829
70798W        W43124  36.575  40.478  13.021
70799W        W43125  23.050   8.399  13.003
70800W        W43126   4.224  32.470  13.509
70801W        W43127  26.190   1.369   4.636
70802W        W43128  16.260  20.612   4.728
70803W        W43129  41.987  40.423  11.038
70804W        W43130  28.968  41.815   0.757
70805W        W43131  11.253  42.505  14.435
70806W        W43132   6.691  27.599   4.192
70807W        W43133  14.612  12.161  12.527
70808W        W43134  41.842  43.342   0.303
70809W        W43135  27.612  34.893   0.371
70810W        W43136  25.146  33.039   4.180
70811W        W43137  41.945   9.700   4.243
70812W        W43138   6.241  24.046   4.175
70813W        W43139   7.227  32.132  11.870
70814W        W43140  35.451  32.597  13.484
70815W        W43141  27.046  37.837   4.605
70816W        W43142  26.047   5.689  14.413
70817W        W43143  21.185  26.163  14.884
70818W        W43144  22.122  34.119  10.416
70819W        W43145  19.756  22.505  14.947
70820W        W43146   7.785   6.379   5.274
70821W        W43147  35.470  33.071   0.351
70822W        W43148  39.888  33.131   3.714
70823W        W43149   4.811  28.153   0.359
70824W        W43150  20.090  28.942  12.404
70825W        W43151  29.960  15.188  11.983
70826W        W43152  19.084   6.843   1.702
70827W        W43153  24.484  11.192  11.455
70828W        W43154  32.920  40.507   1.273
70829W        W43155  34.887  33.936   1.393
70830W        W43156  10.187  24.183   5.166
70831W        W43157  34.110   3.931   4.201
70832W        W43158   5.364  23.655  14.300
70833W        W43159  27.999  12.804  10.136
70834W        W43160  15.143   7.391   3.250
70835W        W43161  36.912   0.398  13.466
70836W        W43162  29.584   1.342   2.890
70837W        W43163  23.224  17.157  11.528
70838W        W43164   2.775   8.830   0.756
70839W        W43165   4.796   5.230   4.638
70840W        W43166  15.596   2.319  14.850
70841W        W43167  13.310  35.421  10.900
70842W        W43168  26.554   4.808   3.173
70843W        W43169  19.234  34.109  12.539
70844W        W43170   7.901   8.656  11.909
70845W        W43171  33.919  38.431   1.219
70846W        W43172   8.681   5.200   3.667
70847W        W43173  18.684  20.221  10.544
70848W        W43174   7.867  15.637   1.716
70849W        W43175  21.161  14.285  10.089
70850W        W43176  11.765  24.030  14.389
70851W        W43177  32.420  23.515   4.232
70852W        W43178  14.620   6.824  12.475
70853W        W43179   7.183  11.317  10.974
70854W        W43180  13.718   7.246  14.028
70855W        W43181  28.567  25.125   5.220
70856W        W43182  23.126  18.745  13.058
70857W        W43183  11.823  21.695   2.790
70858W        W43184   7.765  44.315  11.040
70859W        W43185  30.085  41.790   2.347
70860W        W43186  37.356  12.623   1.812
70861W        W43187  29.947  41.456  14.453
70862W        W43188  24.081  12.828   1.762
70863W        W43189   7.259  22.162  11.903
70864W        W43190   6.208  43.894  14.294
70865W        W43191   5.320  20.618   3.742
70866W        W43192  18.603   2.755  14.929
70867W        W43193   5.817   2.915   4.269
70868W        W43194  44.260  20.707  14.971
70869W        W43195  26.698  34.480   1.897
70870W        W43196  43.768  25.198   2.206
70871W        W43197  22.507   4.381   3.705
70872W        W43198  37.847  17.084   4.696
70873W        W43199  34.118  36.984  10.641
70874W        W43200  21.036  44.481  13.022
70875W        W43201   6.752  26.124  14.906
70876W        W43202  35.962  38.533  13.915
70877W        W43203   7.884  37.502  11.031
70878W        W43204  35.362  20.259   4.834
70879W        W43205  44.398   4.424   0.483
70880W        W43206  18.132   4.340  14.867
70881W        W43207  38.381  11.752   5.181
70882W        W43208  13.159  26.050   0.875
70883W        W43209  22.236  35.432   3.264
70884W        W43210  41.416   3.437   2.408
70885W        W43211   7.895  30.511  11.927
70886W        W43212  33.881  13.325  11.888
70887W        W43213  34.965  16.158  11.999
70888W        W43214  23.069  26.629   1.391
70889W        W43215   0.351  22.647  14.855
70890W        W43216   7.188  10.780   4.293
70891W        W43217  33.448   2.362  13.460
70892W        W43218  10.737  16.696  14.316
70893W        W43219  36.020  32.463  13.314
70894W        W43220  26.975  15.680   1.709
70895W        W43221  16.093  13.110   1.756
70896W        W43222  19.644   2.890  14.925
70897W        W43223  18.702  31.614  13.533
70898W        W43224  34.514  31.922   4.244
70899W        W43225  14.182  30.498  14.346
70900W        W43226  19.657  28.169   2.237
70901W        W43227  39.419  24.540   4.312
70902W        W43228   7.371  12.144   3.695
70903W        W43229  32.551   7.843   2.329
70904W        W43230  38.477  19.089  14.967
70905W        W43231  15.149  15.254  12.448
70906W        W43232  28.558  30.596   2.670
70907W        W43233  25.538  23.564   3.725
70908W        W43234  20.158  30.637   5.137
70909W        W43235   1.741   2.248   3.146
70910W        W43236  35.501  40.466  12.417
70911W        W43237  16.580   5.774   4.151
70912W        W43238  36.552  31.121   0.817
70913W        W43239  42.834   6.423  11.977
70914W        W43240  35.095  21.110   2.816
70915W        W43241  42.830  15.638  14.948
70916W        W43242  25.614  25.635  11.021
70917W        W43243  31.403  16.655   0.266
70918W        W43244  30.469  21.613   0.291
70919W        W43245  32.434  28.111  11.994
70920W        W43246  16.739   7.283  13.538
70921W        W43247  14.611  19.583  10.513
70922W        W43248  10.641  28.959   1.403
70923W        W43249  37.534   9.202  13.516
70924W        W43250  37.387  37.966  11.605
70925W        W43251  34.403  39.984  12.876
70926W        W43252  41.444   1.382  11.042
70927W        W43253   7.690  39.370   2.236
70928W        W43254  19.173  24.509   2.834
70929W        W43255  15.268  20.245   0.352
70930W        W43256   4.886  43.823  10.947
70931W        W43257   5.346   4.321   2.713
70932W        W43258  14.623  33.911   0.342
70933W        W43259  24.552   9.301  10.538
70934W        W43260   3.373   6.678  10.464
70935W        W43261  34.491  38.368  14.797
70936W        W43262  35.065  37.500   3.152
70937W        W43263   6.373  22.524   0.767
70938W        W43264   5.931  14.217  11.942
70939W        W43265   1.935  12.163   5.083
70940W        W43266  11.685  26.566   4.815
70941W        W43267   4.765  10.678  14.898
70942W        W43268  23.525  44.284  13.318
70943W        W43269  29.665   5.808   4.335
70944W        W43270   9.330  41.533   1.260
70945W        W43271  25.607   0.982   4.796
70946W        W43272  25.702  34.018  12.562
70947W        W43273  29.591  44.995  13.889
70948W        W43274  39.993  33.957  11.873
70949W        W43275  34.422   2.853   2.873
70950W        W43276  28.085  30.057   3.642
70951W        W43277   9.820  27.576  11.871
70952W        W43278  22.571  27.104   1.881
70953W        W43279  35.450  28.024   3.757
70954W        W43280  36.455  19.126  13.899
70955W        W43281  10.665  25.600  12.073
70956W        W43282   4.823  37.971   2.338
70957W        W43283   3.434  23.042   3.271
70958W        W43284  41.853  36.579  11.022
70959W        W43285  33.116  21.644  11.439
70960W        W43286  36.903   6.705  14.904
70961W        W43287  28.154  34.997   0.947
70962W        W43288  21.632  41.807   4.219
70963W        W43289  21.741  24.158  13.520
70964W        W43290   0.892   3.922  10.434
70965W        W43291   6.891   4.233   3.676
70966W        W43292   4.344   1.249   3.795
70967W        W43293  29.426  23.143   3.179
70968W        W43294  38.948  30.144   1.264
70969W        W43295  15.612  33.587  10.542
70970W        W43296  12.846  28.663   2.280
70971W        W43297   6.878   9.319  10.499
70972W        W43298  30.007  19.270  12.020
70973W        W43299   6.748   3.790  12.051
70974W        W43300   0.957  25.217  13.809
70975W        W43301  32.418  11.702  14.932
70976W        W43302  30.558  17.678  10.508
70977W        W43303   7.667   6.821  12.878
70978W        W43304   9.664  21.247  14.492
70979W        W43305   5.810   3.938   4.685
70980W        W43306  18.187  33.510  11.402
70981W        W43307   6.192  19.281  14.427
70982W        W43308   8.286  12.818   1.249
70983W        W43309  34.010  14.201  10.552
70984W        W43310   5.439  42.775  14.867
70985W        W43311  30.018  37.888   3.832
70986W        W43312  21.700  15.114   3.243
70987W        W43313  41.030  13.731   1.752
70988W        W43314  25.470  11.655  11.126
70989W        W43315  32.953  37.975  13.909
70990W        W43316  39.460  24.676   0.825
70991W        W43317  14.725  41.006   2.808
70992W        W43318  10.195  14.697   4.605
70993W        W43319  11.233  41.969   3.161
70994W        W43320  26.147  44.452   0.859
70995W        W43321  17.092  27.960   1.906
70996W        W43322  12.714  30.506   3.380
70997W        W43323  35.998  25.472   4.261
70998W        W43324  39.409  33.111   3.827
70999W        W43325   8.880  19.110  13.946
71000W        W43326  26.019   2.310  11.945
71001W        W43327  37.548   3.247   4.179
71002W        W43328  24.513  24.664  12.967
71003W        W43329  21.213  28.133   1.401
71004W        W43330  44.479  40.391   0.822
71005W        W43331  10.327  20.588  11.531
71006W        W43332  38.566   4.355  13.442
71007W        W43333  35.920   7.209  12.546
71008W        W43334   2.303  39.475   4.278
71009W        W43335  24.669  23.132   2.879
71010W        W43336   3.326  16.673   0.466
71011W        W43337  25.001  36.957   3.190
71012W        W43338   5.865  13.244  11.566
71013W        W43339  27.102  17.733  10.583
71014W        W43340  34.061  34.015  14.993
71015W        W43341  31.415  15.232   3.353
71016W        W43342  23.024  22.190   1.445
71017W        W43343  10.229   0.494   4.226
71018W        W43344   5.352  32.457   1.229
71019W        W43345  22.656  11.165   4.329
71020W        W43346   5.786   9.380  14.321
71021W        W43347  22.637  34.443   3.271
71022W        W43348  40.368  18.222  14.445
71023W        W43349  40.492  13.334   4.640
71024W        W43350  16.586  41.479   1.856
71025W        W43351  31.521   6.252  14.408
71026W        W43352  32.444  40.452  13.497
71027W        W43353  26.688  42.013  14.002
71028W        W43354  34.441  18.066  11.965
71029W        W43355  35.413  12.224   2.181
71030W        W43356  18.649  40.899  11.549
71031W        W43357  35.488  23.582  13.311
71032W        W43358  23.233   0.431   1.383
71033W        W43359   5.765  13.805   0.933
71034W        W43360  38.039  41.026   4.278
71035W        W43361   2.360  21.661  12.396
71036W        W43362  15.212  39.835  13.499
71037W        W43363  31.460   5.772  12.825
71038W        W43364  44.399  10.224  11.592
71039W        W43365  19.242  32.891   2.278
71040W        W43366  12.261  21.573  10.412
71041W        W43367   2.455  22.030  11.915
71042W        W43368  42.984  13.716   3.678
71043W        W43369  19.172  29.978   0.414
71044W        W43370  41.494  12.337   0.478
71045W        W43371  24.700  37.973  11.121
71046W        W43372   7.836  32.917   2.791
71047W        W43373   4.879  20.223  13.307
71048W        W43374  42.517  29.474   0.434
71049W        W43375  40.435  35.495  14.473
71050W        W43376  40.844  19.278   0.899
71051W        W43377   8.679  42.796  11.531
71052W        W43378  16.658   8.894  12.517
71053W        W43379  21.024   2.902  12.894
71054W        W43380  20.741   8.196  12.514
71055W        W43381  28.461  12.799  14.294
71056W        W43382  23.734  31.605   0.860
71057W        W43383   9.648  21.253  13.024
71058W        W43384  38.838  36.943   0.872
71059W        W43385  25.998   7.793  14.279
71060W        W43386  29.561   7.221   4.318
71061W        W43387  37.523  17.148   0.361
71062W        W43388  27.105   6.311   3.367
71063W        W43389  10.187  29.449   4.748
71064W        W43390  38.471   9.833   3.814
71065W        W43391  20.602  33.578  12.034
71066W        W43392  36.481  11.666   0.768
71067W        W43393   1.897  13.639   0.773
71068W        W43394  14.225   1.874  13.020
71069W        W43395  25.693  44.905  12.535
71070W        W43396   2.959  33.537   1.891
71071W        W43397  13.247  34.900   3.638
71072W        W43398  21.750  28.455   2.852
71073W        W43399   7.769  35.053   3.163
71074W        W43400   9.838   3.269   3.258
71075W        W43401  31.648  28.543  11.482
71076W        W43402  35.481  41.402  10.453
71077W        W43403  23.561   7.889  14.002
71078W        W43404  34.940  44.835   1.240
71079W        W43405  30.440  17.174  14.419
71080W        W43406   3.740  23.723  14.358
71081W        W43407  42.340   2.263  10.926
71082W        W43408  34.077  12.170   4.835
71083W        W43409   1.299   4.239   3.154
71084W        W43410  28.145  40.943  13.357
71085W        W43411   1.743  14.739   2.901
71086W        W43412   7.895  19.123  14.786
71087W        W43413   2.292  11.669  10.551
71088W        W43414   1.922  23.239   5.107
71089W        W43415  18.116  23.701   3.346
71090W        W43416  15.194  42.411  11.432
71091W        W43417  22.719   2.737  13.945
71092W        W43418   6.753  18.630   4.235
71093W        W43419  41.497  12.347  14.918
71094W        W43420  14.699  10.635   3.287
71095W        W43421  29.532  24.076  14.994
71096W        W43422  13.726  24.063  12.447
71097W        W43423   8.681  19.213   4.733
71098W        W43424   8.833  38.418   4.178
71099W        W43425   7.344  18.734  10.968
71100W        W43426  11.804   9.192  12.448
71101W        W43427  26.147  32.613   0.931
71102W        W43428  29.670  41.370   3.178
71103W        W43429   3.424  22.584  14.501
71104W        W43430   8.836  43.484  14.303
71105W        W43431  27.153  20.120  10.975
71106W        W43432  12.774  23.229  12.898
71107W        W43433  44.997   0.338   4.304
71108W        W43434  39.361  30.527   0.749
71109W        W43435  36.360  28.033   2.318
71110W        W43436  34.901  11.665  13.491
71111W        W43437  43.982  24.986   4.794
71112W        W43438  15.762  36.495  14.008
71113W        W43439   8.730   5.708   4.600
71114W        W43440  13.216  11.709  13.351
71115W        W43441   7.195  25.616  12.388
71116W        W43442  20.668  32.043   2.705
71117W        W43443   9.376   3.928  12.559
71118W        W43444   6.696  29.063   4.291
71119W        W43445  24.639  12.642   1.284
71120W        W43446   8.717  19.124  11.123
71121W        W43447  40.339  40.482   5.098
71122W        W43448  44.946  42.356  13.491
71123W        W43449  42.811  10.285   1.387
71124W        W43450  24.539  41.979   0.919
71125W        W43451   1.868  18.232  10.523
71126W        W43452   1.941  39.925  10.943
71127W        W43453  16.735  33.049   2.282
71128W        W43454  32.994  40.985  10.942
71129W        W43455  10.337  36.555  14.919
71130W        W43456  25.179   0.947   3.822
71131W        W43457  11.815   4.430   0.468
71132W        W43458  27.512  21.726   0.920
71133W        W43459   9.233   3.394   3.190
71134W        W43460  37.366   7.392   2.823
71135W        W43461  21.642  17.799   3.697
71136W        W43462   7.292   1.774   0.820
71137W        W43463  24.607  31.566   1.777
71138W        W43464  13.238  40.815   2.741
71139W        W43465  34.903   8.668   0.801
71140W        W43466  21.664  10.876  12.890
71141W        W43467   4.938  19.259   0.370
71142W        W43468  28.668   3.250  13.452
71143W        W43469  11.153  19.252  14.823
71144W        W43470  15.776  24.553  13.336
71145W        W43471  24.125   5.407  12.016
71146W        W43472  33.509  16.663   2.413
71147W        W43473  32.485  37.885   4.776
71148W        W43474   2.227  27.021   2.706
71149W        W43475  35.086  10.138   2.730
71150W        W43476  35.498  24.536   3.715
71151W        W43477  25.635  37.876   1.729
71152W        W43478   5.815  35.097   1.394
71153W        W43479  18.089  29.934  10.523
71154W        W43480  39.559  32.955  13.389
71155W        W43481  44.908   9.317   4.808
71156W        W43482  14.185  42.437   0.344
71157W        W43483   3.768  20.067  10.460
71158W        W43484  16.625  30.572   2.789
71159W        W43485  37.939  28.082  14.801
71160W        W43486  34.570  29.031  10.895
71161W        W43487  29.610  33.930  13.353
71162W        W43488   9.347  19.137  14.922
71163W        W43489  24.492  28.558  12.373
71164W        W43490  19.172  29.477   3.702
71165W        W43491  29.929  22.199  10.444
71166W        W43492  11.194  43.341   1.849
71167W        W43493  25.114  11.178  10.904
71168W        W43494  32.499  34.406  11.527
71169W        W43495  12.233  37.063   5.651
71170W        W43496   1.925  25.487  12.027
71171W        W43497   6.273   3.351   2.223
71172W        W43498  38.065  29.131   2.836
71173W        W43499  39.044  26.043  12.542
71174W        W43500  33.039  36.063  10.922
71175W        W43501   4.833   4.370   4.792
71176W        W43502  26.507  29.507  12.343
71177W        W43503   5.851  19.161   0.902
71178W        W43504  11.708  12.827   3.761
71179W        W43505  40.962  41.486   1.757
71180W        W43506  24.105  24.089  12.832
71181W        W43507  13.177  39.496   3.687
71182W        W43508   5.791   0.933   4.216
71183W        W43509   8.690   0.325  14.398
71184W        W43510  24.697  18.695  12.065
71185W        W43511   4.897  20.657  12.521
71186W        W43512  34.119   2.737  14.906
71187W        W43513  26.477  40.938   4.128
71188W        W43514  15.263  31.035   4.233
71189W        W43515  39.830  28.631   2.726
71190W        W43516  13.738  28.149   1.283
71191W        W43517  35.566   2.807  11.957
71192W        W43518  34.879  33.083  11.973
71193W        W43519  16.733  40.919  14.996
71194W        W43520  33.936  36.968  14.405
71195W        W43521  14.128  14.666   5.167
71196W        W43522  11.299  25.078  13.845
71197W        W43523   4.285   2.739  13.887
71198W        W43524  29.642  31.646   0.363
71199W        W43525  17.146  14.241  11.899
71200W        W43526  13.817  19.689  13.912
71201W        W43527  25.550   8.353   3.284
71202W        W43528  44.779   7.412   1.339
71203W        W43529   1.339   4.841  11.495
71204W        W43530  37.443  11.712  11.861
71205W        W43531  14.776  11.623  14.817
71206W        W43532  25.597  15.650   0.738
71207W        W43533  20.544   6.781  13.827
71208W        W43534  22.106   5.298  11.936
71209W        W43535  14.613  14.252  14.999
71210W        W43536   1.470  34.455  13.311
71211W        W43537  20.229   2.848  11.449
71212W        W43538  31.413  41.331   1.332
71213W        W43539  16.210   5.757  10.541
71214W        W43540  30.124  21.103  10.580
71215W        W43541  29.425  27.999  11.469
71216W        W43542  20.078   5.693   0.288
71217W        W43543  32.487  25.640   2.746
71218W        W43544  17.586  15.123  12.492
71219W        W43545  28.180  21.115   2.748
71220W        W43546   7.854  33.557  11.510
71221W        W43547  33.068   1.750  11.461
71222W        W43548   1.288  26.592   1.328
71223W        W43549  33.066  27.482  12.537
71224W        W43550  23.192  42.976   1.907
71225W        W43551  27.094  12.140  14.284
71226W        W43552  27.599  31.091   1.847
71227W        W43553   6.874  12.827  11.914
71228W        W43554  41.383  14.206   4.661
71229W        W43555  15.813  30.492   0.756
71230W        W43556  31.467  13.639  13.309
71231W        W43557   9.738  16.272   3.798
71232W        W43558  15.674  25.173   1.293
71233W        W43559  39.015   2.880   0.965
71234W        W43560  37.883  24.978   3.856
71235W        W43561  19.112  33.450   4.638
71236W        W43562  32.577  26.506   2.864
71237W        W43563  36.972   6.279  12.548
71238W        W43564  44.300  17.199   4.242
71239W        W43565  29.095   3.824   3.316
71240W        W43566  42.414  30.927   1.798
71241W        W43567   1.415  12.295  14.514
71242W        W43568  18.678  25.529   2.231
71243W        W43569  33.474  37.440   2.772
71244W        W43570   7.684  33.384  14.391
71245W        W43571  17.586  36.994   1.334
71246W        W43572  31.947   6.796  13.844
71247W        W43573  37.845   0.949   4.767
71248W        W43574  30.958  15.704  11.497
71249W        W43575  25.626  16.291  13.514
71250W        W43576  44.814  37.423   1.809
71251W        W43577  31.941   9.268  13.426
71252W        W43578  37.969  34.378  12.418
71253W        W43579  22.246  19.616   4.688
71254W        W43580  15.768  19.105  11.591
71255W        W43581   2.796  28.596   2.312
71256W        W43582  42.507  31.526  11.410
71257W        W43583  32.504  33.496  13.492
71258W        W43584  21.528  42.333   0.308
71259W        W43585  13.759  25.511  11.494
71260W        W43586  34.376  15.269   2.370
71261W        W43587  36.029  24.501   2.783
71262W        W43588   6.863  12.835   0.838
71263W        W43589  17.782  36.018   4.339
71264W        W43590   4.364  11.702  13.862
71265W        W43591  15.292  27.965   0.931
71266W        W43592  25.554  13.699  11.389
71267W        W43593  15.288  44.366  12.555
71268W        W43594  43.407  42.996  12.527
71269W        W43595  18.066  39.930  11.050
71270W        W43596  44.928  27.169  14.372
71271W        W43597  36.405  38.436  13.530
71272W        W43598  40.352   2.369  10.446
71273W        W43599  12.259  27.142   3.705
71274W        W43600   5.778   3.442   1.727
71275W        W43601  41.489  13.619   1.877
71276W        W43602  22.672   6.299  10.160
71277W        W43603  24.721  31.603   4.287
71278W        W43604  25.594  14.112  12.837
71279W        W43605   5.250  14.693   0.746
71280W        W43606  35.947  40.921   3.782
71281W        W43607  38.549  16.182   4.213
71282W        W43608  31.008  34.466   1.749
71283W        W43609  27.598  23.506   1.715
71284W        W43610  24.034  28.676  14.893
71285W        W43611  34.064  36.948  11.603
71286W        W43612  40.023  21.547   4.163
71287W        W43613  34.561  35.601   2.396
71288W        W43614   7.884  38.064  13.979
71289W        W43615   3.425  33.417  13.478
71290W        W43616  39.552   8.720  10.411
71291W        W43617  23.536  15.590   1.820
71292W        W43618   2.840   7.266  14.305
71293W        W43619  43.515  17.684  10.629
71294W        W43620  25.980  33.426   2.378
71295W        W43621   8.299  36.590   3.703
71296W        W43622   1.461  10.328  13.816
71297W        W43623  17.132  13.760   2.304
71298W        W43624  41.471  28.512  13.535
71299W        W43625   2.380  39.496   1.722
71300W        W43626  12.674   1.928   2.403
71301W        W43627   4.361  34.568   2.344
71302W        W43628  10.648  19.070   4.143
71303W        W43629  24.187   1.751   4.787
71304W        W43630   0.849   4.375   1.860
71305W        W43631  25.137   6.211  13.310
71306W        W43632  19.154  11.216  13.832
71307W        W43633  37.567  32.915   2.388
71308W        W43634  27.033  24.089  10.472
71309W        W43635  27.641   5.721   2.318
71310W        W43636  23.089  21.173   3.351
71311W        W43637  26.039  44.792   2.301
71312W        W43638  28.510  12.203   2.678
71313W        W43639  39.428  32.465  13.000
71314W        W43640   7.291  40.918   2.181
71315W        W43641  32.051   5.765  13.926
71316W        W43642  35.909  28.456   0.446
71317W        W43643  43.976  15.736  11.528
71318W        W43644  43.840  14.601   4.704
71319W        W43645  18.198  38.884  14.001
71320W        W43646  41.923  33.879   3.764
71321W        W43647   4.774   2.290   3.351
71322W        W43648  31.015  42.936  10.598
71323W        W43649  19.172  44.442  11.892
71324W        W43650  38.877  15.149   4.195
71325W        W43651  25.201  42.886  13.317
71326W        W43652   5.882  16.801   0.840
71327W        W43653  39.336  17.099   4.212
71328W        W43654  22.509   5.426  14.829
71329W        W43655  29.152  42.424  12.532
71330W        W43656   8.869   8.744   2.378
71331W        W43657  28.162  44.454  11.967
71332W        W43658  14.112  41.304  10.641
71333W        W43659  14.264  44.301   1.306
71334W        W43660   8.322  43.448   1.779
71335W        W43661  23.238  17.801  12.979
71336W        W43662   2.934  27.174   3.237
71337W        W43663  15.249  24.095  11.052
71338W        W43664   1.411   2.266   0.809
71339W        W43665  33.067  12.663  11.948
71340W        W43666   2.849  39.976   2.404
71341W        W43667  10.758   9.350   0.774
71342W        W43668  13.270  16.588   1.796
71343W        W43669  36.348  18.687   4.264
71344W        W43670  12.134  10.239   3.635
71345W        W43671  21.209   0.803   2.795
71346W        W43672  30.546  30.144  12.946
71347W        W43673  31.470  38.496   4.655
71348W        W43674   1.352  14.610   2.343
71349W        W43675  31.513  13.736   3.844
71350W        W43676   5.274   6.718  14.880
71351W        W43677   8.240  36.538  11.574
71352W        W43678  32.034  41.486  10.432
71353W        W43679  29.630  27.626  12.358
71354W        W43680  19.144   8.664  11.457
71355W        W43681   1.308  14.657   4.604
71356W        W43682   9.265   6.837   2.351
71357W        W43683   6.237   2.784   0.737
71358W        W43684  10.281  24.574   3.316
71359W        W43685  44.387  43.446   2.406
71360W        W43686   5.833  16.694  10.434
71361W        W43687  40.949  42.502   3.701
71362W        W43688  40.013  28.624   3.225
71363W        W43689  12.231  33.990  13.365
71364W        W43690  40.807  15.307   2.766
71365W        W43691  27.078  35.576   4.142
71366W        W43692  36.493  34.556  11.953
71367W        W43693  24.584  31.401  12.942
71368W        W43694  44.415  18.775   0.941
71369W        W43695  36.038  11.755   4.833
71370W        W43696   9.660  29.031  11.469
71371W        W43697  42.362   8.213   4.185
71372W        W43698  39.027  40.518  12.520
71373W        W43699  27.587  23.056   1.934
71374W        W43700  14.666  16.652   3.852
71375W        W43701  37.389   7.710   4.210
71376W        W43702  35.376  43.890   4.740
71377W        W43703  31.032   9.741   4.598
71378W        W43704  35.922  24.036  14.860
71379W        W43705  22.205  37.061   1.411
71380W        W43706  26.673  23.708  12.499
71381W        W43707  36.579  12.246  14.846
71382W        W43708  25.678   5.933  13.935
71383W        W43709  43.290  35.078  14.830
71384W        W43710  20.661  23.143  13.510
71385W        W43711  14.260  35.443   5.162
71386W        W43712  39.465  40.522  12.491
71387W        W43713  18.719  24.178   4.232
71388W        W43714   5.727  26.157   4.681
71389W        W43715  41.787  34.377   4.227
71390W        W43716  19.666  40.310   0.953
71391W        W43717  11.652  31.623  13.809
71392W        W43718  14.316   9.345  14.302
71393W        W43719  22.651  16.102   5.774
71394W        W43720   3.305  26.662  13.976
71395W        W43721   8.849  22.171  12.468
71396W        W43722  10.810  34.544   2.752
71397W        W43723  18.095  34.594   0.411
71398W        W43724  14.638  28.135  10.021
71399W        W43725  40.880   0.846   1.263
71400W        W43726  40.335  32.511   4.273
71401W        W43727  24.005  35.465   2.667
71402W        W43728  30.931  13.254   4.644
71403W        W43729  38.838  16.285   3.212
71404W        W43730  44.418   2.384  13.887
71405W        W43731  37.910   2.452  13.533
71406W        W43732   8.196  18.069  13.458
71407W        W43733  11.697  44.940   4.145
71408W        W43734  35.579  39.870   0.478
71409W        W43735   4.702  21.120   3.682
71410W        W43736   1.742  14.803  13.980
71411W        W43737  26.505  28.968   3.235
71412W        W43738  11.137  25.110   2.274
71413W        W43739  26.499  38.907  11.085
71414W        W43740  37.389  14.779   4.198
71415W        W43741  18.230   9.836  11.079
71416W        W43742  38.510  43.481  13.825
71417W        W43743  41.494  12.748  14.361
71418W        W43744  36.031   0.484  12.995
71419W        W43745  20.545  42.884   0.328
71420W        W43746   2.353  19.699  12.422
71421W        W43747   0.413  37.373   9.971
71422W        W43748  36.358  43.922  14.877
71423W        W43749  10.665  31.972   1.289
71424W        W43750  35.552  33.447  14.790
71425W        W43751  18.249  17.761   3.747
71426W        W43752   5.350  21.094  12.355
71427W        W43753   8.162  22.632   0.780
71428W        W43754  11.830  10.177   2.877
71429W        W43755  29.579  13.235  10.552
71430W        W43756  13.765  11.665  13.954
71431W        W43757  29.632  31.055   0.362
71432W        W43758  40.991  33.961  10.976
71433W        W43759  26.546  37.509   0.456
71434W        W43760  21.534  35.893  13.976
71435W        W43761  13.155  24.540  12.940
71436W        W43762  30.627  21.082   3.275
71437W        W43763  37.944  29.928  12.073
71438W        W43764  17.578  12.669  11.562
71439W        W43765   5.325   9.825   0.801
71440W        W43766  32.095  41.988   4.793
71441W        W43767  12.653  34.925   1.852
71442W        W43768  24.663  22.742  10.592
71443W        W43769  23.505  19.559  14.862
71444W        W43770   2.817   1.862   1.238
71445W        W43771  37.575  25.107   3.853
71446W        W43772  19.049   1.245   1.213
71447W        W43773  12.159  18.705   3.382
71448W        W43774  37.964  17.173   2.295
71449W        W43775  41.312  43.276   2.829
71450W        W43776   1.390  41.876  12.548
71451W        W43777  14.206  13.308  12.350
71452W        W43778  13.252   1.416  11.561
71453W        W43779  43.478  29.628   0.951
71454W        W43780  41.812  36.967   3.161
71455W        W43781   6.252  19.606   0.249
71456W        W43782  41.996  27.610   1.825
71457W        W43783  11.859  11.844  12.388
71458W        W43784  10.252  29.503   3.189
71459W        W43785  18.790  10.222   3.371
71460W        W43786  42.383  37.020   1.827
71461W        W43787  30.589  19.576   4.716
71462W        W43788  16.681  14.336  14.845
71463W        W43789   6.887   7.177  10.561
71464W        W43790   3.769  15.584  12.874
71465W        W43791   9.187  17.683  10.529
71466W        W43792   7.712  14.311   5.136
71467W        W43793   9.281   1.875  11.438
71468W        W43794  42.975  36.446   0.287
71469W        W43795  22.588  19.753   5.219
71470W        W43796  33.432  21.680  12.072
71471W        W43797  15.755  19.284   3.818
71472W        W43798  12.352  19.565  12.030
71473W        W43799  36.873  42.291  13.887
71474W        W43800  36.068   0.250  12.473
71475W        W43801  18.710   1.375   4.171
71476W        W43802  16.161  42.462   2.385
71477W        W43803  22.134  16.222  10.586
71478W        W43804  37.376  18.213  11.415
71479W        W43805  42.981  35.954  11.412
71480W        W43806  25.151   8.327   2.727
71481W        W43807  16.583  29.636  11.940
71482W        W43808  22.679  35.547   0.308
71483W        W43809  42.293  17.154  12.538
71484W        W43810   9.809  22.639  12.456
71485W        W43811  27.125   4.837   2.318
71486W        W43812  10.299  25.058  10.120
71487W        W43813  30.126  17.066   4.796
71488W        W43814  22.035  23.987  12.567
71489W        W43815  11.818  20.162  14.895
71490W        W43816   0.792  10.822  10.150
71491W        W43817  21.735  39.474   3.336
71492W        W43818  12.852  24.216   4.755
71493W        W43819  24.643  28.981  12.396
71494W        W43820  23.991  41.043   3.805
71495W        W43821  21.646  39.932  14.878
71496W        W43822   3.224   2.771   2.304
71497W        W43823  17.649  34.468  10.599
71498W        W43824  30.987  27.539   2.707
71499W        W43825   8.249  30.133  14.957
71500W        W43826   3.752   2.877  10.058
71501W        W43827  16.759   0.337   1.252
71502W        W43828   1.941   3.243  14.390
71503W        W43829  13.722  43.434  12.358
71504W        W43830  21.085  21.087  12.861
71505W        W43831  43.838  31.046  14.928
71506W        W43832  16.193  16.796   0.244
71507W        W43833  19.250  10.154   3.786
71508W        W43834  44.938  15.198  12.924
71509W        W43835  22.550  28.095   1.884
71510W        W43836  24.555  31.145  14.880
71511W        W43837  42.888  36.541   4.662
71512W        W43838   2.353  16.772  11.399
71513W        W43839  28.602   3.346  14.305
71514W        W43840  29.048  31.955  11.549
71515W        W43841  29.152  43.409  14.950
71516W        W43842   9.869   9.344   3.816
71517W        W43843  37.416  10.775  12.414
71518W        W43844   5.394  14.608  12.401
71519W        W43845  36.378  39.451   0.866
71520W        W43846   4.725  30.163  12.914
71521W        W43847  19.282  19.614  12.488
71522W        W43848   6.398  27.092   2.228
71523W        W43849  28.009  16.626  11.556
71524W        W43850  33.428  39.503   2.244
71525W        W43851  27.040  24.217   1.394
71526W        W43852  23.717  43.876   0.957
71527W        W43853   8.295  37.055   2.182
71528W        W43854   8.261  13.678  13.439
71529W        W43855  37.512  25.539  12.430
71530W        W43856  12.195  30.616  14.032
71531W        W43857  21.133  26.024   5.135
71532W        W43858  22.668   3.265   0.435
71533W        W43859  36.046  16.073   0.416
71534W        W43860  38.458   3.720   2.189
71535W        W43861   7.831  10.235  10.509
71536W        W43862   6.427  10.666   3.635
71537W        W43863  44.781  35.873   2.259
71538W        W43864  39.504   7.351   3.384
71539W        W43865  14.170  15.719  14.846
71540W        W43866   4.899   7.294   0.280
71541W        W43867  33.954   1.372  12.971
71542W        W43868  28.625  35.476   2.272
71543W        W43869  39.926   6.198  12.095
71544W        W43870   8.734  13.682   4.279
71545W        W43871  35.478  20.610   3.719
71546W        W43872  12.806  29.972  11.494
71547W        W43873  31.521  10.662   2.711
71548W        W43874  40.034  19.739   0.327
71549W        W43875  40.529   2.829   2.334
71550W        W43876  13.828  26.998   5.755
71551W        W43877   5.703  37.985   2.751
71552W        W43878  18.714  43.359  14.891
71553W        W43879  32.483   8.832   5.234
71554W        W43880  36.487  37.023  11.499
71555W        W43881  21.069  43.858  12.971
71556W        W43882  38.057   2.901   0.252
71557W        W43883  22.227  41.911  14.915
71558W        W43884  24.664  33.078  13.428
71559W        W43885  24.534  27.071  11.598
71560W        W43886  27.115  22.183  12.573
71561W        W43887  23.078  20.142   0.760
71562W        W43888  24.683  41.404   1.393
71563W        W43889  42.399   5.268   1.899
71564W        W43890   3.251  33.113  14.367
71565W        W43891   6.268  41.422  12.355
71566W        W43892  16.794  40.358  12.578
71567W        W43893  21.115   2.891  11.529
71568W        W43894  38.006  33.906   3.289
71569W        W43895   4.242  12.322  13.884
71570W        W43896   4.351  29.958  13.330
71571W        W43897  11.850   3.286   1.293
71572W        W43898   7.347  34.580   3.814
71573W        W43899  10.686  13.660  14.510
71574W        W43900  44.756  30.432   1.868
71575W        W43901  14.113  43.982  11.446
71576W        W43902  26.967  14.726   1.744
71577W        W43903  28.677  36.870  12.874
71578W        W43904  32.925  41.485   2.701
71579W        W43905  34.924  25.009  14.329
71580W        W43906  14.143   7.374   3.739
71581W        W43907   1.876  44.429   3.808
71582W        W43908  38.403  18.587   4.707
71583W        W43909  35.054  37.906  11.953
71584W        W43910  18.205  37.870  14.397
71585W        W43911  26.130  43.458   0.816
71586W        W43912  40.489   5.737   1.807
71587W        W43913  22.032  35.937   1.392
71588W        W43914  35.517  33.932   1.225
71589W        W43915  19.545  31.923   4.754
71590W        W43916   2.428  30.016  13.378
71591W        W43917  27.518  35.472  14.946
71592W        W43918   7.695  36.097   5.237
71593W        W43919   9.325  23.633  11.065
71594W        W43920   5.433  24.695  14.390
71595W        W43921  13.250   7.907   3.287
71596W        W43922  40.446  29.470   1.327
71597W        W43923   5.230  18.608  12.056
71598W        W43924  12.161  24.986   4.301
71599W        W43925  35.961  40.925   4.316
71600W        W43926   0.384  11.793   4.349
71601W        W43927   9.665  36.395  12.851
71602W        W43928   2.237  34.506  13.836
71603W        W43929  24.219  29.587   4.637
71604W        W43930  26.037  38.001  10.614
71605W        W43931   0.298  21.155   0.358
71606W        W43932  22.584   5.706  14.511
71607W        W43933  13.278   1.753   2.699
71608W        W43934  30.659  14.683   0.422
71609W        W43935  37.982  20.055  11.560
71610W        W43936  10.262  39.315  13.539
71611W        W43937  36.393  13.718   4.768
71612W        W43938  32.624  43.769  10.497
71613W        W43939  29.640  40.429  14.345
71614W        W43940  33.395  17.656  13.344
71615W        W43941  25.970  12.313  14.795
71616W        W43942  19.092  30.618   2.331
71617W        W43943  16.154  37.544   4.789
71618W        W43944   4.363  41.903  14.422
71619W        W43945  25.676  15.793   3.641
71620W        W43946  16.695  20.741  10.603
71621W        W43947   2.751  44.779   2.295
71622W        W43948   4.879  44.440   4.814
71623W        W43949  29.621  10.769   2.394
71624W        W43950  26.012   4.889  11.586
71625W        W43951  33.577  23.226  10.447
71626W        W43952  36.508  26.001  14.929
71627W        W43953  10.239  27.626  13.529
71628W        W43954  17.703   8.790   2.758
71629W        W43955  21.218   3.281   3.336
71630W        W43956  34.483   2.385  11.603
71631W        W43957  39.007  22.513  10.074
71632W        W43958  29.455  33.112  12.096
71633W        W43959  28.996  39.065  11.402
71634W        W43960  23.107   2.761   1.920
71635W        W43961  30.584  44.768  11.521
71636W        W43962   3.444   1.329   2.291
71637W        W43963  42.301  26.484  12.027
71638W        W43964  26.656  16.211   1.772
71639W        W43965  44.305  44.493  11.570
71640W        W43966   5.836   2.367  11.939
71641W        W43967  13.623  12.122  13.897
71642W        W43968   4.299  27.490  14.858
71643W        W43969  22.019  13.748   2.268
71644W        W43970  39.420   7.195  14.776
71645W        W43971  18.738  33.514  12.437
71646W        W43972   4.825  30.145   2.801
71647W        W43973  13.810  36.515   1.856
71648W        W43974  34.953  42.506  13.361
71649W        W43975   8.842  13.684  13.416
71650W        W43976  39.333  25.094   2.818
71651W        W43977  13.235  32.031  11.107
71652W        W43978  22.677   5.403   0.404
71653W        W43979  19.116  19.761  14.424
71654W        W43980  25.145  35.498   0.967
71655W        W43981  42.429   9.356   3.714
71656W        W43982  24.493  36.583   3.856
71657W        W43983  11.732  15.262   2.774
71658W        W43984  24.531   0.939   3.296
71659W        W43985  17.119   9.262   4.325
71660W        W43986  24.078  21.145  13.966
71661W        W43987   8.161  14.630  12.556
71662W        W43988   6.799   0.815   2.413
71663W        W43989  20.574   3.741   2.735
71664W        W43990  15.240  33.114  11.925
71665W        W43991  10.779   8.793   0.398
71666W        W43992  42.852  35.403  12.858
71667W        W43993  14.765  36.958   1.392
71668W        W43994  43.833  12.645   0.846
71669W        W43995  24.646  22.010  13.873
71670W        W43996  38.057   1.252  13.368
71671W        W43997  14.751   4.878   5.214
71672W        W43998  42.992  30.911  12.517
71673W        W43999  38.569  39.898  10.517
71674W        W44000  16.309  31.997   0.415
71675W        W44001  21.193  31.096   0.841
71676W        W44002  37.007  30.140  14.933
71677W        W44003   5.326   0.314  13.515
71678W        W44004   4.815   7.900  14.886
71679W        W44005  21.224  33.957  13.442
71680W        W44006  31.127  17.159  10.626
71681W        W44007  38.864  17.220   0.780
71682W        W44008  16.075  36.383   2.377
71683W        W44009  37.928  28.991  12.421
71684W        W44010  23.074  41.390   0.929
71685W        W44011  39.984   7.288   1.322
71686W        W44012  18.677  14.124   1.934
71687W        W44013  36.444  25.601   1.799
71688W        W44014  31.984   6.358   3.861
71689W        W44015  38.856  39.970   4.716
71690W        W44016  21.681   6.412  10.442
71691W        W44017  36.501  24.695  14.353
71692W        W44018  21.694  18.680   3.356
71693W        W44019   7.813  38.950   1.293
71694W        W44020  42.484   5.771  13.412
71695W        W44021  25.636  19.661   0.319
71696W        W44022  28.975  37.483   1.816
71697W        W44023  42.015  11.226   2.367
71698W        W44024  34.443  33.481   5.214
71699W        W44025   3.767  15.091   2.783
71700W        W44026  43.883  15.232  14.401
71701W        W44027  31.491  39.004  11.455
71702W        W44028   2.303  27.586   3.240
71703W        W44029  17.566  35.896  14.763
71704W        W44030  35.894  36.444   2.777
71705W        W44031  35.495  28.160  13.452
71706W        W44032   6.311  29.068  11.471
71707W        W44033  25.654  31.031  14.922
71708W        W44034  24.991  27.081   0.927
71709W        W44035  27.151   5.862   3.233
71710W        W44036  34.997  30.536   3.358
71711W        W44037  20.694   8.265   3.687
71712W        W44038   9.262   4.775  10.063
71713W        W44039  16.667  22.671  14.017
71714W        W44040  35.443  33.988  13.899
71715W        W44041  44.919  40.845  13.513
71716W        W44042   9.274  40.511   1.823
71717W        W44043  20.678  27.953  14.331
71718W        W44044  39.523  14.752  13.499
71719W        W44045   3.442  10.687   4.149
71720W        W44046  19.174  34.035   1.362
71721W        W44047  37.060  32.419   2.753
71722W        W44048  40.302  19.688  11.473
71723W        W44049  30.087  41.897  12.545
71724W        W44050  28.591  18.586   3.289
71725W        W44051  29.149  43.465   2.295
71726W        W44052  30.626   3.881  11.918
71727W        W44053   9.816   9.241  14.452
71728W        W44054  12.149  17.066   1.734
71729W        W44055  30.156  42.784  13.007
71730W        W44056   2.745   6.889  14.939
71731W        W44057  32.424   0.773  14.511
71732W        W44058  30.626  30.488  12.878
71733W        W44059  23.733   3.349  12.852
71734W        W44060  37.487  26.651   5.313
71735W        W44061  15.777   8.380   3.366
71736W        W44062  19.556   4.344  12.843
71737W        W44063  35.977   4.354   4.621
71738W        W44064  31.971  39.536   0.728
71739W        W44065  15.739   5.703  12.489
71740W        W44066  24.531  19.170  13.886
71741W        W44067  13.310  36.495  11.947
71742W        W44068  25.965  15.685   5.187
71743W        W44069   0.409  19.560   4.833
71744W        W44070  13.616  18.253   2.675
71745W        W44071  29.555  21.069  12.388
71746W        W44072  14.759   6.280   2.873
71747W        W44073  25.179  31.027  12.914
71748W        W44074   8.369  20.609  10.429
71749W        W44075   2.383  28.578  13.957
71750W        W44076  37.974  28.527   2.747
71751W        W44077  10.156  12.352   4.812
71752W        W44078  10.781  14.714  13.378
71753W        W44079  16.243  35.588  10.913
71754W        W44080   1.330  19.666  10.458
71755W        W44081  27.606  21.133   1.731
71756W        W44082  37.076  40.529  14.791
71757W        W44083  20.716  11.845   2.774
71758W        W44084  23.691   6.343  13.323
71759W        W44085   0.414  35.477  12.083
71760W        W44086  17.168  12.226  14.490
71761W        W44087  25.170  36.423  14.464
71762W        W44088  42.286  33.893  14.766
71763W        W44089  26.648  33.050  10.460
71764W        W44090  30.126  33.047   3.364
71765W        W44091  25.609   7.777   4.623
71766W        W44092  33.027  40.457   1.786
71767W        W44093  29.090  22.648   0.802
71768W        W44094  41.817  31.986  14.331
71769W        W44095  25.091  43.923   0.967
71770W        W44096   1.482  13.239   4.285
71771W        W44097  36.936  19.593   4.323
71772W        W44098  15.312  42.941  14.415
71773W        W44099  24.991  38.478  13.000
71774W        W44100   8.278  27.446   2.887
71775W        W44101   6.319  22.584   3.837
71776W        W44102  20.531   0.351   0.830
71777W        W44103   0.272  11.130  10.616
71778W        W44104   6.795  31.531   0.773
71779W        W44105   7.255  16.269   1.432
71780W        W44106  31.632  35.083   1.781
71781W        W44107   1.249   8.738  11.020
71782W        W44108  21.137  23.077   1.224
71783W        W44109  16.287  23.608  10.509
71784W        W44110   8.312   9.194  11.037
71785W        W44111   2.266  12.199   1.281
71786W        W44112   2.859  17.731  14.371
71787W        W44113  12.214  35.103   4.624
71788W        W44114  39.540  21.093  13.421
71789W        W44115  36.078  37.049  13.808
71790W        W44116  35.504  28.966   2.788
71791W        W44117  11.779  19.122  13.456
71792W        W44118  21.237  30.540   5.099
71793W        W44119  18.729  27.571  13.354
71794W        W44120   3.874  18.577  13.516
71795W        W44121  33.450   5.782  11.066
71796W        W44122  23.233  12.644   3.161
71797W        W44123  42.404   1.947   0.764
71798W        W44124  18.592  15.585   5.216
71799W        W44125  21.566  28.598  13.047
71800W        W44126  37.881  35.077  12.050
71801W        W44127   9.251   4.827   2.360
71802W        W44128  44.762  42.895   0.961
71803W        W44129  16.702  16.096   0.357
71804W        W44130   2.793  24.491   2.704
71805W        W44131  39.407  37.859  14.390
71806W        W44132  32.504  34.949  13.446
71807W        W44133  24.188  30.047  11.488
71808W        W44134  19.253  17.100   0.325
71809W        W44135   2.785  22.232  10.434
71810W        W44136  36.416  37.882   4.353
71811W        W44137  30.088  16.577   3.335
71812W        W44138  18.575  38.982  13.399
71813W        W44139  35.559  24.042  10.957
71814W        W44140  30.027  25.163   3.315
71815W        W44141   7.259  42.520  14.392
71816W        W44142  33.033  14.303   0.853
71817W        W44143  17.164  38.571   0.395
71818W        W44144  27.492   5.881   0.865
71819W        W44145  13.737  42.803  12.505
71820W        W44146  44.470  32.913  13.852
71821W        W44147   5.280   8.357   2.347
71822W        W44148  16.284   3.883   4.165
71823W        W44149  29.461  32.415   2.838
71824W        W44150  12.707  20.603   0.911
71825W        W44151  41.318  40.344   4.192
71826W        W44152   2.397  32.625  11.010
71827W        W44153  28.158  36.564  11.380
71828W        W44154   1.912  42.780   2.691
71829W        W44155   2.318  32.002  11.022
71830W        W44156  26.458  41.518  14.312
71831W        W44157  23.164  41.417   4.335
71832W        W44158   6.690  32.894  10.507
71833W        W44159   6.901  41.359   1.806
71834W        W44160  39.055  24.528   1.829
71835W        W44161  25.707  25.606  13.410
71836W        W44162   6.778   8.352   4.635
71837W        W44163  24.990  20.701  14.326
71838W        W44164  40.836  13.113   1.277
71839W        W44165  17.117   0.328  11.891
71840W        W44166  37.082   0.763   1.216
71841W        W44167  44.962  25.701  13.445
71842W        W44168  27.993  10.263  10.110
71843W        W44169  41.461   7.220   1.842
71844W        W44170  17.610   8.768  11.400
71845W        W44171  40.983  33.626  11.085
71846W        W44172  11.647  42.874  11.107
71847W        W44173  21.040  11.163  11.988
71848W        W44174  35.561  18.716  13.347
71849W        W44175   1.940  38.419   2.386
71850W        W44176   0.984   2.283   3.740
71851W        W44177  23.020  21.207   1.712
71852W        W44178  26.545  19.723   4.763
71853W        W44179  24.546  23.231  10.456
71854W        W44180   0.462   3.810   4.243
71855W        W44181  32.530  12.759   4.736
71856W        W44182  13.169   1.818  14.850
71857W        W44183   9.172   6.798  10.550
71858W        W44184  40.367  27.171  13.459
71859W        W44185  29.596  41.856   2.205
71860W        W44186  40.341  30.649  11.868
71861W        W44187  44.787  33.502   2.779
71862W        W44188  10.805  18.275   3.773
71863W        W44189  17.296  23.216  10.634
71864W        W44190   3.456  19.112  10.479
71865W        W44191  10.650  14.626   0.446
71866W        W44192  15.135  12.827  14.780
71867W        W44193  27.540   9.718  11.610
71868W        W44194   8.715  18.101  14.991
71869W        W44195  37.859  30.501  13.006
71870W        W44196  15.171  25.177   3.631
71871W        W44197   8.237  24.999   2.841
71872W        W44198   8.788   9.245   0.930
71873W        W44199  41.968   0.855   4.708
71874W        W44200  24.553  22.108  12.013
71875W        W44201  32.014  29.584  10.960
71876W        W44202  18.639  21.083  12.443
71877W        W44203  27.146  13.695  14.974
71878W        W44204   2.395   9.238   1.274
71879W        W44205   8.245  24.053  12.864
71880W        W44206  22.997  41.431   4.790
71881W        W44207   3.712  40.485   2.209
71882W        W44208  15.303  15.658   2.265
71883W        W44209  16.584  24.017   1.214
71884W        W44210   7.855  15.276   1.266
71885W        W44211   9.266  30.057  14.409
71886W        W44212  12.320  11.353  11.921
71887W        W44213  14.302  37.007  13.521
71888W        W44214  22.620   7.377  13.791
71889W        W44215  40.019  23.492   1.333
71890W        W44216  42.383  14.696   4.326
71891W        W44217   1.352  24.143   4.608
71892W        W44218   3.815  20.744  14.346
71893W        W44219  36.951   8.312  14.386
71894W        W44220  25.533  42.918  11.514
71895W        W44221  36.914  30.653  11.068
71896W        W44222  10.284  21.210   5.178
71897W        W44223  38.052   7.243  10.450
71898W        W44224  36.477  27.678  11.593
71899W        W44225  34.117  35.862  14.336
71900W        W44226   0.801  43.913  12.479
71901W        W44227  20.132  20.724  14.859
71902W        W44228   2.787  16.161  14.786
71903W        W44229   4.792  14.673  13.844
71904W        W44230   3.710  18.067   2.835
71905W        W44231  33.489  25.058   0.299
71906W        W44232   8.886  15.139   3.263
71907W        W44233  38.072   5.811  12.512
71908W        W44234  40.418  13.619  12.860
71909W        W44235  18.262   5.751   2.280
71910W        W44236  38.403   1.964   3.642
71911W        W44237  26.622   5.900   3.328
71912W        W44238   6.773  41.493  13.413
71913W        W44239  19.538  21.643   1.830
71914W        W44240  38.055  18.675   2.834
71915W        W44241  31.965  42.936   0.960
71916W        W44242  15.807  34.470  13.889
71917W        W44243  42.918  17.559   0.363
71918W        W44244  33.486   2.922   4.342
71919W        W44245  41.998  20.751   3.637
71920W        W44246  34.451  30.058  11.106
71921W        W44247  16.614  28.142   1.832
71922W        W44248  11.867   6.875   2.753
71923W        W44249  24.534  23.540   4.836
71924W        W44250  16.288  42.335   4.632
71925W        W44251  19.128  17.256   4.290
71926W        W44252  27.454   6.281  11.454
71927W        W44253   2.921  42.982  14.443
71928W        W44254  31.485  29.098  10.948
71929W        W44255  34.436  12.160   1.767
71930W        W44256  22.190  13.654   2.820
71931W        W44257  39.928   6.243  12.892
71932W        W44258  27.996  42.888  14.398
71933W        W44259  10.652  15.739  11.433
71934W        W44260  31.944  11.287   1.842
71935W        W44261  36.583  37.968   4.654
71936W        W44262  15.709  34.933   3.230
71937W        W44263   4.311  30.057   4.323
71938W        W44264   6.330   2.390  14.878
71939W        W44265  40.004  25.692   1.332
71940W        W44266  42.313  16.760   4.292
71941W        W44267  35.985  18.611  14.285
71942W        W44268  37.459   3.311   1.424
71943W        W44269   9.238   5.283  11.919
71944W        W44270  32.459  26.484  12.409
71945W        W44271  12.655  23.640  10.493
71946W        W44272  13.663   2.331  13.401
71947W        W44273   2.937  41.805  13.352
71948W        W44274  26.660  25.474  14.802
71949W        W44275  22.595  37.547  10.086
71950W        W44276  19.696  17.615  12.437
71951W        W44277  33.620  40.927  13.947
71952W        W44278  36.049   7.200  10.981
71953W        W44279  32.590   9.760  11.075
71954W        W44280   6.305  34.534   4.720
71955W        W44281  28.097  28.112  10.904
71956W        W44282  19.583  29.662   3.652
71957W        W44283  22.678   1.779   3.707
71958W        W44284  40.307   3.770   3.817
71959W        W44285  20.703  11.189  12.850
71960W        W44286  22.634  42.939   0.397
71961W        W44287  27.645  42.877  12.363
71962W        W44288  11.327  25.020   3.836
71963W        W44289  29.432  17.200   1.224
71964W        W44290  29.601  42.875  13.798
71965W        W44291  42.891  20.233   1.301
71966W        W44292   8.658  40.315  13.438
71967W        W44293  31.422  26.149   2.289
71968W        W44294   0.257  22.614   0.780
71969W        W44295  36.063  34.524   2.761
71970W        W44296  32.077  20.603   4.625
71971W        W44297  31.557  36.557  12.902
71972W        W44298  31.531  41.845   4.353
71973W        W44299  25.104  26.959   5.131
71974W        W44300  26.088  30.919   0.770
71975W        W44301  27.173  18.166  14.954
71976W        W44302  37.057  32.460  10.515
71977W        W44303  41.458  38.538  11.519
71978W        W44304  39.809   7.798   0.307
71979W        W44305  41.502   1.471  13.022
71980W        W44306   7.757  24.206  10.503
71981W        W44307  35.921   6.258   3.187
71982W        W44308  38.864  39.903  12.550
71983W        W44309  42.962  43.431   4.314
71984W        W44310  11.858  22.614   5.220
71985W        W44311   0.313   0.401   4.350
71986W        W44312  28.013  22.734  10.416
71987W        W44313   3.760  16.238   4.151
71988W        W44314   2.229   6.686   2.675
71989W        W44315  20.708  17.089  13.353
71990W        W44316  43.935  16.187   2.406
71991W        W44317  28.955  32.549  12.550
71992W        W44318  26.980  22.022  11.495
71993W        W44319  21.227  21.681  12.888
71994W        W44320  27.110  29.151   1.808
71995W        W44321  11.689  33.957  12.509
71996W        W44322  23.643  42.422   2.664
71997W        W44323  40.934   1.389  12.462
71998W        W44324   4.848  29.160   4.825
71999W        W44325  44.921  27.556  12.343
72000W        W44326  17.152  11.768  14.415
72001W        W44327  18.728  23.557  10.608
72002W        W44328   0.909   0.864  13.380
72003W        W44329   5.698  35.095  10.538
72004W        W44330  27.098  27.453  12.056
72005W        W44331  36.862   5.877  14.870
72006W        W44332  42.340  25.537   0.393
72007W        W44333  34.045  37.344  11.419
72008W        W44334  43.494   0.353  13.317
72009W        W44335  10.368  13.743   1.932
72010W        W44336  35.059   6.789  11.608
72011W        W44337  21.152   9.737   0.769
72012W        W44338  16.269  20.531   1.797
72013W        W44339  18.703  24.973  11.074
72014W        W44340  11.686  17.763   2.346
72015W        W44341  24.045  39.977   2.868
72016W        W44342  40.933   6.399  14.309
72017W        W44343  43.825  10.844  10.613
72018W        W44344  11.687  43.841   1.923
72019W        W44345  26.048  21.706  11.000
72020W        W44346  40.023  22.128   1.355
72021W        W44347   1.797  27.627  11.947
72022W        W44348  14.619   7.416   2.851
72023W        W44349   1.407  16.803  10.422
72024W        W44350  41.905  38.921   3.747
72025W        W44351  28.049   4.932  14.385
72026W        W44352  22.176  44.771   2.282
72027W        W44353  35.924  14.220   0.474
72028W        W44354  19.726  29.456  12.975
72029W        W44355  14.657  21.082  14.395
72030W        W44356  16.091   4.438  12.415
72031W        W44357   4.858  34.086   3.195
72032W        W44358  34.021  11.710  14.352
72033W        W44359   2.333   6.222  12.004
72034W        W44360  14.757  30.156  11.515
72035W        W44361  35.902  15.095   4.694
72036W        W44362  16.604   4.268  10.605
72037W        W44363  36.953   8.400  13.470
72038W        W44364   2.776   6.345   1.388
72039W        W44365  28.960  11.359   1.908
72040W        W44366  29.481  31.115  11.050
72041W        W44367  10.851  40.336  14.286
72042W        W44368   2.905   0.417  10.982
72043W        W44369  11.223  34.895   1.801
72044W        W44370  14.147  26.079  13.798
72045W        W44371   8.749   7.718   3.238
72046W        W44372  11.800  19.237  11.457
72047W        W44373  36.562   7.409  10.078
72048W        W44374  32.905  18.189  10.456
72049W        W44375   6.223  14.323   9.938
72050W        W44376  12.745  21.717  14.878
72051W        W44377  33.453   7.342   1.369
72052W        W44378  28.567  15.673   2.736
72053W        W44379  38.493   4.718   1.921
72054W        W44380  41.368  33.410  10.450
72055W        W44381  26.527  44.483   2.248
72056W        W44382  28.014   6.408   2.260
72057W        W44383  20.623  36.422   3.271
72058W        W44384  12.837  44.373   4.637
72059W        W44385   0.802  40.518   2.241
72060W        W44386  19.602  22.576   4.643
72061W        W44387  18.131  13.689   3.864
72062W        W44388  42.401  33.394  14.492
72063W        W44389   8.275  24.630  14.858
72064W        W44390   2.844  11.227   1.860
72065W        W44391   0.829  29.661   0.266
72066W        W44392   2.334  31.454   3.708
72067W        W44393  34.022  14.794   2.209
72068W        W44394  39.825  22.225   3.333
72069W        W44395   1.467  11.714  10.488
72070W        W44396  44.430  37.966  12.447
72071W        W44397  19.242  10.768   3.353
72072W        W44398  20.220   4.295   3.203
72073W        W44399   8.655   1.483  12.921
72074W        W44400  32.121  29.112   3.638
72075W        W44401   1.741  25.640  11.012
72076W        W44402   0.753   4.227   0.251
72077W        W44403  24.139  12.814  13.534
72078W        W44404  41.806   8.892  12.966
72079W        W44405  32.498  43.902   1.765
72080W        W44406   3.873   7.347   1.928
72081W        W44407  18.200  22.204  13.384
72082W        W44408  20.096  36.394  11.921
72083W        W44409  13.702   3.281   0.919
72084W        W44410  31.006  23.071   0.947
72085W        W44411  22.201  24.520  14.799
72086W        W44412  23.736   3.418   0.898
72087W        W44413  14.318   7.885   3.854
72088W        W44414  29.158   7.174   2.781
72089W        W44415   2.774  26.022  11.603
72090W        W44416  23.616  15.732  13.392
72091W        W44417  44.809  38.020   2.718
72092W        W44418  13.123  40.505   2.737
72093W        W44419  25.627  23.108  14.929
72094W        W44420  17.096  33.440   2.207
72095W        W44421  15.091  22.197   1.919
72096W        W44422   5.752  12.317   2.872
72097W        W44423  17.305  10.200  11.959
72098W        W44424  10.876  20.190  11.894
72099W        W44425  29.583  29.085  11.501
72100W        W44426  22.685  43.472   0.741
72101W        W44427  42.333  30.458   1.906
72102W        W44428  24.552  26.589  13.494
72103W        W44429  22.665  31.474  13.330
72104W        W44430  36.374  21.080  14.299
72105W        W44431  19.650   6.360   5.127
72106W        W44432  13.742  44.482   0.476
72107W        W44433  26.026  16.783   5.644
72108W        W44434  43.998  37.006  10.478
72109W        W44435  39.341   4.711   0.363
72110W        W44436   3.226  15.185  14.916
72111W        W44437   5.201  30.418   4.275
72112W        W44438  27.595  19.281   0.781
72113W        W44439   2.328  15.586   1.346
72114W        W44440  18.120  16.142  12.926
72115W        W44441  38.836  13.635  13.548
72116W        W44442  21.552  24.118  12.342
72117W        W44443  34.081   7.281   0.927
72118W        W44444  33.494   9.727   1.796
72119W        W44445  37.401  29.032   1.357
72120W        W44446  24.719  38.922   0.877
72121W        W44447   8.793  34.889   5.275
72122W        W44448  30.949   4.308  14.849
72123W        W44449   2.274  29.494  12.091
72124W        W44450  23.641  38.471   3.283
72125W        W44451  27.110  39.501  11.403
72126W        W44452  37.936   9.365   3.710
72127W        W44453   2.843  44.350  13.531
72128W        W44454  12.263  34.118   0.748
72129W        W44455  18.751   5.730  13.340
72130W        W44456  37.861  40.815   0.290
72131W        W44457   3.788  25.636   0.865
72132W        W44458  30.415  36.043   3.867
72133W        W44459  18.107  10.326  12.042
72134W        W44460  11.217   9.686  12.401
72135W        W44461  19.761  10.856   1.922
72136W        W44462  43.461  42.838   1.408
72137W        W44463  27.476  28.530   1.853
72138W        W44464   2.312  32.439  14.966
72139W        W44465  31.014   2.338  14.451
72140W        W44466   8.738  43.985  14.452
72141W        W44467  15.782  20.145  14.774
72142W        W44468   6.262   6.909   2.721
72143W        W44469   6.806  42.853   3.674
72144W        W44470   1.744  19.254   1.896
72145W        W44471  31.068   1.974  14.002
72146W        W44472  35.517  38.052  13.492
72147W        W44473  14.251  35.084   1.439
72148W        W44474  42.934  12.272  11.891
72149W        W44475   1.384  18.686   4.728
72150W        W44476   6.261   8.775   2.287
72151W        W44477   6.348  32.968   0.880
72152W        W44478  41.864  25.618   2.715
72153W        W44479  16.696   4.862  13.436
72154W        W44480  17.742  19.639   3.240
72155W        W44481   8.244   3.260  14.438
72156W        W44482  20.250   6.865   4.169
72157W        W44483  24.198  23.541   1.276
72158W        W44484   8.849   3.727   2.247
72159W        W44485  14.236  14.699   0.783
72160W        W44486   7.831  29.545  14.494
72161W        W44487  14.289  23.591  13.832
72162W        W44488  22.561  42.794   3.868
72163W        W44489  37.406  12.331  10.514
72164W        W44490  37.946  28.059  14.438
72165W        W44491  42.380  34.911   3.371
72166W        W44492  35.413   5.291  13.042
72167W        W44493  12.227  39.513  11.876
72168W        W44494  30.650  12.821   0.413
72169W        W44495  22.089  20.129  11.060
72170W        W44496   6.381   6.786   3.304
72171W        W44497  28.134  20.647   0.926
72172W        W44498  25.017  16.575   1.765
72173W        W44499  10.772   8.163   2.256
72174W        W44500  27.997  31.582   1.419
72175W        W44501  35.394  43.792  10.928
72176W        W44502  42.474  38.359  12.984
72177W        W44503  35.560   1.848  13.521
72178W        W44504  32.511   4.793  10.895
72179W        W44505  34.553   1.863  12.878
72180W        W44506  33.447   9.760   4.164
72181W        W44507  36.412   2.747  14.878
72182W        W44508  20.577  32.060  12.033
72183W        W44509  41.980  29.153  14.991
72184W        W44510   4.773  20.100   1.418
72185W        W44511   8.859  39.910  13.835
72186W        W44512  44.273  35.567   4.611
72187W        W44513  19.717  12.277  10.515
72188W        W44514  18.140  33.081   1.233
72189W        W44515   2.449  24.491   0.297
72190W        W44516  22.019  11.328  11.891
72191W        W44517  19.235  22.185  13.857
72192W        W44518  22.093  18.200   0.937
72193W        W44519  26.194   5.300   0.874
72194W        W44520   0.926  16.658  12.529
72195W        W44521  12.692  36.892  11.019
72196W        W44522  43.932   2.851   1.756
72197W        W44523  44.880   0.981  10.450
72198W        W44524  25.195  25.011  13.916
72199W        W44525  43.449  19.614  12.361
72200W        W44526  22.036  10.877  11.427
72201W        W44527  40.493  33.460   1.365
72202W        W44528  32.042   0.336  12.958
72203W        W44529  35.068   4.761   3.319
72204W        W44530   8.677  31.131   0.464
72205W        W44531  38.489  27.639  12.421
72206W        W44532  29.017  30.456  13.823
72207W        W44533  31.551  34.548  14.414
72208W        W44534  11.660   8.308   2.314
72209W        W44535  40.504  21.023  11.998
72210W        W44536  22.681  22.184   4.638
72211W        W44537  40.940  44.788  13.857
72212W        W44538  34.070  38.068  13.820
72213W        W44539   5.375  31.100  12.015
72214W        W44540  36.948   4.228   2.231
72215W        W44541  28.976   7.878  10.895
72216W        W44542  35.373   4.448   3.219
72217W        W44543   6.387  30.154   0.853
72218W        W44544  29.036  24.642   2.222
72219W        W44545  19.654  10.299  11.570
72220W        W44546   5.371  27.117  11.566
72221W        W44547   9.359   8.312  10.497
72222W        W44548   8.754  15.805  13.828
72223W        W44549  24.015   2.403  12.888
72224W        W44550  22.599   1.870  12.893
72225W        W44551  44.800   0.790  12.891
72226W        W44552  34.901   1.481  11.875
72227W        W44553   7.754  31.095   3.356
72228W        W44554   6.307   8.822   2.819
72229W        W44555   2.399  15.598   4.252
72230W        W44556  43.795  43.954   4.732
72231W        W44557  19.618   8.808  12.388
72232W        W44558  14.180  30.486  14.798
72233W        W44559  23.572  27.000  11.552
72234W        W44560   0.491  43.323  12.074
72235W        W44561   4.422   5.374   3.301
72236W        W44562  11.854  39.020   4.185
72237W        W44563  21.122  26.974   1.889
72238W        W44564   8.243   3.248   1.385
72239W        W44565  12.330  15.219  10.989
72240W        W44566   3.863  12.306  14.971
72241W        W44567  29.052   6.768   4.241
72242W        W44568  28.086  22.675  14.971
72243W        W44569   4.738  30.459   1.332
72244W        W44570  18.635  38.364   2.242
72245W        W44571  43.019  40.852  13.361
72246W        W44572  19.222  43.019   3.307
72247W        W44573  13.694  11.691   1.868
72248W        W44574  27.519  36.540  11.423
72249W        W44575  15.781   4.348  11.554
72250W        W44576   2.357   0.971   2.192
72251W        W44577  43.806  38.049  11.491
72252W        W44578  21.214  36.366  14.891
72253W        W44579  20.220  43.318   4.239
72254W        W44580  27.094   1.291  12.423
72255W        W44581   6.307  27.603   4.206
72256W        W44582   9.796  44.924   2.668
72257W        W44583   4.418  36.955  11.100
72258W        W44584  12.160  13.727  10.530
72259W        W44585  17.270  42.383  14.986
72260W        W44586   1.324  26.186  11.428
72261W        W44587  42.519  26.513   3.846
72262W        W44588  34.984  10.260   1.706
72263W        W44589  33.904  20.736   3.147
72264W        W44590  25.529  34.027   1.224
72265W        W44591   9.733   7.417   3.698
72266W        W44592   8.802  36.021   1.910
72267W        W44593  16.582  42.428   0.398
72268W        W44594  32.034  23.197   3.361
72269W        W44595  10.347  21.156  12.084
72270W        W44596  11.246  17.143  13.486
72271W        W44597  17.069   2.892  11.116
72272W        W44598  11.846   2.907  14.863
72273W        W44599  25.627  22.669   4.740
72274W        W44600  44.856  21.662  13.986
72275W        W44601  33.105  42.385  14.324
72276W        W44602   3.812  15.629  10.415
72277W        W44603   5.221  31.628   1.868
72278W        W44604  16.644  16.160  13.856
72279W        W44605  19.549   4.900  14.449
72280W        W44606  30.152  15.309  14.304
72281W        W44607  37.376  39.550   4.344
72282W        W44608  18.593  19.678  14.906
72283W        W44609  44.878  21.717  12.078
72284W        W44610  43.448  25.629   1.434
72285W        W44611  40.381   9.342   1.343
72286W        W44612  29.547  14.617  14.484
72287W        W44613   4.347  33.475   3.725
72288W        W44614  11.732  11.688   0.949
72289W        W44615  23.571  21.571  13.463
72290W        W44616  42.526  35.380  12.373
72291W        W44617   3.863  32.536   4.656
72292W        W44618  26.523  33.512   3.817
72293W        W44619  19.771  42.959  12.006
72294W        W44620  32.628   7.353   2.792
72295W        W44621  39.899  42.307  11.379
72296W        W44622  10.806  37.021  11.985
72297W        W44623  23.073  44.292   0.428
72298W        W44624  15.630  38.559   3.334
72299W        W44625  34.953   0.752  14.417
72300W        W44626  30.655  42.976  10.551
72301W        W44627   4.258  42.997   5.132
72302W        W44628   5.216  42.803   1.228
72303W        W44629  24.018  39.522   2.662
72304W        W44630  18.211   2.334   1.807
72305W        W44631  38.369  43.339  10.444
72306W        W44632   9.846  12.321   1.325
72307W        W44633   7.414  42.421  11.002
72308W        W44634  41.360  17.677  11.989
72309W        W44635  43.912  42.993  10.588
72310W        W44636  20.068  36.492  10.907
72311W        W44637  32.467  32.051   2.841
72312W        W44638   3.939  38.519  14.028
72313W        W44639  23.653  37.452   2.881
72314W        W44640   1.463   2.402  12.963
72315W        W44641  44.334  37.967  11.908
72316W        W44642  38.960  29.468   3.796
72317W        W44643  30.058  34.921  12.474
72318W        W44644  20.693  14.134   2.727
72319W        W44645  36.877  16.203   1.836
72320W        W44646   6.359  35.012   2.364
72321W        W44647  26.975   2.464  10.993
72322W        W44648  24.004  13.332   4.823
72323W        W44649  25.071  34.520  12.578
72324W        W44650  28.610  16.664   0.920
72325W        W44651  10.799  18.268  10.605
72326W        W44652   0.867  16.714  13.827
72327W        W44653  19.180  31.605  12.029
72328W        W44654   2.439   4.413   4.151
72329W        W44655  24.607  15.814  14.373
72330W        W44656  43.349  16.747   2.284
72331W        W44657  11.300  11.858   0.941
72332W        W44658   4.290   5.873  13.959
72333W        W44659  37.499  27.486  14.400
72334W        W44660  41.354  21.603  12.066
72335W        W44661  16.308  35.503   1.898
72336W        W44662  40.873   2.938   0.853
72337W        W44663  37.524  40.849   2.206
72338W        W44664  35.070  10.803   1.217
72339W        W44665  24.141  20.061  11.875
72340W        W44666  32.891   1.437   4.207
72341W        W44667   3.284  14.693   1.328
72342W        W44668   9.217  41.035   0.787
72343W        W44669  22.663  38.978   5.140
72344W        W44670  13.151  36.387  10.487
72345W        W44671  40.413  43.818  14.396
72346W        W44672   9.226   0.443   2.394
72347W        W44673  17.179  29.926   3.739
72348W        W44674  34.048  19.540  13.317
72349W        W44675  15.791   2.761  14.776
72350W        W44676  29.977   6.280  11.869
72351W        W44677  42.902  10.189  14.344
72352W        W44678   4.263  43.319  12.460
72353W        W44679  10.235  10.331   1.326
72354W        W44680  44.384  35.441  10.955
72355W        W44681   1.825  38.967  11.560
72356W        W44682   9.850  20.130  11.397
72357W        W44683  16.073   1.795  11.417
72358W        W44684   3.884   1.899  12.533
72359W        W44685   0.759  18.170   0.246
72360W        W44686  35.434   6.688   3.677
72361W        W44687  28.678   5.874  10.589
72362W        W44688  38.440   5.363  10.523
72363W        W44689  27.581  25.511   0.888
72364W        W44690  13.333  40.487  14.956
72365W        W44691  31.022  17.148  12.841
72366W        W44692   4.270  13.812   2.308
72367W        W44693   1.267  11.789   1.845
72368W        W44694  14.110   6.845   1.898
72369W        W44695  16.237  41.358  13.901
72370W        W44696  22.076  19.143  12.045
72371W        W44697   1.440  16.679   3.782
72372W        W44698  10.380   6.325   3.272
72373W        W44699   4.854  32.915  13.886
72374W        W44700   3.383  37.489   0.855
72375W        W44701  35.982  29.543   1.420
72376W        W44702  38.469   9.198  14.978
72377W        W44703  15.675  42.302  11.099
72378W        W44704  22.612  11.226   1.906
72379W        W44705   8.817  37.842  14.010
72380W        W44706   7.189  43.402   4.624
72381W        W44707  16.657  36.906   0.853
72382W        W44708   0.969  36.904   4.307
72383W        W44709  42.344  37.998   4.194
72384W        W44710  28.166  32.634   3.728
72385W        W44711  16.203  21.196  10.977
72386W        W44712  17.777   6.912  10.602
72387W        W44713  37.994  43.448  14.029
72388W        W44714  41.793  26.032   2.744
72389W        W44715   2.414  12.710  13.488
72390W        W44716  21.572  17.065   2.729
72391W        W44717  44.788  30.458   3.280
72392W        W44718  41.941   7.802   0.390
72393W        W44719   5.690  24.534   4.309
72394W        W44720  21.168   3.775   4.207
72395W        W44721  38.393  17.179  11.527
72396W        W44722  21.657   1.973   0.383
72397W        W44723  23.092  31.535  14.865
72398W        W44724  34.537  24.188   2.857
72399W        W44725  21.535  25.136   1.820
72400W        W44726   1.791   6.788   3.717
72401W        W44727  43.855   6.269  11.448
72402W        W44728   3.758  10.254   2.817
72403W        W44729  11.817   0.283   3.717
72404W        W44730   1.875   5.295  14.894
72405W        W44731  24.616  11.256  10.942
72406W        W44732  33.453  41.338  13.536
72407W        W44733  27.599  40.023   2.400
72408W        W44734  10.671  16.074   0.458
72409W        W44735  12.353  41.510  14.304
72410W        W44736   9.660  29.619  14.358
72411W        W44737  27.638  15.110  12.060
72412W        W44738  17.139  40.887   0.399
72413W        W44739  10.761  33.124  11.991
72414W        W44740  19.039   3.361  12.940
72415W        W44741  36.557  19.242  14.840
72416W        W44742  35.931  41.898  14.883
72417W        W44743  28.592  10.728  14.853
72418W        W44744  34.975  36.353  10.596
72419W        W44745  34.009  34.979  12.525
72420W        W44746  19.222  30.534  13.967
72421W        W44747  28.942  19.060   0.312
72422W        W44748  17.187  20.709  13.528
72423W        W44749  28.529  14.664   4.831
72424W        W44750  39.971   7.733   1.273
72425W        W44751   4.840  34.511   2.371
72426W        W44752  44.941  42.416   3.732
72427W        W44753   3.922  28.561   2.187
72428W        W44754  31.928  10.327  14.401
72429W        W44755  40.837  15.745  14.785
72430W        W44756  44.440  35.957  14.029
72431W        W44757  34.988  23.179  12.063
72432W        W44758  12.810  41.829  12.032
72433W        W44759  35.957   5.904   1.237
72434W        W44760  29.042  33.046   1.840
72435W        W44761   5.376  36.402  13.873
72436W        W44762   5.410  31.022  12.921
72437W        W44763  42.378   8.276   3.159
72438W        W44764   0.331   0.417  12.362
72439W        W44765  36.503  34.487   5.574
72440W        W44766   3.394  27.107   4.795
72441W        W44767  30.093  41.829  14.020
72442W        W44768  44.937  10.341   1.223
72443W        W44769  33.949  31.899   4.304
72444W        W44770  44.374   7.394   1.372
72445W        W44771  16.082  19.137   2.201
72446W        W44772   8.351   2.390   0.332
72447W        W44773  12.755  18.176  12.370
72448W        W44774   6.900  30.623   1.728
72449W        W44775  30.010  15.785  11.111
72450W        W44776  13.251   7.332   1.391
72451W        W44777  43.405  38.439  13.398
72452W        W44778   3.803  11.855  14.392
72453W        W44779  40.932  19.662   1.871
72454W        W44780  44.327  28.509   3.649
72455W        W44781   3.858  26.973  11.540
72456W        W44782  18.099   8.382   4.793
72457W        W44783  33.589  32.137   2.400
72458W        W44784   0.916  38.827  14.781
72459W        W44785  38.952  37.856   1.877
72460W        W44786  22.056  32.618   3.349
72461W        W44787  36.432   8.316  11.122
72462W        W44788  39.036  29.089  14.366
72463W        W44789  18.681  24.656  12.361
72464W        W44790   3.805  17.731  12.388
72465W        W44791   0.253   9.291   4.828
72466W        W44792   6.314  44.397  11.121
72467W        W44793   1.370  29.022  14.830
72468W        W44794  43.272  20.180   3.750
72469W        W44795  43.784  28.985   2.190
72470W        W44796  19.072  36.008  12.923
72471W        W44797  43.996  32.577  11.953
72472W        W44798   4.440  37.519  13.507
72473W        W44799  23.092  25.612   4.328
72474W        W44800  26.681  14.257   3.263
72475W        W44801  25.569  27.135   4.696
72476W        W44802  33.380  32.119   4.210
72477W        W44803  29.993  40.389  10.574
72478W        W44804   4.395  22.189  12.966
72479W        W44805  10.303   3.829   3.358
72480W        W44806  40.374  30.002  14.844
72481W        W44807   2.755   5.819  12.467
72482W        W44808  16.080  19.597   3.168
72483W        W44809  18.584   6.245  14.432
72484W        W44810   8.677   6.723  14.784
72485W        W44811  29.930  18.639  10.926
72486W        W44812  16.110  19.704  13.028
72487W        W44813  22.059  15.646   4.659
72488W        W44814   0.315  12.795   3.333
72489W        W44815  10.732  27.038   3.684
72490W        W44816   5.250  36.358   0.913
72491W        W44817  34.026   5.258   0.955
72492W        W44818  28.526  20.686   0.743
72493W        W44819  37.931  32.097   4.302
72494W        W44820  35.991  26.019   0.406
72495W        W44821  17.751  20.702   4.699
72496W        W44822  27.114  39.926   4.153
72497W        W44823  24.589   6.741   0.283
72498W        W44824   2.873  15.670  14.780
72499W        W44825  31.540  23.058  14.935
72500W        W44826  20.694  30.965  14.447
72501W        W44827  18.567  31.531  12.879
72502W        W44828  18.132  24.100   4.166
72503W        W44829  33.922  40.857  10.595
72504W        W44830  15.781  19.192   4.217
72505W        W44831  33.422  15.583   4.658
72506W        W44832  11.310  27.636  12.465
72507W        W44833  23.096   5.215  12.478
72508W        W44834  42.910  33.513   4.239
72509W        W44835  31.611  13.725  14.926
72510W        W44836  20.187  44.265   2.717
72511W        W44837  25.212  17.606  12.551
72512W        W44838  19.598  10.360  14.022
72513W        W44839  23.162  19.626   0.456
72514W        W44840   6.760  22.698   0.887
72515W        W44841   1.779   3.935   1.394
72516W        W44842  15.102  28.000   1.914
72517W        W44843  18.748  40.320   0.815
72518W        W44844  15.284   7.173   2.740
72519W        W44845  10.250  11.792   1.257
72520W        W44846   4.779  14.661  10.618
72521W        W44847  43.887  24.514   1.816
72522W        W44848  21.530  12.216  13.317
72523W        W44849  27.646  44.888   3.729
72524W        W44850   0.802  38.563   2.691
72525W        W44851  16.646  36.538   1.254
72526W        W44852  37.494  34.398  11.901
72527W        W44853  17.769  31.118  10.584
72528W        W44854  13.119  22.047  10.017
72529W        W44855  28.526  43.303   0.786
72530W        W44856  40.427   0.367   4.639
72531W        W44857  23.503   2.829   4.715
72532W        W44858  40.800  24.071  14.898
72533W        W44859  11.672  42.792   5.279
72534W        W44860  12.302  27.530   5.303
72535W        W44861  30.652   4.409   1.726
72536W        W44862  29.663  35.013   4.798
72537W        W44863  36.891  29.086   4.725
72538W        W44864  41.381  38.929   2.768
72539W        W44865  31.004  21.542  11.983
72540W        W44866   7.870  34.513   4.827
72541W        W44867  10.750   9.811   0.787
72542W        W44868   5.287  23.140   3.701
72543W        W44869  18.683   1.821  12.829
72544W        W44870  11.312   5.932   3.181
72545W        W44871  27.573  42.431   1.876
72546W        W44872  39.396  10.188   1.449
72547W        W44873  10.160   3.738   4.639
72548W        W44874  23.168  40.541  13.526
72549W        W44875   1.351  44.936   1.360
72550W        W44876   4.442  34.399  14.489
72551W        W44877   5.714  10.786  13.048
72552W        W44878  25.109  19.262   1.332
72553W        W44879  36.441   4.713  13.481
72554W        W44880  19.596  22.195  14.274
72555W        W44881  19.741   4.203   2.755
72556W        W44882  27.662  43.951   4.633
72557W        W44883  33.506  33.596   1.858
72558W        W44884  38.886  33.023   1.759
72559W        W44885  22.660  35.565   2.353
72560W        W44886  26.960  41.321  13.941
72561W        W44887  15.667  34.554  10.536
72562W        W44888  39.928  26.555   4.174
72563W        W44889  10.800  15.697   4.327
72564W        W44890  23.654  27.104   4.349
72565W        W44891  41.942  19.553   0.727
72566W        W44892   4.888  44.454  14.423
72567W        W44893  18.768   0.891  12.355
72568W        W44894   3.336  30.576  11.582
72569W        W44895  33.037  35.480  13.818
72570W        W44896   0.469   3.805  12.385
72571W        W44897  43.911  16.669   3.696
72572W        W44898  21.555  26.135  10.925
72573W        W44899  20.652  37.360   1.254
72574W        W44900  37.430   1.399   3.303
72575W        W44901  43.826  16.798   2.748
72576W        W44902  39.929   1.898   0.472
72577W        W44903  18.597  43.010  10.525
72578W        W44904   4.303  31.612   4.629
72579W        W44905   6.831   0.370   2.662
72580W        W44906  38.940   5.214  13.442
72581W        W44907  13.681  35.060   1.839
72582W        W44908  22.159  17.678  10.899
72583W        W44909  21.692  24.678   4.182
72584W        W44910  21.563  25.113   4.771
72585W        W44911  21.660   7.751  14.454
72586W        W44912  11.174  44.460   0.746
72587W        W44913   8.221  11.302  12.004
72588W        W44914  11.782  28.040  10.506
72589W        W44915  38.338   1.901  12.919
72590W        W44916  36.872   9.828  14.299
72591W        W44917   5.348  29.622   3.766
72592W        W44918  12.701   7.774   1.742
72593W        W44919  44.346  43.369  13.798
72594W        W44920  37.505  17.285   3.364
72595W        W44921  14.320  35.453  13.833
72596W        W44922  32.889  18.763  11.000
72597W        W44923  15.215   6.256  11.093
72598W        W44924  32.591   4.374  13.865
72599W        W44925  38.547  22.070  13.956
72600W        W44926   2.334  30.920  13.797
72601W        W44927   6.709  34.926  14.855
72602W        W44928   0.948  19.560  13.414
72603W        W44929   4.434   2.256   5.613
72604W        W44930  29.450  37.031  14.891
72605W        W44931  29.132  21.545  11.093
72606W        W44932  13.733  31.445   2.812
72607W        W44933  26.970   1.925  14.320
72608W        W44934  11.354   4.259  12.975
72609W        W44935  29.648  24.481  10.977
72610W        W44936  27.090  32.019  13.852
72611W        W44937  19.637  14.176  14.960
72612W        W44938  21.101   4.433   3.188
72613W        W44939   5.733   2.886   4.696
72614W        W44940  30.922  16.073  13.823
72615W        W44941  15.220  38.903   2.220
72616W        W44942  31.081  25.997  14.981
72617W        W44943  11.142  29.961  11.955
72618W        W44944  15.775   5.373  14.348
72619W        W44945  37.895   1.816   1.910
72620W        W44946  11.361  36.089  10.991
72621W        W44947  36.399  12.857   3.232
72622W        W44948  40.321   7.886   0.826
72623W        W44949  35.914   3.874  14.285
72624W        W44950  32.485   8.241  11.040
72625W        W44951   4.893  16.787  10.556
72626W        W44952  32.573  11.331   3.226
72627W        W44953  13.806  21.578  14.423
72628W        W44954   7.221  19.281  12.517
72629W        W44955  25.521   9.773  12.975
72630W        W44956  15.647  42.894   1.397
72631W        W44957  24.646  38.470   9.460
72632W        W44958  25.150  12.629   0.820
72633W        W44959  24.018  20.252   0.323
72634W        W44960  11.178  40.025  10.644
72635W        W44961  33.043   7.803   2.256
72636W        W44962  14.600   1.327  10.595
72637W        W44963  24.491  21.743  12.347
72638W        W44964  16.190  37.933   3.669
72639W        W44965  22.027   0.263  14.879
72640W        W44966   4.371  25.210  12.574
72641W        W44967   8.189  17.563   3.705
72642W        W44968  14.317   4.905  13.867
72643W        W44969  23.642  27.196  11.864
72644W        W44970  30.602  39.519  11.496
72645W        W44971  26.076  42.008   3.331
72646W        W44972  18.236  39.359   4.227
72647W        W44973  36.902  17.798  10.580
72648W        W44974  39.890  40.371   2.359
72649W        W44975  42.781  39.365   1.777
72650W        W44976  43.967  18.054   0.259
72651W        W44977   1.249   2.758   3.686
72652W        W44978  29.059  28.159  14.859
72653W        W44979   1.251  11.240   0.318
72654W        W44980   8.363  18.571   0.788
72655W        W44981   0.965  18.273   2.838
72656W        W44982   0.293  19.152  13.384
72657W        W44983  10.817   2.452  11.974
72658W        W44984  21.247  19.055   1.910
72659W        W44985   2.345  28.672  14.768
72660W        W44986  12.715  16.196  14.012
72661W        W44987  34.917  43.332  12.349
72662W        W44988  38.412  44.755  12.433
72663W        W44989  35.601  34.878   2.312
72664W        W44990   1.932  21.104   2.822
72665W        W44991   3.818  27.025  13.892
72666W        W44992  37.521  16.211   0.464
72667W        W44993  17.117  23.212  12.035
72668W        W44994  12.777   0.774   4.241
72669W        W44995   3.347  25.981   1.912
72670W        W44996  14.643  37.841   0.371
72671W        W44997  31.584  29.104   4.639
72672W        W44998  27.973   2.421   4.281
72673W        W44999   7.812  14.284  10.136
72674W        W45000  35.015  26.971  10.622
72675W        W45001  42.282  38.952  12.908
72676W        W45002  12.823  43.450  11.923
72677W        W45003  17.713   3.450  12.979
72678W        W45004  26.155   9.361  13.433
72679W        W45005  17.230  15.760   3.340
72680W        W45006  26.643   2.305   1.717
72681W        W45007  11.222  12.331  11.063
72682W        W45008  23.194  33.409   0.282
72683W        W45009  40.507   8.872  13.871
72684W        W45010  14.675  35.575   1.897
72685W        W45011   5.688  43.504  14.328
72686W        W45012  20.731   9.838   1.856
72687W        W45013  38.541  42.885   0.442
72688W        W45014  40.344   2.762  14.948
72689W        W45015  29.644  13.258   5.299
72690W        W45016  17.094  15.690  10.505
72691W        W45017   4.308  16.690   1.312
72692W        W45018  33.104   1.815   2.896
72693W        W45019  31.459  28.612   1.242
72694W        W45020  39.015  39.486   3.812
72695W        W45021   3.287  21.690   9.661
72696W        W45022  12.323  12.166  14.450
72697W        W45023  40.840  31.092   0.340
72698W        W45024  36.872  16.710   0.833
72699W        W45025   6.424  35.548   0.775
72700W        W45026   3.722  12.795  14.364
72701W        W45027  20.153  25.047   1.761
72702W        W45028  33.582  32.092   4.782
72703W        W45029  16.164  20.768  10.561
72704W        W45030   5.896  10.784   2.719
72705W        W45031  27.041  30.924   2.197
72706W        W45032  32.459  35.868  14.865
72707W        W45033   2.743  32.424   4.119
72708W        W45034   2.460  44.851  14.430
72709W        W45035  22.726  23.634   0.952
72710W        W45036  16.299  37.027   1.778
72711W        W45037  40.406  44.420  12.842
72712W        W45038  31.623  11.342  14.861
72713W        W45039  20.032  13.119   0.781
72714W        W45040  32.608  11.715   3.196
72715W        W45041   3.723  12.202  14.385
72716W        W45042   3.798  32.466   2.287
72717W        W45043  30.044   1.973   4.785
72718W        W45044  13.282  35.104  14.384
72719W        W45045  13.133  20.205  14.850
72720W        W45046  35.497  42.862  13.954
72721W        W45047  11.190   4.762   1.696
72722W        W45048  16.316  28.568  12.474
72723W        W45049  10.769   9.751   4.150
72724W        W45050  24.574  32.042  13.026
72725W        W45051  12.848   8.839   4.205
72726W        W45052   0.390   4.363   4.718
72727W        W45053  37.515  36.453   1.935
72728W        W45054   2.336  27.564   0.844
72729W        W45055  23.129   3.417  12.947
72730W        W45056  27.960   3.223  12.422
72731W        W45057  40.833   4.318   3.226
72732W        W45058  25.470  15.258  14.345
72733W        W45059  10.679   3.777  13.825
72734W        W45060  24.688   4.924   2.746
72735W        W45061  37.027  16.219  11.512
72736W        W45062  40.993  10.632  13.320
72737W        W45063  21.110  34.866   3.220
72738W        W45064  21.150  17.718   4.239
72739W        W45065  42.482   0.756   3.823
72740W        W45066  44.487  17.706  12.378
72741W        W45067  44.281  32.626  13.545
72742W        W45068   5.282  22.073   2.178
72743W        W45069  27.460  43.906  13.892
72744W        W45070   1.436  31.975  11.118
72745W        W45071  40.380  32.043  10.891
72746W        W45072  35.108  11.679   1.890
72747W        W45073   9.224   1.845   3.265
72748W        W45074  12.638   8.259   3.631
72749W        W45075  32.396  16.115   3.152
72750W        W45076   8.876   2.260  14.828
72751W        W45077  43.933  30.127   2.231
72752W        W45078  30.950  10.296   2.877
72753W        W45079  35.429  41.368  12.983
72754W        W45080  19.226  23.571  10.643
72755W        W45081  25.654   1.971   0.367
72756W        W45082  23.074  41.330   3.641
72757W        W45083  19.243  14.123  12.091
72758W        W45084  15.287  24.663  11.115
72759W        W45085  34.971   0.412   0.436
72760W        W45086  24.132  38.899   5.663
72761W        W45087  11.213  16.688  13.890
72762W        W45088  32.050  42.500  14.334
72763W        W45089  39.862   0.322  11.517
72764W        W45090   5.789  17.145  12.394
72765W        W45091  20.250  37.857  12.051
72766W        W45092  19.201  24.143  13.892
72767W        W45093   3.247  18.763   0.457
72768W        W45094  36.480  43.308  14.905
72769W        W45095   0.851   3.919   3.702
72770W        W45096  42.352  36.556   2.797
72771W        W45097  11.686   9.676  14.949
72772W        W45098  35.053  31.494  11.111
72773W        W45099  24.227  24.692   2.247
72774W        W45100  35.365  44.442  12.354
72775W        W45101  10.706  32.079  13.331
72776W        W45102  30.080   2.778  14.352
72777W        W45103   3.799  39.896   0.767
72778W        W45104  22.705   7.803   2.256
72779W        W45105  19.654  33.533  14.306
72780W        W45106  31.551   2.860  14.460
72781W        W45107   0.865  15.292  10.414
72782W        W45108  33.883   5.320  13.341
72783W        W45109  42.000  12.128  11.498
72784W        W45110  12.769   6.264   3.795
72785W        W45111  38.390  18.185  11.376
72786W        W45112  26.029  37.034  12.074
72787W        W45113   4.853  16.317  12.508
72788W        W45114  17.620  41.309   2.265
72789W        W45115   9.373  31.594  12.987
72790W        W45116  44.779  30.631   4.759
72791W        W45117  11.681  16.759   0.360
72792W        W45118  33.022   3.345  13.020
72793W        W45119   5.373   8.900   4.634
72794W        W45120  13.663  21.112   1.764
72795W        W45121  41.534  41.860  13.363
72796W        W45122   9.720   2.457  11.113
72797W        W45123  24.590  38.031  13.402
72798W        W45124  37.537  18.623  11.448
72799W        W45125  23.648  35.422   4.245
72800W        W45126  10.667  18.151  12.924
72801W        W45127  23.021  26.976  12.041
72802W        W45128  31.937  42.855  13.395
72803W        W45129  31.982  13.344  11.017
72804W        W45130  35.602   9.773  14.505
72805W        W45131  31.548  36.951   1.389
72806W        W45132  23.580  19.640   3.652
72807W        W45133  14.641  20.571  13.978
72808W        W45134   3.728   0.446   4.702
72809W        W45135  40.449  26.163   4.816
72810W        W45136  14.687   8.239  14.371
72811W        W45137   5.421  24.514  12.457
72812W        W45138  37.863   5.851   3.709
72813W        W45139  19.224   2.236  12.411
72814W        W45140  13.845  22.711   4.259
72815W        W45141  32.071  29.971   1.270
72816W        W45142  11.737  41.817   4.626
72817W        W45143   5.881   3.274   0.425
72818W        W45144  12.789  10.159  11.098
72819W        W45145  30.141  18.284   2.845
72820W        W45146  38.910   5.398   1.408
72821W        W45147  41.867  28.110  11.875
72822W        W45148   5.258  35.381   4.317
72823W        W45149  12.830  13.795   4.221
72824W        W45150  12.655  35.460   5.279
72825W        W45151  19.551  30.587  11.076
72826W        W45152  14.719   5.256  13.959
72827W        W45153  14.807   0.888  13.423
72828W        W45154  37.925   0.367  14.768
72829W        W45155  18.083  35.549   4.122
72830W        W45156  19.663  36.865   3.248
72831W        W45157  24.168  30.559   4.259
72832W        W45158  16.225  16.591   0.809
72833W        W45159   7.381  29.034   1.729
72834W        W45160  29.495  37.930   1.344
72835W        W45161  35.525  24.591   1.787
72836W        W45162  37.501  14.626  13.477
72837W        W45163  41.878  30.017   0.882
72838W        W45164   4.788   4.860   2.330
72839W        W45165   1.808   5.795   1.228
72840W        W45166  29.117   5.299  13.479
72841W        W45167   1.315  20.693  11.933
72842W        W45168  41.998  22.539   0.812
72843W        W45169  39.024  39.345   4.816
72844W        W45170   9.290  31.933  12.823
72845W        W45171  33.945  32.479  13.801
72846W        W45172  40.039   3.373   0.919
72847W        W45173   4.352   9.234   0.800
72848W        W45174  43.395   0.317   0.453
72849W        W45175  44.003  40.965   1.415
72850W        W45176  20.246   3.318   3.360
72851W        W45177   4.251   4.308  10.588
72852W        W45178  28.985  29.597  13.388
72853W        W45179  28.093  10.709   1.710
72854W        W45180  30.053  35.592   3.213
72855W        W45181  33.495  25.637   4.809
72856W        W45182  33.625  25.989  13.827
72857W        W45183   3.929   4.823   0.474
72858W        W45184  17.256   0.478  14.002
72859W        W45185  18.173  22.204  12.873
72860W        W45186  10.155  15.818  14.452
72861W        W45187   1.471  41.463   3.219
72862W        W45188  42.823  19.226  13.023
72863W        W45189   5.250  28.144  11.567
72864W        W45190  35.996  28.483  11.488
72865W        W45191  35.077   8.827  10.412
72866W        W45192  28.955  16.638  13.032
72867W        W45193  14.796  41.969   2.832
72868W        W45194  23.656   0.403   2.358
72869W        W45195  33.963  39.829   3.348
72870W        W45196  39.844  11.698   3.182
72871W        W45197  36.000  21.114  14.506
72872W        W45198   2.401  13.125  10.487
72873W        W45199  40.899  42.950  10.968
72874W        W45200  28.050  43.778  14.864
72875W        W45201  25.643  42.029   4.132
72876W        W45202  11.164  31.631   0.829
72877W        W45203  27.512   4.257   3.384
72878W        W45204  39.349  19.177  13.839
72879W        W45205   5.818  38.018  13.439
72880W        W45206  26.693  17.701   0.246
72881W        W45207  18.149  38.866   4.322
72882W        W45208  25.962  17.167   5.793
72883W        W45209  19.178   7.788  10.995
72884W        W45210   2.779  11.290  13.982
72885W        W45211  33.886  15.151  10.509
72886W        W45212  12.252  10.835  11.461
72887W        W45213  29.591  27.042   4.684
72888W        W45214  27.154  28.086  11.595
72889W        W45215  37.058  40.359  11.888
72890W        W45216  36.918  42.508   1.289
72891W        W45217  25.177  32.887  10.969
72892W        W45218  36.406   5.307  14.477
72893W        W45219  15.189  18.096   0.328
72894W        W45220  17.644  27.481   2.901
72895W        W45221  32.984  29.094   3.798
72896W        W45222  43.866  26.065  11.926
72897W        W45223  24.496  16.681  10.987
72898W        W45224   0.983  38.014  10.575
72899W        W45225  24.126  11.772  11.966
72900W        W45226  36.564  32.533  14.941
72901W        W45227   1.390  39.974   2.675
72902W        W45228  26.516   0.768  10.584
72903W        W45229  21.247  34.515   1.406
72904W        W45230  25.102  39.537  10.959
72905W        W45231  14.765  11.132   0.896
72906W        W45232  26.091  13.757  11.901
72907W        W45233   1.914  30.028   2.882
72908W        W45234   4.386  21.122   1.251
72909W        W45235  22.520   0.837   3.803
72910W        W45236  27.109  41.809  13.410
72911W        W45237  44.360  27.633  13.511
72912W        W45238  20.749   0.953  10.441
72913W        W45239  25.196  31.000   1.727
72914W        W45240  41.449  32.061   1.243
72915W        W45241  29.606   1.849   3.811
72916W        W45242  13.344  38.552  11.484
72917W        W45243  28.584  12.227  11.401
72918W        W45244  22.578  35.591  14.391
72919W        W45245  22.996  15.717   5.150
72920W        W45246   6.253  29.609  12.093
72921W        W45247  25.609   3.310   2.697
72922W        W45248  15.651  15.723   0.451
72923W        W45249  24.638  20.170  10.570
72924W        W45250  38.840  20.690  13.481
72925W        W45251  36.064   4.277  12.900
72926W        W45252  34.088  35.899  12.488
72927W        W45253  38.943  23.695  12.453
72928W        W45254   3.234  22.745  14.828
72929W        W45255  34.404  43.461  14.314
72930W        W45256  21.533  37.923  10.997
72931W        W45257  19.266  18.210  11.081
72932W        W45258  21.068  17.295  14.380
72933W        W45259  10.752  11.162  13.307
72934W        W45260  16.643  37.834  10.463
72935W        W45261  37.901  28.500   3.846
72936W        W45262  31.613  42.455  11.903
72937W        W45263  33.963  18.557   1.881
72938W        W45264  41.444  41.912   4.245
72939W        W45265  27.197  10.672   0.958
72940W        W45266   0.480   0.935   1.747
72941W        W45267   1.965  30.002   3.674
72942W        W45268  33.541   4.276  10.543
72943W        W45269  38.824   7.692   0.737
72944W        W45270   7.309  36.891   2.740
72945W        W45271  33.562  18.778   4.141
72946W        W45272  40.450  16.156  14.013
72947W        W45273  34.500   1.353  10.963
72948W        W45274   7.388  44.922  14.440
72949W        W45275   5.739  35.571   0.463
72950W        W45276  18.197  18.753   0.411
72951W        W45277  21.685  17.287   3.151
72952W        W45278  22.075  18.624   2.400
72953W        W45279  35.924  12.658   2.183
72954W        W45280  34.512   5.241  10.503
72955W        W45281  25.996  41.352   2.408
72956W        W45282   8.828  43.410   2.666
72957W        W45283  33.906  17.561  10.552
72958W        W45284  20.654  26.690  13.963
72959W        W45285   5.419   2.394  12.515
72960W        W45286   9.838   7.894   4.248
72961W        W45287  42.523  32.895  11.076
72962W        W45288  20.059  38.463  12.405
72963W        W45289  31.606   9.386   4.759
72964W        W45290  23.651   8.276   1.412
72965W        W45291   9.809  38.047   0.757
72966W        W45292   9.247   1.733   0.754
72967W        W45293  28.622  18.289   1.341
72968W        W45294   8.690  36.079  11.524
72969W        W45295  32.578  20.095   0.320
72970W        W45296  43.298  27.633   3.304
72971W        W45297   0.831   5.341   4.179
72972W        W45298  33.874  15.177   3.633
72973W        W45299  42.817  38.005   0.729
72974W        W45300  38.567   6.272  13.811
72975W        W45301   5.890   2.365  13.946
72976W        W45302  40.992  42.502   1.929
72977W        W45303  33.438   5.437   2.662
72978W        W45304  15.157   5.740  14.892
72979W        W45305  16.729  39.850  11.056
72980W        W45306   5.362  29.427  12.371
72981W        W45307  16.773   6.803   0.839
72982W        W45308  19.223   4.826  12.448
72983W        W45309  40.458   8.840   2.311
72984W        W45310  16.307  12.312   2.883
72985W        W45311  29.448  23.114   3.674
72986W        W45312  14.626  24.662  12.961
72987W        W45313  41.929  10.149   4.719
72988W        W45314  38.928  35.878  10.615
72989W        W45315  12.778  44.364   1.247
72990W        W45316  41.964  17.623  10.441
72991W        W45317   8.364   7.846  14.945
72992W        W45318   0.865  18.164  14.904
72993W        W45319  40.308   0.461   2.766
72994W        W45320  34.979  31.410   1.375
72995W        W45321  26.473  16.650   1.799
72996W        W45322   8.819  39.440  13.454
72997W        W45323  16.628  14.636   0.354
72998W        W45324  40.891  39.432   4.759
72999W        W45325   3.895  17.587   2.759
73000W        W45326  31.027  34.110  10.462
73001W        W45327   5.422  14.251  12.064
73002W        W45328  42.523  10.140   0.872
73003W        W45329   1.370  23.591  10.494
73004W        W45330   6.900  29.669  14.323
73005W        W45331   7.895  12.309   1.265
73006W        W45332  27.961  11.179  11.868
73007W        W45333  16.632  37.532   2.349
73008W        W45334  44.298  21.560   4.344
73009W        W45335   7.267  43.780   2.348
73010W        W45336  33.486  43.995  11.018
73011W        W45337   3.278  26.563   4.174
73012W        W45338  13.278   5.918   3.246
73013W        W45339  30.164  23.095   0.411
73014W        W45340  14.301  37.487  14.495
73015W        W45341  21.549  16.587   3.178
73016W        W45342  26.176  33.116   4.667
73017W        W45343  44.444  13.669  10.515
73018W        W45344   2.934   9.658   5.696
73019W        W45345   0.963  31.610   0.442
73020W        W45346  30.132   6.183   0.420
73021W        W45347  43.916   6.915  10.907
73022W        W45348   7.181   4.232   1.311
73023W        W45349  32.887  13.815  13.421
73024W        W45350  10.227  40.017  12.371
73025W        W45351  20.727  16.164   1.282
73026W        W45352  21.120  32.976  13.060
73027W        W45353  40.466  22.102   1.915
73028W        W45354   3.953  26.069   3.149
73029W        W45355   7.200  28.062  11.865
73030W        W45356  15.808  43.943  14.352
73031W        W45357  19.228  13.812  14.342
73032W        W45358  41.810  35.465   3.769
73033W        W45359   6.257   4.909   4.313
73034W        W45360  33.932  39.345  14.411
73035W        W45361  38.912   2.441  14.887
73036W        W45362   6.303  29.952   4.711
73037W        W45363  20.150   2.238   3.714
73038W        W45364   3.375  29.500   0.322
73039W        W45365   0.745  19.730   0.256
73040W        W45366  40.416  30.598   3.198
73041W        W45367  44.863   8.336   4.321
73042W        W45368  37.576   3.353   1.885
73043W        W45369  30.073  19.101   0.442
73044W        W45370  25.567  12.845  11.924
73045W        W45371   6.361  16.289  12.393
73046W        W45372  23.083  42.023   2.745
73047W        W45373   9.786  19.688   5.200
73048W        W45374  36.039  41.849   4.685
73049W        W45375   2.449  34.443  14.969
73050W        W45376  12.308  17.756   0.955
73051W        W45377  12.205  39.944  10.993
73052W        W45378  24.620   4.306   1.410
73053W        W45379  32.995  16.168  13.894
73054W        W45380   3.905  43.347  11.566
73055W        W45381  26.641  44.269  14.362
73056W        W45382  30.596  41.449   2.667
73057W        W45383   4.856  16.734  14.925
73058W        W45384   7.716   7.390  12.549
73059W        W45385  16.803  26.486  11.108
73060W        W45386  17.696  44.352  12.518
73061W        W45387  35.065   4.354  14.784
73062W        W45388  35.460   2.880   3.334
73063W        W45389  37.551  44.427  13.944
73064W        W45390  11.854  18.067   5.205
73065W        W45391  37.355  30.048  14.940
73066W        W45392  18.115  31.529   2.798
73067W        W45393  44.993  22.705   4.709
73068W        W45394  40.519   7.746   4.646
73069W        W45395  39.412  12.716   0.793
73070W        W45396   2.758  20.087  14.975
73071W        W45397   6.749  15.818   4.639
73072W        W45398  14.148  32.419   1.411
73073W        W45399  20.207  37.412  13.929
73074W        W45400  44.819   0.778  14.972
73075W        W45401  43.948  27.001   2.355
73076W        W45402  29.423  22.619   2.673
73077W        W45403  39.328  19.586   4.175
73078W        W45404  30.986   3.435  11.576
73079W        W45405  27.004  42.426  13.529
73080W        W45406  10.265  30.461  14.961
73081W        W45407  33.030  42.835   2.696
73082W        W45408  42.502   7.268   0.791
73083W        W45409  37.084  43.783   2.392
73084W        W45410   4.773  26.558   3.361
73085W        W45411   7.803  40.970   4.261
73086W        W45412  16.576  27.098   4.245
73087W        W45413  30.589  15.767  12.947
73088W        W45414  32.037  40.471  12.902
73089W        W45415  36.429  42.971   2.268
73090W        W45416   4.783  14.314  11.908
73091W        W45417   6.809  28.131   3.172
73092W        W45418  38.997   4.711   4.597
73093W        W45419  20.529  33.470   0.843
73094W        W45420  15.096  32.963   1.782
73095W        W45421  40.952   6.791  11.610
73096W        W45422   8.191   5.846   0.354
73097W        W45423  44.502  41.978   3.252
73098W        W45424   3.405  15.278  13.330
73099W        W45425   8.840   9.793  13.488
73100W        W45426  24.997  17.083  11.956
73101W        W45427  30.467  17.184  13.907
73102W        W45428   4.813  11.820  11.994
73103W        W45429  41.991  43.880  11.437
73104W        W45430  43.397  43.274  13.443
73105W        W45431   2.349   9.234  12.041
73106W        W45432  30.556  37.371  12.561
73107W        W45433  20.095  14.249  13.978
73108W        W45434  26.011  33.042   0.354
73109W        W45435  27.071  25.053   2.778
73110W        W45436   8.678   8.832  13.424
73111W        W45437  26.646  10.198  13.396
73112W        W45438  17.296  17.069  11.481
73113W        W45439  10.211  39.489  11.544
73114W        W45440  11.216  15.151   4.202
73115W        W45441  19.551  35.996  13.969
73116W        W45442  32.439  36.873  11.488
73117W        W45443   0.772  28.475  13.522
73118W        W45444  41.921  35.466  12.017
73119W        W45445  12.196  13.159   1.364
73120W        W45446  39.517  28.170   0.361
73121W        W45447   4.878  28.993   3.772
73122W        W45448  25.515  38.002  14.281
73123W        W45449   4.246  30.527  12.363
73124W        W45450  18.602   1.422  13.525
73125W        W45451  30.094  11.724   0.768
73126W        W45452  37.849   4.734  14.766
73127W        W45453  27.565   5.234  14.377
73128W        W45454  26.675  22.720  11.537
73129W        W45455  39.437  18.273  14.427
73130W        W45456  15.730  33.961  10.490
73131W        W45457  14.303  14.605   4.708
73132W        W45458  35.361  42.843   2.408
73133W        W45459  35.450  27.158  10.541
73134W        W45460  21.642  41.495   9.986
73135W        W45461   1.437  34.054  12.453
73136W        W45462  37.455  35.873  10.133
73137W        W45463  42.292  42.390   4.286
73138W        W45464  39.829   0.308   3.161
73139W        W45465  10.243  12.768  11.455
73140W        W45466  11.821   0.362   1.371
73141W        W45467   6.356   4.266  13.835
73142W        W45468   0.869   4.211   2.282
73143W        W45469   2.415  41.972  14.985
73144W        W45470  32.636  11.776  14.511
73145W        W45471  13.737  33.927  10.596
73146W        W45472  23.230  20.131  13.904
73147W        W45473  44.298  20.680   1.918
73148W        W45474  19.170  29.523   0.943
73149W        W45475   2.257  40.905   3.766
73150W        W45476  26.960   4.395   0.790
73151W        W45477   2.809  41.841  14.393
73152W        W45478  24.211  28.998  14.508
73153W        W45479  23.710  17.771   3.702
73154W        W45480  28.131   8.252  10.551
73155W        W45481   5.265  44.429   2.713
73156W        W45482   2.420  33.874  11.866
73157W        W45483  43.499  25.614  10.428
73158W        W45484  42.310  14.678   1.274
73159W        W45485   7.402  25.633   1.380
73160W        W45486  16.744   6.267   1.821
73161W        W45487  18.670  37.903  11.938
73162W        W45488  33.908  18.551  10.908
73163W        W45489  43.941  21.612   4.822
73164W        W45490  12.188  11.205   3.344
73165W        W45491  39.022  18.271   4.160
73166W        W45492  17.292  41.953  14.490
73167W        W45493  21.627  38.853  13.455
73168W        W45494  15.758  28.485  13.875
73169W        W45495  25.566   7.236   3.729
73170W        W45496   1.916  34.935  10.538
73171W        W45497  40.917  33.911   2.754
73172W        W45498   3.909  26.646  13.456
73173W        W45499  42.033   7.817  12.878
73174W        W45500  39.320  28.590  13.533
73175W        W45501  29.448  10.852  11.579
73176W        W45502  31.060  39.041   4.630
73177W        W45503  29.576   2.468   1.246
73178W        W45504   7.851  37.998  13.510
73179W        W45505  43.441  10.830   4.735
73180W        W45506  43.395  20.118  11.106
73181W        W45507  43.908  41.535   1.275
73182W        W45508  34.387  11.361  10.472
73183W        W45509  28.003  31.135   4.166
73184W        W45510   9.238  24.048   2.419
73185W        W45511  20.629   8.394   0.745
73186W        W45512  18.078  42.508   2.735
73187W        W45513  37.447  29.963   0.959
73188W        W45514  10.831   4.289  14.385
73189W        W45515  29.504   5.382  10.536
73190W        W45516  16.799   7.260   4.820
73191W        W45517  33.419  29.101  10.983
73192W        W45518  32.918  36.019  10.467
73193W        W45519  36.979  25.117  13.384
73194W        W45520  14.104  18.131  14.797
73195W        W45521  25.584  35.495  13.416
73196W        W45522  35.103  42.854  12.998
73197W        W45523   5.714  34.108   2.895
73198W        W45524  13.805  42.465   0.753
73199W        W45525  40.503   6.343   4.145
73200W        W45526  44.298  31.518  13.844
73201W        W45527  34.549   7.198   4.654
73202W        W45528  26.059  10.754   1.268
73203W        W45529   4.875  18.603  14.320
73204W        W45530  30.570  40.533   2.238
73205W        W45531  20.049  16.713  14.951
73206W        W45532   6.363  37.492  13.942
73207W        W45533  35.587  39.337  12.393
73208W        W45534  33.521  21.757   0.765
73209W        W45535  38.913  41.498  13.365
73210W        W45536  11.287  16.764   3.811
73211W        W45537  44.850  20.627   1.808
73212W        W45538  33.387  43.793  10.583
73213W        W45539  39.054  29.593  10.500
73214W        W45540  38.068   0.835   2.688
73215W        W45541  30.107  41.035  11.078
73216W        W45542   8.330   5.856  12.826
73217W        W45543  34.087  44.936   1.294
73218W        W45544  41.882   7.734  10.496
73219W        W45545  32.127   5.920   0.914
73220W        W45546  21.538  14.210   5.168
73221W        W45547   6.868  27.002   3.242
73222W        W45548  39.060  36.503   3.245
73223W        W45549  37.444  22.157  10.976
73224W        W45550  15.657  23.615   1.267
73225W        W45551  29.169  41.425   4.615
73226W        W45552  28.156   2.856  14.929
73227W        W45553  32.043   9.844   4.163
73228W        W45554  34.947  21.755   1.834
73229W        W45555  25.161   7.864  14.426
73230W        W45556   1.904   9.223   0.250
73231W        W45557  22.644   9.766  11.482
73232W        W45558  25.969  41.496   3.241
73233W        W45559  27.542  25.562   3.870
73234W        W45560  35.958  33.048   9.944
73235W        W45561  42.779  30.134  12.401
73236W        W45562   3.453  27.601   1.336
73237W        W45563  36.536   6.324  11.884
73238W        W45564  10.164  42.360  11.436
73239W        W45565  35.466  42.022  11.966
73240W        W45566   6.198  36.001  14.514
73241W        W45567   0.445   9.237  12.472
73242W        W45568  30.472   8.859   3.232
73243W        W45569   8.222  26.085   1.305
73244W        W45570   1.966  18.162  13.993
73245W        W45571   2.369  12.193   5.177
73246W        W45572  34.876   2.258   0.951
73247W        W45573  11.282  17.654   0.899
73248W        W45574   3.946   4.219  11.073
73249W        W45575  10.288  38.533  13.461
73250W        W45576  22.197   7.383  12.380
73251W        W45577  32.086  37.543   4.297
73252W        W45578  24.106  32.916   4.775
73253W        W45579  24.044   3.927   3.707
73254W        W45580  28.955  12.818  14.831
73255W        W45581  33.506  20.676  12.021
73256W        W45582  21.659  26.565  10.096
73257W        W45583  14.814  11.244   1.256
73258W        W45584  23.631   7.737   2.667
73259W        W45585  32.900  44.917   2.853
73260W        W45586  32.121  26.200   3.634
73261W        W45587  27.140   7.676   1.417
73262W        W45588  32.491   1.752   0.294
73263W        W45589   9.817   4.407   4.180
73264W        W45590  24.150  36.037  10.617
73265W        W45591   0.876  26.696  10.445
73266W        W45592   1.969  24.642   4.252
73267W        W45593   7.341  20.626   2.224
73268W        W45594   1.387  40.934   3.387
73269W        W45595  34.912   5.299  11.998
73270W        W45596  25.529   7.774   3.259
73271W        W45597  15.756  12.664   4.321
73272W        W45598  25.643  35.860  10.101
73273W        W45599  33.128  13.650   3.351
73274W        W45600   8.824  38.067   2.707
73275W        W45601   3.841   8.754  14.382
73276W        W45602  16.085   7.408   3.199
73277W        W45603  20.096  41.492   2.216
73278W        W45604   9.176  15.127   2.759
73279W        W45605  10.292  42.334   3.677
73280W        W45606  37.562  16.122   2.248
73281W        W45607   4.260  12.744   3.216
73282W        W45608   9.805  39.919   4.340
73283W        W45609  23.492  32.143   4.624
73284W        W45610  36.405   1.740  12.026
73285W        W45611  12.121  40.480   4.272
73286W        W45612  32.545  16.302  12.543
73287W        W45613  27.065  40.885   2.762
73288W        W45614  39.816  25.662  11.478
73289W        W45615  42.885  44.819  13.417
73290W        W45616  42.426  29.160   1.769
73291W        W45617  39.838  37.571  12.882
73292W        W45618   2.310  33.078  10.889
73293W        W45619  18.281  19.069   1.923
73294W        W45620  18.775  31.110   1.928
73295W        W45621   6.798  25.153   3.646
73296W        W45622   4.406  17.232   0.480
73297W        W45623  23.059  11.205  14.941
73298W        W45624   2.746   5.199  11.896
73299W        W45625  12.289  36.925  10.930
73300W        W45626  22.154  16.709  11.534
73301W        W45627  43.973  36.006  10.547
73302W        W45628   6.350  41.808  10.611
73303W        W45629   6.766   0.349   3.745
73304W        W45630  20.151  33.003  14.809
73305W        W45631   6.850  13.684  10.603
73306W        W45632   0.811  10.742   0.785
73307W        W45633  38.566   2.413   1.345
73308W        W45634   6.314  11.181  14.913
73309W        W45635  23.502  24.544  12.051
73310W        W45636  38.890  29.151   2.334
73311W        W45637  35.871  36.472   2.178
73312W        W45638  39.935  16.296   4.767
73313W        W45639  10.674  27.062  14.820
73314W        W45640  19.766  10.383  11.080
73315W        W45641  13.146  42.336   3.324
73316W        W45642   9.686  28.127   0.254
73317W        W45643   2.392  31.983  13.484
73318W        W45644  23.575  16.570  14.780
73319W        W45645  11.696  26.110   3.830
73320W        W45646   7.800  15.682  11.606
73321W        W45647  28.070  25.698   1.902
73322W        W45648   3.282  21.037  13.384
73323W        W45649   4.305  30.488   1.786
73324W        W45650  18.760  26.545   4.339
73325W        W45651   4.368   1.748   0.316
73326W        W45652  15.158  28.996  13.900
73327W        W45653  11.158  43.512  14.005
73328W        W45654  37.060   0.277  11.393
73329W        W45655  20.571  42.461   3.373
73330W        W45656   6.763  39.479   4.193
73331W        W45657  15.327  26.489  10.577
73332W        W45658   1.398  42.407   1.220
73333W        W45659  19.057  37.878   1.449
73334W        W45660  19.680  33.399   2.705
73335W        W45661  43.861  29.129  13.315
73336W        W45662  33.623  30.480   4.179
73337W        W45663  28.518  18.637  13.401
73338W        W45664  34.448  14.176   0.455
73339W        W45665  40.015  17.142  14.503
73340W        W45666  14.828  27.676  10.585
73341W        W45667  39.475  35.402   2.299
73342W        W45668  13.803  42.977  10.909
73343W        W45669  44.394  16.110   1.364
73344W        W45670  43.871   3.779   3.294
73345W        W45671   0.911   8.259  11.122
73346W        W45672  35.877  43.416   3.237
73347W        W45673  11.305  23.156   0.424
73348W        W45674  40.415   9.324   0.744
73349W        W45675  14.752  38.525   4.745
73350W        W45676   1.354  43.806  10.923
73351W        W45677  20.613  43.442   3.851
73352W        W45678  27.524   1.768  12.451
73353W        W45679  41.381  30.928   3.155
73354W        W45680  32.942  15.262  14.289
73355W        W45681  19.739   5.744   3.280
73356W        W45682  35.938  15.089   3.328
73357W        W45683  43.309  36.043  10.129
73358W        W45684  27.455  22.623   4.653
73359W        W45685  37.418  13.816   2.349
73360W        W45686  34.460  37.847   2.682
73361W        W45687   6.783  25.523   2.330
73362W        W45688  33.029  32.398   4.305
73363W        W45689  20.075   4.936   4.136
73364W        W45690   3.883  23.637   3.147
73365W        W45691  42.784  30.608  11.065
73366W        W45692  29.506   0.932   1.279
73367W        W45693  15.123  38.367   4.146
73368W        W45694  29.938   3.759   1.328
73369W        W45695  11.339   9.875  13.459
73370W        W45696   1.956  40.823  14.865
73371W        W45697  33.902  13.646   2.306
73372W        W45698   6.750   6.860   3.195
73373W        W45699  25.107  10.678   1.737
73374W        W45700  20.030  15.300  12.059
73375W        W45701   9.208  30.552   4.625
73376W        W45702  28.435  11.274  13.820
73377W        W45703   6.682  35.572   0.354
73378W        W45704  25.011  29.947  13.504
73379W        W45705   6.345  14.249  12.058
73380W        W45706  31.587   6.290   4.770
73381W        W45707  44.321  24.709  10.634
73382W        W45708   3.214   9.688  13.964
73383W        W45709  37.948   7.211   4.733
73384W        W45710  14.750   6.887   2.809
73385W        W45711   0.250  14.255  13.419
73386W        W45712  23.045  39.942   0.903
73387W        W45713  28.607  14.138  10.445
73388W        W45714  24.479   6.361  14.341
73389W        W45715   6.358   7.270  12.877
73390W        W45716  29.061  16.613  14.793
73391W        W45717  42.356   4.860  13.324
73392W        W45718  17.303  28.618  13.978
73393W        W45719  22.555  14.150   5.266
73394W        W45720  35.491  17.713  12.453
73395W        W45721  34.421  13.157   1.911
73396W        W45722  15.692   0.859  11.907
73397W        W45723  29.565  40.971   1.368
73398W        W45724  15.637  28.564   0.371
73399W        W45725  44.386  22.576   1.708
73400W        W45726  24.097  14.729  14.793
73401W        W45727   4.306   1.869  13.061
73402W        W45728  10.145  20.197   3.840
73403W        W45729  32.992  37.449   2.372
73404W        W45730  33.624  32.898  11.979
73405W        W45731  23.525  36.576   1.821
73406W        W45732  22.742  22.593  10.513
73407W        W45733  20.038   7.190   3.755
73408W        W45734  11.148  25.107  11.412
73409W        W45735  27.666  40.973  10.410
73410W        W45736  31.152  13.632   1.905
73411W        W45737  43.457  39.890   2.307
73412W        W45738  13.199  25.999  10.906
73413W        W45739   1.770  39.552  13.389
73414W        W45740  24.516   7.361  13.494
73415W        W45741   4.417   3.905   0.874
73416W        W45742  21.054  36.042   3.313
73417W        W45743   0.823  16.155   2.862
73418W        W45744  27.452  34.430  14.477
73419W        W45745  22.031  22.530  13.476
73420W        W45746  19.177  17.558   3.200
73421W        W45747   5.350  33.035   0.446
73422W        W45748  15.313  24.672   0.476
73423W        W45749  28.654  20.632   2.219
73424W        W45750   4.937  36.995  14.387
73425W        W45751  41.807  41.897   0.836
73426W        W45752  44.805  24.628   3.821
73427W        W45753   4.269  26.611   2.290
73428W        W45754  15.811   8.718   2.329
73429W        W45755  13.315   7.188   0.377
73430W        W45756  24.537  19.208   0.740
73431W        W45757  16.627  13.284  11.860
73432W        W45758  13.229  26.118  13.451
73433W        W45759  42.891  44.808  14.822
73434W        W45760  28.944  11.338  13.368
73435W        W45761  39.526   7.746  13.444
73436W        W45762  42.896  39.452  14.471
73437W        W45763  34.876  35.549   3.288
73438W        W45764  20.179  22.732  11.393
73439W        W45765   9.861  18.089   2.806
73440W        W45766  11.213  36.918  13.319
73441W        W45767  39.342   0.249   1.406
73442W        W45768  34.379  35.597  13.547
73443W        W45769  32.079  37.922  13.379
73444W        W45770   7.740  43.417   1.834
73445W        W45771  16.234  11.360  14.825
73446W        W45772  22.224  17.569  12.056
73447W        W45773  13.215  12.304  11.047
73448W        W45774  27.085  21.553   4.298
73449W        W45775   2.802  29.154  11.102
73450W        W45776   4.432  14.633  13.798
73451W        W45777  24.482  17.743   4.603
73452W        W45778   9.687  31.928   3.821
73453W        W45779  34.428  19.650  14.439
73454W        W45780   2.298   6.315   0.815
73455W        W45781   5.410  18.162  11.036
73456W        W45782  18.670  22.569   4.839
73457W        W45783  10.820  27.528  12.358
73458W        W45784  25.990  40.348   0.282
73459W        W45785  16.151  19.604   3.848
73460W        W45786  32.911  44.276   0.808
73461W        W45787  11.650  13.238   4.310
73462W        W45788   7.830   6.726   4.685
73463W        W45789   9.306  25.483   0.901
73464W        W45790  35.514  17.180   3.276
73465W        W45791   8.359  31.618   0.246
73466W        W45792  38.371  24.678  13.420
73467W        W45793  37.076  23.570  11.916
73468W        W45794  12.169  28.124  11.549
73469W        W45795  44.393  42.974  14.366
73470W        W45796  17.133  37.904   0.876
73471W        W45797   0.914   2.309   4.222
73472W        W45798   6.202  29.480   5.176
73473W        W45799  42.522  26.553  14.449
73474W        W45800  27.165  44.866   3.824
73475W        W45801  14.632  13.138   0.317
73476W        W45802  11.715  25.000   0.791
73477W        W45803  38.901   2.840  12.009
73478W        W45804  36.350  26.064  11.586
73479W        W45805  40.369  27.466   2.850
73480W        W45806  25.566   2.425   2.760
73481W        W45807   2.920  31.084   2.235
73482W        W45808   5.367  18.222  12.486
73483W        W45809   0.967  43.012  10.436
73484W        W45810  35.534  19.283   1.433
73485W        W45811  33.540  30.102   2.901
73486W        W45812  43.906   5.421   2.221
73487W        W45813   5.249  41.477  12.420
73488W        W45814  26.138   4.856   0.801
73489W        W45815  19.727   4.726  11.059
73490W        W45816  13.120  38.853   0.959
73491W        W45817  40.955  32.044  13.001
73492W        W45818   8.388  26.163  13.955
73493W        W45819   4.811   6.203  11.467
73494W        W45820   5.790  28.636  10.473
73495W        W45821  27.596  11.341   3.275
73496W        W45822  38.067   1.823  11.609
73497W        W45823   9.823  38.907  12.572
73498W        W45824  13.326  43.861   4.632
73499W        W45825  22.172   8.784  14.895
73500W        W45826  32.478  24.220  13.885
73501W        W45827   5.337  20.081  13.026
73502W        W45828  19.042   1.847   2.694
73503W        W45829   4.903  25.481   2.746
73504W        W45830  15.226   4.441  14.923
73505W        W45831  17.784  12.233  14.360
73506W        W45832  41.926   5.397  13.337
73507W        W45833  35.007  17.282   1.361
73508W        W45834  21.180   7.259   3.662
73509W        W45835  11.701   3.893  10.481
73510W        W45836  22.059  13.348  12.933
73511W        W45837  29.990  42.485  10.535
73512W        W45838  39.834  30.519   2.361
73513W        W45839  38.864  18.097  11.042
73514W        W45840   0.864  43.974  11.611
73515W        W45841  11.666  22.033   2.679
73516W        W45842  24.144  36.894   0.887
73517W        W45843  36.403   4.779   2.877
73518W        W45844  42.807  28.183   2.883
73519W        W45845  12.341  31.631  10.487
73520W        W45846   2.398  31.478  14.470
73521W        W45847  37.574  19.540  13.888
73522W        W45848  16.705  31.639  14.335
73523W        W45849  35.598  10.733   2.690
73524W        W45850  29.020  30.568  11.985
73525W        W45851  15.654  19.590   3.741
73526W        W45852  28.434  40.464   1.850
73527W        W45853   3.271  15.304   2.679
73528W        W45854  24.162  24.973  13.899
73529W        W45855  11.208  19.079  14.426
73530W        W45856  11.287  36.074  11.455
73531W        W45857  16.265  21.547   0.247
73532W        W45858  16.700  30.058  13.948
73533W        W45859  31.116  21.543   4.770
73534W        W45860  31.642  17.617   0.289
73535W        W45861  17.237   5.438   0.377
73536W        W45862  37.049  35.565   0.364
73537W        W45863   9.325  40.835  12.952
73538W        W45864   9.767   1.475  14.851
73539W        W45865   6.736  41.454   1.218
73540W        W45866   8.822   2.756   1.909
73541W        W45867  27.150  23.523  11.466
73542W        W45868  21.649  30.092   2.366
73543W        W45869  14.327  44.907   4.772
73544W        W45870  35.447  30.054  14.968
73545W        W45871  10.164  21.753  12.392
73546W        W45872  39.329   7.175  14.442
73547W        W45873  38.334  37.925   0.875
73548W        W45874   2.776  35.028  10.947
73549W        W45875  34.448   9.798   3.870
73550W        W45876   5.734   1.822   4.177
73551W        W45877  19.534  36.360  11.116
73552W        W45878  40.913  30.036   0.805
73553W        W45879   7.890  42.335   1.350
73554W        W45880  31.995  22.553   2.772
73555W        W45881  43.301   6.854   2.399
73556W        W45882  40.366   0.764   1.288
73557W        W45883  24.007   7.754  11.902
73558W        W45884  14.307  18.230  14.436
73559W        W45885  19.733  26.103   0.373
73560W        W45886  38.852  19.143   0.439
73561W        W45887  42.474  22.159   1.814
73562W        W45888  42.866   3.892   0.447
73563W        W45889  23.196  33.625   2.851
73564W        W45890  25.128  29.498   0.368
73565W        W45891  18.243  30.646   1.769
73566W        W45892  28.964   3.361   1.359
73567W        W45893  28.050  18.204   3.330
73568W        W45894  20.586  16.191  12.435
73569W        W45895   2.876  25.973   0.350
73570W        W45896   1.473  24.176  11.982
73571W        W45897  17.247  32.117   2.333
73572W        W45898  14.662  11.340  14.993
73573W        W45899  15.732  43.860   5.177
73574W        W45900  25.967  29.939  11.084
73575W        W45901   4.795  32.465   2.322
73576W        W45902  18.604  28.640  11.034
73577W        W45903  41.415   0.950   1.384
73578W        W45904  30.523  19.169   4.317
73579W        W45905  25.122   0.414  13.475
73580W        W45906  24.614  22.077   4.730
73581W        W45907  14.623  14.701   4.635
73582W        W45908  27.040  44.432  14.816
73583W        W45909   7.690  39.874  12.562
73584W        W45910  34.986  28.970  14.031
73585W        W45911  36.072  37.494   0.947
73586W        W45912  35.581  29.555   1.797
73587W        W45913  40.528   5.387  12.947
73588W        W45914   7.323  15.149  10.979
73589W        W45915  15.271  23.680  12.022
73590W        W45916   2.262  19.083   0.879
73591W        W45917  31.989  29.972  13.856
73592W        W45918  13.172  30.419   4.648
73593W        W45919  35.437  33.619   3.250
73594W        W45920  36.969  10.182   0.827
73595W        W45921  32.541   8.731   2.772
73596W        W45922  28.161   3.720  11.905
73597W        W45923  42.797  41.940   2.742
73598W        W45924  39.421  42.358  13.439
73599W        W45925  12.633  29.663  14.982
73600W        W45926  30.542  44.884   1.704
73601W        W45927   9.331  36.562  11.609
73602W        W45928  16.229  32.454  12.015
73603W        W45929   3.453  12.141  12.968
73604W        W45930  17.636  44.397   3.855
73605W        W45931   6.382  33.917  13.388
73606W        W45932  12.786  17.737   3.291
73607W        W45933  29.559  38.407  11.489
73608W        W45934  33.927  13.207  14.420
73609W        W45935  13.255  21.251  14.819
73610W        W45936   5.901  27.976   2.383
73611W        W45937  39.961   5.292  11.028
73612W        W45938  11.733  18.583   3.811
73613W        W45939  21.246  22.727   0.847
73614W        W45940   8.700  13.696  14.301
73615W        W45941  13.657  23.040   2.379
73616W        W45942   8.206  28.032   1.829
73617W        W45943  14.185  17.249   4.152
73618W        W45944  42.455  16.578   3.231
73619W        W45945   7.770  44.275   0.777
73620W        W45946  12.178  21.231  14.842
73621W        W45947   1.441   8.301  12.368
73622W        W45948  24.228   8.875  14.365
73623W        W45949  22.736  19.550   1.269
73624W        W45950  20.037  15.287  11.458
73625W        W45951   4.884   3.334   4.695
73626W        W45952  12.124  34.109  13.979
73627W        W45953  42.399  27.525   0.367
73628W        W45954  10.203  20.037  12.440
73629W        W45955  28.593   2.850  13.927
73630W        W45956  43.312  43.844   2.865
73631W        W45957  36.944  38.034   3.230
73632W        W45958  18.772  41.914   0.367
73633W        W45959   8.826  40.888   4.704
73634W        W45960  39.017  43.412  11.967
73635W        W45961  41.357  39.545   4.659
73636W        W45962   3.228  35.927   0.912
73637W        W45963   4.846  27.578  12.076
73638W        W45964   9.347   9.234   4.275
73639W        W45965  32.121  29.584   2.388
73640W        W45966  16.126   5.927   4.695
73641W        W45967  42.916  37.409   4.603
73642W        W45968  37.463  14.661   0.902
73643W        W45969   7.863  28.932   5.177
73644W        W45970  28.997  28.502   4.310
73645W        W45971  32.019  13.242   0.321
73646W        W45972  14.270  24.695   3.782
73647W        W45973   8.727  44.780  12.461
73648W        W45974   2.882  32.524   4.599
73649W        W45975  23.646  25.490  13.358
73650W        W45976  25.642  20.212   0.294
73651W        W45977  22.589  17.637   4.823
73652W        W45978  39.057  30.605  11.425
73653W        W45979  31.950   7.720   3.149
73654W        W45980  22.725  20.127   0.958
73655W        W45981   9.244  19.229   2.698
73656W        W45982  40.368  15.784  14.469
73657W        W45983  36.874   1.347   0.773
73658W        W45984  24.077  42.438  13.426
73659W        W45985  41.976  38.824   0.264
73660W        W45986  15.783  18.157   1.265
73661W        W45987  26.005   7.322   1.268
73662W        W45988  33.997  32.569   0.815
73663W        W45989  12.647  33.901   3.376
73664W        W45990  15.166  23.680  10.449
73665W        W45991  10.786  14.190   0.247
73666W        W45992  18.077  19.703  12.567
73667W        W45993   7.392  31.536  14.960
73668W        W45994  17.643  34.414   0.476
73669W        W45995  22.096  43.280   3.331
73670W        W45996  11.797  25.987  14.890
73671W        W45997   5.421  21.228   2.674
73672W        W45998  35.895   0.779   2.415
73673W        W45999  17.679  10.693  11.003
73674W        W46000   6.299  29.077  13.030
73675W        W46001  38.369  10.153   3.176
73676W        W46002  16.157  30.000  13.958
73677W        W46003  36.556  32.911  11.514
73678W        W46004  18.174  16.191   1.774
73679W        W46005  11.128  19.779  14.025
73680W        W46006   8.312  21.711  12.512
73681W        W46007  18.633  38.405  14.320
73682W        W46008  35.901  34.599   4.155
73683W        W46009  39.952  42.317   3.769
73684W        W46010   2.274  42.366  13.502
73685W        W46011  29.040  18.150   1.769
73686W        W46012  25.485  35.510  10.990
73687W        W46013  20.529  24.053   1.247
73688W        W46014  44.905   5.808   4.123
73689W        W46015  27.675   6.867  14.915
73690W        W46016  40.419  41.354  14.337
73691W        W46017   5.270   5.899  11.406
73692W        W46018   8.277   3.801   2.316
73693W        W46019  32.906   0.267   4.284
73694W        W46020  14.131  34.118   9.535
73695W        W46021  30.049  42.967  11.888
73696W        W46022   2.302  31.508   1.441
73697W        W46023  10.194   2.289  14.762
73698W        W46024  21.547  11.805   0.355
73699W        W46025  15.097  34.487  11.957
73700W        W46026  30.443  38.393   4.316
73701W        W46027  44.389   2.243  12.467
73702W        W46028   2.943   8.312   3.864
73703W        W46029  11.169  44.495  12.014
73704W        W46030  38.834  36.906  11.899
73705W        W46031  20.721   5.320   2.222
73706W        W46032  10.270  20.581   2.297
73707W        W46033  26.972  20.703  11.941
73708W        W46034  21.199   3.378   9.982
73709W        W46035  42.490  10.642  10.645
73710W        W46036  41.886   8.304  11.477
73711W        W46037  14.338  21.587   4.149
73712W        W46038  41.027   6.815   3.721
73713W        W46039  34.110   2.408   2.382
73714W        W46040  21.680  13.709  14.431
73715W        W46041  22.058  38.034  13.521
73716W        W46042   2.963  21.720   5.212
73717W        W46043  35.571  44.929   2.878
73718W        W46044   1.783  21.149   9.584
73719W        W46045  44.379   1.869  12.866
73720W        W46046  27.086  27.674   4.166
73721W        W46047  18.600  39.849  14.814
73722W        W46048   4.228   9.694   3.371
73723W        W46049  35.955  21.117   2.703
73724W        W46050  39.555  18.622   0.781
73725W        W46051   1.475  41.036  10.554
73726W        W46052   7.798  21.696  13.392
73727W        W46053  44.396  20.145   3.306
73728W        W46054  28.558  18.232  13.412
73729W        W46055  17.684  23.593  11.122
73730W        W46056  33.561  15.617  14.962
73731W        W46057  11.633  34.464   2.416
73732W        W46058   7.881  30.451  10.996
73733W        W46059   8.893  40.484  12.862
73734W        W46060   5.199  32.888   1.839
73735W        W46061  34.408   4.852  13.507
73736W        W46062   4.428  34.931  13.333
73737W        W46063   8.728  20.634   0.313
73738W        W46064  32.137  40.961   2.759
73739W        W46065  13.154   4.763  11.480
73740W        W46066  37.369  28.186  11.995
73741W        W46067   2.444  23.112  11.581
73742W        W46068  36.067  38.052  12.998
73743W        W46069  25.080  30.144  11.572
73744W        W46070  20.269   1.369  13.928
73745W        W46071  16.227  12.252   1.872
73746W        W46072  44.896  35.499   1.892
73747W        W46073  10.359  15.169   3.633
73748W        W46074   6.864  14.633  14.461
73749W        W46075   4.421  19.636   2.209
73750W        W46076  37.582   5.776   4.640
73751W        W46077  18.120   1.343   0.926
73752W        W46078  41.936  39.468  12.542
73753W        W46079  23.240  44.342  12.435
73754W        W46080   6.209  34.937   3.668
73755W        W46081  18.729   1.277   1.928
73756W        W46082   6.303  24.134   1.222
73757W        W46083   6.390  14.709   4.818
73758W        W46084  16.714   6.918   4.189
73759W        W46085  40.947  44.829  12.035
73760W        W46086   1.328  10.184   4.717
73761W        W46087  31.460  39.490   3.359
73762W        W46088  12.770  36.900   2.347
73763W        W46089  29.469  16.732  14.819
73764W        W46090  15.326  28.184  11.374
73765W        W46091  28.552  37.524  11.423
73766W        W46092  12.156  28.056  13.539
73767W        W46093   8.241  36.974   0.734
73768W        W46094  39.553  33.892  13.447
73769W        W46095  38.410  22.522  12.567
73770W        W46096  27.648  43.976   1.795
73771W        W46097  36.043  16.240  12.969
73772W        W46098  39.542   6.390  10.517
73773W        W46099  44.394  35.597   3.736
73774W        W46100  41.918  15.785  12.910
73775W        W46101  20.656  23.720   0.380
73776W        W46102  16.263  37.360   2.744
73777W        W46103  35.023  13.297  13.406
73778W        W46104  21.632  29.959   4.301
73779W        W46105  42.022  44.425   3.304
73780W        W46106  16.279   9.176   4.688
73781W        W46107  32.403   0.379   2.680
73782W        W46108  32.989  13.613  14.922
73783W        W46109  14.106  31.038   1.224
73784W        W46110  36.365  11.142   0.726
73785W        W46111  35.109  17.658  11.441
73786W        W46112   3.846   3.917   3.281
73787W        W46113  37.830   2.814  12.380
73788W        W46114   7.848  15.764   3.650
73789W        W46115   0.458   8.280   4.822
73790W        W46116  43.280  21.748  12.967
73791W        W46117  33.386   1.372  11.414
73792W        W46118  29.578  32.404  14.414
73793W        W46119  24.511  35.890  12.549
73794W        W46120  10.233  13.125   0.838
73795W        W46121  20.706   3.898  10.433
73796W        W46122  21.172  29.120   3.164
73797W        W46123  17.207  21.709   1.781
73798W        W46124  38.903  13.685  14.998
73799W        W46125  29.064   2.397  10.457
73800W        W46126  29.478  43.788   1.752
73801W        W46127  34.961  23.161   0.919
73802W        W46128  16.310  25.110   3.859
73803W        W46129  35.459   8.848  11.390
73804W        W46130  26.475  11.665   1.932
73805W        W46131  18.210  24.713   2.668
73806W        W46132   3.847  43.773   4.776
73807W        W46133  21.730  27.071  13.905
73808W        W46134  38.349  31.640  11.106
73809W        W46135   3.778  24.014  10.546
73810W        W46136   5.229  26.989   1.769
73811W        W46137  40.930  40.472   1.450
73812W        W46138  26.112   1.344   0.350
73813W        W46139  23.214  17.761   2.204
73814W        W46140  35.555  36.447  14.330
73815W        W46141  30.072  37.929  10.905
73816W        W46142  42.031  14.625  12.397
73817W        W46143  37.459  42.909   1.931
73818W        W46144  31.539  29.080   1.933
73819W        W46145   7.390  28.537  13.926
73820W        W46146  34.897  40.453  12.420
73821W        W46147  34.073   4.227  14.840
73822W        W46148   8.682   9.847   3.690
73823W        W46149  20.206   6.739  10.443
73824W        W46150  21.718  27.648   1.718
73825W        W46151  25.639  26.953   2.760
73826W        W46152   5.780   0.410  10.934
73827W        W46153   2.369  16.801  11.976
73828W        W46154  29.151  44.811   2.401
73829W        W46155  13.251  12.322  11.472
73830W        W46156  44.494  10.762   0.862
73831W        W46157  16.572  19.552   0.788
73832W        W46158  26.182  33.930  13.422
73833W        W46159  21.191  15.726   1.386
73834W        W46160  15.665  32.096   4.776
73835W        W46161  41.954  21.609  12.856
73836W        W46162  39.823  38.416  11.069
73837W        W46163   6.256  26.506  14.359
73838W        W46164  11.359  18.726   4.214
73839W        W46165   5.689  19.779  12.873
73840W        W46166  11.327  14.687   2.311
73841W        W46167  28.003  44.767   3.362
73842W        W46168  21.721   7.281  10.585
73843W        W46169  38.971  38.338  14.303
73844W        W46170  43.335  34.391   2.745
73845W        W46171  16.305   4.785   2.294
73846W        W46172  10.322  38.952  13.401
73847W        W46173   7.287  42.919   1.773
73848W        W46174  26.620  12.735   4.354
73849W        W46175  38.912  13.325  12.556
73850W        W46176  22.115  23.736  11.949
73851W        W46177  18.767  20.153  13.451
73852W        W46178   4.270  41.027   1.235
73853W        W46179  13.231  13.342   4.725
73854W        W46180  29.569  25.539   4.697
73855W        W46181  15.148  31.402   0.887
73856W        W46182   1.374  12.831   1.722
73857W        W46183  41.007  22.553   0.914
73858W        W46184   9.766  16.100  11.581
73859W        W46185  19.234  36.999  10.539
73860W        W46186  30.466  14.300   0.342
73861W        W46187   5.336  34.907  12.539
73862W        W46188  13.140  26.702   5.716
73863W        W46189  32.956  35.861  13.838
73864W        W46190  29.590   9.708  11.916
73865W        W46191  41.418  40.488  14.012
73866W        W46192  10.186   7.899  13.346
73867W        W46193  40.053  43.323   1.431
73868W        W46194  38.394  37.365  11.019
73869W        W46195  18.158  27.057  12.506
73870W        W46196  19.558  22.694   1.748
73871W        W46197  44.476  27.137   0.479
73872W        W46198   0.784  13.683   2.767
73873W        W46199  32.417  29.925   4.685
73874W        W46200  24.490  23.611   0.306
73875W        W46201  13.623  26.608   9.609
73876W        W46202  41.365  12.203  10.596
73877W        W46203  28.955  26.086   4.207
73878W        W46204   7.778   4.300  12.014
73879W        W46205  43.971  18.719  13.859
73880W        W46206   9.768  23.600   3.700
73881W        W46207  13.653   3.433  13.310
73882W        W46208  38.405  37.557  13.820
73883W        W46209  40.349  12.327  11.045
73884W        W46210  35.021   8.249  10.983
73885W        W46211  28.081  41.442   2.312
73886W        W46212  36.875  34.047   2.258
73887W        W46213   5.363   0.448   4.600
73888W        W46214  17.096  14.265  10.527
73889W        W46215  26.026  13.721  10.888
73890W        W46216  23.535  17.164  14.974
73891W        W46217  33.406   8.159   0.860
73892W        W46218   1.787   3.891   9.985
73893W        W46219  40.361  11.228   2.377
73894W        W46220  22.196  41.484  12.398
73895W        W46221  20.065   2.858  13.962
73896W        W46222  15.760  43.434  14.830
73897W        W46223  38.927  23.562   3.179
73898W        W46224   7.843  19.621  12.844
73899W        W46225  40.933  32.134   4.264
73900W        W46226  18.653  18.766   0.386
73901W        W46227  12.224  34.520   4.749
73902W        W46228   7.348  17.268   4.354
73903W        W46229  30.511   8.288  10.529
73904W        W46230  44.370  40.994   4.177
73905W        W46231  42.376  36.856  12.074
73906W        W46232  23.580  13.654   4.269
73907W        W46233  18.673  25.111   1.751
73908W        W46234  21.172  31.488  10.904
73909W        W46235  42.844  20.674   4.715
73910W        W46236  37.083  16.104   0.396
73911W        W46237   8.350  14.694  14.845
73912W        W46238   5.801   8.784  11.593
73913W        W46239   0.403  28.436   4.158
73914W        W46240  25.557  17.241  10.485
73915W        W46241   5.881   0.984   0.353
73916W        W46242  22.009   1.345  12.013
73917W        W46243  24.186   3.358  12.868
73918W        W46244  26.496  39.914   2.785
73919W        W46245  12.151  32.892  10.459
73920W        W46246  18.623   4.936  11.593
73921W        W46247  18.747  13.707  13.924
73922W        W46248  41.469   2.861   0.852
73923W        W46249   6.838  27.992  12.516
73924W        W46250  38.336  43.367  11.461
73925W        W46251  23.730  39.511  12.883
73926W        W46252  36.996  25.190   1.736
73927W        W46253  35.601  28.102   2.820
73928W        W46254  24.141   1.907   4.225
73929W        W46255  20.749  41.352  13.928
73930W        W46256  40.974   9.312   2.689
73931W        W46257  13.141  36.879   4.698
73932W        W46258   1.294  34.560  12.550
73933W        W46259  40.381  43.418  10.917
73934W        W46260  31.137   6.844   4.679
73935W        W46261  36.007  23.700  12.500
73936W        W46262  28.636  23.133  11.967
73937W        W46263  42.903   2.937  11.982
73938W        W46264  36.420  34.374  11.514
73939W        W46265  33.082   4.922   2.226
73940W        W46266   5.413  22.513   3.315
73941W        W46267  19.216  37.405  12.086
73942W        W46268  39.992  29.927  13.846
73943W        W46269  41.995   2.858  14.970
73944W        W46270  40.858   8.674   1.782
73945W        W46271   9.152  13.807   3.263
73946W        W46272   2.811   9.819  11.997
73947W        W46273  34.609  37.400   2.738
73948W        W46274  44.933  41.986  12.433
73949W        W46275   7.407  20.586   0.294
73950W        W46276   8.369  39.813  14.927
73951W        W46277  34.957   6.304   0.476
73952W        W46278  29.955  31.406   1.733
73953W        W46279  31.909  34.444  11.099
73954W        W46280   1.429  22.019   4.669
73955W        W46281  27.180   6.404  12.944
73956W        W46282  39.037   2.328  13.873
73957W        W46283  25.171  41.907  12.919
73958W        W46284  21.178  40.363   0.729
73959W        W46285  14.706  33.900  14.387
73960W        W46286  23.046   6.806  11.912
73961W        W46287  16.768  35.056  13.367
73962W        W46288  13.144  30.131   0.317
73963W        W46289  29.058  38.532   0.251
73964W        W46290  35.023  28.509  13.056
73965W        W46291  26.527   1.239  11.979
73966W        W46292  14.725  13.757  12.856
73967W        W46293   2.814  29.068  12.927
73968W        W46294  13.130  27.604   2.264
73969W        W46295   4.895   5.193   1.385
73970W        W46296  11.745  16.732  13.410
73971W        W46297  12.273  30.520  10.592
73972W        W46298   6.416  14.168  13.024
73973W        W46299  20.565   8.775   2.221
73974W        W46300  11.843  19.719   5.132
73975W        W46301  13.238  26.126   3.771
73976W        W46302  43.510  41.421   2.851
73977W        W46303  40.401  16.212  13.388
73978W        W46304   2.835  11.808  11.011
73979W        W46305  22.725  24.987  13.985
73980W        W46306  34.018  30.105  13.427
73981W        W46307  36.848  12.713   1.397
73982W        W46308  14.224  39.836   2.896
73983W        W46309   9.361   8.720   4.707
73984W        W46310   6.758  26.590  11.604
73985W        W46311  15.131  32.890   0.747
73986W        W46312  21.664  14.267   3.779
73987W        W46313  43.807   7.290   3.299
73988W        W46314   2.792  35.923  12.544
73989W        W46315  32.491  23.503  14.801
73990W        W46316  44.280  38.443  12.985
73991W        W46317  22.669  30.494   4.295
73992W        W46318  32.600  34.879  11.492
73993W        W46319  32.914  21.654  11.039
73994W        W46320  22.039  18.760  13.392
73995W        W46321  38.974  20.221  12.506
73996W        W46322   2.456  33.990   0.733
73997W        W46323   5.801  40.342   2.194
73998W        W46324  17.148  15.127   2.739
73999W        W46325  39.342  10.640  14.817
74000W        W46326  15.273  12.202   2.268
74001W        W46327  22.602  24.161  13.889
74002W        W46328  12.645   5.887   1.348
74003W        W46329   3.737  26.573   2.315
74004W        W46330  41.953  15.659  13.359
74005W        W46331  43.474  21.564   0.737
74006W        W46332  39.990  27.139  13.891
74007W        W46333  36.955  34.421   3.212
74008W        W46334   1.948  19.091   4.719
74009W        W46335  31.476  41.298  11.949
74010W        W46336   4.898   9.871  12.853
74011W        W46337  38.567  17.684   3.206
74012W        W46338   6.343  19.203  12.527
74013W        W46339  12.350   8.312  13.428
74014W        W46340  35.379  40.819  14.468
74015W        W46341  42.364   4.404  14.026
74016W        W46342  33.431   5.830  14.361
74017W        W46343  22.162  26.665   4.780
74018W        W46344  32.449  38.043   0.258
74019W        W46345  43.900  21.125   0.852
74020W        W46346  35.401  35.906   2.688
74021W        W46347  33.003  42.865   1.272
74022W        W46348  24.557  34.436  11.007
74023W        W46349  38.843   3.922  13.400
74024W        W46350  22.586   7.906  12.439
74025W        W46351  26.585  28.567   4.128
74026W        W46352  29.037   8.369   0.243
74027W        W46353   3.850  15.149  10.450
74028W        W46354  19.601  42.348  13.473
74029W        W46355   2.398  32.521  12.910
74030W        W46356   4.445  40.444  14.765
74031W        W46357   2.290  20.533   3.204
74032W        W46358  44.375  39.917   3.668
74033W        W46359  21.572   6.356   4.294
74034W        W46360  23.624  36.371   3.833
74035W        W46361  15.328  36.998  14.825
74036W        W46362  26.056  22.602   0.311
74037W        W46363  28.664  33.945  12.086
74038W        W46364  10.192   5.817   1.354
74039W        W46365   7.761  28.559   3.317
74040W        W46366   6.766  24.605   3.237
74041W        W46367  30.453  37.905   2.365
74042W        W46368  41.487  34.560   4.184
74043W        W46369  15.217  39.858  12.860
74044W        W46370  27.605   6.826  12.845
74045W        W46371  17.631   4.375   4.714
74046W        W46372   8.192  12.744   2.392
74047W        W46373  12.703  19.770   1.307
74048W        W46374  17.585   2.775  14.812
74049W        W46375  20.233   8.707  10.975
74050W        W46376  21.026  23.518  10.888
74051W        W46377  23.520  37.496  13.026
74052W        W46378   7.796   3.221  11.388
74053W        W46379   5.901   5.910  12.536
74054W        W46380   6.357  36.042  12.534
74055W        W46381  12.257  25.566  11.978
74056W        W46382  40.833  16.214   0.400
74057W        W46383  24.106  22.733  13.386
74058W        W46384   0.933  18.648  12.462
74059W        W46385  22.088  20.223   1.705
74060W        W46386  33.966  19.724   4.232
74061W        W46387  42.946  38.049  13.033
74062W        W46388  24.577   1.853   2.751
74063W        W46389  34.381  39.394  13.841
74064W        W46390  39.485  17.628   1.920
74065W        W46391  34.603  31.136   2.196
74066W        W46392   9.326  38.412  13.872
74067W        W46393  22.591  29.010   1.348
74068W        W46394  17.572  14.185  10.587
74069W        W46395   1.268  13.754   1.736
74070W        W46396  15.125  24.526  14.898
74071W        W46397  35.414  40.857   3.247
74072W        W46398  38.527  31.074   3.737
74073W        W46399  19.178  22.732   0.962
74074W        W46400  23.114  33.620  10.031
74075W        W46401  10.746  35.919  12.845
74076W        W46402  35.515  43.402   1.859
74077W        W46403  13.212   1.839   2.354
74078W        W46404  12.192  42.935  10.943
74079W        W46405  28.010   3.949  13.949
74080W        W46406  13.818  39.044  13.339
74081W        W46407  22.622  25.610   1.314
74082W        W46408  37.084  33.949   9.603
74083W        W46409  17.135  23.545   4.652
74084W        W46410  19.050  43.488  10.560
74085W        W46411  36.887  37.512   0.945
74086W        W46412  38.356  12.328  13.817
74087W        W46413  31.461  33.938   4.737
74088W        W46414  20.749  40.418   3.753
74089W        W46415   7.398  26.093   1.343
74090W        W46416  27.003  21.105   2.213
74091W        W46417  23.018  14.831   3.242
74092W        W46418  12.805   5.437  13.886
74093W        W46419  21.595  10.680  13.889
74094W        W46420   0.830  30.924  14.929
74095W        W46421  33.446  13.801   1.229
74096W        W46422  36.888  22.730  14.911
74097W        W46423   0.967  13.792  12.579
74098W        W46424  39.056  43.272   2.418
74099W        W46425   7.354  34.942   3.241
74100W        W46426   0.451  24.223  14.368
74101W        W46427  29.961  37.865  12.827
74102W        W46428  22.047  35.500  12.474
74103W        W46429  17.071  42.972  10.124
74104W        W46430  25.020  22.659   4.781
74105W        W46431   3.255  29.542   0.739
74106W        W46432  18.151   9.390  12.396
74107W        W46433  17.148   7.876   0.389
74108W        W46434  19.537   5.693   1.441
74109W        W46435  22.998  18.655   2.705
74110W        W46436  40.888  38.998  14.853
74111W        W46437  30.611  32.549  11.421
74112W        W46438  15.311  43.364  10.505
74113W        W46439  31.436  31.974  12.046
74114W        W46440  25.106  17.557   3.836
74115W        W46441  37.414  30.929  14.346
74116W        W46442  36.942  22.675   0.878
74117W        W46443  26.010  11.798   2.798
74118W        W46444  31.608   6.802  11.523
74119W        W46445  34.950  32.141  13.866
74120W        W46446  40.024  10.634   1.842
74121W        W46447  34.370  17.136  12.575
74122W        W46448  39.439  16.118   2.773
74123W        W46449   3.233   2.460  13.869
74124W        W46450   2.876  31.020  11.415
74125W        W46451  16.289  19.576  11.952
74126W        W46452  24.623  37.001   4.780
74127W        W46453  26.117  16.804   3.779
74128W        W46454  13.305  37.502  14.786
74129W        W46455   3.852  31.919   5.220
74130W        W46456  19.640   7.784  13.480
74131W        W46457   0.816   4.246   0.810
74132W        W46458  39.439  12.697   3.163
74133W        W46459  31.583  23.075   1.334
74134W        W46460   9.370  42.926  14.773
74135W        W46461  10.229  13.174  13.403
74136W        W46462  18.243  43.284  11.575
74137W        W46463   4.778  10.757   1.850
74138W        W46464  34.112  15.196   1.726
74139W        W46465   2.776  31.527   0.379
74140W        W46466  14.620  29.977  13.794
74141W        W46467  11.222  38.892   2.418
74142W        W46468  43.458  26.631   1.238
74143W        W46469  12.212  10.833  14.926
74144W        W46470  39.536  38.074   2.835
74145W        W46471  41.922  21.046  13.928
74146W        W46472  28.645  35.498  10.979
74147W        W46473  37.016  22.201   4.803
74148W        W46474  16.231  28.525  13.954
74149W        W46475  32.553  43.944   0.291
74150W        W46476  29.155  36.488  14.845
74151W        W46477  36.585  11.338   1.232
74152W        W46478  17.279  16.149   2.728
74153W        W46479  36.497   5.843  11.007
74154W        W46480  13.777  20.181   3.635
74155W        W46481  24.093  26.035   1.860
74156W        W46482  17.558   4.338   3.365
74157W        W46483  42.429  26.181  12.348
74158W        W46484  41.803  18.726   4.698
74159W        W46485  25.663  37.009  14.463
74160W        W46486   8.864  27.645   4.804
74161W        W46487  28.641  13.755   3.871
74162W        W46488   6.397  16.675   0.337
74163W        W46489  40.448  43.302   4.228
74164W        W46490   2.365  21.594   1.845
74165W        W46491  18.196   2.294  10.529
74166W        W46492  42.288  26.476   4.710
74167W        W46493  41.366   0.411  11.450
74168W        W46494  10.367  33.436   0.953
74169W        W46495  11.737  25.145   4.252
74170W        W46496  20.141  27.063  12.442
74171W        W46497  10.735   0.380   3.378
74172W        W46498   2.813  22.698  12.482
74173W        W46499  10.353  16.237   1.813
74174W        W46500  34.876  19.696   3.272
74175W        W46501  35.577   3.944  12.097
74176W        W46502  26.989  15.620  11.587
74177W        W46503  31.950   7.681  14.491
74178W        W46504  29.048  30.068  12.902
74179W        W46505  29.669   9.257  14.897
74180W        W46506  34.485  25.481  14.450
74181W        W46507  41.438  44.362   0.754
74182W        W46508   2.363  17.558  12.390
74183W        W46509   4.854  19.554   3.350
74184W        W46510  41.938  19.234  14.418
74185W        W46511  23.552   3.295   4.768
74186W        W46512  39.383  30.619  12.852
74187W        W46513  10.178  17.279   5.283
74188W        W46514  15.676  10.194   0.851
74189W        W46515   1.807  42.810  10.619
74190W        W46516  10.727  38.504  14.902
74191W        W46517  31.492  43.454  11.889
74192W        W46518   4.814  35.464   2.881
74193W        W46519  42.343   3.346  10.476
74194W        W46520   2.802  20.602  10.517
74195W        W46521  31.002  17.589  14.977
74196W        W46522  22.663  36.412  14.993
74197W        W46523  43.796   3.950  13.998
74198W        W46524  28.658  18.744   0.917
74199W        W46525  34.922  10.342  10.061
74200W        W46526  43.367  26.974  14.379
74201W        W46527   7.392  39.983  14.373
74202W        W46528   4.891  37.515  14.420
74203W        W46529  40.427  39.876   0.797
74204W        W46530  21.540   2.350  11.879
74205W        W46531  39.998  15.814   4.622
74206W        W46532   8.358   3.739  13.987
74207W        W46533  30.596  30.432   2.812
74208W        W46534  18.149  35.521   4.735
74209W        W46535  37.948  16.283  13.322
74210W        W46536  32.935  11.702   0.342
74211W        W46537  25.137  20.080  13.982
74212W        W46538  44.321  34.595  14.422
74213W        W46539   1.822  22.167  13.405
74214W        W46540  13.125  30.114  13.987
74215W        W46541   5.747  28.550   3.170
74216W        W46542  32.974  35.997   3.741
74217W        W46543  37.832  40.417   0.842
74218W        W46544  30.919  24.996   4.715
74219W        W46545  11.746  27.528  10.888
74220W        W46546  30.629  39.855   2.200
74221W        W46547   5.835  27.641  14.819
74222W        W46548  15.196  14.701   3.323
74223W        W46549   4.368  41.950   4.225
74224W        W46550  11.373  14.609  12.836
74225W        W46551  28.170  25.179   2.687
74226W        W46552  16.769  11.829   2.260
74227W        W46553  16.314  30.613  13.808
74228W        W46554  21.580  18.766  13.921
74229W        W46555  36.479  12.136  10.464
74230W        W46556   3.921   4.851  14.307
74231W        W46557  16.679   7.763  10.973
74232W        W46558  13.153  43.873  13.518
74233W        W46559  36.428  28.105  10.509
74234W        W46560  14.701  14.779  11.905
74235W        W46561  20.183  13.133   3.151
74236W        W46562   1.389  25.097  14.938
74237W        W46563  38.959  39.332   3.276
74238W        W46564   0.769  37.480   2.397
74239W        W46565   3.849  13.651   1.917
74240W        W46566   5.257  44.965   3.674
74241W        W46567  43.800  13.234  10.643
74242W        W46568  17.158  28.068   3.632
74243W        W46569  25.108  15.135  10.612
74244W        W46570  36.366  28.019  14.957
74245W        W46571  23.675  18.654   4.123
74246W        W46572  41.832   5.213   0.779
74247W        W46573  15.741  22.709   1.256
74248W        W46574  11.304   3.865  10.983
74249W        W46575  27.557  31.996   2.842
74250W        W46576   8.723  25.613  11.917
74251W        W46577  24.724  29.929  14.353
74252W        W46578  28.492  36.566   1.760
74253W        W46579   6.858   6.340   3.184
74254W        W46580  44.348  33.923   1.840
74255W        W46581  44.375  16.231  13.022
74256W        W46582   2.920  15.259  11.505
74257W        W46583  12.125   5.277  14.455
74258W        W46584  26.106  42.404   4.833
74259W        W46585  44.884  18.735  13.346
74260W        W46586   2.319   4.927  13.462
74261W        W46587  35.361  36.915  11.058
74262W        W46588  38.509  19.722   4.634
74263W        W46589  27.154  18.708  12.951
74264W        W46590  18.156  14.769   4.728
74265W        W46591   4.355  29.453   3.168
74266W        W46592  39.925  33.019  13.863
74267W        W46593  27.964   5.250   2.364
74268W        W46594  36.568  39.487  14.294
74269W        W46595  44.821  22.104  13.906
74270W        W46596  16.292  27.456   2.759
74271W        W46597  41.512  35.926  10.903
74272W        W46598  43.406  20.617  12.401
74273W        W46599  41.984  40.515   4.331
74274W        W46600  10.256  35.498  13.985
74275W        W46601  13.288  17.607  10.543
74276W        W46602  26.589  31.464   4.114
74277W        W46603  41.390  35.553  13.930
74278W        W46604   8.849  33.387   0.276
74279W        W46605   1.822  16.246   1.278
74280W        W46606  35.994  25.136   1.249
74281W        W46607  44.907   4.234   3.313
74282W        W46608  10.232  36.367   0.914
74283W        W46609   0.924  19.044  10.601
74284W        W46610  32.429  28.673  14.858
74285W        W46611  40.356   6.276   0.469
74286W        W46612  27.976  41.386  12.858
74287W        W46613   3.854  34.604   9.992
74288W        W46614   8.892  13.267   4.283
74289W        W46615  28.608  10.723   0.777
74290W        W46616   1.347  44.963  13.925
74291W        W46617  42.371  44.766  12.489
74292W        W46618  28.137  36.990  12.962
74293W        W46619  33.944   8.721   4.660
74294W        W46620  37.474  19.750  11.495
74295W        W46621  35.412  27.165   3.359
74296W        W46622  23.631  40.462  13.458
74297W        W46623   8.719  13.268   1.720
74298W        W46624  33.018  44.345  12.943
74299W        W46625  20.166  11.798  10.943
74300W        W46626   4.445  11.367   5.279
74301W        W46627  43.824  27.966   4.602
74302W        W46628   8.694   4.208  14.371
74303W        W46629  33.098  33.458  11.430
74304W        W46630  38.014   4.269  14.373
74305W        W46631   5.396   7.890   2.330
74306W        W46632  19.598  32.572   4.323
74307W        W46633   1.311   3.928   4.802
74308W        W46634  27.155   0.921  14.409
74309W        W46635  27.179  24.561   1.352
74310W        W46636  44.959  27.095  11.102
74311W        W46637  30.967  13.169   0.749
74312W        W46638   3.910  10.228   5.091
74313W        W46639  28.030  29.047  12.549
74314W        W46640  18.074  44.839   0.354
74315W        W46641  22.137  17.766  14.482
74316W        W46642  43.332  11.826   3.177
74317W        W46643  37.385  26.150  12.086
74318W        W46644  26.982   9.330   3.260
74319W        W46645  41.974   4.225  12.476
74320W        W46646  12.166  17.676   3.859
74321W        W46647  36.037  37.436  12.834
74322W        W46648  19.205  18.064   1.214
74323W        W46649  32.565   9.675  12.505
74324W        W46650  31.450   5.290  11.575
74325W        W46651  36.902  22.069   2.220
74326W        W46652  15.746   3.297   0.959
74327W        W46653  38.555  14.699  11.595
74328W        W46654  14.627   4.788   1.225
74329W        W46655  15.764  33.094  10.515
74330W        W46656  13.295  11.358   2.670
74331W        W46657  16.569  41.417   3.643
74332W        W46658  11.262  20.218  10.974
74333W        W46659  13.834  28.944  13.858
74334W        W46660   4.869  22.072   0.309
74335W        W46661  30.080  18.233  14.831
74336W        W46662   4.853   9.855   1.700
74337W        W46663   7.789  43.999   4.340
74338W        W46664  29.511   3.793  11.922
74339W        W46665  26.627  26.079   5.662
74340W        W46666  28.158   1.796  13.361
74341W        W46667  10.675  28.640  11.953
74342W        W46668   3.906  10.163  11.867
74343W        W46669   8.723  16.120   2.260
74344W        W46670  34.978   7.302  10.141
74345W        W46671  37.522   9.321   1.925
74346W        W46672   3.309  36.051   0.435
74347W        W46673  29.989  14.112   4.786
74348W        W46674  20.185  42.512   3.147
74349W        W46675   3.303  14.290   1.284
74350W        W46676  32.017  13.680   2.413
74351W        W46677   2.371  42.370   1.894
74352W        W46678  15.208  33.105  14.921
74353W        W46679  22.704  14.737  13.982
74354W        W46680   4.385  28.146   1.355
74355W        W46681  27.636  21.072   2.257
74356W        W46682  15.637   0.853   5.228
74357W        W46683  11.821  44.479   2.778
74358W        W46684  19.241  39.893   2.185
74359W        W46685  27.036  15.239  12.829
74360W        W46686   9.733  20.593   1.885
74361W        W46687  32.896  18.075   2.851
74362W        W46688  30.634  23.092  13.476
74363W        W46689  15.787  16.262   3.283
74364W        W46690  24.643  15.589  12.855
74365W        W46691   7.365  39.502   2.195
74366W        W46692   2.305  31.564   4.171
74367W        W46693  37.006  26.616   1.804
74368W        W46694  28.975  25.532   0.903
74369W        W46695  15.623   3.897   4.623
74370W        W46696  15.237  18.159   4.334
74371W        W46697  36.084  42.375   3.784
74372W        W46698  28.146  31.515   2.847
74373W        W46699   2.436   9.879   2.829
74374W        W46700  31.634  36.456   3.199
74375W        W46701   1.439  23.723  14.425
74376W        W46702  41.351  12.279   1.235
74377W        W46703  35.921  39.862   4.748
74378W        W46704  12.161  27.492  11.992
74379W        W46705  32.437  14.336  14.985
74380W        W46706  12.734  21.626  11.422
74381W        W46707  44.312  23.632  13.879
74382W        W46708  31.943  21.097  11.396
74383W        W46709  40.905   5.216   3.840
74384W        W46710   5.801  31.450  11.396
74385W        W46711   6.843  10.221   0.320
74386W        W46712  31.446  30.484   3.177
74387W        W46713  26.187   5.909  12.840
74388W        W46714  36.491   4.785   3.221
74389W        W46715  12.256  34.002  11.420
74390W        W46716  10.312  30.079   3.321
74391W        W46717  24.063  25.549  13.826
74392W        W46718  14.824   6.830   0.354
74393W        W46719  43.306  41.836   0.909
74394W        W46720  25.997   7.327   0.245
74395W        W46721  39.437  15.114  12.883
74396W        W46722  22.194   9.187  11.875
74397W        W46723  26.498  22.219   0.962
74398W        W46724  23.087  21.712  12.054
74399W        W46725  17.191  17.674   0.876
74400W        W46726  31.070  39.963  14.944
74401W        W46727  42.003  24.631  14.957
74402W        W46728   5.710  24.168  10.522
74403W        W46729  22.682  34.903  13.913
74404W        W46730  42.797  17.164   2.263
74405W        W46731  20.671   2.372   2.246
74406W        W46732  27.586  35.870  12.517
74407W        W46733  33.924  36.941   0.817
74408W        W46734   1.267  11.178  13.014
74409W        W46735  31.438  26.173   1.426
74410W        W46736   6.903  14.267  10.582
74411W        W46737  43.278  28.057   0.414
74412W        W46738  14.312   8.676  11.939
74413W        W46739  43.837   2.386  12.373
74414W        W46740  14.185  38.516   2.346
74415W        W46741  24.593  39.553  10.903
74416W        W46742  31.100  22.149   4.644
74417W        W46743  31.944  16.113  11.127
74418W        W46744   7.739  28.033  10.158
74419W        W46745  42.462  32.573   3.744
74420W        W46746  22.646  17.175   1.272
74421W        W46747   6.702  23.536  13.389
74422W        W46748  17.657  27.636   0.390
74423W        W46749  35.574  35.950   3.201
74424W        W46750  38.513  17.292  12.026
74425W        W46751   3.736   5.811   2.219
74426W        W46752  12.813  27.962  14.931
74427W        W46753  19.567   6.915   1.820
74428W        W46754  40.478  24.719   1.806
74429W        W46755  23.541  34.459  12.499
74430W        W46756   7.749  43.413  11.895
74431W        W46757  44.347  19.268   2.699
74432W        W46758  33.975  22.155   0.815
74433W        W46759   8.654  33.924  14.761
74434W        W46760  25.010  10.137  11.586
74435W        W46761  12.183  14.147  12.066
74436W        W46762   0.981  28.935  12.376
74437W        W46763  40.509  41.032   1.710
74438W        W46764  40.830  27.063  14.287
74439W        W46765  17.595  37.874  11.597
74440W        W46766  25.681  14.119   0.883
74441W        W46767  12.731  12.755   1.425
74442W        W46768  16.258  11.764   2.310
74443W        W46769  21.212  38.377  12.894
74444W        W46770   8.742   2.906   0.801
74445W        W46771  21.592  10.734   4.607
74446W        W46772  30.099  12.849   4.274
74447W        W46773  28.449  20.740  13.802
74448W        W46774  23.581  31.138  14.316
74449W        W46775  13.785  17.741   4.712
74450W        W46776  14.644  35.102   1.935
74451W        W46777   7.776  11.822  13.385
74452W        W46778  26.060  20.212   3.803
74453W        W46779   7.327  34.992  11.548
74454W        W46780  37.359  42.960  14.026
74455W        W46781  23.661  19.669  13.915
74456W        W46782   9.287  24.228   0.901
74457W        W46783  10.849  42.795   4.342
74458W        W46784   6.830  16.587  10.970
74459W        W46785  38.845  31.434  11.049
74460W        W46786  16.600  10.351   0.747
74461W        W46787   6.191   3.356  14.403
74462W        W46788  28.525   1.741  11.535
74463W        W46789   9.887   6.230  11.537
74464W        W46790  28.502   6.393  11.390
74465W        W46791  18.204  21.213   2.845
74466W        W46792  40.868  28.478  13.384
74467W        W46793  20.693  32.501   3.805
74468W        W46794  22.610  14.170  10.466
74469W        W46795  30.159  13.717   0.844
74470W        W46796  23.635  14.829  11.915
74471W        W46797  11.868  10.819   0.960
74472W        W46798  28.029  18.627   2.819
74473W        W46799  35.534  29.103   4.233
74474W        W46800  23.126  43.847  11.586
74475W        W46801  10.775  18.226   4.785
74476W        W46802  26.680  34.957   0.411
74477W        W46803   2.790  26.086   3.682
74478W        W46804  21.225  28.014  11.034
74479W        W46805   8.741  43.927   2.725
74480W        W46806  44.452  44.865  11.919
74481W        W46807  36.016  39.920   2.856
74482W        W46808  18.054  19.760  11.069
74483W        W46809   6.279   6.785  14.423
74484W        W46810  22.100  12.362   2.744
74485W        W46811  35.525   6.676   0.861
74486W        W46812  13.136  17.107   5.302
74487W        W46813  44.325  28.026   3.712
74488W        W46814  13.708   6.886   4.220
74489W        W46815  12.140  12.282  12.072
74490W        W46816  16.675  44.482   4.158
74491W        W46817  17.229  21.700  10.894
74492W        W46818  19.654  32.102  13.310
74493W        W46819  28.440  28.982  12.342
74494W        W46820  16.572  18.547  14.773
74495W        W46821  44.275  32.581   4.616
74496W        W46822   4.367   3.788  13.377
74497W        W46823  40.503  29.650  13.525
74498W        W46824  37.927  23.991  10.930
74499W        W46825  28.996  37.442   0.800
74500W        W46826  18.642  23.200   4.613
74501W        W46827  30.554  28.522   4.206
74502W        W46828   9.860   6.705  12.474
74503W        W46829  12.777   7.695   4.210
74504W        W46830  41.903  24.607   2.184
74505W        W46831  22.530  37.382   4.662
74506W        W46832   9.329   5.265   2.692
74507W        W46833  18.735  12.291   1.249
74508W        W46834  42.362  38.862   4.804
74509W        W46835   3.727  15.315  13.967
74510W        W46836  24.554  14.336   3.374
74511W        W46837   4.269  13.181  13.961
74512W        W46838   3.276  37.486  13.054
74513W        W46839  28.184  27.076  10.588
74514W        W46840  34.598  19.185   0.767
74515W        W46841  19.285  14.286   3.685
74516W        W46842   3.909  42.933  11.063
74517W        W46843  22.051  23.565   3.164
74518W        W46844  16.270  41.504   3.323
74519W        W46845  35.852  30.446   4.625
74520W        W46846   4.402  20.639   4.222
74521W        W46847   9.303   6.873   3.234
74522W        W46848  26.696  25.003   2.190
74523W        W46849  11.205  20.101   1.252
74524W        W46850  41.931  18.641  14.957
74525W        W46851  16.659  37.029   1.230
74526W        W46852  40.024  27.165  11.409
74527W        W46853   6.811  36.555   0.783
74528W        W46854  44.859  33.406   4.220
74529W        W46855  43.419  33.068   1.286
74530W        W46856  26.953  38.993   4.820
74531W        W46857  26.058  28.534  14.864
74532W        W46858  22.252  21.617  13.039
74533W        W46859  36.923   0.326   2.723
74534W        W46860  16.129  14.144   2.408
74535W        W46861  12.662  35.001  14.409
74536W        W46862  26.481   6.410  10.423
74537W        W46863  24.103  18.225   2.331
74538W        W46864  15.776  17.568  11.867
74539W        W46865  41.319  36.012   0.776
74540W        W46866  42.826  44.980   0.481
74541W        W46867   0.883  20.258   2.897
74542W        W46868  23.727  12.845  10.564
74543W        W46869  41.841   3.379   4.238
74544W        W46870   2.728  36.460  11.057
74545W        W46871  33.380  31.586  11.982
74546W        W46872  10.747  18.641   3.727
74547W        W46873   8.341  19.594   4.615
74548W        W46874  40.847  34.420  10.915
74549W        W46875   7.850  42.823  11.461
74550W        W46876  22.509  10.727   2.358
74551W        W46877  11.334   8.866  10.979
74552W        W46878  21.679  34.475  11.408
74553W        W46879  17.201   4.714  13.948
74554W        W46880  41.401  17.699   0.852
74555W        W46881  30.092  25.987   3.664
74556W        W46882  17.706  10.379   3.167
74557W        W46883  27.516   8.220  14.788
74558W        W46884  21.697  13.623  12.495
74559W        W46885  28.158  31.562  12.493
74560W        W46886  42.835   9.668  13.534
74561W        W46887  37.349  18.143  11.979
74562W        W46888   9.689  34.385  11.015
74563W        W46889  35.969  14.741  12.082
74564W        W46890   9.305  17.789  12.057
74565W        W46891  24.216  41.797   0.294
74566W        W46892  40.824  37.910   4.251
74567W        W46893  40.354  39.861   1.278
74568W        W46894  19.111   6.700   4.324
74569W        W46895  43.302  20.247  10.472
74570W        W46896  38.865   0.468   0.413
74571W        W46897  43.484   6.298  14.450
74572W        W46898  32.069   3.287   3.785
74573W        W46899   6.750  42.338   4.302
74574W        W46900   0.303   0.812  11.094
74575W        W46901  38.398  43.953   4.153
74576W        W46902  33.549  24.573   4.681
74577W        W46903  27.140  32.515   1.325
74578W        W46904  31.029   8.289   1.829
74579W        W46905  37.536  11.854   3.309
74580W        W46906  40.479  24.028   2.694
74581W        W46907   0.827  44.822  11.426
74582W        W46908   3.298   1.314  12.039
74583W        W46909   4.857  40.821   3.188
74584W        W46910   5.239   5.928  14.433
74585W        W46911   6.270  29.014   0.948
74586W        W46912  24.016  13.678   0.731
74587W        W46913  24.694  37.912   3.370
74588W        W46914   6.808  28.974  10.624
74589W        W46915   2.319  40.356  12.083
74590W        W46916  43.925   5.736   0.868
74591W        W46917  37.503  32.433  12.082
74592W        W46918  17.772  39.554   2.777
74593W        W46919   9.389   1.859  13.509
74594W        W46920  13.646  41.537  11.856
74595W        W46921   7.338  13.217   4.326
74596W        W46922  28.512  27.685  14.493
74597W        W46923   7.873  41.979  10.972
74598W        W46924   3.924  44.488  10.419
74599W        W46925  35.037  42.024   4.207
74600W        W46926  23.586  25.968  13.042
74601W        W46927   9.698  29.438  12.886
74602W        W46928  16.302   0.306  12.538
74603W        W46929  40.815   8.167   3.639
74604W        W46930  12.248  39.450  10.992
74605W        W46931   5.273  22.186   4.172
74606W        W46932   1.749  10.772  10.961
74607W        W46933  41.961   9.383   3.182
74608W        W46934   5.344  27.560   1.912
74609W        W46935  26.029  31.640  11.436
74610W        W46936  34.045   9.153  13.885
74611W        W46937  15.148  13.776  13.380
74612W        W46938  17.743  14.213  13.908
74613W        W46939  25.503  40.386  11.872
74614W        W46940  44.795  41.801   1.907
74615W        W46941   2.457  18.289   4.208
74616W        W46942  43.875  26.571  12.357
74617W        W46943  32.390  11.740  11.939
74618W        W46944  44.910  37.345   0.444
74619W        W46945  38.546   5.841   0.947
74620W        W46946  14.691  10.789  11.415
74621W        W46947  10.345   9.254   3.345
74622W        W46948  25.008   5.744  13.491
74623W        W46949  26.099  38.961   4.185
74624W        W46950  19.754  20.078  13.849
74625W        W46951   1.321  43.415  14.805
74626W        W46952   9.775   6.742  14.889
74627W        W46953  29.935  42.303  14.506
74628W        W46954  11.247  38.529   2.248
74629W        W46955  15.111   7.353  13.413
74630W        W46956  39.370  37.423  13.429
74631W        W46957  40.024   2.755  14.403
74632W        W46958   5.698   3.756  14.765
74633W        W46959   7.713  16.756   2.380
74634W        W46960  24.723  17.589  11.439
74635W        W46961   0.761  23.526   2.886
74636W        W46962   7.171  15.163  11.385
74637W        W46963  25.011   7.361  11.596
74638W        W46964  13.799  25.102   2.293
74639W        W46965  15.201  12.623  12.347
74640W        W46966  44.009  29.950  13.960
74641W        W46967  18.175  28.571  11.559
74642W        W46968  20.629  10.300   2.365
74643W        W46969  30.586   0.895   3.689
74644W        W46970  33.522   9.385  11.952
74645W        W46971  31.494  17.748  10.995
74646W        W46972  25.638  26.071   0.894
74647W        W46973  28.542   9.202   0.261
74648W        W46974  43.414   3.929  14.512
74649W        W46975  10.209   9.775   2.671
74650W        W46976  13.648  33.399  10.912
74651W        W46977  11.682  18.710   0.917
74652W        W46978  23.176  25.142   1.749
74653W        W46979  26.051  15.818  12.413
74654W        W46980   3.256  23.508  10.030
74655W        W46981   5.406  41.894   2.778
74656W        W46982  11.192   6.759  14.317
74657W        W46983  42.314  38.969   1.411
74658W        W46984  11.187  26.181   4.761
74659W        W46985  13.703  22.039  13.384
74660W        W46986  29.500   0.773   1.785
74661W        W46987  30.512  34.585  12.850
74662W        W46988  43.503   1.457   0.248
74663W        W46989  30.648  21.611  14.862
74664W        W46990  43.483  14.654   3.823
74665W        W46991  13.257   8.897  12.940
74666W        W46992  17.167  26.191  11.968
74667W        W46993  12.777  10.795   2.730
74668W        W46994   3.873   7.898  14.433
74669W        W46995   0.413   1.749   0.815
74670W        W46996  16.623  30.909   4.827
74671W        W46997  30.155  37.885  11.987
74672W        W46998   1.306  13.818   2.668
74673W        W46999  11.656  27.123   2.744
74674W        W47000  16.178  25.097  12.418
74675W        W47001  19.548   3.794   2.242
74676W        W47002  12.304  37.374   3.170
74677W        W47003  14.590  32.510   3.755
74678W        W47004   7.885  39.028   3.291
74679W        W47005  15.710  10.634  13.977
74680W        W47006  10.692  41.004  13.408
74681W        W47007  38.988  33.585   3.382
74682W        W47008  31.071  12.268  10.544
74683W        W47009  34.999  27.450  12.350
74684W        W47010  20.218   5.896   2.305
74685W        W47011  20.767  26.002   0.827
74686W        W47012  37.433   2.395  13.429
74687W        W47013  33.969  13.817  14.302
74688W        W47014  31.941  13.655  11.516
74689W        W47015  18.623  24.691   3.826
74690W        W47016   0.925  14.218  14.860
74691W        W47017  35.941  27.501   4.640
74692W        W47018  24.115  43.357   4.251
74693W        W47019  10.838  33.013   2.391
74694W        W47020  17.687  41.441   2.837
74695W        W47021  26.079  39.460  13.929
74696W        W47022   1.894   0.453  13.835
74697W        W47023  44.339  32.631  11.008
74698W        W47024  31.637   5.790   2.824
74699W        W47025   0.476  22.622  11.111
74700W        W47026  37.919  15.603   0.254
74701W        W47027  16.792  29.651   0.481
74702W        W47028  13.610  38.020   4.604
74703W        W47029   7.912  23.988  11.046
74704W        W47030  14.715   7.191  13.498
74705W        W47031   0.279  18.187   4.709
74706W        W47032   9.814   3.769  14.329
74707W        W47033  23.219  43.328  12.042
74708W        W47034  12.823  43.479  13.334
74709W        W47035  38.460  23.606   3.634
74710W        W47036  37.943   9.160  11.903
74711W        W47037  22.040  18.621  14.287
74712W        W47038  33.109   8.374   2.207
74713W        W47039  12.795  44.487   2.197
74714W        W47040  25.538  42.430  14.890
74715W        W47041  33.527  38.986   4.794
74716W        W47042  15.742  33.092   4.275
74717W        W47043  35.433  38.975  14.839
74718W        W47044   4.347  44.893   0.449
74719W        W47045  16.083  32.072  10.612
74720W        W47046  11.197  41.826  13.429
74721W        W47047  34.577   3.913   4.221
74722W        W47048   4.401   0.953  14.461
74723W        W47049   4.403  30.646   4.697
74724W        W47050  33.881  31.063   4.191
74725W        W47051  16.717  42.961  14.935
74726W        W47052  35.047  16.598   3.194
74727W        W47053  16.783   1.959  11.091
74728W        W47054  39.444   6.886   1.799
74729W        W47055  29.460  30.458   4.348
74730W        W47056  30.048  37.385   1.922
74731W        W47057  35.920   2.768  12.436
74732W        W47058  33.495   0.485   4.801
74733W        W47059  34.983  33.557   0.883
74734W        W47060   1.370  10.306  12.010
74735W        W47061  40.803   0.911   2.230
74736W        W47062  31.547  18.250   2.784
74737W        W47063  13.770  32.083   3.148
74738W        W47064  21.026  30.523  13.973
74739W        W47065   0.455  32.518   1.398
74740W        W47066  13.809  41.014   3.150
74741W        W47067  20.583   6.252   1.833
74742W        W47068  35.429  41.482  12.389
74743W        W47069  32.617   4.750   2.687
74744W        W47070   7.258  22.666   2.271
74745W        W47071  20.730  33.907   3.300
74746W        W47072  10.636   3.388   0.363
74747W        W47073  41.008  27.063  11.105
74748W        W47074  21.659   2.734   0.886
74749W        W47075  19.092   7.351   4.827
74750W        W47076  24.594   7.331  14.449
74751W        W47077   2.462  14.719  10.936
74752W        W47078  17.284  32.613  13.539
74753W        W47079  25.529  32.515   2.202
74754W        W47080  41.969  36.542   3.776
74755W        W47081  35.921  21.512  10.639
74756W        W47082   6.843  27.485  12.487
74757W        W47083  28.144  41.851   4.721
74758W        W47084   5.713   2.741   0.774
74759W        W47085  11.146  33.992  11.606
74760W        W47086  28.949  40.912  12.402
74761W        W47087  12.326  37.410   2.740
74762W        W47088  17.288   8.335  13.870
74763W        W47089   3.950  16.132  10.519
74764W        W47090   1.932   6.303  11.379
74765W        W47091  16.621   8.329  12.431
74766W        W47092  20.138  20.239  10.600
74767W        W47093  38.920  12.753  12.835
74768W        W47094  26.568  30.998  13.810
74769W        W47095  33.444  34.482  14.482
74770W        W47096  41.388  34.093   1.844
74771W        W47097  38.423  32.111   4.243
74772W        W47098   3.391  28.143  12.928
74773W        W47099  21.722  21.263  11.483
74774W        W47100   3.895  19.744   3.849
74775W        W47101  39.014  44.490  13.039
74776W        W47102  20.718  37.408   2.761
74777W        W47103  29.118  36.964   4.248
74778W        W47104  28.604  21.535  13.503
74779W        W47105  14.330   5.233  14.293
74780W        W47106  18.725  33.518   1.286
74781W        W47107  16.304  29.504   3.724
74782W        W47108  35.395  38.388   4.208
74783W        W47109  40.992  26.481   4.663
74784W        W47110  37.085   9.696   5.107
74785W        W47111  31.067  24.480   2.867
74786W        W47112  37.016  18.109  13.840
74787W        W47113   6.851  14.230   4.776
74788W        W47114  21.067  30.467  14.884
74789W        W47115  27.567   0.410  14.345
74790W        W47116  35.473   4.830  14.849
74791W        W47117  12.315  30.952  13.922
74792W        W47118   2.235  10.303   2.188
74793W        W47119  11.223  43.316  10.407
74794W        W47120   0.445  28.995   0.438
74795W        W47121  40.034  33.109   4.695
74796W        W47122   8.677   3.284  13.854
74797W        W47123   5.351  34.413  14.345
74798W        W47124  35.420  29.126   1.416
74799W        W47125  35.897  14.635  14.834
74800W        W47126  22.163  22.589  11.552
74801W        W47127  18.586  30.492   2.311
74802W        W47128  13.276  43.862  11.441
74803W        W47129   6.897  19.545  14.778
74804W        W47130  31.150   0.480   3.696
74805W        W47131  12.135  16.279   3.687
74806W        W47132   6.881  24.224  13.898
74807W        W47133  32.464   9.233  13.845
74808W        W47134  24.189   0.913  13.862
74809W        W47135  35.405  35.438  12.033
74810W        W47136  41.928   9.836  14.435
74811W        W47137  33.967  24.636  13.998
74812W        W47138  27.668  25.026   0.396
74813W        W47139  24.502  15.141  10.972
74814W        W47140  10.307  18.144  12.573
74815W        W47141   7.909  24.556  14.407
74816W        W47142  25.709  36.933  11.596
74817W        W47143   7.903  12.838  10.055
74818W        W47144  25.980  24.050   1.344
74819W        W47145  13.734   4.721   2.341
74820W        W47146  34.451  42.888  12.376
74821W        W47147  13.638  31.970   9.966
74822W        W47148  16.697   7.242  14.505
74823W        W47149  16.645  42.965   4.771
74824W        W47150  42.291  18.611   1.298
74825W        W47151  41.349   3.810   1.802
74826W        W47152  31.640   3.401   0.884
74827W        W47153  23.213   0.462  10.479
74828W        W47154   8.226  44.005   1.813
74829W        W47155  22.066  39.905   9.957
74830W        W47156  27.457  35.027  14.922
74831W        W47157   6.211  22.040  12.496
74832W        W47158  30.970   1.745  14.338
74833W        W47159  29.639   6.806  10.984
74834W        W47160   3.263  40.448   0.925
74835W        W47161  15.771  25.556   1.396
74836W        W47162  10.758  34.384   0.464
74837W        W47163  24.089  13.274  10.540
74838W        W47164  35.411  25.117   3.150
74839W        W47165  44.428   5.739   4.218
74840W        W47166  13.629  29.563   3.706
74841W        W47167   8.297   3.310  11.593
74842W        W47168  26.678  16.195  14.030
74843W        W47169  34.479  31.497   1.777
74844W        W47170   2.343  21.092  10.633
74845W        W47171  22.095  19.122   2.312
74846W        W47172  16.110  38.935  11.474
74847W        W47173  10.670  37.373   2.692
74848W        W47174  12.710  17.104  14.355
74849W        W47175  30.042  44.494  14.979
74850W        W47176  16.713  27.144  14.287
74851W        W47177   2.836   8.700  12.464
74852W        W47178  22.081  36.544   4.622
74853W        W47179  29.629   0.308  13.986
74854W        W47180  26.980  40.368   0.754
74855W        W47181  44.815  26.564   4.147
74856W        W47182  38.821   6.725   1.278
74857W        W47183  17.718  12.657   1.845
74858W        W47184  35.427   4.214  13.381
74859W        W47185  11.353  13.330   3.750
74860W        W47186  39.971  30.542   4.702
74861W        W47187  19.251  42.375  10.966
74862W        W47188  31.125  28.022  10.936
74863W        W47189   9.749   8.273  13.036
74864W        W47190  24.198  41.452  14.009
74865W        W47191  21.639   5.696  12.031
74866W        W47192  39.509  27.088  14.307
74867W        W47193   9.694  21.653   3.297
74868W        W47194  35.523  20.683   1.819
74869W        W47195  14.175  18.140  10.430
74870W        W47196  26.655   9.205   3.373
74871W        W47197   5.381   4.744  14.513
74872W        W47198   1.888  43.826  10.546
74873W        W47199  36.877  44.820  11.605
74874W        W47200  44.943   9.258  13.498
74875W        W47201  15.234  14.122  12.881
74876W        W47202  18.111  38.502   3.772
74877W        W47203  26.093   9.326   2.351
74878W        W47204  13.805  24.053  14.030
74879W        W47205  19.718  20.242   1.832
74880W        W47206  14.339  29.166   1.795
74881W        W47207  42.910  28.958   3.313
74882W        W47208  25.963   8.357   1.839
74883W        W47209  12.724  23.216  11.607
74884W        W47210   0.293  39.811   0.466
74885W        W47211  36.449  14.618   0.909
74886W        W47212   7.807  21.155   5.199
74887W        W47213   6.344  17.590  12.854
74888W        W47214  32.582  25.677   1.724
74889W        W47215  18.150  37.359   2.209
74890W        W47216  41.344   4.248  14.427
74891W        W47217  29.133  26.533  12.908
74892W        W47218  23.602   8.311  11.900
74893W        W47219  23.037  21.170  14.417
74894W        W47220  25.702  36.953   3.629
74895W        W47221  31.406  19.685  14.931
74896W        W47222  24.538  32.602  11.975
74897W        W47223  21.735  44.987   1.932
74898W        W47224  26.116  18.716   4.118
74899W        W47225  25.211  13.824  11.885
74900W        W47226   3.738  15.121   3.863
74901W        W47227  12.337  35.013   1.446
74902W        W47228  31.542  10.633   3.202
74903W        W47229  20.262  42.782   3.299
74904W        W47230  21.628  31.576  13.450
74905W        W47231   4.401  29.598   0.864
74906W        W47232  11.336  19.578  14.994
74907W        W47233   7.886  25.144  13.901
74908W        W47234   4.325  44.006  13.046
74909W        W47235  44.885  21.118  12.499
74910W        W47236  13.296  34.375   3.254
74911W        W47237  30.040  35.532   2.329
74912W        W47238  42.305  40.967  10.517
74913W        W47239   1.457   5.773  12.927
74914W        W47240  14.334  30.070  12.349
74915W        W47241  35.963   1.423  11.925
74916W        W47242  28.493  29.161   0.931
74917W        W47243  13.771  32.991   1.902
74918W        W47244   2.766  37.963  10.950
74919W        W47245   7.178  22.716  11.533
74920W        W47246  11.812  13.212  13.814
74921W        W47247  44.788   5.207   4.248
74922W        W47248  37.975  44.931  12.854
74923W        W47249  19.077  35.031  14.916
74924W        W47250   5.911  10.661  10.586
74925W        W47251  41.508  29.617   3.210
74926W        W47252  34.426  11.820   2.864
74927W        W47253  10.206   5.847  12.902
74928W        W47254  36.889  43.790   1.819
74929W        W47255  36.414  42.939  10.161
74930W        W47256  17.670   3.783   3.314
74931W        W47257   4.362  37.013   2.769
74932W        W47258  28.026  21.251   1.259
74933W        W47259  39.938  44.996   2.294
74934W        W47260  23.132  30.451  12.519
74935W        W47261   7.787  43.433  10.488
74936W        W47262  12.856  32.084  11.452
74937W        W47263  22.105  24.630   3.363
74938W        W47264  44.896  10.197  13.815
74939W        W47265  33.508   5.252  14.884
74940W        W47266  32.601  18.656   0.814
74941W        W47267  27.487   9.812   1.900
74942W        W47268  13.304  14.667  13.859
74943W        W47269   8.840  26.457   2.828
74944W        W47270  37.483   7.871  14.859
74945W        W47271  21.037  37.044   4.213
74946W        W47272  24.483   8.189   3.340
74947W        W47273   5.905  21.579   1.410
74948W        W47274  28.035   0.362  14.291
74949W        W47275  20.075  16.303  10.609
74950W        W47276  23.524   7.233   2.249
74951W        W47277  33.626  44.824   2.312
74952W        W47278  26.041  43.826  12.948
74953W        W47279  34.908  32.417   3.288
74954W        W47280   3.420  23.597   3.314
74955W        W47281  36.989  18.573  11.960
74956W        W47282  24.587  38.429   9.933
74957W        W47283  27.583  35.897   0.454
74958W        W47284  27.075  10.254  14.997
74959W        W47285   8.255   4.393  13.840
74960W        W47286  16.617  37.060   4.308
74961W        W47287   9.783  23.146   4.775
74962W        W47288  15.688  25.038  10.596
74963W        W47289  19.190  35.075   1.886
74964W        W47290  10.350  41.337   4.713
74965W        W47291   4.863  32.914   1.729
74966W        W47292   8.728  34.464  14.819
74967W        W47293  40.849  30.108   1.414
74968W        W47294   0.817   7.722   0.732
74969W        W47295  25.022  25.580  12.885
74970W        W47296  44.344  22.063  14.341
74971W        W47297  41.398   7.413  12.483
74972W        W47298  35.548  14.818   1.794
74973W        W47299  31.062  32.031   2.219
74974W        W47300  35.865  35.527  13.501
74975W        W47301   2.927  22.541   2.336
74976W        W47302  39.942  35.424   4.216
74977W        W47303  41.807  32.902  13.516
74978W        W47304  21.037  17.614   1.231
74979W        W47305  12.645  35.902   0.740
74980W        W47306   6.812  41.500   4.288
74981W        W47307  41.471  10.378  14.979
74982W        W47308   8.406  37.473   2.382
74983W        W47309  30.622  41.464  12.421
74984W        W47310  25.051  29.986   3.765
74985W        W47311  44.910  22.155   4.799
74986W        W47312  38.052  15.642   4.135
74987W        W47313  26.078  30.484   0.785
74988W        W47314  38.046  43.403  11.529
74989W        W47315  44.471  25.016   2.876
74990W        W47316  18.193  44.820  14.505
74991W        W47317  40.465   6.808   0.956
74992W        W47318  27.482  40.824   1.338
74993W        W47319  38.073  19.180  14.028
74994W        W47320  42.331  41.917   2.812
74995W        W47321  15.651  20.715   2.310
74996W        W47322  27.983   2.369   4.785
74997W        W47323   0.445  36.084  13.954
74998W        W47324  28.526  41.859   4.201
74999W        W47325   7.667  25.216   4.114
75000W        W47326  32.887  43.928   4.228
75001W        W47327   1.393  37.512   3.813
75002W        W47328  10.710   3.898  12.431
75003W        W47329  19.062   9.888   3.194
75004W        W47330  26.529  39.447   1.394
75005W        W47331  22.733  30.106  13.846
75006W        W47332  26.666  23.516   2.353
75007W        W47333  28.671  20.175  10.531
75008W        W47334  24.508   5.307  10.446
75009W        W47335   6.786  18.089   1.299
75010W        W47336   0.985   5.800   0.897
75011W        W47337   4.238  26.472  13.958
75012W        W47338   5.239  39.993  14.427
75013W        W47339  40.831   8.390  14.865
75014W        W47340   9.351   1.837   3.731
75015W        W47341  19.077   6.201  12.868
75016W        W47342  14.127  33.958  11.961
75017W        W47343  23.202   8.238   4.282
75018W        W47344  36.964   7.781   3.813
75019W        W47345   8.736  42.970   4.140
75020W        W47346   3.266  32.097  14.951
75021W        W47347   0.883  42.970   4.836
75022W        W47348   0.467  35.903  13.397
75023W        W47349   3.806  12.711   1.369
75024W        W47350  22.048   1.936   2.699
75025W        W47351  21.061  32.947   2.862
75026W        W47352  19.242  32.538   1.281
75027W        W47353  23.084   3.386   0.838
75028W        W47354  28.136  27.968   0.770
75029W        W47355  34.967  43.438   3.328
75030W        W47356  11.361  16.193  14.438
75031W        W47357   2.423  41.874  10.559
75032W        W47358   0.878  29.510   2.897
75033W        W47359  25.643  33.079  12.074
75034W        W47360  15.737  26.000  14.830
75035W        W47361  41.838  42.454   0.910
75036W        W47362   7.389   9.215   2.340
75037W        W47363  35.527  26.698   1.328
75038W        W47364  23.154  38.875  12.480
75039W        W47365  14.631  41.912  10.491
75040W        W47366   7.848  23.231   3.321
75041W        W47367   8.721  29.652   1.820
75042W        W47368   2.333  31.043   0.317
75043W        W47369   0.918  41.494   4.618
75044W        W47370  30.432  25.999   3.661
75045W        W47371   1.750  18.287  13.348
75046W        W47372  44.489  44.446  13.010
75047W        W47373  31.946   1.906  10.934
75048W        W47374  30.513  32.929   4.222
75049W        W47375  12.782   2.442   2.347
75050W        W47376  15.242  28.670   2.227
75051W        W47377   8.372  10.802   1.828
75052W        W47378  36.463  34.902  12.854
75053W        W47379  18.263  23.548   2.391
75054W        W47380   4.901  24.198   4.636
75055W        W47381  37.345  24.085  14.013
75056W        W47382   1.397  40.924   1.779
75057W        W47383  43.413   2.756  11.025
75058W        W47384  37.465  17.133   1.760
75059W        W47385  31.109  23.095   2.702
75060W        W47386  42.382  22.101   0.472
75061W        W47387  33.407   4.218   2.190
75062W        W47388  37.892  35.094  11.505
75063W        W47389   4.870   1.310   2.218
75064W        W47390   2.736  30.998   3.231
75065W        W47391  35.366  25.685   2.668
75066W        W47392  27.686   3.854   4.734
75067W        W47393  33.391  34.052   4.625
75068W        W47394  14.663   6.909  13.468
75069W        W47395   1.285  23.219  14.865
75070W        W47396  16.653  23.521  10.512
75071W        W47397  39.992  15.630  11.488
75072W        W47398   2.964  22.085   1.244
75073W        W47399  34.913  25.521  14.468
75074W        W47400  44.895  18.564   3.650
75075W        W47401  34.587  10.872   2.263
75076W        W47402   0.255  29.554  14.428
75077W        W47403  17.566  25.069   4.782
75078W        W47404  41.870  21.190   0.955
75079W        W47405   8.275  43.489  13.908
75080W        W47406   5.260  39.460   2.263
75081W        W47407   3.320  11.316   4.289
75082W        W47408  20.582  14.179   4.789
75083W        W47409   8.290   7.667  10.901
75084W        W47410   2.950  44.911   3.218
75085W        W47411  16.117  35.508  11.487
75086W        W47412   0.303  25.986   2.205
75087W        W47413  18.180   1.924   4.826
75088W        W47414   5.369  18.165   4.231
75089W        W47415  35.385  21.716  11.550
75090W        W47416   3.865  11.860  12.941
75091W        W47417  13.189  27.976  11.957
75092W        W47418  37.973  38.938   3.653
75093W        W47419  15.819   3.793   3.174
75094W        W47420  22.657  17.090  13.800
75095W        W47421  38.507  12.265  14.931
75096W        W47422  24.530  23.684   1.709
75097W        W47423  16.749  13.336   0.916
75098W        W47424   8.828  40.996   2.234
75099W        W47425  41.817  38.924  14.001
75100W        W47426  33.027  18.682  11.941
75101W        W47427   6.915  43.910  13.546
75102W        W47428  26.010   5.700   2.253
75103W        W47429   5.830   5.354  13.798
75104W        W47430   4.816   7.895  10.479
75105W        W47431   5.424  27.659   0.417
75106W        W47432  42.503  17.248  14.422
75107W        W47433  26.701  42.969   2.722
75108W        W47434  31.502  42.900  13.980
75109W        W47435   5.291  17.163   0.822
75110W        W47436  29.973  32.989  13.986
75111W        W47437  39.434  34.005  10.571
75112W        W47438  13.203  15.583  11.483
75113W        W47439  19.045  31.646   3.266
75114W        W47440  14.697  40.518  12.463
75115W        W47441   7.725  29.045   2.287
75116W        W47442  18.558   2.793   1.816
75117W        W47443  30.638  36.564   3.365
75118W        W47444  35.887  28.972   2.337
75119W        W47445  26.669   8.695  11.374
75120W        W47446  24.656   8.799   3.384
75121W        W47447  27.129  30.520   1.438
75122W        W47448  33.971  18.687   0.272
75123W        W47449  34.910  34.888  10.419
75124W        W47450   8.171   9.387  14.848
75125W        W47451  27.960  32.101   3.341
75126W        W47452  24.665  29.159   1.216
75127W        W47453  41.921  29.589  12.968
75128W        W47454  13.188  29.596  12.862
75129W        W47455  13.643  44.980  14.329
75130W        W47456  15.299  37.488  10.920
75131W        W47457  14.315  17.754   2.831
75132W        W47458   3.930   5.877  13.863
75133W        W47459  12.136  36.427  12.969
75134W        W47460  21.515  37.993   4.733
75135W        W47461  34.387  26.965  12.984
75136W        W47462  19.136  27.481   3.681
75137W        W47463   4.365   4.743  11.049
75138W        W47464   4.730   5.374  10.929
75139W        W47465  19.087  14.143   3.333
75140W        W47466  26.661  26.976   0.824
75141W        W47467  10.155  22.051   5.138
75142W        W47468  15.821  23.114   0.776
75143W        W47469   6.350  42.358  10.896
75144W        W47470  34.413  18.594  11.462
75145W        W47471  44.462   9.372  13.371
75146W        W47472  39.062  42.003  13.454
75147W        W47473  13.681  15.196  11.471
75148W        W47474  17.734  34.109   0.923
75149W        W47475  16.223   1.827   4.257
75150W        W47476  12.622  27.054  11.594
75151W        W47477   8.799  30.111   1.875
75152W        W47478   4.761   9.394  13.485
75153W        W47479  24.702  24.085   4.638
75154W        W47480  39.972  20.158   1.832
75155W        W47481  32.056  28.093  11.530
75156W        W47482   5.840  30.013  10.475
75157W        W47483  35.001  32.437  12.400
75158W        W47484  37.004   2.337   2.819
75159W        W47485  11.232  44.882  10.603
75160W        W47486  44.442  20.527   3.255
75161W        W47487  34.554  17.065   3.165
75162W        W47488  28.152  33.488  11.978
75163W        W47489   4.733  23.165  11.916
75164W        W47490   1.263  40.998   2.773
75165W        W47491  42.841  17.798   4.200
75166W        W47492  16.731  14.109  10.409
75167W        W47493   9.694  36.861   4.218
75168W        W47494  24.706  23.219  12.090
75169W        W47495  13.164  16.277  14.878
75170W        W47496  10.183  26.548   3.236
75171W        W47497   3.417  17.725  13.962
75172W        W47498  15.155  14.162  13.366
75173W        W47499  38.422  20.107  14.772
75174W        W47500  37.924   9.786   4.152
75175W        W47501  26.635   7.372  12.412
75176W        W47502   4.888  19.259  11.468
75177W        W47503  20.727   2.293  11.408
75178W        W47504  23.988  25.690  10.535
75179W        W47505   9.757   8.708   4.221
75180W        W47506  36.082   2.286  14.900
75181W        W47507  34.961  27.661  14.829
75182W        W47508  13.224  34.063   9.998
75183W        W47509  12.267  34.409   1.246
75184W        W47510   6.348   9.268   0.857
75185W        W47511  21.140  44.901   1.869
75186W        W47512  30.455  39.519  13.421
75187W        W47513  34.044  33.617   1.307
75188W        W47514  17.079  22.207   1.762
75189W        W47515  23.216  24.713   4.315
75190W        W47516  39.407  30.015  10.584
75191W        W47517  31.060   8.259  14.010
75192W        W47518  16.582  27.004  14.002
75193W        W47519  43.374   3.754  13.911
75194W        W47520  43.507  37.529   1.271
75195W        W47521  43.466  19.563   0.441
75196W        W47522   2.317  35.376  11.954
75197W        W47523  24.721  33.505  13.520
75198W        W47524  20.525  20.125   4.770
75199W        W47525   0.357  25.504  11.874
75200W        W47526   8.875  25.489   0.766
75201W        W47527  37.978  17.586  12.947
75202W        W47528  43.319  22.047   1.389
75203W        W47529  33.396  10.242   4.723
75204W        W47530  39.993  13.324   3.827
75205W        W47531   5.918  42.463   0.955
75206W        W47532  19.624  21.146   2.802
75207W        W47533  12.270  25.557  13.056
75208W        W47534  34.029  30.585  14.800
75209W        W47535  16.269   2.850  12.059
75210W        W47536  21.627  10.295  11.568
75211W        W47537  39.329  24.081   1.416
75212W        W47538  18.629  32.438   3.838
75213W        W47539  20.746  31.596   4.183
75214W        W47540   1.291  26.122   0.868
75215W        W47541   0.939  41.029  13.508
75216W        W47542  26.472  37.857   4.786
75217W        W47543  21.171  40.049   1.310
75218W        W47544  24.677  20.195   2.227
75219W        W47545  24.660  11.175   0.389
75220W        W47546  22.196  17.770  14.881
75221W        W47547  19.158  37.982   1.884
75222W        W47548  12.763  26.664  14.466
75223W        W47549   8.704  39.415  10.534
75224W        W47550  16.590  16.318  13.524
75225W        W47551  33.491  44.418   5.161
75226W        W47552   1.250  30.493  10.516
75227W        W47553  44.760  20.563  10.953
75228W        W47554   4.699  29.621   2.336
75229W        W47555   6.253  21.650  13.964
75230W        W47556  25.054   6.366  11.054
75231W        W47557  11.193  17.655   3.156
75232W        W47558  17.093  30.424  12.467
75233W        W47559   1.288  25.219   3.796
75234W        W47560   1.793   7.739   4.610
75235W        W47561  44.343  29.059  14.286
75236W        W47562   9.354  36.068  11.387
75237W        W47563  26.456  37.917  14.447
75238W        W47564  32.938  44.759   4.642
75239W        W47565  36.053  12.218  14.483
75240W        W47566  12.730  32.996   4.642
75241W        W47567  23.133  37.544  12.868
75242W        W47568  39.535  24.688   3.714
75243W        W47569  40.995   3.823   0.273
75244W        W47570  29.443  20.074  13.944
75245W        W47571   0.359  27.000  13.391
75246W        W47572  16.793  25.639   2.375
75247W        W47573  36.538  44.814   1.339
75248W        W47574  38.844  25.712   2.401
75249W        W47575  32.025  16.193   4.228
75250W        W47576   7.679  34.870  11.450
75251W        W47577  21.750  14.834   4.150
75252W        W47578  32.615  38.519  12.531
75253W        W47579   0.875  23.601   1.376
75254W        W47580  26.666  17.254   3.700
75255W        W47581  25.123   8.866  11.875
75256W        W47582  10.305  17.571   1.319
75257W        W47583  44.789  32.568   2.852
75258W        W47584   6.779  42.434  14.462
75259W        W47585  17.760  20.723   1.331
75260W        W47586  29.140   8.723  11.539
75261W        W47587  22.731  37.890   2.695
75262W        W47588  15.161  30.057  12.948
75263W        W47589  36.590  33.014  10.456
75264W        W47590  31.136  15.083  11.900
75265W        W47591   7.197  33.026   1.758
75266W        W47592   9.244   6.694  12.879
75267W        W47593  29.105  41.881  14.338
75268W        W47594   6.353  33.592  10.904
75269W        W47595  38.896  10.200   2.755
75270W        W47596  14.733  18.587   3.304
75271W        W47597  16.711   0.775   4.677
75272W        W47598   9.285  12.167  12.029
75273W        W47599   7.849  43.449   4.827
75274W        W47600  32.397  18.583   2.720
75275W        W47601  44.404  19.160  10.891
75276W        W47602  25.609  34.880  12.875
75277W        W47603   8.168   1.369   4.124
75278W        W47604  36.971  42.413  11.419
75279W        W47605  17.191  39.987  10.043
75280W        W47606  31.916  31.131   0.770
75281W        W47607  39.464  30.622  14.396
75282W        W47608  23.006   1.917   3.780
75283W        W47609   4.796   7.285  11.057
75284W        W47610  11.246   5.217  12.864
75285W        W47611  13.124  23.525   5.144
75286W        W47612  39.056  32.939  13.055
75287W        W47613   6.902   1.817   0.288
75288W        W47614  23.560  36.445  12.825
75289W        W47615  12.169  10.284  12.894
75290W        W47616  34.584  31.482  11.542
75291W        W47617   4.437  25.605   1.841
75292W        W47618  40.993  29.599  11.607
75293W        W47619  17.134  10.796  10.433
75294W        W47620   2.925   1.769  12.069
75295W        W47621  19.671  18.056  14.003
75296W        W47622   9.375   2.957   2.777
75297W        W47623  12.781  26.651  12.402
75298W        W47624   3.848  19.580   1.420
75299W        W47625  12.122  42.475   0.955
75300W        W47626  38.028  20.535   4.260
75301W        W47627   9.159  31.917  11.381
75302W        W47628  17.290  18.293   4.243
75303W        W47629  11.780   6.696   3.260
75304W        W47630  39.359   4.415   2.676
75305W        W47631   1.892  18.592   4.717
75306W        W47632  25.538  13.326  14.874
75307W        W47633   1.413  34.431  11.426
75308W        W47634  13.632  36.918   1.268
75309W        W47635  17.281   6.358  11.105
75310W        W47636  15.282  40.954   2.325
75311W        W47637   5.721  12.771   2.882
75312W        W47638  27.522  22.580  12.020
75313W        W47639  24.602  27.449   1.863
75314W        W47640  31.455   4.759  10.019
75315W        W47641  35.591  21.641   3.711
75316W        W47642   8.667  10.704  12.420
75317W        W47643  43.962   8.321   3.763
75318W        W47644  10.304  18.786   5.207
75319W        W47645  43.865  43.271  13.819
75320W        W47646  40.831  10.800  10.508
75321W        W47647  27.524  27.949   2.246
75322W        W47648  25.091  42.398  13.848
75323W        W47649  13.140  12.303   1.703
75324W        W47650  12.211  18.643  13.030
75325W        W47651  18.124  43.822   0.356
75326W        W47652  26.589   6.747   4.223
75327W        W47653  13.248   0.376   2.218
75328W        W47654  41.802  31.082   4.297
75329W        W47655  42.891  41.522  14.934
75330W        W47656  33.067  12.204   0.347
75331W        W47657  26.107  39.027  12.012
75332W        W47658  36.899  43.912   3.170
75333W        W47659   2.434  13.686  11.890
75334W        W47660   3.909  37.339   1.260
75335W        W47661   7.756  34.097   0.850
75336W        W47662  21.156   4.945   0.423
75337W        W47663  13.249  33.903   4.116
75338W        W47664  33.542  44.925   3.361
75339W        W47665  27.955  12.789  14.455
75340W        W47666  44.480  40.942  13.507
75341W        W47667  27.058  27.602  14.279
75342W        W47668  24.208  43.830   3.204
75343W        W47669  22.632  10.826  14.939
75344W        W47670  17.745  31.622   2.668
75345W        W47671   0.774  17.262  10.425
75346W        W47672   2.401  26.023  14.982
75347W        W47673  17.127  14.240   0.385
75348W        W47674  15.274  18.782  11.867
75349W        W47675  11.842  21.020   5.188
75350W        W47676  36.392  34.571  14.946
75351W        W47677  34.451  37.343  11.536
75352W        W47678   8.268  13.178  12.424
75353W        W47679  12.353  17.221   1.213
75354W        W47680  10.363  27.005   1.741
75355W        W47681  22.083  30.569  11.088
75356W        W47682  32.985  32.064   4.152
75357W        W47683  40.851   0.800  12.409
75358W        W47684  19.118  24.545   0.437
75359W        W47685  25.680  38.416  11.999
75360W        W47686  34.545  41.814  12.541
75361W        W47687  27.173  29.066   4.350
75362W        W47688   6.247  10.343  10.631
75363W        W47689  15.704  25.121   0.939
75364W        W47690  43.512  39.917  14.980
75365W        W47691  41.041  15.751   1.352
75366W        W47692  11.682  41.464   5.302
75367W        W47693  43.968  41.792  10.902
75368W        W47694  16.203  17.233  13.941
75369W        W47695  21.120  24.629  13.493
75370W        W47696  28.548   3.868  13.449
75371W        W47697  36.095  35.934   5.130
75372W        W47698  23.692  22.683   1.812
75373W        W47699  37.019  34.875  11.075
75374W        W47700  36.867  39.047   1.933
75375W        W47701  39.460  33.531  14.508
75376W        W47702  40.516   5.286   1.248
75377W        W47703  20.272  33.567   1.217
75378W        W47704  27.514  33.969   0.471
75379W        W47705  28.638  15.116   0.734
75380W        W47706  37.880  43.963  12.487
75381W        W47707   1.751  34.910  14.425
75382W        W47708  42.382   4.233   1.830
75383W        W47709  13.133   5.842  12.504
75384W        W47710  39.055  22.713  13.348
75385W        W47711  23.140  16.259   0.787
75386W        W47712  27.154  13.147  14.372
75387W        W47713   2.923  18.574   1.428
75388W        W47714  19.669  32.986   3.307
75389W        W47715  20.271  18.121   2.886
75390W        W47716  23.237   2.367  14.444
75391W        W47717  21.640  19.230  12.368
75392W        W47718  21.643  11.772   3.634
75393W        W47719   2.726  29.948   4.320
75394W        W47720   9.691  44.297  10.600
75395W        W47721  10.342  43.822   0.855
75396W        W47722  41.917   4.415   1.736
75397W        W47723  15.185  32.984   4.347
75398W        W47724  19.122  30.019   4.271
75399W        W47725  27.462  32.551   2.889
75400W        W47726  12.705  43.001  12.879
75401W        W47727  14.798  26.966  12.356
75402W        W47728  19.739  36.511  10.532
75403W        W47729  14.759  12.187   2.320
75404W        W47730  20.167  19.070  10.568
75405W        W47731  29.583  30.551  10.476
75406W        W47732  20.188  19.129   2.409
75407W        W47733  32.966  37.014   3.733
75408W        W47734   8.260  15.638   1.877
75409W        W47735  11.758  23.062  10.594
75410W        W47736  44.896  17.084  10.078
75411W        W47737   8.817  14.725  13.859
75412W        W47738  36.892  14.247  14.018
75413W        W47739  20.057  43.830   1.283
75414W        W47740  21.218   9.713   3.660
75415W        W47741  23.603  42.518   4.745
75416W        W47742  15.185  41.824   4.780
75417W        W47743  19.133  41.294   2.809
75418W        W47744  28.634  12.799  11.934
75419W        W47745  44.414  21.633  10.112
75420W        W47746  32.971  13.801   1.317
75421W        W47747   8.792  16.595  10.558
75422W        W47748  27.594  11.141  12.025
75423W        W47749  24.531   6.890  13.378
75424W        W47750   7.318  15.602   4.129
75425W        W47751  26.997  21.063   4.774
75426W        W47752  25.151   5.295  14.963
75427W        W47753  25.623  16.589   3.677
75428W        W47754  32.459   6.235   4.806
75429W        W47755  14.303  37.389   2.749
75430W        W47756  10.860  23.703  11.082
75431W        W47757  20.573   0.450  14.372
75432W        W47758  33.038  24.521  10.983
75433W        W47759  11.167  13.804   2.226
75434W        W47760  17.161   0.259  10.894
75435W        W47761  30.569  27.165   4.122
75436W        W47762  19.684  26.206   4.662
75437W        W47763  43.910  10.219  13.827
75438W        W47764  27.957  14.596  12.892
75439W        W47765   1.776  28.081  14.460
75440W        W47766  29.924   7.695   0.460
75441W        W47767  14.127  23.028  11.052
75442W        W47768  42.905  35.098   0.245
75443W        W47769  25.503  25.647  14.880
75444W        W47770   5.928  44.437  10.453
75445W        W47771  21.582   8.785  12.052
75446W        W47772  15.215  17.291   4.182
75447W        W47773  16.256   0.455  10.601
75448W        W47774  43.370  35.521   4.238
75449W        W47775  26.020   7.873  13.983
75450W        W47776  21.622  22.702   3.232
75451W        W47777  23.044  11.734  14.932
75452W        W47778  42.851   7.764  12.438
75453W        W47779  36.559   7.180   0.763
75454W        W47780  31.039   9.270  12.465
75455W        W47781  11.839  28.089   0.848
75456W        W47782  10.351  34.608  10.414
75457W        W47783  36.486  28.647   0.421
75458W        W47784  37.956   0.903  10.414
75459W        W47785   5.912  41.841   2.694
75460W        W47786  25.084  26.515   1.736
75461W        W47787   1.266  34.523  14.760
75462W        W47788  16.172   9.338  11.094
75463W        W47789  37.569  16.716   3.647
75464W        W47790   3.745  35.861  11.023
75465W        W47791  31.135   2.925  12.493
75466W        W47792   8.312  21.032  11.600
75467W        W47793  42.997  15.699   2.357
75468W        W47794  13.628  37.565  13.812
75469W        W47795   6.371   3.888   0.474
75470W        W47796  31.048  10.369   2.284
75471W        W47797  41.797  25.615  11.915
75472W        W47798  23.130   5.732  12.437
75473W        W47799  27.565   3.857  14.316
75474W        W47800   5.739  31.904  10.428
75475W        W47801  29.496  28.550   2.415
75476W        W47802   9.651   1.311  12.378
75477W        W47803  23.117   8.194   3.377
75478W        W47804  12.344  33.039   1.815
75479W        W47805  32.012  35.392   0.887
75480W        W47806  39.497  40.455   2.337
75481W        W47807  44.995  40.043   2.712
75482W        W47808  42.951  19.179   3.670
75483W        W47809  34.427  14.268  14.768
75484W        W47810   3.344  41.907  14.485
75485W        W47811   1.385  37.375  14.515
75486W        W47812  38.326  32.899  13.856
75487W        W47813  14.287  23.521  14.494
75488W        W47814  20.642  10.838   0.475
75489W        W47815  33.600  37.057   3.696
75490W        W47816  23.064  21.072   0.484
75491W        W47817  22.619  17.779  14.897
75492W        W47818  39.504  19.124  10.529
75493W        W47819   7.225  21.192   9.960
75494W        W47820  20.757  31.418   2.395
75495W        W47821   3.863  41.938  12.991
75496W        W47822  35.063  22.068  12.936
75497W        W47823  34.606  28.952   1.907
75498W        W47824  14.281  19.642   2.703
75499W        W47825   2.846  25.983  11.908
75500W        W47826  44.926  34.939   2.251
75501W        W47827  27.517   6.684   1.872
75502W        W47828  37.840   0.369   3.199
75503W        W47829  14.335   9.185  14.943
75504W        W47830  19.777  25.022   2.739
75505W        W47831   7.730  29.168   3.788
75506W        W47832  29.079   6.389   2.860
75507W        W47833  18.588   7.235  12.934
75508W        W47834  30.492  27.089  12.047
75509W        W47835  19.761  30.492   4.331
75510W        W47836  37.931  24.161  10.030
75511W        W47837  26.655  13.806  11.128
75512W        W47838  32.475  33.397  14.802
75513W        W47839  24.675  41.348   1.911
75514W        W47840  39.925  14.750   1.425
75515W        W47841  38.456  43.795  12.050
75516W        W47842   1.331  37.060  14.925
75517W        W47843  42.973  31.428  12.410
75518W        W47844  34.575  43.342  13.376
75519W        W47845  35.414   7.844  13.951
75520W        W47846  38.398   8.395  12.466
75521W        W47847  28.441  44.754  14.987
75522W        W47848  24.125  39.508   1.708
75523W        W47849  22.118  23.022   0.927
75524W        W47850  15.677  37.862  10.450
75525W        W47851  23.493  19.704   1.805
75526W        W47852  31.007  41.902  12.386
75527W        W47853  20.110  38.046   3.715
75528W        W47854  23.696   0.935  14.817
75529W        W47855  11.195  28.155   2.736
75530W        W47856  33.525  26.543  12.877
75531W        W47857  13.712  39.027  12.030
75532W        W47858   4.382  16.684   2.816
75533W        W47859  22.709  41.404  14.515
75534W        W47860  15.633  33.438   5.204
75535W        W47861  30.943  25.145   0.954
75536W        W47862  33.569  12.760  10.958
75537W        W47863  39.875   4.230  13.509
75538W        W47864   3.371  18.164  14.872
75539W        W47865  34.098  44.335   0.821
75540W        W47866   9.261   4.255   0.330
75541W        W47867  18.050  17.291  11.994
75542W        W47868  22.542   1.275  11.922
75543W        W47869  22.522  20.700   1.808
75544W        W47870  23.095  30.433  11.000
75545W        W47871   3.744  20.651   4.732
75546W        W47872  15.744  32.493  12.523
75547W        W47873   1.813   9.290  10.594
75548W        W47874  34.875  17.086  11.929
75549W        W47875   1.955  14.111  14.452
75550W        W47876  24.115  22.582  14.830
75551W        W47877  28.583  31.961   3.814
75552W        W47878  26.688  31.510  12.565
75553W        W47879  31.535   3.907   1.768
75554W        W47880  32.945   6.291  10.511
75555W        W47881  13.118   4.881   0.302
75556W        W47882  26.186  33.387  10.967
75557W        W47883  31.013  22.510  14.855
75558W        W47884  32.983   9.362   3.704
75559W        W47885  39.478   0.382  14.999
75560W        W47886  36.414   0.779  12.568
75561W        W47887  25.011   8.240  11.859
75562W        W47888  24.569  31.976   0.964
75563W        W47889  21.119  34.478  13.846
75564W        W47890   6.304   5.857   2.663
75565W        W47891  29.068  19.115   3.661
75566W        W47892  12.828   1.295   0.910
75567W        W47893  13.326   5.322   3.836
75568W        W47894  43.936  10.728  11.388
75569W        W47895  13.197  22.008   4.769
75570W        W47896  23.714   2.822  13.423
75571W        W47897   0.796   8.886   2.292
75572W        W47898   1.468  36.958   1.741
75573W        W47899  32.131  10.764  14.829
75574W        W47900  32.039  23.552   0.320
75575W        W47901  41.362  41.523   3.842
75576W        W47902  43.309  38.390   2.337
75577W        W47903  29.454  14.676  14.767
75578W        W47904  33.965  24.184  14.896
75579W        W47905  35.979  28.055   1.324
75580W        W47906  42.819  38.890  13.541
75581W        W47907   8.185  13.314  13.022
75582W        W47908  21.576  41.039   2.319
75583W        W47909   5.738  41.345  11.587
75584W        W47910  32.547  10.711  14.441
75585W        W47911  21.179  14.778   0.401
75586W        W47912  25.633  42.467   2.209
75587W        W47913  21.162  37.567   0.435
75588W        W47914  44.441   1.481  10.910
75589W        W47915   0.755   9.699   0.846
75590W        W47916   2.923   2.454  12.909
75591W        W47917  28.623  17.100  10.611
75592W        W47918   3.224   5.811  10.429
75593W        W47919  44.446  25.677  11.087
75594W        W47920  43.390  19.752   4.165
75595W        W47921  30.069   8.213   1.733
75596W        W47922  12.831  16.082  13.464
75597W        W47923   5.731  39.909  10.424
75598W        W47924   9.844  44.502   0.271
75599W        W47925  24.504  29.517  12.919
75600W        W47926   1.432  18.658  14.489
75601W        W47927  31.065  12.743  11.020
75602W        W47928  40.052   7.824  10.616
75603W        W47929   6.368   7.790   1.419
75604W        W47930  38.545  31.477   3.300
75605W        W47931  27.073  37.414   5.215
75606W        W47932   7.848  39.317  13.357
75607W        W47933  38.985   6.702  12.376
75608W        W47934   4.357  33.912  14.902
75609W        W47935  35.969  43.809   3.749
75610W        W47936  32.064  14.770  10.979
75611W        W47937  17.739  21.652  10.950
75612W        W47938  21.636  44.390  10.508
75613W        W47939   9.155  14.208   1.807
75614W        W47940  34.454  32.951  10.531
75615W        W47941  26.069   7.893   4.208
75616W        W47942   9.253  30.010   2.670
75617W        W47943  40.011  20.703   3.760
75618W        W47944  14.782  37.880   2.683
75619W        W47945  24.516   3.297  12.021
75620W        W47946  35.582   2.742  10.459
75621W        W47947  38.864   2.778  14.020
75622W        W47948   9.665  40.422  12.929
75623W        W47949  11.284   8.663  12.408
75624W        W47950  36.945  25.593  14.025
75625W        W47951   6.228  17.642   0.464
75626W        W47952  32.457  27.526  14.284
75627W        W47953   3.400  39.064   1.844
75628W        W47954  26.666  28.062   4.319
75629W        W47955  22.641  44.410  10.924
75630W        W47956  41.033  15.209  13.518
75631W        W47957  23.528  30.927  12.830
75632W        W47958  26.487   4.445  10.087
75633W        W47959  31.970   5.789  12.055
75634W        W47960  34.972  28.992   2.734
75635W        W47961  36.020  36.905   4.696
75636W        W47962  18.268  21.689   4.332
75637W        W47963  43.886  30.010   0.482
75638W        W47964  31.510  33.921  11.887
75639W        W47965  13.722   2.324  13.060
75640W        W47966  14.094  31.146  11.382
75641W        W47967  16.288  32.589  13.902
75642W        W47968   1.375  36.540   3.289
75643W        W47969  18.761  15.725  12.076
75644W        W47970  40.048   9.704  10.588
75645W        W47971  19.058  35.024  10.504
75646W        W47972  16.812   6.340   1.326
75647W        W47973   0.488  41.879  11.608
75648W        W47974  36.883  36.576  12.536
75649W        W47975  34.934  36.408   0.954
75650W        W47976  10.335  18.222   3.726
75651W        W47977  19.255   7.215  13.508
75652W        W47978   0.827  23.148   3.292
75653W        W47979   3.378  26.688   5.195
75654W        W47980  34.868  14.259   9.976
75655W        W47981  17.752   9.267   4.122
75656W        W47982   4.232  18.627  12.526
75657W        W47983  43.503   1.437  12.449
75658W        W47984  36.383  12.783   5.271
75659W        W47985  42.373  29.424  10.912
75660W        W47986  20.556  26.584  14.481
75661W        W47987   9.652  10.378  13.372
75662W        W47988  39.990   8.881   0.473
75663W        W47989   0.839  27.167  13.045
75664W        W47990  19.745  35.393   3.695
75665W        W47991  22.706  26.039   0.388
75666W        W47992  32.893  44.766  11.386
75667W        W47993   5.877  28.946   3.805
75668W        W47994  21.250  41.929  12.505
75669W        W47995   9.386  26.074   0.243
75670W        W47996  16.731  15.631   0.439
75671W        W47997  32.105   1.959   3.699
75672W        W47998  19.212   0.277  12.452
75673W        W47999  21.230  26.025   1.793
75674W        W48000  11.338  26.096   5.171
75675W        W48001  24.202   9.267  13.417
75676W        W48002  20.587  36.581   0.905
75677W        W48003  43.949  40.321  13.438
75678W        W48004   9.344  26.671   0.381
75679W        W48005  43.800  42.904   0.300
75680W        W48006  36.905   6.798   3.370
75681W        W48007  41.890  36.025  14.452
75682W        W48008  28.108  38.953   2.311
75683W        W48009  22.596   8.352   9.963
75684W        W48010  17.586   5.899  13.400
75685W        W48011  28.103  43.418  12.375
75686W        W48012  23.101   7.261   3.181
75687W        W48013   2.294  20.115   1.321
75688W        W48014   5.932  14.750  14.785
75689W        W48015  36.544  36.456   0.967
75690W        W48016  22.055  37.525   9.932
75691W        W48017  30.148  27.194  13.828
75692W        W48018   9.359  11.344   1.822
75693W        W48019  40.409  32.015  11.584
75694W        W48020  38.487  10.691   3.235
75695W        W48021  22.743  37.377  12.501
75696W        W48022   2.416  37.582  14.941
75697W        W48023  15.640  39.332   0.330
75698W        W48024   7.724  40.852  10.509
75699W        W48025   7.878   4.277   4.807
75700W        W48026  35.089  42.344   3.370
75701W        W48027  42.963   1.311  14.933
75702W        W48028  34.037   8.224  14.785
75703W        W48029  25.614   4.361  14.281
75704W        W48030   1.302   2.285   5.236
75705W        W48031  21.739  42.315   2.708
75706W        W48032  10.208  20.267   4.716
75707W        W48033  17.108   3.277  12.035
75708W        W48034  34.935   4.218   2.828
75709W        W48035   1.851  31.907  14.382
75710W        W48036  42.355  33.395  13.901
75711W        W48037  30.492  39.526   3.236
75712W        W48038  27.152  34.088  14.421
75713W        W48039  42.525  13.803   2.729
75714W        W48040   7.781  27.633   3.793
75715W        W48041  24.649  27.089   2.277
75716W        W48042   8.864   3.783   3.746
75717W        W48043   1.418  24.610   0.342
75718W        W48044  33.411  26.631   3.774
75719W        W48045  42.499  23.057   0.898
75720W        W48046  40.009   1.379   4.339
75721W        W48047  36.434  17.615  11.861
75722W        W48048  44.424   2.387  10.946
75723W        W48049   8.366  18.687   0.445
75724W        W48050  11.317  32.141  14.967
75725W        W48051  42.985   3.956   4.250
75726W        W48052   7.227   4.851   0.360
75727W        W48053  15.720  43.299   3.795
75728W        W48054  27.091  32.968   3.718
75729W        W48055   8.380  30.909  13.946
75730W        W48056  29.501  40.377  12.575
75731W        W48057  30.060  40.425  11.457
75732W        W48058   4.234  16.685  12.826
75733W        W48059  25.199  29.460  12.051
75734W        W48060  44.495   4.258  14.004
75735W        W48061  37.470   8.269   3.757
75736W        W48062  26.499   8.196  12.913
75737W        W48063  37.489  19.046  10.595
75738W        W48064   0.758  11.833   0.823
75739W        W48065  10.151  17.557  14.953
75740W        W48066  10.744  28.175   4.156
75741W        W48067  24.988  29.542  10.994
75742W        W48068  17.065  25.538  13.014
75743W        W48069  18.662  13.314  10.953
75744W        W48070  43.907  42.351  10.542
75745W        W48071  15.676   0.330   1.224
75746W        W48072  23.194  25.200  11.485
75747W        W48073  10.268  37.078   4.754
75748W        W48074  35.936  40.395  13.978
75749W        W48075  40.324  35.387  14.999
75750W        W48076  18.656  14.121  12.991
75751W        W48077  12.611  41.533   1.769
75752W        W48078  36.032  30.514   2.366
75753W        W48079  17.215  30.457  11.559
75754W        W48080  30.927  40.325   2.754
75755W        W48081  17.237  18.628   2.786
75756W        W48082  24.709  27.955   3.722
75757W        W48083  36.581  15.314  11.856
75758W        W48084  16.743  35.441   2.322
75759W        W48085  11.132  38.445  10.433
75760W        W48086   9.218  27.078   0.299
75761W        W48087  18.556  38.992   4.165
75762W        W48088  13.143   3.938   3.762
75763W        W48089  43.357  10.358  11.903
75764W        W48090  14.795  31.996  10.042
75765W        W48091  11.730  44.438   9.965
75766W        W48092  14.702   8.857  11.485
75767W        W48093  33.086  23.210   4.620
75768W        W48094   3.759   1.911   2.742
75769W        W48095  17.151  38.040   3.721
75770W        W48096  36.969  31.581   1.346
75771W        W48097  11.786  37.069  10.972
75772W        W48098  41.033  38.886  13.521
75773W        W48099  32.445  27.580   3.195
75774W        W48100   4.829  17.305   5.128
75775W        W48101   7.853  24.225  13.332
75776W        W48102  38.905  35.099  12.038
75777W        W48103  32.582  39.501   3.309
75778W        W48104  34.543  39.000   0.926
75779W        W48105  11.679  40.032  11.595
75780W        W48106   0.879  30.442  11.055
75781W        W48107  24.076  26.637  10.892
75782W        W48108   5.217  15.215   4.163
75783W        W48109  36.086  19.637  14.000
75784W        W48110  24.047  43.779   0.331
75785W        W48111  40.012   9.858   3.813
75786W        W48112  31.110  26.161   1.432
75787W        W48113  40.921  35.582  13.410
75788W        W48114  18.662   3.271   5.302
75789W        W48115  13.335   9.235   0.921
75790W        W48116  28.562  14.695   2.323
75791W        W48117  39.853  27.956   2.681
75792W        W48118  26.952   1.277  12.873
75793W        W48119  22.615   4.403   2.863
75794W        W48120   4.401   1.903   1.211
75795W        W48121  30.999   7.412  14.509
75796W        W48122  36.080  35.494   1.389
75797W        W48123  37.026  43.797  10.942
75798W        W48124  43.939  13.154  11.421
75799W        W48125  29.151  18.636  10.441
75800W        W48126  18.781  28.569   4.646
75801W        W48127  11.247  27.461  10.589
75802W        W48128  35.995  13.665  11.439
75803W        W48129   5.795  39.502   4.185
75804W        W48130  10.721   1.766   1.878
75805W        W48131  38.344  41.040   4.177
75806W        W48132  11.166   7.334   1.812
75807W        W48133  16.638  14.652   1.878
75808W        W48134  35.867  20.767  13.036
75809W        W48135  14.267  34.475   1.252
75810W        W48136  19.231  19.257   1.847
75811W        W48137  35.018  25.054   0.426
75812W        W48138  25.022  16.086   2.327
75813W        W48139  30.954  43.331  13.041
75814W        W48140  32.590  41.951   2.847
75815W        W48141  38.428  22.128  14.393
75816W        W48142  42.845  19.699  12.936
75817W        W48143  26.035  38.941  10.475
75818W        W48144  41.330   4.324   1.935
75819W        W48145  30.546  40.014   4.147
75820W        W48146  27.628  31.515   4.624
75821W        W48147  32.902   1.937  14.438
75822W        W48148  33.037   0.897  10.447
75823W        W48149  15.769  37.031  10.523
75824W        W48150  36.548  43.833   4.244
75825W        W48151   7.745  36.571  14.383
75826W        W48152  44.479  38.399   2.734
75827W        W48153  28.681  34.442  12.018
75828W        W48154   7.741  14.811  12.908
75829W        W48155  43.930  26.200   0.403
75830W        W48156  28.159  34.916  11.943
75831W        W48157  27.198  15.659   3.380
75832W        W48158   5.255  43.987   1.322
75833W        W48159  23.003  27.120  14.978
75834W        W48160  14.707  20.563   4.331
75835W        W48161  17.083  33.914  14.809
75836W        W48162   6.210  44.881   0.955
75837W        W48163  23.083  43.509   2.829
75838W        W48164  43.854  20.244  14.314
75839W        W48165   4.299  39.499  13.487
75840W        W48166  33.036  42.435   1.769
75841W        W48167   9.716   0.836   1.834
75842W        W48168  34.952  23.062   4.175
75843W        W48169  29.596  34.915  10.943
75844W        W48170  16.130   3.711  11.120
75845W        W48171   2.458  18.245  14.484
75846W        W48172  39.996  38.821  14.502
75847W        W48173  30.993  26.981  14.771
75848W        W48174  15.806  29.095  10.406
75849W        W48175  40.832  37.955  13.505
75850W        W48176  10.203  20.188   1.451
75851W        W48177   3.268  34.398   0.850
75852W        W48178   4.802  30.008   3.362
75853W        W48179  31.579   3.453  12.553
75854W        W48180  22.220   2.258   0.903
75855W        W48181  27.516  20.195  12.553
75856W        W48182  27.149  23.145  13.451
75857W        W48183   8.655   0.767   4.817
75858W        W48184  33.064  39.820   4.755
75859W        W48185  34.542  41.805  11.993
75860W        W48186  16.775  27.561  11.021
75861W        W48187  44.348  31.557  13.506
75862W        W48188  11.720  29.122  13.994
75863W        W48189  22.035  17.185  14.851
75864W        W48190   3.716  16.799  11.075
75865W        W48191  32.592  30.513   1.910
75866W        W48192  20.765  35.373  14.878
75867W        W48193  34.446  44.755  11.577
75868W        W48194  23.494   6.847  14.308
75869W        W48195  39.816  20.044   2.733
75870W        W48196  17.644  13.656   0.331
75871W        W48197   4.742  12.217   2.258
75872W        W48198  10.710   8.679  12.891
75873W        W48199  28.609  22.724  12.030
75874W        W48200  12.300  41.445   4.727
75875W        W48201  22.054   7.762   1.365
75876W        W48202  24.691  19.698  13.909
75877W        W48203  20.098  26.663   5.249
75878W        W48204  28.134   4.349  10.023
75879W        W48205  41.414  32.609  10.899
75880W        W48206   6.317   5.193   3.741
75881W        W48207  34.881  38.883  11.037
75882W        W48208   0.977  21.678  12.929
75883W        W48209  11.332  44.458  12.476
75884W        W48210  24.583  18.141  12.890
75885W        W48211  35.584  39.855  14.391
75886W        W48212  27.054  25.699   0.928
75887W        W48213  37.951  29.012  14.879
75888W        W48214  32.521  37.426   3.305
75889W        W48215  10.281   2.362  12.558
75890W        W48216  43.791   0.299  11.379
75891W        W48217  28.964  41.464  12.091
75892W        W48218  23.145  38.423  10.534
75893W        W48219  39.926  37.379  13.450
75894W        W48220  28.006  14.653   0.739
75895W        W48221  16.121  22.514   3.815
75896W        W48222  16.690  21.685  13.349
75897W        W48223  25.568   0.837  12.468
75898W        W48224   2.248   7.265   2.258
75899W        W48225   1.784  22.537   4.188
75900W        W48226  11.275  37.530   1.412
75901W        W48227  43.359   2.310   2.210
75902W        W48228   9.646   1.469  10.451
75903W        W48229   3.899  10.878   3.775
75904W        W48230  15.665   5.858   0.742
75905W        W48231  14.636  37.031   4.348
75906W        W48232  31.102  43.462  10.433
75907W        W48233  12.742   3.952  12.438
75908W        W48234  13.700   3.250  14.945
75909W        W48235  18.107  32.582  10.528
75910W        W48236   0.966  25.516   3.356
75911W        W48237  39.486  34.949   4.297
75912W        W48238  26.613  38.027  14.855
75913W        W48239  19.100  11.845   0.420
75914W        W48240  40.491  35.000   2.891
75915W        W48241  16.263  39.972   2.191
75916W        W48242  25.582  20.539   3.834
75917W        W48243  38.920  14.217  11.454
75918W        W48244  40.469  37.442   4.602
75919W        W48245  10.362  42.365  11.095
75920W        W48246  42.383   6.319  10.643
75921W        W48247  34.493  22.738   0.402
75922W        W48248  12.123  12.230   3.326
75923W        W48249  34.528  34.919   4.283
75924W        W48250  37.401  43.842   0.907
75925W        W48251  27.147  25.172   1.438
75926W        W48252  41.468   0.468   0.331
75927W        W48253   3.415  29.919   4.766
75928W        W48254  28.555  16.656  14.371
75929W        W48255  36.047  24.553  10.630
75930W        W48256  25.515  24.089   0.750
75931W        W48257  17.626   9.739   3.209
75932W        W48258  22.712  25.122  14.488
75933W        W48259  41.857  31.065   4.701
75934W        W48260  36.921   2.299   1.819
75935W        W48261   2.905  37.545   4.245
75936W        W48262  16.615  33.953   4.641
75937W        W48263  20.622  25.019  12.951
75938W        W48264   3.920  23.566   9.512
75939W        W48265   0.792  21.208  14.795
75940W        W48266  15.237  20.196  11.913
75941W        W48267   1.825  29.550   0.346
75942W        W48268  26.041  25.061   0.729
75943W        W48269  21.112   4.287   0.363
75944W        W48270  36.516  43.830  13.853
75945W        W48271  42.343  10.212   4.286
75946W        W48272  35.034  33.101  13.939
75947W        W48273  17.259  30.654  14.835
75948W        W48274   9.196  42.486   1.907
75949W        W48275  34.877  34.060  13.064
75950W        W48276   3.860   3.851   3.837
75951W        W48277  39.813  32.994   2.343
75952W        W48278  12.179  11.754  13.424
75953W        W48279  34.370  18.654  14.275
75954W        W48280  27.666  23.092   4.246
75955W        W48281  12.338  30.106   4.680
75956W        W48282  21.515  35.030   0.278
75957W        W48283  21.184  15.092  11.498
75958W        W48284  19.776  10.237   2.304
75959W        W48285  42.856  16.806  10.119
75960W        W48286  27.488  28.088   4.670
75961W        W48287  25.480  16.587  11.479
75962W        W48288  21.724  40.939   1.302
75963W        W48289   4.405  21.196   3.652
75964W        W48290  23.494  15.329   2.179
75965W        W48291   2.835   0.259   2.787
75966W        W48292  34.948  26.954  14.793
75967W        W48293  44.448   1.411  14.841
75968W        W48294  37.002  29.029   1.216
75969W        W48295  42.856  19.773   2.262
75970W        W48296  16.715  23.058   2.390
75971W        W48297  22.010   9.692  11.433
75972W        W48298  42.946  23.504   2.236
75973W        W48299  41.537  10.304  13.061
75974W        W48300  19.250   8.827   1.388
75975W        W48301  43.894   3.746   1.755
75976W        W48302  15.124  34.512   3.250
75977W        W48303  44.390  38.331  12.439
75978W        W48304   1.756   4.323   0.793
75979W        W48305  39.480  44.395  14.346
75980W        W48306  44.313  28.573   0.460
75981W        W48307   9.261  40.361  11.479
75982W        W48308  37.949   6.684  12.029
75983W        W48309  27.180  18.211   2.897
75984W        W48310  16.589  36.008  13.890
75985W        W48311  11.244  39.393  12.538
75986W        W48312  31.475  41.401  12.445
75987W        W48313  39.899  18.111  12.016
75988W        W48314   3.858  32.944   1.320
75989W        W48315  34.418  19.281   3.820
75990W        W48316   4.260   0.270   4.307
75991W        W48317  38.458  26.108  14.770
75992W        W48318  10.298  40.398   2.769
75993W        W48319  37.397   9.883   4.161
75994W        W48320   0.984   4.738   4.160
75995W        W48321  12.298   8.270  10.631
75996W        W48322  15.149  41.889  13.444
75997W        W48323  26.692  25.963  12.920
75998W        W48324  29.567  35.055   4.308
75999W        W48325  38.397   9.823  12.096
76000W        W48326   2.394  19.588   1.726
76001W        W48327  33.095  11.651   3.826
76002W        W48328  12.212  10.713   4.713
76003W        W48329  43.002  14.142  12.096
76004W        W48330  19.181  35.038  13.836
76005W        W48331  29.941  42.302   0.900
76006W        W48332  31.580   9.224  11.894
76007W        W48333   9.813  30.565   4.170
76008W        W48334  18.607  39.976   0.901
76009W        W48335  13.242  30.008  12.391
76010W        W48336  20.572  30.524  11.128
76011W        W48337  12.620  14.758  14.841
76012W        W48338  43.979  23.189   2.412
76013W        W48339   9.371  17.099  11.528
76014W        W48340  16.093  14.253  13.823
76015W        W48341  11.763  35.476   0.726
76016W        W48342  23.527  35.952   1.786
76017W        W48343  24.145  35.020  10.456
76018W        W48344  35.852  18.754   4.703
76019W        W48345  38.953   6.700  12.911
76020W        W48346  29.943  22.196  11.112
76021W        W48347  30.128  18.267  10.977
76022W        W48348  27.666  25.686   4.234
76023W        W48349   9.705  17.252   1.923
76024W        W48350  34.121   5.351  13.037
76025W        W48351   3.336  12.118   4.262
76026W        W48352  26.639  29.009  13.520
76027W        W48353   6.711  14.636   0.347
76028W        W48354   5.398  41.852   4.231
76029W        W48355   7.407  19.709   1.818
76030W        W48356   0.320   2.914   5.121
76031W        W48357  37.343  42.467  10.499
76032W        W48358  15.140  41.868   0.448
76033W        W48359  40.005   9.375   3.249
76034W        W48360   2.347   4.316  13.433
76035W        W48361  39.950  37.042  13.920
76036W        W48362   5.249  21.045   1.367
76037W        W48363  42.937   3.765  14.970
76038W        W48364  21.041  35.359  14.855
76039W        W48365  13.167   1.458  10.405
76040W        W48366  17.619   0.984  10.600
76041W        W48367  15.747  39.468   3.812
76042W        W48368  42.027  14.685  11.095
76043W        W48369  25.638   7.848  10.534
76044W        W48370  44.980  23.209   0.924
76045W        W48371  24.196  15.630  12.065
76046W        W48372  20.173  20.075   4.640
76047W        W48373  20.060  14.202  14.890
76048W        W48374   5.928   6.390   0.816
76049W        W48375  24.088  43.824   0.959
76050W        W48376  42.825  13.732   1.907
76051W        W48377  30.942  28.930   2.277
76052W        W48378  17.116  43.484  14.013
76053W        W48379  12.823  31.411  11.397
76054W        W48380  34.961   2.408  10.595
76055W        W48381  37.360   8.693  12.407
76056W        W48382  27.611  38.039  10.565
76057W        W48383  35.602  10.739   3.274
76058W        W48384  40.539  38.414  12.377
76059W        W48385  11.632   6.707  13.455
76060W        W48386   5.419  29.162  13.900
76061W        W48387  25.623  23.187   4.659
76062W        W48388  41.347  19.244  12.956
76063W        W48389  24.530  12.719  11.403
76064W        W48390  16.581  34.477   4.762
76065W        W48391  33.060   9.363  14.985
76066W        W48392  26.467  31.069   3.192
76067W        W48393  11.861   7.390   2.219
76068W        W48394  15.801  20.560   0.438
76069W        W48395  22.060  37.554   5.115
76070W        W48396  39.825  18.671  10.570
76071W        W48397  21.035  30.464  12.877
76072W        W48398   3.936  21.724   2.296
76073W        W48399  14.299  34.083  10.990
76074W        W48400  31.522   8.292   2.884
76075W        W48401  37.935  41.388  11.586
76076W        W48402  18.775   7.835   1.704
76077W        W48403  36.472  29.508  12.513
76078W        W48404  29.566  27.591  14.901
76079W        W48405   7.172  26.060   3.691
76080W        W48406  41.977   0.316   1.424
76081W        W48407  35.431  10.633   5.095
76082W        W48408  21.233  21.154   3.643
76083W        W48409  10.678   4.219   3.371
76084W        W48410  40.406  41.432   0.791
76085W        W48411   9.375   8.763   4.308
76086W        W48412  34.012  36.516   0.948
76087W        W48413  25.710  25.037  14.301
76088W        W48414  30.122  27.546   9.648
76089W        W48415  25.616   7.699   4.305
76090W        W48416  40.512  24.191   3.824
76091W        W48417  38.837  12.134  12.385
76092W        W48418   8.696  35.371   4.300
76093W        W48419  36.865   8.801  13.833
76094W        W48420  12.356   5.354   2.228
76095W        W48421  11.145   2.750  11.513
76096W        W48422  36.436  24.047  14.975
76097W        W48423  41.796  24.567   4.331
76098W        W48424  43.324  33.066  13.813
76099W        W48425   8.175   4.276  10.968
76100W        W48426  24.053  20.133   2.678
76101W        W48427  28.042  33.597  10.157
76102W        W48428  35.542  39.537  11.919
76103W        W48429  35.462  33.571   9.462
76104W        W48430  27.047  43.801  14.979
76105W        W48431  41.370  18.187   1.923
76106W        W48432  11.725  21.037   1.853
76107W        W48433  22.618  40.340   3.373
76108W        W48434   3.935  32.636  13.366
76109W        W48435   1.297  22.577  11.602
76110W        W48436  20.041  30.112   2.738
76111W        W48437  31.449  31.151   4.252
76112W        W48438  12.638   9.767   1.848
76113W        W48439  26.140  20.258  10.452
76114W        W48440  33.885   8.789  12.553
76115W        W48441  36.348  37.848  11.883
76116W        W48442  19.099  37.375  11.003
76117W        W48443  19.119  20.741   0.853
76118W        W48444   3.452  41.341  13.838
76119W        W48445   9.155  17.631   4.785
76120W        W48446   4.261  30.116   0.367
76121W        W48447  43.379   1.887  13.863
76122W        W48448   4.268  44.501  11.905
76123W        W48449  28.098  33.616  10.404
76124W        W48450  20.188   4.900   3.843
76125W        W48451   8.230  28.114  13.442
76126W        W48452  32.457  28.459  12.525
76127W        W48453  14.736   7.847  13.942
76128W        W48454  12.154  40.515  13.792
76129W        W48455  30.148  21.129   0.734
76130W        W48456  35.005  24.605   4.788
76131W        W48457  21.153  13.684   0.318
76132W        W48458  40.836  36.508   2.775
76133W        W48459  34.947  17.277  11.101
76134W        W48460  25.494  22.581  12.422
76135W        W48461  43.401  23.678  12.579
76136W        W48462   2.808  16.190  13.882
76137W        W48463  24.693  11.845   2.748
76138W        W48464  22.250  18.292  14.969
76139W        W48465  33.554  33.528   1.297
76140W        W48466  34.060  41.458  12.828
76141W        W48467  19.114   8.173  14.328
76142W        W48468  16.730  28.984   4.184
76143W        W48469  15.591   8.861   3.216
76144W        W48470  22.529  14.304   4.123
76145W        W48471  33.001  18.252  14.344
76146W        W48472   6.358  18.065   1.362
76147W        W48473  37.924  32.462  11.952
76148W        W48474   4.776  41.012  13.861
76149W        W48475  34.597  24.190  12.055
76150W        W48476   8.328  44.401   4.294
76151W        W48477  29.130  16.725  14.402
76152W        W48478   0.277  19.619   0.481
76153W        W48479  35.381  40.948   2.676
76154W        W48480   8.821  27.597   1.310
76155W        W48481   2.962   8.761   3.198
76156W        W48482  35.969  19.666  11.561
76157W        W48483  39.875   4.252   4.787
76158W        W48484   3.896  17.212  12.480
76159W        W48485  30.606  14.134  13.790
76160W        W48486  32.637  31.443  13.515
76161W        W48487  26.683  41.794   1.317
76162W        W48488   5.426  40.860  12.546
76163W        W48489  21.186  14.740  10.513
76164W        W48490  27.546  38.423   4.254
76165W        W48491   9.725  42.019   3.310
76166W        W48492  34.577  26.598  11.418
76167W        W48493   2.793  34.116   0.336
76168W        W48494  10.272   3.727  11.902
76169W        W48495  16.106  39.554   2.755
76170W        W48496   0.375  10.315  14.296
76171W        W48497  10.300  16.161   2.326
76172W        W48498  22.088  28.457   1.804
76173W        W48499  31.130  34.973  11.027
76174W        W48500   0.393  27.988  13.896
76175W        W48501  33.048  11.813  13.888
76176W        W48502  33.545  28.575  13.828
76177W        W48503  25.651   9.853   0.256
76178W        W48504  14.134  38.348  11.609
76179W        W48505   4.770  34.987   2.736
76180W        W48506  41.522  38.373  13.801
76181W        W48507  36.567  17.631   0.442
76182W        W48508  24.610  26.650   4.215
76183W        W48509  44.381  36.384   0.311
76184W        W48510  43.439  31.141   1.861
76185W        W48511  43.949   3.280   4.186
76186W        W48512  32.032   7.287   3.701
76187W        W48513  34.925  16.280   0.846
76188W        W48514   9.875   4.730   1.272
76189W        W48515  21.205  43.484   1.400
76190W        W48516  44.377  40.902  12.420
76191W        W48517  37.045  23.102   2.896
76192W        W48518  31.951  37.432   0.279
76193W        W48519  27.168  16.092   1.827
76194W        W48520  26.086  12.124   0.250
76195W        W48521  36.442  34.022  14.417
76196W        W48522  10.721   3.727   3.168
76197W        W48523   3.896  28.988  10.532
76198W        W48524  37.872   5.387   3.737
76199W        W48525  36.065  17.732   2.877
76200W        W48526  37.891  44.899   4.178
76201W        W48527  14.267  23.499   0.787
76202W        W48528  41.365   5.353   3.635
76203W        W48529  44.317  28.095  12.381
76204W        W48530  31.910  43.874  13.511
76205W        W48531  16.702  44.314  11.524
76206W        W48532  42.805  36.871   2.671
76207W        W48533   7.216   4.901  11.432
76208W        W48534  11.277  12.265   4.149
76209W        W48535  38.068  11.131  11.028
76210W        W48536   8.810  37.370   2.671
76211W        W48537   3.873  41.042  13.012
76212W        W48538  21.732   9.310   1.269
76213W        W48539  11.340  11.808   2.832
76214W        W48540  29.616  19.670  10.589
76215W        W48541  39.336  39.356  11.389
76216W        W48542  16.155  34.575  11.414
76217W        W48543  37.432  33.075  12.841
76218W        W48544  39.411  18.139   4.186
76219W        W48545   3.298  38.862  13.897
76220W        W48546  41.970  11.148   2.727
76221W        W48547   4.811  13.635  13.943
76222W        W48548  11.330   1.745  13.440
76223W        W48549  24.134   8.193  10.926
76224W        W48550  12.119   9.820  12.836
76225W        W48551  41.473  23.572   4.702
76226W        W48552  32.464  30.432   2.850
76227W        W48553   3.221  37.490  11.483
76228W        W48554  37.394   3.386   4.660
76229W        W48555  32.069  36.897  10.595
76230W        W48556  20.181  10.285  12.976
76231W        W48557  43.769   2.329  11.405
76232W        W48558   8.228  15.224   3.333
76233W        W48559  12.196  41.879   0.412
76234W        W48560  36.921  12.209   4.161
76235W        W48561  38.559  29.001   2.301
76236W        W48562  12.252  21.232   1.285
76237W        W48563  23.033  38.421   4.135
76238W        W48564   0.856  27.467  11.475
76239W        W48565  38.958  19.582   2.355
76240W        W48566  21.040  34.033  11.892
76241W        W48567  38.548  25.997   4.693
76242W        W48568  12.663   2.797  11.534
76243W        W48569  34.014   0.861  14.794
76244W        W48570  44.262  25.993  10.629
76245W        W48571  14.242  38.388   0.351
76246W        W48572  24.086   3.287  13.326
76247W        W48573  29.045   8.249   3.735
76248W        W48574  19.642   8.890  13.821
76249W        W48575  18.099   0.777   2.346
76250W        W48576  15.772  41.956  14.464
76251W        W48577   4.857  15.300  14.462
76252W        W48578  26.101  42.017  10.540
76253W        W48579   0.379  22.058   5.268
76254W        W48580  28.975  44.453  12.979
76255W        W48581  22.193  18.178   2.343
76256W        W48582  34.579   5.710   2.356
76257W        W48583   0.854  23.591  13.514
76258W        W48584   7.378  39.358   1.437
76259W        W48585  26.991  33.007  14.367
76260W        W48586  37.894   0.963  11.989
76261W        W48587  27.040  27.040  11.598
76262W        W48588  29.932  39.492   2.705
76263W        W48589   8.364   7.214   1.446
76264W        W48590  29.104  18.139   3.168
76265W        W48591  23.197  20.562   4.834
76266W        W48592  40.517  27.002  11.512
76267W        W48593  15.595  17.093  13.384
76268W        W48594  17.639  14.678   0.341
76269W        W48595  39.960  27.996   3.326
76270W        W48596  27.678  11.792  14.867
76271W        W48597  37.391  11.697  11.113
76272W        W48598  34.430   9.697  13.488
76273W        W48599  21.519   8.854  13.412
76274W        W48600  38.333  17.740  10.431
76275W        W48601  32.621   4.421  13.431
76276W        W48602  36.025  20.592   0.315
76277W        W48603  27.000  24.146   4.821
76278W        W48604   1.432  32.438   3.329
76279W        W48605  16.093  17.795  11.115
76280W        W48606   3.389   9.883   4.692
76281W        W48607  13.730  26.992   0.347
76282W        W48608  10.693   7.892  13.851
76283W        W48609   5.433  29.941   1.772
76284W        W48610  44.980  30.931  11.879
76285W        W48611  11.817  39.463  14.931
76286W        W48612  11.292  13.268  14.406
76287W        W48613  39.056  25.529  13.325
76288W        W48614  37.899   2.456   0.370
76289W        W48615  10.173  30.957   4.263
76290W        W48616  22.595  33.491  14.824
76291W        W48617   1.798  11.653   0.355
76292W        W48618  42.842  16.141  14.481
76293W        W48619   3.891  23.142  11.510
76294W        W48620  40.997  20.108   1.923
76295W        W48621  14.106  11.795   1.294
76296W        W48622  28.057  29.108  14.809
76297W        W48623  13.339  32.101   5.243
76298W        W48624   2.286  11.221   4.143
76299W        W48625  20.259   4.239   2.685
76300W        W48626  39.942   1.297   4.616
76301W        W48627  12.287  16.182  10.570
76302W        W48628  35.866  39.558   2.324
76303W        W48629  35.052  13.619  11.581
76304W        W48630  17.271  39.936  11.010
76305W        W48631  41.421   1.892   1.446
76306W        W48632   8.746  27.952   2.372
76307W        W48633  22.159   8.676  11.996
76308W        W48634   6.210   4.206   0.756
76309W        W48635  37.512  15.293  13.852
76310W        W48636  38.459  30.104  10.608
76311W        W48637  16.204  11.269   2.840
76312W        W48638  34.068  35.414   5.638
76313W        W48639  44.823  42.819  10.485
76314W        W48640   1.732  24.203  12.029
76315W        W48641  15.105  40.473   2.196
76316W        W48642  35.109  13.694  13.868
76317W        W48643  25.977  29.603   3.850
76318W        W48644   4.796  20.596   4.213
76319W        W48645  44.308   5.332   3.760
76320W        W48646  40.868  30.577  12.062
76321W        W48647  42.516   5.292   2.180
76322W        W48648  38.384   5.248  14.476
76323W        W48649   8.872   0.796  14.890
76324W        W48650  23.032  38.851  13.932
76325W        W48651  12.145  28.646   4.656
76326W        W48652  26.531  44.825  12.060
76327W        W48653  34.076  14.627  14.954
76328W        W48654   6.229  25.495   4.746
76329W        W48655   5.836   0.267  11.474
76330W        W48656  25.482  21.084   2.348
76331W        W48657   4.319  10.221  12.530
76332W        W48658  24.067  22.131  12.967
76333W        W48659  15.329  21.704  11.023
76334W        W48660  38.401  23.050   1.710
76335W        W48661  32.938   2.760  11.056
76336W        W48662  43.899  40.857  10.454
76337W        W48663  12.137   2.320   3.324
76338W        W48664   5.259  34.445   5.263
76339W        W48665  17.202  37.908  13.064
76340W        W48666  25.575   2.283  13.029
76341W        W48667  24.070   7.398   3.820
76342W        W48668  39.381   7.768   3.729
76343W        W48669  25.583  15.220   0.940
76344W        W48670  29.525  38.486   3.332
76345W        W48671  25.021   1.802  12.396
76346W        W48672   7.688  31.003  12.374
76347W        W48673  34.978  24.651  14.776
76348W        W48674  41.320   0.455   4.222
76349W        W48675   7.896   1.408   3.816
76350W        W48676  23.094  25.057   0.961
76351W        W48677  24.011  36.939  10.464
76352W        W48678   5.844  26.997  11.968
76353W        W48679  28.146  43.824   1.807
76354W        W48680   4.826   1.886   1.910
76355W        W48681  10.844  29.521  13.314
76356W        W48682  36.489  32.635   0.345
76357W        W48683  27.524  29.490  14.396
76358W        W48684  26.972   6.764   1.337
76359W        W48685  43.472  42.987  10.933
76360W        W48686   9.795  14.813  14.777
76361W        W48687  24.668  13.789   4.676
76362W        W48688  28.113  32.993   4.757
76363W        W48689   0.814  23.236   9.631
76364W        W48690  34.946  34.916   5.309
76365W        W48691  17.742  40.444   2.183
76366W        W48692  27.679   4.836  11.584
76367W        W48693   3.731  22.152   1.266
76368W        W48694  15.581  36.419   1.339
76369W        W48695  33.966   4.881  14.855
76370W        W48696  32.462  20.663   1.440
76371W        W48697  19.061  41.297  10.964
76372W        W48698  22.172  29.928  10.413
76373W        W48699  34.987  29.939   3.670
76374W        W48700  44.875  34.531  12.078
76375W        W48701  18.198  42.392  14.419
76376W        W48702  43.396  23.010   1.382
76377W        W48703  10.871  32.978   0.357
76378W        W48704  29.062  11.674   2.382
76379W        W48705  18.715  17.154  13.950
76380W        W48706  14.186  29.601   3.746
76381W        W48707  28.585  30.059  14.949
76382W        W48708  29.136  14.193  11.466
76383W        W48709   3.875  10.761  13.483
76384W        W48710  21.613   8.828   3.818
76385W        W48711  21.558   7.873   3.203
76386W        W48712  20.634  27.044   0.740
76387W        W48713  44.316  35.964   2.288
76388W        W48714  18.721  29.501  13.833
76389W        W48715  41.465  20.747   2.865
76390W        W48716  44.350  38.864  13.362
76391W        W48717   3.774  23.036  12.484
76392W        W48718  22.114   0.968  12.892
76393W        W48719  15.656  22.159  13.798
76394W        W48720  21.173  34.119  13.999
76395W        W48721  38.500   9.821  11.551
76396W        W48722  44.824  27.192   4.768
76397W        W48723  28.520  26.636   3.220
76398W        W48724   0.805  10.862  14.879
76399W        W48725  26.081  16.118   4.142
76400W        W48726  20.261  24.118  14.355
76401W        W48727  32.006   1.830  13.862
76402W        W48728  24.042  37.340   9.495
76403W        W48729  22.202   6.863  13.830
76404W        W48730  23.615  21.746  13.845
76405W        W48731  12.302  24.621   1.337
76406W        W48732  28.589  44.262   3.228
76407W        W48733  23.204  17.256   1.393
76408W        W48734  35.993  40.523  11.568
76409W        W48735  12.319  13.772   2.217
76410W        W48736   7.266  44.858  10.411
76411W        W48737   7.342  40.036  12.386
76412W        W48738  38.028   4.448   2.358
76413W        W48739  15.644  41.295  10.538
76414W        W48740   4.384  31.138  11.477
76415W        W48741  43.458  16.094   2.236
76416W        W48742   2.845  11.158   2.309
76417W        W48743  24.484  10.832  12.512
76418W        W48744  11.720  33.544   5.246
76419W        W48745  41.940   4.224   0.959
76420W        W48746  18.748  42.432   2.405
76421W        W48747  33.944  43.347   1.910
76422W        W48748  35.533  25.649   0.409
76423W        W48749  42.027  35.918   2.669
76424W        W48750   7.268  25.468  10.585
76425W        W48751  21.179   8.296  12.904
76426W        W48752  12.682  28.982  10.957
76427W        W48753   7.784   4.867   1.793
76428W        W48754  34.115   1.328  14.348
76429W        W48755  28.975   4.699   3.334
76430W        W48756  42.391  17.646   2.805
76431W        W48757   7.278  39.903  13.398
76432W        W48758  30.640   2.344  11.003
76433W        W48759  41.982  42.407   1.288
76434W        W48760   1.748   4.370   9.644
76435W        W48761  15.598  34.418   3.345
76436W        W48762   2.838  31.528  11.101
76437W        W48763   9.301  27.559   2.867
76438W        W48764  14.294  36.077   5.653
76439W        W48765  30.016  28.069  10.563
76440W        W48766   0.751   1.976  12.536
76441W        W48767   0.830   8.334  13.897
76442W        W48768   6.888  13.159  11.071
76443W        W48769  12.688   2.421   3.710
76444W        W48770  29.518  36.008   1.812
76445W        W48771   0.343   8.806   0.472
76446W        W48772  27.977   0.889  10.511
76447W        W48773  16.118  19.716  14.437
76448W        W48774   9.184   3.268  13.850
76449W        W48775  37.070  29.081   3.800
76450W        W48776  40.548  23.212   3.318
76451W        W48777  22.605  11.333  10.411
76452W        W48778  23.221  35.099  12.016
76453W        W48779  10.773  22.713  14.386
76454W        W48780  33.089  31.577  12.051
76455W        W48781   6.221  15.813  11.020
76456W        W48782  10.854  34.499  14.843
76457W        W48783  24.521  43.360  12.432
76458W        W48784  31.029   0.934  10.552
76459W        W48785   9.270  14.621  12.845
76460W        W48786  43.828   7.266  12.505
76461W        W48787  19.733  29.577   4.276
76462W        W48788  39.943  42.851   3.669
76463W        W48789  24.074  31.603   4.290
76464W        W48790  14.184  24.489   3.281
76465W        W48791  27.625  37.415   1.407
76466W        W48792   2.774  18.639  14.983
76467W        W48793  25.515  44.267   4.289
76468W        W48794  10.268  17.300  13.444
76469W        W48795  44.470   1.923  13.539
76470W        W48796   6.858  12.158   4.701
76471W        W48797   2.328  17.800   3.868
76472W        W48798  26.077  32.423  10.985
76473W        W48799  41.298   9.323  11.057
76474W        W48800   0.918  17.154  11.505
76475W        W48801  39.517  39.352  11.952
76476W        W48802  28.611   4.255  11.977
76477W        W48803  30.110  14.692   4.302
76478W        W48804  42.452  19.570  13.801
76479W        W48805  34.054  19.124  12.395
76480W        W48806  16.646   1.952  11.506
76481W        W48807  39.544  16.631  14.862
76482W        W48808   1.927  25.484   3.721
76483W        W48809  24.088  40.827  13.025
76484W        W48810  30.419   8.198  13.435
76485W        W48811  19.073  42.373   2.719
76486W        W48812   0.383  31.640  14.415
76487W        W48813  15.777  30.529   1.294
76488W        W48814  29.478   3.919  12.523
76489W        W48815  41.946   7.381   1.861
76490W        W48816  35.399  43.768  14.513
76491W        W48817  13.329   8.242  11.113
76492W        W48818  38.052   0.938   0.254
76493W        W48819   0.259  16.594  12.477
76494W        W48820  35.072  37.902  14.777
76495W        W48821   7.315  44.906   2.319
76496W        W48822  27.618  38.060  11.959
76497W        W48823  25.986  18.700   2.679
76498W        W48824   7.280  25.544   2.411
76499W        W48825  38.972  24.025  10.055
76500W        W48826  21.154   1.759   0.820
76501W        W48827   5.423   5.796   4.647
76502W        W48828  18.094  13.620   0.348
76503W        W48829   7.863  21.149  10.023
76504W        W48830  19.700  26.976   1.806
76505W        W48831  14.652  31.509   1.257
76506W        W48832   4.271  40.465   3.318
76507W        W48833  21.732  36.384   2.829
76508W        W48834   3.349   9.244   5.775
76509W        W48835   9.785   4.334  12.455
76510W        W48836  41.441  30.997  12.398
76511W        W48837  44.419  26.202  13.548
76512W        W48838  21.630   0.258  11.907
76513W        W48839  16.249  36.909   2.847
76514W        W48840  38.976  27.041  14.028
76515W        W48841  40.799  42.436  11.036
76516W        W48842  31.467  11.748   2.835
76517W        W48843  37.956  31.605   4.640
76518W        W48844  43.339  26.075  12.988
76519W        W48845  13.123  34.566  14.305
76520W        W48846  37.054   7.269  12.935
76521W        W48847  10.707  18.694   0.466
76522W        W48848  43.909  11.324  12.346
76523W        W48849  33.562   7.818  13.467
76524W        W48850  11.640   4.321   2.356
76525W        W48851  24.561  21.134  14.373
76526W        W48852  20.039  43.873  13.383
76527W        W48853  41.496  41.833  10.496
76528W        W48854   6.803  29.488   3.792
76529W        W48855  29.545  38.865  12.960
76530W        W48856  20.723   5.206   2.897
76531W        W48857  34.048  20.030  10.461
76532W        W48858  18.206  24.682   4.652
76533W        W48859  14.760   0.341   3.707
76534W        W48860   1.370  32.455  14.940
76535W        W48861  19.713   8.758   5.136
76536W        W48862   7.667   1.911  10.452
76537W        W48863  41.999  29.643   0.778
76538W        W48864  18.089  42.328  13.468
76539W        W48865  40.492  28.087   1.304
76540W        W48866  11.829  19.648  11.075
76541W        W48867  17.148  23.987  12.480
76542W        W48868   2.265  28.615   1.750
76543W        W48869  26.487  14.828  13.873
76544W        W48870   1.341   1.354   3.788
76545W        W48871  21.556  27.610   4.141
76546W        W48872  32.063  17.657  11.902
76547W        W48873  22.678  10.346   2.400
76548W        W48874  29.661  24.680   0.822
76549W        W48875  36.446  29.532  11.487
76550W        W48876  13.825  22.151  12.410
76551W        W48877  31.564   1.940   2.403
76552W        W48878  11.822  14.629   1.703
76553W        W48879  16.570  35.951   1.358
76554W        W48880   2.246  35.488   3.164
76555W        W48881   4.241  22.146   3.368
76556W        W48882  30.040  36.890  10.476
76557W        W48883   1.364  13.766  11.985
76558W        W48884  10.321  18.617  12.095
76559W        W48885  10.726  22.062   2.705
76560W        W48886  20.686   8.896   3.213
76561W        W48887  25.142  24.042  10.480
76562W        W48888  23.704   2.392   3.699
76563W        W48889  36.354  21.612   2.309
76564W        W48890   6.213   3.947  13.051
76565W        W48891  15.642  30.025  11.877
76566W        W48892  38.540  10.680   2.308
76567W        W48893  21.017  24.563  12.908
76568W        W48894  36.544  18.760   1.348
76569W        W48895  10.185  33.397   4.677
76570W        W48896  17.568  43.893   4.203
76571W        W48897  22.714  15.194   0.276
76572W        W48898  13.111  32.083   4.606
76573W        W48899  25.698   9.227   0.844
76574W        W48900  32.996  37.860   1.776
76575W        W48901   0.981  19.561  14.285
76576W        W48902   2.922  28.515   2.750
76577W        W48903  43.871  42.462  12.438
76578W        W48904   9.682   4.398   1.241
76579W        W48905   5.298   8.824   2.686
76580W        W48906  38.342  27.960  12.494
76581W        W48907  18.240   8.196   0.856
76582W        W48908  31.571  17.071  11.041
76583W        W48909  20.111  24.526  13.822
76584W        W48910  21.215   1.884   2.688
76585W        W48911  36.510   7.359  13.048
76586W        W48912  34.494  36.366   5.306
76587W        W48913  12.657  36.556  13.063
76588W        W48914  14.648  26.066  13.344
76589W        W48915  34.446  40.391   1.276
76590W        W48916   2.852  23.086   4.344
76591W        W48917  11.153  24.627  10.990
76592W        W48918  17.609   2.940  12.490
76593W        W48919   0.842  24.226  14.328
76594W        W48920  26.528  40.906  13.024
76595W        W48921   1.928   1.246  14.928
76596W        W48922  19.570  28.093  12.525
76597W        W48923   7.197  32.994  10.529
76598W        W48924  10.783  28.561   0.269
76599W        W48925  32.564  15.213  10.542
76600W        W48926  15.126  44.314  14.442
76601W        W48927  27.615  25.005   1.326
76602W        W48928   0.437  34.586   1.793
76603W        W48929  36.451  38.826  12.967
76604W        W48930  17.189   5.431   4.336
76605W        W48931   3.916  37.960  14.473
76606W        W48932  37.556  12.775   3.640
76607W        W48933  23.723  23.589  14.970
76608W        W48934   8.183  27.136   4.688
76609W        W48935  31.957  14.642   2.710
76610W        W48936  26.126  12.689   2.215
76611W        W48937   2.783  13.220   2.249
76612W        W48938  42.370   1.364  13.959
76613W        W48939  37.500  42.809  12.974
76614W        W48940   2.364  36.357   3.638
76615W        W48941  19.058  27.642  12.377
76616W        W48942  18.084  33.883  14.857
76617W        W48943  32.086  28.535   1.381
76618W        W48944   5.241  22.109  14.431
76619W        W48945   6.213  33.903   2.773
76620W        W48946  15.099  40.503   1.729
76621W        W48947  15.140  27.153  13.961
76622W        W48948  13.231  19.567  12.006
76623W        W48949  11.174   7.189  14.866
76624W        W48950  30.158   7.399  13.500
76625W        W48951  27.552  31.557  11.562
76626W        W48952  12.741   4.236   3.677
76627W        W48953  13.821  43.946  13.471
76628W        W48954  21.240  31.610  13.489
76629W        W48955  22.527  24.628   1.223
76630W        W48956  34.409  27.449  12.050
76631W        W48957  30.434   2.417  14.895
76632W        W48958  12.230  33.998  10.890
76633W        W48959  37.853   6.342  12.975
76634W        W48960  17.181  15.707   1.863
76635W        W48961  22.532  27.031   2.721
76636W        W48962   5.408  13.187   1.416
76637W        W48963   6.807  27.010  13.046
76638W        W48964  19.064  25.708  11.856
76639W        W48965  10.859  30.164  14.360
76640W        W48966  33.904  25.568   0.274
76641W        W48967  26.615  42.526   0.873
76642W        W48968   7.803  20.178   2.252
76643W        W48969  22.681  40.012  14.388
76644W        W48970  19.780  42.796   3.696
76645W        W48971  43.430  37.524   3.686
76646W        W48972   0.315   2.722   1.382
76647W        W48973  15.635  29.047  12.954
76648W        W48974  43.812  33.910  10.538
76649W        W48975   2.313  30.450  12.036
76650W        W48976   5.721   0.448  14.814
76651W        W48977  27.102   8.232  13.000
76652W        W48978  30.954  44.982   3.182
76653W        W48979   3.832  37.058   0.936
76654W        W48980  40.305  24.102  12.871
76655W        W48981  22.589  37.403  11.608
76656W        W48982   8.304  18.071   0.871
76657W        W48983  18.636  27.099   4.263
76658W        W48984  21.131  18.072  10.542
76659W        W48985  38.537   1.391   3.821
76660W        W48986   8.231  14.182   0.937
76661W        W48987  28.933   0.821   1.245
76662W        W48988   0.744  36.524   2.210
76663W        W48989   1.974  26.186   4.335
76664W        W48990  31.626  33.999   0.769
76665W        W48991   9.189  24.717   3.374
76666W        W48992  35.949  16.173   1.932
76667W        W48993  11.845   0.883  10.621
76668W        W48994  29.612   3.344   4.753
76669W        W48995  36.026  24.666  13.812
76670W        W48996   9.663  18.623   0.310
76671W        W48997  14.198  21.527   1.817
76672W        W48998  15.670   9.213  14.351
76673W        W48999  27.076  42.455  12.932
76674W        W49000  35.103  27.035   4.618
76675W        W49001  21.622  27.655  13.064
76676W        W49002  12.844  29.143  13.463
76677W        W49003  21.713   8.731   4.326
76678W        W49004  24.550   7.784   4.285
76679W        W49005  32.484  20.725  10.909
76680W        W49006   0.759  34.013   3.766
76681W        W49007  17.558  21.693  12.015
76682W        W49008  13.647  22.143   1.878
76683W        W49009  17.292  40.351   3.790
76684W        W49010   4.863  21.732  14.462
76685W        W49011  43.317  16.661  13.841
76686W        W49012  36.963  18.697   4.626
76687W        W49013  20.586  18.762  12.019
76688W        W49014  13.208  33.927   4.782
76689W        W49015   6.860   6.773  14.305
76690W        W49016   6.293   1.302  13.854
76691W        W49017   5.252  19.207  14.811
76692W        W49018   5.833   7.835   4.660
76693W        W49019  33.504  42.992  14.336
76694W        W49020  30.426   4.942  12.510
76695W        W49021  11.739  17.728   2.856
76696W        W49022  27.121   0.845   1.768
76697W        W49023  20.177  28.038  13.968
76698W        W49024  20.532  33.395   4.617
76699W        W49025  22.083  13.707  13.341
76700W        W49026  20.549  40.911  13.949
76701W        W49027  24.081  11.706  10.485
76702W        W49028  41.848  30.603  10.142
76703W        W49029  21.538  23.184  13.319
76704W        W49030   8.873  21.202   2.736
76705W        W49031  28.117   1.331   1.762
76706W        W49032  32.391   3.316   5.258
76707W        W49033  26.202  30.134   2.805
76708W        W49034  24.195  39.357   1.267
76709W        W49035  23.123   1.299  11.960
76710W        W49036  37.465  34.920   1.444
76711W        W49037   1.927   1.473   4.790
76712W        W49038  18.292  23.498  13.795
76713W        W49039  16.661  29.930  13.356
76714W        W49040  38.554   3.830  11.033
76715W        W49041  39.411  28.040  13.466
76716W        W49042  19.663  11.286  11.899
76717W        W49043  27.453   2.338  10.904
76718W        W49044   4.370   0.466  12.573
76719W        W49045  18.682  20.535  11.399
76720W        W49046  22.517  37.079  10.133
76721W        W49047  13.656  18.648  14.299
76722W        W49048  20.602  42.814   1.778
76723W        W49049  21.603  16.254  11.419
76724W        W49050  37.409  24.025   1.348
76725W        W49051   1.417  39.382  10.484
76726W        W49052  31.140  37.851   4.731
76727W        W49053  13.627  15.742  13.827
76728W        W49054   0.449   4.279  13.329
76729W        W49055  19.252  15.269   1.323
76730W        W49056  37.487  36.925   1.802
76731W        W49057  28.567  18.159  12.048
76732W        W49058   6.425   7.375   2.877
76733W        W49059  39.414  34.911   2.226
76734W        W49060  41.896  20.129   3.845
76735W        W49061   6.850   6.220   0.292
76736W        W49062   6.304  26.528   4.792
76737W        W49063  29.147  43.348   0.898
76738W        W49064  36.953  35.532   3.776
76739W        W49065  10.250   4.731   4.742
76740W        W49066  22.733   4.715  10.626
76741W        W49067  16.761  17.712   2.232
76742W        W49068  10.232  25.712   2.375
76743W        W49069   3.942  25.667  13.887
76744W        W49070  37.923   2.370  14.323
76745W        W49071  27.671  25.667   1.239
76746W        W49072  19.200  21.737  14.797
76747W        W49073  29.454  38.946   4.177
76748W        W49074  12.736  27.513  11.054
76749W        W49075  10.268   8.321  10.913
76750W        W49076  24.639  26.193  13.838
76751W        W49077   3.885  27.060  14.372
76752W        W49078   2.461   2.425  14.895
76753W        W49079  31.597   3.771  14.770
76754W        W49080  38.465  38.560   2.668
76755W        W49081  27.136  40.501  10.964
76756W        W49082  33.130  32.956   3.290
76757W        W49083  31.638  29.150  12.475
76758W        W49084  12.795   6.411  11.920
76759W        W49085   7.181  25.562   1.748
76760W        W49086  12.308  43.895  10.902
76761W        W49087  11.621   1.911  14.803
76762W        W49088  27.183  29.619   0.355
76763W        W49089  13.344  36.973   1.238
76764W        W49090  14.118  16.262  10.610
76765W        W49091  14.744  17.140   4.639
76766W        W49092  14.316   8.216   0.778
76767W        W49093   4.805  11.717   4.324
76768W        W49094  12.800  40.045   1.873
76769W        W49095  22.066  35.416   0.968
76770W        W49096   9.732   7.258  13.349
76771W        W49097  38.347   5.912  13.492
76772W        W49098  44.814  28.074  10.149
76773W        W49099  25.122   0.262   1.438
76774W        W49100  30.443  37.911  13.393
76775W        W49101  26.003  17.195  10.994
76776W        W49102  31.113   5.873   1.376
76777W        W49103  40.959  16.231  11.902
76778W        W49104  43.359  20.201   0.455
76779W        W49105  15.313  11.166  10.627
76780W        W49106  33.917  11.216  10.622
76781W        W49107  19.622  38.835   3.784
76782W        W49108   2.358  26.012  13.350
76783W        W49109  43.973  27.687   1.918
76784W        W49110  14.097   3.438   1.290
76785W        W49111  31.598   2.243   4.305
76786W        W49112  36.022  20.553   4.348
76787W        W49113   6.228   6.871   1.378
76788W        W49114  15.658  25.602  14.781
76789W        W49115  41.835  19.679  14.483
76790W        W49116  34.468  27.030   1.263
76791W        W49117  32.108  20.032  11.395
76792W        W49118  14.796  24.627   2.673
76793W        W49119  44.928  25.031  14.874
76794W        W49120  19.220  27.037   0.896
76795W        W49121  33.568   3.730  13.014
76796W        W49122  16.114  36.092   2.703
76797W        W49123  33.481  19.682  13.516
76798W        W49124  13.762  26.497   5.720
76799W        W49125  12.162  13.782   3.749
76800W        W49126  39.980  16.612  11.932
76801W        W49127  39.339  10.660   3.684
76802W        W49128  28.032  15.780   5.301
76803W        W49129  29.070  24.988  10.017
76804W        W49130  11.833  28.536   1.815
76805W        W49131   1.837  40.026   2.191
76806W        W49132   4.869  25.011   0.407
76807W        W49133  21.651  21.704  13.938
76808W        W49134  33.499  15.716  12.381
76809W        W49135  23.037   4.347   4.616
76810W        W49136  43.000  21.719   3.709
76811W        W49137  14.102   4.391   4.141
76812W        W49138  44.363  34.602  11.968
76813W        W49139  15.652  15.792   1.230
76814W        W49140  11.278   2.812   2.315
76815W        W49141   9.872  19.733  13.396
76816W        W49142   2.790   1.301   5.758
76817W        W49143  26.588   6.233   3.660
76818W        W49144  34.873  12.663  10.477
76819W        W49145  21.060  11.800  10.945
76820W        W49146   9.816  28.436   0.300
76821W        W49147  34.387   9.671  10.936
76822W        W49148  36.897  33.507  11.609
76823W        W49149  10.196   2.389   0.872
76824W        W49150   7.346  27.612  14.894
76825W        W49151   0.439   5.377  14.347
76826W        W49152  13.156  28.512  10.591
76827W        W49153   1.927  24.177   0.795
76828W        W49154   2.881  34.599  10.638
76829W        W49155   9.240  44.993   0.254
76830W        W49156  16.214  17.296   2.897
76831W        W49157   2.405  31.529  10.643
76832W        W49158   7.872  44.355   1.793
76833W        W49159   5.916  34.012  14.412
76834W        W49160  17.714  43.952  12.852
76835W        W49161  25.533  13.340   3.284
76836W        W49162  35.548  37.402   2.838
76837W        W49163  42.331  10.204  10.123
76838W        W49164   0.947  27.045   4.208
76839W        W49165  41.031  15.613   3.734
76840W        W49166  30.477   0.283  13.058
76841W        W49167  38.927   1.463   0.914
76842W        W49168  43.003  43.468   2.360
76843W        W49169  44.758  19.576   3.636
76844W        W49170  28.165  16.620   9.970
76845W        W49171  21.664   2.455  14.463
76846W        W49172  18.760  33.398  10.067
76847W        W49173  18.249  38.864  11.574
76848W        W49174  35.877  26.119   4.324
76849W        W49175  19.231   6.347   3.665
76850W        W49176  39.476   2.965  13.893
76851W        W49177  39.847  12.298  11.099
76852W        W49178  39.824  16.246  10.621
76853W        W49179   7.409  31.132   1.895
76854W        W49180  10.256   8.768   2.794
76855W        W49181   2.788  32.985   2.314
76856W        W49182  39.952   0.805   4.320
76857W        W49183  17.189  17.796  13.489
76858W        W49184  12.723  36.490   3.353
76859W        W49185  34.091  14.785   0.964
76860W        W49186  32.525  42.413  14.844
76861W        W49187   4.827  44.375   0.371
76862W        W49188  36.032   3.782  14.778
76863W        W49189  28.469  19.610  14.833
76864W        W49190  44.466  31.913  12.846
76865W        W49191  35.597   3.311   0.840
76866W        W49192  13.168   4.418  13.805
76867W        W49193  35.395  12.619  10.960
76868W        W49194  14.633  17.100   3.761
76869W        W49195  19.729  10.294   3.338
76870W        W49196  20.729  28.532   1.713
76871W        W49197   5.725  33.932  10.452
76872W        W49198   0.271   3.350   3.838
76873W        W49199  23.022  40.357   1.224
76874W        W49200  27.175   5.920  14.760
76875W        W49201   6.401  11.654   3.150
76876W        W49202  40.313  41.964   4.614
76877W        W49203  26.621  40.477  12.829
76878W        W49204  10.148  11.144   2.252
76879W        W49205  26.540  16.650   3.248
76880W        W49206  36.020  15.787  13.435
76881W        W49207  22.532  20.149   1.885
76882W        W49208  14.669  40.850  10.991
76883W        W49209  17.573  23.548   3.180
76884W        W49210  15.236   6.912   1.224
76885W        W49211  14.736   4.354  12.344
76886W        W49212   6.307   8.237   3.786
76887W        W49213  36.948  16.622   3.812
76888W        W49214  21.099  32.511   3.791
76889W        W49215  27.596  33.959   2.319
76890W        W49216   8.780  27.943   4.721
76891W        W49217   8.398  11.793  14.789
76892W        W49218  22.517   1.912  14.840
76893W        W49219  39.328  29.491   0.782
76894W        W49220   3.933  22.742  14.280
76895W        W49221  31.925  11.666   4.323
76896W        W49222  14.183  37.502  12.012
76897W        W49223  12.227  27.456   4.732
76898W        W49224   5.285  30.431  12.360
76899W        W49225  26.119  11.769  12.522
76900W        W49226  27.664   5.365  11.416
76901W        W49227  14.216   9.876  13.809
76902W        W49228  32.099  32.401   3.286
76903W        W49229   9.224   6.908   0.275
76904W        W49230   7.392  20.108   4.267
76905W        W49231  20.169  31.547   1.870
76906W        W49232  29.094  17.182  10.560
76907W        W49233   7.744  42.432   0.929
76908W        W49234  19.263  14.179  11.448
76909W        W49235  16.079  24.011   4.750
76910W        W49236   7.764  30.977   1.737
76911W        W49237  22.068  26.052  11.397
76912W        W49238  40.495  32.921  10.628
76913W        W49239  11.852  25.578  12.458
76914W        W49240  41.939  33.427   3.344
76915W        W49241  41.868  42.291  10.546
76916W        W49242  26.565  19.744  13.062
76917W        W49243  11.824  44.389   3.253
76918W        W49244   4.378  26.555   1.763
76919W        W49245  24.592   3.797   3.265
76920W        W49246  15.180  24.147   4.609
76921W        W49247   8.722  24.200   4.798
76922W        W49248  31.003  10.278   4.796
76923W        W49249  23.202  38.065  12.578
76924W        W49250   4.387  38.334  11.985
76925W        W49251   2.813  21.086   4.790
76926W        W49252  40.360   1.465   2.288
76927W        W49253  11.170  42.976   0.483
76928W        W49254  25.197   7.704  10.959
76929W        W49255  29.611  30.617  11.455
76930W        W49256  34.554  12.344   2.229
76931W        W49257  30.571   7.289   2.876
76932W        W49258  38.526  44.337   4.303
76933W        W49259  32.989  20.163   0.264
76934W        W49260  27.126  23.572  12.356
76935W        W49261  36.566  33.954   5.167
76936W        W49262  39.469  34.490  13.027
76937W        W49263   3.756  16.192   2.327
76938W        W49264  28.602   1.479  12.517
76939W        W49265   3.942  15.187   0.737
76940W        W49266  40.478  13.646  12.561
76941W        W49267  34.864   8.226  12.480
76942W        W49268  33.585  24.079  13.406
76943W        W49269  29.049   5.924   4.634
76944W        W49270  25.496   0.330  12.964
76945W        W49271   9.266  32.614   2.341
76946W        W49272   6.203  30.911   4.161
76947W        W49273  12.326  32.121  10.902
76948W        W49274  32.009  14.293  12.877
76949W        W49275  13.693   8.769  11.024
76950W        W49276   3.279  14.670   3.778
76951W        W49277  24.576  31.115   0.282
76952W        W49278  40.954  26.106  13.390
76953W        W49279  36.927   9.689   1.751
76954W        W49280  15.589  33.592  13.425
76955W        W49281   0.380  30.959   1.393
76956W        W49282  16.180  14.228   4.680
76957W        W49283  21.560   0.909   1.338
76958W        W49284   5.867  20.222   3.310
76959W        W49285   8.878  21.648   2.723
76960W        W49286  32.603  37.550  13.806
76961W        W49287  32.407  32.546  12.868
76962W        W49288  39.877  27.650  14.979
76963W        W49289   0.827   5.439   4.696
76964W        W49290  35.038  31.615  10.604
76965W        W49291   1.770  30.467  11.036
76966W        W49292   8.831  42.018  14.775
76967W        W49293  14.766  23.053   0.836
76968W        W49294  18.127   5.266   0.916
76969W        W49295  37.553  13.228   4.244
76970W        W49296  32.061  39.523   0.374
76971W        W49297  42.953  42.370   2.202
76972W        W49298  37.525  31.434  11.541
76973W        W49299  15.260  31.480   1.865
76974W        W49300  41.944   6.901   0.344
76975W        W49301  12.717   8.855  11.544
76976W        W49302  43.299  11.666  13.831
76977W        W49303   7.881   1.335  13.325
76978W        W49304  37.456  10.171   1.772
76979W        W49305  12.621  10.275   3.290
76980W        W49306   9.716  28.029  12.351
76981W        W49307  16.177  10.246   4.823
76982W        W49308  16.632  11.192   4.214
76983W        W49309  15.280  27.017  12.521
76984W        W49310   4.386  16.105   1.409
76985W        W49311  28.933  30.460  13.058
76986W        W49312  17.654  40.028   0.749
76987W        W49313  16.173  44.843  14.777
76988W        W49314  19.128  10.337   4.677
76989W        W49315  13.800  11.270   4.247
76990W        W49316   4.366  44.888  14.294
76991W        W49317   8.334  43.907  11.967
76992W        W49318  19.557   4.907  12.392
76993W        W49319  31.952   8.880  10.562
76994W        W49320  23.596   9.706  14.863
76995W        W49321  39.553  31.119  14.509
76996W        W49322  34.556  34.120  11.499
76997W        W49323  28.508  29.547   1.353
76998W        W49324  15.245   7.803   2.902
76999W        W49325   5.698  38.874   2.363
77000W        W49326  24.483  39.999  14.901
77001W        W49327   6.758  38.376  11.915
77002W        W49328  27.077  31.468  11.545
77003W        W49329   6.205   6.897  10.472
77004W        W49330  29.981  16.574   0.440
77005W        W49331  22.088  28.671   0.840
77006W        W49332  38.449  27.563  13.435
77007W        W49333  29.094  37.882  12.408
77008W        W49334   9.232  10.283   3.319
77009W        W49335  32.886  39.329   2.262
77010W        W49336   6.258  23.597  12.994
77011W        W49337  44.877  20.645  10.426
77012W        W49338   8.234  19.673   0.252
77013W        W49339   2.423  30.949  14.842
77014W        W49340  34.563   5.365   3.152
77015W        W49341  36.417   0.354   3.817
77016W        W49342   5.787  41.419   0.310
77017W        W49343  34.901  24.089  11.887
77018W        W49344  28.146  43.342  13.401
77019W        W49345  16.610  17.236   4.190
77020W        W49346   1.897   9.374  11.472
77021W        W49347  26.564  42.974  10.502
77022W        W49348  42.955  25.009  11.113
77023W        W49349   5.924   6.320  12.478
77024W        W49350  15.579  27.049   2.859
77025W        W49351   8.766   5.329   2.854
77026W        W49352  44.855   1.401   1.745
77027W        W49353  22.051  20.222  14.813
77028W        W49354  41.404  42.909   2.720
77029W        W49355  16.251   3.387  11.032
77030W        W49356  18.155  34.399   2.687
77031W        W49357  32.428  43.277   4.824
77032W        W49358   0.384  33.115   3.296
77033W        W49359  27.601   2.343   4.654
77034W        W49360  38.997  43.963  12.953
77035W        W49361  24.012  44.851  12.577
77036W        W49362  26.108  31.993  13.955
77037W        W49363  15.754  39.058  11.999
77038W        W49364   6.812  32.428   3.315
77039W        W49365   4.714  20.238   4.293
77040W        W49366  28.637  23.173   1.228
77041W        W49367  29.132  16.137  13.057
77042W        W49368   2.264  33.004  14.409
77043W        W49369   9.809  23.661   1.906
77044W        W49370  12.325   9.165  13.407
77045W        W49371  32.019  17.248  12.508
77046W        W49372  34.512  24.128   1.705
77047W        W49373   0.769   0.369  11.455
77048W        W49374  10.690  24.540   2.416
77049W        W49375  35.873  13.793   0.882
77050W        W49376  41.451  35.894  10.478
77051W        W49377  19.585   9.760  13.496
77052W        W49378  31.456   0.880   1.862
77053W        W49379  26.977  28.577   0.951
77054W        W49380  37.923  14.324  10.478
77055W        W49381   0.480  25.196  12.994
77056W        W49382   0.288  15.813  14.463
77057W        W49383  31.085  30.650   1.231
77058W        W49384  10.748  21.755   2.790
77059W        W49385  18.252   3.253  13.441
77060W        W49386   5.246  33.965   0.399
77061W        W49387   6.677  37.361   3.741
77062W        W49388  42.298  15.638   3.708
77063W        W49389   3.874   6.844  13.882
77064W        W49390  12.305  17.704  13.816
77065W        W49391   4.815  23.499   4.154
77066W        W49392  27.115  28.511  11.499
77067W        W49393   1.275   1.968  12.052
77068W        W49394  22.035   3.907   4.159
77069W        W49395  14.257  30.936  13.494
77070W        W49396  27.454  29.991   3.830
77071W        W49397   9.247  39.951  12.880
77072W        W49398   1.365  25.473   0.739
77073W        W49399  21.515  30.086  14.430
77074W        W49400  31.964  13.845   1.913
77075W        W49401  32.634  35.551   3.149
77076W        W49402  32.557  12.190   3.842
77077W        W49403  43.790   7.850  11.496
77078W        W49404   6.317  38.001   4.693
77079W        W49405  44.290  10.817  14.989
77080W        W49406  13.241  37.340   2.899
77081W        W49407  40.871   0.441   4.744
77082W        W49408  33.107   8.754   1.875
77083W        W49409  44.770  34.067  11.080
77084W        W49410   4.253  35.512   2.672
77085W        W49411  42.020  29.431   1.825
77086W        W49412   8.678   3.787   2.903
77087W        W49413   3.846  22.030  11.572
77088W        W49414  16.247  15.820  13.945
77089W        W49415  25.021  38.941  10.567
77090W        W49416  10.778  20.719  12.006
77091W        W49417  32.083  31.463  10.506
77092W        W49418  29.631  32.059   3.215
77093W        W49419  30.482  12.361  12.375
77094W        W49420  26.972  41.891  12.489
77095W        W49421  15.681  33.924  11.573
77096W        W49422   0.302   3.409   3.173
77097W        W49423  11.282  28.062  12.422
77098W        W49424   5.223   6.275  10.434
77099W        W49425  35.550   7.895   1.721
77100W        W49426   4.773  28.455  14.379
77101W        W49427   3.759  32.602   3.324
77102W        W49428  18.201  14.116  13.483
77103W        W49429   9.392  41.404   0.800
77104W        W49430  30.435   4.931   2.757
77105W        W49431  43.483  24.995   2.744
77106W        W49432  10.187  29.617   1.250
77107W        W49433  42.019  37.555  12.990
77108W        W49434  14.254  21.074   2.695
77109W        W49435  12.346  20.144   3.151
77110W        W49436   5.696  10.643   0.279
77111W        W49437   5.231  26.110  14.460
77112W        W49438  22.572  20.751  11.119
77113W        W49439  19.285  30.965  13.516
77114W        W49440  27.495  19.112   3.160
77115W        W49441  34.945   9.246   4.836
77116W        W49442  16.762  22.250   4.665
77117W        W49443  24.041  32.561  11.915
77118W        W49444  24.993  23.037  13.489
77119W        W49445  23.521  43.313  12.948
77120W        W49446  31.463  17.145  10.598
77121W        W49447  42.466  17.283   4.212
77122W        W49448   3.848  18.133  13.053
77123W        W49449  36.556  20.642  12.397
77124W        W49450  38.540   1.857   0.883
77125W        W49451  17.247  44.419  10.038
77126W        W49452  34.604  28.678  11.441
77127W        W49453  37.395  10.683   0.878
77128W        W49454   5.406  32.984  11.916
77129W        W49455  35.014   0.488  13.369
77130W        W49456   6.300  17.775  12.385
77131W        W49457  35.927  44.921   2.860
77132W        W49458   9.203  14.299  10.607
77133W        W49459  41.454  25.619  14.295
77134W        W49460  35.526   0.904  13.031
77135W        W49461  29.927  16.618  10.930
77136W        W49462  33.527  16.134   4.213
77137W        W49463  28.131  16.764   2.871
77138W        W49464  12.144  26.100  12.499
77139W        W49465  40.842  12.827  12.558
77140W        W49466  11.138  22.647   3.635
77141W        W49467   9.867  44.430  13.865
77142W        W49468  13.215  32.575  10.887
77143W        W49469   9.755  42.898   0.782
77144W        W49470   7.403  17.304   0.243
77145W        W49471  18.128  10.184   0.748
77146W        W49472  35.098   1.901   4.232
77147W        W49473  32.548  39.016   2.764
77148W        W49474   5.787  35.466   2.760
77149W        W49475  10.308  34.395  11.909
77150W        W49476   0.947  44.413  13.503
77151W        W49477   5.915  14.629  13.807
77152W        W49478  38.957  14.707   2.300
77153W        W49479  32.095   0.935   3.732
77154W        W49480  19.548  16.734  12.960
77155W        W49481  37.872  27.549   1.702
77156W        W49482   1.288  24.505  14.378
77157W        W49483   6.918  36.052   2.397
77158W        W49484  40.839  23.671   4.146
77159W        W49485  25.122  15.743   2.409
77160W        W49486  39.471  30.961  12.952
77161W        W49487  12.280  14.607  11.550
77162W        W49488  29.974   9.822   1.295
77163W        W49489  20.208  33.515   0.248
77164W        W49490  12.176  16.084  12.987
77165W        W49491  38.421  14.747  11.875
77166W        W49492   9.807  41.972   3.760
77167W        W49493  43.013  34.102  13.045
77168W        W49494  43.979  28.033   0.752
77169W        W49495  42.031   4.720  12.065
77170W        W49496  26.078  29.594   3.217
77171W        W49497  44.347   0.292   2.720
77172W        W49498  32.914  32.528  11.928
77173W        W49499  27.536   3.335  11.053
77174W        W49500  27.540  36.978  14.400
77175W        W49501  20.734  11.198  14.961
77176W        W49502  17.162  40.511   2.228
77177W        W49503  11.229   0.784   2.790
77178W        W49504  12.612  18.717   1.404
77179W        W49505  38.862   9.303  10.527
77180W        W49506  27.501  20.765   0.861
77181W        W49507  38.487   7.245  12.536
77182W        W49508  10.292  40.026   1.822
77183W        W49509  11.844   5.393  10.920
77184W        W49510  29.121  19.616  12.460
77185W        W49511   5.836  35.867  11.915
77186W        W49512  30.025  17.561   2.821
77187W        W49513  37.908  28.088   3.302
77188W        W49514  22.179   5.888  13.883
77189W        W49515  30.468  18.124   2.324
77190W        W49516   8.337  33.580  12.947
77191W        W49517  21.707   4.436  11.932
77192W        W49518  35.937  30.995   3.281
77193W        W49519  13.337  26.985  10.506
77194W        W49520  22.156  20.185  10.562
77195W        W49521  39.893  28.599   3.831
77196W        W49522  27.593  35.095   3.179
77197W        W49523  10.276   5.848   3.663
77198W        W49524   9.295  16.775   3.387
77199W        W49525  29.480  31.523   4.725
77200W        W49526  34.880   4.431   0.323
77201W        W49527  34.390   5.199  12.039
77202W        W49528  31.974   2.842  11.904
77203W        W49529  18.104  42.473   3.755
77204W        W49530  41.029  17.674   4.643
77205W        W49531  32.419  13.732   2.743
77206W        W49532  30.103  23.022   4.339
77207W        W49533   4.940  24.069   2.375
77208W        W49534  23.198  14.339   1.780
77209W        W49535   0.292   8.164   3.318
77210W        W49536  23.227  11.214  14.463
77211W        W49537  10.212  14.677  14.840
77212W        W49538  28.974  10.826   2.329
77213W        W49539  44.501  33.409   0.909
77214W        W49540  30.042  30.637  11.579
77215W        W49541   5.878  25.146   0.771
77216W        W49542   9.390  12.321  10.486
77217W        W49543  23.202  26.540   0.393
77218W        W49544  20.559  16.277   4.648
77219W        W49545   4.239  14.188   0.734
77220W        W49546  13.337  28.957  10.108
77221W        W49547  37.370  18.281  14.435
77222W        W49548  16.310  34.929  14.822
77223W        W49549  15.206  23.606   3.867
77224W        W49550  15.733  21.067  10.532
77225W        W49551  32.476  20.593   2.188
77226W        W49552  20.125  18.599  11.976
77227W        W49553  22.606   0.771  12.059
77228W        W49554  25.501  33.385  12.895
77229W        W49555  22.662  31.585  10.983
77230W        W49556  17.784   7.222   1.445
77231W        W49557  39.339  40.850   2.332
77232W        W49558  16.625   7.276   1.714
77233W        W49559  42.822   9.731   3.780
77234W        W49560  18.104   4.375   4.197
77235W        W49561  26.606  15.305   2.330
77236W        W49562  38.949  10.259   4.179
77237W        W49563  31.048   0.954   3.706
77238W        W49564  17.717  44.343  10.971
77239W        W49565  40.403  10.861  12.417
77240W        W49566   0.835   9.838   3.370
77241W        W49567  19.752  35.921   1.729
77242W        W49568  44.302  21.025   0.741
77243W        W49569  30.106   3.365   3.318
77244W        W49570  43.938  36.036  14.966
77245W        W49571  12.685  14.618   1.432
77246W        W49572  34.901  30.562   4.305
77247W        W49573  11.168  23.155   4.647
77248W        W49574  21.624  43.815  11.879
77249W        W49575   7.371  26.116   0.814
77250W        W49576   8.288  17.563   2.801
77251W        W49577  15.779  29.975   0.280
77252W        W49578   2.230  21.096   4.802
77253W        W49579   8.697  25.156  14.992
77254W        W49580  18.124   9.236  13.838
77255W        W49581  16.088  24.001   3.809
77256W        W49582  37.565   4.818   0.768
77257W        W49583  41.840  34.922   3.637
77258W        W49584  44.387  34.882   1.882
77259W        W49585  26.510  25.031   3.267
77260W        W49586  42.836  42.897   5.148
77261W        W49587  22.197  27.515   2.848
77262W        W49588  37.909  21.749   3.181
77263W        W49589  29.020  26.520   2.736
77264W        W49590  20.740  26.194   4.717
77265W        W49591   4.303   1.438  14.297
77266W        W49592  37.949  43.422   3.728
77267W        W49593  34.864  19.718  12.941
77268W        W49594  24.703  43.779  13.327
77269W        W49595  16.708  33.984   0.408
77270W        W49596  38.911  26.082   2.859
77271W        W49597  21.099  25.096   0.944
77272W        W49598  26.473  30.620   4.317
77273W        W49599  25.091   9.206  14.970
77274W        W49600  11.866  16.304  14.765
77275W        W49601  44.266  39.053  12.096
77276W        W49602   3.869   4.842   2.222
77277W        W49603  25.016  20.752   3.744
77278W        W49604  31.012  33.915  12.015
77279W        W49605   0.799   7.717   1.367
77280W        W49606  12.698  24.140  11.434
77281W        W49607  42.885   9.359  11.521
77282W        W49608   5.934  10.265  13.492
77283W        W49609  37.415  23.029   1.371
77284W        W49610  26.584  13.834  14.389
77285W        W49611  43.911  33.452  13.367
77286W        W49612  28.179  42.936  14.832
77287W        W49613  21.017  21.017  11.373
77288W        W49614  28.585  31.979   2.277
77289W        W49615  38.849  41.296   0.484
77290W        W49616  40.898  31.943  13.875
77291W        W49617   9.258  10.783   3.730
77292W        W49618  16.693  23.700  14.903
77293W        W49619  23.155  35.424   1.785
77294W        W49620   8.763   6.293   0.417
77295W        W49621   9.776  20.081   3.805
77296W        W49622  17.641  41.461   4.211
77297W        W49623   3.733  35.468  13.911
77298W        W49624  23.038  26.952  14.424
77299W        W49625  44.961  19.717   1.323
77300W        W49626  36.005  33.092   4.262
77301W        W49627  19.160  38.946   1.843
77302W        W49628  24.141  29.451  14.304
77303W        W49629  34.557  20.689  13.866
77304W        W49630  14.664   6.897  14.879
77305W        W49631  15.687  37.578   0.873
77306W        W49632   5.765   3.366  11.100
77307W        W49633  42.922   9.753   2.809
77308W        W49634  39.062   5.816   1.755
77309W        W49635  17.566   5.813   0.862
77310W        W49636  16.619  35.549   1.409
77311W        W49637  21.154  16.085  11.013
77312W        W49638  16.187  32.460  14.286
77313W        W49639  44.960  11.831   4.317
77314W        W49640  43.381  35.997  11.921
77315W        W49641  35.984  14.197   3.781
77316W        W49642  18.766  21.529  13.921
77317W        W49643   2.882   6.900   4.344
77318W        W49644  42.342  27.189   3.208
77319W        W49645  14.308  42.295   3.748
77320W        W49646  42.503  32.064   3.688
77321W        W49647  23.615  14.718   0.441
77322W        W49648  29.456  35.906  14.514
77323W        W49649  22.737   2.724  13.512
77324W        W49650  43.835  34.978   2.363
77325W        W49651  44.912  17.196   0.321
77326W        W49652  39.001  26.482  14.013
77327W        W49653  40.539   0.929   3.385
77328W        W49654   3.445   8.275   1.310
77329W        W49655  22.070  17.772   4.641
77330W        W49656  23.530  36.483   0.815
77331W        W49657   2.226  16.708   4.115
77332W        W49658  27.133  11.810  13.966
77333W        W49659  27.668  11.655  14.441
77334W        W49660  31.042  13.816  12.398
77335W        W49661   6.312  21.650   1.380
77336W        W49662  28.576  14.230   4.723
77337W        W49663  44.822  24.168   0.483
77338W        W49664  10.263  13.758  11.867
77339W        W49665  26.495  39.393  14.924
77340W        W49666   1.805  29.025  12.463
77341W        W49667   4.211  41.461   0.422
77342W        W49668   8.223  44.479  12.860
77343W        W49669   0.902  15.686   0.462
77344W        W49670  31.028  14.797   3.372
77345W        W49671  22.536  37.884  14.981
77346W        W49672   9.368  22.520  12.374
77347W        W49673  34.404  36.364   3.741
77348W        W49674  32.480  10.667  12.885
77349W        W49675  11.741  19.162  11.954
77350W        W49676   4.894  44.331  12.945
77351W        W49677  30.165  24.175   3.348
77352W        W49678  19.069  21.217  13.007
77353W        W49679  28.565  40.888  10.901
77354W        W49680  34.553  39.490   1.837
77355W        W49681   9.308  12.727  12.838
77356W        W49682  32.408  31.468  11.991
77357W        W49683  41.983  23.513  12.375
77358W        W49684  10.724  31.622  12.489
77359W        W49685  40.380  19.759  12.424
77360W        W49686  37.864  39.899   2.882
77361W        W49687   7.252  17.742   3.684
77362W        W49688  31.030  43.812   0.889
77363W        W49689  38.971  14.225   3.803
77364W        W49690  32.422   9.210   3.344
77365W        W49691  44.843  35.368  11.863
77366W        W49692  34.038  33.431  14.990
77367W        W49693  29.130  30.423  10.626
77368W        W49694  29.167  20.185  11.101
77369W        W49695  13.674  16.297   0.426
77370W        W49696  36.025  14.246  10.460
77371W        W49697  41.898   0.981  10.416
77372W        W49698   9.703  42.880   3.696
77373W        W49699   4.335  34.961   0.435
77374W        W49700   7.881  12.292   1.714
77375W        W49701   1.337  18.232   4.227
77376W        W49702  16.786   6.852   4.804
77377W        W49703   8.399  18.189   3.708
77378W        W49704   6.196  24.140  13.986
77379W        W49705   4.803  39.851   1.277
77380W        W49706  40.463   5.801  12.932
77381W        W49707  36.462  10.649  13.999
77382W        W49708  40.812  38.077   1.861
77383W        W49709  25.583   5.198  13.548
77384W        W49710  34.572  16.763  12.940
77385W        W49711   8.898   5.361   3.152
77386W        W49712  17.580  21.109   2.208
77387W        W49713  33.956  41.918   0.353
77388W        W49714   2.344  15.155  13.828
77389W        W49715  31.426  20.674  12.500
77390W        W49716  28.650  44.786   2.718
77391W        W49717   5.337  39.497   0.373
77392W        W49718   4.276  43.020  14.410
77393W        W49719  19.708   3.794  13.865
77394W        W49720  27.458  19.073  14.306
77395W        W49721   9.655   7.677  12.914
77396W        W49722  13.118   2.310   1.882
77397W        W49723  29.663  39.366  13.053
77398W        W49724  35.032  21.064  10.926
77399W        W49725  35.917  39.005   5.193
77400W        W49726   3.764  38.455  14.474
77401W        W49727  26.500   3.808   2.758
77402W        W49728  38.944  33.472  12.341
77403W        W49729   8.740  31.620   4.657
77404W        W49730  18.117  37.035   2.283
77405W        W49731   6.310  20.764  11.111
77406W        W49732   4.861   5.917  11.487
77407W        W49733  44.927   5.406   3.303
77408W        W49734  32.035  40.411  14.398
77409W        W49735  10.343  35.903  10.440
77410W        W49736   8.863   9.720   3.327
77411W        W49737   1.849  13.234  12.380
77412W        W49738  33.977  39.374  10.900
77413W        W49739  26.538  20.151  13.356
77414W        W49740  43.359  43.979  12.898
77415W        W49741  16.188   0.829  12.827
77416W        W49742  26.157   2.863  10.921
77417W        W49743   2.820  37.517   1.821
77418W        W49744  37.916  30.599   3.741
77419W        W49745   1.827  38.349  11.422
77420W        W49746  22.548  13.629   4.159
77421W        W49747  19.597  36.573  13.470
77422W        W49748  12.255   4.377  12.539
77423W        W49749  26.539  22.558   0.965
77424W        W49750   0.958   9.263  14.764
77425W        W49751  20.148  23.988  13.820
77426W        W49752   7.205  41.031  13.848
77427W        W49753  28.641   4.785   1.912
77428W        W49754   0.856  17.794  11.913
77429W        W49755  16.167  12.837   2.698
77430W        W49756  27.476  33.549  13.894
77431W        W49757  35.361  18.160   0.951
77432W        W49758  38.376  14.225  11.582
77433W        W49759   3.742  14.197  10.436
77434W        W49760  37.065  19.284   4.341
77435W        W49761   3.789   6.192   2.896
77436W        W49762  17.069  36.999  14.763
77437W        W49763   7.193  31.477   4.783
77438W        W49764  31.519  41.997   1.828
77439W        W49765  42.369  18.190   4.632
77440W        W49766  20.666  30.063  13.920
77441W        W49767  14.689   8.713  14.773
77442W        W49768  29.586  25.017   4.786
77443W        W49769  27.040  13.783  11.956
77444W        W49770   1.325  26.170  14.996
77445W        W49771   1.929  23.098   3.284
77446W        W49772   0.383  38.827   1.337
77447W        W49773  11.667  35.010   0.401
77448W        W49774  10.338   1.264  11.948
77449W        W49775  44.929   2.799  13.941
77450W        W49776  17.248  25.981  10.510
77451W        W49777  13.836  40.969   4.649
77452W        W49778   7.745   7.333   1.344
77453W        W49779  20.220  20.057  13.947
77454W        W49780   1.394  40.988   1.434
77455W        W49781  20.596  24.122  12.509
77456W        W49782  13.194  39.903  12.468
77457W        W49783  27.594  42.783   3.175
77458W        W49784  19.179   9.190   1.750
77459W        W49785  40.368   7.781  11.001
77460W        W49786   2.432  11.160  14.029
77461W        W49787  22.649  33.129   4.122
77462W        W49788  19.282  30.163  12.829
77463W        W49789  38.923  39.034  14.971
77464W        W49790  34.047   0.856   2.671
77465W        W49791  30.569  41.906  12.994
77466W        W49792  42.931   0.391  12.839
77467W        W49793  19.226  19.241  12.023
77468W        W49794  28.955  25.205  12.400
77469W        W49795  22.090  23.490   1.774
77470W        W49796  38.041  36.454  12.882
77471W        W49797  10.647  28.948   0.864
77472W        W49798   9.781  39.395   4.711
77473W        W49799  44.410  13.124   2.411
77474W        W49800   5.748   7.736   3.662
77475W        W49801  12.705  16.180   1.441
77476W        W49802   0.824  26.602  14.820
77477W        W49803  38.519   1.739   2.204
77478W        W49804   6.344  38.834  14.453
77479W        W49805   1.806  42.300   0.727
77480W        W49806  38.513  23.064   3.693
77481W        W49807   7.205  13.281  14.025
77482W        W49808   6.801   8.901   2.412
77483W        W49809  30.089  14.233   0.472
77484W        W49810  11.666  13.286   2.401
77485W        W49811  22.066  35.019  13.446
77486W        W49812  25.992   2.340  13.818
77487W        W49813   6.378  36.564  14.433
77488W        W49814  14.316  36.406   3.306
77489W        W49815  44.503  37.973  10.931
77490W        W49816  31.044  21.590   3.292
77491W        W49817  26.700  29.071   2.757
77492W        W49818   7.178   0.749   1.288
77493W        W49819  37.566  44.998  12.918
77494W        W49820  34.981   1.842   1.901
77495W        W49821  35.972   5.718  12.406
77496W        W49822   2.369  44.462  13.335
77497W        W49823  32.029   4.802  12.385
77498W        W49824  30.460   9.643   0.263
77499W        W49825  21.057   4.439   4.819
77500W        W49826  38.033   4.823  12.487
77501W        W49827  39.828  11.798   0.949
77502W        W49828  30.630  28.493  13.347
77503W        W49829  10.322  26.132   2.877
77504W        W49830  23.228  25.150   2.694
77505W        W49831  22.716  11.623   4.309
77506W        W49832  13.760  26.154   1.776
77507W        W49833   4.349  44.808  13.030
77508W        W49834  20.571   4.337   0.731
77509W        W49835  30.493  44.996   2.186
77510W        W49836   4.209  11.131  14.903
77511W        W49837  16.168  43.010   3.194
77512W        W49838  30.066   6.885  12.393
77513W        W49839  35.478   6.792  13.014
77514W        W49840  16.315  33.115   2.414
77515W        W49841  30.947  40.481  13.526
77516W        W49842  44.827  19.075   1.272
77517W        W49843  25.143  28.166   4.232
77518W        W49844  22.610  35.377  12.474
77519W        W49845  13.211   6.212  14.306
77520W        W49846  19.088  34.458  13.845
77521W        W49847  15.611   7.317   3.296
77522W        W49848  11.715  18.293   1.920
77523W        W49849  24.040  28.620  11.515
77524W        W49850  24.712  44.449  11.026
77525W        W49851  42.845  11.697   4.202
77526W        W49852   2.838  23.226   3.832
77527W        W49853  35.560  13.323  12.465
77528W        W49854  12.806  37.918   0.304
77529W        W49855   4.387  44.793   2.367
77530W        W49856  35.383   9.253   2.780
77531W        W49857   0.887  37.869  10.992
77532W        W49858  36.880  17.175   2.194
77533W        W49859  31.973  10.685  12.883
77534W        W49860  36.031   7.742  11.077
77535W        W49861   0.376  32.954   0.446
77536W        W49862  37.406  18.777   4.761
77537W        W49863  43.994   1.387  12.543
77538W        W49864  34.006  25.003  13.847
77539W        W49865  28.680  27.561  11.112
77540W        W49866  24.498  41.509  11.608
77541W        W49867   4.421  28.452   2.320
77542W        W49868  18.721  33.453   3.146
77543W        W49869  42.350  25.212   2.677
77544W        W49870  39.841  23.199   0.480
77545W        W49871  23.175  39.355   0.962
77546W        W49872  27.666  14.281   2.689
77547W        W49873   9.224  33.419  13.886
77548W        W49874  31.101  10.822  14.488
77549W        W49875   1.274  21.133   0.323
77550W        W49876   0.879   9.719  10.889
77551W        W49877  32.087   6.820  11.430
77552W        W49878  20.754  22.541  13.477
77553W        W49879  31.025  14.642   1.438
77554W        W49880  35.501   0.282   3.239
77555W        W49881  37.580  33.934   2.688
77556W        W49882  36.568  30.949  11.471
77557W        W49883  41.008   5.699  14.516
77558W        W49884   1.358  31.619  11.082
77559W        W49885  23.071  44.498   2.306
77560W        W49886  37.894   7.345   2.391
77561W        W49887  12.230  11.206  13.325
77562W        W49888   6.336  37.560   4.755
77563W        W49889  40.926  21.255  12.381
77564W        W49890  22.570  20.084   2.404
77565W        W49891   9.279  19.622  14.003
77566W        W49892  40.906  41.908   1.835
77567W        W49893  40.929  10.858   1.283
77568W        W49894   0.967   3.334   4.172
77569W        W49895   2.809   4.778  13.452
77570W        W49896  41.517   4.333   0.388
77571W        W49897  14.158  23.995  11.504
77572W        W49898  15.281  12.348  14.327
77573W        W49899   6.315  39.516  11.859
77574W        W49900  15.140   2.271  13.377
77575W        W49901  35.491  27.147   0.819
77576W        W49902   3.236  19.690  14.889
77577W        W49903  15.589  16.278   0.397
77578W        W49904  18.574  36.857   1.249
77579W        W49905   3.863   6.918  14.345
77580W        W49906   8.870  18.695   2.748
77581W        W49907   8.238  28.111  14.765
77582W        W49908   2.366  14.804  13.416
77583W        W49909  17.793  29.138   2.189
77584W        W49910  30.125  28.125  12.855
77585W        W49911  38.523  29.139  12.015
77586W        W49912   9.203  12.626   3.348
77587W        W49913   4.405  26.086   0.375
77588W        W49914   7.863  15.772  12.354
77589W        W49915  40.540  25.037  12.974
77590W        W49916   1.968   9.683   2.728
77591W        W49917  42.007   4.754  13.360
77592W        W49918   2.436  34.479   4.156
77593W        W49919  39.523  28.507   2.836
77594W        W49920   9.269  25.071  10.543
77595W        W49921  33.487  41.397   3.282
77596W        W49922  34.871  19.130   0.342
77597W        W49923  35.013  44.291  10.450
77598W        W49924  30.947  34.015   0.377
77599W        W49925  29.485  44.844   2.814
77600W        W49926  31.987  14.622   1.737
77601W        W49927  34.026  37.512   4.738
77602W        W49928  34.959  40.370   1.807
77603W        W49929  12.265  44.293  12.950
77604W        W49930  10.798   8.237   0.258
77605W        W49931   1.918  15.321  12.825
77606W        W49932  36.890  29.042  14.312
77607W        W49933   6.897  27.576  11.573
77608W        W49934  12.742  27.671   3.702
77609W        W49935   7.686  41.450  14.914
77610W        W49936   8.812   1.244   2.243
77611W        W49937   2.934  21.148   9.650
77612W        W49938  29.055  20.557   1.278
77613W        W49939  41.883  26.153   4.706
77614W        W49940  25.012  21.522  13.014
77615W        W49941  28.541  39.463   3.778
77616W        W49942  19.232  38.946   4.725
77617W        W49943  36.415  25.049  14.905
77618W        W49944  22.719   8.389  14.815
77619W        W49945   0.420  11.628  11.031
77620W        W49946  13.126  20.741   3.638
77621W        W49947   8.862  24.588   0.393
77622W        W49948  24.214  10.365  11.541
77623W        W49949  37.551  44.919  11.492
77624W        W49950  33.431  43.302   1.911
77625W        W49951  38.896   0.851   3.169
77626W        W49952  31.561  18.235  14.996
77627W        W49953  24.165   6.829  11.108
77628W        W49954  21.625  16.600  11.065
77629W        W49955  29.001  14.627   1.732
77630W        W49956   3.231  18.256   0.917
77631W        W49957  22.249   0.765   3.362
77632W        W49958  23.233  28.625   1.768
77633W        W49959  14.285  20.769   4.716
77634W        W49960  33.958  20.672  11.978
77635W        W49961   7.826  30.966  10.493
77636W        W49962  27.582  42.862   0.956
77637W        W49963  24.589  12.811  12.356
77638W        W49964  18.121  25.044  12.023
77639W        W49965  27.102  17.715   2.323
77640W        W49966   9.358  43.965  12.428
77641W        W49967   8.701  36.081  12.388
77642W        W49968   3.231  39.381  13.836
77643W        W49969  27.139  14.600  13.910
77644W        W49970  39.462  17.730  12.962
77645W        W49971  11.754  32.526  13.877
77646W        W49972  33.932  19.126   0.429
77647W        W49973  32.082  29.166  13.326
77648W        W49974  44.776  31.087   0.949
77649W        W49975   7.671  19.252   0.796
77650W        W49976  17.087  21.234   1.388
77651W        W49977  18.095  36.991  14.374
77652W        W49978  33.420  30.631  10.480
77653W        W49979  36.882  14.665   3.367
77654W        W49980   7.696  29.978   4.290
77655W        W49981  40.532  12.184   4.204
77656W        W49982  42.826  30.141   1.286
77657W        W49983  12.851   2.803  12.960
77658W        W49984  20.077  27.066  13.008
77659W        W49985   3.845  22.529  14.900
77660W        W49986  34.597  39.432  11.497
77661W        W49987  12.214  34.976   2.203
77662W        W49988   1.409  32.433  13.392
77663W        W49989  14.160  32.974   9.955
77664W        W49990  35.518  29.622   1.240
77665W        W49991  17.637  11.830   1.920
77666W        W49992  28.516  13.111   3.812
77667W        W49993  35.406  34.466   0.338
77668W        W49994   6.792   6.859   2.210
77669W        W49995  14.189  30.163   2.336
77670W        W49996  28.180  15.620  11.428
77671W        W49997  19.101  28.585   2.724
77672W        W49998  32.427  29.921   3.290
77673W        W49999  28.038   0.755  12.921
77674W        W50000  29.604  14.679   0.946
77675W        W50001  18.146   1.435   2.701
77676W        W50002  20.162  42.804  11.498
77677W        W50003   5.772   2.406   0.366
77678W        W50004  21.566   2.393   4.206
77679W        W50005  43.990  16.080  12.524
77680W        W50006  37.834  24.979  13.921
77681W        W50007  32.956  23.651  14.843
77682W        W50008  35.408  10.287  12.547
77683W        W50009  30.608  27.643  14.442
77684W        W50010  18.616  24.229  13.943
77685W        W50011  33.000   0.416  13.328
77686W        W50012   9.883  27.971  11.999
77687W        W50013  31.102  40.494  11.532
77688W        W50014   7.774  26.571   3.719
77689W        W50015   6.375  24.698   2.791
77690W        W50016  11.850  28.971   4.270
77691W        W50017  30.013  34.430  11.048
77692W        W50018  33.123   1.286  12.463
77693W        W50019  23.087   4.319  13.979
77694W        W50020  38.481  35.363   4.682
77695W        W50021   4.301  27.592  14.321
77696W        W50022  25.664  34.572   0.839
77697W        W50023  17.750  33.944  10.580
77698W        W50024  20.174   1.265   4.765
77699W        W50025   1.778  39.971  14.509
77700W        W50026  40.049   5.834  13.468
77701W        W50027  25.557   7.702   2.687
77702W        W50028  16.726   8.813  13.894
77703W        W50029  30.908  33.010  13.367
77704W        W50030  24.054  11.272  12.864
77705W        W50031  25.211   2.849   2.690
77706W        W50032   4.763   9.874   2.213
77707W        W50033  27.531  14.720   2.298
77708W        W50034   3.946  14.106   4.760
77709W        W50035  33.500  24.682   0.396
77710W        W50036   1.323  15.710  12.467
77711W        W50037  30.575  42.439  11.965
77712W        W50038   6.342  12.202   0.815
77713W        W50039  11.858  23.564  14.437
77714W        W50040   5.370  40.463   0.943
77715W        W50041   3.880  36.085  11.544
77716W        W50042  21.540   8.351   2.306
77717W        W50043   8.339   0.272   0.939
77718W        W50044  17.572  28.033   3.734
77719W        W50045  20.568  26.046  13.307
77720W        W50046  16.156  27.186  11.878
77721W        W50047  42.421  28.596   2.782
77722W        W50048   0.831   6.379  12.409
77723W        W50049   5.896   8.361   0.863
77724W        W50050  17.772   1.258   4.833
77725W        W50051  34.092  42.002  13.452
77726W        W50052  42.830  19.768  10.893
77727W        W50053  13.710   7.303  14.508
77728W        W50054  17.214  21.225   1.817
77729W        W50055  11.623  26.654  10.623
77730W        W50056   3.782  28.547  14.324
77731W        W50057   8.800  33.470   0.952
77732W        W50058  37.070  21.117  14.310
77733W        W50059  27.670  41.839   2.334
77734W        W50060  42.516   1.446  14.413
77735W        W50061  43.287   5.788  14.862
77736W        W50062  39.905  42.972   1.323
77737W        W50063  28.472  22.510   4.614
77738W        W50064  37.855  40.460   4.190
77739W        W50065  10.374  38.828   2.218
77740W        W50066  33.464   2.952  14.017
77741W        W50067  35.430  11.236  11.383
77742W        W50068  10.685   1.971  12.472
77743W        W50069  16.098  12.820  12.459
77744W        W50070  13.265  38.501   1.288
77745W        W50071   5.402   3.842   3.263
77746W        W50072   2.726  39.889   3.371
77747W        W50073  44.809  21.053   0.333
77748W        W50074  29.084  25.137  14.912
77749W        W50075  17.671  20.748   0.331
77750W        W50076  18.692   4.313   0.738
77751W        W50077  41.992  34.509  14.444
77752W        W50078  31.607   9.695  14.370
77753W        W50079  26.655   2.448   4.336
77754W        W50080   0.334  25.073   0.330
77755W        W50081  36.051  22.693   3.685
77756W        W50082  27.089   9.205  11.501
77757W        W50083   4.263  27.633   3.169
77758W        W50084  34.974  22.707   2.870
77759W        W50085  30.615  35.907  12.956
77760W        W50086  38.896   4.792   5.122
77761W        W50087  23.008   5.395   3.868
77762W        W50088  17.063  41.503   2.847
77763W        W50089  17.673  26.141   1.402
77764W        W50090  30.930  41.385  13.540
77765W        W50091  32.413   4.870   2.234
77766W        W50092  40.046  20.570   2.704
77767W        W50093  27.019  29.989   1.343
77768W        W50094  24.004   3.945  12.576
77769W        W50095   2.911  14.637   1.854
77770W        W50096  10.839  39.376  13.412
77771W        W50097  35.867  29.517  11.526
77772W        W50098  39.918  28.973  14.951
77773W        W50099   7.340  42.007  14.023
77774W        W50100  13.687   6.323  14.507
77775W        W50101  32.618  26.156  11.017
77776W        W50102  14.189  38.541  11.988
77777W        W50103  30.100  41.000  13.409
77778W        W50104   1.379   9.872   0.399
77779W        W50105  13.190  44.434   3.285
77780W        W50106  25.540  19.613  13.493
77781W        W50107  28.003   7.909   0.425
77782W        W50108  24.222  22.634   1.845
77783W        W50109   1.936   5.925   2.816
77784W        W50110  43.847   6.801  12.824
77785W        W50111  20.163  35.460   0.802
77786W        W50112  28.500   9.868   0.360
77787W        W50113  28.020  44.964  10.533
77788W        W50114  28.644   9.283  12.884
77789W        W50115  29.019  11.766  11.400
77790W        W50116   1.273  18.783   1.760
77791W        W50117   0.850   9.376  10.950
77792W        W50118  30.509  36.843  11.443
77793W        W50119   1.319  44.275  14.323
77794W        W50120   3.235  32.575  14.449
77795W        W50121  16.600  25.673   0.821
77796W        W50122  11.331  16.178  11.963
77797W        W50123  10.774  32.444  12.935
77798W        W50124  25.473   4.260  12.059
77799W        W50125  37.349  10.821   4.186
77800W        W50126   8.782  10.346   4.599
77801W        W50127   8.383  40.317  14.516
77802W        W50128  14.650   4.278   1.291
77803W        W50129  34.373  20.721  12.392
77804W        W50130  40.927  39.419  14.331
77805W        W50131   2.846  37.433   3.195
77806W        W50132  38.890  23.066  12.908
77807W        W50133  14.337  44.960  14.979
77808W        W50134  42.878  39.911   4.702
77809W        W50135   7.800  36.488  13.469
77810W        W50136  11.144  12.318   1.424
77811W        W50137  17.579  37.859  11.012
77812W        W50138  14.235  39.324  10.601
77813W        W50139  37.418   8.184   4.610
77814W        W50140  36.019  14.642  11.540
77815W        W50141   5.781  19.726   0.731
77816W        W50142  42.861   3.221  11.889
77817W        W50143  12.650  40.422   1.267
77818W        W50144  40.948   9.659   3.278
77819W        W50145  40.444  33.040   0.796
77820W        W50146   1.780  32.088   3.296
77821W        W50147  15.150  41.374  11.019
77822W        W50148  34.418   4.837   2.899
77823W        W50149  24.538  15.127  13.958
77824W        W50150   3.715  43.431  12.429
77825W        W50151  16.698  18.596   2.309
77826W        W50152  29.468   8.162  13.933
77827W        W50153  31.569   4.727  10.973
77828W        W50154  39.843  42.501   0.779
77829W        W50155   4.220  37.549   3.680
77830W        W50156  16.103  18.580  12.358
77831W        W50157   2.237  38.388   2.216
77832W        W50158  28.160  24.226  13.804
77833W        W50159   1.361  15.242  12.377
77834W        W50160  10.326  18.577  12.877
77835W        W50161  42.868  11.362   1.713
77836W        W50162  31.999  15.269   2.223
77837W        W50163  15.308  42.409   1.716
77838W        W50164  24.611   1.932  12.057
77839W        W50165  26.608  22.196   4.791
77840W        W50166  25.625  42.875   9.980
77841W        W50167  37.975   8.677  12.439
77842W        W50168  10.713   5.335   1.232
77843W        W50169  21.576  20.741   1.811
77844W        W50170  30.967   6.820  11.860
77845W        W50171   9.258  44.504  12.015
77846W        W50172  19.737   6.233   1.325
77847W        W50173  42.321  19.061   2.708
77848W        W50174   3.929  33.533   2.309
77849W        W50175  10.213  30.140  13.004
77850W        W50176   4.892  15.807   1.909
77851W        W50177   3.939  21.587  13.932
77852W        W50178  19.180  26.019  13.476
77853W        W50179  37.340  21.110   4.803
77854W        W50180  23.554   5.705  14.337
77855W        W50181   8.350   9.838   0.734
77856W        W50182   5.835   4.367  14.431
77857W        W50183  34.984  27.193   3.745
77858W        W50184  21.133  37.900  13.511
77859W        W50185   6.680  29.034  11.949
77860W        W50186  10.639  18.675  14.897
77861W        W50187  30.641  43.280  10.430
77862W        W50188  21.240  39.048  11.870
77863W        W50189  21.546  32.989  14.367
77864W        W50190  20.148  22.677   9.992
77865W        W50191   9.656  18.682  13.438
77866W        W50192  14.670  22.548   3.645
77867W        W50193   2.469  21.143   2.352
77868W        W50194  12.801  23.146  14.366
77869W        W50195   9.389  28.086  14.800
77870W        W50196  21.639  21.030  13.953
77871W        W50197  37.554   0.254  11.068
77872W        W50198   8.200   3.266   4.123
77873W        W50199   9.763  14.744  11.483
77874W        W50200  33.587  36.553   1.262
77875W        W50201  38.953  44.348   4.303
77876W        W50202  26.174  28.949   2.753
77877W        W50203  43.362  19.232  14.900
77878W        W50204  36.869  44.787   3.317
77879W        W50205  20.631  14.589  11.524
77880W        W50206  18.143   4.779   4.282
77881W        W50207  33.588   3.810   0.275
77882W        W50208  29.055  43.966   0.369
77883W        W50209  18.185  34.410  13.792
77884W        W50210  34.446  17.197   2.736
77885W        W50211   6.379  38.973  12.845
77886W        W50212  10.293  13.149   0.385
77887W        W50213  39.469  15.762   0.927
77888W        W50214   1.329  27.162  13.488
77889W        W50215  34.443  17.081  11.083
77890W        W50216  16.075  13.725  13.525
77891W        W50217  10.368   7.362  11.463
77892W        W50218   2.889   6.198   4.315
77893W        W50219   5.791  34.936  12.502
77894W        W50220  17.257  11.342  10.122
77895W        W50221   1.931  33.975   1.797
77896W        W50222  24.071  26.970   2.849
77897W        W50223   5.895  20.677   4.807
77898W        W50224   3.243  19.645   4.778
77899W        W50225  13.736  34.086  12.874
77900W        W50226  42.488  28.437   3.289
77901W        W50227  33.879  29.514   2.401
77902W        W50228  18.149  10.749   4.793
77903W        W50229  19.601   0.871  12.429
77904W        W50230  31.523  34.885  14.288
77905W        W50231  14.140   1.247  11.522
77906W        W50232  23.735  36.972  14.485
77907W        W50233  22.562  26.047   3.795
77908W        W50234   7.381   4.350  12.418
77909W        W50235  40.345  37.517  13.408
77910W        W50236  41.303  12.231  12.887
77911W        W50237  30.421   9.371  10.568
77912W        W50238  12.335  10.781   2.302
77913W        W50239   6.796  11.187   4.826
77914W        W50240   2.275  38.528   4.704
77915W        W50241  24.158   2.894  14.410
77916W        W50242  43.408  33.874   2.295
77917W        W50243  27.530  39.403  13.309
77918W        W50244  14.192  14.126  12.918
77919W        W50245  25.038  17.684   1.931
77920W        W50246  41.493  18.082   3.145
77921W        W50247  15.316   2.761  12.970
77922W        W50248  14.330  17.226   4.644
77923W        W50249  37.986  10.682  13.867
77924W        W50250  25.484  18.569   2.674
77925W        W50251  19.689  28.101   5.192
77926W        W50252  31.088   7.869  12.553
77927W        W50253  18.117  43.790  14.275
77928W        W50254  17.570  21.020  11.950
77929W        W50255   6.318  40.924   4.713
77930W        W50256  22.523  31.552   0.882
77931W        W50257   1.946  39.813   3.827
77932W        W50258  26.194  38.825   2.723
77933W        W50259  42.798  42.867   3.201
77934W        W50260  28.550  22.687  13.519
77935W        W50261  28.080  10.678   0.814
77936W        W50262  39.440   9.320   4.666
77937W        W50263  29.041  33.954   4.697
77938W        W50264  12.253  12.842  13.309
77939W        W50265  30.555  41.850   2.389
77940W        W50266  44.427  33.028   1.347
77941W        W50267  39.426  39.060   4.731
77942W        W50268  30.097  29.158   1.908
77943W        W50269  34.533  13.795   4.723
77944W        W50270  40.820  42.971  11.383
77945W        W50271  41.941   4.359   1.323
77946W        W50272  40.324   4.842  11.414
77947W        W50273   4.254   0.869   0.732
77948W        W50274  13.762  27.634  10.897
77949W        W50275   8.193  16.257  13.417
77950W        W50276  12.664  26.991  13.908
77951W        W50277  28.597  42.497   3.717
77952W        W50278  34.445   4.927  14.450
77953W        W50279  27.523   2.267   2.801
77954W        W50280  13.318  42.831   0.757
77955W        W50281   7.408  37.844   4.731
77956W        W50282  15.312  33.477  14.923
77957W        W50283  37.514  23.212  12.051
77958W        W50284  36.453  11.310  12.494
77959W        W50285  43.364  21.107  12.881
77960W        W50286  22.012   4.321  11.944
77961W        W50287  15.259  27.038   4.206
77962W        W50288  44.435  38.376   4.235
77963W        W50289  32.579  11.296  11.866
77964W        W50290  20.121   6.885   1.852
77965W        W50291   2.419  36.399  11.612
77966W        W50292  25.564   6.372  11.498
77967W        W50293  25.587   7.715   0.931
77968W        W50294  42.951  31.139  13.427
77969W        W50295  39.396  24.203  14.376
77970W        W50296  16.567  20.212   4.749
77971W        W50297  24.153  42.836  13.453
77972W        W50298  18.133  37.918   3.241
77973W        W50299   8.323  23.202  11.122
77974W        W50300  41.472   6.394  14.932
77975W        W50301  16.649  25.064  14.434
77976W        W50302  26.953  13.292  11.989
77977W        W50303   6.184  18.704   0.437
77978W        W50304  41.447  29.430   0.955
77979W        W50305  10.295  16.155  12.365
77980W        W50306  35.099  11.169   0.830
77981W        W50307  12.248  28.606   1.785
77982W        W50308  25.118  21.019   2.788
77983W        W50309  22.731  21.146   3.650
77984W        W50310  42.366  17.169  10.987
77985W        W50311  38.336  37.581  11.890
77986W        W50312  22.590   7.872  14.922
77987W        W50313  36.966   4.911  10.049
77988W        W50314  42.797  15.617   4.137
77989W        W50315  33.498  26.493  11.911
77990W        W50316  27.445  18.718   2.357
77991W        W50317  42.829   8.381  12.982
77992W        W50318   3.746  14.764   4.273
77993W        W50319   1.289  10.849   0.788
77994W        W50320  22.682  44.482  14.335
77995W        W50321  36.457  33.980  13.002
77996W        W50322  16.214  38.348   0.909
77997W        W50323  30.913  24.005   2.765
77998W        W50324   9.663   8.891  11.541
77999W        W50325  42.954  14.835  11.395
78000W        W50326  40.936   7.807   2.392
78001W        W50327  16.135  41.351   2.334
78002W        W50328   2.806   9.818  12.880
78003W        W50329   6.882   2.781  13.020
78004W        W50330  28.492  43.014   4.720
78005W        W50331  30.144  33.964  10.486
78006W        W50332   8.317  10.255  13.369
78007W        W50333  44.291   9.757  10.520
78008W        W50334  24.649  18.228  12.442
78009W        W50335   9.877  43.359  14.982
78010W        W50336  23.234  24.577  11.111
78011W        W50337  26.045  27.450   2.883
78012W        W50338  20.731  33.544   0.247
78013W        W50339  13.281  28.041  14.776
78014W        W50340  42.433  19.276  11.964
78015W        W50341  40.034  11.710   2.847
78016W        W50342  40.456   1.924  13.424
78017W        W50343  41.310  28.049   1.850
78018W        W50344   5.733  24.582   0.907
78019W        W50345  34.037  23.519  13.462
78020W        W50346  18.644  42.444  11.956
78021W        W50347   6.190  12.835  12.973
78022W        W50348   7.749  39.314   4.201
78023W        W50349  44.384  25.518  11.546
78024W        W50350   8.285  34.063   3.200
78025W        W50351  42.840  44.415  14.414
78026W        W50352  17.593  19.605   4.729
78027W        W50353   8.669  39.509  11.970
78028W        W50354  37.894  27.151   4.758
78029W        W50355  12.814  32.067   4.617
78030W        W50356  44.978  24.054  10.968
78031W        W50357  20.257  12.227  13.317
78032W        W50358  44.915  42.435   0.915
78033W        W50359  28.004  15.244   4.239
78034W        W50360   9.761  32.431   1.803
78035W        W50361  30.077  28.005   1.357
78036W        W50362   4.794  39.961   9.982
78037W        W50363  37.530  38.890  12.911
78038W        W50364  14.779  17.258   1.928
78039W        W50365  18.054  13.654  11.009
78040W        W50366  34.468  19.641   0.903
78041W        W50367  20.065  15.086  10.948
78042W        W50368  16.194  37.030   2.348
78043W        W50369  31.431  43.287  12.955
78044W        W50370  28.059  14.239   1.325
78045W        W50371  41.841  39.011   1.413
78046W        W50372  33.446  14.104  13.825
78047W        W50373  13.638   8.777  11.949
78048W        W50374  31.404   4.710  11.877
78049W        W50375  32.992   2.949   2.806
78050W        W50376  39.053  13.734  11.423
78051W        W50377  38.443   7.796  12.037
78052W        W50378  13.753  28.552   2.207
78053W        W50379  17.709  29.623  13.030
78054W        W50380   2.450  39.019  11.858
78055W        W50381  31.619  24.998   3.818
78056W        W50382  38.959  11.259  14.972
78057W        W50383  32.896  17.105  14.440
78058W        W50384  20.586  25.025   4.123
78059W        W50385  30.423  33.564  10.409
78060W        W50386  27.988  42.387   0.807
78061W        W50387  12.195  22.620   3.281
78062W        W50388  29.440   7.893   2.808
78063W        W50389  25.529  27.496  11.886
78064W        W50390  38.562  31.524   0.408
78065W        W50391  26.654  43.356  13.543
78066W        W50392  13.778  10.252   1.395
78067W        W50393  40.843  28.506  14.316
78068W        W50394  39.560  13.616  13.491
78069W        W50395  28.064  20.723  13.975
78070W        W50396   6.690  37.940   0.251
78071W        W50397  24.506  24.134  14.457
78072W        W50398  23.574  21.059   0.310
78073W        W50399  40.909   8.180   1.354
78074W        W50400  36.952   5.879   4.253
78075W        W50401  21.654  18.270   4.348
78076W        W50402  23.520  25.093   4.732
78077W        W50403  19.265   6.342  10.512
78078W        W50404   9.353  39.919   0.883
78079W        W50405   4.272  28.542   1.349
78080W        W50406  17.287  12.201   1.720
78081W        W50407  11.856  14.184  10.025
78082W        W50408  43.766   1.264   1.742
78083W        W50409   5.770  37.441   3.221
78084W        W50410  36.432  31.986   3.647
78085W        W50411   7.668  32.606  11.968
78086W        W50412   6.299  39.520   0.316
78087W        W50413  18.196   7.745  13.823
78088W        W50414  30.480  23.204   0.274
78089W        W50415   5.866  41.398  14.003
78090W        W50416  29.011  16.284  11.976
78091W        W50417  26.458   8.887  12.364
78092W        W50418  19.555  15.097  12.397
78093W        W50419  27.011   1.805   1.854
78094W        W50420  42.015  27.985   1.353
78095W        W50421  32.098  19.206   3.662
78096W        W50422  25.188  20.073  11.867
78097W        W50423   4.442   7.259  14.356
78098W        W50424  18.741  25.052   2.701
78099W        W50425  30.985  10.257  12.376
78100W        W50426  11.316   0.314   2.713
78101W        W50427  20.073  38.481   1.799
78102W        W50428  14.606  29.467   0.885
78103W        W50429  14.610  18.689  13.494
78104W        W50430  43.950  20.251  10.512
78105W        W50431  43.429  34.053   3.279
78106W        W50432  31.582  21.166  10.982
78107W        W50433  19.119  19.156  10.551
78108W        W50434  42.466  36.578   4.688
78109W        W50435  19.152  24.506  10.606
78110W        W50436  21.080   4.319  14.805
78111W        W50437  26.589  25.504  11.406
78112W        W50438  10.273   9.316  13.386
78113W        W50439  23.178  38.839  14.925
78114W        W50440  22.191   9.172  14.304
78115W        W50441  34.863  22.137   2.831
78116W        W50442  23.715  34.993  14.762
78117W        W50443  33.518  36.511   2.854
78118W        W50444  27.001  19.615  10.921
78119W        W50445  21.648   5.839   4.643
78120W        W50446   4.796  22.648   1.725
78121W        W50447  22.646   3.946  12.824
78122W        W50448  36.435  16.107   2.205
78123W        W50449  11.347  38.830   0.929
78124W        W50450   8.272  29.589   2.821
78125W        W50451  10.291  22.646  14.942
78126W        W50452   2.934  10.310  10.966
78127W        W50453  26.467  10.850  13.530
78128W        W50454  40.875   6.288   3.284
78129W        W50455  22.740   5.426   0.933
78130W        W50456  15.764  13.642   3.821
78131W        W50457  13.752  20.749  11.935
78132W        W50458  29.169  31.972   1.826
78133W        W50459  26.109  24.213   4.667
78134W        W50460  42.515  28.154   1.794
78135W        W50461  10.685  19.562   5.213
78136W        W50462   0.457  41.944  13.340
78137W        W50463  19.053  22.664   2.774
78138W        W50464  19.668   0.927   5.220
78139W        W50465  15.167  22.670  13.939
78140W        W50466  13.107  11.183   3.801
78141W        W50467  16.794  30.086  12.889
78142W        W50468  10.277  14.745  11.372
78143W        W50469  17.763  31.921   1.242
78144W        W50470  14.718   4.376   3.822
78145W        W50471  31.990  22.680   3.752
78146W        W50472  13.328  36.885   3.818
78147W        W50473  13.216  44.451  10.562
78148W        W50474  34.104  31.059  12.961
78149W        W50475  38.052  27.988  12.870
78150W        W50476   2.962  44.491   4.677
78151W        W50477  44.461   5.709   4.817
78152W        W50478  20.747   4.259  13.960
78153W        W50479   5.785  23.045  11.586
78154W        W50480  29.509   9.825  14.000
78155W        W50481  20.058  24.087   2.236
78156W        W50482   0.837  16.216  13.800
78157W        W50483  26.989   2.336   0.470
78158W        W50484  14.280  38.069   1.259
78159W        W50485   7.781  25.017   2.761
78160W        W50486  28.973  17.207  14.453
78161W        W50487  31.624  28.044   1.824
78162W        W50488   5.754  41.832  12.379
78163W        W50489   4.372   7.733  12.535
78164W        W50490  19.073  29.453   2.798
78165W        W50491  44.500  12.746  14.429
78166W        W50492  11.811  28.127   2.233
78167W        W50493  32.983  12.220  10.554
78168W        W50494  27.198  26.067  13.331
78169W        W50495  17.239  16.592  11.858
78170W        W50496  39.017  39.822  14.867
78171W        W50497  38.834  18.729  14.956
78172W        W50498  34.566  16.750  14.432
78173W        W50499  25.119  34.033   2.835
78174W        W50500  39.971  27.513  12.364
78175W        W50501  28.583  30.631   3.787
78176W        W50502  41.823  36.053  10.524
78177W        W50503  24.127  12.158  14.021
78178W        W50504  36.986  34.040  10.560
78179W        W50505   1.317  43.356  14.276
78180W        W50506   4.909  27.645   3.799
78181W        W50507  15.605  24.146   0.430
78182W        W50508  18.234  44.817   4.750
78183W        W50509   0.809  11.365   4.160
78184W        W50510  17.085  37.023   4.617
78185W        W50511  29.519  28.569   5.147
78186W        W50512  40.503  28.929  13.542
78187W        W50513   2.262   3.227  13.809
78188W        W50514  20.049  14.750  13.911
78189W        W50515  20.752  32.016  14.474
78190W        W50516  11.223  34.885   3.241
78191W        W50517  27.607   3.842  11.873
78192W        W50518  35.875  19.252  12.392
78193W        W50519  43.414  21.725  14.899
78194W        W50520  40.957  44.793   0.854
78195W        W50521  36.461  30.621   4.706
78196W        W50522   7.225  18.199  12.435
78197W        W50523  42.829  35.041  10.495
78198W        W50524  28.938  16.085   2.410
78199W        W50525   9.689  12.691   2.241
78200W        W50526  38.447  41.854  10.533
78201W        W50527  10.159  25.714   3.233
78202W        W50528  36.420  40.909  11.603
78203W        W50529  29.175  37.951   1.287
78204W        W50530  26.643   0.461   4.713
78205W        W50531  37.482   0.850   3.820
78206W        W50532  25.106  40.988   4.235
78207W        W50533  39.340  17.216  14.859
78208W        W50534  37.001  41.516   3.160
78209W        W50535  42.028  15.805   5.225
78210W        W50536  17.077  33.529  12.074
78211W        W50537   4.745  44.810   4.130
78212W        W50538   7.715  43.911  10.524
78213W        W50539  30.909  34.908  13.376
78214W        W50540  14.834  33.878   2.283
78215W        W50541  16.192   6.816  12.895
78216W        W50542   5.896  36.842  12.909
78217W        W50543  16.600   2.458   1.801
78218W        W50544  17.064  28.973   4.195
78219W        W50545  26.628  36.862   1.773
78220W        W50546   0.429  42.985  12.910
78221W        W50547  12.854  10.305  12.466
78222W        W50548  44.812   5.926  14.403
78223W        W50549  39.493  32.403  13.457
78224W        W50550   8.179  40.514   3.819
78225W        W50551  32.083  39.926  12.400
78226W        W50552  17.721  27.049   1.745
78227W        W50553  16.166   1.958   0.417
78228W        W50554  20.111  12.197   0.463
78229W        W50555  44.893  26.560  10.544
78230W        W50556  12.619  22.582   0.347
78231W        W50557   6.689   2.433   1.357
78232W        W50558   4.897  41.363   2.896
78233W        W50559  29.057  12.729   1.357
78234W        W50560  42.334  22.029  14.334
78235W        W50561   2.842  33.432   2.744
78236W        W50562  25.645   3.951  12.490
78237W        W50563   5.788  18.610   2.711
78238W        W50564  38.413  24.177  13.966
78239W        W50565  18.169  19.242  13.011
78240W        W50566  33.070  31.528  11.444
78241W        W50567  33.077  19.047   4.746
78242W        W50568   4.910  36.946   2.867
78243W        W50569  32.132  13.244  13.838
78244W        W50570   7.703  20.103  11.118
78245W        W50571  41.318  37.452   0.816
78246W        W50572  34.464   7.393   1.843
78247W        W50573  38.550  30.608   3.179
78248W        W50574  16.073  36.907  14.497
78249W        W50575  34.579  42.009   0.418
78250W        W50576  43.892  44.399   0.340
78251W        W50577  40.430  31.491   2.849
78252W        W50578   8.322  39.381   2.413
78253W        W50579  23.220   4.877  12.544
78254W        W50580  15.779  44.476  14.418
78255W        W50581  24.191  24.694  13.384
78256W        W50582  35.949  30.509  14.767
78257W        W50583  10.185   6.817   1.908
78258W        W50584  42.381  44.296  11.416
78259W        W50585   9.348   0.470   1.255
78260W        W50586   1.885  24.121   4.211
78261W        W50587   7.263  44.272  14.901
78262W        W50588  43.978   5.408  11.934
78263W        W50589   8.377  42.319   3.290
78264W        W50590  24.223   6.320   4.770
78265W        W50591  38.850   3.340   1.373
78266W        W50592  34.872  18.050  13.031
78267W        W50593  33.497  32.897   3.251
78268W        W50594  29.927  31.463  12.955
78269W        W50595  33.988  24.709  12.038
78270W        W50596   0.876  23.038  14.979
78271W        W50597  23.647  35.076  10.979
78272W        W50598  43.862  38.871  13.456
78273W        W50599  13.156  44.423   5.117
78274W        W50600  28.033  34.083  11.376
78275W        W50601  13.800   6.366  11.563
78276W        W50602  13.706  32.577   0.305
78277W        W50603  44.895  21.622   0.762
78278W        W50604  10.755  22.120   4.290
78279W        W50605   3.341  35.391   1.411
78280W        W50606  41.871  39.984   1.781
78281W        W50607  21.200  39.455  10.567
78282W        W50608  30.475  27.006   1.231
78283W        W50609  10.792  29.121   2.329
78284W        W50610  36.557  41.296   2.409
78285W        W50611   6.395  22.515  14.823
78286W        W50612  19.710  17.111  11.390
78287W        W50613   3.880  13.654  14.903
78288W        W50614  40.473  24.142   0.426
78289W        W50615  32.475  20.564  10.423
78290W        W50616  34.405  10.343  13.017
78291W        W50617   5.230  29.522   0.389
78292W        W50618  37.488  25.609   4.789
78293W        W50619  40.399  33.051  14.353
78294W        W50620   9.177  23.657   5.316
78295W        W50621  14.094  43.871  10.575
78296W        W50622  27.077  22.630   3.310
78297W        W50623  22.727  22.571   1.879
78298W        W50624  43.880  13.210  13.954
78299W        W50625   7.831  44.385   5.099
78300W        W50626   1.459  11.154  13.500
78301W        W50627  14.809  12.324   3.735
78302W        W50628  22.152  18.712   2.894
78303W        W50629  39.048  27.508  13.510
78304W        W50630  13.697   2.920   3.865
78305W        W50631   1.928   2.261   3.862
78306W        W50632  42.006  37.405   3.324
78307W        W50633  26.180  24.532   0.357
78308W        W50634  26.605   0.482   3.173
78309W        W50635  25.147   7.837  11.439
78310W        W50636   3.890  37.504  14.311
78311W        W50637   2.321  24.150  12.347
78312W        W50638  37.845   3.333  14.507
78313W        W50639  25.706  41.356   0.353
78314W        W50640  25.579  44.264   0.760
78315W        W50641   7.812  38.054  12.831
78316W        W50642  22.560  31.958   0.310
78317W        W50643  20.619  32.541   1.834
78318W        W50644  40.345  33.489   2.754
78319W        W50645   4.913   9.724   1.388
78320W        W50646  40.377  12.805  14.303
78321W        W50647  24.520  34.882  13.387
78322W        W50648  11.215   6.867   4.313
78323W        W50649  39.382  23.604  14.421
78324W        W50650  41.384   5.435  11.973
78325W        W50651  19.123  31.921   1.334
78326W        W50652  20.261  35.969  11.568
78327W        W50653  29.159  33.107  11.394
78328W        W50654  40.348  15.197  12.355
78329W        W50655  11.214  24.199   1.285
78330W        W50656  38.941  32.479   4.768
78331W        W50657   3.259  36.943  12.916
78332W        W50658  11.248  35.388   4.648
78333W        W50659  11.148  43.323  12.386
78334W        W50660  40.429  24.097  11.455
78335W        W50661  29.009  21.689  11.913
78336W        W50662  33.564  38.935   1.766
78337W        W50663  23.547   8.235  10.998
78338W        W50664  39.902  16.745  13.330
78339W        W50665  34.518  26.954   2.831
78340W        W50666   7.799  43.912   3.691
78341W        W50667  38.541  28.093   4.826
78342W        W50668  15.681   3.808  14.355
78343W        W50669   6.230  26.633   0.340
78344W        W50670  25.150  39.865   3.852
78345W        W50671   2.366  43.924   3.310
78346W        W50672  16.582  34.449   1.899
78347W        W50673  32.554  27.953   4.813
78348W        W50674  24.722   4.239  14.810
78349W        W50675  25.646  14.682   3.694
78350W        W50676  33.617  35.086   2.194
78351W        W50677  15.263  30.636  10.510
78352W        W50678  25.486  28.933  13.349
78353W        W50679   8.342  16.600  12.503
78354W        W50680  34.008   9.880   0.383
78355W        W50681  14.821  32.074  12.507
78356W        W50682  32.123  31.521  13.029
78357W        W50683  10.314   5.857  11.476
78358W        W50684  25.620  37.894   4.266
78359W        W50685  15.290  41.876  10.887
78360W        W50686   7.845  19.692   0.332
78361W        W50687  20.681   6.236  14.909
78362W        W50688  29.033   5.725   3.200
78363W        W50689  36.555  19.558   2.183
78364W        W50690   7.774  17.121  13.399
78365W        W50691  16.187  28.010   0.375
78366W        W50692  40.470   4.278   3.249
78367W        W50693  33.488  25.485  12.476
78368W        W50694  28.590  32.633  12.913
78369W        W50695   3.260  28.646   3.766
78370W        W50696  32.457  23.497   1.238
78371W        W50697  30.111  23.989   2.193
78372W        W50698   9.731  23.098  11.574
78373W        W50699  24.543   1.910   4.281
78374W        W50700   3.736  43.822   4.290
78375W        W50701  28.590  20.680   4.620
78376W        W50702  31.905  27.068   1.280
78377W        W50703  10.709  25.168   1.925
78378W        W50704  24.697   2.948   0.825
78379W        W50705   6.365  12.795  13.333
78380W        W50706   6.403  28.537   3.845
78381W        W50707  20.191  22.156  12.953
78382W        W50708  18.690  17.249  12.572
78383W        W50709  42.809  25.620  11.441
78384W        W50710  16.073  20.182   4.242
78385W        W50711  10.346  22.567   3.865
78386W        W50712  40.880  18.143  12.534
78387W        W50713  32.930  34.953   2.863
78388W        W50714  12.780  37.353   0.787
78389W        W50715  28.169  42.800   2.902
78390W        W50716  43.845  35.500   1.873
78391W        W50717  21.046  20.207   4.603
78392W        W50718  14.108  31.995   0.915
78393W        W50719   0.320  21.640   0.923
78394W        W50720  19.277  20.656   2.393
78395W        W50721  43.950  14.252  14.902
78396W        W50722  22.733  17.062  10.076
78397W        W50723  22.041  32.023  11.886
78398W        W50724  19.166  15.814   1.904
78399W        W50725  29.069  14.156   0.830
78400W        W50726  43.504  29.165   1.274
78401W        W50727  43.844  30.133  10.959
78402W        W50728  35.073   1.452  12.897
78403W        W50729  31.576  22.602  14.409
78404W        W50730  24.040  11.264   0.913
78405W        W50731   0.486  43.984   4.158
78406W        W50732  27.647   1.438   4.304
78407W        W50733  29.574  18.583  11.552
78408W        W50734  18.746  23.234   3.231
78409W        W50735  17.680   1.973   3.310
78410W        W50736  22.018  11.657   0.410
78411W        W50737  36.443  27.480   1.808
78412W        W50738  31.935  35.394   0.410
78413W        W50739  32.054   7.750   3.648
78414W        W50740   1.751  22.740   1.728
78415W        W50741  34.504  32.585  14.776
78416W        W50742  23.086  10.756  13.986
78417W        W50743  37.833   5.381  12.882
78418W        W50744   8.790  33.525   4.713
78419W        W50745  39.988  34.070   2.842
78420W        W50746  42.413   0.388   4.673
78421W        W50747  36.886  27.179  12.452
78422W        W50748  37.053  44.801  14.494
78423W        W50749   3.767   3.793   4.122
78424W        W50750  40.508  17.173  10.919
78425W        W50751  15.652  13.190  13.490
78426W        W50752  19.553  30.049  12.947
78427W        W50753  17.585  14.125  11.481
78428W        W50754   4.417  33.425  10.623
78429W        W50755  27.188  25.212   1.927
78430W        W50756  39.940  16.264  14.309
78431W        W50757  35.898  44.322  10.576
78432W        W50758  21.533  14.176  12.016
78433W        W50759  24.106  13.721   3.799
78434W        W50760  26.138   2.344  10.558
78435W        W50761  38.376  20.073  13.356
78436W        W50762  23.075  23.575  13.399
78437W        W50763  37.423  15.722  11.396
78438W        W50764  12.626  40.940  13.498
78439W        W50765  26.638  12.731   2.302
78440W        W50766  10.779  41.840   0.942
78441W        W50767  31.545  36.937   2.671
78442W        W50768   3.403   6.835  12.834
78443W        W50769   9.878  12.653   3.652
78444W        W50770  19.687  28.067   1.799
78445W        W50771   3.714   3.859   1.223
78446W        W50772   4.930   3.253  12.495
78447W        W50773   9.191  41.294  14.944
78448W        W50774  23.092  13.282  11.128
78449W        W50775  10.381  12.249   0.442
78450W        W50776  22.096  37.418   2.315
78451W        W50777  43.464  35.588  13.452
78452W        W50778   3.730  15.582   2.389
78453W        W50779  19.640  18.629   3.295
78454W        W50780  27.080   1.310   0.869
78455W        W50781  42.392  29.964  12.927
78456W        W50782  30.432   7.334   1.848
78457W        W50783  20.636  22.631   3.721
78458W        W50784  23.987  12.753  11.082
78459W        W50785  28.531  34.072  14.849
78460W        W50786   7.241  25.644   0.797
78461W        W50787   0.974  29.927   4.757
78462W        W50788  10.314  24.004   2.709
78463W        W50789  39.925  29.501   2.724
78464W        W50790  28.634  43.007   2.760
78465W        W50791  43.409  17.622   1.397
78466W        W50792  41.815  43.418  12.380
78467W        W50793  24.509   2.394   1.864
78468W        W50794  31.121  36.491  12.054
78469W        W50795   9.253  22.183  10.915
78470W        W50796   9.700  17.207   0.744
78471W        W50797  21.048  44.965   1.278
78472W        W50798  41.023  12.710   2.247
78473W        W50799  15.641  29.669   1.321
78474W        W50800  28.086  24.490   4.781
78475W        W50801  42.344  32.012   2.781
78476W        W50802  13.120   8.754   9.978
78477W        W50803  38.945  39.000  12.529
78478W        W50804  20.674  10.798   4.720
78479W        W50805  24.642  40.504   2.693
78480W        W50806  34.059  30.510  12.017
78481W        W50807  19.224   3.350   1.698
78482W        W50808  25.659  39.058   0.372
78483W        W50809  31.039  31.944  12.960
78484W        W50810  44.452  23.723   0.917
78485W        W50811   0.942  42.296  12.010
78486W        W50812  29.535  37.463   5.173
78487W        W50813  31.452  19.641   3.256
78488W        W50814   8.351  35.518   3.641
78489W        W50815  36.435  33.486  13.532
78490W        W50816  35.435  20.155   2.721
78491W        W50817   4.935   8.184   1.444
78492W        W50818  31.589  42.471  10.445
78493W        W50819   0.919  28.147   1.895
78494W        W50820  25.964  26.136   5.620
78495W        W50821  38.447  32.452   1.780
78496W        W50822  11.161   3.263  13.426
78497W        W50823  35.918  11.195   5.114
78498W        W50824  25.969  12.831  12.936
78499W        W50825  16.250   3.428   2.267
78500W        W50826  41.503  37.012  14.867
78501W        W50827  42.798   7.876  13.809
78502W        W50828   0.785  24.117   2.668
78503W        W50829   7.370   5.904  13.478
78504W        W50830  37.520   2.813  14.497
78505W        W50831  39.556   0.467   0.319
78506W        W50832   1.241  42.804   1.893
78507W        W50833   2.314  16.304   2.810
78508W        W50834   9.162   6.384   3.778
78509W        W50835  12.121   9.301  11.507
78510W        W50836   7.719   7.303  11.885
78511W        W50837  12.279  38.479  11.065
78512W        W50838   1.471  20.617   1.244
78513W        W50839  39.041  42.324   3.740
78514W        W50840  33.131   6.182   3.241
78515W        W50841  13.808  27.197  10.071
78516W        W50842  39.941   1.434   1.908
78517W        W50843   0.793  27.968   4.307
78518W        W50844  44.872   9.237  10.988
78519W        W50845   4.803  44.479   2.235
78520W        W50846   1.752  34.508  10.423
78521W        W50847   7.884  17.731   3.338
78522W        W50848   0.752   6.717  13.968
78523W        W50849  21.631  30.927  11.536
78524W        W50850  19.681  33.917   2.897
78525W        W50851  10.366  36.015   0.929
78526W        W50852  17.257  38.374   0.897
78527W        W50853  14.815  38.042  13.881
78528W        W50854  16.797  14.183  13.992
78529W        W50855  26.075  23.532   3.763
78530W        W50856  17.569  31.957   2.712
78531W        W50857  18.744  25.473   3.338
78532W        W50858  37.510  27.978   3.300
78533W        W50859  26.959  38.014  11.066
78534W        W50860   6.186  18.769   2.790
78535W        W50861  14.223   8.352   1.837
78536W        W50862  26.579  38.059  10.539
78537W        W50863  12.146   4.898   4.240
78538W        W50864  13.235  32.024  10.470
78539W        W50865  41.902  36.872  14.319
78540W        W50866  13.341  23.198  11.377
78541W        W50867   3.310   5.866  12.911
78542W        W50868  43.412  42.312  14.898
78543W        W50869   3.841  26.148  13.537
78544W        W50870  37.528  42.500  10.973
78545W        W50871  34.418  27.490  12.575
78546W        W50872   1.744  18.738  13.042
78547W        W50873  10.161  15.739   9.984
78548W        W50874  38.551  33.968   2.821
78549W        W50875   1.887  21.556   1.845
78550W        W50876  39.347  22.730   0.385
78551W        W50877  44.438  13.280   1.721
78552W        W50878   6.848  26.633  13.495
78553W        W50879  17.158  37.986  13.409
78554W        W50880  33.956  19.554   4.807
78555W        W50881  30.131  28.971   0.333
78556W        W50882   8.802  27.558  11.492
78557W        W50883  20.614  43.848  13.453
78558W        W50884   8.222  28.479  14.343
78559W        W50885  28.608  14.152  13.969
78560W        W50886  30.500   6.347   0.285
78561W        W50887  22.063  34.450   1.899
78562W        W50888  37.548  17.270  14.289
78563W        W50889   6.893   2.845   3.728
78564W        W50890   1.457  22.196  10.610
78565W        W50891  21.629  33.876   1.805
78566W        W50892  20.703   1.266   1.275
78567W        W50893   3.265  13.297  10.609
78568W        W50894  44.969  10.375  11.033
78569W        W50895  17.782  24.038   4.353
78570W        W50896  26.175  39.423   0.921
78571W        W50897  34.896   7.905   0.730
78572W        W50898  40.414   4.328   3.836
78573W        W50899  36.956   2.880  12.938
78574W        W50900  34.068  15.220  10.912
78575W        W50901  20.217  37.987  13.322
78576W        W50902  30.123  21.631   0.859
78577W        W50903  30.492  40.976  10.440
78578W        W50904  20.647  34.910  10.410
78579W        W50905  14.688  36.446  14.881
78580W        W50906  39.402  30.162  14.309
78581W        W50907  20.601  42.920   2.745
78582W        W50908  31.122  13.312  10.981
78583W        W50909   2.384  17.178  10.528
78584W        W50910   6.234  32.081   2.757
78585W        W50911  33.387   2.938  12.451
78586W        W50912  29.443  32.903   4.651
78587W        W50913  36.925  36.896  13.946
78588W        W50914  13.337  12.633  10.643
78589W        W50915  37.558  22.610   4.208
78590W        W50916  20.560  26.682   2.225
78591W        W50917  34.086  24.534   3.803
78592W        W50918  22.740  22.006   2.711
78593W        W50919  25.054   0.937   2.183
78594W        W50920  30.004  17.650  12.578
78595W        W50921  35.541  12.621   4.648
78596W        W50922  10.376  37.349   0.866
78597W        W50923   5.792  22.681  13.408
78598W        W50924  20.729   4.413  12.844
78599W        W50925  30.958   6.852  14.000
78600W        W50926   7.331  41.496  11.568
78601W        W50927  40.917   9.834  13.933
78602W        W50928   6.238  28.499  10.526
78603W        W50929  18.134  21.664  12.574
78604W        W50930   1.446  41.791   1.375
78605W        W50931  14.625  28.001  11.497
78606W        W50932  21.071  21.565   0.845
78607W        W50933  18.195   2.935   2.691
78608W        W50934  39.864   3.776  14.306
78609W        W50935  39.015  23.652   1.432
78610W        W50936  39.469  26.068   1.297
78611W        W50937  10.775   4.768  10.470
78612W        W50938  31.122  40.912  14.014
78613W        W50939  41.881  39.366   0.881
78614W        W50940   0.937   5.396  12.914
78615W        W50941  15.186  38.034  11.051
78616W        W50942  11.863  28.029   1.790
78617W        W50943  39.353  42.792  13.805
78618W        W50944  33.930   7.215  12.009
78619W        W50945  31.994  19.114  12.448
78620W        W50946   7.723  43.482  12.827
78621W        W50947   2.903  23.077  12.040
78622W        W50948  38.914  40.522   3.721
78623W        W50949  16.743  30.540   4.195
78624W        W50950  42.958  21.133   1.303
78625W        W50951   9.785  33.880   0.291
78626W        W50952  35.024  36.062  11.903
78627W        W50953  25.499  15.301   3.675
78628W        W50954  23.118   3.403  11.903
78629W        W50955   9.183  20.658  10.557
78630W        W50956  17.573  38.945   0.842
78631W        W50957  19.555  26.022  13.440
78632W        W50958   4.828   9.305   2.715
78633W        W50959  18.197  12.158   0.891
78634W        W50960  43.447  15.581   4.598
78635W        W50961  15.242   9.162  10.970
78636W        W50962  10.358  23.664  14.358
78637W        W50963  14.606   5.318  11.443
78638W        W50964  43.383  29.965  12.449
78639W        W50965  28.522   1.415   2.829
78640W        W50966  15.590  20.662  13.044
78641W        W50967  13.619   3.874  12.415
78642W        W50968   6.342  40.823  12.007
78643W        W50969  37.015   4.205   4.187
78644W        W50970  12.723   8.883  14.758
78645W        W50971  26.555  40.425   0.374
78646W        W50972  20.618  25.168   3.364
78647W        W50973   6.327   8.790   5.111
78648W        W50974   7.907   0.869   4.606
78649W        W50975  11.237   5.319   3.318
78650W        W50976  33.461  21.642   3.286
78651W        W50977  19.760  38.076   2.757
78652W        W50978   4.940   5.915   2.879
78653W        W50979  32.920  42.840   2.343
78654W        W50980  36.868   1.369  13.826
78655W        W50981  16.605  10.164   0.342
78656W        W50982  23.996  18.596  11.066
78657W        W50983  17.216  37.504   1.342
78658W        W50984  22.063  25.611  11.523
78659W        W50985   8.833  42.372  13.800
78660W        W50986  21.077  44.481  12.049
78661W        W50987   7.224   1.269   3.264
78662W        W50988  17.716  35.375   3.202
78663W        W50989  21.121   0.906   3.169
78664W        W50990  24.679  34.005  10.977
78665W        W50991  44.794  22.113   4.349
78666W        W50992  39.820   2.286  14.337
78667W        W50993   5.228   6.697   2.809
78668W        W50994   3.342  31.425  14.999
78669W        W50995  28.063  14.611  11.592
78670W        W50996  24.184  37.072  12.864
78671W        W50997   4.808  39.835  10.552
78672W        W50998  25.038  35.888  13.971
78673W        W50999  39.846  16.083  11.009
78674W        W51000   3.932   7.827   4.723
78675W        W51001  39.962  24.682  10.993
78676W        W51002  24.148   5.903  11.945
78677W        W51003  30.432  37.553  10.530
78678W        W51004  38.932  36.936  14.325
78679W        W51005  11.243   2.895   1.824
78680W        W51006  41.353   7.237  14.504
78681W        W51007   7.674  30.911  14.445
78682W        W51008   7.699  23.688   1.294
78683W        W51009  23.511  19.046  11.554
78684W        W51010  11.855  29.563   1.302
78685W        W51011   2.735  17.643  12.443
78686W        W51012   1.834  10.327   1.258
78687W        W51013  35.901  14.192  14.501
78688W        W51014   6.364  44.917   3.787
78689W        W51015  14.713   3.721  14.842
78690W        W51016  10.284   5.912   9.949
78691W        W51017  11.799  35.529   3.843
78692W        W51018  44.770   9.661   3.308
78693W        W51019   0.983  36.565  12.476
78694W        W51020  42.841   5.774   2.383
78695W        W51021   0.394  40.812  13.035
78696W        W51022  42.447  33.395  10.489
78697W        W51023  34.978   1.456   2.296
78698W        W51024   2.442   2.420  14.503
78699W        W51025  39.406  30.155  14.907
78700W        W51026   8.670  12.732  10.638
78701W        W51027  12.266  27.113  14.330
78702W        W51028  37.547  26.553   1.367
78703W        W51029  21.150  42.864   0.852
78704W        W51030  20.669  39.037   0.244
78705W        W51031  16.588  35.369   4.188
78706W        W51032  22.113  36.937   2.783
78707W        W51033  26.167  35.448  12.035
78708W        W51034   5.934  19.738   1.915
78709W        W51035  38.377  39.522   1.863
78710W        W51036   0.795  27.115   1.277
78711W        W51037  31.497  13.225  14.848
78712W        W51038   0.882  35.071  11.552
78713W        W51039  21.582  44.847   2.363
78714W        W51040  29.159  19.578   4.114
78715W        W51041  36.554  17.157  13.839
78716W        W51042  13.312  30.009  10.908
78717W        W51043   0.345  43.482  11.471
78718W        W51044  41.950  27.529   2.259
78719W        W51045  17.714  40.013  13.375
78720W        W51046  22.683  23.558  14.781
78721W        W51047   8.207   2.411   2.897
78722W        W51048  41.786  22.185   1.399
78723W        W51049  11.738  38.356   1.873
78724W        W51050  22.108  36.559  13.349
78725W        W51051  12.143   4.755   5.246
78726W        W51052  38.349  35.038  13.975
78727W        W51053  33.098  42.899  12.342
78728W        W51054  22.735  22.500  12.379
78729W        W51055   3.750  22.149  14.851
78730W        W51056  35.089  28.073  14.452
78731W        W51057  22.194  25.562  14.906
78732W        W51058  17.789  14.298   1.829
78733W        W51059  13.776  36.080   3.296
78734W        W51060   1.298  35.903   1.407
78735W        W51061  36.963  36.535   1.375
78736W        W51062   8.725   5.316  10.454
78737W        W51063  22.241  43.390   2.855
78738W        W51064  17.239  15.686  10.909
78739W        W51065  29.577  12.357  11.981
78740W        W51066   3.286  24.025  11.479
78741W        W51067  17.189   4.752   2.763
78742W        W51068  40.808   2.899  10.412
78743W        W51069  30.922   9.672   3.310
78744W        W51070  25.599  43.393   3.733
78745W        W51071   6.215  24.229   3.809
78746W        W51072  19.595  38.505  12.561
78747W        W51073  41.956  13.309   3.678
78748W        W51074  25.571   3.412   1.712
78749W        W51075  38.976  32.475  14.417
78750W        W51076  19.085  28.468  14.910
78751W        W51077  18.192   8.739   4.748
78752W        W51078  28.524  38.380  13.512
78753W        W51079  33.874  24.042   0.327
78754W        W51080  17.741  39.424   1.796
78755W        W51081  29.520  17.667   4.610
78756W        W51082  17.100   4.879   1.443
78757W        W51083  26.506   6.835  14.478
78758W        W51084   9.862  27.648   4.763
78759W        W51085  11.791  18.681  13.530
78760W        W51086  11.162  28.932   3.642
78761W        W51087  30.055  27.562  11.085
78762W        W51088  28.675   8.806  13.960
78763W        W51089  42.368  35.570   4.151
78764W        W51090  24.622  33.021  13.010
78765W        W51091  43.898   6.802   2.753
78766W        W51092  42.924  34.368   2.821
78767W        W51093  15.118  31.461  13.816
78768W        W51094   9.260   4.757  12.093
78769W        W51095  15.192   8.727  14.425
78770W        W51096   1.969  12.834  10.905
78771W        W51097  10.351  29.623  13.820
78772W        W51098  36.994  35.965  11.388
78773W        W51099  15.239  29.582   0.400
78774W        W51100  26.085   8.884   2.261
78775W        W51101  23.699   8.256  13.406
78776W        W51102  24.083   2.442  10.578
78777W        W51103  32.610   7.207  14.915
78778W        W51104  18.617  18.126   0.411
78779W        W51105   1.887  24.554  11.377
78780W        W51106  41.944   9.201  11.907
78781W        W51107   3.831   9.700   4.657
78782W        W51108  15.312  23.624   1.839
78783W        W51109   9.728   8.690  12.074
78784W        W51110  41.845  10.347   2.308
78785W        W51111   3.742   1.816  11.091
78786W        W51112  19.078   7.414   2.704
78787W        W51113  35.438  12.295  11.015
78788W        W51114  13.254  21.119  11.996
78789W        W51115   3.360  22.236  12.552
78790W        W51116  18.673  13.795  11.612
78791W        W51117   2.418  15.095  11.441
78792W        W51118  28.547  36.043   1.391
78793W        W51119  26.121  21.193   3.772
78794W        W51120  34.869  11.216   2.759
78795W        W51121   9.749  44.364  12.898
78796W        W51122  19.666  14.339  11.030
78797W        W51123  30.547  39.993  13.892
78798W        W51124   6.782   2.937   2.198
78799W        W51125   1.900  12.221   5.577
78800W        W51126  18.232  39.846   4.609
78801W        W51127   0.400  44.779   2.666
78802W        W51128  12.244  16.153  13.979
78803W        W51129  17.569   1.365   3.327
78804W        W51130   8.373   7.292  12.348
78805W        W51131  40.798   1.926   1.234
78806W        W51132  32.956  32.395   1.248
78807W        W51133  13.276  35.997  14.876
78808W        W51134   8.881  40.853   3.198
78809W        W51135  26.986  34.075  13.383
78810W        W51136   6.401  14.610  14.321
78811W        W51137  35.904  17.755  12.466
78812W        W51138   7.201  21.161   0.798
78813W        W51139  42.839  21.700  13.417
78814W        W51140   5.843   3.907   3.299
78815W        W51141  19.653   1.311  11.374
78816W        W51142  31.589  23.544   3.193
78817W        W51143   4.777  19.594  11.388
78818W        W51144  38.562  43.996  11.570
78819W        W51145  31.422  16.604   2.315
78820W        W51146  33.080  16.759   1.726
78821W        W51147  31.614  44.288  14.476
78822W        W51148  36.859  25.046  14.495
78823W        W51149  20.762  41.001  14.782
78824W        W51150  31.612  38.069  11.094
78825W        W51151  24.022  31.615  13.791
78826W        W51152  15.745  24.613   1.293
78827W        W51153  28.176   7.736  14.822
78828W        W51154  24.985   4.811   4.149
78829W        W51155  15.610  30.482   4.633
78830W        W51156  14.174  18.656   0.361
78831W        W51157   3.330  27.178   1.315
78832W        W51158  43.892  39.044   3.180
78833W        W51159  31.068  40.332  11.872
78834W        W51160  22.222  31.422  14.890
78835W        W51161  25.151   4.248   0.252
78836W        W51162   5.281  14.827  10.608
78837W        W51163  15.618   8.309  14.425
78838W        W51164  27.501  36.473  13.791
78839W        W51165  14.197  16.102   0.406
78840W        W51166  22.139  30.141   0.731
78841W        W51167   4.210  31.517  11.387
78842W        W51168  25.553  21.197   0.293
78843W        W51169  33.610  39.346   4.326
78844W        W51170  39.868   0.860  14.506
78845W        W51171  37.570  26.672  10.972
78846W        W51172  12.208  12.243   0.775
78847W        W51173  30.552  26.568   0.297
78848W        W51174  33.063   4.217  11.895
78849W        W51175  20.132  29.543  14.933
78850W        W51176  15.744  12.733   2.747
78851W        W51177  10.183  27.947  11.536
78852W        W51178  10.181   7.224  13.843
78853W        W51179  42.465   3.903   2.340
78854W        W51180  12.303  18.710  12.473
78855W        W51181  36.444   8.190  10.452
78856W        W51182  26.109  25.126   3.714
78857W        W51183  25.219  19.543  11.923
78858W        W51184   1.812  34.044  12.352
78859W        W51185  21.124  28.629   0.764
78860W        W51186  43.937  37.379   0.836
78861W        W51187  29.620  27.456   2.835
78862W        W51188   0.827  21.193  10.619
78863W        W51189  33.928  14.144  11.612
78864W        W51190   4.287  37.541  10.633
78865W        W51191  33.946   7.740   3.300
78866W        W51192  24.706  34.614  14.995
78867W        W51193  32.045  34.009  14.850
78868W        W51194  14.737  31.016  10.987
78869W        W51195   8.670  21.582   2.335
78870W        W51196  33.590  24.089   3.715
78871W        W51197  41.392  13.241   1.894
78872W        W51198   8.838  15.660  11.457
78873W        W51199  11.229  30.141   4.258
78874W        W51200  23.506  27.175   1.902
78875W        W51201  42.329   1.905   3.867
78876W        W51202   7.331  24.011  14.503
78877W        W51203  44.767  43.456   0.769
78878W        W51204  38.558   0.408  14.824
78879W        W51205  21.173  13.635  11.499
78880W        W51206   9.249   6.322   2.370
78881W        W51207  31.041  39.530   0.480
78882W        W51208  27.997  39.846   0.367
78883W        W51209  25.673  37.933  11.089
78884W        W51210  11.285  39.064   4.797
78885W        W51211  34.078  31.406  14.005
78886W        W51212   3.889  15.771   1.421
78887W        W51213  38.884   0.493  10.137
78888W        W51214  38.443  23.707   0.245
78889W        W51215  16.245  35.392   3.219
78890W        W51216   1.372  10.643  13.335
78891W        W51217   4.333   1.957  11.521
78892W        W51218  40.999   5.841  14.904
78893W        W51219  14.181   4.901  13.437
78894W        W51220   9.647  38.021  10.539
78895W        W51221  26.036  24.019  11.532
78896W        W51222  34.040   1.299   3.264
78897W        W51223   2.253  10.848   2.344
78898W        W51224  11.658  40.870  11.044
78899W        W51225  18.165  34.970  11.555
78900W        W51226  21.235   2.231   3.869
78901W        W51227  35.404  30.599  12.538
78902W        W51228  32.509   7.674  13.324
78903W        W51229  35.904  36.097   1.699
78904W        W51230  38.892  30.998  10.010
78905W        W51231  20.135  10.230  14.806
78906W        W51232  12.226   5.326   3.663
78907W        W51233  33.611   3.718   4.647
78908W        W51234  13.791  18.243   1.354
78909W        W51235  18.210  22.095  12.347
78910W        W51236  42.890   1.299  12.987
78911W        W51237   3.388   9.323   1.332
78912W        W51238  37.359  24.532   2.851
78913W        W51239  20.703  15.611   3.774
78914W        W51240  10.318  37.463   0.319
78915W        W51241  14.321   8.811  11.029
78916W        W51242  23.138  14.834  10.595
78917W        W51243   7.796  34.381   4.339
78918W        W51244  34.991   9.688   1.704
78919W        W51245  11.363  20.246   0.318
78920W        W51246  41.956  10.677   2.707
78921W        W51247  23.048  10.273  13.367
78922W        W51248  30.604   9.319   0.743
78923W        W51249  39.432  41.804  14.972
78924W        W51250  38.883  15.271  10.025
78925W        W51251  15.084  21.588  14.765
78926W        W51252  25.022  42.381   2.339
78927W        W51253  30.487  31.408   1.427
78928W        W51254   4.254  25.635  10.965
78929W        W51255  43.486  27.588  13.944
78930W        W51256   3.847   6.796  10.527
78931W        W51257  10.717   6.325  14.836
78932W        W51258   1.320  11.798   3.660
78933W        W51259  32.078   4.252   2.290
78934W        W51260  24.012  32.433   4.185
78935W        W51261  20.216  38.024  11.424
78936W        W51262  39.847  43.807  11.582
78937W        W51263  37.853   9.799  11.561
78938W        W51264  35.393  43.814  13.957
78939W        W51265   1.469   3.244  13.334
78940W        W51266  13.182  42.889   4.741
78941W        W51267  39.520  37.854  12.345
78942W        W51268  39.415  34.446   3.805
78943W        W51269  25.580  41.928  14.908
78944W        W51270  36.871  38.989  12.989
78945W        W51271  17.641  13.799  13.913
78946W        W51272   2.293  28.628  11.449
78947W        W51273   1.974  40.387  11.926
78948W        W51274  22.034  29.022  12.917
78949W        W51275   4.426   8.392  13.444
78950W        W51276  40.541   5.934  12.346
78951W        W51277  36.420  17.578   2.185
78952W        W51278  43.896  40.382   4.265
78953W        W51279   5.329  36.960  12.361
78954W        W51280  22.576  43.424   0.428
78955W        W51281  37.413   8.207  10.408
78956W        W51282   3.380  23.168  12.080
78957W        W51283  25.659  18.139  13.381
78958W        W51284  26.627  28.546  13.824
78959W        W51285   6.907  34.413  11.954
78960W        W51286  10.879   1.775  12.029
78961W        W51287  25.013   5.730   4.778
78962W        W51288  39.454  34.120  14.860
78963W        W51289  40.040  42.412  12.967
78964W        W51290  16.799   7.828   2.252
78965W        W51291  30.636  15.257   4.672
78966W        W51292  29.569  28.659  13.481
78967W        W51293  24.084  34.414   4.325
78968W        W51294   6.299  17.157  12.520
78969W        W51295  38.917  11.792   1.366
78970W        W51296  36.987   3.375  12.827
78971W        W51297  37.944  19.649  12.828
78972W        W51298  28.941  13.657   4.240
78973W        W51299  19.668  38.054   3.738
78974W        W51300  25.991  17.610  14.980
78975W        W51301  43.966  21.743   3.783
78976W        W51302   9.736  15.281  13.315
78977W        W51303  42.992  18.707  14.880
78978W        W51304  29.076  22.644   1.441
78979W        W51305  43.817  44.444   2.266
78980W        W51306  26.521  28.993  14.760
78981W        W51307  40.502  23.508  10.984
78982W        W51308  25.111  18.117  12.541
78983W        W51309  41.796  39.398   2.791
78984W        W51310  42.933  28.087  11.489
78985W        W51311   3.390   6.852  14.018
78986W        W51312  29.044  42.348   4.129
78987W        W51313  43.908  11.671   0.283
78988W        W51314   2.870  12.132   0.467
78989W        W51315  36.059  32.123   0.781
78990W        W51316   1.758   8.161   0.745
78991W        W51317   7.326   5.927   1.929
78992W        W51318   3.832  21.598   2.749
78993W        W51319  31.443  23.698  13.370
78994W        W51320  29.483  23.999   1.887
78995W        W51321   0.282  30.466  10.966
78996W        W51322  27.618  35.535   4.117
78997W        W51323  12.814  19.041   4.217
78998W        W51324  26.673   6.183   4.293
78999W        W51325  44.756  36.927   4.222
79000W        W51326  15.780  39.980   4.284
79001W        W51327   7.693  19.140  13.009
79002W        W51328  17.731  18.218   2.895
79003W        W51329  18.683  29.087  10.066
79004W        W51330  18.651  25.186   4.662
79005W        W51331  30.920   0.477   4.715
79006W        W51332  26.539  40.470   1.449
79007W        W51333  43.860  20.612  13.974
79008W        W51334  23.007  14.319   2.339
79009W        W51335  18.293   3.225  14.948
79010W        W51336  37.544  30.047  13.449
79011W        W51337   9.719  37.914   2.868
79012W        W51338   2.835   5.196   4.249
79013W        W51339  17.121  23.535   2.803
79014W        W51340  44.371  19.251  13.537
79015W        W51341  28.595  24.086  12.544
79016W        W51342   5.396  24.194  11.590
79017W        W51343   8.850  16.262  11.601
79018W        W51344   3.746   0.786   2.686
79019W        W51345  36.580  37.930   0.401
79020W        W51346   0.384  43.862  14.461
79021W        W51347  33.011  13.827   2.693
79022W        W51348  26.642  22.669  12.952
79023W        W51349  14.254   5.894  12.434
79024W        W51350   4.746   8.797  10.010
79025W        W51351  34.886  38.053   4.166
79026W        W51352  36.870   3.369   0.772
79027W        W51353  39.042  42.831   0.910
79028W        W51354  14.187   4.867   2.754
79029W        W51355  24.569  29.948  11.005
79030W        W51356  13.761   9.709   3.328
79031W        W51357  10.325  28.095   0.833
79032W        W51358  20.206  16.296   0.298
79033W        W51359  11.841  42.032  10.613
79034W        W51360  22.560  20.768   4.235
79035W        W51361  22.564  30.573  13.484
79036W        W51362  38.409  24.085  14.418
79037W        W51363  34.900  19.607  13.923
79038W        W51364   8.260  34.419  13.055
79039W        W51365  25.643  44.934   3.651
79040W        W51366   5.315   1.924  14.287
79041W        W51367  33.996  40.457  14.017
79042W        W51368  37.548  33.877  12.472
79043W        W51369  42.301  21.532   3.187
79044W        W51370  33.525  35.063  11.445
79045W        W51371  16.759   1.786   1.742
79046W        W51372  28.550  20.644   3.308
79047W        W51373  28.944  25.188   0.852
79048W        W51374  40.967  32.613   0.318
79049W        W51375  43.353  16.641  13.537
79050W        W51376  28.508  31.044   1.885
79051W        W51377  21.139   6.749  11.899
79052W        W51378  15.165  21.111   2.308
79053W        W51379  35.941   9.691   3.758
79054W        W51380   3.395  43.335  13.423
79055W        W51381  35.447  21.670  11.932
79056W        W51382   7.186  26.979  11.399
79057W        W51383   3.781   8.397   1.435
79058W        W51384  27.177  38.900   2.399
79059W        W51385  20.259   8.806  12.826
79060W        W51386  23.085  20.049   1.891
79061W        W51387  11.296   8.191   1.932
79062W        W51388  15.165  32.476   4.204
79063W        W51389  29.053  40.000  11.522
79064W        W51390   8.663  34.885  11.049
79065W        W51391  30.023  44.860   2.180
79066W        W51392   0.928  23.172  14.508
79067W        W51393  40.388  31.573   2.264
79068W        W51394  10.139  39.339   1.719
79069W        W51395  34.378  36.382   3.240
79070W        W51396  31.950  14.593   2.336
79071W        W51397   0.783   7.245  13.800
79072W        W51398   1.911  38.873   2.200
79073W        W51399  12.241   0.860  13.994
79074W        W51400  10.259  35.489   0.357
79075W        W51401  42.799  28.507  10.461
79076W        W51402  15.711  35.967   3.375
79077W        W51403   5.827  27.123  10.633
79078W        W51404  20.074  17.561   1.723
79079W        W51405  33.544   7.336   4.339
79080W        W51406  15.222  34.870   4.732
79081W        W51407  30.118  20.654  12.887
79082W        W51408  26.679  19.620  10.556
79083W        W51409  22.670  40.895   3.372
79084W        W51410  31.058  33.982   4.275
79085W        W51411  33.557  14.323  10.116
79086W        W51412  34.911  30.490  10.999
79087W        W51413  22.099  29.595  10.923
79088W        W51414  14.269   0.750  12.393
79089W        W51415  28.622   8.664   1.388
79090W        W51416  16.082  22.631   2.746
79091W        W51417  31.978  26.468   4.307
79092W        W51418  13.132  33.446   1.829
79093W        W51419  41.341  20.730  13.421
79094W        W51420  10.827   3.769  10.620
79095W        W51421  39.343   6.235  14.921
79096W        W51422  15.164   9.699   4.757
79097W        W51423  23.677  19.163   1.782
79098W        W51424  26.044  32.560  12.895
79099W        W51425  16.726  40.399   2.772
79100W        W51426  40.415  16.214  14.425
79101W        W51427  25.171   5.278   2.814
79102W        W51428  13.842  13.345   4.715
79103W        W51429  19.647  15.148  11.923
79104W        W51430  35.013  29.120   0.813
79105W        W51431  39.470  24.516   2.321
79106W        W51432  11.865  42.025   3.772
79107W        W51433  42.490   6.883   0.319
79108W        W51434  27.092  40.872  14.493
79109W        W51435  11.652  13.123  11.048
79110W        W51436  37.347   0.772  11.565
79111W        W51437  42.982  29.970  14.960
79112W        W51438  11.138   1.734   2.228
79113W        W51439  37.505  23.054   4.771
79114W        W51440  44.324  39.426  10.419
79115W        W51441   6.883  30.024  10.932
79116W        W51442   6.276   3.284  11.922
79117W        W51443   0.851  21.057  10.034
79118W        W51444   3.295  12.773  11.118
79119W        W51445  23.627  28.008   2.868
79120W        W51446  20.247  34.433   4.758
79121W        W51447   4.403   8.284  14.885
79122W        W51448  21.129   8.763   0.909
79123W        W51449  23.047   1.741  13.486
79124W        W51450  12.215   7.187   4.341
79125W        W51451   6.252  44.009   2.265
79126W        W51452  31.609  19.067   2.702
79127W        W51453   2.846   2.910   0.279
79128W        W51454  26.032   4.424   0.482
79129W        W51455  35.979  43.848  11.904
79130W        W51456  30.049  43.492   0.384
79131W        W51457  26.569   1.838   2.841
79132W        W51458   0.830  37.401   4.802
79133W        W51459  38.958  10.249  11.510
79134W        W51460  42.356   5.745   2.691
79135W        W51461  38.344  16.157   0.750
79136W        W51462  42.952   0.319  13.540
79137W        W51463  11.737  12.132  10.546
79138W        W51464  14.773  43.857  13.036
79139W        W51465  30.592  20.125   3.767
79140W        W51466  34.378   7.392  12.476
79141W        W51467  38.894   0.426   2.416
79142W        W51468  22.035   3.395  12.860
79143W        W51469   8.729  29.553  14.896
79144W        W51470  39.508  19.183   4.175
79145W        W51471  20.726  11.358  12.564
79146W        W51472  31.610  41.323   0.874
79147W        W51473  18.653  33.910   4.331
79148W        W51474   3.932   8.292  11.091
79149W        W51475  24.044  37.850  12.484
79150W        W51476  20.170   9.305   4.320
79151W        W51477  17.067  13.225   0.406
79152W        W51478  44.760   3.930   2.903
79153W        W51479   5.232  39.870   0.738
79154W        W51480  25.653  16.710  12.393
79155W        W51481  17.148  30.121  13.836
79156W        W51482  24.001  22.567   5.245
79157W        W51483  23.684  15.311  14.477
79158W        W51484   0.405   8.700   1.736
79159W        W51485  24.508   4.861  10.981
79160W        W51486   5.316  43.309  14.454
79161W        W51487  12.350  41.909   4.275
79162W        W51488  38.956   1.351   0.340
79163W        W51489  32.493  43.336  11.372
79164W        W51490  35.397   1.299  12.048
79165W        W51491  23.088   9.816  10.570
79166W        W51492   3.235  44.932  12.919
79167W        W51493  44.422   5.710  10.913
79168W        W51494  21.528  43.381  13.312
79169W        W51495   3.255  16.231   3.785
79170W        W51496  25.154  13.697   3.676
79171W        W51497  24.515   7.182   3.215
79172W        W51498  34.066  37.914  14.455
79173W        W51499   5.869  34.875   0.287
79174W        W51500   7.855  38.925  14.762
79175W        W51501  11.142  17.081  13.050
79176W        W51502  18.762  34.071   1.849
79177W        W51503   9.663   1.338   0.393
79178W        W51504   4.270   0.475  10.596
79179W        W51505  31.994  27.054  13.537
79180W        W51506  16.204  32.069   3.753
79181W        W51507  24.678  40.898  12.539
79182W        W51508   9.687  36.033  13.412
79183W        W51509  33.904  34.979  12.020
79184W        W51510  31.072  30.635   5.231
79185W        W51511  16.150  11.333   1.358
79186W        W51512  11.840  26.675   9.537
79187W        W51513   2.937  24.013  14.783
79188W        W51514  37.891  36.882   2.338
79189W        W51515  21.633  35.359   3.291
79190W        W51516  28.486  32.427  13.333
79191W        W51517   0.794   4.850   4.678
79192W        W51518  16.697   8.709  12.060
79193W        W51519  17.168  34.942   2.338
79194W        W51520  12.839  27.000   2.721
79195W        W51521  20.575  38.327   3.293
79196W        W51522   5.750  15.812   4.239
79197W        W51523  32.499  29.157   2.270
79198W        W51524  32.975  38.440  11.512
79199W        W51525   3.920   7.665   0.843
79200W        W51526  24.533  16.745  14.015
79201W        W51527  19.201   5.723  13.794
79202W        W51528  40.317  41.000   0.259
79203W        W51529  22.664   0.487   2.227
79204W        W51530   1.888  43.436   2.818
79205W        W51531  25.094  39.341   4.153
79206W        W51532   3.446  22.065   3.280
79207W        W51533  37.999   5.749   1.252
79208W        W51534   4.316  40.929   0.465
79209W        W51535  18.561  38.418  13.827
79210W        W51536   4.934  41.992   4.772
79211W        W51537  25.076  32.522  13.858
79212W        W51538  21.639  10.659   2.688
79213W        W51539  43.022  44.421  10.920
79214W        W51540  11.243  39.400  10.419
79215W        W51541  40.346   4.318  12.037
79216W        W51542  42.354  28.454   1.333
79217W        W51543  38.978   0.395   3.326
79218W        W51544  23.500  28.679  10.622
79219W        W51545   7.255  40.901   1.801
79220W        W51546  24.695  32.480  13.896
79221W        W51547   5.814  25.979   1.858
79222W        W51548  22.595  21.558   0.407
79223W        W51549  29.950  38.515   3.715
79224W        W51550  19.605  41.309   0.772
79225W        W51551  26.078   1.823  13.352
79226W        W51552  38.507  30.465   1.899
79227W        W51553  22.692  22.201   4.280
79228W        W51554  23.084  35.512   2.740
79229W        W51555  37.909  26.154  11.062
79230W        W51556   2.463  34.475   2.204
79231W        W51557  35.018   1.412  12.467
79232W        W51558  40.406   8.872   1.223
79233W        W51559  41.446  33.066  13.319
79234W        W51560   9.820  13.740  11.072
79235W        W51561  16.733  26.698  14.509
79236W        W51562   4.774  31.933  11.982
79237W        W51563  40.397  21.609   1.442
79238W        W51564  19.709  38.511  11.125
79239W        W51565   7.314   2.380   3.791
79240W        W51566  22.056  35.418   2.845
79241W        W51567  36.423  11.651  13.059
79242W        W51568   9.338  41.040   2.273
79243W        W51569   9.380  37.482   5.239
79244W        W51570  23.537  34.572   4.262
79245W        W51571  44.367  26.678   1.696
79246W        W51572  24.158   4.937   1.408
79247W        W51573   2.302   0.316  11.014
79248W        W51574  11.734  27.624   2.284
79249W        W51575   1.930  11.128  12.438
79250W        W51576  41.341  43.294  14.390
79251W        W51577   0.392  12.192   4.685
79252W        W51578   2.383   2.901   0.860
79253W        W51579  32.563   0.448   4.171
79254W        W51580  18.573  13.342   3.869
79255W        W51581   2.792   3.841  12.438
79256W        W51582  18.205  39.970   2.245
79257W        W51583   2.274  21.035   5.806
79258W        W51584  36.368  28.577  12.936
79259W        W51585   4.848  18.273  14.489
79260W        W51586  34.913   4.723   5.151
79261W        W51587  10.664  25.537  10.136
79262W        W51588  10.826  19.604  13.920
79263W        W51589  29.173  32.450   3.633
79264W        W51590  21.062   6.847  14.317
79265W        W51591  23.065  27.672   4.666
79266W        W51592  28.643  29.550   2.355
79267W        W51593  17.685  14.819  13.808
79268W        W51594  26.556  24.684  14.350
79269W        W51595   2.738  30.608   4.261
79270W        W51596  12.151  40.381  14.889
79271W        W51597  11.736  26.052   2.180
79272W        W51598  10.360   8.797   1.300
79273W        W51599  40.957  34.566   4.637
79274W        W51600   5.253  15.318   0.729
79275W        W51601  30.959  24.092  10.638
79276W        W51602  44.470  11.724   3.842
79277W        W51603  37.833  44.937  14.012
79278W        W51604  28.072  40.536   3.290
79279W        W51605  31.940  20.140   1.835
79280W        W51606  31.101  17.650  11.033
79281W        W51607  31.898   4.411   4.251
79282W        W51608  15.123  19.772   4.326
79283W        W51609   2.456  26.563  11.002
79284W        W51610  38.011   8.399  14.803
79285W        W51611  36.989  10.715   4.182
79286W        W51612  33.039   4.328   1.825
79287W        W51613   7.398  38.905   2.214
79288W        W51614  13.115  22.739  11.867
79289W        W51615  11.797  44.767  14.364
79290W        W51616   6.406   3.871  11.953
79291W        W51617  11.852  28.507  11.508
79292W        W51618   4.893  15.693  13.922
79293W        W51619   8.683  26.688   2.262
79294W        W51620   4.442  17.638  12.998
79295W        W51621  35.461  38.411   1.776
79296W        W51622   1.455  12.147   4.318
79297W        W51623  36.480  10.798  14.834
79298W        W51624  15.186  33.594   4.819
79299W        W51625  35.875  39.908  10.605
79300W        W51626  30.119  37.830   1.830
79301W        W51627   1.444   0.290   2.872
79302W        W51628  38.538  37.551  12.843
79303W        W51629  41.801  25.183   2.281
79304W        W51630   1.316  20.204   0.757
79305W        W51631  36.426  35.586  12.917
79306W        W51632   8.718  41.469  12.009
79307W        W51633  38.479   3.389   2.277
79308W        W51634  17.690  30.051  12.944
79309W        W51635  43.777  19.274   4.741
79310W        W51636  25.653  22.185  10.940
79311W        W51637  11.819   1.353  13.889
79312W        W51638  12.741  20.262   3.279
79313W        W51639  19.061  32.546  10.626
79314W        W51640  39.456  13.770   4.124
79315W        W51641   9.749  32.017  14.895
79316W        W51642  41.026   2.780   1.789
79317W        W51643   5.774   2.239   0.942
79318W        W51644   0.955  15.130  10.902
79319W        W51645  20.164   2.231   1.331
79320W        W51646   0.808  31.908  10.459
79321W        W51647  42.337  31.581  10.469
79322W        W51648  39.560  16.707  11.525
79323W        W51649  24.986  26.108  11.596
79324W        W51650  26.509   3.891   1.300
79325W        W51651  35.423  19.071   2.280
79326W        W51652   5.866   3.261   1.222
79327W        W51653  14.229  31.949   4.183
79328W        W51654  22.193   6.779   3.230
79329W        W51655  21.160  25.030  14.363
79330W        W51656  21.572  15.753   3.868
79331W        W51657  13.798   7.909  14.826
79332W        W51658  44.452  12.806  10.479
79333W        W51659  12.116  43.302   2.380
79334W        W51660  24.211  29.921   4.640
79335W        W51661  17.753  33.510  10.956
79336W        W51662  31.912  10.848   1.867
79337W        W51663   0.780  12.652   3.295
79338W        W51664  15.227  44.929  14.302
79339W        W51665  21.026  38.339   5.590
79340W        W51666  12.273  26.526   1.310
79341W        W51667  27.646  34.110   4.661
79342W        W51668  27.128  31.102   2.830
79343W        W51669   5.907  20.170   2.285
79344W        W51670  29.033  19.655   3.159
79345W        W51671   8.355   1.833  10.462
79346W        W51672  29.113  11.663  13.013
79347W        W51673  32.889   0.922   3.674
79348W        W51674   4.879  20.654   0.403
79349W        W51675   0.824  23.071  12.018
79350W        W51676  34.119   6.766   3.828
79351W        W51677  31.909  27.486  14.898
79352W        W51678  24.081  26.151   4.170
79353W        W51679  28.987  28.945   4.252
79354W        W51680  27.116   2.325   4.681
79355W        W51681  16.183  40.959   3.276
79356W        W51682  40.956  25.617  12.417
79357W        W51683  38.963  17.618  12.566
79358W        W51684  12.269   9.258   4.825
79359W        W51685  36.538  31.998  11.557
79360W        W51686  20.223  13.198  13.923
79361W        W51687  41.474  30.627  11.095
79362W        W51688  14.817  26.669  12.058
79363W        W51689  39.399  22.050   1.739
79364W        W51690  26.657  23.215  13.541
79365W        W51691  19.249  44.953  14.771
79366W        W51692  41.371  27.465  10.634
79367W        W51693  20.047  14.125  10.432
79368W        W51694  24.629   4.364   4.659
79369W        W51695  36.955  33.034  12.891
79370W        W51696   9.152  16.167   3.830
79371W        W51697  20.196   3.874  12.828
79372W        W51698  12.305   7.341  14.837
79373W        W51699  34.482  12.153   3.381
79374W        W51700   8.777  27.625  11.046
79375W        W51701  28.631   4.727  12.862
79376W        W51702  29.459  22.054  10.423
79377W        W51703   6.285  30.471   1.919
79378W        W51704  42.496  27.151  12.400
79379W        W51705  13.809   3.370   2.791
79380W        W51706  10.309  15.324  12.051
79381W        W51707  19.673  25.482   0.934
79382W        W51708  44.806  16.214  11.610
79383W        W51709   5.739  19.209  11.102
79384W        W51710  23.168   4.865   0.772
79385W        W51711  10.331  24.228  11.890
79386W        W51712  12.182  38.012  12.532
79387W        W51713  26.599  34.989   2.720
79388W        W51714   6.756  35.010   2.367
79389W        W51715  19.078  15.621  13.458
79390W        W51716  16.636  10.854   4.169
79391W        W51717  27.155  25.497   3.749
79392W        W51718   5.869  23.581  12.044
79393W        W51719  42.432  20.200   0.433
79394W        W51720  44.992  41.430   4.608
79395W        W51721  26.145   5.883  13.838
79396W        W51722   4.316  15.703  13.364
79397W        W51723  26.524   3.870  14.006
79398W        W51724   0.974   1.933  13.923
79399W        W51725  34.863  43.877  14.313
79400W        W51726  24.618   5.428  12.826
79401W        W51727  22.567  20.212   4.226
79402W        W51728  41.329  22.052  14.957
79403W        W51729  32.510  35.943   3.355
79404W        W51730  24.670  37.532  12.533
79405W        W51731   7.280   8.699   4.600
79406W        W51732  12.189   5.438   4.675
79407W        W51733  26.567  23.218   4.266
79408W        W51734   8.703   8.823   1.767
79409W        W51735  18.176  13.801   0.841
79410W        W51736  13.261  41.471  11.613
79411W        W51737  34.955   7.850  14.416
79412W        W51738  22.527  17.295   1.708
79413W        W51739  21.517  27.153  11.388
79414W        W51740  39.912  17.186   4.701
79415W        W51741  38.406   6.776  10.432
79416W        W51742   8.354  18.068   4.767
79417W        W51743  10.759   7.870  12.397
79418W        W51744  43.981  27.679  12.018
79419W        W51745  20.143  14.297   4.333
79420W        W51746  31.953  36.078  12.087
79421W        W51747  13.255  14.222  10.608
79422W        W51748  22.105  24.060  11.064
79423W        W51749   7.903  44.489  10.024
79424W        W51750  14.756   5.862   1.886
79425W        W51751   0.749  14.736   1.239
79426W        W51752  36.360   5.877  13.462
79427W        W51753  32.520  38.532   0.842
79428W        W51754  29.587  37.895   0.795
79429W        W51755   4.757  20.203  12.370
79430W        W51756   1.778  27.565  14.016
79431W        W51757  26.094  40.012   3.662
79432W        W51758  37.568   3.388  10.913
79433W        W51759  17.083  10.343  10.039
79434W        W51760  11.317  16.191   4.676
79435W        W51761   6.894  38.439  12.848
79436W        W51762  36.450  44.891   3.280
79437W        W51763  37.889  10.233  13.961
79438W        W51764  16.107  25.678   3.317
79439W        W51765  33.614  33.512   3.260
79440W        W51766   0.745  42.019  12.934
79441W        W51767  14.721  43.409  13.999
79442W        W51768  42.797  42.787   0.481
79443W        W51769   6.420  25.188  10.964
79444W        W51770  10.283  36.490   0.261
79445W        W51771   6.919  34.370  13.330
79446W        W51772   7.359  38.875  12.919
79447W        W51773   4.267   6.761  13.845
79448W        W51774   8.883  42.400  12.823
79449W        W51775  43.963  15.690   4.636
79450W        W51776  42.423  43.934  10.412
79451W        W51777   1.264  30.415  14.504
79452W        W51778  37.008  10.138  11.861
79453W        W51779  21.088  20.037   0.274
79454W        W51780  14.684  22.088   4.725
79455W        W51781  38.407   8.184   2.326
79456W        W51782   1.782   9.866   1.332
79457W        W51783  32.935  35.520  12.436
79458W        W51784  39.440   0.755  11.915
79459W        W51785  30.502   4.823   3.754
79460W        W51786  41.412  19.081  10.554
79461W        W51787  25.480  43.988  14.310
79462W        W51788  28.005  29.449   3.664
79463W        W51789  42.025   6.794   3.299
79464W        W51790  19.182   8.193   3.634
79465W        W51791  37.034  22.010  11.566
79466W        W51792  43.775   3.936  12.877
79467W        W51793  15.768  24.023  12.430
79468W        W51794   1.442   3.746  14.501
79469W        W51795  10.378  38.519  10.011
79470W        W51796   4.274  36.018   4.131
79471W        W51797  12.645  19.673   3.146
79472W        W51798  20.740  42.450  13.048
79473W        W51799  18.296  42.517   2.312
79474W        W51800  16.711  17.593   3.745
79475W        W51801  11.802  34.969  11.542
79476W        W51802  13.798  19.686  11.914
79477W        W51803  25.490  23.611  14.299
79478W        W51804  34.371  36.061   1.236
79479W        W51805  44.760   1.297  13.975
79480W        W51806  15.641  34.062  14.011
79481W        W51807  24.640  13.315   1.700
79482W        W51808  35.056   9.643  10.533
79483W        W51809  39.422  31.967   0.816
79484W        W51810   1.854   8.779   3.838
79485W        W51811   7.836  33.041  14.453
79486W        W51812   6.328  40.494   0.293
79487W        W51813  44.962   4.269  10.562
79488W        W51814  37.002  12.242   3.697
79489W        W51815  38.016  43.953   3.315
79490W        W51816   8.790  36.073  13.855
79491W        W51817  44.893  42.429   1.916
79492W        W51818  29.923  34.554   4.268
79493W        W51819  28.552  28.113  10.131
79494W        W51820  42.983   3.918   3.718
79495W        W51821  24.198   6.732   3.146
79496W        W51822   0.881   0.750   1.865
79497W        W51823  41.911   0.906   2.386
79498W        W51824  41.800  31.935   3.318
79499W        W51825  36.582  38.436  14.949
79500W        W51826  34.573  36.072   0.276
79501W        W51827  12.716  32.454   0.836
79502W        W51828  13.148  22.673  13.975
79503W        W51829  16.716   8.384  11.862
79504W        W51830  20.604   1.329  14.469
79505W        W51831   2.263  39.469   4.827
79506W        W51832  25.617  12.850   1.217
79507W        W51833  42.287  33.114   3.169
79508W        W51834  27.032  43.837   2.201
79509W        W51835  25.096  39.409  11.878
79510W        W51836  17.639  13.219  14.330
79511W        W51837  18.282  15.265  12.430
79512W        W51838  13.802  38.836   4.636
79513W        W51839  29.921  17.159  12.838
79514W        W51840  13.816  37.905   1.866
79515W        W51841  21.572  41.866   1.843
79516W        W51842  32.107   4.737   5.135
79517W        W51843  14.760  37.425  12.828
79518W        W51844   4.856   5.914  11.072
79519W        W51845  17.681  15.223   1.893
79520W        W51846  28.932  26.146  14.836
79521W        W51847   0.962  37.494   4.229
79522W        W51848  44.917  31.009  12.532
79523W        W51849   8.385  18.070  12.924
79524W        W51850  32.017   1.874  12.571
79525W        W51851  10.328  36.386   3.206
79526W        W51852  28.483  42.925   4.216
79527W        W51853  16.073  39.954   0.810
79528W        W51854  25.660  40.326  13.314
79529W        W51855  20.036  42.846  13.919
79530W        W51856  11.335  33.016   1.256
79531W        W51857  17.216  21.692   2.885
79532W        W51858  25.101  14.128   4.188
79533W        W51859  29.427  20.206   1.270
79534W        W51860   5.891  30.122  12.961
79535W        W51861  12.846  21.543  13.807
79536W        W51862   7.205  15.815   2.343
79537W        W51863  24.194  27.447  14.027
79538W        W51864   6.756  11.173   4.277
79539W        W51865  16.709   9.206  13.035
79540W        W51866  24.622  35.854  14.992
79541W        W51867  13.799  44.893  10.455
79542W        W51868  26.651  13.291   3.317
79543W        W51869  27.998  15.807   2.680
79544W        W51870  22.126  34.027   4.812
79545W        W51871  43.963  33.117  12.048
79546W        W51872   4.449  24.174  10.084
79547W        W51873  23.648  24.205  14.915
79548W        W51874  27.472  25.145  11.467
79549W        W51875   8.723   5.338  13.403
79550W        W51876  22.200  22.634   1.800
79551W        W51877   8.658  37.879  10.543
79552W        W51878  30.022  17.740  12.856
79553W        W51879   6.765  16.741   3.221
79554W        W51880  17.736  16.298   1.326
79555W        W51881  22.640  29.922  12.869
79556W        W51882  27.966  14.710   1.770
79557W        W51883   5.834   8.195   3.244
79558W        W51884   6.843  16.695  14.919
79559W        W51885  17.594  10.767  14.312
79560W        W51886   7.777  23.032   3.763
79561W        W51887   7.344  27.057  13.546
79562W        W51888  22.223   1.948   4.160
79563W        W51889   9.240  40.831  10.908
79564W        W51890  22.195  22.559   3.210
79565W        W51891  13.329  26.658   4.187
79566W        W51892  32.559  32.074   2.310
79567W        W51893   2.313   8.678   2.417
79568W        W51894  25.644  23.650  10.501
79569W        W51895   4.313  35.483   3.287
79570W        W51896  20.545  37.010   0.347
79571W        W51897  37.548   1.821  14.292
79572W        W51898  31.625  14.293  13.985
79573W        W51899  11.133   3.856  12.897
79574W        W51900   3.954  21.105  13.863
79575W        W51901   9.736   9.237   0.891
79576W        W51902  28.003  40.469  11.471
79577W        W51903  20.732   1.398   4.295
79578W        W51904  21.237  30.072   1.747
79579W        W51905  11.165  28.515   3.653
79580W        W51906   0.307  40.364   1.397
79581W        W51907   8.406  25.038   2.264
79582W        W51908  19.622  24.058  10.496
79583W        W51909   5.208   7.828  11.955
79584W        W51910  11.623  22.175   2.395
79585W        W51911  34.497  29.569  12.882
79586W        W51912  38.072  43.980  14.431
79587W        W51913  40.841  36.379  13.934
79588W        W51914  10.654  10.817  11.579
79589W        W51915  30.501  35.553  13.055
79590W        W51916  19.642  23.166  11.585
79591W        W51917  26.084  12.145   0.912
79592W        W51918  23.645  13.230   4.761
79593W        W51919  28.147  13.344  12.914
79594W        W51920  21.178   6.776  12.540
79595W        W51921  12.349  21.662  12.439
79596W        W51922  32.078   5.895  11.569
79597W        W51923  41.350  39.872  14.929
79598W        W51924  42.894  31.952  12.348
79599W        W51925  35.076  18.561   0.377
79600W        W51926  18.770  25.670   3.658
79601W        W51927  39.964   9.795   0.824
79602W        W51928  25.506  20.104   1.401
79603W        W51929  43.313  43.445  11.123
79604W        W51930   2.955  10.378  14.288
79605W        W51931  38.389   3.425   1.863
79606W        W51932   3.858  43.899  14.278
79607W        W51933  26.656  41.390   3.154
79608W        W51934  33.940   6.704   0.283
79609W        W51935   8.169  36.035  13.405
79610W        W51936   4.389  15.276  12.900
79611W        W51937  29.647  34.897   3.189
79612W        W51938  31.623  14.685  10.420
79613W        W51939   9.160   0.260   2.899
79614W        W51940  19.101  38.998   2.792
79615W        W51941  26.088  19.547   3.218
79616W        W51942  41.972  31.462  14.337
79617W        W51943  34.879   0.378   2.271
79618W        W51944  36.960  33.094  10.550
79619W        W51945   1.377  27.477  14.870
79620W        W51946  30.005  17.700   4.705
79621W        W51947  22.152  38.942  10.895
79622W        W51948  23.097  42.966  12.926
79623W        W51949  29.648  19.234  11.911
79624W        W51950  10.871  13.320   2.218
79625W        W51951   9.861  11.740   4.211
79626W        W51952  41.989  16.593  13.496
79627W        W51953  36.963  21.147  12.873
79628W        W51954  35.565  19.749  14.299
79629W        W51955   0.860  12.688   1.919
79630W        W51956  35.014  37.341   0.767
79631W        W51957   7.835  24.118   4.697
79632W        W51958   0.434  40.529  13.422
79633W        W51959  21.034  15.295   2.277
79634W        W51960  19.575  16.074   0.835
79635W        W51961  21.600  23.082   3.737
79636W        W51962  11.775  22.729   3.674
79637W        W51963  27.189   0.465  11.406
79638W        W51964  38.855   0.955   5.315
79639W        W51965  19.079  40.335   3.631
79640W        W51966   8.819  23.729   0.946
79641W        W51967   3.398  21.191  12.038
79642W        W51968   1.932  41.304  10.407
79643W        W51969  29.487  16.165   2.258
79644W        W51970  34.012  18.562   2.375
79645W        W51971  40.899  24.068   2.809
79646W        W51972  19.591  13.724  14.942
79647W        W51973  27.524  41.295   4.132
79648W        W51974  42.344  40.511  11.376
79649W        W51975   9.392  43.341   4.827
79650W        W51976  27.993  29.962   0.783
79651W        W51977  14.208  11.837  13.332
79652W        W51978  20.711  21.549   4.326
79653W        W51979  36.447  10.300  10.421
79654W        W51980  34.052  39.519  12.093
79655W        W51981  18.121  11.180  14.367
79656W        W51982  40.804  23.107  13.941
79657W        W51983   2.832  12.270   1.775
79658W        W51984  19.767   5.324   0.885
79659W        W51985  36.505  14.673  14.850
79660W        W51986  16.139  12.806   0.352
79661W        W51987  34.979  20.109  10.617
79662W        W51988  33.119  19.232   2.277
79663W        W51989  32.624  14.743  14.761
79664W        W51990   9.873   0.800  10.892
79665W        W51991  13.291  18.279  11.536
79666W        W51992  24.070   1.927  11.883
79667W        W51993  11.255  31.482  10.431
79668W        W51994  34.960  38.325  10.447
79669W        W51995  33.008  32.584   2.246
79670W        W51996  39.383   2.389   3.811
79671W        W51997   2.966   5.810  10.938
79672W        W51998   5.283  23.997  13.967
79673W        W51999  16.583  43.765   3.824
79674W        W52000  27.650   5.847   1.729
79675W        W52001  31.120  25.969  13.822
79676W        W52002  11.156   7.754   0.459
79677W        W52003  33.603   7.219  14.813
79678W        W52004  43.944   9.371   0.803
79679W        W52005  29.035  27.633  12.366
79680W        W52006  31.634  14.802  11.037
79681W        W52007  21.590  17.708  12.478
79682W        W52008  35.921  21.061   3.166
79683W        W52009   5.215  25.499  12.005
79684W        W52010  42.875  22.028  12.385
79685W        W52011  24.981  31.076  13.538
79686W        W52012   7.876  39.890  14.390
79687W        W52013   8.365  29.106   4.759
79688W        W52014  34.458   3.431   4.658
79689W        W52015  31.897  23.182   0.877
79690W        W52016  10.384   9.259   4.696
79691W        W52017  40.403  41.913  13.521
79692W        W52018  11.867  16.199   2.810
79693W        W52019  11.178  33.381  12.478
79694W        W52020  29.596  19.718   2.419
79695W        W52021   1.908  20.594   0.283
79696W        W52022  33.936  34.497   1.875
79697W        W52023  23.585  37.869   4.818
79698W        W52024  41.352  12.645   2.828
79699W        W52025  37.071  32.016  10.614
79700W        W52026  37.437  39.364   2.366
79701W        W52027  21.573  25.973   4.210
79702W        W52028   0.760  23.538   3.640
79703W        W52029  14.626   1.480  11.917
79704W        W52030  43.316  20.733   3.731
79705W        W52031  42.331  11.738   4.176
79706W        W52032  43.447  42.493   3.198
79707W        W52033  38.023  24.162  11.555
79708W        W52034  37.345   7.193   3.638
79709W        W52035  28.498  34.411  12.967
79710W        W52036  32.973  23.070   2.713
79711W        W52037  39.368  23.586   2.408
79712W        W52038   1.313  28.100  13.883
79713W        W52039  17.648   1.478  12.021
79714W        W52040  28.660  11.296  14.512
79715W        W52041  27.055  27.690  12.577
79716W        W52042  25.631  21.604   0.319
79717W        W52043  16.740   1.837  12.958
79718W        W52044  11.628  13.228   2.725
79719W        W52045  20.085  38.001   0.869
79720W        W52046  19.199  29.951   4.756
79721W        W52047  28.970   5.200   4.829
79722W        W52048  33.380  41.440  10.528
79723W        W52049  13.126  31.989   1.222
79724W        W52050  26.954  24.094   2.896
79725W        W52051  10.247  34.022  13.424
79726W        W52052  26.482  40.987  13.435
79727W        W52053  10.211  31.480   3.162
79728W        W52054  17.634  35.499   2.269
79729W        W52055   1.362  13.704   4.608
79730W        W52056  44.317  29.997   2.242
79731W        W52057  42.373   9.243  12.828
79732W        W52058   3.722  15.744  13.492
79733W        W52059  29.142  15.147  11.871
79734W        W52060  20.714  26.951  13.022
79735W        W52061  28.679  10.673  12.501
79736W        W52062  37.348  40.799   0.328
79737W        W52063  20.063  26.088   0.416
79738W        W52064  33.406  31.498   4.163
79739W        W52065   9.371  18.285   4.755
79740W        W52066  17.701   4.363  11.601
79741W        W52067   5.902  24.641  11.610
79742W        W52068  28.003   4.903   3.817
79743W        W52069   0.255  41.797  14.422
79744W        W52070  14.251  27.601   4.342
79745W        W52071  31.502  36.877  11.100
79746W        W52072  36.844  31.977   3.352
79747W        W52073  44.417   9.774   4.262
79748W        W52074  35.901  16.789  13.932
79749W        W52075  33.114  26.559  14.327
79750W        W52076   6.258  39.821   1.387
79751W        W52077   1.385  31.999   3.207
79752W        W52078  23.005   8.370   2.216
79753W        W52079  43.512  29.152  12.914
79754W        W52080  12.137  40.450   2.752
79755W        W52081  13.811  14.641  11.055
79756W        W52082  14.114  42.306   0.763
79757W        W52083  38.869  35.866  14.968
79758W        W52084  11.849  14.339   2.763
79759W        W52085   3.280  20.631   4.724
79760W        W52086  13.125   2.410   5.091
79761W        W52087   8.218  12.214   3.298
79762W        W52088  16.086  42.503   0.460
79763W        W52089  27.576  38.067  12.501
79764W        W52090   2.262  24.591   5.208
79765W        W52091  24.620  40.826   3.724
79766W        W52092  29.087   8.290   1.443
79767W        W52093   7.716   2.246   4.157
79768W        W52094  30.574  13.299   3.358
79769W        W52095  33.417  41.511  12.419
79770W        W52096   4.940   2.435  14.863
79771W        W52097  26.991  30.657  10.619
79772W        W52098  33.506   0.855   2.200
79773W        W52099  14.792  41.882   0.458
79774W        W52100  14.278   7.874   0.909
79775W        W52101  43.003   8.685   4.692
79776W        W52102  40.033   1.267  11.436
79777W        W52103  40.304  10.781   1.375
79778W        W52104  29.561  10.241   1.717
79779W        W52105  24.159  43.466  14.410
79780W        W52106   6.686   3.736  12.981
79781W        W52107  26.951  10.759   4.689
79782W        W52108  31.115   5.841  14.763
79783W        W52109  26.668  14.330   0.960
79784W        W52110  30.149  26.969  12.873
79785W        W52111  20.729   0.780  13.948
79786W        W52112  10.367  35.980  14.357
79787W        W52113  30.931  44.468  11.928
79788W        W52114   9.255  30.591  12.971
79789W        W52115   3.380  39.039  14.321
79790W        W52116  14.638   9.281  14.901
79791W        W52117  22.694  25.485  14.496
79792W        W52118  20.113   4.323  12.342
79793W        W52119  12.137   3.367   3.853
79794W        W52120  11.862  20.636   0.747
79795W        W52121  19.099  31.605  10.445
79796W        W52122  20.212   4.775   0.804
79797W        W52123  27.649   4.827  12.057
79798W        W52124  32.597   4.361  12.007
79799W        W52125  42.356  14.097   4.337
79800W        W52126  21.552  24.675  10.928
79801W        W52127  11.760  14.706   2.388
79802W        W52128  39.943  13.665   4.198
79803W        W52129  37.452  37.079   2.178
79804W        W52130  30.162  36.842  11.907
79805W        W52131   6.184  43.767   1.743
79806W        W52132   9.174  32.084   2.374
79807W        W52133   0.492  13.686  14.448
79808W        W52134  42.480  39.872   4.141
79809W        W52135  19.569  24.021   0.370
79810W        W52136  36.480  13.348   0.260
79811W        W52137  42.835  40.829  14.883
79812W        W52138  38.043  32.909   3.801
79813W        W52139  29.495  38.526   4.752
79814W        W52140  23.587  39.040  12.401
79815W        W52141   5.425   5.795   4.253
79816W        W52142  22.056  27.107  14.949
79817W        W52143  20.155  40.955  10.514
79818W        W52144  33.532  11.300   3.211
79819W        W52145  30.612  11.132   2.666
79820W        W52146  15.314  37.031  10.584
79821W        W52147  25.698  22.162   3.198
79822W        W52148  37.906  21.752  12.395
79823W        W52149  36.502  33.091   4.245
79824W        W52150  32.456  35.880  12.855
79825W        W52151   7.417  36.360  14.456
79826W        W52152   5.879   4.833  14.439
79827W        W52153  16.639  10.774   2.353
79828W        W52154   8.822  23.016  12.535
79829W        W52155   3.313  25.036   2.715
79830W        W52156  38.361   6.183   4.320
79831W        W52157  31.017   3.443  13.836
79832W        W52158  21.600  40.323  12.889
79833W        W52159  42.314  11.258  11.982
79834W        W52160  32.097  33.058   2.788
79835W        W52161  27.602   9.688   4.230
79836W        W52162  27.576   0.365   3.636
79837W        W52163  24.182  23.627  11.607
79838W        W52164  38.463  37.938   4.703
79839W        W52165  24.674  43.373  10.449
79840W        W52166  20.649   2.817   3.275
79841W        W52167  36.996  24.550  12.060
79842W        W52168  23.498  26.100   3.840
79843W        W52169  33.976  34.925   2.375
79844W        W52170  24.066  11.742   1.416
79845W        W52171  30.529   6.300   1.923
79846W        W52172  43.769   5.799   4.835
79847W        W52173  30.447  17.585  14.357
79848W        W52174  41.829  19.643   1.369
79849W        W52175  35.493   7.696  14.287
79850W        W52176  17.792  44.273   0.818
79851W        W52177   1.281   8.871   2.856
79852W        W52178  14.786  27.675  11.509
79853W        W52179   0.341  21.634  13.905
79854W        W52180   4.273  24.714  10.560
79855W        W52181   4.381  42.799   1.889
79856W        W52182  41.986  26.461   1.396
79857W        W52183  28.661  34.516   1.261
79858W        W52184  38.554  20.117   3.253
79859W        W52185  21.705  29.060   1.340
79860W        W52186  24.999   7.690   3.377
79861W        W52187  13.346  35.863  10.509
79862W        W52188   2.371  11.204  11.492
79863W        W52189  38.332  41.803  11.050
79864W        W52190  12.634   0.457  14.765
79865W        W52191  40.838  35.446  11.010
79866W        W52192  43.009  37.848   3.662
79867W        W52193   2.961  39.349   1.858
79868W        W52194   9.314  33.950  14.423
79869W        W52195  19.569  14.605  11.985
79870W        W52196  14.175  27.585   0.413
79871W        W52197  34.509  33.569  13.519
79872W        W52198  25.177  25.585   1.286
79873W        W52199   4.329  24.991  13.961
79874W        W52200  33.107   6.194  13.871
79875W        W52201  29.056  23.581  13.448
79876W        W52202  17.773   9.796  12.360
79877W        W52203   5.300  36.038   0.408
79878W        W52204  22.685  15.621   2.838
79879W        W52205   7.813  11.665  10.105
79880W        W52206  34.480   6.761  13.007
79881W        W52207  25.059  26.556   1.228
79882W        W52208  15.181   9.729   2.179
79883W        W52209  36.940  27.133   0.919
79884W        W52210  27.602   6.193  14.961
79885W        W52211  36.465  41.342  13.487
79886W        W52212  26.602  13.799  13.822
79887W        W52213  16.712  26.190   0.731
79888W        W52214  29.053  30.513   0.349
79889W        W52215  28.033   7.741  11.032
79890W        W52216  29.015  41.415  10.891
79891W        W52217  30.119   1.440   3.846
79892W        W52218  25.475   0.846  13.440
79893W        W52219  22.529  39.353  11.999
79894W        W52220   1.310  12.337  11.591
79895W        W52221  42.925  15.824  10.608
79896W        W52222  33.892  41.464   3.287
79897W        W52223  16.262   4.706   1.286
79898W        W52224  14.199  35.983  10.556
79899W        W52225   3.409  42.515  14.759
79900W        W52226  16.743   3.872  10.611
79901W        W52227  25.978   1.389  12.824
79902W        W52228  20.155  24.203   1.365
79903W        W52229  29.069   2.277   0.279
79904W        W52230  25.187  22.015   4.809
79905W        W52231  41.954  37.962   3.698
79906W        W52232  27.580  11.272   0.826
79907W        W52233  33.094  24.005  14.943
79908W        W52234  40.923  12.707   4.744
79909W        W52235  19.096  34.490  11.603
79910W        W52236  34.915  13.292   2.202
79911W        W52237  12.290  41.441   0.286
79912W        W52238  37.538   3.283  11.912
79913W        W52239  24.088  38.971  13.003
79914W        W52240  43.322  40.330   3.663
79915W        W52241  44.955  40.961   2.756
79916W        W52242  30.147  16.686   0.941
79917W        W52243  13.723   5.823  11.074
79918W        W52244  25.704  29.139  11.101
79919W        W52245   6.678  44.789   3.253
79920W        W52246  34.977  12.635  12.065
79921W        W52247  40.514  42.348  10.566
79922W        W52248  17.769  27.065  13.331
79923W        W52249  18.755  17.249   5.114
79924W        W52250  14.136  24.602   4.822
79925W        W52251  13.161  10.685   1.895
79926W        W52252  37.462   8.853  10.616
79927W        W52253   0.493   8.858   1.443
79928W        W52254  25.076   9.188   5.298
79929W        W52255  37.054  39.317  14.344
79930W        W52256   2.800  37.936   2.183
79931W        W52257  17.226  17.064  10.456
79932W        W52258  40.982  43.983  14.792
79933W        W52259   0.862  21.159   0.929
79934W        W52260  10.658  37.341   1.727
79935W        W52261   3.873  21.669  14.412
79936W        W52262  10.306  33.963   4.798
79937W        W52263  38.459   2.438  14.469
79938W        W52264   1.779  43.841  11.530
79939W        W52265  23.150  26.957  13.499
79940W        W52266  19.222   0.850   4.731
79941W        W52267   1.953   0.773  12.527
79942W        W52268  34.562  30.487  13.939
79943W        W52269   0.360  34.937  14.840
79944W        W52270  10.291  17.272   2.872
79945W        W52271  38.915  34.899  13.047
79946W        W52272  16.679  23.056  11.006
79947W        W52273  14.308  16.280   3.174
79948W        W52274  30.456  35.393  12.009
79949W        W52275  21.598  19.272  11.091
79950W        W52276  29.551  35.058  13.518
79951W        W52277  44.329  32.500   2.400
79952W        W52278  40.803  43.971   4.283
79953W        W52279   1.431  34.445   2.245
79954W        W52280  27.002   2.849   4.170
79955W        W52281  15.736  36.369  14.322
79956W        W52282  34.583   6.701  14.781
79957W        W52283  34.038  13.690   1.393
79958W        W52284   8.803   3.314   1.378
79959W        W52285  38.057  36.347   1.432
79960W        W52286  14.835   1.376   0.372
79961W        W52287  13.282  19.139  13.537
79962W        W52288  39.982  28.648  12.083
79963W        W52289  41.353  31.114   1.859
79964W        W52290  31.015   9.149   1.436
79965W        W52291  43.516   0.755  14.881
79966W        W52292  34.910  31.442  14.009
79967W        W52293  32.480  36.512  12.093
79968W        W52294  34.560   6.896   2.718
79969W        W52295  39.860  16.683   4.829
79970W        W52296  39.037  44.841  10.595
79971W        W52297  43.473  13.654  14.906
79972W        W52298  34.570  23.232  11.036
79973W        W52299  34.395  34.419   2.312
79974W        W52300  38.403  21.042  13.435
79975W        W52301  19.758  29.156  12.084
79976W        W52302  44.498  21.713  13.798
79977W        W52303  20.635  30.657   0.404
79978W        W52304  12.164  16.571   2.887
79979W        W52305  36.049  28.441   3.712
79980W        W52306  12.307   9.817  13.799
79981W        W52307  29.623  16.582  10.894
79982W        W52308  36.510   6.707   4.671
79983W        W52309  22.623  42.385   3.651
79984W        W52310  44.797  27.058   1.905
79985W        W52311  30.010  41.351   3.866
79986W        W52312  31.970  36.064   0.802
79987W        W52313  36.466   7.827  12.494
79988W        W52314  16.650  20.079  13.496
79989W        W52315  38.906   1.910   4.174
79990W        W52316   1.761  39.417   2.807
79991W        W52317  18.560  44.955   0.820
79992W        W52318  40.472  17.198   2.317
79993W        W52319  34.930  29.549  13.047
79994W        W52320  20.527   6.831  12.837
79995W        W52321  14.111  38.988  14.321
79996W        W52322  35.079  17.592  11.065
79997W        W52323  23.074   5.302   2.270
79998W        W52324  37.877  21.244   2.759
79999W        W52325   4.333  17.275  12.397
80000W        W52326  37.968   4.362   0.310
80001W        W52327  10.870  27.517  13.943
80002W        W52328  36.906   6.208   4.254
80003W        W52329  43.403  19.681   1.403
80004W        W52330  32.598   5.922  11.416
80005W        W52331  18.659  12.357  13.800
80006W        W52332  39.859  26.625   2.742
80007W        W52333  35.860   1.961   2.194
80008W        W52334   4.258  31.517   2.270
80009W        W52335   1.770  14.297   3.360
80010W        W52336  43.395  20.766  11.873
80011W        W52337  27.098  41.034  13.051
80012W        W52338  33.998  31.418   4.278
80013W        W52339  22.643   5.907  13.925
80014W        W52340  35.597   0.317   0.771
80015W        W52341  37.581  15.806  13.523
80016W        W52342   5.821   6.418   1.697
80017W        W52343  35.416  32.495   0.960
80018W        W52344  36.940  16.570  11.065
80019W        W52345   0.767   4.814  13.810
80020W        W52346  23.163  38.834  10.900
80021W        W52347  25.150  24.698   1.407
80022W        W52348  20.602  26.099   2.214
80023W        W52349  35.469  11.815  10.588
80024W        W52350  38.926   5.782  13.008
80025W        W52351  30.914   2.342  11.561
80026W        W52352   4.780   4.921   3.835
80027W        W52353  43.810  32.108  12.891
80028W        W52354  19.260  17.703  14.305
80029W        W52355  27.142  38.553  14.787
80030W        W52356  21.519  27.024  10.444
80031W        W52357  27.972  41.859   2.670
80032W        W52358   1.387  41.889   2.378
80033W        W52359  33.939  36.454   3.676
80034W        W52360  36.087  44.830  10.472
80035W        W52361   0.815   8.669   5.218
80036W        W52362  25.064  39.874  14.975
80037W        W52363  29.979  34.597  14.405
80038W        W52364  17.110  28.547   3.387
80039W        W52365  36.457  44.779   2.801
80040W        W52366  34.999  25.022   4.771
80041W        W52367  44.312  20.050  14.804
80042W        W52368  39.417  41.905  14.399
80043W        W52369  39.899   6.869  13.920
80044W        W52370  19.057  11.148   2.750
80045W        W52371  11.662  26.151   1.436
80046W        W52372  43.952   3.282  14.002
80047W        W52373  44.911  29.966  11.028
80048W        W52374  23.238  12.821   4.304
80049W        W52375   1.829   0.814  14.508
80050W        W52376  43.482   0.316  11.979
80051W        W52377  14.147   1.756  12.563
80052W        W52378  26.663  30.539  11.087
80053W        W52379  16.584   9.300  11.403
80054W        W52380  33.511  31.623  11.535
80055W        W52381  21.713  21.081  14.991
80056W        W52382  42.343  14.109  10.473
80057W        W52383  34.536  38.427   0.866
80058W        W52384  29.136   0.326   2.774
80059W        W52385   7.298   0.289   3.238
80060W        W52386   0.869  21.041   2.325
80061W        W52387  36.947  10.380   4.818
80062W        W52388  22.133  36.508  12.086
80063W        W52389  42.432  22.608   2.202
80064W        W52390  12.787  27.684  11.859
80065W        W52391  41.911  19.549   2.408
80066W        W52392  14.127  33.994   3.196
80067W        W52393  12.687   3.813  12.852
80068W        W52394  17.716   6.737   1.716
80069W        W52395  14.739  38.432  10.956
80070W        W52396   7.845  24.211   3.663
80071W        W52397   1.956  34.109   3.195
80072W        W52398  30.024  41.962  14.831
80073W        W52399  20.537  38.899  10.628
80074W        W52400  28.668  28.486  10.587
80075W        W52401  43.502  31.629   1.426
80076W        W52402  26.685  17.763   2.903
80077W        W52403  20.237  43.860  12.361
80078W        W52404  33.409  36.953   0.787
80079W        W52405  39.424  17.785   3.218
80080W        W52406  22.745  33.114   3.237
80081W        W52407   4.713   3.883   2.689
80082W        W52408  28.541  15.614  10.474
80083W        W52409  29.113  33.511  14.391
80084W        W52410  29.052  25.197   4.225
80085W        W52411  40.508  29.148  14.848
80086W        W52412  25.134  21.708  10.426
80087W        W52413   9.758  14.333   4.151
80088W        W52414  29.082  37.030   1.795
80089W        W52415  14.661  38.537  13.363
80090W        W52416   9.648  27.072   2.212
80091W        W52417  20.267  25.124  13.411
80092W        W52418   8.820  28.983   1.385
80093W        W52419  35.574  31.107  11.951
80094W        W52420  27.689  44.991   0.757
80095W        W52421  38.038  29.509   2.688
80096W        W52422  13.204  18.131   1.215
80097W        W52423  25.612  21.183  11.122
80098W        W52424   6.250   4.303  12.097
80099W        W52425   3.237  35.029  10.922
80100W        W52426   1.816  14.152  14.772
80101W        W52427   1.435  25.028   0.812
80102W        W52428  36.974  26.687  13.978
80103W        W52429  15.707  10.312  13.933
80104W        W52430   8.283   2.899   1.343
80105W        W52431  37.517  37.455   1.807
80106W        W52432  15.610  27.619   4.683
80107W        W52433  34.050  33.399  13.527
80108W        W52434  43.873  22.071  11.491
80109W        W52435  22.183  14.336   0.242
80110W        W52436   3.341  26.579   1.214
80111W        W52437  20.266  11.731  14.792
80112W        W52438  44.990   2.419   4.287
80113W        W52439   9.262  29.928  14.760
80114W        W52440  26.672  23.987  13.794
80115W        W52441   3.898  43.980  13.315
80116W        W52442  34.503   5.833  12.500
80117W        W52443  15.678   8.775  11.573
80118W        W52444  26.594  42.879  11.974
80119W        W52445  34.990  22.178   1.299
80120W        W52446  32.431   4.250  10.640
80121W        W52447  41.421   7.811   4.777
80122W        W52448  15.620   6.357   0.966
80123W        W52449  25.022   6.295   0.270
80124W        W52450  38.544  39.021  11.117
80125W        W52451  23.192  13.229  14.278
80126W        W52452  14.644  44.380  13.823
80127W        W52453  15.716  44.828  12.380
80128W        W52454  38.052  16.130   4.838
80129W        W52455  13.790  29.599  12.021
80130W        W52456   2.806   5.379   5.111
80131W        W52457  17.697   5.748  14.869
80132W        W52458  30.924  16.274   2.774
80133W        W52459  35.056  12.321   0.733
80134W        W52460  17.669  41.363  12.483
80135W        W52461   3.937  30.644  13.318
80136W        W52462  42.474  10.829   2.742
80137W        W52463  29.657   0.249   4.134
80138W        W52464   6.711   7.382   2.782
80139W        W52465  21.605  12.833  11.895
80140W        W52466  34.528  22.637  12.457
80141W        W52467  19.692   2.241  10.455
80142W        W52468  32.890  39.869   3.848
80143W        W52469  31.998  41.308  13.308
80144W        W52470  37.464  24.571  12.360
80145W        W52471  18.285  34.566  13.361
80146W        W52472  10.258  22.210  14.465
80147W        W52473   8.276  15.273   4.704
80148W        W52474  18.752  17.574   0.906
80149W        W52475  42.331  17.171   1.278
80150W        W52476  30.958  41.896  11.410
80151W        W52477  23.518   2.295  14.467
80152W        W52478  42.516  17.800   0.756
80153W        W52479   9.395  25.085   2.344
80154W        W52480  11.281  43.787  11.588
80155W        W52481  31.411   4.822   2.878
80156W        W52482  41.959  44.401  12.824
80157W        W52483  29.658  31.956  14.833
80158W        W52484  42.382  33.963  12.022
80159W        W52485  11.748  20.723   4.670
80160W        W52486   1.323   3.356   4.639
80161W        W52487  43.443  35.967  14.825
80162W        W52488   9.805  36.386   2.809
80163W        W52489  32.042  39.932  13.960
80164W        W52490  43.428  42.429   2.733
80165W        W52491   8.730   0.468   4.337
80166W        W52492  37.877   8.732  11.448
80167W        W52493   4.772  23.656  10.486
80168W        W52494  20.557   2.271  13.945
80169W        W52495  34.891  23.602  10.952
80170W        W52496  28.516   4.884   0.323
80171W        W52497  17.164  42.385   1.428
80172W        W52498   5.793  25.985  12.496
80173W        W52499  22.211  18.715  10.426
80174W        W52500  16.123  27.508  13.387
80175W        W52501  22.548  31.455   1.346
80176W        W52502  19.071   6.771  11.999
80177W        W52503  29.486  39.924   2.853
80178W        W52504  35.486  36.478  13.337
80179W        W52505  15.199  31.088  12.485
80180W        W52506   8.372  23.994  14.375
80181W        W52507  32.909  27.573  13.997
80182W        W52508  38.893   9.787   2.250
80183W        W52509  27.587  28.124   3.798
80184W        W52510  44.891  23.606   0.301
80185W        W52511  36.933  21.711  12.576
80186W        W52512  44.453   0.890   4.334
80187W        W52513  39.835   2.940  13.344
80188W        W52514  43.516   7.712  11.978
80189W        W52515  29.457  34.522   3.269
80190W        W52516   7.351   2.767  12.954
80191W        W52517  40.324   6.304   4.601
80192W        W52518   8.277  29.968  11.996
80193W        W52519  20.576  30.934   0.273
80194W        W52520   3.710  32.916   0.343
80195W        W52521   0.870   4.372  14.852
80196W        W52522  11.705  12.132  10.921
80197W        W52523  15.214  15.605   1.760
80198W        W52524  12.186  10.655   1.239
80199W        W52525   8.874   0.311  14.935
80200W        W52526  12.225  37.849   3.330
80201W        W52527  16.284  38.828  11.870
80202W        W52528  32.130  42.527   3.366
80203W        W52529  22.084  22.623  12.359
80204W        W52530  28.120  16.316   4.125
80205W        W52531  22.664  38.867   1.366
80206W        W52532  28.156   7.781   3.362
80207W        W52533  10.228  14.666  10.440
80208W        W52534   0.853  37.059   1.755
80209W        W52535  38.467  29.566  14.483
80210W        W52536  36.478  25.102  10.495
80211W        W52537  36.381  12.143  10.007
80212W        W52538  39.332   5.371   1.361
80213W        W52539   3.428  28.999   3.329
80214W        W52540  31.406  29.136   3.248
80215W        W52541   1.750  13.183   2.246
80216W        W52542  18.573   2.242   1.918
80217W        W52543   2.863  36.923   2.277
80218W        W52544  38.914  18.627   0.396
80219W        W52545  30.098  25.193  11.962
80220W        W52546  39.368   7.826   3.313
80221W        W52547  37.561  42.898   1.447
80222W        W52548   3.722  44.980  11.542
80223W        W52549  29.944  22.252   4.814
80224W        W52550  43.504  10.246   3.809
80225W        W52551   0.429  29.126  13.337
80226W        W52552  29.142   9.735  14.948
80227W        W52553  15.296   4.446   4.203
80228W        W52554  28.071  37.453  12.863
80229W        W52555  39.430  43.783   4.117
80230W        W52556  42.896  22.681   2.748
80231W        W52557   0.312  20.142   1.806
80232W        W52558  37.979   5.861   4.329
80233W        W52559   1.400  36.466  14.859
80234W        W52560  16.120  26.536  13.053
80235W        W52561   9.850  36.959  11.496
80236W        W52562  21.633   8.170  11.988
80237W        W52563   4.763  28.631  14.960
80238W        W52564  18.113   6.374   1.796
80239W        W52565  18.077  12.661  10.641
80240W        W52566  34.922   1.965  13.447
80241W        W52567  22.671  13.636   3.710
80242W        W52568  30.045  43.764  13.824
80243W        W52569  34.902   2.741  12.013
80244W        W52570  17.227  38.487  10.524
80245W        W52571  19.764  29.114   3.309
80246W        W52572  24.529  23.631  11.460
80247W        W52573  38.839  11.835   5.227
80248W        W52574  16.231  23.698   3.165
80249W        W52575  22.746   3.449   1.850
80250W        W52576  32.110   3.439  11.978
80251W        W52577  28.555  17.295  10.128
80252W        W52578  15.660  23.619   1.904
80253W        W52579  15.681  43.957  14.969
80254W        W52580  19.099  21.608   4.142
80255W        W52581  19.180  41.963   2.709
80256W        W52582   2.455   4.801  14.799
80257W        W52583  30.535  16.287  14.978
80258W        W52584  44.269  41.354  14.780
80259W        W52585  13.328  25.977  12.006
80260W        W52586  15.114  21.250  11.946
80261W        W52587   3.794  41.376  10.148
80262W        W52588  23.050   4.446   3.720
80263W        W52589  40.812  32.405   4.794
80264W        W52590  29.622  10.832   3.760
80265W        W52591  26.675  32.049   3.760
80266W        W52592  25.531  27.993   1.795
80267W        W52593  30.915  35.877  13.976
80268W        W52594  44.981  42.845   2.883
80269W        W52595  35.571   8.282  13.320
80270W        W52596  33.969  10.758   2.754
80271W        W52597  15.225  40.474  14.833
80272W        W52598  26.052  27.115  10.619
80273W        W52599  13.785  19.102  12.569
80274W        W52600  18.161  38.349  14.301
80275W        W52601  42.032  41.898  10.953
80276W        W52602  21.575  32.987   2.340
80277W        W52603  32.028   2.228   2.372
80278W        W52604  12.238  36.410   2.861
80279W        W52605  23.212  34.519   2.763
80280W        W52606  42.492   6.213   2.830
80281W        W52607  25.490   5.304  14.792
80282W        W52608  30.577  20.241   2.889
80283W        W52609   1.363  37.874   1.258
80284W        W52610  21.757  43.309   2.410
80285W        W52611   7.283  35.463  12.032
80286W        W52612  12.281  22.018  13.951
80287W        W52613  27.079  12.261   2.853
80288W        W52614  10.367   2.964   2.371
80289W        W52615  33.898  27.160   3.817
80290W        W52616   8.383  34.541   1.315
80291W        W52617  30.638  26.495  12.977
80292W        W52618  28.527   0.953  12.511
80293W        W52619  42.320  25.155   1.797
80294W        W52620  44.845  30.542  10.418
80295W        W52621  13.248  44.793   4.265
80296W        W52622  21.220  17.572  12.017
80297W        W52623   3.812  31.565  14.384
80298W        W52624  40.489  30.458  14.501
80299W        W52625  18.615  44.984  12.539
80300W        W52626   5.848   4.339   0.767
80301W        W52627  16.084  15.691   2.225
80302W        W52628  31.425   8.672   3.170
80303W        W52629  20.091  14.659   1.347
80304W        W52630   8.332  24.694  13.932
80305W        W52631   4.349  20.086   3.343
80306W        W52632  10.146  43.851  11.877
80307W        W52633   1.959   1.757  12.833
80308W        W52634  23.116  40.930   1.752
80309W        W52635  40.543  22.206   3.249
80310W        W52636  18.115  30.545  12.542
80311W        W52637  21.673   9.365  11.576
80312W        W52638  11.190  25.021   1.348
80313W        W52639  14.650   5.753  10.430
80314W        W52640  13.184  24.586   1.278
80315W        W52641  29.567  19.584  11.936
80316W        W52642   8.234  22.100   3.781
80317W        W52643  14.684  28.991   4.642
80318W        W52644  22.118  34.879  14.512
80319W        W52645  35.007  26.196  12.832
80320W        W52646  29.572  23.565  12.959
80321W        W52647   9.381  22.703   1.843
80322W        W52648  30.069  31.630   4.308
80323W        W52649  44.338  19.118  10.597
80324W        W52650  41.971  32.437  14.784
80325W        W52651  37.030  23.020   2.272
80326W        W52652  27.962  39.886  12.980
80327W        W52653   3.375   8.805  14.955
80328W        W52654  26.489  26.610  14.991
80329W        W52655  24.025  43.011   1.748
80330W        W52656  21.631  17.264  14.832
80331W        W52657  28.665  34.101   0.798
80332W        W52658  21.177  39.529   0.418
80333W        W52659  21.116  43.804  10.418
80334W        W52660  18.573  25.678   0.947
80335W        W52661  19.612  24.704   0.420
80336W        W52662  14.607  19.643  14.948
80337W        W52663  33.552   6.292   0.265
80338W        W52664   5.756   3.391  12.494
80339W        W52665  39.883  24.634   0.847
80340W        W52666   6.816  21.714  11.075
80341W        W52667   5.203   1.800  12.536
80342W        W52668  32.477  27.513   1.411
80343W        W52669   0.444   8.873  12.013
80344W        W52670   3.713  31.567  13.482
80345W        W52671  11.770  30.977   1.810
80346W        W52672  27.942  36.561  10.894
80347W        W52673  41.801  28.456   3.861
80348W        W52674   5.722  14.246  13.460
80349W        W52675  40.521  31.640  13.828
80350W        W52676   1.381  43.021   5.120
80351W        W52677   4.733  38.861   4.606
80352W        W52678  38.932  25.137  12.403
80353W        W52679  31.514  31.097   3.207
80354W        W52680   1.355  30.922   3.786
80355W        W52681  39.439   0.899   3.779
80356W        W52682  18.673  33.876   4.711
80357W        W52683  28.020   9.284  12.869
80358W        W52684  39.013  30.050  12.991
80359W        W52685  43.016  41.412   3.738
80360W        W52686  20.267  12.310  12.532
80361W        W52687  22.717  31.087  10.421
80362W        W52688  44.398  44.756   2.286
80363W        W52689  15.625  18.690  12.982
80364W        W52690  24.662  15.099  12.944
80365W        W52691  15.209  25.510   3.781
80366W        W52692  16.655   7.829  11.438
80367W        W52693  44.776  12.647   3.771
80368W        W52694  27.175  33.524  13.425
80369W        W52695  27.446   0.307   4.203
80370W        W52696  42.923  21.523  13.903
80371W        W52697  41.870  31.610   4.322
80372W        W52698  18.154  12.814   2.761
80373W        W52699   3.829  15.247  14.431
80374W        W52700  23.668   6.240   1.724
80375W        W52701  27.182  11.189  14.303
80376W        W52702  31.527  16.083  11.915
80377W        W52703  26.458   9.191   1.811
80378W        W52704  26.074  40.477   0.908
80379W        W52705  13.150  28.512   2.826
80380W        W52706  13.708  28.556  10.895
80381W        W52707  36.410  28.120   0.792
80382W        W52708  41.803  28.089   3.174
80383W        W52709  33.912  41.813  12.983
80384W        W52710   2.334   9.153   3.209
80385W        W52711   6.206  43.464   2.799
80386W        W52712  40.340  24.530   0.370
80387W        W52713  31.440  44.764   2.251
80388W        W52714  27.036  25.094   4.145
80389W        W52715   1.768   6.318  13.377
80390W        W52716   5.921   7.358   1.750
80391W        W52717  38.435  27.087  13.397
80392W        W52718   4.328   3.444  11.939
80393W        W52719  26.036   8.861   1.230
80394W        W52720  31.612  32.545  12.983
80395W        W52721  40.510  34.989   1.413
80396W        W52722  25.199   9.319   4.183
80397W        W52723  11.750  23.544  12.530
80398W        W52724  30.444  23.240   2.790
80399W        W52725  26.028  41.538   0.294
80400W        W52726  17.250  28.655   0.749
80401W        W52727  18.251  40.832  14.953
80402W        W52728  44.766  28.537   4.324
80403W        W52729  19.245   5.252  12.088
80404W        W52730  21.139   3.788   3.245
80405W        W52731  23.071  17.111  11.034
80406W        W52732  15.621  11.758  14.516
80407W        W52733  36.377  30.471   3.229
80408W        W52734  30.413   6.820  11.868
80409W        W52735  21.555  24.059  14.458
80410W        W52736  16.269  37.575  14.429
80411W        W52737  33.959  40.882  14.286
80412W        W52738   1.927  27.185  10.638
80413W        W52739  17.123   5.226   4.719
80414W        W52740  27.091  13.279   0.779
80415W        W52741  34.615  21.592  11.087
80416W        W52742   6.249   2.947  12.879
80417W        W52743  44.762   1.455   2.793
80418W        W52744  38.881  44.806  13.971
80419W        W52745  14.319  34.494  14.407
80420W        W52746  31.520  40.973  10.644
80421W        W52747  27.527  40.054   3.670
80422W        W52748   3.391  24.079  10.597
80423W        W52749  37.528   4.725  10.609
80424W        W52750  43.021  29.048  14.283
80425W        W52751  16.209  23.694   1.812
80426W        W52752  19.175   3.795  11.437
80427W        W52753  24.537  14.775   3.782
80428W        W52754  24.583  35.593   0.746
80429W        W52755  37.347  26.121   3.295
80430W        W52756  39.826  19.148  11.046
80431W        W52757  13.629  40.839   1.397
80432W        W52758   8.777   8.213  11.924
80433W        W52759  21.230  15.812   2.301
80434W        W52760  23.146  43.275  14.874
80435W        W52761  32.460  11.855  13.499
80436W        W52762  37.448  20.542  10.083
80437W        W52763  17.161   1.362  11.410
80438W        W52764  42.331  36.084  13.968
80439W        W52765  43.395  25.012  10.929
80440W        W52766  16.245  36.060  11.456
80441W        W52767   1.458  41.314  13.910
80442W        W52768  36.480  33.956  14.007
80443W        W52769   5.245  20.603   1.438
80444W        W52770  13.763   5.379   2.366
80445W        W52771   7.198   9.661   1.843
80446W        W52772  34.593  30.509  13.432
80447W        W52773   6.911  12.786  13.460
80448W        W52774   0.338  21.520  11.988
80449W        W52775   3.796  24.077  13.811
80450W        W52776  11.155  44.807  12.371
80451W        W52777  26.659  24.224  14.952
80452W        W52778   3.901  14.136   4.251
80453W        W52779  21.222  29.664  13.416
80454W        W52780  26.145  16.138  14.792
80455W        W52781  19.771   0.832   1.219
80456W        W52782   9.346  28.157  13.042
80457W        W52783  43.961  27.990   1.234
80458W        W52784   6.217   2.354   9.987
80459W        W52785  34.035   2.278  10.541
80460W        W52786  19.612   7.742   4.224
80461W        W52787   4.406  32.044   1.825
80462W        W52788  36.393  26.135  12.857
80463W        W52789  39.387  18.128  13.369
80464W        W52790  37.376  14.297   2.314
80465W        W52791  35.001  28.166   2.865
80466W        W52792  30.506  25.605   2.339
80467W        W52793   2.929   4.762  14.958
80468W        W52794  18.158   7.417   1.807
80469W        W52795  15.297  17.713  13.891
80470W        W52796  41.332   2.241   4.660
80471W        W52797  35.456   4.272   3.853
80472W        W52798  34.527  20.206   1.399
80473W        W52799  14.282  44.896   1.429
80474W        W52800   1.865  21.525  14.802
80475W        W52801  11.173  26.515  12.895
80476W        W52802  44.952  11.722  13.461
80477W        W52803  31.994  14.763  11.502
80478W        W52804  39.334  29.048  13.507
80479W        W52805  41.039  23.171   0.745
80480W        W52806  37.360  20.671   1.345
80481W        W52807  26.503  35.568  12.019
80482W        W52808  10.773  24.709   3.384
80483W        W52809   8.873  18.083  10.554
80484W        W52810   8.262  36.052   1.922
80485W        W52811  40.025  19.673   2.765
80486W        W52812  41.514  15.222  13.536
80487W        W52813  43.469  42.922   2.784
80488W        W52814  28.604  11.818  12.378
80489W        W52815  39.434  27.954   3.210
80490W        W52816  31.916   1.746  12.835
80491W        W52817  30.648   5.208  14.405
80492W        W52818  36.897  37.915  12.454
80493W        W52819  42.355  39.924  14.465
80494W        W52820  44.301  41.919  12.408
80495W        W52821  34.008  16.622  13.811
80496W        W52822  11.731  13.663   4.609
80497W        W52823  39.462   8.322  14.027
80498W        W52824  40.033  44.343  14.776
80499W        W52825  20.746  13.679  12.894
80500W        W52826  38.406  13.160  13.813
80501W        W52827  12.142  19.647  11.493
80502W        W52828  16.253  33.474   3.329
80503W        W52829  26.133  15.176   9.575
80504W        W52830  36.482  41.983   2.288
80505W        W52831   6.265   9.681  12.411
80506W        W52832  40.036  27.131  10.464
80507W        W52833  35.029   4.780   1.882
80508W        W52834  29.478  20.268   0.358
80509W        W52835  11.770  30.075  11.088
80510W        W52836  13.233  20.577  12.959
80511W        W52837  15.287   6.306   2.903
80512W        W52838   8.207  44.362   3.832
80513W        W52839  18.130   4.817   3.297
80514W        W52840  38.443  25.632   4.210
80515W        W52841  39.538   3.763   2.867
80516W        W52842  23.507  14.674  14.486
80517W        W52843  27.197  10.301  12.020
80518W        W52844  30.000  34.983  14.276
80519W        W52845  13.803  34.088   5.803
80520W        W52846  34.012  20.541  12.824
80521W        W52847  31.494  38.372   2.879
80522W        W52848  32.052  12.634  14.325
80523W        W52849  24.004  26.638  12.917
80524W        W52850  15.281  24.597   2.695
80525W        W52851  13.723   3.341  14.340
80526W        W52852  17.661  19.284  14.862
80527W        W52853  26.999  26.033   2.733
80528W        W52854  44.811  38.012  13.311
80529W        W52855  14.740  30.938   0.466
80530W        W52856   1.957  26.612  11.905
80531W        W52857   9.782   5.339   3.721
80532W        W52858  44.951  39.343  11.903
80533W        W52859  18.695  29.924   1.842
80534W        W52860  25.520  16.640   1.286
80535W        W52861  21.656   1.832   5.186
80536W        W52862  32.617  19.195  13.398
80537W        W52863  15.816  14.786  11.415
80538W        W52864  39.957  35.512   2.896
80539W        W52865  27.476  24.716   2.218
80540W        W52866  26.627  32.019   1.926
80541W        W52867  38.962   8.789   4.626
80542W        W52868  30.480  40.862  11.512
80543W        W52869  39.350  44.478   1.926
80544W        W52870  10.757   5.816  13.937
80545W        W52871  40.406  18.164   9.985
80546W        W52872  10.776  32.087  13.818
80547W        W52873  30.645  22.626  13.007
80548W        W52874  34.467  18.051  14.948
80549W        W52875  22.729  16.755   9.526
80550W        W52876   6.890  32.489   1.343
80551W        W52877  15.741  32.910  13.449
80552W        W52878  15.305  15.738   4.638
80553W        W52879  44.431  14.317   0.807
80554W        W52880  38.493  18.567   0.441
80555W        W52881  44.445  19.543  14.358
80556W        W52882  27.128  32.532  11.434
80557W        W52883   8.286  12.785   4.598
80558W        W52884  43.368  40.327  13.911
80559W        W52885   1.407   7.858  14.372
80560W        W52886   8.358   9.287   4.229
80561W        W52887   4.439  21.667  14.796
80562W        W52888  11.801  10.260   3.810
80563W        W52889  36.466   3.374   3.670
80564W        W52890  36.458  20.090  11.590
80565W        W52891  43.863  31.534   4.827
80566W        W52892  33.992   1.316  12.033
80567W        W52893  39.358   6.900  13.516
80568W        W52894  27.107   9.825   3.855
80569W        W52895   8.391  43.421  14.389
80570W        W52896  18.555  10.219   2.804
80571W        W52897  23.021  44.827  10.420
80572W        W52898  18.189  17.715   1.442
80573W        W52899  11.844  11.660  13.419
80574W        W52900   1.327  14.172  14.335
80575W        W52901   9.176  31.149   4.724
80576W        W52902  35.875  26.553   4.352
80577W        W52903  31.619  22.071  11.974
80578W        W52904  33.599  31.940  12.901
80579W        W52905  15.318   3.413  12.874
80580W        W52906  37.362  13.122  14.842
80581W        W52907  29.601   6.403   2.340
80582W        W52908  39.557  23.518  11.926
80583W        W52909   4.422  11.860  12.844
80584W        W52910  10.360  35.985  11.572
80585W        W52911  33.893  17.186  13.937
80586W        W52912  22.140   0.858  14.318
80587W        W52913  24.509  22.105   1.754
80588W        W52914  26.700   6.813  14.763
80589W        W52915  20.674   8.389  13.497
80590W        W52916  24.042  21.679   2.832
80591W        W52917  21.622  20.140   3.780
80592W        W52918  29.054  26.990   3.739
80593W        W52919  23.690  26.189   4.345
80594W        W52920   3.856  30.603  12.990
80595W        W52921   6.759  36.939  12.838
80596W        W52922  10.749   1.411   2.826
80597W        W52923  30.447   3.435  12.968
80598W        W52924   9.875  22.643  13.457
80599W        W52925  31.139  16.643   1.735
80600W        W52926  34.067  40.870   4.348
80601W        W52927  18.078  44.887   1.819
80602W        W52928  13.261  27.474  10.470
80603W        W52929  34.956  36.371   9.616
80604W        W52930  44.406  29.602   2.884
80605W        W52931  42.990   5.692   3.851
80606W        W52932   9.831  32.899   3.751
80607W        W52933  36.362   2.935   2.372
80608W        W52934  26.991  13.139   4.838
80609W        W52935  21.206  26.196   2.232
80610W        W52936   0.907  39.932  10.906
80611W        W52937  38.346  39.916   1.267
80612W        W52938  22.156  40.528  10.597
80613W        W52939  42.420  22.552  11.886
80614W        W52940  27.035  29.031   0.325
80615W        W52941  22.727  44.293   4.642
80616W        W52942   5.437   7.302  13.839
80617W        W52943   4.706   1.964   3.194
80618W        W52944   4.758  33.955  14.888
80619W        W52945  43.363   2.338  12.004
80620W        W52946  19.770  30.137   1.845
80621W        W52947  18.104  11.228  13.439
80622W        W52948  11.130  24.649   1.305
80623W        W52949  37.381   3.798   2.901
80624W        W52950  12.251  31.469  12.522
80625W        W52951  12.126  27.005   1.870
80626W        W52952  27.676  16.790  14.316
80627W        W52953  30.106   3.277  12.886
80628W        W52954  32.449   2.878  13.479
80629W        W52955  15.699  38.365  11.058
80630W        W52956  32.497  25.962   2.247
80631W        W52957  12.340  36.069   0.394
80632W        W52958  32.582  30.934  10.936
80633W        W52959   1.431  40.835   3.870
80634W        W52960   8.250  33.099  12.506
80635W        W52961  13.734  26.098   4.830
80636W        W52962  24.118  31.917   1.343
80637W        W52963   5.369  11.336   1.860
80638W        W52964  34.108  25.525  11.428
80639W        W52965  10.729   1.923   0.838
80640W        W52966  24.057  40.541   9.948
80641W        W52967   0.748  22.654  14.032
80642W        W52968  33.513  25.114   2.234
80643W        W52969  32.475  36.052   5.217
80644W        W52970  10.167  14.626   0.294
80645W        W52971  20.099  44.802  12.993
80646W        W52972  32.052  36.968  13.909
80647W        W52973  37.999  35.078  11.122
80648W        W52974  11.717  15.648   0.809
80649W        W52975  43.409   2.355   0.366
80650W        W52976  11.786   3.937  12.401
80651W        W52977   7.182  30.479   2.311
80652W        W52978  18.738  26.970   2.771
80653W        W52979  13.115  11.666   2.789
80654W        W52980  35.563  38.456   2.730
80655W        W52981   8.755  22.610  10.995
80656W        W52982  27.183   2.943   0.371
80657W        W52983  41.018   4.283   2.811
80658W        W52984  26.121  13.193  13.465
80659W        W52985  43.951  17.732  13.968
80660W        W52986   0.879  21.559   1.906
80661W        W52987  21.705   6.403   3.688
80662W        W52988  41.796  41.466  11.489
80663W        W52989  10.633  12.722  14.852
80664W        W52990   4.850  15.670   2.387
80665W        W52991   1.305  42.015   1.748
80666W        W52992  35.948  20.715   3.773
80667W        W52993  26.006  40.467  12.363
80668W        W52994  29.482  14.690  12.932
80669W        W52995  12.120  18.622  14.313
80670W        W52996  27.996  18.295  11.448
80671W        W52997  12.125  19.234  14.463
80672W        W52998  20.685  25.649  11.547
80673W        W52999   0.805   2.884   5.194
80674W        W53000  32.897  34.476   3.852
80675W        W53001  14.272  43.777  13.819
80676W        W53002   0.840  12.293   1.339
80677W        W53003  34.467  33.095   2.678
80678W        W53004   9.187  36.846   4.743
80679W        W53005  19.630  10.381   2.886
80680W        W53006  33.099   0.862   2.360
80681W        W53007  40.898  31.527  14.873
80682W        W53008  21.513  44.445  13.808
80683W        W53009   8.727  35.383  11.062
80684W        W53010   3.876   3.939  13.420
80685W        W53011  10.754  40.964   1.768
80686W        W53012  20.174  40.312   3.761
80687W        W53013  30.101  15.322   0.352
80688W        W53014  26.013  24.121  10.494
80689W        W53015  16.808  15.270   0.477
80690W        W53016   5.433  41.302   3.750
80691W        W53017  10.771  39.500   3.382
80692W        W53018  10.796  20.188   1.884
80693W        W53019  12.757  20.696   3.755
80694W        W53020  27.602  22.504   3.211
80695W        W53021  37.936  42.881   1.711
80696W        W53022   4.204  17.121   2.249
80697W        W53023  22.165  32.886  12.569
80698W        W53024  42.905   6.710   2.317
80699W        W53025  44.375  41.807   2.235
80700W        W53026  44.405  30.925   0.369
80701W        W53027  43.815   2.437   2.313
80702W        W53028  39.322  30.476   2.701
80703W        W53029  42.293  17.239  12.833
80704W        W53030  15.791   4.428  12.930
80705W        W53031  42.895  37.884   2.859
80706W        W53032  43.993   3.951  14.450
80707W        W53033  16.784  10.229  11.964
80708W        W53034  24.500  34.929  11.108
80709W        W53035  21.618   6.901   4.683
80710W        W53036  36.511   7.756  11.417
80711W        W53037  32.456  14.747   2.761
80712W        W53038   8.202   2.748  14.818
80713W        W53039   0.350  10.730  13.319
80714W        W53040  41.021  41.007   0.867
80715W        W53041  34.479  44.464  12.348
80716W        W53042  36.538  19.039  10.503
80717W        W53043  21.547  11.163  14.317
80718W        W53044  26.654  40.330  13.415
80719W        W53045  17.586  15.589  13.841
80720W        W53046  13.680  20.086  14.025
80721W        W53047   2.373   0.911   4.606
80722W        W53048  12.657   4.220  14.504
80723W        W53049  17.201  11.854   4.187
80724W        W53050   5.244  19.627  13.795
80725W        W53051  20.706  37.863   2.224
80726W        W53052  33.080  31.503   4.220
80727W        W53053  12.750  22.723  14.364
80728W        W53054  43.007  11.774  12.846
80729W        W53055  38.936  28.979   3.386
80730W        W53056   9.837   8.730   0.819
80731W        W53057  11.761   3.786  13.518
80732W        W53058  10.231  18.250   1.805
80733W        W53059  24.608  16.191  11.032
80734W        W53060   8.691  25.007  14.444
80735W        W53061  27.493  32.472  13.940
80736W        W53062  19.755  38.364   4.140
80737W        W53063   3.953  29.647   2.294
80738W        W53064   7.694  40.002  13.034
80739W        W53065  24.553  23.587   2.802
80740W        W53066  17.091  39.861  12.545
80741W        W53067  14.804  32.042   0.872
80742W        W53068  27.509  15.723  14.493
80743W        W53069  29.483  13.228   4.804
80744W        W53070  19.717  15.235   3.848
80745W        W53071  37.499  13.648   0.249
80746W        W53072  33.967  29.039   4.800
80747W        W53073  43.413  21.675   2.700
80748W        W53074  23.168   2.343   2.760
80749W        W53075   6.740  44.877  11.596
80750W        W53076  17.159   2.376  10.444
80751W        W53077  30.512  40.508  14.357
80752W        W53078   8.309  14.703   0.383
80753W        W53079  36.048  17.235   1.765
80754W        W53080   5.230  16.079  13.938
80755W        W53081  37.575  22.155  11.958
80756W        W53082   6.253  28.503   4.833
80757W        W53083  23.039  26.584   3.792
80758W        W53084  32.026  34.511  10.156
80759W        W53085  42.466  17.182   2.714
80760W        W53086  32.431  31.483  11.492
80761W        W53087   7.878  21.535   0.903
80762W        W53088  10.853  32.922   4.707
80763W        W53089  18.268  37.488   3.335
80764W        W53090  32.059  31.037  13.857
80765W        W53091  22.573  42.952   0.818
80766W        W53092  15.147  37.474  12.414
80767W        W53093  38.066  28.535  11.409
80768W        W53094  32.965  37.894   2.319
80769W        W53095  42.828   8.704  14.780
80770W        W53096  10.177   5.203  10.518
80771W        W53097  32.002  17.715  12.555
80772W        W53098  17.139  42.821   4.194
80773W        W53099   4.364  16.616  12.519
80774W        W53100  32.455   1.362   3.370
80775W        W53101  44.336  18.223  12.899
80776W        W53102   4.403  40.996   1.730
80777W        W53103   8.309  14.610  10.976
80778W        W53104   3.386  23.073   4.748
80779W        W53105  41.525  18.771  11.110
80780W        W53106  13.126  20.729  13.414
80781W        W53107  14.748  43.010  11.567
80782W        W53108   2.260  42.953  10.126
80783W        W53109  43.334  22.054  10.953
80784W        W53110  37.017   7.275  14.276
80785W        W53111   2.952  41.458   4.752
80786W        W53112  38.954  32.037  13.011
80787W        W53113  13.249   5.725   1.779
80788W        W53114  22.087  41.892  13.535
80789W        W53115   7.895  32.429  14.328
80790W        W53116  30.448   7.885  10.946
80791W        W53117  20.548  30.096  11.587
80792W        W53118  41.407   6.800  11.478
80793W        W53119  42.016  34.512   2.309
80794W        W53120  18.746  27.198  10.983
80795W        W53121  18.720  39.478   4.249
80796W        W53122  18.555  15.226  14.782
80797W        W53123   5.810  40.991   3.691
80798W        W53124  26.634  29.612   0.272
80799W        W53125  35.007  19.599  14.393
80800W        W53126  36.001  13.242  14.952
80801W        W53127  24.071  33.514  10.154
80802W        W53128  34.019  42.364   1.405
80803W        W53129  28.652  33.120  14.982
80804W        W53130  27.107  25.619  14.017
80805W        W53131  23.615  12.200   3.815
80806W        W53132   2.250  39.987  14.400
80807W        W53133   8.686  34.882   2.752
80808W        W53134   9.859  44.413   3.256
80809W        W53135  11.254  26.035   0.793
80810W        W53136  10.335   4.703   0.471
80811W        W53137  18.196  35.004   0.734
80812W        W53138  20.068  17.592  13.544
80813W        W53139  17.243  33.519  10.459
80814W        W53140  42.322   9.167  14.797
80815W        W53141  41.839  11.663   3.305
80816W        W53142  25.178  40.546  10.519
80817W        W53143  23.608  36.990  13.353
80818W        W53144  35.461  11.681   1.858
80819W        W53145  18.602   2.817  13.339
80820W        W53146  28.161  20.188  14.917
80821W        W53147   1.888  32.609  11.887
80822W        W53148  14.733  27.116  13.021
80823W        W53149   2.228  40.330  12.554
80824W        W53150  17.169  21.046  11.563
80825W        W53151  20.242  13.602   1.306
80826W        W53152  15.772  42.359   2.834
80827W        W53153   7.273  30.912  11.905
80828W        W53154  28.058  28.578   3.806
80829W        W53155  29.941  16.760   2.286
80830W        W53156  40.464  35.599  13.843
80831W        W53157  17.655   8.317   2.268
80832W        W53158  14.307  23.589   1.710
80833W        W53159   5.316  34.377   0.785
80834W        W53160  37.518  21.590  11.084
80835W        W53161  27.568  44.401   0.478
80836W        W53162  14.221  12.120   3.853
80837W        W53163  18.167  14.722   1.890
80838W        W53164  36.890  41.362   2.315
80839W        W53165   5.340   8.862   0.355
80840W        W53166  39.864  27.178  10.903
80841W        W53167  26.561  34.016  10.907
80842W        W53168   2.943  22.154   3.809
80843W        W53169  29.097  31.008   1.845
80844W        W53170   2.286   5.268   2.197
80845W        W53171   6.740  35.362   0.790
80846W        W53172  13.675  40.838  13.798
80847W        W53173  37.382   8.673   3.293
80848W        W53174  27.626  44.347   1.331
80849W        W53175  24.546  19.562  12.858
80850W        W53176   9.226   5.210   3.827
80851W        W53177   3.939  31.089   0.417
80852W        W53178  33.998  11.712   1.231
80853W        W53179  34.583   6.397   0.461
80854W        W53180  43.814  18.083  11.577
80855W        W53181  11.836  29.038   1.905
80856W        W53182  27.645  33.424   3.260
80857W        W53183   8.794  44.494   4.301
80858W        W53184  33.497   4.714  10.516
80859W        W53185  41.478  41.514   0.436
80860W        W53186  44.260  34.382  13.502
80861W        W53187   5.203  35.997  13.324
80862W        W53188   6.250   7.905  13.349
80863W        W53189   3.289  12.744  14.277
80864W        W53190  41.972  39.869   2.733
80865W        W53191  23.665  41.403  10.631
80866W        W53192   4.795   5.412  13.799
80867W        W53193  36.419   2.288   2.413
80868W        W53194   1.941   3.240  10.929
80869W        W53195   7.731   3.262   4.209
80870W        W53196  16.160  15.808  12.968
80871W        W53197  33.976  34.426  13.852
80872W        W53198  29.017  43.977  13.502
80873W        W53199  38.050  12.151   1.755
80874W        W53200  20.535  38.935   0.863
80875W        W53201  14.153  12.813   4.216
80876W        W53202  41.883  40.851  14.425
80877W        W53203  27.547  27.662  11.912
80878W        W53204  30.543   1.287   0.958
80879W        W53205  25.567  30.606  11.493
80880W        W53206  26.010  21.521  13.352
80881W        W53207   4.434  31.612  10.425
80882W        W53208   3.439   1.859   2.731
80883W        W53209  31.944  44.902   1.354
80884W        W53210  27.609  20.067   2.326
80885W        W53211  22.176  43.938   1.821
80886W        W53212   2.870  21.582   3.231
80887W        W53213  44.439  19.087  14.388
80888W        W53214  11.220  12.849   4.798
80889W        W53215  19.579   1.319  10.510
80890W        W53216  15.628  29.945   4.705
80891W        W53217  24.560  28.038  12.934
80892W        W53218   8.874  12.799   3.266
80893W        W53219  15.783  25.527  14.508
80894W        W53220  20.186  36.077  11.098
80895W        W53221  24.583  36.562  13.404
80896W        W53222  14.286  11.177   0.885
80897W        W53223  36.082  12.832  14.275
80898W        W53224  12.648  19.658  13.004
80899W        W53225  43.926  33.040  12.498
80900W        W53226  27.131   8.681  12.409
80901W        W53227  11.250   4.228  11.069
80902W        W53228  40.034  22.106   0.381
80903W        W53229   6.358  28.010  11.927
80904W        W53230   4.848  42.978  13.503
80905W        W53231   8.400  15.743  12.844
80906W        W53232  25.693  30.048  11.483
80907W        W53233  17.697   2.907   3.199
80908W        W53234  31.544  34.055   3.833
80909W        W53235  44.391   1.977  11.003
80910W        W53236  32.975  38.997   1.361
80911W        W53237   9.330  38.368  13.318
80912W        W53238   6.348  23.624   1.425
80913W        W53239  14.690  15.787  10.119
80914W        W53240  24.692  10.844  11.551
80915W        W53241  31.129  18.106  13.353
80916W        W53242  18.685   7.849   4.238
80917W        W53243   3.886  34.090   1.315
80918W        W53244  33.465  35.544   5.766
80919W        W53245  21.528  24.096   4.702
80920W        W53246  22.592  12.681   0.318
80921W        W53247  33.012  17.757   4.605
80922W        W53248  25.053  14.791   1.293
80923W        W53249  28.139  25.161  12.574
80924W        W53250  19.127   6.794   2.675
80925W        W53251  44.348   5.213   0.744
80926W        W53252  39.400  17.722  11.044
80927W        W53253  29.144  13.694   3.774
80928W        W53254  21.078  25.553  10.955
80929W        W53255   1.361  25.161  11.913
80930W        W53256  26.967   9.812  14.985
80931W        W53257   6.257  14.230  12.473
80932W        W53258  30.476  29.125  10.487
80933W        W53259  23.590  17.085  11.442
80934W        W53260  10.781  34.524  13.478
80935W        W53261  27.023  34.047  14.988
80936W        W53262  15.688  29.602  13.945
80937W        W53263   6.418  29.020   0.312
80938W        W53264  39.889  40.967  13.529
80939W        W53265   8.342   4.414   2.683
80940W        W53266  24.667  40.832  10.945
80941W        W53267   4.394  20.104   0.881
80942W        W53268  42.956  10.801  12.857
80943W        W53269  39.843   0.820   0.289
80944W        W53270  17.712  28.979   2.853
80945W        W53271  15.650   0.287   4.236
80946W        W53272  34.902   4.832   9.995
80947W        W53273  15.795  37.369   9.979
80948W        W53274  38.449  19.054  11.604
80949W        W53275   4.826  27.088   4.817
80950W        W53276  11.251  29.435   4.670
80951W        W53277   2.757   7.181  10.423
80952W        W53278   1.403  23.555   5.308
80953W        W53279  25.203  20.031  14.902
80954W        W53280  29.143   9.262  13.930
80955W        W53281  40.036   2.750   0.829
80956W        W53282  25.577  39.347  14.329
80957W        W53283  38.363  19.123  11.987
80958W        W53284  37.892  33.089   2.300
80959W        W53285   8.352  33.620  14.514
80960W        W53286  32.020   6.870   3.286
80961W        W53287   0.356  42.946   2.887
80962W        W53288   1.945  26.052  14.996
80963W        W53289   9.195  35.110   0.938
80964W        W53290   6.790  44.828  14.985
80965W        W53291   8.322  11.855   3.186
80966W        W53292   6.347  44.359  10.151
80967W        W53293  36.404  35.066   5.635
80968W        W53294   4.763  13.178  13.031
80969W        W53295  13.797  28.595   4.175
80970W        W53296  43.374  25.640  14.825
80971W        W53297  39.886   4.299   1.792
80972W        W53298  44.838  44.819  12.561
80973W        W53299  43.484   9.376  12.094
80974W        W53300  24.662  12.828   0.876
80975W        W53301  18.701   8.330  14.288
80976W        W53302  12.214  32.453   1.786
80977W        W53303  13.335  11.215  12.534
80978W        W53304  11.639  35.439   1.818
80979W        W53305   8.323   2.833   0.249
80980W        W53306  19.588  21.659  12.959
80981W        W53307  41.307  32.887   1.383
80982W        W53308  31.426   8.665  14.013
80983W        W53309  43.357  35.039   2.855
80984W        W53310  16.574  41.332   4.605
80985W        W53311   3.431  39.854  13.797
80986W        W53312  42.008   0.776  14.474
80987W        W53313  11.253  31.477   3.382
80988W        W53314  19.074  34.610   1.364
80989W        W53315  16.779  29.571   2.324
80990W        W53316  27.561   7.783   1.835
80991W        W53317  22.033  32.447   3.850
80992W        W53318   3.250   0.393  11.977
80993W        W53319   5.389  26.623   1.874
80994W        W53320  33.404  27.636  10.490
80995W        W53321  11.168  43.425   0.901
80996W        W53322  32.930  16.568   3.862
80997W        W53323  41.801  30.973  12.522
80998W        W53324  33.528  36.947   1.914
80999W        W53325   1.904  18.253   4.321
81000W        W53326  30.947   5.406   3.352
81001W        W53327  12.247  43.424  13.805
81002W        W53328  11.807   9.151   1.415
81003W        W53329  16.609  33.578  13.896
81004W        W53330   7.347  18.126  13.427
81005W        W53331  20.179  33.945  12.352
81006W        W53332  16.715   5.787   1.695
81007W        W53333  25.219  34.435  14.854
81008W        W53334  37.430  19.111   0.415
81009W        W53335  31.471   7.770  10.544
81010W        W53336  35.944  32.981   9.566
81011W        W53337  15.822  21.529   3.649
81012W        W53338  25.114  10.145   4.219
81013W        W53339  17.648  31.963   2.180
81014W        W53340  12.298  39.946  14.933
81015W        W53341  11.210  15.772   0.845
81016W        W53342  29.096  41.442  12.944
81017W        W53343   1.942  44.341  14.001
81018W        W53344  29.628  31.096  14.454
81019W        W53345   1.855   0.457   3.308
81020W        W53346  44.926  32.940   4.796
81021W        W53347  15.607  38.054  12.453
81022W        W53348  42.003  15.223   1.252
81023W        W53349  38.965   1.474   2.328
81024W        W53350  40.024  42.916   2.183
81025W        W53351  12.735  30.036   1.307
81026W        W53352   3.233  40.545   5.245
81027W        W53353  41.806  42.927  13.007
81028W        W53354  30.657   8.381   0.475
81029W        W53355  17.168   3.803  12.061
81030W        W53356  32.048   1.952  10.411
81031W        W53357   4.771  33.594  14.436
81032W        W53358  39.820  38.417   1.279
81033W        W53359  14.640  30.925   0.905
81034W        W53360  20.246  21.102  12.374
81035W        W53361   0.255  26.643  14.958
81036W        W53362  18.678  39.869   3.735
81037W        W53363  11.345  39.817  10.930
81038W        W53364  20.071  23.546  14.828
81039W        W53365  10.230  32.023   2.280
81040W        W53366   1.865  26.488   4.694
81041W        W53367  17.142  26.138   1.359
81042W        W53368  26.021  13.760   4.598
81043W        W53369  16.274  18.657   0.351
81044W        W53370  17.759  24.697   0.383
81045W        W53371  26.087  12.644   4.830
81046W        W53372  26.080   8.227  13.011
81047W        W53373  40.373  36.062  13.054
81048W        W53374  39.061  31.151   4.291
81049W        W53375   1.758   6.228  11.048
81050W        W53376  15.607  26.139  10.560
81051W        W53377  40.523  24.028   4.816
81052W        W53378   2.750   4.757   0.792
81053W        W53379  22.542  24.681  14.398
81054W        W53380   5.228   0.851  14.412
81055W        W53381   9.325  29.532   2.845
81056W        W53382   6.902  19.277   4.133
81057W        W53383  28.511  24.490   4.231
81058W        W53384  13.701   7.213  12.361
81059W        W53385  17.141   3.916  10.561
81060W        W53386  10.796  27.136  11.871
81061W        W53387   8.392  44.934  10.589
81062W        W53388  20.114  41.435   1.766
81063W        W53389  22.584  39.831   9.670
81064W        W53390  41.865  40.038   0.250
81065W        W53391  18.604  14.114  12.521
81066W        W53392  16.303  30.582   4.779
81067W        W53393  41.790   1.436   2.196
81068W        W53394   2.919  14.121  14.903
81069W        W53395   1.381  32.517  13.994
81070W        W53396  21.237  24.041  11.888
81071W        W53397   7.857   6.762   3.838
81072W        W53398  11.235  41.360   4.205
81073W        W53399  16.268  12.853  13.920
81074W        W53400  10.721   8.825   5.253
81075W        W53401  19.647   7.761  14.982
81076W        W53402  10.858  34.106   4.340
81077W        W53403  22.209  21.084  12.870
81078W        W53404   9.175  37.570  13.441
81079W        W53405   5.395   4.842   4.269
81080W        W53406  23.035  19.072   1.304
81081W        W53407  33.548  31.421   4.789
81082W        W53408   5.848  24.172   2.721
81083W        W53409  10.751  36.538   0.448
81084W        W53410  20.216  44.903  11.539
81085W        W53411   5.350  16.303  12.076
81086W        W53412   0.464   7.203  12.543
81087W        W53413  41.825   6.742   2.717
81088W        W53414  41.408  37.360   2.185
81089W        W53415   2.895   7.783  14.368
81090W        W53416  35.490   8.720   4.123
81091W        W53417  39.500  14.162   1.760
81092W        W53418  16.153  37.405  12.933
81093W        W53419  24.027   8.361  12.483
81094W        W53420  32.920   9.197   1.243
81095W        W53421  36.350  23.614  13.370
81096W        W53422  22.221  36.068   1.844
81097W        W53423  44.863  35.053   0.376
81098W        W53424   6.297  33.095  11.448
81099W        W53425   4.292  37.528   2.817
81100W        W53426  36.403  40.963  12.861
81101W        W53427  40.817  33.400   3.306
81102W        W53428  42.973  38.872  14.940
81103W        W53429  16.695  36.088   4.176
81104W        W53430  38.878   6.186   3.186
81105W        W53431  44.291  33.938   0.870
81106W        W53432  12.245  12.739  11.555
81107W        W53433  41.937  39.533  10.515
81108W        W53434  19.185  16.572   0.414
81109W        W53435   7.275  43.424  11.997
81110W        W53436  24.723  40.932   3.166
81111W        W53437   7.884   0.288   4.765
81112W        W53438   9.761  44.821   0.331
81113W        W53439  42.354   3.875   0.455
81114W        W53440  33.496  34.061  11.465
81115W        W53441   4.439  15.798  12.548
81116W        W53442  10.299   5.347   4.131
81117W        W53443  19.624  25.164   3.632
81118W        W53444  35.562  21.753   4.827
81119W        W53445  19.758  43.013   2.835
81120W        W53446  40.359  19.731  12.057
81121W        W53447  29.038  25.100  10.408
81122W        W53448   1.886  11.675   3.642
81123W        W53449  42.335  42.337  13.883
81124W        W53450  15.127  33.608   4.140
81125W        W53451   3.732  44.417  10.980
81126W        W53452  15.598  44.957  13.374
81127W        W53453  38.937  38.026  10.415
81128W        W53454  13.756   6.415  11.061
81129W        W53455  11.774  39.350  10.060
81130W        W53456  23.558  25.086  10.613
81131W        W53457  12.219   5.716  12.854
81132W        W53458  26.135  18.655   3.257
81133W        W53459  32.566  35.999  10.630
81134W        W53460  10.738   6.751   2.408
81135W        W53461  40.543  38.375   3.770
81136W        W53462  21.714  14.193   3.189
81137W        W53463  30.995   4.732   4.709
81138W        W53464  20.147  15.755  11.089
81139W        W53465  37.554  13.121   3.369
81140W        W53466  16.696  32.519   2.301
81141W        W53467  16.578  21.691  12.452
81142W        W53468  32.996   1.881  12.898
81143W        W53469  17.560  16.201   0.445
81144W        W53470   8.822   7.791   5.088
81145W        W53471  14.645  38.508   1.703
81146W        W53472  42.962  26.636   4.832
81147W        W53473   4.431   1.801   3.241
81148W        W53474  42.839   3.837   1.924
81149W        W53475   8.742  15.647   4.671
81150W        W53476  18.104  36.412  14.351
81151W        W53477   1.854  41.329  12.917
81152W        W53478  19.746  11.800   3.325
81153W        W53479  15.135  33.507   2.717
81154W        W53480   8.825  15.140   2.316
81155W        W53481  24.065  17.725   5.608
81156W        W53482  20.700  30.444   0.864
81157W        W53483  16.791  19.598  11.071
81158W        W53484  34.914  44.455  14.984
81159W        W53485  25.178   2.866   4.733
81160W        W53486  44.467  37.064   4.278
81161W        W53487  16.627  37.922   1.750
81162W        W53488  13.684  22.603   3.838
81163W        W53489   0.932  28.115   3.727
81164W        W53490  40.407  30.145  10.615
81165W        W53491  43.019  14.595  10.903
81166W        W53492  30.518  18.740   5.151
81167W        W53493  15.124  10.760  13.812
81168W        W53494  18.098  32.439   3.151
81169W        W53495  21.083  15.820   4.637
81170W        W53496  25.652  36.098  11.984
81171W        W53497   6.690  37.351  11.910
81172W        W53498  36.979  24.110   0.816
81173W        W53499  34.572  33.028   0.297
81174W        W53500  12.743  44.900  13.313
81175W        W53501  42.851  43.327  11.582
81176W        W53502  33.039  14.608  12.076
81177W        W53503  28.546  31.543  13.524
81178W        W53504  11.273   8.783  14.902
81179W        W53505  31.403  24.179  13.507
81180W        W53506   1.807  20.672   1.904
81181W        W53507  29.532  11.692  13.876
81182W        W53508   9.776  37.890  12.456
81183W        W53509  32.996  36.985   4.650
81184W        W53510   4.245  11.366  11.558
81185W        W53511  24.508  42.433  12.382
81186W        W53512  44.472  20.601   4.243
81187W        W53513  32.423   7.716  11.508
81188W        W53514  19.251  36.060  14.808
81189W        W53515  18.699   6.378  13.543
81190W        W53516   4.717  40.905  11.899
81191W        W53517  16.755  25.135  12.464
81192W        W53518  24.091  27.529  14.828
81193W        W53519  38.053  34.077  13.396
81194W        W53520  12.245   9.689   3.184
81195W        W53521  33.082   0.367  10.489
81196W        W53522  20.565   4.322   3.279
81197W        W53523   2.452  35.905   4.802
81198W        W53524  23.019  18.172   4.754
81199W        W53525  43.900  42.283   0.843
81200W        W53526  29.625  40.040   2.251
81201W        W53527  38.834   3.788   2.341
81202W        W53528  30.029  15.679   2.761
81203W        W53529  27.003  32.462   4.312
81204W        W53530  11.141   8.658  11.902
81205W        W53531  14.697  19.682   5.306
81206W        W53532   8.367  28.512  12.428
81207W        W53533  31.425  41.987  11.062
81208W        W53534  28.023  35.435  10.539
81209W        W53535  41.487  17.641  14.015
81210W        W53536   8.853  39.931   1.423
81211W        W53537  12.665  17.726   0.890
81212W        W53538  36.051  21.023   3.820
81213W        W53539  10.857  35.041   3.255
81214W        W53540  28.091  41.488  14.002
81215W        W53541  15.626   7.183  13.003
81216W        W53542  25.166   3.784   4.811
81217W        W53543  10.838  40.964   0.746
81218W        W53544  29.508  30.648  14.979
81219W        W53545  31.496   7.272  12.472
81220W        W53546   2.355  23.528  11.392
81221W        W53547   4.884  15.290  14.854
81222W        W53548  18.572  42.836  11.068
81223W        W53549  29.627  32.488   3.163
81224W        W53550  40.978   2.780  13.928
81225W        W53551  21.706  22.084  11.562
81226W        W53552   2.897  27.183   4.276
81227W        W53553  28.498  38.341   4.318
81228W        W53554  32.010  30.445  11.889
81229W        W53555  10.797  23.729  12.352
81230W        W53556  17.232  37.532  11.489
81231W        W53557   2.269   6.428   4.744
81232W        W53558  41.838  44.817  13.061
81233W        W53559  11.630   6.714  10.580
81234W        W53560   4.393   6.289  10.923
81235W        W53561  34.987  34.479   3.238
81236W        W53562  33.932  34.579   4.630
81237W        W53563  30.035  41.950  11.873
81238W        W53564  32.132   5.885   1.232
81239W        W53565  23.649  36.380  12.345
81240W        W53566  37.853  42.527  11.008
81241W        W53567  27.064   7.261   1.861
81242W        W53568   5.733   5.287  13.331
81243W        W53569  24.047  33.024  14.846
81244W        W53570   6.284  21.097  12.424
81245W        W53571  26.163  17.556  12.879
81246W        W53572  35.485  17.587  13.422
81247W        W53573  29.585   9.703   2.215
81248W        W53574  33.086  17.641  14.875
81249W        W53575   1.320  24.153  12.392
81250W        W53576  34.581  33.427   2.838
81251W        W53577  13.651  39.959  13.548
81252W        W53578  32.634  21.103   1.721
81253W        W53579  12.780   3.714  10.434
81254W        W53580  35.396  22.600   0.953
81255W        W53581   4.266   1.266   1.289
81256W        W53582  41.853  14.211  10.996
81257W        W53583  34.470   8.350  10.592
81258W        W53584  25.603  24.711   0.471
81259W        W53585   8.404  41.385  14.287
81260W        W53586   4.213   2.465  13.314
81261W        W53587   8.804  21.514   3.749
81262W        W53588  44.819  24.213  12.563
81263W        W53589  31.005  30.102   1.802
81264W        W53590  19.269  11.137   1.263
81265W        W53591   4.397  43.275  13.818
81266W        W53592  22.593  32.622   1.915
81267W        W53593  22.244  28.105  12.010
81268W        W53594  11.840   5.934  12.986
81269W        W53595  36.390  41.393   2.853
81270W        W53596  43.892  20.755  12.886
81271W        W53597  33.106   1.873  11.017
81272W        W53598  34.423  24.522   0.313
81273W        W53599   2.370  26.584  14.388
81274W        W53600  17.602  32.507  13.434
81275W        W53601  28.561   4.785  12.524
81276W        W53602  26.142  10.750   4.649
81277W        W53603  42.849  40.337  11.872
81278W        W53604  23.085   8.750   5.228
81279W        W53605  22.179  10.241   3.160
81280W        W53606  30.933   9.822   3.707
81281W        W53607  33.559  38.520   4.126
81282W        W53608  37.450  39.313   4.598
81283W        W53609  40.930  13.161   0.958
81284W        W53610  37.357  41.929  11.995
81285W        W53611  37.416  19.269  10.969
81286W        W53612  33.380  43.797  11.883
81287W        W53613   2.452   7.678  10.574
81288W        W53614  31.435  34.501   4.268
81289W        W53615  10.739   4.212  12.396
81290W        W53616  31.536  23.709   2.706
81291W        W53617  14.155  23.651  12.471
81292W        W53618  33.880  10.184   4.702
81293W        W53619   8.852  34.932  14.423
81294W        W53620  26.999  42.948   1.817
81295W        W53621  38.397  30.422   0.372
81296W        W53622  40.937  15.768  10.495
81297W        W53623  28.444  30.428   0.270
81298W        W53624  36.550   8.672  12.449
81299W        W53625  14.333  41.994   3.337
81300W        W53626   6.837  22.739  11.975
81301W        W53627  38.823   6.770   4.177
81302W        W53628  40.992  39.456  14.801
81303W        W53629  19.144  37.375   1.336
81304W        W53630  19.739  27.656   0.817
81305W        W53631  22.662  12.844  11.570
81306W        W53632  43.784  41.531   3.809
81307W        W53633   1.438  23.556   2.246
81308W        W53634  11.129  36.528   4.636
81309W        W53635   7.727  14.288  13.885
81310W        W53636  36.091   1.928   0.938
81311W        W53637  37.027  18.278   1.298
81312W        W53638  36.899  27.070   4.658
81313W        W53639   9.817  35.970  13.952
81314W        W53640  32.486   0.929   0.727
81315W        W53641  15.233  27.504   0.463
81316W        W53642  36.555  39.990  13.058
81317W        W53643  20.250  31.010  13.912
81318W        W53644  42.400  22.200   4.114
81319W        W53645  44.915  31.476  12.830
81320W        W53646  33.934  35.020  14.859
81321W        W53647  32.004  11.747  12.971
81322W        W53648  16.184   0.819   3.706
81323W        W53649   5.882  12.670  14.295
81324W        W53650  12.614  36.911  10.609
81325W        W53651  10.166  43.307   0.341
81326W        W53652   7.183  22.149  12.907
81327W        W53653  20.570  12.247  10.487
81328W        W53654  29.470   9.195  11.445
81329W        W53655  32.090  17.598   0.379
81330W        W53656   8.288  16.621  13.046
81331W        W53657  10.761   6.425  13.330
81332W        W53658  43.793  28.007  13.488
81333W        W53659  15.722  24.618  14.844
81334W        W53660   0.909  27.449   3.672
81335W        W53661  41.836  29.644  11.123
81336W        W53662   3.849  16.158  11.604
81337W        W53663  35.949  29.442   4.222
81338W        W53664  41.294  26.669  13.813
81339W        W53665  13.246  20.746   0.784
81340W        W53666  17.069  22.646  13.342
81341W        W53667  38.968  39.400   1.924
81342W        W53668  18.741   0.878   0.476
81343W        W53669   5.401  24.989   0.451
81344W        W53670   8.853  11.284  11.944
81345W        W53671  25.993  29.468   1.843
81346W        W53672  32.098  25.502  13.837
81347W        W53673  10.815  39.996  13.928
81348W        W53674  12.663   5.288  14.491
81349W        W53675  14.102  18.663  14.784
81350W        W53676  24.489  17.739   5.149
81351W        W53677  27.982   5.299   0.345
81352W        W53678  11.764  39.830   3.793
81353W        W53679  20.621  30.925   0.817
81354W        W53680   8.897  43.872   3.869
81355W        W53681  40.332  20.569   0.360
81356W        W53682  34.096  42.362   1.792
81357W        W53683  31.910  19.113   4.647
81358W        W53684   8.387  20.030  11.601
81359W        W53685  29.000   4.214  11.981
81360W        W53686   2.314  22.175   0.793
81361W        W53687  27.197  12.195   4.255
81362W        W53688  26.537  20.242   3.298
81363W        W53689   7.346  11.214   1.839
81364W        W53690  31.928  29.969   2.282
81365W        W53691   5.329  10.231   3.861
81366W        W53692  43.444   0.265  13.963
81367W        W53693  25.522  10.655  11.563
81368W        W53694  14.335   1.753  10.472
81369W        W53695  15.661  33.929  13.036
81370W        W53696  15.673  39.001   2.673
81371W        W53697   2.886  21.073  14.825
81372W        W53698   6.698  28.493   1.237
81373W        W53699   9.353   7.788  14.997
81374W        W53700  20.608   0.954   4.219
81375W        W53701  32.941  12.660  14.426
81376W        W53702  41.039  36.977   0.429
81377W        W53703  30.588  18.590  14.465
81378W        W53704   3.376  38.336   2.186
81379W        W53705  37.446  32.430   0.800
81380W        W53706   5.703  39.892  11.588
81381W        W53707  40.799  35.432   3.712
81382W        W53708  24.712  14.781   2.845
81383W        W53709  11.835  21.121  10.557
81384W        W53710  33.999  38.404  11.863
81385W        W53711  27.598  15.761  13.861
81386W        W53712  10.675  14.203   3.761
81387W        W53713  12.281  14.297  13.372
81388W        W53714  25.682  21.568  12.907
81389W        W53715  40.449  30.598  14.918
81390W        W53716  12.362   9.267   4.141
81391W        W53717  41.369   3.783  14.413
81392W        W53718  13.231  27.445  14.014
81393W        W53719  41.817  18.092   4.779
81394W        W53720  12.614   1.955   3.654
81395W        W53721   1.311   6.737  12.489
81396W        W53722  44.912   3.414   3.379
81397W        W53723  42.285  29.428  13.813
81398W        W53724  22.095   9.160   0.384
81399W        W53725  20.248   2.249   4.715
81400W        W53726  37.504  35.593   3.687
81401W        W53727   6.701  30.464  14.891
81402W        W53728  22.528  41.421   0.354
81403W        W53729   4.847  30.580  14.921
81404W        W53730  30.940  32.462  14.316
81405W        W53731   6.728  29.982   3.364
81406W        W53732  10.260  35.918   4.741
81407W        W53733  21.658  20.196  10.412
81408W        W53734   4.885  31.103  10.450
81409W        W53735  17.165   0.268   2.179
81410W        W53736   8.791   3.388   5.318
81411W        W53737  25.093  22.595   3.170
81412W        W53738   7.891  41.833   2.351
81413W        W53739  27.970  24.479  11.900
81414W        W53740  19.655   4.229   0.917
81415W        W53741  36.883  40.470   3.777
81416W        W53742  24.602  32.097  10.519
81417W        W53743  42.523  38.438  13.872
81418W        W53744  41.806  29.519  13.363
81419W        W53745  24.550  11.734  13.910
81420W        W53746  13.631  38.374  13.948
81421W        W53747  28.166  16.211  10.541
81422W        W53748   6.387  27.064  13.503
81423W        W53749  33.985   8.827   2.220
81424W        W53750  40.985  39.323  12.913
81425W        W53751  40.535   3.840   1.840
81426W        W53752  33.899  16.613   4.618
81427W        W53753  13.130  27.003  14.761
81428W        W53754   0.835  12.164   3.742
81429W        W53755  12.318  24.565   9.608
81430W        W53756   9.296   7.294   0.900
81431W        W53757  36.967  36.392  11.070
81432W        W53758  10.699   5.250  13.870
81433W        W53759  43.503  12.269   0.855
81434W        W53760  29.014   9.843   0.398
81435W        W53761  37.944  39.495   1.785
81436W        W53762  38.443  42.033   1.287
81437W        W53763  26.629  30.073  14.282
81438W        W53764  42.795   9.321   1.360
81439W        W53765  20.605   6.283  11.563
81440W        W53766   6.781   6.397   4.309
81441W        W53767  20.165  16.758  10.048
81442W        W53768  31.091  33.585  10.582
81443W        W53769  24.054  38.405  12.448
81444W        W53770  37.079  39.466   1.884
81445W        W53771  35.402   9.837   0.879
81446W        W53772  16.261   4.847  11.539
81447W        W53773   5.741  22.157   4.821
81448W        W53774  25.575  26.515   4.188
81449W        W53775  11.758  11.808  14.276
81450W        W53776   7.401  43.465  14.783
81451W        W53777   6.290  36.077  10.450
81452W        W53778  18.715   0.932  11.899
81453W        W53779  40.902  30.135  14.846
81454W        W53780  11.245  34.503  10.939
81455W        W53781  31.543  17.307  11.427
81456W        W53782  38.070  28.017  11.437
81457W        W53783  35.467  26.979  14.505
81458W        W53784   1.473  14.100   0.794
81459W        W53785  33.521  25.542   1.720
81460W        W53786  14.216  18.262  13.891
81461W        W53787  24.498  14.609   4.293
81462W        W53788  33.390  23.206   0.825
81463W        W53789   6.767  26.973  11.958
81464W        W53790   6.189  12.849  11.012
81465W        W53791  17.699  22.574   0.341
81466W        W53792  11.729  12.702   0.850
81467W        W53793   8.209  26.481   1.891
81468W        W53794  31.073  38.370   0.450
81469W        W53795   2.779  41.369   4.141
81470W        W53796  17.299  11.232  14.499
81471W        W53797  14.711  44.453  12.373
81472W        W53798   1.355  40.894  14.991
81473W        W53799  27.095   8.186   1.801
81474W        W53800  14.267  43.822   4.169
81475W        W53801   6.188  37.449   2.674
81476W        W53802  25.104  25.212  10.443
81477W        W53803  25.061  41.311  13.920
81478W        W53804  17.307   0.842   1.788
81479W        W53805  22.703   5.429   2.811
81480W        W53806  25.063  40.874   4.799
81481W        W53807   8.207   9.794  12.018
81482W        W53808  26.994  14.185  12.993
81483W        W53809  38.432  12.701   5.162
81484W        W53810  38.017  27.470  12.832
81485W        W53811  15.732  22.036  11.441
81486W        W53812   4.213   4.406  11.570
81487W        W53813  17.103  37.083   1.422
81488W        W53814  17.738  15.197   2.733
81489W        W53815  39.346  43.386  10.447
81490W        W53816  25.206  30.928   4.197
81491W        W53817   4.761  14.293   4.663
81492W        W53818  20.704   6.760  12.445
81493W        W53819  13.134  14.593  14.429
81494W        W53820  15.658  12.343  12.037
81495W        W53821  32.986  16.608   3.202
81496W        W53822  35.570  37.414  13.313
81497W        W53823  34.389   7.886   4.836
81498W        W53824  28.973  36.933   0.473
81499W        W53825  44.412  17.255  11.872
81500W        W53826  28.165   0.414   2.856
81501W        W53827   3.753  30.654   0.731
81502W        W53828  10.147   9.864  13.376
81503W        W53829  17.598  35.084   4.713
81504W        W53830  30.561  36.528  13.488
81505W        W53831  27.978  42.910   1.738
81506W        W53832  44.980   8.261  14.882
81507W        W53833  20.615  36.384  13.957
81508W        W53834  31.542  21.688  14.005
81509W        W53835  37.407  35.549   0.748
81510W        W53836  27.982  14.106  12.436
81511W        W53837  28.988  24.179  14.758
81512W        W53838  28.154  24.681   0.807
81513W        W53839   4.417  39.877   1.352
81514W        W53840   1.845   7.729   1.822
81515W        W53841  11.761  39.876  13.058
81516W        W53842  43.803  41.825  13.826
81517W        W53843  18.618   4.765  12.538
81518W        W53844  35.025  38.898   2.264
81519W        W53845  14.788  26.513   9.497
81520W        W53846  20.575  32.450   4.609
81521W        W53847   5.368  16.699  11.983
81522W        W53848  42.495   7.737   4.195
81523W        W53849  29.649  22.591  11.551
81524W        W53850  34.103   4.732  10.643
81525W        W53851  15.147   4.890   3.190
81526W        W53852  28.168  23.161  10.978
81527W        W53853   4.242  23.662   1.432
81528W        W53854  21.653  32.904   2.825
81529W        W53855  12.706  38.463  14.393
81530W        W53856  43.017   6.381   4.339
81531W        W53857   9.273  35.903   3.212
81532W        W53858  44.355  26.607  11.590
81533W        W53859   7.883  12.253  12.534
81534W        W53860  20.242  34.009   3.294
81535W        W53861  43.954   0.279   0.905
81536W        W53862  44.863  12.723   4.669
81537W        W53863  15.609  25.136   9.932
81538W        W53864  39.383   7.397  13.959
81539W        W53865  14.240  22.679  12.578
81540W        W53866  31.905  25.605   5.198
81541W        W53867  17.258   2.425  13.843
81542W        W53868  41.942  24.086  10.993
81543W        W53869  21.189   6.412   0.265
81544W        W53870  40.462  35.431   1.294
81545W        W53871  25.627   9.387   3.222
81546W        W53872   0.859  36.466   0.893
81547W        W53873  19.666  21.179   0.783
81548W        W53874  22.559  43.877  13.536
81549W        W53875   4.727  17.257  13.797
81550W        W53876   0.855  14.589  14.842
81551W        W53877  44.003  26.521  14.773
81552W        W53878  10.874  30.536  11.381
81553W        W53879   6.200  35.449  14.848
81554W        W53880  30.597  34.994   2.211
81555W        W53881  35.020  41.034  11.501
81556W        W53882   2.796  34.373   4.264
81557W        W53883   4.748   4.257   3.662
81558W        W53884   2.407  33.569  14.346
81559W        W53885  23.095   0.956  12.906
81560W        W53886  31.465  26.154  13.913
81561W        W53887  41.912  33.094  11.981
81562W        W53888  18.056  14.797  12.996
81563W        W53889   9.185  43.325  14.485
81564W        W53890  26.672  36.546   4.809
81565W        W53891  11.836  40.044  11.085
81566W        W53892  31.519  30.962  14.293
81567W        W53893  18.272   8.769   0.365
81568W        W53894  43.829  26.056   2.280
81569W        W53895  30.548  22.138   3.636
81570W        W53896   2.294   4.723   1.840
81571W        W53897  23.627   0.750  12.014
81572W        W53898  35.945  18.069  11.419
81573W        W53899  29.016  15.626  10.020
81574W        W53900   1.386  30.601   0.377
81575W        W53901  38.514   3.951   1.403
81576W        W53902   1.954  39.455  11.096
81577W        W53903   2.251  33.512   1.874
81578W        W53904   9.207  38.551   3.700
81579W        W53905  15.723   1.265  11.413
81580W        W53906  15.234  20.164  10.956
81581W        W53907  19.130  26.575  10.593
81582W        W53908   2.250   9.736   2.323
81583W        W53909  15.171  42.367   0.473
81584W        W53910  18.063  39.402  11.525
81585W        W53911  39.927   1.279   1.414
81586W        W53912  31.097  23.620  12.443
81587W        W53913   4.899  23.083  11.400
81588W        W53914   1.787   1.267  11.575
81589W        W53915  29.155  32.021  12.941
81590W        W53916  12.657   1.782  10.504
81591W        W53917  33.403  16.258  11.545
81592W        W53918  37.377  17.225  11.598
81593W        W53919  29.474  30.101   0.439
81594W        W53920  32.077  36.397   1.220
81595W        W53921  32.397  32.498   0.374
81596W        W53922  37.368   4.757   4.759
81597W        W53923   6.301  32.558  11.055
81598W        W53924  16.634  39.940   1.910
81599W        W53925   7.221  17.772  12.850
81600W        W53926  11.705  40.461   3.383
81601W        W53927  11.207  37.504   4.246
81602W        W53928  31.583   6.849  10.518
81603W        W53929  32.521  43.958  12.502
81604W        W53930  15.810  36.924   3.371
81605W        W53931  40.977  21.635  12.367
81606W        W53932  29.424   5.781  12.436
81607W        W53933  11.867  30.526  14.379
81608W        W53934  15.086   0.744   0.451
81609W        W53935  32.056  13.826  13.795
81610W        W53936  29.510  21.204   4.120
81611W        W53937  14.719  18.295   1.388
81612W        W53938  27.032  14.770   0.418
81613W        W53939  22.546  23.683  10.545
81614W        W53940  12.671   1.449  13.836
81615W        W53941  42.877  38.921   5.143
81616W        W53942  31.640  36.027   1.274
81617W        W53943   8.667  44.824   3.741
81618W        W53944   9.373  28.981  11.477
81619W        W53945  33.536  35.911   3.149
81620W        W53946  18.550   7.379   3.273
81621W        W53947  41.322   0.459  11.958
81622W        W53948  32.110  33.507   2.833
81623W        W53949  16.779  38.854  13.480
81624W        W53950   6.410  32.555   1.210
81625W        W53951  35.592  24.534   1.340
81626W        W53952  14.732  27.968  13.400
81627W        W53953  15.684  13.310  12.894
81628W        W53954   1.292  35.095  10.601
81629W        W53955  28.087  37.851  10.519
81630W        W53956   0.321  33.514  10.891
81631W        W53957  11.217  26.585  14.927
81632W        W53958  25.581  15.281   9.501
81633W        W53959  30.109   7.190   1.756
81634W        W53960  38.455  43.766  12.911
81635W        W53961  31.064  11.205  11.980
81636W        W53962   2.917  39.048   1.350
81637W        W53963  12.698  36.498   5.177
81638W        W53964  36.492   8.277  13.033
81639W        W53965  42.846  20.123   4.716
81640W        W53966  30.953   5.331  13.906
81641W        W53967   1.948  31.626  11.958
81642W        W53968   7.910  29.604  11.955
81643W        W53969  43.914  19.727   1.879
81644W        W53970  33.012   7.401   0.459
81645W        W53971  40.466   0.274   4.117
81646W        W53972  29.150  15.147   0.824
81647W        W53973  39.046  18.249   3.348
81648W        W53974  44.788  40.001  14.994
81649W        W53975   0.462   3.220  13.020
81650W        W53976  36.858  44.823   1.765
81651W        W53977  36.993  15.690   3.775
81652W        W53978  43.515  37.553   5.231
81653W        W53979  23.592  38.390   3.740
81654W        W53980  41.312  17.194  10.641
81655W        W53981  29.599  33.620   2.699
81656W        W53982  20.150  38.845   1.855
81657W        W53983  18.061   1.797   4.253
81658W        W53984  25.631   4.310   2.224
81659W        W53985   0.480   4.773   4.143
81660W        W53986  23.507   2.462   3.250
81661W        W53987  24.067  25.514   3.267
81662W        W53988   1.875  44.846   3.850
81663W        W53989   1.770  40.470  11.390
81664W        W53990  10.853  26.041   9.575
81665W        W53991  36.910  30.022   2.234
81666W        W53992   9.712  18.776   0.870
81667W        W53993  37.039   8.865  10.950
81668W        W53994  20.179  30.623  13.500
81669W        W53995  22.714  15.138   4.306
81670W        W53996  21.753  30.566  11.568
81671W        W53997  38.950  17.652   4.703
81672W        W53998  32.963  18.235  12.443
81673W        W53999  12.316   8.828  12.900
81674W        W54000  36.472  14.700   3.852
81675W        W54001  24.186  17.238   0.287
81676W        W54002  26.537  25.565  12.409
81677W        W54003  32.128   0.467  11.465
81678W        W54004  29.511   2.807  10.990
81679W        W54005  21.058   7.684  13.905
81680W        W54006  33.015  18.181   0.466
81681W        W54007  11.191  19.125   4.148
81682W        W54008  15.326  22.011  13.480
81683W        W54009  34.899  20.535   3.710
81684W        W54010   3.930  27.073  13.340
81685W        W54011  15.599  11.626  13.030
81686W        W54012  22.510  41.332  10.152
81687W        W54013  32.446  18.284   1.293
81688W        W54014  25.509  15.708   5.566
81689W        W54015  27.527  11.808  11.374
81690W        W54016  36.082   3.222   2.744
81691W        W54017  41.919  32.514   2.720
81692W        W54018  19.552  21.197  12.516
81693W        W54019  39.366  11.156  10.442
81694W        W54020  27.159   7.285  11.885
81695W        W54021   9.806  33.930   4.678
81696W        W54022  35.901   1.453  11.076
81697W        W54023  20.176  22.545   1.887
81698W        W54024  37.441   5.379  10.415
81699W        W54025  33.056  35.038   0.436
81700W        W54026  32.906  25.062  11.411
81701W        W54027  15.801  12.194   2.418
81702W        W54028   8.896  40.949   4.323
81703W        W54029  34.613  41.889   2.335
81704W        W54030  36.368  17.584  14.885
81705W        W54031  44.797  10.704  13.816
81706W        W54032  24.980   8.856  11.044
81707W        W54033  39.403  38.865  13.911
81708W        W54034  37.006  42.963  13.836
81709W        W54035  16.632  20.555  14.279
81710W        W54036  33.382  38.441  11.596
81711W        W54037  34.908   9.240  10.979
81712W        W54038  33.874  24.170  11.111
81713W        W54039  38.972  13.721   2.792
81714W        W54040  35.531  23.736   3.843
81715W        W54041  21.246   0.253  11.528
81716W        W54042  25.684   3.855  12.950
81717W        W54043  16.294  13.711  11.930
81718W        W54044  26.477  11.842  11.492
81719W        W54045  34.042   8.850  10.523
81720W        W54046  26.529  33.080  14.795
81721W        W54047  32.017  20.102   4.758
81722W        W54048   4.396  36.562   4.783
81723W        W54049  26.954  18.563   1.739
81724W        W54050  30.914  19.611  14.924
81725W        W54051  23.710  40.517   2.805
81726W        W54052  19.178  25.513  14.764
81727W        W54053  12.635   1.468  10.434
81728W        W54054   2.881  19.187  12.349
81729W        W54055  37.943  20.632   3.665
81730W        W54056   5.260   3.831   4.760
81731W        W54057  17.688  37.493   2.704
81732W        W54058  29.589  38.041  14.931
81733W        W54059  44.348  11.671   1.906
81734W        W54060  42.367  22.077   2.783
81735W        W54061   3.816   6.808  13.001
81736W        W54062   3.840  39.830   2.788
81737W        W54063  31.968   1.407   2.722
81738W        W54064  11.722   0.982  11.433
81739W        W54065  15.798   7.898   0.275
81740W        W54066  17.704  30.049  11.597
81741W        W54067  27.196  44.450   0.771
81742W        W54068   6.707  27.989  11.015
81743W        W54069  30.504  35.513   1.873
81744W        W54070  14.319  33.381  13.470
81745W        W54071  30.543  25.581   1.316
81746W        W54072  18.255  14.097  12.002
81747W        W54073   3.409  22.622   0.457
81748W        W54074  30.526  38.953   2.670
81749W        W54075  12.778  29.128  12.446
81750W        W54076  22.645   3.315   0.860
81751W        W54077  31.623   2.823  12.961
81752W        W54078   7.253  13.162  14.807
81753W        W54079  41.519  10.760   2.227
81754W        W54080   2.958  21.578   4.719
81755W        W54081   5.216  11.716   1.818
81756W        W54082  39.527  19.567   2.701
81757W        W54083  23.013  10.187   0.802
81758W        W54084  16.151  28.018   0.794
81759W        W54085  32.436   5.387   2.801
81760W        W54086   6.211  14.652   0.792
81761W        W54087  44.847  20.063  12.983
81762W        W54088  24.676  42.367  14.356
81763W        W54089  21.039  38.865  12.940
81764W        W54090  27.196  20.724   2.840
81765W        W54091   3.918   9.372   3.724
81766W        W54092  36.354  16.659   1.765
81767W        W54093  41.365  20.241  12.922
81768W        W54094  40.973  24.580   2.238
81769W        W54095  10.843  15.632  14.028
81770W        W54096   3.892   4.349   1.335
81771W        W54097   6.774  38.353  13.843
81772W        W54098  30.653  41.910  10.524
81773W        W54099  35.360  42.874   1.855
81774W        W54100  31.153  28.670  10.449
81775W        W54101  41.397   7.780   2.885
81776W        W54102  27.561   7.741  14.363
81777W        W54103  30.979  31.052   1.834
81778W        W54104   0.401  16.226  14.873
81779W        W54105  27.982  27.584  11.070
81780W        W54106   9.369  40.542  13.384
81781W        W54107   9.737  17.643   2.238
81782W        W54108  16.098  13.749   2.180
81783W        W54109   5.821   9.272  13.498
81784W        W54110  20.561  13.658   4.766
81785W        W54111   5.747  11.775  14.800
81786W        W54112  22.533  11.627  11.858
81787W        W54113  34.054  44.284   2.364
81788W        W54114  22.039  20.756  13.967
81789W        W54115   3.823  25.587  13.050
81790W        W54116  30.920  44.279  14.417
81791W        W54117   4.877  40.912   4.274
81792W        W54118  10.669  39.811   3.218
81793W        W54119  30.502  43.799   4.219
81794W        W54120  43.919  14.233   4.643
81795W        W54121  43.928  36.546   1.287
81796W        W54122  21.742  39.499  13.061
81797W        W54123  32.984   4.257  13.379
81798W        W54124   8.233  14.118  13.951
81799W        W54125   5.745  33.958  12.916
81800W        W54126  36.375   0.952   4.328
81801W        W54127  26.633  38.538  10.029
81802W        W54128   8.758  20.087  13.013
81803W        W54129  15.717   7.798  11.479
81804W        W54130  11.821  40.048  13.841
81805W        W54131   2.261  14.644  12.830
81806W        W54132  13.769   0.915  12.038
81807W        W54133  29.508  36.547  14.375
81808W        W54134  26.989  36.966  10.632
81809W        W54135  37.953  22.244  13.929
81810W        W54136  41.973  13.835  12.424
81811W        W54137  30.016  14.650  12.953
81812W        W54138  20.255  37.554  11.968
81813W        W54139  19.683  35.926  14.310
81814W        W54140  21.711  15.270   3.634
81815W        W54141  10.272  42.008   1.449
81816W        W54142  19.644  39.973  14.383
81817W        W54143  44.332   1.435   0.447
81818W        W54144  22.535  25.146  11.567
81819W        W54145  26.496  27.454  10.078
81820W        W54146  25.482  17.257  11.424
81821W        W54147  41.835  34.548   3.791
81822W        W54148  30.917  11.369   3.791
81823W        W54149  20.262  36.998   0.771
81824W        W54150   5.810  42.351  13.028
81825W        W54151  12.713  16.302   0.441
81826W        W54152  21.084  33.465  13.945
81827W        W54153  33.004  37.982  11.118
81828W        W54154  37.458  34.074  13.329
81829W        W54155  34.426  41.020  13.899
81830W        W54156  27.186  15.288   2.727
81831W        W54157   9.784   3.931  10.406
81832W        W54158  38.341   0.274  12.374
81833W        W54159  17.162  15.685   1.350
81834W        W54160   2.261  20.056  10.938
81835W        W54161   4.937  34.525  11.498
81836W        W54162  23.489  15.262   5.801
81837W        W54163  18.718  19.550  13.854
81838W        W54164   6.286  22.030  11.530
81839W        W54165  26.517  27.070  13.477
81840W        W54166   7.175  24.561  14.469
81841W        W54167  15.143  16.746   2.683
81842W        W54168  43.939  27.686   2.303
81843W        W54169   5.404  41.983  10.447
81844W        W54170  32.519  27.682  12.995
81845W        W54171  38.440  37.343   1.731
81846W        W54172  10.828  25.125  12.502
81847W        W54173  14.732  41.303  14.451
81848W        W54174  40.012  14.722  13.884
81849W        W54175  32.483   6.917  13.851
81850W        W54176  13.255  13.699  13.945
81851W        W54177   2.865  13.136   1.360
81852W        W54178   6.318  41.422  10.990
81853W        W54179  25.977   8.809   1.807
81854W        W54180  21.552  23.001  12.448
81855W        W54181  18.274  16.574   3.151
81856W        W54182   6.785  12.655   2.886
81857W        W54183  30.579  33.901   0.940
81858W        W54184  20.045  12.683  14.917
81859W        W54185  21.678  44.370   2.278
81860W        W54186  34.025  29.598  13.886
81861W        W54187  38.425  25.011  12.400
81862W        W54188  17.246   0.955  10.537
81863W        W54189  23.063   0.791  10.523
81864W        W54190  20.576  42.976  10.972
81865W        W54191  12.141  25.665   4.741
81866W        W54192  23.049  18.068  11.512
81867W        W54193  43.912  40.476   1.885
81868W        W54194  28.588  21.217   3.824
81869W        W54195  14.288  40.334   2.215
81870W        W54196  44.392  36.521  14.020
81871W        W54197  29.590  19.207  12.838
81872W        W54198  34.421   2.900   3.214
81873W        W54199  27.103  33.950  12.048
81874W        W54200  24.657  20.628  11.086
81875W        W54201   1.462  42.369  11.593
81876W        W54202  37.542  23.632   2.781
81877W        W54203  22.603  40.502   0.924
81878W        W54204  42.970  14.780   3.241
81879W        W54205  32.555  10.805   3.334
81880W        W54206   1.829  33.464   0.267
81881W        W54207  14.809   5.340   0.349
81882W        W54208  33.384  18.061  12.549
81883W        W54209  37.963  36.531   0.954
81884W        W54210  31.033  39.483  10.428
81885W        W54211   2.265   0.251   0.934
81886W        W54212   7.291   1.286   4.680
81887W        W54213  34.454  42.504   0.478
81888W        W54214   2.965   9.803   2.759
81889W        W54215  30.481  36.505  12.461
81890W        W54216  11.253  25.080   4.250
81891W        W54217  41.350   1.434   0.728
81892W        W54218   9.324   5.238   1.852
81893W        W54219  14.633  22.221   0.919
81894W        W54220  25.564  13.774  14.768
81895W        W54221  29.068  31.083  14.020
81896W        W54222  35.506  31.486  13.880
81897W        W54223  21.602  32.131   2.216
81898W        W54224  23.066  33.616   1.278
81899W        W54225   8.315  30.541   2.203
81900W        W54226  20.694  30.005  11.936
81901W        W54227   4.368  19.599   2.874
81902W        W54228   7.907  16.738  11.000
81903W        W54229   1.912  10.814   1.733
81904W        W54230  10.204   4.255  12.965
81905W        W54231  35.529  31.042  13.042
81906W        W54232  21.519   0.958  12.860
81907W        W54233  34.024  38.437  12.923
81908W        W54234  40.814  38.426  14.894
81909W        W54235   4.371  26.140  11.013
81910W        W54236  20.728  27.075  13.358
81911W        W54237   7.876  41.869  12.509
81912W        W54238  24.013  32.565  11.511
81913W        W54239  10.384   1.331  13.999
81914W        W54240  43.491  32.463   3.196
81915W        W54241  29.920  44.947   3.722
81916W        W54242  42.811  29.549  14.409
81917W        W54243  11.241   9.855   1.720
81918W        W54244   7.679  12.302   3.665
81919W        W54245   7.187   4.380  12.923
81920W        W54246  22.734   1.305   1.766
81921W        W54247   2.943  18.076  14.885
81922W        W54248  30.581  24.649   4.781
81923W        W54249  35.576  32.906   3.335
81924W        W54250  18.154  39.527   0.384
81925W        W54251   0.317  18.710  14.874
81926W        W54252  11.275  39.439  14.790
81927W        W54253  13.687  25.690   3.151
81928W        W54254  42.524   0.768   0.826
81929W        W54255  23.153  40.801  12.077
81930W        W54256  22.221   0.375   4.719
81931W        W54257  25.109  42.315   4.725
81932W        W54258  14.612  25.593  10.462
81933W        W54259  34.417  38.345  10.642
81934W        W54260  12.167   8.254  12.871
81935W        W54261  21.705  42.314   4.268
81936W        W54262   2.447  23.026   3.698
81937W        W54263  25.187   2.897  13.983
81938W        W54264  17.570  31.990  10.577
81939W        W54265   4.274  35.406   0.469
81940W        W54266  43.013  16.195  12.454
81941W        W54267  20.039  33.414   4.180
81942W        W54268   2.887  23.232  10.080
81943W        W54269  25.690   5.914   3.255
81944W        W54270   7.350  21.612  13.838
81945W        W54271  21.233  27.509   1.309
81946W        W54272  42.477  36.521   1.902
81947W        W54273  33.879  40.312   2.348
81948W        W54274  34.469  31.579   1.382
81949W        W54275   2.771  16.749  12.987
81950W        W54276  35.586  33.962  11.010
81951W        W54277  23.058  19.055  10.609
81952W        W54278  36.416  25.011  11.371
81953W        W54279  34.509  11.746  13.034
81954W        W54280  27.587  41.405   0.945
81955W        W54281  27.631  10.773   2.395
81956W        W54282  28.015   2.293   0.305
81957W        W54283  26.607  38.478   4.319
81958W        W54284  44.296  41.953  12.014
81959W        W54285   8.734  20.746   0.750
81960W        W54286  22.735  14.240  13.429
81961W        W54287  42.446  37.452  13.939
81962W        W54288   8.324  31.001  14.307
81963W        W54289   5.376  40.323  12.959
81964W        W54290   5.739  12.756  13.402
81965W        W54291   6.192  24.635   4.117
81966W        W54292  10.339  40.949   0.860
81967W        W54293  35.968   1.426   0.851
81968W        W54294  21.578  41.413   4.699
81969W        W54295  30.907  20.646   2.777
81970W        W54296  36.954  33.622   1.282
81971W        W54297  11.772   6.411  14.490
81972W        W54298   2.874   6.224  13.542
81973W        W54299  21.018  32.521   1.832
81974W        W54300  30.474  17.094   1.915
81975W        W54301  44.802  16.811   4.680
81976W        W54302  23.095  38.004  10.115
81977W        W54303  42.333  26.655  11.377
81978W        W54304  30.126  10.154   2.359
81979W        W54305   2.424   3.903  10.054
81980W        W54306  10.336  18.056   0.443
81981W        W54307  11.675  32.050   1.719
81982W        W54308  37.837   8.654  12.852
81983W        W54309  30.587   6.724   1.695
81984W        W54310  24.493  25.126  12.914
81985W        W54311  15.093  11.282  14.813
81986W        W54312  39.491   2.330   2.866
81987W        W54313  40.373   4.238   2.413
81988W        W54314  17.695   1.939   2.268
81989W        W54315  30.975  15.671   9.933
81990W        W54316  38.414   6.426   2.866
81991W        W54317  35.559  42.401  12.367
81992W        W54318   5.901  32.540  14.864
81993W        W54319   0.396  22.008   9.999
81994W        W54320  23.214  43.892   2.229
81995W        W54321  40.809  41.002   2.890
81996W        W54322  42.381  27.669  14.991
81997W        W54323  30.040  23.123  13.403
81998W        W54324   6.760  18.622   0.857
81999W        W54325  20.196   6.186   1.232
82000W        W54326   0.337  27.171   3.711
82001W        W54327  25.625  17.267  10.039
82002W        W54328  25.073  43.792  11.507
82003W        W54329  44.996  13.164  12.909
82004W        W54330  42.382  25.687  12.042
82005W        W54331  27.666  35.444  12.893
82006W        W54332  12.632  25.509  14.330
82007W        W54333   8.820   8.382  14.903
82008W        W54334  32.467  17.251   2.405
82009W        W54335   3.858  44.398   2.189
82010W        W54336   0.920   6.901   4.283
82011W        W54337  38.962  33.458   1.448
82012W        W54338  23.088  24.649  14.465
82013W        W54339  12.707   4.834  13.450
82014W        W54340  38.447  34.537  14.909
82015W        W54341  35.584  40.044  10.944
82016W        W54342  18.190  17.216   0.834
82017W        W54343  26.010  41.379  10.408
82018W        W54344   3.775  19.673  12.873
82019W        W54345  24.227  33.594  10.443
82020W        W54346  38.358  12.229   0.782
82021W        W54347   1.776   8.776   2.890
82022W        W54348  19.263   3.425  10.572
82023W        W54349   3.368  31.596  13.545
82024W        W54350  34.384  31.137   1.428
82025W        W54351  43.839  27.183   1.247
82026W        W54352  39.319  18.243  10.548
82027W        W54353  41.463  18.620   2.701
82028W        W54354  19.683  44.824   0.420
82029W        W54355  32.094   5.426  11.458
82030W        W54356  20.680  31.409  10.428
82031W        W54357  20.640  42.836  10.512
82032W        W54358   0.838   3.895   3.312
82033W        W54359  15.107  17.081  13.357
82034W        W54360   6.690  36.439  13.002
82035W        W54361  13.643  27.671   2.270
82036W        W54362  10.757   8.180  12.838
82037W        W54363  41.389   7.278  13.495
82038W        W54364  17.650  14.214   2.735
82039W        W54365  18.104   6.740   1.909
82040W        W54366   5.708  11.260  11.446
82041W        W54367  11.773  34.978   1.265
82042W        W54368  39.967   2.742   1.772
82043W        W54369  16.144   9.351   1.297
82044W        W54370  20.752  24.093   0.752
82045W        W54371  31.544  36.474  11.116
82046W        W54372  12.320  28.976  10.464
82047W        W54373  42.986  27.649   1.791
82048W        W54374  35.981   2.283  12.878
82049W        W54375  38.020  17.669   3.765
82050W        W54376  25.069  36.901  12.982
82051W        W54377   6.333  13.278   1.441
82052W        W54378  30.098  30.156   0.305
82053W        W54379   5.868  13.651   4.835
82054W        W54380  27.077  21.043  13.874
82055W        W54381  18.145  37.550   1.279
82056W        W54382  28.562  40.525  11.924
82057W        W54383  16.102  26.488   4.201
82058W        W54384  16.274  44.426   3.749
82059W        W54385   0.792  40.387  10.009
82060W        W54386  41.308  29.013   4.229
82061W        W54387   5.194  25.625   0.258
82062W        W54388  34.385  11.814   1.381
82063W        W54389   9.348  33.526  14.853
82064W        W54390  16.670  34.555   2.199
82065W        W54391  41.991  23.507  13.428
82066W        W54392   2.336  23.676  14.852
82067W        W54393  43.311  11.269  12.932
82068W        W54394  37.888  17.218   3.778
82069W        W54395   4.284  39.843  13.393
82070W        W54396  37.408  42.942  10.421
82071W        W54397  36.407   8.783   4.303
82072W        W54398  29.649   6.696   4.816
82073W        W54399  15.738   9.251   3.356
82074W        W54400   2.954  43.779  14.903
82075W        W54401  28.675  41.898   2.830
82076W        W54402  18.551  24.673  12.953
82077W        W54403  23.714  31.473  14.001
82078W        W54404  25.199  11.728  11.535
82079W        W54405  10.682  36.063  12.519
82080W        W54406  38.482  27.456   1.364
82081W        W54407  36.585  38.019   3.292
82082W        W54408  12.227  36.438   3.247
82083W        W54409   1.325  44.810  13.520
82084W        W54410   4.237  30.518   2.826
82085W        W54411  12.757  20.562  12.848
82086W        W54412   5.902  21.517  14.964
82087W        W54413  27.008  29.636   2.321
82088W        W54414  19.615  41.837   1.250
82089W        W54415  13.232  24.113  11.493
82090W        W54416   3.426  32.448  11.047
82091W        W54417   3.796  24.022  11.976
82092W        W54418   6.377   8.385  10.928
82093W        W54419  26.140   9.880   1.233
82094W        W54420  38.932  22.740   1.418
82095W        W54421   3.864  20.112   2.354
82096W        W54422  31.500  18.250   3.651
82097W        W54423  26.463  37.025   2.201
82098W        W54424  18.611  38.407   0.845
82099W        W54425  24.699  37.489  11.581
82100W        W54426  11.731  31.008   2.412
82101W        W54427  20.554   4.244   0.356
82102W        W54428  43.921   9.845   1.804
82103W        W54429   1.891  16.779  14.909
82104W        W54430  25.192  41.518  11.048
82105W        W54431  25.211  15.311   0.362
82106W        W54432  42.928  33.947  10.623
82107W        W54433   0.854  19.750   5.131
82108W        W54434  15.222  23.596  12.960
82109W        W54435   0.873  30.590  14.293
82110W        W54436  44.435  40.479  14.341
82111W        W54437  35.925  34.967  14.894
82112W        W54438  44.944  29.158   4.238
82113W        W54439  44.887  24.613  12.386
82114W        W54440  21.574  40.039   9.487
82115W        W54441  15.751  38.827   4.333
82116W        W54442   8.263  16.791  14.903
82117W        W54443  10.765  29.540  10.993
82118W        W54444  37.084   4.255   4.710
82119W        W54445  31.473  39.942  11.606
82120W        W54446   0.273   3.264  10.438
82121W        W54447  44.940  14.153  12.373
82122W        W54448  33.986  27.040  10.443
82123W        W54449  19.542  14.670   2.250
82124W        W54450   0.263  24.140  10.565
82125W        W54451  38.454  14.738  13.851
82126W        W54452  31.006  15.713   4.304
82127W        W54453  20.673   4.806   2.336
82128W        W54454  37.533  13.633   4.144
82129W        W54455   5.436   3.248  11.381
82130W        W54456   3.356  22.196  14.361
82131W        W54457  14.781  41.381   1.215
82132W        W54458  10.141   4.295  10.130
82133W        W54459   9.221  26.512   4.746
82134W        W54460  15.613   5.790  13.449
82135W        W54461  33.556  18.614   1.288
82136W        W54462  28.072   5.207   4.327
82137W        W54463  22.143  11.653   2.269
82138W        W54464  44.816  27.644   0.397
82139W        W54465  34.912  32.133   4.629
82140W        W54466  23.063  29.457   1.877
82141W        W54467  31.643  24.190   2.715
82142W        W54468   0.471  20.668   4.346
82143W        W54469  38.410   9.232   1.934
82144W        W54470  40.895  21.068   4.229
82145W        W54471  21.568  20.653   0.966
82146W        W54472  13.165  11.805   2.293
82147W        W54473  13.630  14.791   3.199
82148W        W54474   2.743  14.234  12.934
82149W        W54475  10.791  20.559   4.240
82150W        W54476  14.802   5.838  12.938
82151W        W54477  38.490  30.999   2.784
82152W        W54478  34.060  15.222  12.516
82153W        W54479  40.478  38.028  12.067
82154W        W54480   0.280  23.071   5.227
82155W        W54481   0.927  25.643   2.759
82156W        W54482  11.650  11.343  14.338
82157W        W54483  18.789   7.265   2.326
82158W        W54484  18.652   7.334   1.834
82159W        W54485  32.912   6.391   4.753
82160W        W54486   4.772   7.409  10.645
82161W        W54487  34.911   3.299   3.757
82162W        W54488  37.952  32.060  12.566
82163W        W54489  38.528  11.237   1.335
82164W        W54490  13.306  35.590  11.947
82165W        W54491  14.779  16.654  14.322
82166W        W54492  44.425  30.643   4.683
82167W        W54493  15.700  31.497   4.830
82168W        W54494  26.508  43.976  11.020
82169W        W54495  36.377  42.819  11.885
82170W        W54496  17.564  33.587   0.752
82171W        W54497  21.660  44.452   2.778
82172W        W54498   3.387   8.302  10.911
82173W        W54499   3.385  35.987  14.330
82174W        W54500  43.837   9.692  14.997
82175W        W54501  18.295  39.032   0.785
82176W        W54502  19.556   3.404  10.958
82177W        W54503   8.827  29.564   4.680
82178W        W54504  26.129  16.765   2.268
82179W        W54505  38.872  24.693  10.105
82180W        W54506  16.256   7.221  14.511
82181W        W54507  43.282  33.387  11.947
82182W        W54508  17.627  24.542  11.548
82183W        W54509   1.274  19.773  11.596
82184W        W54510  16.123  12.117  13.024
82185W        W54511  29.507  13.304  12.485
82186W        W54512   5.805  29.632  12.056
82187W        W54513  18.677  11.833   5.300
82188W        W54514  15.305  32.586  12.000
82189W        W54515  44.997  44.951  12.956
82190W        W54516  36.521   4.378  11.077
82191W        W54517  31.122   4.264  12.011
82192W        W54518   0.761  11.820   2.220
82193W        W54519   4.917  19.568   2.222
82194W        W54520   1.404   9.266  11.605
82195W        W54521  29.665  17.107   3.847
82196W        W54522  35.582  35.081  10.942
82197W        W54523  18.279  22.236  14.409
82198W        W54524  10.742  26.110  13.923
82199W        W54525  31.991  39.863  10.620
82200W        W54526   3.779  22.649  12.995
82201W        W54527  31.054  32.544  10.893
82202W        W54528  23.713  13.281  11.943
82203W        W54529   8.866  35.093  13.833
82204W        W54530  20.612  28.572   1.424
82205W        W54531  32.562   1.975  14.838
82206W        W54532   2.796  11.299  11.449
82207W        W54533  21.739  34.535  10.524
82208W        W54534  20.252  29.661  13.328
82209W        W54535  15.714  31.490   2.374
82210W        W54536  16.799  19.213  10.565
82211W        W54537   7.361  27.510   4.202
82212W        W54538   8.777  13.651  10.417
82213W        W54539  20.113   4.892  12.411
82214W        W54540  32.445   2.259  11.977
82215W        W54541   3.931  34.090   1.866
82216W        W54542  29.931  10.641  14.317
82217W        W54543  12.173  24.119   3.346
82218W        W54544  29.021  40.913   4.807
82219W        W54545  29.619  36.434   1.862
82220W        W54546  13.812  24.093  11.080
82221W        W54547  36.055  20.543  11.121
82222W        W54548  34.046  42.485   2.360
82223W        W54549   2.887  35.938   3.630
82224W        W54550  24.166   0.988   0.939
82225W        W54551  15.301  31.941  11.565
82226W        W54552  42.867  18.142  14.454
82227W        W54553   7.342  41.939  11.372
82228W        W54554  18.707   1.346   4.750
82229W        W54555  41.387  21.682  13.932
82230W        W54556  33.879  27.626   0.928
82231W        W54557  27.192  26.095  14.025
82232W        W54558  37.380  28.993  11.067
82233W        W54559  20.685  28.667  11.404
82234W        W54560   1.885  18.179  11.554
82235W        W54561   6.198  21.253  11.467
82236W        W54562  36.912  21.025  11.028
82237W        W54563   5.395  23.144  13.996
82238W        W54564  32.450  42.313   1.825
82239W        W54565  38.503  36.065   3.218
82240W        W54566   3.232  37.898  13.792
82241W        W54567  12.191   8.233   4.724
82242W        W54568  14.155  42.906  12.416
82243W        W54569  44.942   7.666   4.342
82244W        W54570  36.379  27.621  11.948
82245W        W54571  39.494  15.647  14.440
82246W        W54572  26.184  21.631   1.798
82247W        W54573  15.640   3.914  10.424
82248W        W54574   2.825   4.329  11.553
82249W        W54575  23.156  12.153  13.354
82250W        W54576  41.999  23.679   0.350
82251W        W54577  19.607  11.241  14.885
82252W        W54578   2.249   9.719  13.933
82253W        W54579  26.005   1.905  10.542
82254W        W54580  13.747  15.762  11.931
82255W        W54581   6.677  36.436   1.778
82256W        W54582  29.463  19.677  12.519
82257W        W54583  12.126  23.037   4.699
82258W        W54584  33.995  10.252  13.441
82259W        W54585  20.667  10.761   0.937
82260W        W54586  34.109  28.163  10.913
82261W        W54587  28.116  11.683   5.224
82262W        W54588  42.459   4.325  12.552
82263W        W54589  37.852  30.648   1.898
82264W        W54590   1.913  24.066  14.485
82265W        W54591  38.864   2.868  11.585
82266W        W54592   3.428   6.254  11.991
82267W        W54593  44.426  29.165   5.146
82268W        W54594  14.274  40.363  11.113
82269W        W54595  13.775  33.947   5.128
82270W        W54596  44.396  24.488  13.520
82271W        W54597  32.550  14.595  11.416
82272W        W54598  17.183  15.127   4.730
82273W        W54599  35.526   5.391  14.795
82274W        W54600  15.721   7.792   0.967
82275W        W54601   1.301   1.426  12.520
82276W        W54602  42.850  36.501   2.745
82277W        W54603  35.450  25.064  14.780
82278W        W54604  31.600  26.978   2.380
82279W        W54605  24.177   6.756   0.793
82280W        W54606  26.081  27.941  13.541
82281W        W54607   4.419  19.212  11.903
82282W        W54608  32.122   7.257  10.618
82283W        W54609   5.696   9.735  10.414
82284W        W54610  30.611  44.900   0.753
82285W        W54611  44.262   8.406  12.467
82286W        W54612  29.545  14.295  14.442
82287W        W54613  24.997  26.043  12.437
82288W        W54614  24.480  11.348   3.176
82289W        W54615  27.957  44.896   3.856
82290W        W54616  43.401  39.437  14.001
82291W        W54617  27.554  26.103  11.460
82292W        W54618  29.057  43.286  11.601
82293W        W54619  27.121  40.314   2.724
82294W        W54620   3.910  34.542  13.443
82295W        W54621  12.261  35.483   2.749
82296W        W54622   0.812  22.615  11.562
82297W        W54623   3.234   3.801  12.066
82298W        W54624  18.758  22.101   3.261
82299W        W54625  39.314  10.375   3.354
82300W        W54626  31.621  13.136   0.784
82301W        W54627  10.790  13.769  12.069
82302W        W54628  33.066   7.180  10.616
82303W        W54629  20.048   3.888  13.906
82304W        W54630  11.191  36.359   2.352
82305W        W54631  16.244  37.384  11.437
82306W        W54632  26.031  23.728  10.971
82307W        W54633  28.558  41.021   1.283
82308W        W54634  32.128   0.261  11.058
82309W        W54635  24.031   5.710   0.278
82310W        W54636  32.516   8.728  13.948
82311W        W54637   7.755  39.043   0.305
82312W        W54638   2.727  26.687  11.114
82313W        W54639  11.255  44.472   2.388
82314W        W54640  19.564  21.093  13.021
82315W        W54641  41.431  16.638  14.909
82316W        W54642   7.834   2.310  12.893
82317W        W54643  33.462  32.042   3.629
82318W        W54644  27.544  25.574  10.460
82319W        W54645  37.472  21.715  12.995
82320W        W54646  10.183  25.995   4.656
82321W        W54647  37.862  26.114  13.374
82322W        W54648   2.373   2.300  10.159
82323W        W54649   1.818  27.011   4.268
82324W        W54650  39.863  33.995   2.265
82325W        W54651   9.849  30.041  13.365
82326W        W54652  27.553   9.322   3.743
82327W        W54653  37.435   7.794  13.049
82328W        W54654  41.357  14.215  14.405
82329W        W54655  20.528  43.457  14.851
82330W        W54656  26.528  19.141   3.795
82331W        W54657  12.136  19.601   2.687
82332W        W54658   6.891  19.045  11.881
82333W        W54659  25.579  35.046   0.304
82334W        W54660  32.557  22.631   3.734
82335W        W54661  35.593  39.916   4.781
82336W        W54662  30.078  14.221  13.801
82337W        W54663  32.441   4.743   3.315
82338W        W54664  25.029  16.736  13.351
82339W        W54665   0.269  22.075  10.925
82340W        W54666  40.345  36.519  10.919
82341W        W54667  31.933  27.038   3.787
82342W        W54668  33.966  13.264   2.693
82343W        W54669  40.040  43.452  14.503
82344W        W54670  17.792  20.065  10.990
82345W        W54671  23.631  40.491  13.005
82346W        W54672  17.176  16.229  12.548
82347W        W54673  23.628  13.793  13.373
82348W        W54674   0.970   5.701   2.861
82349W        W54675   0.901  41.788   3.311
82350W        W54676   3.382  30.061   1.347
82351W        W54677   5.200  27.023   1.411
82352W        W54678  10.191  11.782   4.635
82353W        W54679   6.698   5.350   4.238
82354W        W54680   3.412  10.715   0.751
82355W        W54681  24.220   8.390   3.781
82356W        W54682  30.459  10.374   2.809
82357W        W54683  42.371  32.040  12.053
82358W        W54684   5.403  35.572  12.577
82359W        W54685  19.219  33.401  14.420
82360W        W54686  29.469  27.565  14.501
82361W        W54687   4.358  43.289  14.955
82362W        W54688  16.087  16.570   4.123
82363W        W54689  19.113  44.316  12.491
82364W        W54690  32.886  14.603  11.394
82365W        W54691  43.899  25.108   2.667
82366W        W54692  35.570   2.281  12.026
82367W        W54693   8.171  38.996  13.367
82368W        W54694  13.767  26.034  13.451
82369W        W54695  14.649  13.716   2.204
82370W        W54696  16.082  24.630   4.204
82371W        W54697   4.745   6.883  13.910
82372W        W54698  22.122  42.008  14.347
82373W        W54699  41.425  22.070   0.868
82374W        W54700  40.973  17.144  12.567
82375W        W54701  29.925  40.908  13.928
82376W        W54702  18.553   9.262   2.336
82377W        W54703  28.955  26.646  13.329
82378W        W54704  38.519  10.322  11.525
82379W        W54705   4.931  39.968  12.515
82380W        W54706  15.670   5.872   1.799
82381W        W54707  21.216  23.127   2.716
82382W        W54708  41.919  20.562   0.341
82383W        W54709  11.708   8.860  12.413
82384W        W54710  22.671  17.645   4.271
82385W        W54711  14.196  18.193   3.812
82386W        W54712  35.877  31.119  10.419
82387W        W54713   9.661  10.834   2.363
82388W        W54714   4.229  31.621   0.943
82389W        W54715   4.331   9.304   3.212
82390W        W54716   8.298  26.185  11.489
82391W        W54717  20.633  10.248   3.348
82392W        W54718  23.072  18.248  12.388
82393W        W54719  17.218  33.066  13.466
82394W        W54720  12.132   6.304   0.754
82395W        W54721   4.844  19.660  12.838
82396W        W54722  44.503   1.792   0.442
82397W        W54723  15.142  34.956   1.777
82398W        W54724  40.372  16.755  13.341
82399W        W54725  38.048  10.149  11.973
82400W        W54726  20.265  15.646   4.131
82401W        W54727  23.564  27.549  13.019
82402W        W54728  10.743  42.808   1.865
82403W        W54729  12.688  13.687   2.857
82404W        W54730   9.691  34.477  10.477
82405W        W54731  35.959  33.500   1.316
82406W        W54732  35.055  22.643   4.186
82407W        W54733   1.368  37.340  11.952
82408W        W54734  17.568  10.710  11.896
82409W        W54735  17.709  20.696   0.915
82410W        W54736  21.582  41.802  11.050
82411W        W54737  25.709   7.292  14.004
82412W        W54738  39.535  27.990  11.548
82413W        W54739  43.007   1.413   1.324
82414W        W54740  17.111  42.779   1.909
82415W        W54741  42.786  17.692   1.294
82416W        W54742  31.434  23.131  14.444
82417W        W54743  44.993  31.576   3.328
82418W        W54744   1.876  14.713  11.612
82419W        W54745   9.253  26.682   0.911
82420W        W54746  20.036   4.914   4.747
82421W        W54747  37.356  31.131   2.252
82422W        W54748  41.429  14.752  13.023
82423W        W54749  33.476   6.722   1.398
82424W        W54750   3.778  34.536  13.981
82425W        W54751  34.020  42.320  11.105
82426W        W54752  39.376  40.500   0.276
82427W        W54753  43.290   5.687  11.584
82428W        W54754  17.238   6.212  14.484
82429W        W54755   0.436  44.325   4.720
82430W        W54756  14.811  26.550   1.447
82431W        W54757  11.766  22.713  12.579
82432W        W54758   4.921  18.203   9.952
82433W        W54759  19.084   9.806   1.241
82434W        W54760  42.840   6.915   2.785
82435W        W54761   1.784  12.196  13.528
82436W        W54762  10.812  25.122  13.316
82437W        W54763  20.161  42.420   1.731
82438W        W54764  18.560   3.937  10.570
82439W        W54765  25.622  18.724  11.908
82440W        W54766  26.647   2.332   4.768
82441W        W54767  33.128  20.075  12.020
82442W        W54768  44.953  41.854   0.468
82443W        W54769  14.210  41.853   2.260
82444W        W54770  11.849  12.648   2.227
82445W        W54771  42.300   3.882  12.445
82446W        W54772   1.319  23.555  12.000
82447W        W54773   0.414  13.823  12.524
82448W        W54774  37.490   7.336   0.937
82449W        W54775  33.526  30.094  10.419
82450W        W54776  31.648  35.997  12.532
82451W        W54777  16.791  28.472   1.378
82452W        W54778  28.581  30.967   2.835
82453W        W54779  32.996   5.875   1.320
82454W        W54780  44.265  32.572   0.768
82455W        W54781  33.466  43.897  12.448
82456W        W54782  33.097   6.832   1.795
82457W        W54783  41.953   3.812  12.007
82458W        W54784   2.828  10.834   1.841
82459W        W54785  35.857  42.452   2.407
82460W        W54786  15.740  37.385  11.874
82461W        W54787  17.229  37.047  14.323
82462W        W54788  18.715  20.070   4.334
82463W        W54789   4.839  18.570   2.397
82464W        W54790  38.992   1.828   3.861
82465W        W54791   4.361  24.084  11.965
82466W        W54792  35.405  25.089  14.459
82467W        W54793  17.272  43.828   1.747
82468W        W54794  39.915   1.353  12.979
82469W        W54795  34.984  15.125   2.272
82470W        W54796  23.726  21.098  14.846
82471W        W54797  25.035  28.655   1.874
82472W        W54798  28.629  39.978   2.844
82473W        W54799  30.484  44.423   2.210
82474W        W54800  23.988   6.913  13.910
82475W        W54801  34.374  20.565  11.944
82476W        W54802  43.957  11.697   2.264
82477W        W54803  27.609   9.719   0.408
82478W        W54804  30.919  26.493   2.218
82479W        W54805  15.735  15.790   3.717
82480W        W54806  31.465  12.652  13.504
82481W        W54807   2.354  37.544  10.415
82482W        W54808  41.513  11.678  12.504
82483W        W54809  41.813  11.831   2.219
82484W        W54810  29.947   0.307   0.397
82485W        W54811  28.025  21.127   3.153
82486W        W54812  24.130   9.167  13.839
82487W        W54813  44.889  36.524  11.117
82488W        W54814   7.709  21.750  11.429
82489W        W54815   6.215  38.394  13.342
82490W        W54816  34.400  17.566   2.863
82491W        W54817  24.013  22.716   9.940
82492W        W54818  43.826  35.020  14.782
82493W        W54819   3.316  28.672  11.058
82494W        W54820   5.417   3.221  12.917
82495W        W54821  38.513  29.500  12.969
82496W        W54822  20.768   1.374   3.168
82497W        W54823  39.343  24.214   3.738
82498W        W54824  36.964  27.625   4.829
82499W        W54825  26.701  23.129   3.347
82500W        W54826   8.169  30.072   4.630
82501W        W54827  18.134  31.934  12.467
82502W        W54828  20.241   4.238   0.250
82503W        W54829  44.990  44.298  13.445
82504W        W54830  25.620  28.521  11.008
82505W        W54831  11.720   5.851  13.502
82506W        W54832   6.876   8.167   1.324
82507W        W54833  11.653  38.950   4.792
82508W        W54834  16.243   3.230  12.914
82509W        W54835  34.899  12.162  12.911
82510W        W54836  37.999  32.404   3.372
82511W        W54837  35.401   4.844  14.347
82512W        W54838   4.449  41.010  13.314
82513W        W54839  26.540  22.246  12.845
82514W        W54840  29.090  16.718   0.882
82515W        W54841   9.389  41.959   0.919
82516W        W54842  23.531  33.606   0.474
82517W        W54843  39.316  24.011   0.830
82518W        W54844  42.459  37.033   4.230
82519W        W54845  29.011  12.250  14.375
82520W        W54846  43.850  23.602  13.342
82521W        W54847  22.204  16.184   2.229
82522W        W54848   6.398  32.630  10.643
82523W        W54849  33.514  12.157  14.456
82524W        W54850   6.274  27.147   1.904
82525W        W54851  20.073  43.380  14.408
82526W        W54852  39.511  41.840   4.210
82527W        W54853  15.114  16.741  10.906
82528W        W54854  22.675  23.539  13.323
82529W        W54855   8.800  20.732   2.344
82530W        W54856  15.227  17.108  12.439
82531W        W54857   0.847  35.941   2.715
82532W        W54858  11.186   8.701   3.696
82533W        W54859  13.841  43.963   1.403
82534W        W54860   1.402   3.366   2.668
82535W        W54861  21.638  17.090  13.930
82536W        W54862  28.938   6.746  14.990
82537W        W54863   7.854  19.180  14.372
82538W        W54864  38.048  30.939   0.731
82539W        W54865  40.371  29.472   1.857
82540W        W54866  41.385   6.729   2.286
82541W        W54867  29.615  16.790   3.694
82542W        W54868  25.994  10.641  13.855
82543W        W54869  41.528   5.694  11.900
82544W        W54870  27.591   6.207   2.371
82545W        W54871  34.086  26.096  14.781
82546W        W54872  35.539  36.348   5.309
82547W        W54873  12.284  27.163   9.441
82548W        W54874  15.668   7.850   3.829
82549W        W54875  26.510  25.543   4.833
82550W        W54876  11.250  30.452  13.503
82551W        W54877  22.007   2.775   3.376
82552W        W54878  26.084  35.425  13.905
82553W        W54879  37.457  34.595   4.775
82554W        W54880  34.540  29.451  10.972
82555W        W54881  12.305  24.120  10.404
82556W        W54882  24.172   9.356   4.681
82557W        W54883  27.479  11.178  14.827
82558W        W54884  34.873  14.729  14.976
82559W        W54885   9.190   1.472   4.613
82560W        W54886  23.143  33.975  12.471
82561W        W54887  23.518  20.553  14.020
82562W        W54888  34.493  21.051  13.859
82563W        W54889  20.181  30.082   0.893
82564W        W54890   4.770  36.037  10.103
82565W        W54891   0.310  15.811  11.881
82566W        W54892  27.062  20.176   0.922
82567W        W54893   6.339   2.908   3.797
82568W        W54894  12.797  22.714  13.051
82569W        W54895  41.402  32.889   2.770
82570W        W54896  16.686  43.443   1.374
82571W        W54897   4.378   7.294   2.370
82572W        W54898  30.432  29.546  13.010
82573W        W54899  19.048  12.318  12.018
82574W        W54900  40.321  32.117   5.317
82575W        W54901   1.817  22.621   3.307
82576W        W54902  44.810  21.698  10.891
82577W        W54903   3.778  43.921   3.162
82578W        W54904  29.475  37.378  10.643
82579W        W54905  41.983  40.929   1.322
82580W        W54906  28.624   9.212   1.325
82581W        W54907  38.325  40.420   0.803
82582W        W54908   4.757  10.145  10.911
82583W        W54909  33.423  41.819  11.498
82584W        W54910  30.431  15.150   1.784
82585W        W54911  23.214  28.089  12.409
82586W        W54912   0.979  32.462   1.802
82587W        W54913  42.370  38.565   0.385
82588W        W54914  42.894  26.632   2.304
82589W        W54915  30.997   7.721  10.440
82590W        W54916  13.634  24.986  10.944
82591W        W54917  28.083  19.537   0.351
82592W        W54918  25.010  41.970  11.039
82593W        W54919  25.475  32.951  12.952
82594W        W54920  22.534  43.803   2.321
82595W        W54921  39.830  38.372  10.455
82596W        W54922  10.250  18.656   0.463
82597W        W54923   5.771   4.753   0.771
82598W        W54924   7.779   9.686   4.138
82599W        W54925   6.261   7.331   3.839
82600W        W54926  30.027  39.877  14.855
82601W        W54927  27.597  34.603   2.840
82602W        W54928  44.492   5.701   2.864
82603W        W54929  32.468  14.266  13.364
82604W        W54930  28.052  27.182   3.185
82605W        W54931  33.605  18.672  11.976
82606W        W54932  43.776  31.041   0.851
82607W        W54933  35.489  40.842   1.407
82608W        W54934  22.153  11.205   4.312
82609W        W54935  11.715  23.580   3.730
82610W        W54936  24.982  42.485  12.867
82611W        W54937   8.218  25.174  11.456
82612W        W54938  10.365   3.424  11.878
82613W        W54939  27.136   0.762   2.358
82614W        W54940  16.764  24.608  13.875
82615W        W54941   4.790  13.325   0.263
82616W        W54942  38.920  13.247   5.280
82617W        W54943   1.237  43.280  10.574
82618W        W54944  36.001   2.232  14.472
82619W        W54945   7.843  28.156   2.228
82620W        W54946  23.669  10.775  12.580
82621W        W54947  32.042  34.950  12.458
82622W        W54948  30.113  44.964   3.230
82623W        W54949   1.361  16.189  13.333
82624W        W54950  35.098   8.887  14.775
82625W        W54951  15.087  35.045  11.865
82626W        W54952   7.738   7.330   4.256
82627W        W54953  21.594   6.837  12.002
82628W        W54954  18.109   2.861  12.001
82629W        W54955  35.989  21.099   0.339
82630W        W54956  21.746  25.100  14.468
82631W        W54957   8.264  36.905   3.651
82632W        W54958  21.545  21.741   1.804
82633W        W54959  26.684  23.123   1.277
82634W        W54960  36.879   3.765   0.869
82635W        W54961  13.762   8.320  10.614
82636W        W54962  20.181  10.844   4.240
82637W        W54963  42.411  43.972   0.358
82638W        W54964  34.416  38.006   4.811
82639W        W54965   8.333   6.781  13.911
82640W        W54966  21.743   8.861  10.904
82641W        W54967  23.662  35.565  11.440
82642W        W54968  17.103   9.781   9.972
82643W        W54969  34.952  32.528   5.106
82644W        W54970   9.227  32.903   4.618
82645W        W54971  17.597   5.794   3.355
82646W        W54972  41.891  29.434   3.772
82647W        W54973  30.912  43.498   1.359
82648W        W54974  10.186  13.296   2.312
82649W        W54975  22.205  40.999   1.383
82650W        W54976  19.121   2.757   4.351
82651W        W54977  29.464   1.803  11.114
82652W        W54978  18.738   3.245  11.048
82653W        W54979  40.864  28.638   2.279
82654W        W54980  35.899  28.579  14.398
82655W        W54981  24.061  20.673  12.957
82656W        W54982  24.550  31.617  14.489
82657W        W54983  25.681  42.436   2.675
82658W        W54984  36.448   1.425  10.416
82659W        W54985  26.521  33.518  13.892
82660W        W54986  32.610  18.552  13.858
82661W        W54987  40.404   1.344  13.444
82662W        W54988  24.645  36.056  14.504
82663W        W54989  18.091   9.876  11.384
82664W        W54990  44.999   9.722  11.083
82665W        W54991  22.521  16.765  10.598
82666W        W54992  14.691  39.383  14.323
82667W        W54993   6.741   7.257  14.963
82668W        W54994  22.006   4.738   0.314
82669W        W54995   6.227   6.401   4.626
82670W        W54996  21.111  43.448  13.840
82671W        W54997   1.246  33.108  11.866
82672W        W54998   8.762   4.297   1.891
82673W        W54999  21.671  36.964   2.233
82674W        W55000  14.206  15.111  10.943
82675W        W55001  20.701  24.505  13.347
82676W        W55002  37.341  19.637   0.454
82677W        W55003  38.956  17.792   3.288
82678W        W55004  15.740  10.320  10.458
82679W        W55005  12.117  22.055   4.135
82680W        W55006  33.020  16.258  13.312
82681W        W55007  39.007   8.732  11.608
82682W        W55008   3.873  38.894   2.355
82683W        W55009  43.823  43.404  14.966
82684W        W55010  42.440  36.004   2.703
82685W        W55011  44.939  27.664  11.396
82686W        W55012  38.361  43.943   1.925
82687W        W55013  26.666  28.499   0.958
82688W        W55014  10.847  34.064   1.702
82689W        W55015  30.551   4.364   2.325
82690W        W55016   9.673  11.367   0.909
82691W        W55017  28.545  12.796   0.359
82692W        W55018  41.786  44.836  13.796
82693W        W55019  43.480   9.690   0.798
82694W        W55020  43.834  32.558   1.386
82695W        W55021   2.965  40.954   4.248
82696W        W55022  32.591   5.717  12.936
82697W        W55023   6.329  24.991  13.855
82698W        W55024   6.191   5.909  11.481
82699W        W55025   8.701   3.405  11.585
82700W        W55026   6.798  42.918  13.310
82701W        W55027  34.005  42.868  14.486
82702W        W55028  18.124  38.390  11.043
82703W        W55029  12.685  29.086   0.413
82704W        W55030  23.081  30.557   2.281
82705W        W55031  13.296   9.687   2.184
82706W        W55032  39.852   5.281  10.513
82707W        W55033  26.996  20.134  14.817
82708W        W55034   6.797  36.455  11.544
82709W        W55035  20.157  41.416  10.461
82710W        W55036  25.611  17.148  14.006
82711W        W55037  31.569  32.581   1.895
82712W        W55038  29.668  16.633   3.294
82713W        W55039  20.220   5.389   4.665
82714W        W55040  17.618   4.742   3.248
82715W        W55041  15.771  12.767  14.916
82716W        W55042   9.299  43.976  14.332
82717W        W55043   5.323  22.163   3.278
82718W        W55044  26.613  24.576   0.750
82719W        W55045   7.256  20.543   0.834
82720W        W55046  18.586   4.343  14.441
82721W        W55047  17.284  33.615   1.240
82722W        W55048   6.392   9.174  14.465
82723W        W55049  44.411  42.826  12.857
82724W        W55050  31.619  22.188   4.630
82725W        W55051  35.919  23.550  14.398
82726W        W55052   0.442  18.207   1.810
82727W        W55053  20.693  18.149  14.417
82728W        W55054  28.084  14.241   3.203
82729W        W55055  17.159  30.425   2.669
82730W        W55056  40.883  16.130  12.350
82731W        W55057  41.841  37.995  10.945
82732W        W55058  12.835  40.498   2.806
82733W        W55059  24.520  20.752   3.845
82734W        W55060  17.590  23.130   4.655
82735W        W55061  23.713  15.639   0.258
82736W        W55062  26.974   4.416   4.284
82737W        W55063  18.641  20.244   0.476
82738W        W55064  40.406  26.606  14.440
82739W        W55065  14.651  41.525  10.946
82740W        W55066  22.603   9.761   3.164
82741W        W55067  39.491  43.003   3.226
82742W        W55068   9.697  37.931   3.859
82743W        W55069   4.743   1.771   2.785
82744W        W55070  27.958  34.519  11.127
82745W        W55071  27.675  14.152  14.016
82746W        W55072  21.703  10.384  11.008
82747W        W55073   0.350  10.675   3.219
82748W        W55074   3.813  13.333  14.814
82749W        W55075   9.296   7.751  10.980
82750W        W55076  40.984  36.410  14.378
82751W        W55077  24.020  10.801   3.772
82752W        W55078   3.936  38.861  10.491
82753W        W55079  14.218  20.111  14.761
82754W        W55080  10.753  19.643  11.515
82755W        W55081  28.999   0.418  12.014
82756W        W55082  40.433  44.373  12.032
82757W        W55083  25.973  24.199   3.229
82758W        W55084  44.827  28.519  10.928
82759W        W55085   9.313  10.759  11.553
82760W        W55086  20.140   6.226   2.308
82761W        W55087  19.669   5.405  11.861
82762W        W55088  44.879  27.612   3.742
82763W        W55089  43.471  35.947   1.708
82764W        W55090   1.305  38.846   4.347
82765W        W55091  26.140  37.900   2.181
82766W        W55092   0.423  11.777  13.425
82767W        W55093  30.626   7.812  13.004
82768W        W55094  22.118  15.318  12.093
82769W        W55095   5.415  12.628  14.409
82770W        W55096  29.465  30.062   0.752
82771W        W55097  39.546  16.162   1.876
82772W        W55098  23.061  39.846   5.757
82773W        W55099  34.973  20.702   0.942
82774W        W55100  24.594  33.438   1.839
82775W        W55101   4.322  31.414   3.317
82776W        W55102   7.308   0.264   2.715
82777W        W55103  15.759  43.320  13.532
82778W        W55104  41.009  13.148   3.193
82779W        W55105  44.347  23.709  13.430
82780W        W55106  20.131  25.541   4.329
82781W        W55107  30.579  19.753   2.317
82782W        W55108  36.560  12.357  13.516
82783W        W55109  11.203   2.353  12.500
82784W        W55110  43.392  33.586  12.468
82785W        W55111   0.386   7.251   2.871
82786W        W55112  12.145  19.278   1.811
82787W        W55113  28.100  36.889   4.738
82788W        W55114  31.152  17.740   0.247
82789W        W55115  38.945  27.084  12.416
82790W        W55116  25.621  39.499   5.766
82791W        W55117  44.999   9.681   2.405
82792W        W55118  39.313  14.202  11.996
82793W        W55119   1.303   8.889  11.882
82794W        W55120  21.606  31.000   2.227
82795W        W55121  10.636  32.549  11.941
82796W        W55122  33.971  18.657   3.270
82797W        W55123  25.528  12.845  12.517
82798W        W55124  18.180   5.356   4.757
82799W        W55125  40.311   2.964  10.614
82800W        W55126  13.796   8.337  11.959
82801W        W55127   8.391  39.952   1.367
82802W        W55128   0.259  42.350   4.784
82803W        W55129  37.837  11.152  10.459
82804W        W55130  28.101  26.050  12.348
82805W        W55131  44.430   5.429   2.179
82806W        W55132   0.382   2.782  12.881
82807W        W55133   0.271  43.824   1.857
82808W        W55134   3.917   5.266  13.416
82809W        W55135  34.567   1.767  13.472
82810W        W55136   2.766  16.170   1.383
82811W        W55137   9.204  15.635   2.682
82812W        W55138  29.549  28.990  10.964
82813W        W55139  20.610  38.553  10.483
82814W        W55140   5.885  42.433  10.591
82815W        W55141  41.973  11.153   0.436
82816W        W55142  36.576  24.206  11.894
82817W        W55143  39.985   9.756   2.667
82818W        W55144  42.854  26.115   2.778
82819W        W55145   2.439  14.783  12.411
82820W        W55146  11.342  23.602  13.363
82821W        W55147  40.851  12.251  14.837
82822W        W55148  18.086  29.962   2.417
82823W        W55149  32.489   3.771  12.922
82824W        W55150  41.849   7.907   4.612
82825W        W55151  12.720   6.374  12.503
82826W        W55152  13.638  33.528   2.880
82827W        W55153  23.082  21.513  12.923
82828W        W55154  26.674   1.337  12.380
82829W        W55155  12.238  19.096   2.335
82830W        W55156  22.227  30.444   3.257
82831W        W55157  14.681  10.753  11.001
82832W        W55158  40.346  23.647  14.941
82833W        W55159  42.878  30.095  11.568
82834W        W55160  22.109   4.377   2.842
82835W        W55161  19.665  35.104   2.191
82836W        W55162   8.673  12.621   2.672
82837W        W55163  37.351  30.095   2.877
82838W        W55164  14.327   6.257  11.044
82839W        W55165  18.545  26.630   2.324
82840W        W55166  12.729  13.322   4.607
82841W        W55167  36.535  10.762   4.210
82842W        W55168   9.694  26.081  10.422
82843W        W55169  20.252  37.008  10.579
82844W        W55170   3.380  23.034   3.657
82845W        W55171   1.810  25.097  14.803
82846W        W55172  38.970  41.424   4.806
82847W        W55173  11.701  30.909  13.498
82848W        W55174  32.049  29.097  14.806
82849W        W55175   0.459  21.730   4.241
82850W        W55176   2.752  31.577  13.521
82851W        W55177   8.354  43.954   0.479
82852W        W55178  28.171  38.021  14.326
82853W        W55179  19.699  37.066   0.257
82854W        W55180  32.401  24.644   0.290
82855W        W55181   3.396  32.572   0.383
82856W        W55182  13.749  31.031   1.872
82857W        W55183  19.676  23.589   2.669
82858W        W55184  27.974  30.609  11.403
82859W        W55185  22.663  38.015  12.340
82860W        W55186   0.827  18.280  13.039
82861W        W55187  36.411  10.304  11.861
82862W        W55188   0.895  34.951  13.003
82863W        W55189  36.990  23.703   2.830
82864W        W55190  40.533  21.131  14.386
82865W        W55191  44.489  32.621  12.087
82866W        W55192  23.546  21.233  11.383
82867W        W55193  42.454  18.221  14.430
82868W        W55194  35.971   9.366   0.815
82869W        W55195  41.367  16.287   0.806
82870W        W55196  14.652   2.471  10.898
82871W        W55197  42.498  25.059  14.895
82872W        W55198  40.924  21.017   2.359
82873W        W55199  27.638   3.764   2.290
82874W        W55200   8.381   8.236  12.971
82875W        W55201  20.762  31.924   0.458
82876W        W55202   1.294  18.203   3.224
82877W        W55203  25.096  34.512   4.756
82878W        W55204  37.347  14.768   3.346
82879W        W55205  24.666  35.521  12.358
82880W        W55206   0.922   9.780   3.809
82881W        W55207  30.510  16.750   3.692
82882W        W55208  32.925   5.749   0.442
82883W        W55209  11.753  21.604  14.284
82884W        W55210  23.179  25.642   3.270
82885W        W55211  20.730  23.555   2.887
82886W        W55212  30.943  41.466   2.383
82887W        W55213  10.844  19.765  14.378
82888W        W55214  34.444  39.815  10.575
82889W        W55215  38.367  39.828   2.838
82890W        W55216  15.093  17.703  14.377
82891W        W55217  42.332  44.481   2.291
82892W        W55218  34.455   1.785  12.461
82893W        W55219  21.542  11.836  10.506
82894W        W55220  12.248  44.940  11.443
82895W        W55221  30.052  32.971  12.540
82896W        W55222  44.283   9.676  14.440
82897W        W55223  31.056   8.763  14.281
82898W        W55224  18.565  44.926  14.512
82899W        W55225  41.842  17.247  12.080
82900W        W55226  39.923  12.264  11.581
82901W        W55227   2.779  43.303   4.222
82902W        W55228  44.387   0.332   1.316
82903W        W55229  10.354  41.910   4.341
82904W        W55230  14.189  23.710   2.367
82905W        W55231  14.739   6.350   0.287
82906W        W55232   3.224   4.331  11.435
82907W        W55233   6.335  22.655   4.624
82908W        W55234   0.352  30.602  12.091
82909W        W55235  44.948  23.491   4.756
82910W        W55236  37.389   1.821  11.421
82911W        W55237  23.656   6.415  14.887
82912W        W55238  22.108  32.062   4.791
82913W        W55239  12.306  26.993   4.340
82914W        W55240  28.509  40.848   3.656
82915W        W55241  20.029  37.996  12.376
82916W        W55242   3.447  41.491  11.882
82917W        W55243  32.457  22.025  13.412
82918W        W55244  39.560  31.603  11.534
82919W        W55245  38.362   6.773   2.769
82920W        W55246  17.682  41.810   0.827
82921W        W55247  28.602   3.293   0.351
82922W        W55248  23.016  34.410  13.416
82923W        W55249  11.285  32.582   1.926
82924W        W55250  21.206  31.925   3.358
82925W        W55251   6.797  42.965   0.356
82926W        W55252  20.151  12.360   1.928
82927W        W55253  28.056  14.195   5.317
82928W        W55254  25.129  16.716   3.218
82929W        W55255  35.595  20.146  11.087
82930W        W55256  44.823  39.395  11.433
82931W        W55257  30.032  20.119   1.697
82932W        W55258  26.649  12.250   3.682
82933W        W55259  16.777  15.104   2.853
82934W        W55260  14.711  29.057   1.338
82935W        W55261  24.663  40.814   4.817
82936W        W55262  29.466  16.636   0.727
82937W        W55263  21.030  24.048  12.860
82938W        W55264   7.176  12.657  14.990
82939W        W55265  40.397  29.940  14.476
82940W        W55266  14.213  29.963  13.882
82941W        W55267  13.730  23.076  12.468
82942W        W55268  30.416  33.934  10.474
82943W        W55269  20.744  35.469  12.412
82944W        W55270  40.874  36.347   0.907
82945W        W55271  16.097   0.442   2.794
82946W        W55272  43.364  30.035   2.308
82947W        W55273   9.233   9.673   0.779
82948W        W55274  17.741  19.720  12.453
82949W        W55275  39.532  35.587  13.862
82950W        W55276  14.703  31.910   3.721
82951W        W55277  34.563  43.426   1.227
82952W        W55278  15.688  28.459  13.348
82953W        W55279  41.371  14.664  10.909
82954W        W55280  21.218  39.852  11.878
82955W        W55281  40.920   6.834   0.877
82956W        W55282  14.787  14.274  13.000
82957W        W55283  37.463  10.343  14.969
82958W        W55284   2.805  17.621   3.329
82959W        W55285   6.412  32.902   1.372
82960W        W55286  37.365   2.828  14.011
82961W        W55287   0.834  17.094   4.718
82962W        W55288  15.119  21.740   3.195
82963W        W55289   4.227  17.151  11.951
82964W        W55290  21.045  36.360   4.705
82965W        W55291  28.069  39.028   3.331
82966W        W55292  25.525  40.457   0.270
82967W        W55293  28.958  38.454   3.763
82968W        W55294  32.132  43.385  12.938
82969W        W55295  38.985  29.021   2.753
82970W        W55296  20.211  20.235   3.248
82971W        W55297  44.294  30.107   1.736
82972W        W55298  14.303  25.695  10.550
82973W        W55299   0.792  34.901  13.416
82974W        W55300   3.803   9.311   3.277
82975W        W55301  36.438  12.635   2.758
82976W        W55302  42.998  26.538  13.487
82977W        W55303  35.097  27.008   1.714
82978W        W55304  32.099  28.444  13.471
82979W        W55305   7.810   5.402   3.814
82980W        W55306  38.466  16.252  12.527
82981W        W55307   8.239  27.043  10.598
82982W        W55308  21.608  24.135  12.051
82983W        W55309   3.293  20.183   2.287
82984W        W55310  19.688  22.213   3.806
82985W        W55311   6.741  38.844  14.807
82986W        W55312  30.432  43.412  14.827
82987W        W55313  23.004  32.616   0.442
82988W        W55314  11.336   2.915  10.487
82989W        W55315  11.790  33.942   0.310
82990W        W55316   6.835  15.243  14.469
82991W        W55317   7.781  22.591   9.951
82992W        W55318  36.391   6.794  12.828
82993W        W55319   9.863  24.043   4.625
82994W        W55320  42.508   5.326   3.297
82995W        W55321  26.018  37.426  10.057
82996W        W55322  38.854  17.285   0.464
82997W        W55323  12.684  44.296  14.865
82998W        W55324  19.153  35.418  14.300
82999W        W55325  32.514  17.736  11.510
83000W        W55326  20.113  18.208  10.008
83001W        W55327  20.731  28.153   2.868
83002W        W55328  32.078  29.948  10.937
83003W        W55329  31.037  24.632  13.848
83004W        W55330  29.168   2.883  12.949
83005W        W55331  21.560  11.176   1.246
83006W        W55332  21.257  13.774   1.826
83007W        W55333  42.923   2.438  13.960
83008W        W55334  18.248  30.591   2.732
83009W        W55335   9.689  24.110  14.302
83010W        W55336  30.413  18.733  12.451
83011W        W55337  11.640  30.475   0.358
83012W        W55338   3.913  30.037   2.370
83013W        W55339  28.078   7.325  14.516
83014W        W55340   8.193  10.227  10.940
83015W        W55341   8.658  15.765   0.816
83016W        W55342  37.982  31.109   1.777
83017W        W55343   0.798   7.743   3.786
83018W        W55344  30.045   2.728  12.561
83019W        W55345   0.816  37.902   4.323
83020W        W55346  44.372  44.901  10.076
83021W        W55347  24.664   9.256  12.461
83022W        W55348   4.732  43.971   1.776
83023W        W55349  33.070  14.155  14.299
83024W        W55350   4.400  10.195   2.885
83025W        W55351  35.570  20.596  12.975
83026W        W55352  17.249  29.429   1.917
83027W        W55353  19.678  35.105  14.319
83028W        W55354  10.341   6.851  13.866
83029W        W55355  19.135  21.100  13.804
83030W        W55356  13.800  14.142  10.932
83031W        W55357   9.782  38.363   4.259
83032W        W55358  27.579  18.718   3.848
83033W        W55359   2.292  42.885  13.807
83034W        W55360  19.690  28.439  13.912
83035W        W55361  17.108  21.620  11.904
83036W        W55362  23.725  17.682   9.584
83037W        W55363  34.972  20.084  12.010
83038W        W55364  25.053  11.150  14.815
83039W        W55365   7.818  14.223  14.316
83040W        W55366  40.341  27.534   1.370
83041W        W55367  31.489   1.285  11.048
83042W        W55368   9.732  14.687  12.089
83043W        W55369  18.724  42.461  12.551
83044W        W55370   6.419  40.529   4.837
83045W        W55371  44.811  21.571  13.455
83046W        W55372  12.159   1.351  14.433
83047W        W55373  10.182  28.042   0.319
83048W        W55374   2.747   5.870   2.812
83049W        W55375   3.842  34.937   3.278
83050W        W55376   4.389  25.482  11.393
83051W        W55377   8.844  31.553   0.252
83052W        W55378   7.196  10.353  14.907
83053W        W55379  38.871  19.726  14.956
83054W        W55380  32.994  43.356   2.893
83055W        W55381  14.714  37.457   4.624
83056W        W55382  34.560  31.970   2.837
83057W        W55383  28.061   8.730   3.286
83058W        W55384  14.292  14.145  10.943
83059W        W55385  34.904  11.175  13.864
83060W        W55386  11.755   2.271  11.382
83061W        W55387  16.302  39.473  13.050
83062W        W55388  15.231  16.278  13.336
83063W        W55389   7.223  20.573  12.362
83064W        W55390  22.210  16.133   3.298
83065W        W55391  22.654  37.364   3.665
83066W        W55392  13.747  23.517   0.422
83067W        W55393   5.326  28.077  10.622
83068W        W55394  35.424  22.665   0.481
83069W        W55395  40.030   5.840   2.350
83070W        W55396  32.899  11.781   2.827
83071W        W55397  36.989  12.846   2.207
83072W        W55398  38.509   4.939  13.475
83073W        W55399   8.781  11.180   3.163
83074W        W55400  20.197  35.896   3.720
83075W        W55401  10.190  14.791   0.954
83076W        W55402  18.136  36.572   4.800
83077W        W55403   5.692   3.892  13.368
83078W        W55404  35.436  30.120   4.606
83079W        W55405  24.975  23.189  14.783
83080W        W55406  39.384  26.658   3.840
83081W        W55407  16.254   5.696   2.308
83082W        W55408   7.176  13.703   4.319
83083W        W55409  36.916  29.959  11.087
83084W        W55410  16.255  41.037   4.671
83085W        W55411  14.805  14.773  12.439
83086W        W55412   2.444  29.560  13.431
83087W        W55413  13.344  29.588  12.544
83088W        W55414  27.125   8.678   4.239
83089W        W55415   1.456   7.795   4.689
83090W        W55416  16.730  33.877  13.992
83091W        W55417   6.732  33.429  13.881
83092W        W55418  28.608  38.034   4.317
83093W        W55419   8.684  26.064  13.427
83094W        W55420  41.786   0.786  13.319
83095W        W55421  10.292  19.129   1.848
83096W        W55422  28.447  13.733   4.294
83097W        W55423  29.434  17.180  11.540
83098W        W55424  30.130  42.790   0.781
83099W        W55425  31.921   3.214   4.144
83100W        W55426   1.770   1.901   1.860
83101W        W55427   9.795   5.809  14.984
83102W        W55428  13.326  11.784   3.343
83103W        W55429  42.389  27.980   2.344
83104W        W55430  39.991   4.206   3.337
83105W        W55431  29.584  13.788   0.365
83106W        W55432  40.916  11.717   0.469
83107W        W55433  25.187  15.158   1.259
83108W        W55434  14.228  25.625   2.227
83109W        W55435  42.425   8.771  10.611
83110W        W55436   8.687  38.889  11.082
83111W        W55437  23.241  30.536  11.925
83112W        W55438   7.876  22.664   1.696
83113W        W55439  38.992  21.255  11.069
83114W        W55440  13.617  12.307   0.908
83115W        W55441  25.161  30.516   1.222
83116W        W55442  44.823  21.086   3.700
83117W        W55443   6.294  26.056  11.942
83118W        W55444  21.543  38.329   0.335
83119W        W55445   9.708  33.460   3.264
83120W        W55446  34.569  12.613   0.906
83121W        W55447  31.941   3.880   2.329
83122W        W55448  13.747  34.405  11.489
83123W        W55449  39.892   8.201   4.788
83124W        W55450  36.591   7.186   1.726
83125W        W55451  21.535  41.014  11.536
83126W        W55452   7.330  34.116  12.887
83127W        W55453  15.767  32.524  14.418
83128W        W55454  44.875  37.007   0.355
83129W        W55455  10.771  30.152   1.399
83130W        W55456  23.107   7.671   4.230
83131W        W55457   5.193  31.094  13.511
83132W        W55458  17.141  11.835  11.124
83133W        W55459  35.955  11.856  10.949
83134W        W55460  33.583  14.719  12.393
83135W        W55461  22.738  26.534  12.003
83136W        W55462   4.434  42.312  12.881
83137W        W55463  27.486   6.209   2.682
83138W        W55464   2.809  36.466  10.561
83139W        W55465   0.345   9.155   2.784
83140W        W55466  35.014  31.117  11.455
83141W        W55467  20.575  15.202  14.350
83142W        W55468  18.643  20.557   4.752
83143W        W55469  14.823  36.431  11.445
83144W        W55470  28.131  39.544   2.665
83145W        W55471  40.473  18.158   4.795
83146W        W55472   7.248   8.204   3.234
83147W        W55473  12.853  36.582  11.964
83148W        W55474   4.752  35.012   5.223
83149W        W55475  31.904  33.928   2.853
83150W        W55476  36.548  32.958   0.417
83151W        W55477  25.060  26.023  12.908
83152W        W55478  26.642  24.573  13.395
83153W        W55479  25.190   8.664  13.420
83154W        W55480  24.576  34.917  11.456
83155W        W55481  17.641  43.281   0.931
83156W        W55482   8.166  10.176   9.987
83157W        W55483  17.630  13.680   4.318
83158W        W55484  33.396  28.983  11.520
83159W        W55485  44.486   8.359   3.189
83160W        W55486  10.185  32.025   9.948
83161W        W55487  39.451  28.550   3.752
83162W        W55488  34.100  28.119   4.609
83163W        W55489  42.852  17.177  11.463
83164W        W55490  40.973   4.847  11.604
83165W        W55491  38.993  43.492   1.884
83166W        W55492  20.248  18.235  12.924
83167W        W55493  27.549   8.313   2.331
83168W        W55494  24.053  38.512   1.784
83169W        W55495  28.576  39.469   1.328
83170W        W55496  34.983  26.164   0.456
83171W        W55497  37.444  16.172  14.822
83172W        W55498  27.173  43.881  13.018
83173W        W55499  20.055  17.742   3.772
83174W        W55500  12.811   8.251   1.410
83175W        W55501  30.124  42.028   3.820
83176W        W55502  32.961  21.700   0.826
83177W        W55503  17.616  18.115  13.394
83178W        W55504  14.679  35.094  11.411
83179W        W55505  13.815  27.027   4.743
83180W        W55506  10.796  16.579   0.785
83181W        W55507  39.002  38.897   5.283
83182W        W55508  14.629  27.551   2.814
83183W        W55509   4.891   2.856  14.899
83184W        W55510  28.047  28.589  14.437
83185W        W55511  23.111  26.553  11.127
83186W        W55512  12.672  37.037  12.522
83187W        W55513  29.031   9.777  13.485
83188W        W55514  43.429   4.806   2.713
83189W        W55515   2.355  15.717  11.479
83190W        W55516  39.828  39.023  12.396
83191W        W55517  26.528  27.089  11.936
83192W        W55518   1.312  38.036   0.833
83193W        W55519  21.177  10.277   2.353
83194W        W55520   9.164  32.621   0.738
83195W        W55521  26.122  34.117  14.786
83196W        W55522   0.307  35.903   3.721
83197W        W55523   8.268  24.990   1.845
83198W        W55524  18.142   6.781  11.426
83199W        W55525  43.892  22.628   1.768
83200W        W55526   0.250  25.642  10.443
83201W        W55527  21.245  20.220  11.907
83202W        W55528  30.491  44.762   0.398
83203W        W55529  38.517   5.856   2.902
83204W        W55530  43.468  30.055   0.309
83205W        W55531  22.044  15.700   1.433
83206W        W55532  36.951   9.165  13.392
83207W        W55533  24.661  16.215  13.525
83208W        W55534  14.758  44.806   2.673
83209W        W55535   7.180  22.610  13.329
83210W        W55536  44.791  15.251  10.563
83211W        W55537  17.611   5.750   4.174
83212W        W55538  23.137   9.204  14.792
83213W        W55539  21.658  19.039   1.822
83214W        W55540  42.504  41.921   3.327
83215W        W55541   4.254   3.950  11.859
83216W        W55542  13.265  13.302  12.884
83217W        W55543  25.153  36.370  11.483
83218W        W55544  22.533  13.219  12.378
83219W        W55545  13.307   8.220   0.954
83220W        W55546   6.374  41.809   4.157
83221W        W55547  32.493  34.542   2.249
83222W        W55548   5.701  35.034  12.834
83223W        W55549  38.063  27.192  13.006
83224W        W55550  29.467  20.077  14.999
83225W        W55551   1.266  30.957   0.375
83226W        W55552   0.937  15.153   1.898
83227W        W55553  34.605  20.034  14.769
83228W        W55554  15.253  10.290  13.531
83229W        W55555  31.500  40.927   3.239
83230W        W55556  38.884  34.613   4.221
83231W        W55557  38.949  18.640   0.865
83232W        W55558  21.736  31.932  12.411
83233W        W55559  32.016  17.282  10.945
83234W        W55560  12.301  28.547  12.505
83235W        W55561   4.722  33.452   2.373
83236W        W55562   5.211   7.385   2.200
83237W        W55563  24.677  14.133   5.165
83238W        W55564   7.307   8.384  14.018
83239W        W55565  32.924  20.663   3.323
83240W        W55566  23.223  18.751  10.615
83241W        W55567  15.299  12.738  13.928
83242W        W55568   0.890  26.702   3.744
83243W        W55569   2.327  19.072   2.773
83244W        W55570  35.988   5.806   4.163
83245W        W55571  11.148  23.683  14.381
83246W        W55572  24.545  21.102   1.736
83247W        W55573   2.472  20.110   4.127
83248W        W55574  37.377  43.503  10.509
83249W        W55575   8.163  37.060  12.399
83250W        W55576  19.728   1.849   2.710
83251W        W55577   1.261  17.111  11.529
83252W        W55578  37.866  21.070  14.940
83253W        W55579  44.464  18.651  12.546
83254W        W55580  36.463   6.316   2.376
83255W        W55581  28.999  12.265   0.430
83256W        W55582   0.982  23.105   2.871
83257W        W55583  20.723  26.687   1.904
83258W        W55584   4.208  16.096  14.316
83259W        W55585  42.472  18.767  13.360
83260W        W55586  19.758  20.615  10.613
83261W        W55587  30.988  41.899   0.393
83262W        W55588  14.637   8.287   4.298
83263W        W55589  32.089   2.364   0.427
83264W        W55590  16.623  27.047  10.612
83265W        W55591  39.320  24.048   2.239
83266W        W55592  40.977  16.083   0.784
83267W        W55593   0.256  14.713  14.334
83268W        W55594  20.574  20.532  14.294
83269W        W55595  42.031  34.589  12.527
83270W        W55596  30.630  33.110   0.815
83271W        W55597  36.441  29.433   4.795
83272W        W55598  20.643   3.891  10.894
83273W        W55599  31.620  28.662   2.240
83274W        W55600  28.996  31.429   1.366
83275W        W55601  32.111  15.816  14.781
83276W        W55602  20.198  19.280  13.406
83277W        W55603  39.043  17.307  14.396
83278W        W55604  37.992  43.823  13.906
83279W        W55605  43.329  25.644   4.244
83280W        W55606  13.611  15.707  10.583
83281W        W55607  35.967  38.355  11.490
83282W        W55608  37.566  31.561  12.548
83283W        W55609  31.028  14.244  12.419
83284W        W55610  10.321  39.828   2.207
83285W        W55611  33.556  21.642   3.664
83286W        W55612  38.363  17.643   2.745
83287W        W55613  24.526  41.984  13.979
83288W        W55614   3.852  39.415  13.995
83289W        W55615  42.466   4.366   0.795
83290W        W55616  15.263  38.836   3.264
83291W        W55617  43.007  29.485  12.900
83292W        W55618   1.952  11.724  11.427
83293W        W55619  43.865  25.143  13.938
83294W        W55620   8.802   3.806  14.362
83295W        W55621  26.663  35.578   1.934
83296W        W55622  23.550  37.952   2.696
83297W        W55623  43.284  31.041  11.399
83298W        W55624  11.750  34.872  12.917
83299W        W55625  15.122  11.220   3.363
83300W        W55626   7.750   1.394   2.409
83301W        W55627   7.911  19.552  11.397
83302W        W55628  38.905  42.843   4.212
83303W        W55629  17.751  33.026  11.489
83304W        W55630   2.885  13.160  10.551
83305W        W55631  41.943  31.608   3.317
83306W        W55632  14.238  12.232   1.747
83307W        W55633  31.017  40.425  13.929
83308W        W55634  39.953  21.187   3.152
83309W        W55635  38.075  27.582  11.380
83310W        W55636  35.570  39.958  12.513
83311W        W55637  14.249  41.947   5.097
83312W        W55638  11.622  40.363   0.967
83313W        W55639   2.243  43.418   1.346
83314W        W55640   9.223  17.567  12.860
83315W        W55641  21.696   3.337  13.372
83316W        W55642  23.660  18.100  14.787
83317W        W55643  30.582  35.577  10.479
83318W        W55644   8.275   2.429   3.773
83319W        W55645  12.354   4.892  10.924
83320W        W55646   2.434  17.183  14.325
83321W        W55647  34.051  29.551  11.040
83322W        W55648  33.473  39.048  11.602
83323W        W55649  35.417  41.846   2.766
83324W        W55650  19.146  31.425   3.793
83325W        W55651  33.877  39.420  11.464
83326W        W55652  19.108  33.012   3.840
83327W        W55653  13.140  14.778  11.961
83328W        W55654  42.953  43.842   4.691
83329W        W55655  43.341  11.693   4.622
83330W        W55656  13.699  35.394  14.338
83331W        W55657  17.779  39.983   2.260
83332W        W55658  12.616  15.198   4.164
83333W        W55659  40.444  19.551  10.610
83334W        W55660  44.951  25.581  12.517
83335W        W55661  12.791  24.087   3.265
83336W        W55662  34.037   6.371  13.823
83337W        W55663  15.803   3.315   0.309
83338W        W55664  16.678  10.698  11.985
83339W        W55665  16.702   4.927   3.730
83340W        W55666  29.453   9.377  13.011
83341W        W55667  29.456   2.363   2.808
83342W        W55668   7.333  10.731  10.529
83343W        W55669  16.728  28.609   4.707
83344W        W55670  39.907  29.132  11.082
83345W        W55671  12.851  37.404  10.121
83346W        W55672  24.556  34.443  13.806
83347W        W55673  38.981  17.681  10.433
83348W        W55674  21.572  17.127  12.365
83349W        W55675  30.638  21.095  13.935
83350W        W55676  21.094  13.608  11.072
83351W        W55677   4.908  13.705   4.633
83352W        W55678  24.724  40.507  14.793
83353W        W55679  43.497  31.501   0.856
83354W        W55680  29.489  29.552   1.777
83355W        W55681  31.475  10.673  14.018
83356W        W55682  13.742  10.145   3.234
83357W        W55683  12.766  36.506  10.605
83358W        W55684  39.489   5.877   3.261
83359W        W55685   8.383   3.757  12.072
83360W        W55686  11.329  24.984   9.529
83361W        W55687   1.288  14.739   1.894
83362W        W55688  37.566  12.221  14.006
83363W        W55689  12.695  34.976   1.450
83364W        W55690   8.768  35.019  13.456
83365W        W55691   9.158  32.494  14.389
83366W        W55692  11.251  32.929  13.002
83367W        W55693   0.765  12.206  13.499
83368W        W55694  20.269   2.877  14.856
83369W        W55695  11.182  16.649  14.358
83370W        W55696  36.544  39.380   0.366
83371W        W55697  39.472  24.588  13.017
83372W        W55698  20.239   6.711  12.420
83373W        W55699  28.585   7.814   2.281
83374W        W55700  10.633  34.015   0.861
83375W        W55701   1.433  25.980   1.798
83376W        W55702  40.848  29.572  12.513
83377W        W55703  38.053  17.793   1.404
83378W        W55704  31.956   7.330  13.891
83379W        W55705  36.407   2.412  11.128
83380W        W55706  14.750  43.369   1.772
83381W        W55707  22.018   8.729  12.368
83382W        W55708  30.087  11.777   3.266
83383W        W55709  36.860  18.656  14.949
83384W        W55710  27.565  17.217  14.882
83385W        W55711  12.617  20.602  11.448
83386W        W55712  44.854  18.112  14.024
83387W        W55713  21.231   6.419  13.021
83388W        W55714  29.646  30.635   4.643
83389W        W55715  44.788  44.295  12.563
83390W        W55716  19.046   6.304   0.406
83391W        W55717  39.039   6.767  14.383
83392W        W55718  42.475  43.781  14.014
83393W        W55719  39.368  27.097  11.445
83394W        W55720  10.301  39.481   1.392
83395W        W55721  36.988   7.723   1.424
83396W        W55722  12.301  34.999   4.152
83397W        W55723   3.754  15.767   0.312
83398W        W55724   7.202  12.666  12.970
83399W        W55725  30.512  19.064  11.884
83400W        W55726  12.143  18.276   4.762
83401W        W55727   8.182  41.994   2.903
83402W        W55728  35.577   3.353  10.623
83403W        W55729  39.989  23.570   3.252
83404W        W55730  34.934  16.786   0.312
83405W        W55731  25.146  16.224  11.905
83406W        W55732  33.572  34.095   1.709
83407W        W55733  29.127  43.338  13.823
83408W        W55734  24.203  20.600   1.450
83409W        W55735  11.725   9.253  10.438
83410W        W55736  44.463   3.780  11.966
83411W        W55737  44.284  41.395  12.402
83412W        W55738  13.642  25.165   4.234
83413W        W55739  23.660  28.137   4.820
83414W        W55740   2.835   6.699   3.663
83415W        W55741  14.694  16.143  13.061
83416W        W55742  10.811  12.778  12.524
83417W        W55743  27.507  23.021   3.291
83418W        W55744  38.870  20.080   1.920
83419W        W55745  39.843   2.266  12.371
83420W        W55746   3.898  35.401   3.238
83421W        W55747  11.784   2.357  11.895
83422W        W55748  16.302  31.591   0.735
83423W        W55749  43.377  30.057  12.949
83424W        W55750  43.384  25.175   1.250
83425W        W55751  36.902  28.667  13.520
83426W        W55752   2.334   3.304   4.675
83427W        W55753  11.193  20.548   2.318
83428W        W55754  21.260  25.139   9.958
83429W        W55755  40.359  35.410   1.836
83430W        W55756  40.477  27.677  11.566
83431W        W55757  33.500  39.411  10.572
83432W        W55758  26.970  35.928   0.333
83433W        W55759  22.588  39.019  12.083
83434W        W55760  30.455  36.983   3.811
83435W        W55761  39.534  27.054  12.879
83436W        W55762   8.310  20.628  11.922
83437W        W55763  14.283  28.960   4.837
83438W        W55764  21.525  23.537   3.813
83439W        W55765  21.250   9.742  11.094
83440W        W55766  24.068  25.111  11.901
83441W        W55767  20.560   9.651   3.820
83442W        W55768   7.731  36.952   3.732
83443W        W55769  11.266   7.827  11.963
83444W        W55770  29.521  11.671  12.508
83445W        W55771  37.880  25.159   3.190
83446W        W55772  14.131   4.301  12.962
83447W        W55773  20.590  16.742   4.630
83448W        W55774  23.017  44.381   4.287
83449W        W55775  40.933  40.951  13.027
83450W        W55776  13.816  22.681   4.773
83451W        W55777   8.392  30.139   3.200
83452W        W55778  28.079  21.239  11.570
83453W        W55779  36.870  24.146  12.857
83454W        W55780  13.169  39.017  14.006
83455W        W55781  39.375  35.508   0.299
83456W        W55782   0.324  37.992  14.964
83457W        W55783  32.058  11.663  11.530
83458W        W55784  24.541  44.919  12.980
83459W        W55785  41.412  26.090  14.021
83460W        W55786  14.331   6.902  12.023
83461W        W55787   5.889   4.354  13.885
83462W        W55788  40.349   6.381  10.546
83463W        W55789  30.059   5.786   0.331
83464W        W55790   0.871  13.748  12.017
83465W        W55791  34.411  20.540  10.892
83466W        W55792  24.516  26.972  13.811
83467W        W55793  18.151   2.344   0.248
83468W        W55794  42.783   5.260  11.100
83469W        W55795  23.537  33.592  13.988
83470W        W55796  12.282  21.101   0.830
83471W        W55797  41.909  15.277   3.752
83472W        W55798  16.190  12.220  12.385
83473W        W55799  31.984  12.783   4.760
83474W        W55800  35.016  43.452  10.948
83475W        W55801  14.120  35.928   5.254
83476W        W55802  15.655  21.723  11.420
83477W        W55803  38.568   6.202  10.596
83478W        W55804  42.860  29.576   1.448
83479W        W55805  30.006  28.052   2.780
83480W        W55806  17.181   1.330   3.147
83481W        W55807   1.267  11.729   5.784
83482W        W55808  26.574   5.308   2.373
83483W        W55809  41.041  38.334  14.367
83484W        W55810   6.794  16.274   2.752
83485W        W55811  18.702   6.204   0.745
83486W        W55812  14.236  13.164  12.014
83487W        W55813  24.178  44.903   3.250
83488W        W55814  37.347  30.476   2.858
83489W        W55815  28.667  32.430   3.770
83490W        W55816  40.481  40.484  12.834
83491W        W55817  27.507  24.155   1.345
83492W        W55818  13.301  13.301  14.009
83493W        W55819  12.297  31.096   3.709
83494W        W55820  12.629  38.828   2.712
83495W        W55821  24.572   6.247  13.339
83496W        W55822   1.332  24.124   1.419
83497W        W55823  17.638  42.357   0.474
83498W        W55824  34.957  24.156   1.270
83499W        W55825  19.122   0.867   0.302
83500W        W55826   7.319  23.508   4.820
83501W        W55827   3.251  38.822  10.489
83502W        W55828  40.310  18.726  13.988
83503W        W55829  40.406  38.006   4.303
83504W        W55830  14.251   5.810   4.208
83505W        W55831  26.699   7.741  12.549
83506W        W55832  15.801  10.294  10.979
83507W        W55833  14.111   4.725  12.839
83508W        W55834  12.349  30.072  14.799
83509W        W55835  41.868  34.884  13.315
83510W        W55836  39.541  35.525   4.122
83511W        W55837  31.986  17.080  11.604
83512W        W55838   1.378  38.833   2.233
83513W        W55839  36.026  34.510  11.404
83514W        W55840   1.914   8.363  13.354
83515W        W55841  43.354  17.109   3.179
83516W        W55842   0.755  20.209  14.487
83517W        W55843  17.177  29.542  14.776
83518W        W55844   6.889  20.647   3.782
83519W        W55845  23.150  21.635  13.791
83520W        W55846  25.535  42.963   4.624
83521W        W55847  39.828  24.069  14.883
83522W        W55848  13.837   9.730  14.510
83523W        W55849  16.168   1.894   1.926
83524W        W55850  41.909  14.248   9.972
83525W        W55851  40.410   7.767  11.580
83526W        W55852  40.501  25.591   4.736
83527W        W55853   3.459  18.289   4.743
83528W        W55854   9.659   3.840   2.408
83529W        W55855   9.318  29.465   3.164
83530W        W55856  40.925  20.656   3.241
83531W        W55857  32.457  17.575  13.544
83532W        W55858  22.544  33.022  13.849
83533W        W55859  36.427   8.881   2.833
83534W        W55860  32.433  44.789   3.719
83535W        W55861  32.463  29.138   1.714
83536W        W55862  31.939   2.762   1.259
83537W        W55863  17.693   6.202  10.891
83538W        W55864  21.717  22.145   4.222
83539W        W55865  16.223  44.800   4.704
83540W        W55866  35.978  24.497   4.777
83541W        W55867  40.827  29.566   0.956
83542W        W55868  39.369  28.441  12.495
83543W        W55869  33.615  18.172  10.087
83544W        W55870   0.411  14.339  12.563
83545W        W55871  21.728  42.458  11.374
83546W        W55872  26.095  21.721   4.319
83547W        W55873   6.305  42.434  10.630
83548W        W55874  15.610  30.929  10.570
83549W        W55875  35.938   9.873  12.368
83550W        W55876  37.905  15.641  12.990
83551W        W55877  23.521  29.963  13.825
83552W        W55878  15.623  11.270   4.223
83553W        W55879   8.195  24.706  12.845
83554W        W55880  24.663  15.237   2.788
83555W        W55881  28.061  17.600  10.890
83556W        W55882  10.297  33.479  12.490
83557W        W55883  34.046  25.132   4.230
83558W        W55884  28.661  13.676   0.291
83559W        W55885  43.359  16.091  14.872
83560W        W55886  27.001  28.501   5.687
83561W        W55887  21.747   9.789   4.711
83562W        W55888  26.978  17.559  14.320
83563W        W55889  34.065  10.634  14.885
83564W        W55890  43.476  39.059  10.920
83565W        W55891  23.572  34.587   2.413
83566W        W55892  38.518  34.589   0.936
83567W        W55893  14.101  32.939   1.904
83568W        W55894  29.039  15.631  11.451
83569W        W55895  20.676  35.892  12.499
83570W        W55896  39.455   9.727  13.049
83571W        W55897  15.168  38.887  10.494
83572W        W55898  40.460  22.663  11.512
83573W        W55899  24.558  15.214   5.180
83574W        W55900  43.808  20.551   2.764
83575W        W55901   6.229   9.371   2.819
83576W        W55902  11.241  20.238  14.027
83577W        W55903  10.170   1.732   0.415
83578W        W55904   1.336  39.031  11.864
83579W        W55905  26.669   3.853  13.319
83580W        W55906  20.044  21.234   4.691
83581W        W55907  36.433  18.721   4.598
83582W        W55908   2.815  24.072   2.234
83583W        W55909  36.859  15.687  10.499
83584W        W55910  31.419   2.721   1.783
83585W        W55911  19.744  29.583   1.400
83586W        W55912  40.470  34.602  13.937
83587W        W55913   2.228  18.789   1.213
83588W        W55914   3.232  18.616  10.914
83589W        W55915  27.559  43.428  11.069
83590W        W55916   5.241   8.780   2.231
83591W        W55917  34.434  32.633   0.727
83592W        W55918  30.531  13.340   1.913
83593W        W55919  26.979  32.978  10.471
83594W        W55920  12.280  22.200   4.614
83595W        W55921  28.452   1.904   4.256
83596W        W55922  10.646  27.954  12.924
83597W        W55923  40.895  42.916  12.933
83598W        W55924  39.313   3.231  11.048
83599W        W55925  34.072   0.947   1.696
83600W        W55926  10.831  35.420  12.912
83601W        W55927  21.072  27.448  14.805
83602W        W55928  16.671  28.106  13.014
83603W        W55929  28.658  44.797  13.883
83604W        W55930  25.050  38.562  12.564
83605W        W55931  16.251   1.779  13.956
83606W        W55932  31.502  28.067  13.890
83607W        W55933  33.072  30.652  14.486
83608W        W55934  13.778  15.220  12.965
83609W        W55935  22.204  28.556   3.154
83610W        W55936  40.518   8.753   4.745
83611W        W55937   9.200  42.950  13.843
83612W        W55938  19.644  23.018  14.776
83613W        W55939  13.316  32.510  14.996
83614W        W55940  42.404   3.787   3.266
83615W        W55941  23.212  28.968   4.627
83616W        W55942  18.272   7.403   0.317
83617W        W55943  44.971   0.487  10.474
83618W        W55944  14.163  42.810   2.748
83619W        W55945  29.946  24.121  14.312
83620W        W55946  30.580  39.933  14.782
83621W        W55947  38.851  19.583  11.102
83622W        W55948  28.516  18.244   0.751
83623W        W55949  25.998  31.951   0.314
83624W        W55950  26.534   8.790   3.259
83625W        W55951  29.505  35.012   0.729
83626W        W55952  36.569  24.570  11.023
83627W        W55953  23.162   9.290  14.458
83628W        W55954  33.567  24.553   1.370
83629W        W55955  15.625   2.846   0.280
83630W        W55956  34.900  13.693  13.032
83631W        W55957  36.591  16.315  10.415
83632W        W55958  16.766  28.602  11.549
83633W        W55959  44.911   5.782   2.797
83634W        W55960  35.028  27.091  14.389
83635W        W55961   4.898  27.975   1.725
83636W        W55962  17.700   9.223   0.738
83637W        W55963  37.401  21.057   0.381
83638W        W55964   0.431  31.499  12.558
83639W        W55965  43.316  18.060   0.887
83640W        W55966  41.296   0.959   4.126
83641W        W55967   3.806  24.554   0.810
83642W        W55968  37.033  29.094  10.611
83643W        W55969  28.490  31.611   0.409
83644W        W55970  34.599  24.511  10.434
83645W        W55971   7.765   9.686  13.378
83646W        W55972  18.236  40.016  13.862
83647W        W55973  25.193  30.430  14.921
83648W        W55974  24.057  38.899   3.180
83649W        W55975   7.771  18.551  14.776
83650W        W55976  35.885   8.380   4.678
83651W        W55977  34.982  24.507  11.122
83652W        W55978  35.860  42.350   1.214
83653W        W55979  39.890  16.161   0.304
83654W        W55980   6.708  40.823   2.779
83655W        W55981  17.157  13.147  10.408
83656W        W55982   9.652  37.404  11.907
83657W        W55983  28.622  30.993   1.230
83658W        W55984   3.860  28.557   0.388
83659W        W55985  11.746  32.501   1.741
83660W        W55986   5.764  40.310  14.841
83661W        W55987  17.763  22.632   1.266
83662W        W55988  34.109   5.899  14.853
83663W        W55989  14.278  16.258  13.447
83664W        W55990  38.928  22.039   1.445
83665W        W55991  37.923  18.061  14.395
83666W        W55992  10.222  42.807  13.904
83667W        W55993  29.113  12.753  13.844
83668W        W55994  43.793  38.862   4.171
83669W        W55995   0.476  35.361   1.836
83670W        W55996  10.856  39.043   0.481
83671W        W55997  40.045   6.827   1.709
83672W        W55998  43.764  11.684  12.520
83673W        W55999  35.082   2.829  14.846
83674W        W56000   7.737  29.977   1.321
83675W        W56001  42.800  34.910  13.482
83676W        W56002  39.414  14.607  11.501
83677W        W56003  14.782   6.861   3.863
83678W        W56004  19.645  23.542   4.772
83679W        W56005  18.573   7.379   4.675
83680W        W56006  33.094   8.813  11.929
83681W        W56007  17.622  20.584  10.450
83682W        W56008  40.477  26.547   2.298
83683W        W56009   8.765  42.476  10.458
83684W        W56010  29.440   9.244   3.802
83685W        W56011  38.397  30.974   2.414
83686W        W56012  26.995  31.550  12.547
83687W        W56013  15.697   8.808   1.252
83688W        W56014   5.712   9.705  12.386
83689W        W56015   6.389  21.656   2.666
83690W        W56016  10.822   9.239  11.111
83691W        W56017   1.400  43.860   4.676
83692W        W56018  35.491  27.496  13.024
83693W        W56019  24.551  12.167   0.821
83694W        W56020  33.387  10.197   4.218
83695W        W56021  40.382   8.831  10.014
83696W        W56022   2.751  12.723  12.395
83697W        W56023  19.263   4.330   4.302
83698W        W56024  38.325  23.147   4.654
83699W        W56025  28.555  24.627   0.788
83700W        W56026  44.392   8.283  14.344
83701W        W56027  38.434  22.662  10.420
83702W        W56028  30.126   0.490  14.383
83703W        W56029  17.586  12.697  13.032
83704W        W56030  43.300  22.682  14.464
83705W        W56031  37.079   7.697  14.426
83706W        W56032   5.886   3.260   0.858
83707W        W56033  10.215  32.069  13.515
83708W        W56034  36.904   2.756  12.538
83709W        W56035   6.685  19.590  11.929
83710W        W56036  16.697  29.042   0.455
83711W        W56037  10.243  20.119  12.879
83712W        W56038  19.744  26.122  13.795
83713W        W56039   4.892  43.290   4.280
83714W        W56040  41.021  12.774  11.039
83715W        W56041  26.477  22.526   3.169
83716W        W56042  13.276  17.656  11.065
83717W        W56043  24.202   1.968  13.344
83718W        W56044  44.987  38.034  14.335
83719W        W56045  11.639  13.734  11.856
83720W        W56046  17.124   3.295  10.920
83721W        W56047  11.184  11.156   1.788
83722W        W56048  17.727  16.255  14.787
83723W        W56049  39.408  22.243  12.398
83724W        W56050   7.363  44.789  13.450
83725W        W56051   3.716  21.019   4.260
83726W        W56052   1.314  29.993   0.917
83727W        W56053  38.886  30.005   4.269
83728W        W56054  16.621  21.695   3.186
83729W        W56055  44.417  35.024  14.907
83730W        W56056  41.810  37.491  14.790
83731W        W56057  22.249  41.023  13.863
83732W        W56058  31.567  21.603   1.243
83733W        W56059  34.972  18.760   3.710
83734W        W56060  24.020  30.066   1.252
83735W        W56061  24.100  26.000  13.904
83736W        W56062  35.975  35.083   0.442
83737W        W56063  16.072  16.130  13.389
83738W        W56064  11.187  41.367  12.532
83739W        W56065   6.421   6.298  11.118
83740W        W56066   7.701  39.370   0.466
83741W        W56067  16.156  19.134  14.369
83742W        W56068  18.730  30.429   0.848
83743W        W56069  35.524   9.649   3.777
83744W        W56070  24.142  19.756  10.056
83745W        W56071   5.750   2.860  10.959
83746W        W56072   0.860   4.225   2.824
83747W        W56073   4.776  39.364  14.318
83748W        W56074   6.415  11.332  11.022
83749W        W56075  26.097   8.264  10.503
83750W        W56076  40.461  14.259   0.384
83751W        W56077  25.135  39.935   4.181
83752W        W56078   3.375  21.751   3.316
83753W        W56079   1.858  38.374   2.715
83754W        W56080  10.221  42.968   2.888
83755W        W56081  32.000  19.605  13.513
83756W        W56082  41.397  18.758  11.873
83757W        W56083  27.615  10.249  11.392
83758W        W56084  28.491  29.991  10.551
83759W        W56085  20.260  41.998   2.860
83760W        W56086  32.554  40.433  11.931
83761W        W56087  37.453  10.787  12.922
83762W        W56088   7.720   4.732   5.157
83763W        W56089  41.488  34.521   1.843
83764W        W56090  42.848  13.755  10.605
83765W        W56091  17.800  25.079   2.199
83766W        W56092   0.868  36.517   3.642
83767W        W56093   3.248  30.084   2.189
83768W        W56094  21.229   5.703  10.045
83769W        W56095  24.049  12.278   2.812
83770W        W56096  43.773  27.047  12.989
83771W        W56097  38.853  33.062   2.185
83772W        W56098  22.031  12.843  11.601
83773W        W56099  15.233  25.655  12.832
83774W        W56100  25.056  21.558   4.662
83775W        W56101  26.516   8.397   2.403
83776W        W56102   1.840  36.464   4.834
83777W        W56103  38.344  31.543   2.324
83778W        W56104   3.770   8.377  13.471
83779W        W56105  43.399   5.797   3.301
83780W        W56106  43.307  24.655   4.134
83781W        W56107  22.114  23.573   3.657
83782W        W56108   5.894   0.971  12.433
83783W        W56109   8.734  23.721   4.349
83784W        W56110   7.738  39.331   1.429
83785W        W56111  38.981  33.559   2.893
83786W        W56112  13.280  40.390   3.661
83787W        W56113  25.675  33.611   4.151
83788W        W56114  19.742  23.049   3.306
83789W        W56115  11.225  20.082   1.911
83790W        W56116  40.944  38.395  10.943
83791W        W56117  10.164  40.956   4.627
83792W        W56118   4.869  34.397   0.866
83793W        W56119  35.919  30.462  11.912
83794W        W56120  38.858  18.685  10.513
83795W        W56121  28.113  22.642  14.021
83796W        W56122   1.355  25.660  10.407
83797W        W56123   0.919  21.653  11.553
83798W        W56124  11.779  10.278  14.959
83799W        W56125  19.778  10.787   0.288
83800W        W56126  19.697  27.502  14.880
83801W        W56127   9.176  23.023   2.419
83802W        W56128   3.769  22.649   3.340
83803W        W56129   2.762  10.702  12.380
83804W        W56130  15.196   4.740  13.004
83805W        W56131  26.186   4.754  14.999
83806W        W56132  28.624  42.521   0.916
83807W        W56133  26.475   2.411  14.012
83808W        W56134  39.428   5.849   2.797
83809W        W56135  20.149  20.585  11.077
83810W        W56136   0.324  30.931  13.323
83811W        W56137  28.978  21.029   4.799
83812W        W56138  29.161  35.417  13.418
83813W        W56139   0.333  35.893  11.971
83814W        W56140   2.291  34.971  12.849
83815W        W56141  13.108  12.225   4.754
83816W        W56142  30.052  23.241  10.539
83817W        W56143  29.009  25.642   0.274
83818W        W56144   0.790   3.716   0.839
83819W        W56145  22.522  33.527   0.287
83820W        W56146  30.083  43.863   2.728
83821W        W56147  17.186   3.892  13.979
83822W        W56148  27.541  17.744  14.481
83823W        W56149  24.715  34.886  14.451
83824W        W56150  23.098  14.729  12.407
83825W        W56151  13.318  37.902  14.415
83826W        W56152  40.026  10.316   2.885
83827W        W56153  44.502  12.722   0.732
83828W        W56154   1.742   9.790  12.039
83829W        W56155  30.649  28.652  12.882
83830W        W56156   3.244  30.497  12.867
83831W        W56157   3.804  10.689  13.989
83832W        W56158  29.643  22.654  10.515
83833W        W56159   2.818   3.312  10.921
83834W        W56160   0.445  24.056  13.829
83835W        W56161  24.493  16.671   1.709
83836W        W56162  21.057  22.660   0.277
83837W        W56163  33.053  26.031  14.498
83838W        W56164   9.360   2.446  11.084
83839W        W56165  23.110  41.022   9.545
83840W        W56166  11.682   5.753  11.610
83841W        W56167  15.689   0.968   2.667
83842W        W56168  20.192   1.843  11.535
83843W        W56169  34.504  14.113  11.477
83844W        W56170  12.743  30.125   2.205
83845W        W56171   6.894  19.214  14.397
83846W        W56172  18.187  15.695  12.025
83847W        W56173   4.445   7.895   4.622
83848W        W56174  23.604   2.751   1.906
83849W        W56175  21.625  14.802   0.792
83850W        W56176  10.685  33.534  11.971
83851W        W56177  12.197  10.143  11.512
83852W        W56178  42.410  42.783  12.403
83853W        W56179  12.313   3.898  11.075
83854W        W56180  15.145  40.309  10.527
83855W        W56181  36.880   6.888   0.766
83856W        W56182  38.551  41.466  14.019
83857W        W56183   7.418  23.109  14.953
83858W        W56184  18.122  19.126   3.680
83859W        W56185  36.863  36.884   1.814
83860W        W56186  10.211   3.259  10.505
83861W        W56187  32.076  41.484   1.877
83862W        W56188   0.376  23.643  14.391
83863W        W56189   5.387  22.108  13.516
83864W        W56190  18.551  15.770  10.599
83865W        W56191  17.116  33.492   3.177
83866W        W56192  14.755   6.746  11.510
83867W        W56193  38.066  12.143   4.656
83868W        W56194   9.858  17.737  11.050
83869W        W56195  20.061  28.049   0.481
83870W        W56196   3.259   4.253  14.940
83871W        W56197   6.773  28.645  14.313
83872W        W56198  19.201  13.229  11.056
83873W        W56199  38.986  37.086   2.707
83874W        W56200  11.140  10.731   4.820
83875W        W56201  21.167  43.381  11.542
83876W        W56202  43.444   7.173   0.847
83877W        W56203  20.689  32.051   2.344
83878W        W56204  15.638  42.523   1.882
83879W        W56205  32.438   3.325   4.611
83880W        W56206   9.760  26.503   1.757
83881W        W56207   7.353  38.862   0.785
83882W        W56208  20.524  24.061  12.891
83883W        W56209  12.639  36.418   2.178
83884W        W56210  16.773  13.226  12.534
83885W        W56211  15.605  29.066  12.064
83886W        W56212  15.200  24.721   4.667
83887W        W56213  21.545   0.859  13.412
83888W        W56214  14.143   7.680  12.873
83889W        W56215  29.607   1.787   3.366
83890W        W56216  44.325  39.015   4.718
83891W        W56217  42.385  11.856  11.525
83892W        W56218  40.959  33.527   4.613
83893W        W56219  15.242  35.411   0.810
83894W        W56220   3.454  15.095  10.616
83895W        W56221  20.161  34.092  10.514
83896W        W56222   4.259  15.728  14.472
83897W        W56223  31.414  37.978  11.459
83898W        W56224  27.462  44.312   3.313
83899W        W56225  13.155   2.809   2.365
83900W        W56226  17.732  44.358   3.194
83901W        W56227  13.263  31.123  13.380
83902W        W56228  14.102   3.723  12.580
83903W        W56229  41.377  11.859  11.582
83904W        W56230  27.617  12.187  12.507
83905W        W56231  34.042  24.014   1.379
83906W        W56232  38.341   8.334   4.787
83907W        W56233  36.378  28.024  11.393
83908W        W56234  38.363  17.644   1.726
83909W        W56235  32.448  41.438   4.193
83910W        W56236  39.514   4.923  13.371
83911W        W56237  24.649  43.911  11.950
83912W        W56238  16.215  12.744   5.121
83913W        W56239  41.418   5.392   0.806
83914W        W56240  21.512  31.502   2.339
83915W        W56241  42.346   8.173   0.760
83916W        W56242   0.451  24.225  12.826
83917W        W56243  28.573  43.789   2.322
83918W        W56244  16.609  35.951   1.905
83919W        W56245  42.296  14.726   3.303
83920W        W56246  12.275  28.602   3.358
83921W        W56247  28.941  44.470  14.799
83922W        W56248  38.512   1.968  12.500
83923W        W56249  19.187  16.153   1.844
83924W        W56250  26.542  29.063   1.324
83925W        W56251  23.238  27.026   0.357
83926W        W56252   1.843  31.433   1.217
83927W        W56253   1.852  21.085  11.572
83928W        W56254  18.614  11.161  12.358
83929W        W56255   6.861   4.415   0.329
83930W        W56256   0.857   7.839   4.676
83931W        W56257  43.317  19.776   3.206
83932W        W56258  17.619   1.846  11.581
83933W        W56259  44.287   5.729  14.480
83934W        W56260  20.595  16.139   2.229
83935W        W56261  36.376   1.945   2.354
83936W        W56262  40.009  29.937  10.893
83937W        W56263  39.544  17.726  12.549
83938W        W56264  35.988   5.366  14.319
83939W        W56265  24.051  10.139   0.332
83940W        W56266  15.147  40.319  13.820
83941W        W56267  21.622  22.663  14.510
83942W        W56268  17.272  26.094  14.417
83943W        W56269  33.621  39.989   2.902
83944W        W56270  37.065  37.869  10.618
83945W        W56271  19.099   6.323  13.828
83946W        W56272  16.796  35.935  13.379
83947W        W56273  26.099  18.745   0.464
83948W        W56274  34.983  23.231  10.448
83949W        W56275  29.977  21.737  10.493
83950W        W56276   1.439   1.316  14.473
83951W        W56277  42.466  26.646  10.433
83952W        W56278   2.357   5.421   5.579
83953W        W56279  40.355  14.827   1.340
83954W        W56280  16.109  18.624  14.008
83955W        W56281  13.779   3.869  11.546
83956W        W56282  44.384  15.244   4.221
83957W        W56283   6.248   6.252   1.712
83958W        W56284  16.273  12.825   3.652
83959W        W56285  25.042   0.315  12.913
83960W        W56286  32.024  15.203  13.389
83961W        W56287  20.693   2.379   0.462
83962W        W56288  14.600   7.714   3.228
83963W        W56289   8.738  24.131   0.851
83964W        W56290  11.145  41.321   0.454
83965W        W56291  30.926  17.587   2.244
83966W        W56292  24.049   8.369  10.543
83967W        W56293  36.855  30.620  12.557
83968W        W56294  25.663  10.299  11.486
83969W        W56295  42.826  20.259   2.704
83970W        W56296  29.939   4.745   2.293
83971W        W56297  13.174  16.282  10.557
83972W        W56298  15.635  33.979   4.602
83973W        W56299  11.865  14.603   1.218
83974W        W56300   0.416  21.560  14.349
83975W        W56301  30.157  31.509   0.862
83976W        W56302  22.580   9.309  12.053
83977W        W56303  44.431  10.703  10.546
83978W        W56304  42.810  24.201   4.691
83979W        W56305  37.036  35.045  11.953
83980W        W56306  33.036   2.795  11.508
83981W        W56307  38.391  42.005  12.379
83982W        W56308  29.152  17.104   3.639
83983W        W56309  13.171  34.608   2.750
83984W        W56310  19.744  24.986   1.708
83985W        W56311  11.133  12.694   3.690
83986W        W56312   3.944   0.746   3.825
83987W        W56313  22.156  13.705   1.298
83988W        W56314  41.001   6.335   0.271
83989W        W56315  16.575  15.287   1.412
83990W        W56316  37.001  27.497   0.470
83991W        W56317  33.923  15.205  11.572
83992W        W56318   7.417  16.788  11.451
83993W        W56319  14.604   9.372  10.489
83994W        W56320  33.565  23.586  13.445
83995W        W56321  38.339   6.882  12.007
83996W        W56322  13.791  27.452   1.874
83997W        W56323  26.530  34.594   2.413
83998W        W56324  40.477  14.801   3.310
83999W        W56325   7.403  34.924  14.005
84000W        W56326   0.796  41.395  14.032
84001W        W56327   9.263  34.018  14.799
84002W        W56328  13.825   4.804  10.943
84003W        W56329  26.550  34.894   1.226
84004W        W56330  32.453  20.680   2.752
84005W        W56331  40.437  11.802  14.450
84006W        W56332   2.230   3.306   2.902
84007W        W56333  17.241  23.102  11.401
84008W        W56334  10.794  30.564  11.053
84009W        W56335  25.505  13.344   1.216
84010W        W56336  23.711  16.637  12.836
84011W        W56337  44.356  21.727   1.881
84012W        W56338  21.139  12.340   2.840
84013W        W56339  36.886  29.100  13.888
84014W        W56340   5.365  15.257   2.727
84015W        W56341  11.221  43.371   2.341
84016W        W56342   2.888  27.661   3.702
84017W        W56343  13.119  38.469   0.832
84018W        W56344  28.681  24.022  11.027
84019W        W56345  43.394  28.626   0.398
84020W        W56346  18.759  31.952   4.816
84021W        W56347  12.229  33.557  14.972
84022W        W56348  31.506  33.559   3.201
84023W        W56349  25.644   3.714  13.959
84024W        W56350   0.390   8.803   4.120
84025W        W56351   6.253  25.209   2.412
84026W        W56352   7.746  17.086   0.953
84027W        W56353  32.063   1.463  13.310
84028W        W56354  17.060  39.874   1.282
84029W        W56355  21.040  14.297  11.094
84030W        W56356  11.331   3.441   3.837
84031W        W56357  14.591  16.110   2.733
84032W        W56358  13.793  42.971   3.255
84033W        W56359  39.350  12.781  11.562
84034W        W56360  28.000  31.523  14.347
84035W        W56361  33.980   8.334  11.053
84036W        W56362   0.381   0.389   1.709
84037W        W56363   8.822  15.663  11.005
84038W        W56364  41.495   7.198   0.410
84039W        W56365  24.080  44.364   2.760
84040W        W56366   4.443  21.747   0.270
84041W        W56367  25.037   5.273  11.506
84042W        W56368  22.149  39.977  14.364
84043W        W56369   1.969  23.987   5.308
84044W        W56370  37.440  30.073  11.559
84045W        W56371  28.437  40.042  14.945
84046W        W56372   3.829  26.090   3.813
84047W        W56373  20.705   7.386  12.553
84048W        W56374  20.176  20.210  13.481
84049W        W56375  42.302  33.007   2.694
84050W        W56376   5.327  44.912  10.456
84051W        W56377  24.649  14.758   2.212
84052W        W56378  19.739  40.425  12.067
84053W        W56379  31.003   2.339  13.823
84054W        W56380  18.574  25.470  10.415
84055W        W56381  18.681  39.019  10.913
84056W        W56382  17.634  38.995   2.741
84057W        W56383   6.311  11.344  13.942
84058W        W56384   4.359  10.702  13.885
84059W        W56385  34.075  36.991   0.370
84060W        W56386  37.035  26.049  12.385
84061W        W56387   7.812  17.092   0.316
84062W        W56388   7.376   0.381   1.754
84063W        W56389  24.522  38.418   1.871
84064W        W56390  24.537   2.849  14.422
84065W        W56391  39.479  25.081  13.961
84066W        W56392  31.982  44.406   4.269
84067W        W56393   0.890  25.997   0.910
84068W        W56394   6.892  12.818  10.455
84069W        W56395   6.717  35.516   2.319
84070W        W56396  38.973  15.735   1.248
84071W        W56397   3.256  31.080   4.608
84072W        W56398  34.517   8.866   1.808
84073W        W56399   2.442  16.691  12.355
84074W        W56400   8.173   1.877   3.204
84075W        W56401  18.631  35.891  10.119
84076W        W56402  44.993  32.014   5.100
84077W        W56403  17.617  12.637   1.324
84078W        W56404  33.554  42.287   2.864
84079W        W56405   3.432  43.338  13.056
84080W        W56406  38.472  40.937   0.846
84081W        W56407  42.792   4.311   4.162
84082W        W56408  42.827  27.963  10.459
84083W        W56409  40.451  14.325   2.271
84084W        W56410  11.663  13.236  11.992
84085W        W56411  22.584  35.390  11.910
84086W        W56412   1.901  10.249  14.802
84087W        W56413  34.874  14.759  11.581
84088W        W56414  30.459  39.975  11.974
84089W        W56415   6.359   5.223   2.673
84090W        W56416  17.627  18.617   0.343
84091W        W56417   9.796  39.443  12.987
84092W        W56418  28.933  35.440   1.327
84093W        W56419  14.245  14.159  14.022
84094W        W56420  41.790  17.721   2.213
84095W        W56421   2.829  33.526   4.628
84096W        W56422  19.155  34.093  14.857
84097W        W56423   1.288  37.566  11.008
84098W        W56424  28.660   6.246   0.756
84099W        W56425  29.528  44.383   1.810
84100W        W56426  20.109  15.156   2.820
84101W        W56427  39.846  29.565  12.456
84102W        W56428  18.606  44.316  14.297
84103W        W56429   1.825  30.047  12.014
84104W        W56430  26.009  22.117  13.446
84105W        W56431  27.509  13.310   2.260
84106W        W56432  17.156   7.716   3.639
84107W        W56433  17.576   5.827  10.591
84108W        W56434  28.537  41.979  12.427
84109W        W56435  37.939   6.811  11.588
84110W        W56436  19.659  31.594   1.886
84111W        W56437  11.246  26.644   5.110
84112W        W56438   9.349  33.545   0.777
84113W        W56439  41.316  10.182  13.983
84114W        W56440  15.618  40.459  10.557
84115W        W56441  14.742  30.007  14.383
84116W        W56442   2.752   9.794   1.384
84117W        W56443  31.130  20.033  10.993
84118W        W56444  20.082   9.154  12.566
84119W        W56445  23.088   4.210  12.475
84120W        W56446  20.703  20.097   3.639
84121W        W56447  29.108  31.074  14.909
84122W        W56448  35.576  24.584  14.467
84123W        W56449  10.798  13.137  13.407
84124W        W56450  30.159  25.479   1.356
84125W        W56451  31.452  28.090  10.966
84126W        W56452  17.703   3.368   4.664
84127W        W56453  42.964  30.540   3.776
84128W        W56454  29.489  42.811  14.362
84129W        W56455  28.594  38.425  12.013
84130W        W56456  40.045  28.034   0.939
84131W        W56457   7.347  37.452   4.269
84132W        W56458  42.802  15.123  12.068
84133W        W56459   8.730  14.147   9.996
84134W        W56460  29.669  13.681  10.938
84135W        W56461  35.954  34.066   1.914
84136W        W56462  25.212  30.134  12.066
84137W        W56463  27.610   9.732   2.184
84138W        W56464  39.878  16.642  11.110
84139W        W56465  10.294  28.476  14.994
84140W        W56466  37.382  38.505  14.956
84141W        W56467   1.352  17.290   2.373
84142W        W56468  40.544  35.012  14.782
84143W        W56469  31.401  29.616  13.916
84144W        W56470  14.162   3.920  13.947
84145W        W56471  22.520  35.903   2.709
84146W        W56472   5.429   8.164  13.411
84147W        W56473  36.426  12.163   4.148
84148W        W56474  25.150  24.645  11.043
84149W        W56475   5.241  18.283  14.824
84150W        W56476   1.934   6.277  11.977
84151W        W56477  10.764   1.291  13.307
84152W        W56478  30.963  10.874   1.391
84153W        W56479  36.419  17.115   5.088
84154W        W56480   3.359  14.808  10.641
84155W        W56481   3.431  14.708  12.380
84156W        W56482  10.843   7.737  10.499
84157W        W56483  42.456  43.499  12.828
84158W        W56484  40.413  39.823  11.477
84159W        W56485   6.200  26.531   3.319
84160W        W56486  24.134  13.227  13.008
84161W        W56487  39.380  34.380  14.418
84162W        W56488  20.570   4.335   2.322
84163W        W56489  39.506  27.509   2.340
84164W        W56490  33.052   2.308  11.487
84165W        W56491  13.831  44.887   4.680
84166W        W56492  29.609   7.697  12.447
84167W        W56493  44.929  40.343   0.879
84168W        W56494  36.408  30.134  11.041
84169W        W56495  30.942  32.022   2.827
84170W        W56496  19.249  21.529  14.468
84171W        W56497  24.219  22.530  11.123
84172W        W56498   9.661  20.716  11.537
84173W        W56499   4.843  36.999   1.426
84174W        W56500  18.250  28.658   1.923
84175W        W56501  25.673  33.575  11.413
84176W        W56502  12.648  19.101  13.478
84177W        W56503  29.951   7.190   4.701
84178W        W56504  36.973   4.939   1.861
84179W        W56505   9.351  37.343   2.768
84180W        W56506  13.652   4.936  14.003
84181W        W56507   7.853  16.290  14.302
84182W        W56508  22.606   4.799   4.617
84183W        W56509  36.401   8.281   0.791
84184W        W56510  16.112  22.196  14.890
84185W        W56511  20.697  29.425   0.330
84186W        W56512   9.158  14.792  13.795
84187W        W56513  27.114   8.381  14.313
84188W        W56514  35.895  36.363  13.315
84189W        W56515  12.739   7.697  13.521
84190W        W56516  22.549  17.689   0.965
84191W        W56517  21.252  22.105  11.104
84192W        W56518  28.475  14.131   1.907
84193W        W56519  30.461  25.140   3.284
84194W        W56520  39.501  25.005  11.929
84195W        W56521  43.943  35.031   2.835
84196W        W56522  43.990  32.619   3.222
84197W        W56523   5.917  25.164  14.927
84198W        W56524  33.085  27.490  12.850
84199W        W56525   3.376  35.581  12.902
84200W        W56526  20.123  37.986  14.852
84201W        W56527  17.212   1.913   1.871
84202W        W56528  29.145  38.496  12.875
84203W        W56529  11.304  28.593  12.410
84204W        W56530  33.030   9.659  13.908
84205W        W56531   6.302   3.812  12.410
84206W        W56532  34.602  43.356   2.419
84207W        W56533  16.210  43.873  11.948
84208W        W56534  20.109  20.262  11.543
84209W        W56535  16.165   7.236   4.777
84210W        W56536  37.520  10.751   4.761
84211W        W56537  29.023  19.660  14.396
84212W        W56538  11.205   9.160  11.468
84213W        W56539  42.803  25.633   2.692
84214W        W56540  17.204   1.261  14.951
84215W        W56541  19.256  13.650   0.305
84216W        W56542   2.368   5.829   0.405
84217W        W56543  23.571  41.015   3.308
84218W        W56544  42.879   2.957   1.312
84219W        W56545  38.875  12.781  11.912
84220W        W56546  17.779  43.900  11.501
84221W        W56547  41.895  36.984   4.231
84222W        W56548  10.655  26.490  10.977
84223W        W56549  13.624   5.786  11.881
84224W        W56550  32.922   7.864   0.248
84225W        W56551  37.024   1.337   1.840
84226W        W56552  41.516  16.700   0.917
84227W        W56553  38.427   0.849  13.796
84228W        W56554  13.218   8.747   1.881
84229W        W56555  24.658  38.894   5.766
84230W        W56556   0.339  28.063  11.612
84231W        W56557  37.915  19.716  12.523
84232W        W56558   0.967  23.704  12.062
84233W        W56559  30.019   4.218  11.579
84234W        W56560   2.937  38.053   4.136
84235W        W56561  12.354  36.540   9.647
84236W        W56562  26.612   4.802  11.479
84237W        W56563   1.933  28.539  12.433
84238W        W56564  30.065  18.650   0.967
84239W        W56565  28.059  40.981  10.909
84240W        W56566  20.107  38.920  11.083
84241W        W56567  26.619  38.074   3.756
84242W        W56568  42.931  36.383   5.221
84243W        W56569   1.798  36.016  14.303
84244W        W56570  29.964  19.551  11.410
84245W        W56571  27.969  44.355  14.498
84246W        W56572   1.915   7.827   2.739
84247W        W56573  11.180  10.763   0.399
84248W        W56574   1.811   6.874   4.598
84249W        W56575  31.943  19.058  12.990
84250W        W56576  14.194  42.850   4.722
84251W        W56577  39.024  44.325  13.878
84252W        W56578  28.146   1.828  14.867
84253W        W56579  18.752   6.193  11.532
84254W        W56580  29.542  11.839   9.961
84255W        W56581  27.617  18.149   4.663
84256W        W56582  43.974  13.782   4.260
84257W        W56583  29.514  38.927   0.897
84258W        W56584   7.296   1.736  14.827
84259W        W56585   4.783   4.262  13.804
84260W        W56586  14.828  11.257   3.278
84261W        W56587  39.937  44.914   3.250
84262W        W56588  31.988  13.134   1.303
84263W        W56589  16.671  38.021   3.291
84264W        W56590  43.438  19.601   2.299
84265W        W56591  15.203  41.889   1.268
84266W        W56592  28.483   5.769   4.231
84267W        W56593  35.406  32.037   0.461
84268W        W56594  38.391  22.528   2.883
84269W        W56595  20.526   9.811   4.195
84270W        W56596  42.945   2.800  13.322
84271W        W56597  27.551   3.395   1.923
84272W        W56598  18.555  33.621  11.081
84273W        W56599  32.129  30.416  13.903
84274W        W56600   5.838  13.213   0.895
84275W        W56601  16.646  23.730   3.659
84276W        W56602  41.426  33.462   2.362
84277W        W56603  31.450  21.125   1.315
84278W        W56604  30.951  17.082   1.896
84279W        W56605  13.837  43.311  13.042
84280W        W56606   3.761  18.114   4.610
84281W        W56607  10.314  16.202   2.777
84282W        W56608  16.728  33.567  14.330
84283W        W56609   2.750  34.583   2.387
84284W        W56610  31.569  26.675  12.074
84285W        W56611   5.913  23.986   3.364
84286W        W56612  24.149   8.166  12.966
84287W        W56613  40.861  16.588  13.025
84288W        W56614   5.717   8.189   4.682
84289W        W56615  20.167  32.941   4.630
84290W        W56616  41.852   1.907   9.927
84291W        W56617   2.932  14.824   3.214
84292W        W56618   1.960   2.385   4.178
84293W        W56619  19.056  30.933   1.868
84294W        W56620  38.327  30.434   1.436
84295W        W56621  39.363   4.848   2.194
84296W        W56622   5.825  31.128  14.919
84297W        W56623  19.731  34.878  13.523
84298W        W56624  37.495   4.333   2.219
84299W        W56625  11.352  11.829  10.423
84300W        W56626   0.487  25.168   4.275
84301W        W56627  18.135  39.476  13.541
84302W        W56628  35.968  39.966   3.751
84303W        W56629  23.097  22.503  12.874
84304W        W56630   1.749  39.882  12.826
84305W        W56631  19.097  39.417  13.026
84306W        W56632  23.210  35.862   0.779
84307W        W56633   3.407  34.951   2.896
84308W        W56634   7.253  40.918  13.382
84309W        W56635  11.621   0.437  13.054
84310W        W56636  22.118   0.277   4.216
84311W        W56637  37.577  34.956  12.836
84312W        W56638  21.262  32.466   2.358
84313W        W56639  43.329  20.242   0.745
84314W        W56640  12.217  23.163  12.511
84315W        W56641   9.656  22.740  14.947
84316W        W56642   8.388  44.403  11.586
84317W        W56643  10.262  39.387  12.000
84318W        W56644  41.797  18.237  14.917
84319W        W56645  24.674  26.205   1.913
84320W        W56646  25.491  42.819   0.865
84321W        W56647  41.439  35.445  13.506
84322W        W56648  37.489  25.593  13.819
84323W        W56649  12.784   0.978  12.063
84324W        W56650  22.703  32.634  11.410
84325W        W56651  30.992  10.352   4.257
84326W        W56652   4.763   6.789   1.753
84327W        W56653   0.940  33.552  13.426
84328W        W56654  38.052  22.172  12.035
84329W        W56655   4.916  27.947  14.969
84330W        W56656  25.663   4.358  13.039
84331W        W56657   4.425  28.551  11.565
84332W        W56658  19.583  35.598   2.333
84333W        W56659  35.109  29.030  13.520
84334W        W56660  20.079  41.948   1.885
84335W        W56661  32.052  12.229   2.387
84336W        W56662   6.895  39.467  14.442
84337W        W56663  31.429   3.752  10.461
84338W        W56664  24.059  44.419   0.895
84339W        W56665   6.414  31.022   3.221
84340W        W56666   8.243  43.483   1.347
84341W        W56667  31.571   1.927  12.525
84342W        W56668   5.205  24.656   0.388
84343W        W56669  42.412  13.195  11.075
84344W        W56670  43.016   1.264   0.911
84345W        W56671  41.410  11.764   1.342
84346W        W56672  30.070  18.098   3.159
84347W        W56673  11.217  42.825   1.796
84348W        W56674  33.947   3.403   3.715
84349W        W56675  13.333  24.650  10.531
84350W        W56676   0.926  19.139  12.513
84351W        W56677   8.874  27.505   3.814
84352W        W56678  14.789  24.165  10.504
84353W        W56679  23.561  41.806   4.824
84354W        W56680   0.837  10.352  14.967
84355W        W56681  13.716  34.394   3.791
84356W        W56682  34.412  42.527   0.834
84357W        W56683  24.534  11.804   3.717
84358W        W56684  21.142  29.536   4.221
84359W        W56685  31.417  32.908   1.443
84360W        W56686  17.570   0.958  11.404
84361W        W56687  18.194  41.903  13.954
84362W        W56688  14.662  35.017  13.840
84363W        W56689  26.159  28.496  14.326
84364W        W56690  21.639  36.395  13.332
84365W        W56691   6.253  30.492  10.952
84366W        W56692  22.218  23.034   3.704
84367W        W56693   6.678   7.799   3.300
84368W        W56694  41.816  13.329   3.287
84369W        W56695  39.941   6.420  10.507
84370W        W56696  33.565  35.931  11.089
84371W        W56697  32.627   1.429   1.759
84372W        W56698  21.675   0.459  11.107
84373W        W56699  39.949  41.478  13.969
84374W        W56700  37.383   5.721   0.457
84375W        W56701  29.437   4.813   3.157
84376W        W56702  31.982  22.736  10.947
84377W        W56703  35.915   9.196   3.350
84378W        W56704  16.073  29.468  10.965
84379W        W56705  30.574   3.356  11.605
84380W        W56706  22.203   3.717  13.881
84381W        W56707   1.746  10.672   4.331
84382W        W56708  20.766  38.443   2.178
84383W        W56709  24.513  17.198  12.900
84384W        W56710  41.381  17.661   2.775
84385W        W56711  27.569  41.029  13.866
84386W        W56712  29.465  33.028  14.892
84387W        W56713  21.520  17.689   1.788
84388W        W56714  25.562  23.190   3.862
84389W        W56715  25.191  31.051   4.670
84390W        W56716   7.796  40.385  12.540
84391W        W56717  32.471  31.145  13.856
84392W        W56718  38.456  34.936  11.558
84393W        W56719  37.836  13.348   2.829
84394W        W56720  41.936   7.178   0.414
84395W        W56721  43.950  12.146   2.231
84396W        W56722  34.071  11.798  12.897
84397W        W56723  19.107  22.223   0.439
84398W        W56724   1.421   4.815  12.903
84399W        W56725  30.965  35.884  12.541
84400W        W56726  18.655  40.447   5.262
84401W        W56727  21.090  31.898   0.475
84402W        W56728  42.874  14.138  14.854
84403W        W56729  36.402  22.554   5.162
84404W        W56730  26.012  37.482  10.504
84405W        W56731   2.811  16.798  12.477
84406W        W56732   0.451  39.925   2.404
84407W        W56733  43.409  34.590  13.442
84408W        W56734  26.132  14.764   1.799
84409W        W56735  35.039  29.965   2.744
84410W        W56736  25.574  14.212  11.558
84411W        W56737  29.462  44.852   3.699
84412W        W56738  25.694  37.359   1.872
84413W        W56739  18.751  37.385  14.969
84414W        W56740  18.750  36.907  13.533
84415W        W56741   8.355  18.166  10.497
84416W        W56742  23.664  41.921   2.402
84417W        W56743  27.025  32.098   1.283
84418W        W56744   4.333   7.344  12.904
84419W        W56745  36.943  35.358  10.075
84420W        W56746  33.517  10.185   3.330
84421W        W56747  27.623   5.829   4.697
84422W        W56748  19.166  40.475   2.306
84423W        W56749  11.349  17.798   0.474
84424W        W56750   3.719  14.757   2.704
84425W        W56751  13.803  31.914  10.588
84426W        W56752   9.689   4.236   0.812
84427W        W56753  34.599  35.534   4.819
84428W        W56754  22.693  42.814  12.365
84429W        W56755  35.967  27.074   3.219
84430W        W56756  14.729   7.789   1.280
84431W        W56757  10.237  26.471  14.973
84432W        W56758  37.416  27.464   3.374
84433W        W56759  11.657   3.367  12.890
84434W        W56760   0.988  34.879  14.395
84435W        W56761  44.301  12.127  13.370
84436W        W56762  17.678  19.714  10.477
84437W        W56763   7.263  27.004  10.909
84438W        W56764  43.961  34.073  12.903
84439W        W56765  41.002  41.419   2.290
84440W        W56766  21.118   8.785   3.314
84441W        W56767  32.932  19.714   2.191
84442W        W56768  20.165  12.742   0.417
84443W        W56769   0.261  22.184   0.324
84444W        W56770  36.493  19.776  11.475
84445W        W56771  33.546  14.751  14.831
84446W        W56772  20.187  29.939   0.380
84447W        W56773  32.411   9.707  14.289
84448W        W56774   3.254  19.697  10.629
84449W        W56775  31.610  30.048  13.534
84450W        W56776   1.757  36.880   4.216
84451W        W56777  12.282  22.716   0.838
84452W        W56778  21.175   1.865  14.889
84453W        W56779  21.027  25.033  13.977
84454W        W56780   8.244  21.600   2.280
84455W        W56781  31.127   8.693   4.798
84456W        W56782  42.520  37.404  14.441
84457W        W56783   0.984  20.655  11.573
84458W        W56784  18.669  29.970   4.259
84459W        W56785  44.461   4.919   1.892
84460W        W56786  36.849  29.584  14.996
84461W        W56787  30.057  24.527  10.405
84462W        W56788  12.684   6.321   0.912
84463W        W56789   6.809   6.860   1.425
84464W        W56790  14.701  18.194  11.987
84465W        W56791  11.176  22.085   1.770
84466W        W56792  13.241   1.352   2.846
84467W        W56793   4.756  21.135  12.525
84468W        W56794  28.507  33.970   4.711
84469W        W56795  10.320   5.276  10.897
84470W        W56796  36.079  33.590   3.639
84471W        W56797  20.661  21.194   3.657
84472W        W56798  44.320  25.583   0.774
84473W        W56799  33.606  18.546  12.838
84474W        W56800  18.121  38.556   2.734
84475W        W56801   0.425  10.259  10.634
84476W        W56802  34.593  13.198   1.294
84477W        W56803  25.077  12.809   1.899
84478W        W56804  27.660   8.670  12.014
84479W        W56805   8.766   0.268   3.788
84480W        W56806  22.715   7.679  13.533
84481W        W56807  20.037   2.435  10.438
84482W        W56808  36.069  16.683  13.012
84483W        W56809   7.714  41.868  14.846
84484W        W56810  14.124   3.388   0.290
84485W        W56811  34.097   0.837  13.983
84486W        W56812   1.306   5.252   1.215
84487W        W56813  39.938  39.849  11.477
84488W        W56814  12.833   9.386   2.870
84489W        W56815  21.525  42.427   4.710
84490W        W56816  29.669  39.996   1.794
84491W        W56817  36.553  20.032  12.538
84492W        W56818  19.091  37.915   2.366
84493W        W56819  20.093  44.828  11.940
84494W        W56820  35.366  21.079  12.990
84495W        W56821  27.977  28.177  11.512
84496W        W56822  35.941  14.634  12.457
84497W        W56823  42.404   2.954  11.992
84498W        W56824  30.070  15.776   1.268
84499W        W56825   6.308  15.290  10.949
84500W        W56826  11.716  27.481   3.298
84501W        W56827   5.408  32.107  10.406
84502W        W56828   7.203  17.693   1.935
84503W        W56829  29.972  41.035   1.726
84504W        W56830  17.295  40.929  12.041
84505W        W56831  10.753   4.758  13.382
84506W        W56832  18.122   3.838   0.951
84507W        W56833   2.352  17.735   2.204
84508W        W56834  36.845  13.627   2.757
84509W        W56835  37.853  40.014  11.034
84510W        W56836   2.895  15.771   4.788
84511W        W56837  15.591  36.061  10.577
84512W        W56838   3.283   7.849   5.154
84513W        W56839  42.518  29.145   1.392
84514W        W56840  17.745  44.273   4.714
84515W        W56841   7.232   1.894  10.494
84516W        W56842  20.578  40.886   4.280
84517W        W56843  16.789   3.841  12.089
84518W        W56844  43.787  17.792   4.305
84519W        W56845  18.701  38.527   2.896
84520W        W56846  17.264  15.715   4.665
84521W        W56847  26.014  33.910  11.012
84522W        W56848  10.208  13.349  12.902
84523W        W56849  17.617  15.758  12.970
84524W        W56850  33.400   5.327   1.339
84525W        W56851  14.319   5.252  14.024
84526W        W56852  18.599  16.658   2.349
84527W        W56853  37.371   5.303  12.442
84528W        W56854  18.162   7.831   1.698
84529W        W56855  41.874  26.140   4.237
84530W        W56856  20.241  20.193   2.851
84531W        W56857  39.947   2.388   3.716
84532W        W56858  22.128   2.466  10.981
84533W        W56859  42.776  31.621  14.007
84534W        W56860  21.570  11.688   4.654
84535W        W56861  34.431  10.239   2.302
84536W        W56862  39.828  24.575   2.308
84537W        W56863  41.878   9.843   0.333
84538W        W56864  29.543  33.881  12.966
84539W        W56865  18.753  29.031  13.315
84540W        W56866  27.544   8.202  11.122
84541W        W56867  36.915  22.631  10.918
84542W        W56868   8.847  40.869   0.788
84543W        W56869  39.391  16.189   3.799
84544W        W56870  37.573  18.557   2.692
84545W        W56871   6.289   7.309   3.353
84546W        W56872   3.288   1.803   0.963
84547W        W56873   5.825   4.301  11.092
84548W        W56874  23.111  10.703   1.785
84549W        W56875  29.965  28.974   2.895
84550W        W56876   8.237  29.583   1.709
84551W        W56877  39.864  32.901  12.412
84552W        W56878  32.410  23.200  12.936
84553W        W56879  12.328  43.340  14.322
84554W        W56880  10.234  21.040   0.345
84555W        W56881   4.316  10.654  14.475
84556W        W56882  20.594  25.979  11.090
84557W        W56883   7.293  41.989  10.570
84558W        W56884   6.735  28.612  12.550
84559W        W56885  34.868  37.031  12.877
84560W        W56886  35.009  16.801   2.705
84561W        W56887  37.961  20.710   0.362
84562W        W56888  26.201  20.691  12.439
84563W        W56889   1.768  39.911  13.384
84564W        W56890  19.759  13.642   4.597
84565W        W56891  44.413  40.805  11.909
84566W        W56892  40.996  26.600   0.948
84567W        W56893   3.269   7.255   1.231
84568W        W56894  19.593  27.667   3.718
84569W        W56895  15.131  32.615  14.357
84570W        W56896  12.297  41.918  12.383
84571W        W56897  40.891   3.737  10.584
84572W        W56898   9.727  34.397   2.750
84573W        W56899  44.872  35.108   3.259
84574W        W56900  43.006   8.286  14.861
84575W        W56901   7.720   6.341   4.724
84576W        W56902  36.917  12.833   1.780
84577W        W56903  38.879  25.544   3.289
84578W        W56904   5.244  10.380  12.065
84579W        W56905  10.851   4.298  11.375
84580W        W56906  22.213  36.053   4.684
84581W        W56907  38.916  21.228   1.763
84582W        W56908  23.037  20.606  11.487
84583W        W56909  10.692  24.064   0.466
84584W        W56910  28.123  44.382   2.691
84585W        W56911  18.614  23.516   1.803
84586W        W56912  34.565  11.855  14.346
84587W        W56913  31.420   3.224  13.318
84588W        W56914  37.499   1.457  10.643
84589W        W56915  10.660  44.420  14.514
84590W        W56916   0.876  10.866  11.938
84591W        W56917  40.470  20.033  14.456
84592W        W56918  43.815  19.649  10.544
84593W        W56919  39.481  34.534   2.237
84594W        W56920  31.986  41.964  12.391
84595W        W56921  22.110  35.470   3.689
84596W        W56922   5.694   6.418   2.236
84597W        W56923  40.412  20.067   0.877
84598W        W56924  14.260  16.634  14.969
84599W        W56925  20.629  27.004   1.906
84600W        W56926  35.412  32.128  10.899
84601W        W56927  22.207  13.155  10.905
84602W        W56928  33.005  10.381   3.295
84603W        W56929  20.646  17.069   4.638
84604W        W56930   5.870  19.659   1.346
84605W        W56931  12.817   9.320  14.929
84606W        W56932   0.895  43.984   3.831
84607W        W56933   6.333   9.750   9.980
84608W        W56934  19.260  39.888   3.353
84609W        W56935  16.781  22.079   3.232
84610W        W56936  19.197  20.260  10.953
84611W        W56937  22.715   1.296  12.529
84612W        W56938  13.138  26.540   0.281
84613W        W56939   6.337  23.100   4.317
84614W        W56940   4.728   2.424   1.764
84615W        W56941  36.003   8.381   2.212
84616W        W56942  21.190  28.954   3.788
84617W        W56943  38.337  36.540   3.293
84618W        W56944   9.658  10.767  10.437
84619W        W56945  44.333  26.014   2.806
84620W        W56946  24.079   4.727   1.926
84621W        W56947   4.280  34.108   4.603
84622W        W56948  15.617  39.864  12.093
84623W        W56949   2.762  36.013   4.169
84624W        W56950   4.850  17.668  13.368
84625W        W56951  21.046   9.765  13.520
84626W        W56952  34.394  25.130  12.468
84627W        W56953   6.809  30.516   1.420
84628W        W56954   4.217  27.474   4.786
84629W        W56955  17.580  41.941  12.339
84630W        W56956  19.708  21.606   5.218
84631W        W56957  34.513  38.032   0.838
84632W        W56958  22.645   9.186  14.942
84633W        W56959  22.204   4.888   3.286
84634W        W56960  43.981   4.358  13.983
84635W        W56961  21.146  16.130   0.797
84636W        W56962  35.879  33.966   3.287
84637W        W56963  19.670  21.137   3.723
84638W        W56964  31.015  10.338  14.396
84639W        W56965  31.896   6.827  13.457
84640W        W56966   8.245   3.765  12.950
84641W        W56967   3.729  26.646  11.436
84642W        W56968   9.280  19.767   0.805
84643W        W56969   2.813   7.738   1.786
84644W        W56970   1.368  35.896  14.803
84645W        W56971  27.976  33.466  13.984
84646W        W56972  12.704  18.746   3.739
84647W        W56973  28.055  12.220  13.431
84648W        W56974  12.759  17.088  11.036
84649W        W56975  41.449  39.027   0.477
84650W        W56976  10.254  24.517  12.524
84651W        W56977  21.222   7.223  14.796
84652W        W56978   9.702  13.738  11.478
84653W        W56979  38.467  10.641  12.861
84654W        W56980   3.231  41.369   2.316
84655W        W56981   5.717   4.335  12.380
84656W        W56982  19.098   0.269  12.026
84657W        W56983  40.389  17.190   9.996
84658W        W56984  25.163  21.099   1.903
84659W        W56985  18.745   0.349  11.074
84660W        W56986  26.635  20.534  14.339
84661W        W56987   8.307  41.391   4.815
84662W        W56988  17.594  27.198   0.308
84663W        W56989   1.331   2.722  10.106
84664W        W56990  17.769  34.872  13.995
84665W        W56991  22.716  21.730  14.818
84666W        W56992  34.612   0.967  13.396
84667W        W56993   5.808  36.372   0.824
84668W        W56994  20.132  12.818  11.892
84669W        W56995   0.844  33.614  11.034
84670W        W56996  40.398   1.378   4.729
84671W        W56997  29.530  21.570  11.991
84672W        W56998   9.173  26.155  14.797
84673W        W56999  18.713  14.106  12.097
84674W        W57000  42.969   5.810  12.457
84675W        W57001  19.752   9.702   0.932
84676W        W57002  10.208  42.469  12.835
84677W        W57003  24.670  28.435  10.934
84678W        W57004   8.755  31.048  12.529
84679W        W57005  19.210  43.963   3.848
84680W        W57006  34.388  32.983   3.340
84681W        W57007   0.284  33.387   4.614
84682W        W57008  24.051  25.965  10.557
84683W        W57009  42.917  16.768  10.984
84684W        W57010  23.162  21.019  14.923
84685W        W57011  30.531  11.195   2.379
84686W        W57012  43.455  34.389   1.357
84687W        W57013   0.843  23.992   3.826
84688W        W57014   3.361  34.602   3.186
84689W        W57015  14.159  23.135  13.877
84690W        W57016  17.282  12.340  10.894
84691W        W57017  28.610  20.060   0.899
84692W        W57018  28.953  22.214   3.870
84693W        W57019   9.655  34.555   0.437
84694W        W57020   9.862  19.075   2.243
84695W        W57021  28.029  44.363   4.145
84696W        W57022  15.264  29.542  13.353
84697W        W57023  31.036  16.289  11.526
84698W        W57024  29.959  28.074   4.239
84699W        W57025  13.678  44.393  13.944
84700W        W57026  28.511  42.827   0.830
84701W        W57027   3.728   6.198   9.991
84702W        W57028  24.028   3.823  14.805
84703W        W57029  35.359   6.183  10.430
84704W        W57030  15.230  16.663  14.973
84705W        W57031  22.533  29.661   1.821
84706W        W57032   2.333  15.236   1.730
84707W        W57033   9.254  21.168   1.763
84708W        W57034  27.962  28.619   3.287
84709W        W57035  11.834  19.584   4.612
84710W        W57036  28.629   9.762  11.413
84711W        W57037  13.703  36.976  14.003
84712W        W57038  43.824  42.977   2.226
84713W        W57039  42.349  29.524  12.072
84714W        W57040  14.099  23.057   2.183
84715W        W57041   0.859  15.785   5.303
84716W        W57042   1.867  14.264   4.328
84717W        W57043   6.366  23.039   3.831
84718W        W57044  32.982  24.602   4.269
84719W        W57045  26.633  24.181  14.443
84720W        W57046  26.529   3.768  10.933
84721W        W57047   3.765  25.562   1.716
84722W        W57048  16.582   9.804  12.371
84723W        W57049  26.516  21.535  14.884
84724W        W57050  34.570  41.327   2.180
84725W        W57051   2.375  35.543  13.877
84726W        W57052  14.233  18.562   4.790
84727W        W57053  21.162  21.196   2.735
84728W        W57054  41.854   0.479   1.876
84729W        W57055  42.515  39.373  10.464
84730W        W57056  36.041  17.668   4.703
84731W        W57057  13.728  30.639  12.067
84732W        W57058  17.202  39.407  13.317
84733W        W57059  20.574  33.893   0.476
84734W        W57060  38.416  34.515   1.777
84735W        W57061  40.362  24.223   0.945
84736W        W57062   9.165  15.214   2.240
84737W        W57063   6.790  35.531  11.055
84738W        W57064  10.320  35.048   2.297
84739W        W57065   2.839   3.427  12.446
84740W        W57066   2.895  20.086  11.602
84741W        W57067  21.083  16.078  12.973
84742W        W57068  34.522  19.710   1.439
84743W        W57069   4.818  17.665   3.639
84744W        W57070  38.937  14.281  14.460
84745W        W57071  38.921   7.196  13.854
84746W        W57072   8.350  41.493  12.548
84747W        W57073  16.627  17.204  10.971
84748W        W57074  30.458  44.455   1.795
84749W        W57075  17.147   6.417  11.585
84750W        W57076  17.558  12.304   4.209
84751W        W57077  33.928  16.284   0.767
84752W        W57078  35.456   4.861   3.644
84753W        W57079   5.807  44.498   1.447
84754W        W57080   3.221   0.290   0.448
84755W        W57081  40.331   5.691  14.375
84756W        W57082  42.827  12.791  12.996
84757W        W57083  19.117  40.476  14.031
84758W        W57084  14.222  11.332   3.261
84759W        W57085  33.088  21.217   4.270
84760W        W57086  37.497  12.763   3.304
84761W        W57087  44.368  18.717   5.166
84762W        W57088  30.161  10.845   2.701
84763W        W57089  17.178  17.737   4.294
84764W        W57090   5.853  24.551  11.080
84765W        W57091  24.480  21.743  13.919
84766W        W57092  15.665   7.172   1.212
84767W        W57093  28.550  34.071   1.721
84768W        W57094   2.417  15.184  10.596
84769W        W57095  43.872  21.554   4.196
84770W        W57096  20.707  40.506   2.341
84771W        W57097  23.535   0.279   4.239
84772W        W57098  35.885   8.219  12.349
84773W        W57099  21.649   1.851   3.667
84774W        W57100   2.265  38.930   2.729
84775W        W57101  39.545   3.263   2.799
84776W        W57102  24.714  39.973   2.264
84777W        W57103  25.148  42.306  10.638
84778W        W57104   3.455  12.790   0.932
84779W        W57105  35.488  20.765   4.646
84780W        W57106  24.087  37.572  14.857
84781W        W57107  28.934   4.941   1.755
84782W        W57108  27.459   8.294   3.680
84783W        W57109  40.967  43.445   2.692
84784W        W57110  29.547  28.086   0.370
84785W        W57111   2.782  13.624  11.532
84786W        W57112  20.570  35.026  13.832
84787W        W57113   9.722  14.330  13.962
84788W        W57114  43.400  40.983   0.916
84789W        W57115  43.321   9.384   3.197
84790W        W57116  13.135  32.132   4.151
84791W        W57117  23.053   9.789   3.363
84792W        W57118  38.374   8.273  10.451
84793W        W57119  44.985   5.414   2.349
84794W        W57120  21.742   8.864   0.775
84795W        W57121  19.648  42.029   4.251
84796W        W57122  38.910  20.185   2.876
84797W        W57123  39.873  10.382  13.425
84798W        W57124  27.624  21.162   0.950
84799W        W57125  23.081  43.996   0.385
84800W        W57126  15.219  41.472   2.408
84801W        W57127   7.386  25.659   3.301
84802W        W57128   4.403  37.966   1.766
84803W        W57129   3.792  42.346   4.250
84804W        W57130  38.351   2.823   2.368
84805W        W57131  14.618  42.877   1.827
84806W        W57132  41.410  22.595  12.384
84807W        W57133   4.272  24.106  11.567
84808W        W57134  10.811  29.557  12.040
84809W        W57135   9.385  26.476  13.500
84810W        W57136  36.453  40.041   1.836
84811W        W57137  29.670  13.318  11.568
84812W        W57138  31.532  14.601   4.266
84813W        W57139  16.169  21.158  14.008
84814W        W57140  10.213  19.103   3.814
84815W        W57141  14.295  14.795  12.061
84816W        W57142   5.783  22.029  12.934
84817W        W57143  22.151  14.113   1.438
84818W        W57144  41.883  40.355  14.432
84819W        W57145   1.869   7.406  11.390
84820W        W57146  11.632  22.567   3.157
84821W        W57147  27.968  18.767   0.898
84822W        W57148  26.620  18.179   3.361
84823W        W57149  20.102  18.609   1.384
84824W        W57150  11.283   6.883   4.823
84825W        W57151   3.395  26.458  14.469
84826W        W57152  35.512  16.127  11.405
84827W        W57153  14.717  16.154   1.855
84828W        W57154  39.341  43.948  13.922
84829W        W57155   3.228  11.644   0.364
84830W        W57156  29.528  40.512   0.393
84831W        W57157   5.693  23.650   3.700
84832W        W57158  27.606  17.123   4.333
84833W        W57159   5.766   1.815  14.277
84834W        W57160  32.437  44.941  13.983
84835W        W57161  39.020  17.714  12.040
84836W        W57162  42.293  18.097   2.226
84837W        W57163  18.117   7.307   3.864
84838W        W57164  42.850  30.422   1.354
84839W        W57165  12.738  33.984  10.094
84840W        W57166  43.953  34.891  13.337
84841W        W57167  29.460  31.462  10.891
84842W        W57168  18.151  10.802  11.427
84843W        W57169  42.887  43.812  11.467
84844W        W57170  18.097  26.974  13.808
84845W        W57171   1.937   4.424   4.684
84846W        W57172  29.090  27.171   5.157
84847W        W57173  32.632   4.328  12.447
84848W        W57174   5.771  22.137  11.426
84849W        W57175  41.841  25.538  12.482
84850W        W57176  26.671  11.353   3.712
84851W        W57177  38.826  26.105  11.389
84852W        W57178   9.689  12.182   0.734
84853W        W57179  31.465  19.573   2.304
84854W        W57180  38.854  15.668  14.789
84855W        W57181  19.164  11.790   1.899
84856W        W57182  27.058  14.294   5.317
84857W        W57183  11.864   5.930  14.420
84858W        W57184   9.745   5.325   1.753
84859W        W57185   3.378  18.199  12.977
84860W        W57186  43.324  17.797  13.421
84861W        W57187  23.567  17.228   4.303
84862W        W57188  28.551  18.214  10.629
84863W        W57189  43.481  31.067  10.958
84864W        W57190   7.324  33.573  13.063
84865W        W57191  35.572  38.363   0.816
84866W        W57192  18.594  30.485  12.572
84867W        W57193   9.683   2.875  10.619
84868W        W57194   1.835  24.000  14.935
84869W        W57195  37.851  15.296   2.291
84870W        W57196  39.024   3.928  14.494
84871W        W57197  33.452   4.856   2.214
84872W        W57198   4.848  43.830  12.452
84873W        W57199   3.932  22.109   2.883
84874W        W57200  14.304  33.998   2.773
84875W        W57201  22.654  14.636   3.665
84876W        W57202  36.533  12.709   3.725
84877W        W57203  40.488  26.201   2.792
84878W        W57204   8.302   1.453   3.694
84879W        W57205   0.846  29.014   1.424
84880W        W57206  38.975  20.143  13.509
84881W        W57207  30.453  43.911  14.936
84882W        W57208  36.372  19.588  10.450
84883W        W57209  20.667  14.218   1.881
84884W        W57210  44.265  24.026  13.940
84885W        W57211  12.203  10.288   1.703
84886W        W57212   6.923  21.074  14.374
84887W        W57213   9.222  34.426  14.782
84888W        W57214   4.440  43.910   1.429
84889W        W57215  11.254  36.400  14.420
84890W        W57216  34.917   5.306  13.470
84891W        W57217   4.825   5.762   3.202
84892W        W57218  34.899   7.301   4.257
84893W        W57219  37.857  35.440   0.814
84894W        W57220  33.577  22.234   4.828
84895W        W57221  27.186  34.071  11.604
84896W        W57222  34.939  24.227  11.498
84897W        W57223  43.813  28.023   2.326
84898W        W57224  12.810  40.995   3.358
84899W        W57225   1.393  28.496  12.371
84900W        W57226   6.186   3.379   0.755
84901W        W57227  28.611   6.874   2.899
84902W        W57228   5.234  30.038   4.345
84903W        W57229  10.324   1.403   1.407
84904W        W57230   2.757  30.019   0.254
84905W        W57231  22.185  39.958  11.044
84906W        W57232  27.445  25.991   0.814
84907W        W57233   8.197  44.961  14.937
84908W        W57234  11.822  35.580   3.354
84909W        W57235  23.569  35.585  13.496
84910W        W57236  17.161  20.724   3.343
84911W        W57237  17.584   8.777   0.790
84912W        W57238  13.644  23.058   0.744
84913W        W57239  42.797  33.959   0.277
84914W        W57240  24.147  29.016   1.712
84915W        W57241  43.362   6.415  13.825
84916W        W57242  19.124  27.487  10.501
84917W        W57243  12.277  17.773   4.763
84918W        W57244  30.640   0.266  10.409
84919W        W57245   0.858  11.797   1.841
84920W        W57246  27.080  35.404   0.862
84921W        W57247  24.685  22.625   4.833
84922W        W57248  36.571  22.120   4.729
84923W        W57249  36.364  12.707  14.383
84924W        W57250  24.082   5.754   4.615
84925W        W57251   0.934  16.679  14.828
84926W        W57252  18.767  35.868   4.796
84927W        W57253  21.625  16.697   2.419
84928W        W57254  41.320  22.068   4.666
84929W        W57255  37.500  35.578  10.630
84930W        W57256  40.337  10.866   2.774
84931W        W57257  15.642   0.248  14.880
84932W        W57258  40.417  28.674   1.736
84933W        W57259  15.637  16.624  14.327
84934W        W57260   7.752  22.088   2.744
84935W        W57261  18.556  26.523   4.753
84936W        W57262  37.029  28.574  14.845
84937W        W57263  40.473  37.392  10.612
84938W        W57264  20.565  28.973   3.656
84939W        W57265   3.798  31.003   3.343
84940W        W57266  19.578  17.132   2.740
84941W        W57267  22.137   6.726  11.006
84942W        W57268  12.714  26.066  13.945
84943W        W57269  35.544   7.374  13.940
84944W        W57270  23.029  44.483  13.799
84945W        W57271  22.027  27.034   1.322
84946W        W57272  42.900   4.737  12.503
84947W        W57273  34.392  35.075   0.930
84948W        W57274  42.899   7.323   3.759
84949W        W57275  10.261  39.927   4.836
84950W        W57276  14.315  29.475   0.398
84951W        W57277  42.986  14.318  14.423
84952W        W57278  19.713  27.541  12.403
84953W        W57279   7.335  42.028   0.313
84954W        W57280  28.646  19.616  14.458
84955W        W57281  36.457  22.195   2.328
84956W        W57282   7.770   9.730  13.057
84957W        W57283   9.750   5.860   2.254
84958W        W57284  21.548  13.152   3.221
84959W        W57285  26.026  14.248  14.355
84960W        W57286   1.947  43.787  14.842
84961W        W57287  40.489  12.211  11.394
84962W        W57288   7.704   5.329  12.979
84963W        W57289  29.564  29.595   3.219
84964W        W57290  32.600  24.675  12.487
84965W        W57291  21.076  19.240  14.379
84966W        W57292  40.490  41.903  12.075
84967W        W57293  23.513  24.515  14.839
84968W        W57294   9.342   7.297  14.923
84969W        W57295  21.527   3.818  13.361
84970W        W57296  11.842  42.013   2.303
84971W        W57297  30.651  24.113   3.159
84972W        W57298  25.160  17.780  13.323
84973W        W57299  27.954  34.060  14.016
84974W        W57300   3.419  32.885   0.373
84975W        W57301   3.447  17.755   0.897
84976W        W57302  26.502  20.690  12.827
84977W        W57303  32.924  42.855  12.020
84978W        W57304  28.963  24.550   2.735
84979W        W57305  43.460  34.113   4.326
84980W        W57306  21.684   9.339   4.681
84981W        W57307  20.736   2.390  13.523
84982W        W57308  26.537   1.762  10.988
84983W        W57309  36.545   3.887  11.860
84984W        W57310   6.219  40.381   3.822
84985W        W57311  43.368  10.155  11.420
84986W        W57312  18.666   6.710  14.831
84987W        W57313  12.815  29.546   1.792
84988W        W57314   9.673  29.129   0.267
84989W        W57315  40.968  11.734  11.493
84990W        W57316  22.544  44.458   0.453
84991W        W57317  41.332  14.726  12.472
84992W        W57318  39.047  15.656   4.144
84993W        W57319  27.130   5.350   1.707
84994W        W57320  29.452  18.748  14.009
84995W        W57321  17.623  10.170   1.253
84996W        W57322  42.910  39.528   3.821
84997W        W57323  16.642  18.606  14.296
84998W        W57324   5.250  24.017  11.910
84999W        W57325  22.707  16.768   1.295
85000W        W57326  10.265  29.528  11.887
85001W        W57327  22.727  38.348  13.884
85002W        W57328  32.551  44.304  11.976
85003W        W57329  22.721  36.988   2.250
85004W        W57330  10.372  43.845   4.177
85005W        W57331  44.420   7.716   3.857
85006W        W57332  32.024  11.172  10.902
85007W        W57333  35.917   8.692   0.424
85008W        W57334  16.751  16.685   0.350
85009W        W57335  12.705  11.831   2.709
85010W        W57336  12.631   6.911   4.671
85011W        W57337   5.317   6.792  14.275
85012W        W57338  21.216  21.134  10.634
85013W        W57339  16.769  19.576  12.411
85014W        W57340   9.813  30.060  13.919
85015W        W57341  25.477  30.035   2.746
85016W        W57342  16.744  26.673   1.796
85017W        W57343   0.298  24.657   2.246
85018W        W57344  15.157  30.954  13.855
85019W        W57345  28.596  12.649  13.837
85020W        W57346   4.307  25.965  13.960
85021W        W57347  37.986  30.622   0.934
85022W        W57348  20.198  31.506  12.033
85023W        W57349  32.950   1.858   0.910
85024W        W57350   6.867  29.975  13.920
85025W        W57351  38.329  36.504   0.451
85026W        W57352  23.667  44.449  12.084
85027W        W57353  31.910  20.591   4.320
85028W        W57354   7.269  20.203   2.815
85029W        W57355  23.493  41.994  13.045
85030W        W57356  33.414   8.684   1.789
85031W        W57357  20.559  12.250   3.775
85032W        W57358  23.113  40.363  14.779
85033W        W57359  32.109  26.517  14.322
85034W        W57360  38.536  16.657   4.792
85035W        W57361  37.355  16.127  13.035
85036W        W57362  13.771   9.194  12.910
85037W        W57363   7.867  26.552  11.549
85038W        W57364  21.226  26.608   0.330
85039W        W57365  22.093  19.583   2.244
85040W        W57366  38.472  22.067  12.390
85041W        W57367   4.211  15.819  14.953
85042W        W57368  31.517  43.394  13.349
85043W        W57369   4.864  36.416   3.794
85044W        W57370   3.834  26.598   1.894
85045W        W57371  39.049  15.803  10.152
85046W        W57372  16.719  34.016   1.807
85047W        W57373   1.280  39.013   0.280
85048W        W57374  43.284  25.018   3.179
85049W        W57375   5.246   8.761  14.289
85050W        W57376  37.898  33.893  14.892
85051W        W57377  36.407  19.580   0.822
85052W        W57378  34.491  33.393   9.937
85053W        W57379  37.955  27.026   2.812
85054W        W57380   3.797   5.924  14.382
85055W        W57381  10.229  34.878  10.624
85056W        W57382  29.017  32.554  11.598
85057W        W57383  14.296  20.265  13.923
85058W        W57384  29.629  37.563   3.266
85059W        W57385  17.620   8.367   1.929
85060W        W57386   5.379  44.307   3.870
85061W        W57387  33.876   6.413  11.035
85062W        W57388   6.279  18.616   1.906
85063W        W57389  23.067  33.490   3.858
85064W        W57390  43.303  14.291   3.370
85065W        W57391  19.111   2.839  10.591
85066W        W57392  33.896  44.402   1.283
85067W        W57393  11.801  16.601  12.470
85068W        W57394  20.083  26.054   3.695
85069W        W57395  35.500   4.364  14.275
85070W        W57396  38.377  26.584   1.216
85071W        W57397  39.023  43.908  14.407
85072W        W57398  33.960   6.391   1.401
85073W        W57399  13.232  29.941   3.385
85074W        W57400  39.520   5.782  14.977
85075W        W57401  25.097  37.352   4.317
85076W        W57402  17.284  37.567   0.828
85077W        W57403  23.577  31.541   1.915
85078W        W57404   6.898  39.856   4.633
85079W        W57405   1.311  11.311   1.451
85080W        W57406  23.133  33.421   1.825
85081W        W57407  34.561   4.225   4.319
85082W        W57408  24.046  25.986   1.373
85083W        W57409  21.666  14.156   1.802
85084W        W57410   7.719  42.310   3.202
85085W        W57411  26.501   4.417  13.418
85086W        W57412  29.473  34.972   2.899
85087W        W57413  36.052   8.356   3.762
85088W        W57414   4.447  44.427  14.297
85089W        W57415  29.663  19.085   0.349
85090W        W57416  18.742  22.644   0.459
85091W        W57417  43.992  13.845   3.706
85092W        W57418  25.482   1.792   9.922
85093W        W57419  19.758   7.788  11.053
85094W        W57420  18.212  33.549   3.741
85095W        W57421  11.752  12.847   4.733
85096W        W57422  23.675  33.902  10.445
85097W        W57423  22.116  27.082  12.874
85098W        W57424  12.625  35.984  13.362
85099W        W57425   9.732   0.844   3.643
85100W        W57426  38.489  22.150  12.849
85101W        W57427  33.482   6.695  12.381
85102W        W57428  17.277  32.396  12.482
85103W        W57429  18.201  41.809  14.306
85104W        W57430  44.976  30.638   0.840
85105W        W57431  21.640  42.945   0.478
85106W        W57432  16.703  22.079   0.802
85107W        W57433   8.728  24.137   4.324
85108W        W57434  44.935   8.801  11.936
85109W        W57435   8.717  25.704   5.265
85110W        W57436  38.883  18.742   2.899
85111W        W57437  15.783  19.165   1.916
85112W        W57438  38.932  31.992   2.686
85113W        W57439   7.703  34.389  12.422
85114W        W57440   8.752  29.631   4.190
85115W        W57441  17.267  41.909   4.224
85116W        W57442  38.379  42.024   0.964
85117W        W57443   4.887  11.757   0.262
85118W        W57444   4.442  29.551  12.446
85119W        W57445   2.340  41.027   1.355
85120W        W57446   1.441  38.063   0.481
85121W        W57447  39.011  38.352  12.407
85122W        W57448  28.566  14.623   0.440
85123W        W57449  23.065  16.248  10.941
85124W        W57450   3.856  39.455  12.446
85125W        W57451   8.837   2.347  10.409
85126W        W57452   0.956  14.238  14.478
85127W        W57453  27.172  21.534   1.339
85128W        W57454  25.681  15.593  13.397
85129W        W57455   0.926  22.036  11.923
85130W        W57456   6.733  19.069  13.322
85131W        W57457   8.874  44.352  11.402
85132W        W57458  17.226   2.955   0.291
85133W        W57459  41.382  24.649  13.896
85134W        W57460  38.468   1.936   1.922
85135W        W57461  41.418  29.455  14.021
85136W        W57462  35.409  31.021   2.343
85137W        W57463  39.910   6.282  14.311
85138W        W57464  12.356  39.496   2.260
85139W        W57465  13.775  21.743  13.392
85140W        W57466   5.414  22.504   4.632
85141W        W57467   0.385   9.252  14.337
85142W        W57468  19.600  42.302   0.827
85143W        W57469  38.039  29.087  11.517
85144W        W57470   8.704  18.607  13.311
85145W        W57471  16.655  33.619   0.818
85146W        W57472  36.950   7.800   2.285
85147W        W57473  42.382  43.003  13.865
85148W        W57474  22.207  14.697  11.388
85149W        W57475   9.267  22.557   2.255
85150W        W57476  19.253  19.281   2.187
85151W        W57477  26.587  20.048   4.707
85152W        W57478  11.671  11.317   0.456
85153W        W57479   3.763   8.742  12.933
85154W        W57480   7.195  32.115   4.617
85155W        W57481  43.783  42.834  13.376
85156W        W57482   8.729  26.504   1.707
85157W        W57483  25.208  42.292  13.396
85158W        W57484   4.765  14.283   0.375
85159W        W57485  15.798  10.693   1.825
85160W        W57486   1.812  29.623   2.749
85161W        W57487  34.444  27.612  10.406
85162W        W57488   8.161  15.180   2.788
85163W        W57489   7.696  22.120  11.969
85164W        W57490  21.623  35.893  13.026
85165W        W57491  18.678  23.662   3.652
85166W        W57492  17.583   0.909  14.291
85167W        W57493  19.048  32.088  11.007
85168W        W57494  22.057   4.214  11.121
85169W        W57495  27.577  39.905   4.132
85170W        W57496  18.249  32.931   3.260
85171W        W57497  10.682  15.132  12.831
85172W        W57498  22.674  41.035   2.237
85173W        W57499  23.671  10.650  11.532
85174W        W57500  26.644  44.335   4.285
85175W        W57501   0.267  22.080  14.824
85176W        W57502  33.625   2.308   1.755
85177W        W57503  12.232  23.097  12.887
85178W        W57504  44.437  43.771  13.890
85179W        W57505   9.212  22.036   3.275
85180W        W57506   3.420  10.853  13.335
85181W        W57507  18.172  10.793  14.934
85182W        W57508  37.856  41.981   4.192
85183W        W57509  16.748   7.850  14.016
85184W        W57510  30.052  12.654  13.346
85185W        W57511  18.236  16.723   4.635
85186W        W57512  44.909   7.355  14.277
85187W        W57513  37.067  41.383  14.801
85188W        W57514  18.723  34.405   4.186
85189W        W57515  20.553  21.713  14.421
85190W        W57516  41.385  16.689  13.866
85191W        W57517  29.523   3.343  10.948
85192W        W57518   4.886  43.991   4.297
85193W        W57519   4.428  12.338   3.803
85194W        W57520   3.806   4.252   5.314
85195W        W57521  27.091  20.650   3.835
85196W        W57522  15.175  27.532  12.541
85197W        W57523   1.416  35.516   0.904
85198W        W57524  22.608  29.596  10.471
85199W        W57525  26.993  10.246  13.824
85200W        W57526  32.013  18.594   0.290
85201W        W57527  27.154  17.661  11.450
85202W        W57528  15.308  32.049   4.270
85203W        W57529  44.273  18.664  14.448
85204W        W57530  29.042  42.903   1.859
85205W        W57531  41.998  25.524  14.510
85206W        W57532   8.793  30.938  12.850
85207W        W57533  25.169  21.710  13.996
85208W        W57534   2.869  42.806   2.868
85209W        W57535  29.935   0.808   3.150
85210W        W57536   7.349   1.866   0.381
85211W        W57537  28.073  19.222  14.932
85212W        W57538  36.861  13.131  12.989
85213W        W57539  35.386  21.726  13.952
85214W        W57540  38.478  42.346  13.477
85215W        W57541  14.593  27.964   2.824
85216W        W57542   0.853  20.222   1.317
85217W        W57543  23.653  30.083   2.686
85218W        W57544   2.403  34.001   2.785
85219W        W57545  18.639  39.945  11.878
85220W        W57546  28.469  20.209  13.044
85221W        W57547  31.004  20.096  12.898
85222W        W57548   6.387  37.406  14.857
85223W        W57549  44.420   4.799  14.956
85224W        W57550  39.487  20.240   0.406
85225W        W57551  11.661  35.017  14.488
85226W        W57552  36.920  23.709  14.466
85227W        W57553   1.744  24.628  11.951
85228W        W57554  17.242  13.336   2.290
85229W        W57555  15.311  30.969   3.349
85230W        W57556  38.837  12.146   9.601
85231W        W57557   0.900  20.218   3.198
85232W        W57558   7.193   8.715  12.482
85233W        W57559  34.955  26.176   2.703
85234W        W57560  41.295  43.409  14.894
85235W        W57561  36.568  35.056  14.870
85236W        W57562   9.341  23.735   1.862
85237W        W57563   5.373  37.545  12.937
85238W        W57564  42.013   4.831  10.427
85239W        W57565  29.527  13.283  11.938
85240W        W57566  22.657  13.825  13.870
85241W        W57567  21.659  15.741   2.339
85242W        W57568  22.174   3.416   0.819
85243W        W57569   9.231  27.486   4.793
85244W        W57570   5.896  27.685  13.823
85245W        W57571  28.956   9.260   2.246
85246W        W57572  25.677   6.258  13.457
85247W        W57573  22.687  25.714  11.964
85248W        W57574  14.207  19.118  11.474
85249W        W57575  29.034  30.947  12.434
85250W        W57576  26.472  36.099  13.849
85251W        W57577   5.294  39.364  13.447
85252W        W57578  43.310  15.175  13.544
85253W        W57579  18.714  37.346  11.079
85254W        W57580  30.551  35.600  12.398
85255W        W57581  18.686  36.412  10.431
85256W        W57582  37.557  11.312   4.798
85257W        W57583  13.257  31.601  14.898
85258W        W57584  12.737  23.015   3.242
85259W        W57585  17.647   4.916   2.225
85260W        W57586  41.813  32.059  14.814
85261W        W57587  15.811  41.411   3.635
85262W        W57588  24.589  29.924  13.990
85263W        W57589   1.764   7.764  10.967
85264W        W57590  30.964  31.986   9.995
85265W        W57591  19.057  20.683   2.670
85266W        W57592  44.760  14.825   1.737
85267W        W57593  24.986  30.571   1.821
85268W        W57594  11.720  15.767   3.282
85269W        W57595   8.361   8.267  11.513
85270W        W57596  41.515   5.240   2.196
85271W        W57597  10.198  23.102  12.849
85272W        W57598  17.733  29.120  12.426
85273W        W57599  13.318  40.864  14.329
85274W        W57600  17.705  40.894  11.489
85275W        W57601  42.979  13.783   2.775
85276W        W57602   6.201  27.983   3.772
85277W        W57603  38.913  38.936  11.083
85278W        W57604   3.848  32.567  12.966
85279W        W57605  27.996  39.016  11.063
85280W        W57606  17.583  20.707  11.470
85281W        W57607  35.902  43.957   4.155
85282W        W57608  39.875  30.016   1.851
85283W        W57609  21.713  31.042  13.833
85284W        W57610  33.441   4.724  11.065
85285W        W57611  34.477  12.220  12.859
85286W        W57612  36.483  25.623  12.445
85287W        W57613  27.447  35.414  13.826
85288W        W57614  42.787  14.821   4.653
85289W        W57615  39.033   0.836   0.242
85290W        W57616  13.237  25.605   4.664
85291W        W57617  41.409  17.707   1.867
85292W        W57618  43.798  35.011  12.368
85293W        W57619  20.273  11.244   0.348
85294W        W57620  10.803  37.437  12.020
85295W        W57621  43.765  35.017   1.309
85296W        W57622   0.280  30.979   1.890
85297W        W57623   5.886  23.006  12.962
85298W        W57624  11.232  43.776  13.486
85299W        W57625   1.339   3.400  10.935
85300W        W57626  41.891   0.327   3.264
85301W        W57627  31.047  44.263   0.912
85302W        W57628  24.553  41.495  13.413
85303W        W57629   7.250   9.647  10.453
85304W        W57630  44.949  19.758  12.965
85305W        W57631  43.462   5.408  11.002
85306W        W57632  42.954  28.117   0.356
85307W        W57633   8.794  31.095   3.752
85308W        W57634  26.198  13.301   3.380
85309W        W57635  21.042   8.244  12.463
85310W        W57636   1.344  25.687   2.206
85311W        W57637   6.204  14.327   2.318
85312W        W57638  12.184  11.852   2.416
85313W        W57639  20.721  21.080  11.044
85314W        W57640  14.331  23.651   4.186
85315W        W57641  41.376  21.088   1.220
85316W        W57642  44.310  25.544   4.693
85317W        W57643  39.931  28.443  11.456
85318W        W57644  40.365  11.861  11.477
85319W        W57645  41.880  25.165   1.798
85320W        W57646  30.489  29.158   2.799
85321W        W57647  24.218  41.981   4.698
85322W        W57648  11.162  18.283  13.386
85323W        W57649   3.837  29.494   3.211
85324W        W57650  43.923  16.228   3.662
85325W        W57651  41.832  24.148  13.969
85326W        W57652  40.950  36.397   4.305
85327W        W57653  23.620  30.544  12.523
85328W        W57654  14.596  14.601   4.258
85329W        W57655  39.064  14.213   4.811
85330W        W57656  24.005   6.731  13.342
85331W        W57657  41.809  37.553  10.559
85332W        W57658  14.662   1.945  10.542
85333W        W57659   0.831  40.952   2.322
85334W        W57660  18.597  17.617  14.498
85335W        W57661   0.852  38.420   4.310
85336W        W57662   0.829  41.469   5.313
85337W        W57663   4.236  15.259   1.709
85338W        W57664  31.509  35.999  11.530
85339W        W57665  18.772  17.741   2.250
85340W        W57666  38.820  37.358  11.489
85341W        W57667  43.468  42.015   1.381
85342W        W57668  11.354  10.840   1.261
85343W        W57669  27.641  21.140  10.047
85344W        W57670  36.078   0.330  11.498
85345W        W57671  10.164  10.188   1.784
85346W        W57672  27.506  34.479  11.984
85347W        W57673   1.471   6.404   2.232
85348W        W57674  31.573   2.229  11.954
85349W        W57675  19.099  16.614  11.973
85350W        W57676  39.031  43.500   3.288
85351W        W57677  33.042  33.118  11.870
85352W        W57678   2.425  17.688   4.300
85353W        W57679   9.317  21.749  13.986
85354W        W57680   0.907  16.688   2.735
85355W        W57681  37.579  36.368  11.531
85356W        W57682  32.608  29.969   1.362
85357W        W57683  24.578  29.569  11.946
85358W        W57684  43.936   9.191  11.455
85359W        W57685  33.598  38.826  13.792
85360W        W57686  27.047  25.680  12.062
85361W        W57687  33.476  19.089   2.712
85362W        W57688   3.444   8.680  14.377
85363W        W57689  36.508  40.899  11.019
85364W        W57690  26.107  10.330  11.993
85365W        W57691   8.739  41.956   3.661
85366W        W57692   1.844  44.302   3.321
85367W        W57693  19.659  40.317  14.465
85368W        W57694  29.014  32.635   2.370
85369W        W57695  26.986  30.502  13.398
85370W        W57696   0.911  22.221   1.351
85371W        W57697  11.832  25.521   9.969
85372W        W57698   2.929  13.243   4.640
85373W        W57699   6.303  33.446   0.350
85374W        W57700  36.862  38.064   1.781
85375W        W57701  17.122  28.605  14.940
85376W        W57702   3.378   1.818   5.159
85377W        W57703  28.991  29.156   0.853
85378W        W57704   9.340  26.076  10.967
85379W        W57705   2.390  20.637  13.540
85380W        W57706  36.848  44.985  13.427
85381W        W57707  13.702  31.976   3.871
85382W        W57708  30.505  40.415  13.056
85383W        W57709  13.610  39.022   0.392
85384W        W57710  44.895  25.542   4.755
85385W        W57711   4.917  32.046  14.361
85386W        W57712  16.290  38.453   3.146
85387W        W57713  22.647  18.776  14.888
85388W        W57714  15.254  20.748   1.739
85389W        W57715  21.114  17.641   2.837
85390W        W57716  23.615   3.845   0.916
85391W        W57717  33.407  30.567   4.762
85392W        W57718  13.139  44.989   2.882
85393W        W57719  43.513  36.069   3.332
85394W        W57720  26.186  35.922  11.979
85395W        W57721  26.992  18.701   0.450
85396W        W57722  34.440  11.220   0.772
85397W        W57723   7.713  35.897  12.407
85398W        W57724  39.007   8.343   0.462
85399W        W57725  26.143  16.744  12.875
85400W        W57726  12.326  25.181   3.290
85401W        W57727  18.155  20.113  11.021
85402W        W57728  36.843  17.586  12.348
85403W        W57729  43.959  17.626   1.930
85404W        W57730  35.522  21.023   1.871
85405W        W57731  11.218  13.768   4.809
85406W        W57732  28.085   6.263  12.514
85407W        W57733  15.183  31.498   4.817
85408W        W57734  40.993  11.330  13.477
85409W        W57735  42.847   6.292   2.744
85410W        W57736  18.273  42.009   4.741
85411W        W57737   4.402  26.112  10.520
85412W        W57738  28.518  33.048   3.666
85413W        W57739  30.155   1.810   3.854
85414W        W57740  18.050   4.393   3.772
85415W        W57741   9.314  17.799   0.351
85416W        W57742  27.487  23.577   0.893
85417W        W57743  27.617  16.675  12.383
85418W        W57744  38.524  44.754   4.175
85419W        W57745   2.283   3.388   1.291
85420W        W57746  34.032  19.535  14.420
85421W        W57747  39.486  15.710   3.284
85422W        W57748  35.432  11.317   5.249
85423W        W57749  25.077   7.301   3.866
85424W        W57750  41.504   6.783   3.778
85425W        W57751  10.342  41.512  12.040
85426W        W57752  41.329  24.158   1.434
85427W        W57753  10.382  24.586  13.493
85428W        W57754  15.127  20.569  11.478
85429W        W57755  35.039  41.307   1.334
85430W        W57756  17.761  23.629  10.552
85431W        W57757   6.256  39.407   3.657
85432W        W57758  15.656   6.686  13.050
85433W        W57759   8.256  42.334  13.368
85434W        W57760  26.073  20.533  12.081
85435W        W57761  21.154  24.644  11.424
85436W        W57762  11.776  34.110  10.458
85437W        W57763  42.955  12.204  10.525
85438W        W57764  19.639  40.502   2.317
85439W        W57765  42.327   8.245  14.958
85440W        W57766  27.680  44.903  11.892
85441W        W57767  24.188  14.326  12.028
85442W        W57768  34.075  21.633   0.848
85443W        W57769  21.577   8.246  10.992
85444W        W57770  31.973  23.161   1.406
85445W        W57771  12.200  36.897  13.832
85446W        W57772   4.917  11.643  12.413
85447W        W57773  12.707  29.054   3.183
85448W        W57774  43.494   7.393   4.702
85449W        W57775  34.075  21.728   0.362
85450W        W57776  14.156  18.183  12.446
85451W        W57777  42.347   7.666   2.785
85452W        W57778  10.224  41.024  14.460
85453W        W57779  23.542  38.422   4.253
85454W        W57780  24.675  37.438  13.955
85455W        W57781   1.434  28.653   3.236
85456W        W57782  29.089  37.879   4.227
85457W        W57783  25.218  35.362   1.420
85458W        W57784  20.729   8.856   3.678
85459W        W57785   9.219   9.194   2.316
85460W        W57786  31.952   6.341  13.347
85461W        W57787  11.627   4.404  13.848
85462W        W57788   6.796  16.160  10.497
85463W        W57789   4.346  19.533  13.347
85464W        W57790  42.908  26.556  14.472
85465W        W57791  44.415   8.736   1.273
85466W        W57792  40.502   9.185   2.665
85467W        W57793   8.289  25.011  12.457
85468W        W57794  34.968  43.478   0.834
85469W        W57795  34.976   9.307   2.316
85470W        W57796   5.312  28.972   0.961
85471W        W57797   3.817   0.938  14.803
85472W        W57798  35.924  27.059   4.632
85473W        W57799  36.377  22.514   3.275
85474W        W57800  41.983  38.461  11.025
85475W        W57801   3.950  27.109   1.222
85476W        W57802  19.088   9.868   3.806
85477W        W57803   6.730  25.595   0.362
85478W        W57804  38.918  15.166  14.288
85479W        W57805   8.683  11.857   0.843
85480W        W57806  34.903  35.553  11.577
85481W        W57807  34.887  17.603  13.888
85482W        W57808  26.675  33.560   1.221
85483W        W57809  22.641  13.602   2.233
85484W        W57810  30.438   2.427   0.484
85485W        W57811  29.631  34.886  11.412
85486W        W57812  39.517   9.299  14.326
85487W        W57813  17.253  44.875   9.966
85488W        W57814  28.165  30.653  14.474
85489W        W57815  13.712  24.558   2.775
85490W        W57816  43.957   2.888   1.337
85491W        W57817  32.997  37.569   4.134
85492W        W57818  40.800  39.056  11.900
85493W        W57819  10.328  21.248  13.987
85494W        W57820   0.882   0.774   9.977
85495W        W57821  18.718   5.286  14.985
85496W        W57822   1.952  44.281   2.223
85497W        W57823  37.580  40.516  14.329
85498W        W57824  13.746  25.596  13.413
85499W        W57825  29.931  19.719   1.307
85500W        W57826  15.105  30.413  11.606
85501W        W57827  15.301  32.555  12.358
85502W        W57828  38.354   5.262   3.360
85503W        W57829  41.312  17.201   2.872
85504W        W57830  29.551  34.402  14.327
85505W        W57831  41.865  21.689   2.217
85506W        W57832  16.585  37.408  14.971
85507W        W57833  12.273  34.399   5.100
85508W        W57834  38.521  11.779  10.417
85509W        W57835  42.862  22.138   0.247
85510W        W57836  25.020  34.605   0.768
85511W        W57837  36.009  20.123   4.143
85512W        W57838  37.412  13.697  11.956
85513W        W57839   5.331  18.064  13.432
85514W        W57840   1.764   7.243  12.036
85515W        W57841  19.631  33.418   0.451
85516W        W57842  10.298  44.397   4.326
85517W        W57843  33.011  28.971  13.320
85518W        W57844  43.472   3.458  11.435
85519W        W57845  28.076  16.109   3.381
85520W        W57846  41.468   7.344  14.809
85521W        W57847   0.846   2.844   4.599
85522W        W57848  24.602  24.723   2.416
85523W        W57849  14.296  34.995   3.746
85524W        W57850   3.733  13.647   3.819
85525W        W57851  18.634  13.226  11.983
85526W        W57852  31.424   2.345   1.247
85527W        W57853  44.880   8.341  13.852
85528W        W57854  18.081   8.723   1.795
85529W        W57855  17.169  15.762   2.856
85530W        W57856  35.568   4.251   1.887
85531W        W57857  34.912  34.554  10.615
85532W        W57858  10.825  32.026   3.650
85533W        W57859  24.696   8.749   1.393
85534W        W57860  39.521  36.910   1.752
85535W        W57861   5.825  25.664   2.392
85536W        W57862  40.304  27.638  14.454
85537W        W57863  22.602  27.485   2.186
85538W        W57864  44.362   7.350  10.939
85539W        W57865   9.828  43.892   1.436
85540W        W57866  43.011  15.243  12.483
85541W        W57867   9.354   3.423  12.361
85542W        W57868  36.985  18.157  11.911
85543W        W57869  25.506  41.995  14.378
85544W        W57870  24.226  31.007   4.207
85545W        W57871  31.088   1.925   1.227
85546W        W57872  16.087  34.395  13.881
85547W        W57873   1.436  10.688   1.248
85548W        W57874  44.284  19.067   3.710
85549W        W57875  43.959   1.464  11.386
85550W        W57876  15.108  23.571  11.397
85551W        W57877  27.964   4.907  14.848
85552W        W57878  26.675  37.533  13.370
85553W        W57879  27.593  29.093  14.917
85554W        W57880  30.059   7.856   2.820
85555W        W57881  38.957  32.414  11.932
85556W        W57882  29.022  37.947  14.861
85557W        W57883  28.184   0.339  13.340
85558W        W57884   8.385  41.301   3.163
85559W        W57885   1.290  31.066   2.249
85560W        W57886  12.289  28.600  11.529
85561W        W57887  31.448  13.649  10.543
85562W        W57888   3.801  39.510  10.968
85563W        W57889  30.550  25.209   0.794
85564W        W57890  42.317  25.594   2.754
85565W        W57891  20.647  42.433   2.329
85566W        W57892  42.932   1.752   2.362
85567W        W57893   5.275  33.011  11.508
85568W        W57894  11.161  21.545  12.372
85569W        W57895  22.196  38.569   2.253
85570W        W57896  17.675  17.779  12.386
85571W        W57897  17.139  37.497  12.927
85572W        W57898   3.436  43.395   3.321
85573W        W57899  19.581  19.535   3.239
85574W        W57900  14.759  27.596  12.425
85575W        W57901  12.287  13.612  13.795
85576W        W57902  18.683   6.911  12.996
85577W        W57903  21.640   0.297   1.419
85578W        W57904  26.156  26.032   2.750
85579W        W57905   2.400  34.117  11.015
85580W        W57906  38.462  23.522   2.237
85581W        W57907  11.179  21.619  13.991
85582W        W57908   2.378  44.446   0.765
85583W        W57909  33.874  23.211   1.914
85584W        W57910  23.047  38.940   2.380
85585W        W57911  40.896  31.008  12.498
85586W        W57912   5.309  41.015   1.375
85587W        W57913  20.578  43.420   0.257
85588W        W57914  32.558  15.795   3.753
85589W        W57915  42.304  40.327   4.773
85590W        W57916  36.893  17.128  12.018
85591W        W57917  17.107  16.294   4.195
85592W        W57918  38.530   0.938  14.939
85593W        W57919  29.634  11.641   2.878
85594W        W57920   4.221  14.595   2.815
85595W        W57921  40.874  25.657   3.709
85596W        W57922  23.614   0.388  13.440
85597W        W57923  18.128  37.011   2.732
85598W        W57924   8.272   5.292  11.472
85599W        W57925   1.374   9.798  12.548
85600W        W57926   1.346  38.560   2.763
85601W        W57927  10.861  18.260  11.020
85602W        W57928   6.370  23.731  13.471
85603W        W57929  24.228   6.820  14.419
85604W        W57930  40.877  28.102  11.931
85605W        W57931   1.802   4.257   2.410
85606W        W57932  32.406  34.984  13.883
85607W        W57933  21.672  26.541  11.943
85608W        W57934  21.192   3.274   4.295
85609W        W57935   0.946  28.025   0.409
85610W        W57936   4.282  22.698   3.303
85611W        W57937  38.502  34.917   4.252
85612W        W57938   8.258  28.055   2.238
85613W        W57939  18.762  40.945   2.739
85614W        W57940  14.693  14.701  10.422
85615W        W57941  44.486  36.015   1.786
85616W        W57942  41.021  13.176  14.011
85617W        W57943   3.326  35.922   2.233
85618W        W57944  23.230  22.585   3.337
85619W        W57945  33.472  39.398  14.868
85620W        W57946  12.695   1.945  13.380
85621W        W57947  14.762  27.117   2.298
85622W        W57948  15.681  15.587  14.280
85623W        W57949  13.776  31.594   1.871
85624W        W57950  41.981  42.308  12.356
85625W        W57951  44.331  36.087  12.080
85626W        W57952   6.293   7.773   0.473
85627W        W57953   7.416  31.025   4.165
85628W        W57954  38.389  33.613   4.665
85629W        W57955   0.362   6.744   0.956
85630W        W57956  14.728   2.292   0.368
85631W        W57957   8.890   5.740   1.780
85632W        W57958  38.479  38.414  14.901
85633W        W57959   8.697  12.732   3.762
85634W        W57960   4.851   0.352   5.158
85635W        W57961   9.744  31.097   4.615
85636W        W57962  10.785  12.619   2.382
85637W        W57963  30.133  21.243   0.344
85638W        W57964  17.071  40.532   4.253
85639W        W57965  35.941  36.008   1.394
85640W        W57966  14.160  30.068   4.784
85641W        W57967  12.709  42.808   1.779
85642W        W57968  43.877  37.437   2.883
85643W        W57969  40.462   0.352   2.418
85644W        W57970  14.599  25.077  10.509
85645W        W57971  22.622  29.485   3.215
85646W        W57972  17.241  26.079   3.252
85647W        W57973  20.627  40.885  12.498
85648W        W57974  32.619  28.510   0.913
85649W        W57975  34.014  38.963  10.459
85650W        W57976   7.293  21.068  13.324
85651W        W57977  21.615  34.582   0.474
85652W        W57978  29.612   5.283  14.867
85653W        W57979  30.622  37.057   4.733
85654W        W57980   4.261   4.236   5.252
85655W        W57981  18.708  23.204  12.966
85656W        W57982   1.263  20.655   1.915
85657W        W57983  30.068   2.940  12.838
85658W        W57984  13.752   1.826   3.244
85659W        W57985  15.720  12.707  13.517
85660W        W57986  39.362  33.090   2.191
85661W        W57987  21.624  31.919  11.462
85662W        W57988  37.528  12.171   4.700
85663W        W57989  17.633  20.088   3.267
85664W        W57990  20.137  44.469   4.804
85665W        W57991  34.535  19.052  14.955
85666W        W57992  20.042  22.070   4.315
85667W        W57993  41.884   8.781  11.552
85668W        W57994  41.952  34.043  10.498
85669W        W57995  27.041  16.223   2.289
85670W        W57996  31.623  17.611  11.588
85671W        W57997  22.503   6.751   1.811
85672W        W57998  17.118   9.293  13.044
85673W        W57999  42.970  29.589  13.397
85674W        W58000   9.658  35.888  13.044
85675W        W58001  25.592  28.964  14.792
85676W        W58002   8.664  27.950  11.103
85677W        W58003  35.563  42.854  14.763
85678W        W58004  27.147  21.667  14.796
85679W        W58005  13.275  22.134  12.503
85680W        W58006  36.373  36.900   0.421
85681W        W58007  13.741  35.055   3.711
85682W        W58008  11.315  42.465  10.643
85683W        W58009   3.805  42.973   4.758
85684W        W58010  37.982  25.575  12.975
85685W        W58011  37.492  44.886   4.302
85686W        W58012   9.366   4.830  14.927
85687W        W58013  42.777  34.904  13.992
85688W        W58014  31.623   2.744   0.324
85689W        W58015  11.209  12.761   0.922
85690W        W58016   6.868  13.222   1.888
85691W        W58017  12.790   2.431  12.983
85692W        W58018  13.275  30.161  11.442
85693W        W58019  36.392   4.250  13.511
85694W        W58020  42.880   5.432  11.456
85695W        W58021   3.728  29.479  13.829
85696W        W58022  36.359  44.292   2.716
85697W        W58023  42.842  38.550  13.973
85698W        W58024  35.066  24.001  12.515
85699W        W58025  24.623   4.768   2.330
85700W        W58026  40.827  30.647   4.764
85701W        W58027   0.340  39.390   2.901
85702W        W58028  26.001  31.103  12.578
85703W        W58029   4.929  16.645   3.239
85704W        W58030  39.397  19.224   1.712
85705W        W58031  43.870  35.592  12.053
85706W        W58032  32.546  42.302  11.553
85707W        W58033  42.429  16.584  10.472
85708W        W58034  41.841  31.088   2.678
85709W        W58035   6.425  39.328   3.376
85710W        W58036  31.130  30.015  10.892
85711W        W58037   8.309  41.884  12.884
85712W        W58038  33.519   1.475  13.874
85713W        W58039   7.348  15.679   3.821
85714W        W58040  30.960   8.817   1.697
85715W        W58041  24.098   5.778  10.644
85716W        W58042  37.003  29.029   4.166
85717W        W58043   0.384  17.243   1.904
85718W        W58044  11.817  10.230   4.168
85719W        W58045  34.535  26.523  11.020
85720W        W58046  28.458   7.764   2.895
85721W        W58047  31.580  24.067  11.397
85722W        W58048  42.864  40.884   1.272
85723W        W58049  44.989  13.291  14.467
85724W        W58050  21.676   2.953   4.749
85725W        W58051   8.764  27.963   1.754
85726W        W58052  23.233  28.575  11.538
85727W        W58053   9.645  10.327   0.340
85728W        W58054   5.294  27.678   4.734
85729W        W58055  18.607  27.459   3.690
85730W        W58056   6.403  22.636   2.788
85731W        W58057  44.261   2.890   4.279
85732W        W58058  28.175  27.652  11.991
85733W        W58059  26.463  16.694   2.699
85734W        W58060  36.390  19.610  11.019
85735W        W58061  38.984  32.056  12.349
85736W        W58062  16.168   1.768   0.779
85737W        W58063  14.760  28.524  12.902
85738W        W58064  32.086  35.999   9.926
85739W        W58065   6.884  10.801   1.826
85740W        W58066  41.533  19.672   2.882
85741W        W58067   6.295  42.920  11.544
85742W        W58068   7.746   8.884   2.723
85743W        W58069   1.779  13.157   3.296
85744W        W58070  44.819  33.410   3.746
85745W        W58071  23.563  40.808  10.428
85746W        W58072  40.960  28.681  14.803
85747W        W58073  21.531  37.937  11.374
85748W        W58074   8.816  12.619   0.905
85749W        W58075  25.655  34.478  11.075
85750W        W58076  43.405  43.802  14.847
85751W        W58077  31.957  27.175   4.306
85752W        W58078  23.155  18.282  10.564
85753W        W58079  29.455  28.628  12.441
85754W        W58080  36.915  11.164   0.392
85755W        W58081  11.225  28.158   0.355
85756W        W58082  43.942  33.007  12.971
85757W        W58083   0.942  44.390   2.373
85758W        W58084  15.809  21.036   1.791
85759W        W58085  37.508  32.925  14.875
85760W        W58086  26.120  12.276  12.875
85761W        W58087  10.345   6.799   4.160
85762W        W58088  13.624  41.315   3.226
85763W        W58089  35.084  28.150   2.252
85764W        W58090   8.256  32.617  13.353
85765W        W58091  32.450   2.247  10.994
85766W        W58092  26.183  27.094  13.978
85767W        W58093  23.530  11.679  14.957
85768W        W58094  19.652  42.010   0.834
85769W        W58095  25.174  39.354  12.422
85770W        W58096   9.835  43.515  12.062
85771W        W58097  20.684  14.153   2.377
85772W        W58098  22.120  35.023   2.704
85773W        W58099   7.198  13.769   2.412
85774W        W58100   3.336  37.847   2.398
85775W        W58101  36.502  25.665   0.453
85776W        W58102  30.935  33.602   2.342
85777W        W58103   4.797  32.477   4.666
85778W        W58104  32.467  37.963   0.780
85779W        W58105  33.899   8.671  12.895
85780W        W58106  14.150  37.933  12.944
85781W        W58107  12.299  36.446   1.344
85782W        W58108  25.679  28.166   4.612
85783W        W58109  37.957   8.386  10.458
85784W        W58110  22.211   9.857   1.787
85785W        W58111  18.246   3.850  10.990
85786W        W58112  13.675  32.927  10.952
85787W        W58113  16.306  38.517   2.681
85788W        W58114  27.671  19.285  11.079
85789W        W58115  41.479  36.088   2.846
85790W        W58116  26.457  20.662  14.788
85791W        W58117   9.328   0.349   0.878
85792W        W58118  18.222  22.191  10.432
85793W        W58119  13.289  16.154   1.880
85794W        W58120  12.753   0.323  14.330
85795W        W58121  36.071  26.654  12.486
85796W        W58122  18.694  17.790  14.946
85797W        W58123  14.297  43.765  14.438
85798W        W58124   5.411  29.459  14.450
85799W        W58125   3.778  23.597  13.051
85800W        W58126  33.974  36.862  13.508
85801W        W58127  12.255  22.233   2.754
85802W        W58128   2.731  28.184   2.303
85803W        W58129  42.467  40.460  10.479
85804W        W58130  28.536   4.890  14.471
85805W        W58131  17.170  40.045   3.632
85806W        W58132   2.384  29.065  13.482
85807W        W58133  34.595   2.412   4.600
85808W        W58134  10.714  38.370   1.354
85809W        W58135  35.371   0.966   3.274
85810W        W58136  43.792  36.592  10.458
85811W        W58137  33.431   2.331   0.292
85812W        W58138  25.521  13.329   4.247
85813W        W58139  35.453  22.110   3.344
85814W        W58140   4.217  38.941   1.335
85815W        W58141  13.303  25.470   1.340
85816W        W58142  38.342  14.098  13.852
85817W        W58143  31.489  18.075   4.806
85818W        W58144   8.302   5.224  13.308
85819W        W58145  35.936  42.886  12.911
85820W        W58146   0.975  10.774   5.159
85821W        W58147   1.274  24.191   4.298
85822W        W58148  43.771   8.251   0.935
85823W        W58149  35.933  43.904   1.816
85824W        W58150  22.209  26.699   2.394
85825W        W58151   0.946  34.934   2.330
85826W        W58152  33.009   3.381  13.333
85827W        W58153   0.939  43.986   3.148
85828W        W58154  13.159  42.806   2.762
85829W        W58155  35.076  13.746   1.339
85830W        W58156  25.185  12.310   3.259
85831W        W58157   3.415  16.602  14.856
85832W        W58158  22.531   4.430  13.804
85833W        W58159  28.176  11.318   2.824
85834W        W58160  10.382  20.035   2.706
85835W        W58161  16.250  43.775  11.059
85836W        W58162  41.977   8.296  10.608
85837W        W58163  12.733   2.725  13.425
85838W        W58164  30.520   6.764   4.756
85839W        W58165  24.703  17.154   5.274
85840W        W58166  27.508  33.014   2.193
85841W        W58167  17.221  42.030   0.895
85842W        W58168  28.976  10.339   4.718
85843W        W58169  14.100   6.309  13.474
85844W        W58170  32.985  20.755  13.934
85845W        W58171  42.322  22.637   0.773
85846W        W58172  33.036  41.861  14.965
85847W        W58173  13.131  17.100   4.678
85848W        W58174  22.641  32.551  10.956
85849W        W58175  40.390  43.946   3.674
85850W        W58176  33.893   2.762   4.779
85851W        W58177   7.881  44.934   4.749
85852W        W58178  13.829   1.755  13.523
85853W        W58179  11.318   8.366  13.925
85854W        W58180  27.544   0.277   3.316
85855W        W58181   8.357  35.049   4.679
85856W        W58182  13.202   0.256   2.842
85857W        W58183  24.189  24.710   3.335
85858W        W58184  28.947  15.243  14.966
85859W        W58185   0.359  16.180   0.391
85860W        W58186  19.555   0.443  13.849
85861W        W58187   7.329  12.352   2.295
85862W        W58188  41.517  29.957  13.371
85863W        W58189  18.116  23.199   0.842
85864W        W58190  35.433  28.087  14.430
85865W        W58191   3.876  18.785   1.415
85866W        W58192   2.775  37.948   4.797
85867W        W58193  34.064   7.184  10.542
85868W        W58194  28.124  19.116   2.222
85869W        W58195   2.948  10.361  13.337
85870W        W58196  34.447  22.513  13.000
85871W        W58197  18.760   6.424   5.169
85872W        W58198   0.921  17.140  10.093
85873W        W58199  42.405   0.784   2.416
85874W        W58200  26.573  39.529  13.948
85875W        W58201  31.053  37.568   9.981
85876W        W58202   9.672  27.591  10.485
85877W        W58203  25.700  44.000   2.324
85878W        W58204  12.124  20.124  13.513
85879W        W58205  38.490  24.066  10.414
85880W        W58206   4.726  33.592   4.727
85881W        W58207  27.184  20.559  13.934
85882W        W58208  25.692  36.014   2.756
85883W        W58209  28.671  39.952   0.736
85884W        W58210  41.501  33.886   3.195
85885W        W58211  25.189  13.268  13.042
85886W        W58212  10.878  41.929   4.184
85887W        W58213  36.993   5.400  11.990
85888W        W58214   7.294   4.406  10.475
85889W        W58215  19.690  44.917  11.486
85890W        W58216  41.377  26.668  14.792
85891W        W58217   6.744  10.360   2.689
85892W        W58218  26.076  29.035  10.985
85893W        W58219  17.710  18.559   1.803
85894W        W58220   2.301  44.919  13.813
85895W        W58221  36.561  40.853  13.873
85896W        W58222   9.747  21.158  11.022
85897W        W58223   2.465   2.744  13.827
85898W        W58224  10.230  20.160   1.922
85899W        W58225  29.030  34.547  14.336
85900W        W58226  35.592  23.220   2.337
85901W        W58227  19.173  28.526   1.298
85902W        W58228   7.891  22.171  14.883
85903W        W58229   9.269  41.438  10.544
85904W        W58230   3.894   2.331   4.243
85905W        W58231   4.279  16.081   3.811
85906W        W58232  10.815  25.550   2.377
85907W        W58233  26.088  11.315   3.320
85908W        W58234  41.997   4.348  12.070
85909W        W58235  13.771  43.279   3.714
85910W        W58236  36.435  29.565   3.807
85911W        W58237  28.980  42.353   0.891
85912W        W58238  24.043   5.748  14.814
85913W        W58239  13.326   0.934   2.282
85914W        W58240  27.118   8.236   3.244
85915W        W58241  32.437  38.864   3.733
85916W        W58242   8.281   4.723   4.342
85917W        W58243  37.946  29.544   3.786
85918W        W58244   7.250  32.583   2.397
85919W        W58245   8.728   6.815   1.385
85920W        W58246  31.624  21.024   0.871
85921W        W58247  28.101  16.741   1.390
85922W        W58248   7.754  21.189  10.588
85923W        W58249  18.199  25.996   2.256
85924W        W58250  20.056  11.324  12.060
85925W        W58251  34.466  41.879  11.055
85926W        W58252  25.077  10.309  12.080
85927W        W58253  38.889  23.534  13.357
85928W        W58254   5.290  43.772  11.973
85929W        W58255   5.930  22.157   1.236
85930W        W58256   0.774  38.455  12.475
85931W        W58257   3.888  43.796  12.440
85932W        W58258   5.429  30.950   2.884
85933W        W58259  11.649  35.475   2.824
85934W        W58260   8.717  25.680  13.401
85935W        W58261  23.722  20.114  11.943
85936W        W58262  18.207  37.468  13.986
85937W        W58263  33.434  17.254  13.542
85938W        W58264  26.011  27.633  13.406
85939W        W58265  16.307  18.760   0.729
85940W        W58266  26.974  16.175  13.508
85941W        W58267  40.529   7.416  13.324
85942W        W58268  28.443  10.649  11.121
85943W        W58269  23.149  10.186  14.003
85944W        W58270   6.834  12.208   2.363
85945W        W58271   0.779  25.025   0.317
85946W        W58272  40.876  21.094  14.869
85947W        W58273  24.978   2.805   1.830
85948W        W58274  32.937  42.515  10.522
85949W        W58275  22.617   6.223   1.270
85950W        W58276   5.346   3.264   3.181
85951W        W58277  24.629  14.631   5.290
85952W        W58278  28.977  40.320   4.827
85953W        W58279  38.362  20.048   2.839
85954W        W58280  23.522   2.358  11.522
85955W        W58281  33.889  33.094   4.797
85956W        W58282  28.933  22.006   0.772
85957W        W58283  20.068   5.355   3.757
85958W        W58284   7.889  26.547   4.651
85959W        W58285  11.233   0.391   4.715
85960W        W58286  11.365  32.896  10.936
85961W        W58287  20.073   6.206   4.214
85962W        W58288  39.497  44.489  13.358
85963W        W58289  36.093  10.708   3.713
85964W        W58290  34.018  35.095  13.430
85965W        W58291  35.585   7.870   0.865
85966W        W58292  41.846   3.430  13.317
85967W        W58293  40.951   5.234  12.933
85968W        W58294  35.030   5.817   0.476
85969W        W58295   9.156  17.706   3.660
85970W        W58296  39.559   7.352   1.279
85971W        W58297  28.537   8.284  12.066
85972W        W58298   9.191  20.070  13.027
85973W        W58299  21.685  35.553   4.722
85974W        W58300  19.114  35.549   1.772
85975W        W58301   1.791  25.157   4.744
85976W        W58302   6.832  19.614   3.188
85977W        W58303   1.257  22.583  13.898
85978W        W58304  17.676  35.050  11.106
85979W        W58305  15.277  39.412   2.786
85980W        W58306  39.985  43.276  13.531
85981W        W58307  29.606  32.029  10.918
85982W        W58308   9.784  29.120  13.527
85983W        W58309  22.090  31.523  14.019
85984W        W58310   6.214   7.259  13.972
85985W        W58311  38.043   9.866   9.483
85986W        W58312  33.381   0.434   3.149
85987W        W58313  15.610  26.673   1.790
85988W        W58314  11.833  34.491  12.980
85989W        W58315  37.432  16.575   3.231
85990W        W58316  18.627  32.924   3.254
85991W        W58317  19.686   0.487   4.786
85992W        W58318   7.856  31.536   3.826
85993W        W58319  17.084  25.109  11.942
85994W        W58320   9.818  13.342  12.020
85995W        W58321  10.650  29.035  11.992
85996W        W58322  14.757  10.877  13.914
85997W        W58323   7.716  40.810   2.211
85998W        W58324  14.332   3.722  12.012
85999W        W58325  44.823  41.450   3.269
86000W        W58326  35.929  21.585  11.900
86001W        W58327  11.794  27.685  13.962
86002W        W58328  25.180  35.890   4.650
86003W        W58329   5.291  24.087  13.491
86004W        W58330   3.910   7.366   1.420
86005W        W58331  38.404  23.725  14.444
86006W        W58332  34.568  15.672   0.382
86007W        W58333  35.539  30.433   1.318
86008W        W58334  18.200  18.648  11.056
86009W        W58335  36.008  20.183   0.389
86010W        W58336  37.939   1.352   2.359
86011W        W58337  27.104  15.203  13.406
86012W        W58338  16.251  24.131   4.237
86013W        W58339  22.695   7.760   3.147
86014W        W58340  10.851  14.659  13.988
86015W        W58341  16.222  40.851  13.865
86016W        W58342  36.899  35.917  12.087
86017W        W58343  40.324  41.886  11.482
86018W        W58344  12.292  23.529   4.304
86019W        W58345  43.768   4.344   2.193
86020W        W58346  12.187  27.533   2.277
86021W        W58347  41.513   2.297   4.181
86022W        W58348  11.670  11.763   4.753
86023W        W58349  17.682  22.685   0.815
86024W        W58350  36.863  33.442   2.666
86025W        W58351  23.637  41.933  11.535
86026W        W58352  22.043  38.552  10.519
86027W        W58353  33.488   9.335   1.266
86028W        W58354  24.145  15.142  12.054
86029W        W58355  23.189  27.960   1.345
86030W        W58356   5.439   4.813   3.806
86031W        W58357  13.773  33.466   4.119
86032W        W58358  24.519  20.193  14.971
86033W        W58359  42.933  22.523   0.421
86034W        W58360  16.136  36.962  14.816
86035W        W58361  38.445  34.968   0.828
86036W        W58362   7.821  29.437   0.910
86037W        W58363  36.522  23.119   1.383
86038W        W58364  13.264  33.573   0.396
86039W        W58365  30.461  19.177   0.746
86040W        W58366  29.109   1.815   2.874
86041W        W58367  25.706   7.797  14.894
86042W        W58368   7.394   9.872  13.796
86043W        W58369  24.119  35.590  13.973
86044W        W58370  22.507  15.759   4.707
86045W        W58371  28.128  14.125   0.470
86046W        W58372  39.405  40.909  10.933
86047W        W58373  12.687  20.674   1.429
86048W        W58374  42.403  18.141   0.762
86049W        W58375  24.523   8.807  12.894
86050W        W58376  40.444  28.478   0.810
86051W        W58377   4.828  42.370  13.524
86052W        W58378  37.923  15.311  11.506
86053W        W58379  36.422  43.467  11.064
86054W        W58380  36.899  18.118  10.491
86055W        W58381  18.755  19.078   1.766
86056W        W58382  21.578  26.021  12.908
86057W        W58383  42.000  39.397  14.855
86058W        W58384  22.251   0.357   2.751
86059W        W58385  23.149   2.790  12.533
86060W        W58386  13.294  30.537   3.368
86061W        W58387  10.171   7.278   1.802
86062W        W58388  36.439  15.808   1.239
86063W        W58389  44.956  42.020  14.444
86064W        W58390  37.417   0.753   2.407
86065W        W58391  31.527  40.438  11.531
86066W        W58392  20.088  25.666  13.378
86067W        W58393   1.904   0.769  14.882
86068W        W58394  12.287  11.699   0.363
86069W        W58395  25.048  20.685   3.158
86070W        W58396  16.599  44.855   3.163
86071W        W58397  33.078   9.812   4.692
86072W        W58398  10.793  38.517  13.408
86073W        W58399  11.764  10.267  12.086
86074W        W58400  39.890  22.170   0.771
86075W        W58401  40.890  38.570   2.316
86076W        W58402  44.380   2.851  11.558
86077W        W58403   6.755   5.369   3.664
86078W        W58404  28.963  16.224   3.730
86079W        W58405  32.466  18.717   1.824
86080W        W58406  39.429   1.851  14.399
86081W        W58407  21.094  27.576   1.697
86082W        W58408  29.540  35.945   4.666
86083W        W58409  35.894  26.177  12.574
86084W        W58410  29.601   6.407   5.285
86085W        W58411  24.491  37.501   4.244
86086W        W58412   9.224  40.952   1.931
86087W        W58413  25.092   2.291  10.612
86088W        W58414   4.296  37.462  12.513
86089W        W58415  14.156  26.637  12.827
86090W        W58416  16.257   2.801   2.889
86091W        W58417  31.930  14.232  14.378
86092W        W58418   7.708  37.937   3.262
86093W        W58419  27.588  44.799  13.982
86094W        W58420  30.616  33.501   0.833
86095W        W58421   9.158  36.062   3.737
86096W        W58422   3.887  22.702   1.298
86097W        W58423  37.387  33.061  12.002
86098W        W58424  26.179   1.960   0.438
86099W        W58425  19.734   9.277   3.288
86100W        W58426  10.684   8.183   3.803
86101W        W58427   2.902  38.538  13.347
86102W        W58428  15.243  16.104   4.644
86103W        W58429   2.304   2.866   0.315
86104W        W58430  19.565  38.005  11.493
86105W        W58431  15.116  40.357  11.084
86106W        W58432   1.267  35.898   3.870
86107W        W58433   1.270  21.615   9.672
86108W        W58434  35.970   2.347   4.660
86109W        W58435  22.603  22.063   3.165
86110W        W58436  23.698  35.900  12.898
86111W        W58437   4.444   3.433  14.875
86112W        W58438  18.689  15.773  13.915
86113W        W58439  34.947  13.684   3.239
86114W        W58440  12.797  31.493  12.438
86115W        W58441  19.236   3.833   4.218
86116W        W58442  25.701   4.771  12.067
86117W        W58443  24.188  30.535   0.849
86118W        W58444  30.042   8.868   3.649
86119W        W58445  27.136  30.590   3.666
86120W        W58446  43.386  15.758   0.458
86121W        W58447   8.865  21.666  11.486
86122W        W58448  11.159   5.804  10.910
86123W        W58449  12.719  25.200   2.204
86124W        W58450   7.876   3.793  14.339
86125W        W58451  11.728  19.140   0.398
86126W        W58452  17.210  31.083  14.391
86127W        W58453   0.953  34.483   4.651
86128W        W58454   8.716  43.959  11.902
86129W        W58455  17.213  28.482  13.058
86130W        W58456  19.225  22.224  13.347
86131W        W58457  20.538   1.919   0.369
86132W        W58458  38.536  39.366   3.685
86133W        W58459  13.687  34.937  14.438
86134W        W58460  16.107  27.963   4.730
86135W        W58461  42.028  25.097  11.566
86136W        W58462  23.628  35.878  14.301
86137W        W58463  12.831   1.908  12.360
86138W        W58464   6.857   9.256   3.720
86139W        W58465  24.489  42.427  12.059
86140W        W58466  32.133  32.077   0.890
86141W        W58467   5.432  37.051  14.888
86142W        W58468  35.938   3.851   1.399
86143W        W58469  40.307  44.399   2.292
86144W        W58470  39.478  16.810   1.430
86145W        W58471  41.820  36.050  12.947
86146W        W58472  43.022  39.453  10.559
86147W        W58473  25.210   8.790  11.600
86148W        W58474  40.982   6.834  11.970
86149W        W58475  35.081  36.494  13.431
86150W        W58476   3.445   9.867  11.512
86151W        W58477  42.031  19.041  12.983
86152W        W58478  25.120  39.325   0.744
86153W        W58479  24.131  44.953  14.941
86154W        W58480  26.600  18.738  11.942
86155W        W58481  43.458  37.979  14.873
86156W        W58482  19.116  26.085   4.324
86157W        W58483   5.362   8.383  13.953
86158W        W58484  21.709  17.698   4.740
86159W        W58485  36.982  27.969  10.433
86160W        W58486  26.529   8.355  11.888
86161W        W58487  34.055  35.906   2.244
86162W        W58488  40.891  19.161  11.050
86163W        W58489  35.053  15.242   0.421
86164W        W58490   3.783  40.814   0.908
86165W        W58491  28.615  19.204  14.453
86166W        W58492  13.768  36.562   3.377
86167W        W58493  18.227   7.770  10.644
86168W        W58494  15.659   7.722  12.990
86169W        W58495  21.593  22.126  14.464
86170W        W58496  39.550  18.660  11.612
86171W        W58497  22.504  42.905  11.097
86172W        W58498  30.004  35.066  11.404
86173W        W58499   8.831  32.429   4.756
86174W        W58500  36.509  12.734   9.506
86175W        W58501   4.288  11.795  14.969
86176W        W58502  38.894  12.702  14.440
86177W        W58503  39.836  30.024  13.340
86178W        W58504  13.291  27.584   0.870
86179W        W58505  42.924  16.629   3.386
86180W        W58506  31.639   2.816   3.679
86181W        W58507  29.517  44.838  14.356
86182W        W58508  40.826  30.642  11.541
86183W        W58509  31.975  21.062   2.738
86184W        W58510  40.485   2.820   1.317
86185W        W58511  23.164  34.502   1.718
86186W        W58512   7.243   8.871   1.263
86187W        W58513  38.524  13.344   5.202
86188W        W58514  41.858  43.802   0.864
86189W        W58515  30.461  10.678  10.618
86190W        W58516  25.198  27.173   4.801
86191W        W58517  30.046  40.412   3.328
86192W        W58518  34.994  12.856  13.431
86193W        W58519   0.913   1.325   1.707
86194W        W58520  28.044   7.237   3.165
86195W        W58521  22.059  24.154   1.403
86196W        W58522  41.338  36.512   0.929
86197W        W58523   3.941  32.009   2.338
86198W        W58524  31.121  14.795  13.919
86199W        W58525  40.366   5.279   0.259
86200W        W58526  36.535  31.606  10.457
86201W        W58527  26.519  35.994   1.372
86202W        W58528   6.287  35.018  10.407
86203W        W58529  37.076  24.974  11.473
86204W        W58530  12.831  32.570   2.736
86205W        W58531  16.100  33.405   0.813
86206W        W58532  20.612  36.882   2.355
86207W        W58533   2.461  38.004   0.339
86208W        W58534  11.650  21.038   0.366
86209W        W58535  24.638   5.413  11.057
86210W        W58536  25.089   7.677  13.799
86211W        W58537   0.797   2.756   4.317
86212W        W58538  34.066  33.532   4.230
86213W        W58539  31.495  11.634   0.256
86214W        W58540   7.268  33.512  13.441
86215W        W58541   9.654  15.202   3.259
86216W        W58542  18.756  35.383  14.862
86217W        W58543  36.080  23.620   3.197
86218W        W58544  32.069  15.274   3.694
86219W        W58545  13.321  22.523   2.348
86220W        W58546  40.861   6.362  14.893
86221W        W58547  10.288  11.683   3.243
86222W        W58548   0.966  36.012   5.113
86223W        W58549  29.643   7.335   0.396
86224W        W58550  40.372   9.230  10.570
86225W        W58551  13.690   2.824  13.055
86226W        W58552  32.889   5.331   1.270
86227W        W58553  24.550  16.106   2.783
86228W        W58554  31.036   4.850  12.965
86229W        W58555  38.326  31.953  13.542
86230W        W58556  22.055  39.410   5.160
86231W        W58557   7.808  40.881  11.612
86232W        W58558  36.561  32.938   4.638
86233W        W58559   2.909  14.611   4.789
86234W        W58560  27.989   0.815  14.997
86235W        W58561  42.345  39.967  14.802
86236W        W58562  20.126  42.881  13.501
86237W        W58563  12.703  39.902  13.946
86238W        W58564  25.508  41.863   2.735
86239W        W58565  31.133   3.826   4.731
86240W        W58566   5.271  40.839   0.816
86241W        W58567  10.738   4.357  14.789
86242W        W58568  34.994   9.197  14.926
86243W        W58569  35.908  35.385  12.076
86244W        W58570  32.473  33.107  12.420
86245W        W58571   4.340  42.384  12.445
86246W        W58572  36.077  36.573  14.902
86247W        W58573   6.851  30.449   4.301
86248W        W58574  22.606   8.784  14.905
86249W        W58575  24.228  34.532  11.903
86250W        W58576  12.131  20.584  11.079
86251W        W58577  42.425   4.772  13.815
86252W        W58578  29.547  16.781  10.083
86253W        W58579  43.976  14.682   3.654
86254W        W58580  41.878  34.506   1.408
86255W        W58581  35.084   0.880  10.133
86256W        W58582  10.298  34.601   0.904
86257W        W58583  32.916   5.700  14.435
86258W        W58584   0.946   7.188  12.084
86259W        W58585  24.636  37.971  12.032
86260W        W58586  15.306  17.708  11.924
86261W        W58587  25.651  31.028   0.403
86262W        W58588  40.828  20.572  10.536
86263W        W58589  27.022  44.285   3.166
86264W        W58590  18.605  20.102   2.876
86265W        W58591  42.907  27.570   3.228
86266W        W58592  41.876  33.102   1.448
86267W        W58593  13.766  10.287   4.828
86268W        W58594   0.784  31.076   4.159
86269W        W58595  17.308  27.473  13.354
86270W        W58596  32.993   2.842   1.217
86271W        W58597  16.652  12.221  14.998
86272W        W58598  15.329  32.469   0.278
86273W        W58599  10.271   0.471  14.412
86274W        W58600   9.747   0.934  11.427
86275W        W58601  13.738  13.350   2.665
86276W        W58602  38.036  31.534   1.280
86277W        W58603   4.401   2.446   9.655
86278W        W58604  16.567  11.695   3.250
86279W        W58605  36.848  10.868   4.750
86280W        W58606  10.345   4.403  12.469
86281W        W58607  37.890  32.918  14.310
86282W        W58608  37.560  26.077   2.341
86283W        W58609  35.995  25.079  11.124
86284W        W58610  34.051  11.341  13.924
86285W        W58611  41.810  10.146  11.030
86286W        W58612  18.771   4.928   2.756
86287W        W58613   6.835  11.770   3.652
86288W        W58614  15.103  32.102   2.363
86289W        W58615  25.632  44.897  10.509
86290W        W58616  13.610  21.066   4.352
86291W        W58617  13.701  43.982   4.174
86292W        W58618   0.816  18.084  12.051
86293W        W58619   5.853  44.973   0.354
86294W        W58620  13.612  31.412   0.886
86295W        W58621  17.133   9.694  12.530
86296W        W58622   7.743   9.205   4.200
86297W        W58623   4.273  28.059  14.275
86298W        W58624   3.423   9.817   3.666
86299W        W58625  13.166  28.131   2.295
86300W        W58626  19.696  15.312   4.145
86301W        W58627  19.588  37.574   0.749
86302W        W58628  27.596  44.496   3.813
86303W        W58629  23.634  19.539  11.450
86304W        W58630  16.111   2.915   3.857
86305W        W58631  22.714  24.195   1.826
86306W        W58632  10.202  39.455  10.967
86307W        W58633  20.055  31.910   2.706
86308W        W58634   9.231  14.275   5.308
86309W        W58635  29.957  12.713   1.329
86310W        W58636  30.047  10.803   3.213
86311W        W58637   3.327  11.756   4.801
86312W        W58638  44.803   2.407  14.514
86313W        W58639  26.551  26.577   3.859
86314W        W58640  44.409  38.514   3.369
86315W        W58641  38.494   9.190   0.481
86316W        W58642  14.210  36.894   1.305
86317W        W58643  27.585  31.483  14.984
86318W        W58644  34.994  24.188  10.909
86319W        W58645  29.539  33.965   4.212
86320W        W58646  28.448  21.727   0.406
86321W        W58647  39.940  12.279   2.840
86322W        W58648  14.658   5.825   4.729
86323W        W58649  17.079  44.326   1.302
86324W        W58650  24.629  25.217  12.023
86325W        W58651  16.813  42.918  11.508
86326W        W58652  37.015  29.018  14.992
86327W        W58653  15.156  43.874  12.980
86328W        W58654  33.453  17.201   0.307
86329W        W58655   8.773  21.260  13.316
86330W        W58656  16.703  24.515  14.352
86331W        W58657  20.761  23.542  14.484
86332W        W58658  10.346  32.130   3.793
86333W        W58659  21.655   7.244   5.187
86334W        W58660  43.793  23.705  10.405
86335W        W58661  22.146   1.437   1.265
86336W        W58662  11.628  19.284   2.242
86337W        W58663  27.111   0.376   1.368
86338W        W58664  41.447  34.082  12.514
86339W        W58665   5.349  10.739   0.343
86340W        W58666  13.138   3.373   5.311
86341W        W58667   1.967   5.402  13.473
86342W        W58668  32.130  38.839   3.772
86343W        W58669  43.377   6.242   1.926
86344W        W58670  14.692  44.403   5.222
86345W        W58671  29.063   4.717  10.546
86346W        W58672  26.027  23.547   3.326
86347W        W58673  15.689  40.474  11.579
86348W        W58674   0.393   1.310  11.127
86349W        W58675  43.878  30.962  12.400
86350W        W58676  37.856  33.918   0.305
86351W        W58677  30.980  25.012   5.189
86352W        W58678   2.839  24.715  14.514
86353W        W58679  39.981  40.409  13.001
86354W        W58680  12.349   9.809  13.389
86355W        W58681  17.298  21.120   4.122
86356W        W58682  33.116  40.441   3.218
86357W        W58683  29.654  15.086   4.716
86358W        W58684  17.730  25.667  10.913
86359W        W58685  31.552  33.126  13.983
86360W        W58686  20.184  44.856   0.846
86361W        W58687  37.352   4.427   0.437
86362W        W58688  32.023  31.455  13.543
86363W        W58689  44.791  36.980   0.876
86364W        W58690  43.285  35.453   4.734
86365W        W58691  21.578   5.918  12.569
86366W        W58692  23.991  32.486  13.403
86367W        W58693  44.452  32.089  12.356
86368W        W58694  23.178  15.680   4.822
86369W        W58695  14.777  38.546   2.347
86370W        W58696  28.650   9.836   2.830
86371W        W58697  27.096   9.735  11.603
86372W        W58698  11.804  33.513  14.433
86373W        W58699  29.958  20.179   1.310
86374W        W58700  23.119   6.706  12.520
86375W        W58701  38.423  17.222  13.965
86376W        W58702  11.740  35.950  10.477
86377W        W58703  40.032  34.502  10.935
86378W        W58704  26.148  41.950  11.471
86379W        W58705  29.111  14.120   3.661
86380W        W58706  11.820   3.955   2.313
86381W        W58707   9.889   1.744   0.416
86382W        W58708  15.234  12.122   0.823
86383W        W58709  13.120  26.124  12.543
86384W        W58710  23.716  37.973  13.825
86385W        W58711  12.693   3.457  14.459
86386W        W58712  31.532  16.171  12.541
86387W        W58713  14.821  25.127   5.273
86388W        W58714  39.346   0.391  13.432
86389W        W58715  27.600   7.242  14.459
86390W        W58716  41.813  19.547  12.859
86391W        W58717  40.344  16.108  11.958
86392W        W58718  36.905  43.445  11.020
86393W        W58719   2.379   9.863   3.855
86394W        W58720  29.632  38.342   2.354
86395W        W58721   4.408  20.635  11.447
86396W        W58722  23.123  15.170  11.487
86397W        W58723   9.727  43.979   4.113
86398W        W58724   2.359  44.906  12.992
86399W        W58725  12.711  17.214  13.873
86400W        W58726  34.557  42.411  12.553
86401W        W58727  10.836  17.666  13.909
86402W        W58728  12.742   4.820   4.288
86403W        W58729  28.036  22.119   3.733
86404W        W58730  17.186  39.948   3.312
86405W        W58731  43.330   4.707   1.250
86406W        W58732   5.356  31.512   0.477
86407W        W58733  40.454  12.357   2.402
86408W        W58734   9.706  10.242  11.525
86409W        W58735  35.558  18.276   1.210
86410W        W58736  32.920  39.956   0.828
86411W        W58737  11.353  17.764   2.269
86412W        W58738   8.173  14.684   4.690
86413W        W58739  20.058  42.861  12.570
86414W        W58740   8.751  18.711   0.298
86415W        W58741  20.766  35.472  11.956
86416W        W58742  24.029   6.248  12.066
86417W        W58743  27.632   8.405  12.476
86418W        W58744  16.618  22.143   0.279
86419W        W58745   4.902  37.939   4.259
86420W        W58746  20.108  41.403   3.383
86421W        W58747   6.294  29.630  11.576
86422W        W58748  15.598  36.990  12.882
86423W        W58749  31.025  27.662  14.340
86424W        W58750  36.436  12.799   9.922
86425W        W58751  25.641   2.846   2.258
86426W        W58752  24.588  21.545   2.755
86427W        W58753  30.102   9.361   1.437
86428W        W58754   3.718  18.053   5.284
86429W        W58755  27.567  27.011  12.570
86430W        W58756  22.112  40.844  13.438
86431W        W58757   3.829  41.857   4.201
86432W        W58758  32.909  13.134   2.389
86433W        W58759   7.404   0.933  12.044
86434W        W58760   0.347   3.251   5.131
86435W        W58761  32.896  35.419  10.547
86436W        W58762  32.559   0.482   2.281
86437W        W58763  11.282  21.540  14.954
86438W        W58764  39.457  43.871   1.813
86439W        W58765  40.409   7.737   4.295
86440W        W58766  39.900  10.814   4.821
86441W        W58767  39.390  18.271   2.781
86442W        W58768  13.341  44.805  14.321
86443W        W58769   4.376  13.831  12.538
86444W        W58770   4.698  37.899   1.306
86445W        W58771  28.121  21.748   1.367
86446W        W58772  19.238  14.323  12.873
86447W        W58773  20.120  17.661  13.966
86448W        W58774  10.709  41.505   5.255
86449W        W58775  24.988  29.077  14.496
86450W        W58776   3.752  25.067  12.547
86451W        W58777  16.597  43.337   2.721
86452W        W58778   5.198  17.561  13.452
86453W        W58779  22.706  28.993  13.885
86454W        W58780  44.284  39.035  12.562
86455W        W58781  18.712  27.532  12.061
86456W        W58782  43.497  17.594   4.128
86457W        W58783  29.655  12.656  11.856
86458W        W58784   2.225  14.290  14.365
86459W        W58785  12.659  15.693   2.404
86460W        W58786  44.357  44.910  13.396
86461W        W58787   4.942   8.748   4.605
86462W        W58788  41.420   5.380   4.617
86463W        W58789  44.334  14.678   1.210
86464W        W58790   3.828  20.194  11.484
86465W        W58791  40.887  30.579   1.694
86466W        W58792  18.712  41.973  10.554
86467W        W58793  11.725  33.420  11.450
86468W        W58794  41.869  19.274  11.520
86469W        W58795   6.279  43.828  12.010
86470W        W58796  39.465  30.096   0.882
86471W        W58797  23.032   8.234  13.974
86472W        W58798  40.536  16.265   1.222
86473W        W58799   4.829  35.958  13.791
86474W        W58800  30.067  44.899  12.909
86475W        W58801  26.189  28.171  14.398
86476W        W58802  44.904  24.158  11.389
86477W        W58803  29.966   6.327   3.290
86478W        W58804   7.794  18.193  13.865
86479W        W58805  36.526  30.082  14.760
86480W        W58806  19.691  20.760  14.884
86481W        W58807  27.554   6.299   3.825
86482W        W58808  36.497  30.633  14.311
86483W        W58809  27.113  36.467  14.334
86484W        W58810  20.662  14.271  14.947
86485W        W58811  30.128  29.078  14.513
86486W        W58812  41.987  20.726   2.316
86487W        W58813  22.171  11.827   1.855
86488W        W58814  20.569  20.589  13.428
86489W        W58815  17.709  28.645   1.413
86490W        W58816  29.009  43.380   4.163
86491W        W58817   1.917  35.564  14.495
86492W        W58818  38.063  12.689   4.613
86493W        W58819  41.416  27.676   0.882
86494W        W58820  15.586  17.694  13.797
86495W        W58821   6.771  26.628   2.759
86496W        W58822  12.227  20.550   0.433
86497W        W58823  41.945  11.628  13.040
86498W        W58824  35.530  26.607  10.583
86499W        W58825  23.620  32.029   3.750
86500W        W58826  13.265  34.891   2.846
86501W        W58827   3.339  31.910   3.257
86502W        W58828  44.502  42.441  14.301
86503W        W58829  10.305  25.039  13.814
86504W        W58830  20.098  32.487  13.941
86505W        W58831  27.070   2.359  14.014
86506W        W58832  16.697  12.250   3.273
86507W        W58833  25.107   0.392   2.262
86508W        W58834  44.306   0.902   3.204
86509W        W58835  30.462  34.117   1.898
86510W        W58836  34.973  29.950   0.846
86511W        W58837  27.006  30.636   5.225
86512W        W58838   5.877  32.938  11.424
86513W        W58839   0.749  32.057   1.877
86514W        W58840   4.782   6.723   4.645
86515W        W58841  41.837  13.286  11.392
86516W        W58842  27.614  16.600   3.310
86517W        W58843  44.900  19.223   4.735
86518W        W58844  11.674  44.329  14.935
86519W        W58845   3.264   3.791   1.306
86520W        W58846  27.684   7.803  11.863
86521W        W58847  33.129  15.138  13.435
86522W        W58848  37.446  41.396   2.685
86523W        W58849   3.399  37.860   3.204
86524W        W58850  41.927  38.527  10.633
86525W        W58851  27.015  23.064   0.338
86526W        W58852  11.166  16.117   2.889
86527W        W58853   6.379   3.953  13.880
86528W        W58854  36.529  23.120  13.017
86529W        W58855   2.288  12.855  13.850
86530W        W58856   8.875   2.729   3.149
86531W        W58857  44.803  23.547   3.869
86532W        W58858  24.493   9.800  12.048
86533W        W58859  23.117  38.933   9.485
86534W        W58860   4.444  27.054  11.534
86535W        W58861  16.685   0.886  12.450
86536W        W58862   6.759  21.603  13.962
86537W        W58863  23.635  27.540   3.844
86538W        W58864  30.591  26.137  14.828
86539W        W58865  40.931   1.873  10.933
86540W        W58866  25.163   2.805   3.372
86541W        W58867  17.073  30.609   4.145
86542W        W58868   9.755  39.865  10.888
86543W        W58869   0.390  23.171   1.366
86544W        W58870  22.620  25.113  12.039
86545W        W58871  26.693  26.171  11.125
86546W        W58872   0.804  37.514  13.907
86547W        W58873  16.660  43.954  13.007
86548W        W58874  20.576  30.471  12.059
86549W        W58875  18.252  42.507   4.683
86550W        W58876   4.363  35.598  13.815
86551W        W58877  28.583   5.383  11.383
86552W        W58878  19.164  36.984   2.796
86553W        W58879  43.929  44.984   1.922
86554W        W58880  20.551  13.810  14.027
86555W        W58881   5.815  39.980   3.283
86556W        W58882   1.425  40.526  12.481
86557W        W58883  13.603   1.259  13.946
86558W        W58884  10.372  40.486  12.848
86559W        W58885  31.427  19.633  11.123
86560W        W58886  39.480   3.244   4.310
86561W        W58887  29.930  37.348  11.417
86562W        W58888   8.244   9.690   4.273
86563W        W58889   1.735  42.417   4.778
86564W        W58890  27.663   5.404   3.736
86565W        W58891  28.654   7.693  10.522
86566W        W58892  32.994   8.301  14.875
86567W        W58893  14.754  24.648  10.021
86568W        W58894  30.985   1.916   1.825
86569W        W58895  21.585   5.886  14.923
86570W        W58896   6.375  33.095  13.546
86571W        W58897   8.263  29.074  10.430
86572W        W58898   4.882   7.690  11.393
86573W        W58899   5.900  30.615  12.849
86574W        W58900  36.000  28.564  11.919
86575W        W58901   4.308   1.325  13.044
86576W        W58902  38.551  12.719   4.322
86577W        W58903   7.683  25.093  13.033
86578W        W58904   8.715  32.532   2.678
86579W        W58905   1.891  15.301   4.196
86580W        W58906  19.722  27.565   1.422
86581W        W58907  32.139  41.429  10.983
86582W        W58908  26.131  40.468   1.860
86583W        W58909  33.024   7.806   4.250
86584W        W58910  44.945  28.663  12.427
86585W        W58911  21.023  44.765   2.322
86586W        W58912   3.243  37.860  12.022
86587W        W58913  28.164  15.661  10.592
86588W        W58914  37.041  13.338   5.753
86589W        W58915   6.712  19.640   1.266
86590W        W58916  23.719  25.530  11.442
86591W        W58917  14.318  25.076  14.809
86592W        W58918   7.874   2.278   0.911
86593W        W58919  25.607   7.675   1.419
86594W        W58920  29.050  15.176   3.272
86595W        W58921  33.109   4.820  10.554
86596W        W58922  31.030  13.751  14.443
86597W        W58923   5.742   8.726   0.833
86598W        W58924  13.672  37.548   5.236
86599W        W58925  10.290  14.803  11.866
86600W        W58926  14.276  25.509   4.138
86601W        W58927  42.789   7.679   1.828
86602W        W58928   7.252  43.339  10.627
86603W        W58929   5.816   5.900   1.441
86604W        W58930  26.524  38.425   3.819
86605W        W58931  40.443  36.050   0.929
86606W        W58932  18.191  25.176  12.393
86607W        W58933  14.662  13.117  11.101
86608W        W58934   9.691  22.160  10.942
86609W        W58935  12.230  38.335  12.558
86610W        W58936  26.952  29.009  13.038
86611W        W58937  34.994   1.877  13.841
86612W        W58938  40.460  30.036   2.247
86613W        W58939  16.080  29.010  11.481
86614W        W58940  32.467  12.853  10.584
86615W        W58941  19.716  35.898   2.790
86616W        W58942  17.757  33.410  12.569
86617W        W58943  12.304  20.189  12.089
86618W        W58944   2.324  24.496   3.267
86619W        W58945   4.918  33.067  11.037
86620W        W58946   1.921  13.125   4.263
86621W        W58947  15.753  30.497  10.065
86622W        W58948  39.962  29.430  14.495
86623W        W58949  32.574   1.888   3.224
86624W        W58950  39.465  37.416  14.774
86625W        W58951  16.098  15.806   2.777
86626W        W58952  17.206  22.018  10.616
86627W        W58953   1.891  24.067   5.644
86628W        W58954  27.676  17.789   2.820
86629W        W58955  20.205  24.069  10.602
86630W        W58956  30.650   5.410   3.744
86631W        W58957   6.191  34.106   1.750
86632W        W58958  44.473  42.957   1.386
86633W        W58959  27.457  24.683  11.558
86634W        W58960  10.870  36.554   4.283
86635W        W58961  12.348   0.292  10.533
86636W        W58962  34.490  32.495   4.655
86637W        W58963  22.566   9.659  14.324
86638W        W58964  36.027  30.603  12.428
86639W        W58965  15.094  10.325  14.801
86640W        W58966  39.459  20.113   2.179
86641W        W58967   1.392  14.150  13.805
86642W        W58968   3.894  17.184   1.912
86643W        W58969  31.132  23.544  10.135
86644W        W58970  34.908  18.251   0.425
86645W        W58971  27.448  36.910  12.421
86646W        W58972  44.791  37.565   2.359
86647W        W58973  32.465  41.993  13.984
86648W        W58974  20.253  32.544  14.842
86649W        W58975  32.989   8.803  10.976
86650W        W58976  34.536  16.764   3.786
86651W        W58977  24.123  25.485   3.686
86652W        W58978   3.770  14.226  12.882
86653W        W58979  27.988   2.865  12.933
86654W        W58980   4.783  22.738   3.706
86655W        W58981  11.629  14.133   0.937
86656W        W58982  14.711  29.986   1.821
86657W        W58983  17.584  30.131   0.809
86658W        W58984   9.377  25.558  13.965
86659W        W58985   5.693  41.955   0.430
86660W        W58986  25.552  18.292   4.610
86661W        W58987  16.752   2.738  11.539
86662W        W58988  18.151  21.624  13.400
86663W        W58989   9.674  19.218  14.417
86664W        W58990  21.065  41.495  13.461
86665W        W58991  42.954  32.444   1.211
86666W        W58992  39.409   0.401  10.931
86667W        W58993  36.032  31.040   2.684
86668W        W58994  19.043  19.241  14.842
86669W        W58995  35.931  33.602  11.993
86670W        W58996   5.745  40.833   1.224
86671W        W58997   4.316  36.968  14.388
86672W        W58998  13.837  21.135  11.898
86673W        W58999  13.224  16.742   0.834
86674W        W59000  40.482  10.773   0.380
86675W        W59001  19.541  31.916   0.741
86676W        W59002   4.430  11.836   4.759
86677W        W59003  10.226  28.581  10.953
86678W        W59004  32.480  27.036   1.906
86679W        W59005  42.975  22.223   1.867
86680W        W59006  44.973  38.387   3.272
86681W        W59007  17.557  31.606  12.033
86682W        W59008  17.212  22.009   0.854
86683W        W59009  24.580  35.380   4.784
86684W        W59010  40.448   6.270   1.316
86685W        W59011  17.783   1.238  12.871
86686W        W59012  18.607   6.198   1.283
86687W        W59013   2.308  12.349  10.410
86688W        W59014  43.914  11.352   1.294
86689W        W59015  40.971  41.964  14.350
86690W        W59016  44.932   0.416  14.932
86691W        W59017  20.562  43.950   0.459
86692W        W59018  43.918  26.703  10.532
86693W        W59019  28.022  39.440   4.332
86694W        W59020  22.603  17.169  10.478
86695W        W59021  23.725  28.153  10.900
86696W        W59022   2.242  40.487   3.813
86697W        W59023  16.666  32.598  10.482
86698W        W59024   0.467  43.315   0.484
86699W        W59025   4.344   3.396   0.922
86700W        W59026   9.265  31.132  12.065
86701W        W59027  37.915  40.871   0.884
86702W        W59028  30.598  38.368   3.652
86703W        W59029  42.368  41.340  12.567
86704W        W59030  21.672  24.490   1.399
86705W        W59031  42.440  23.550   4.264
86706W        W59032  43.292  33.539  14.287
86707W        W59033  13.660  40.051  11.517
86708W        W59034  33.105  36.545   1.244
86709W        W59035  18.687  28.491  14.279
86710W        W59036  15.197   6.295   0.344
86711W        W59037  28.092  30.157  12.359
86712W        W59038   1.792  26.974  11.551
86713W        W59039  26.689  37.001  11.966
86714W        W59040   0.301   3.752  13.534
86715W        W59041  18.728   2.345   4.194
86716W        W59042  30.549  25.626   2.703
86717W        W59043  43.809  21.588  11.913
86718W        W59044   9.303  16.785  11.916
86719W        W59045  11.724  32.061  13.439
86720W        W59046  31.463  34.023  14.320
86721W        W59047  30.978  39.927  13.877
86722W        W59048  41.500   6.250  12.385
86723W        W59049  37.497  20.246  11.377
86724W        W59050   6.316  22.561   1.266
86725W        W59051   8.826  42.900  12.517
86726W        W59052  31.604  33.529   1.859
86727W        W59053  16.282  24.058   2.283
86728W        W59054  31.076  39.811   4.284
86729W        W59055  42.461  28.570   1.927
86730W        W59056  35.001  42.880  13.849
86731W        W59057  37.872  18.062   0.966
86732W        W59058  33.430  38.337   4.799
86733W        W59059  41.531   8.885   0.265
86734W        W59060  22.564  32.039   4.352
86735W        W59061  28.987  24.084   1.212
86736W        W59062  17.153  12.314  14.857
86737W        W59063  15.595  10.848   3.163
86738W        W59064  23.623  13.132  13.028
86739W        W59065   4.387   9.328   2.318
86740W        W59066  21.739  34.463   1.358
86741W        W59067   0.762  42.921  13.989
86742W        W59068  25.491   4.238   3.176
86743W        W59069   1.735  23.010  13.473
86744W        W59070  18.776  10.775   4.118
86745W        W59071  43.869   8.655  11.602
86746W        W59072  42.779  34.503   0.875
86747W        W59073   4.879  34.537   2.851
86748W        W59074  12.700  20.104  13.388
86749W        W59075   8.692  32.083   1.379
86750W        W59076  16.144  30.127  12.083
86751W        W59077  18.600  14.664   1.211
86752W        W59078  40.948  10.291  11.498
86753W        W59079  43.380  44.455  11.117
86754W        W59080  28.063  15.218  11.495
86755W        W59081  23.553   8.835   1.842
86756W        W59082  37.390  34.448   1.293
86757W        W59083   3.358  12.718  11.594
86758W        W59084  31.420  19.118  13.006
86759W        W59085  32.025  40.315  11.556
86760W        W59086  22.664  36.013   3.724
86761W        W59087  14.670   7.790   4.113
86762W        W59088  11.807   9.691  11.569
86763W        W59089   4.327   1.876  11.022
86764W        W59090  17.613  27.595  14.345
86765W        W59091  36.923  19.244  14.986
86766W        W59092  31.529  26.578   4.138
86767W        W59093  19.599   9.289  11.078
86768W        W59094  28.590  23.065   2.211
86769W        W59095  15.311   1.843  11.600
86770W        W59096  20.641  36.869  10.602
86771W        W59097  44.374  16.118   3.358
86772W        W59098  26.541  31.102   0.423
86773W        W59099   0.285  25.017   4.633
86774W        W59100   6.815   5.436  14.852
86775W        W59101  11.248   1.783   1.761
86776W        W59102  34.544  24.986   3.282
86777W        W59103  41.800  29.593   1.437
86778W        W59104  16.284  30.016   1.291
86779W        W59105  15.688  14.140  11.573
86780W        W59106  40.884  42.408  14.805
86781W        W59107  14.122   1.742  11.386
86782W        W59108   4.836   1.344  11.564
86783W        W59109  28.498  12.250   0.328
86784W        W59110   3.781   3.225  11.866
86785W        W59111   9.374   0.350  11.484
86786W        W59112  41.331  33.609   4.673
86787W        W59113  30.091  42.456   1.442
86788W        W59114  32.552  36.032  13.980
86789W        W59115  15.671  40.309   4.624
86790W        W59116  33.623  41.989  10.972
86791W        W59117  16.106   9.738  12.578
86792W        W59118  37.944  22.635   9.922
86793W        W59119  27.975  20.260  12.022
86794W        W59120   3.907  21.141  10.022
86795W        W59121  16.236   6.368  10.909
86796W        W59122  42.312   7.213  14.478
86797W        W59123  33.439  38.562   1.313
86798W        W59124   2.889  44.287   1.891
86799W        W59125  16.162  30.598  11.382
86800W        W59126   8.267  29.506  11.017
86801W        W59127  39.534  15.083   3.782
86802W        W59128  15.762   6.281   0.410
86803W        W59129  36.913  31.042   3.373
86804W        W59130  22.091  15.600  13.870
86805W        W59131   8.286  41.414   2.771
86806W        W59132  24.005  34.387  14.513
86807W        W59133  10.650   0.859   3.230
86808W        W59134  29.984   4.822  13.841
86809W        W59135  23.492  20.067  10.605
86810W        W59136   2.448  17.307  12.522
86811W        W59137  32.624  35.524  12.510
86812W        W59138  18.284  31.458   2.382
86813W        W59139  13.337  24.152   3.781
86814W        W59140  29.597  23.545   4.600
86815W        W59141  27.977  20.640   2.865
86816W        W59142  28.987  43.492   0.429
86817W        W59143  35.063  33.440  10.572
86818W        W59144  13.232  25.558   4.192
86819W        W59145  23.096  17.230   5.598
86820W        W59146  14.620  12.180   4.658
86821W        W59147  16.794  37.994  11.982
86822W        W59148   4.874  38.469   3.260
86823W        W59149   0.819  19.653  12.857
86824W        W59150  19.610  16.593  11.881
86825W        W59151  31.478  23.496  13.791
86826W        W59152  18.058  38.071   0.464
86827W        W59153  20.716  24.636  11.062
86828W        W59154   1.479  29.627   0.823
86829W        W59155  21.643  18.698  12.429
86830W        W59156  11.743  28.960  10.580
86831W        W59157  11.755  37.961   3.299
86832W        W59158   8.710  16.722   3.657
86833W        W59159   2.720  14.707   4.281
86834W        W59160  30.605  24.042  13.320
86835W        W59161   1.794  35.482   4.143
86836W        W59162  18.200  31.563  11.565
86837W        W59163  30.063  16.763   1.726
86838W        W59164  39.830  22.684  11.061
86839W        W59165   8.221  34.875  11.127
86840W        W59166  34.604  38.566  12.405
86841W        W59167  30.043  15.585  10.612
86842W        W59168   5.373   9.299  11.012
86843W        W59169  25.490  17.170   1.756
86844W        W59170  22.209  35.391   1.375
86845W        W59171  18.664  12.699  12.370
86846W        W59172  26.033  30.657  12.973
86847W        W59173  15.320   7.817   4.652
86848W        W59174   4.811  12.232   2.740
86849W        W59175  28.636  31.487  12.976
86850W        W59176  42.498  32.485  11.007
86851W        W59177   6.322  25.528  14.352
86852W        W59178  34.017  35.425  10.146
86853W        W59179  37.559  18.245   2.349
86854W        W59180  26.980  25.175  10.627
86855W        W59181  13.710  24.204   0.939
86856W        W59182  27.646  15.685  10.134
86857W        W59183  30.096  38.543   3.248
86858W        W59184  37.388  12.744  12.398
86859W        W59185  36.446  21.129   1.358
86860W        W59186  29.073   5.921   0.955
86861W        W59187   6.770  18.184  13.986
86862W        W59188   8.800   2.904   4.705
86863W        W59189  24.998  16.681   2.698
86864W        W59190  20.030  22.236  10.961
86865W        W59191  40.395  10.696   3.221
86866W        W59192  13.623  15.172  13.372
86867W        W59193  20.760   2.926  11.468
86868W        W59194  35.391   7.877  11.565
86869W        W59195  17.567  26.067  14.422
86870W        W59196  44.914  25.706  11.890
86871W        W59197  24.575  34.921   2.314
86872W        W59198  44.846  26.547   9.959
86873W        W59199  11.224  28.558  10.418
86874W        W59200  43.505  17.231  11.938
86875W        W59201  10.377  33.044  10.604
86876W        W59202  30.470  39.386   2.669
86877W        W59203  21.611  28.012  10.473
86878W        W59204  37.955  17.662  12.467
86879W        W59205  38.532  20.154   0.341
86880W        W59206   4.869  18.763   3.248
86881W        W59207  26.058   0.360  12.000
86882W        W59208  15.085  22.603   1.760
86883W        W59209  41.475  36.415  13.998
86884W        W59210  21.652  35.538  13.803
86885W        W59211  34.394  34.468   4.737
86886W        W59212  13.221  23.560   2.674
86887W        W59213  28.186  29.668   2.720
86888W        W59214  17.622  21.567  14.489
86889W        W59215  25.667   9.359  12.068
86890W        W59216  26.115  22.637  14.310
86891W        W59217  27.617  18.641  14.990
86892W        W59218   7.272  36.867   1.254
86893W        W59219  21.108  25.007  11.410
86894W        W59220  32.416  10.838  12.567
86895W        W59221   1.388  19.271  13.361
86896W        W59222  40.818   2.861  14.881
86897W        W59223  22.077   7.813   1.924
86898W        W59224  38.521  29.161  14.479
86899W        W59225  31.532  26.980  12.459
86900W        W59226  24.069   8.732  12.829
86901W        W59227  19.766  25.019  11.490
86902W        W59228   8.338  40.497  14.837
86903W        W59229  23.630  12.753  14.356
86904W        W59230  43.309  34.581  12.856
86905W        W59231  29.497  15.308   2.239
86906W        W59232  38.338  14.313   1.315
86907W        W59233  12.650  27.457  10.491
86908W        W59234  16.657  19.561   1.900
86909W        W59235  14.250   2.319   1.935
86910W        W59236  34.394  13.807   0.254
86911W        W59237  36.841  22.620   4.235
86912W        W59238  34.484  13.162   0.318
86913W        W59239   3.859  44.278  14.853
86914W        W59240   7.390   5.751  10.533
86915W        W59241   6.810   6.802  13.523
86916W        W59242   0.934  22.554   2.898
86917W        W59243   9.287  24.694   4.306
86918W        W59244  32.604  39.887  10.631
86919W        W59245  43.986  22.013  12.004
86920W        W59246  34.914   2.908  11.522
86921W        W59247  15.635  38.481  11.931
86922W        W59248   8.236   8.870   3.188
86923W        W59249  28.144  13.277  13.810
86924W        W59250   6.373   4.838  14.912
86925W        W59251  11.154  39.509   3.754
86926W        W59252   3.395  24.010  12.580
86927W        W59253  26.665  15.307  11.603
86928W        W59254   5.889   3.357  13.888
86929W        W59255   0.755  43.919  13.334
86930W        W59256  23.126  35.854  13.363
86931W        W59257  21.178  29.589   1.909
86932W        W59258  29.668  32.628   4.700
86933W        W59259  29.951  21.125  12.978
86934W        W59260  22.507   5.830  14.974
86935W        W59261  21.151  31.643  14.451
86936W        W59262  40.001  34.453  10.614
86937W        W59263  14.216  32.142  14.348
86938W        W59264   5.753  21.080  11.496
86939W        W59265   2.898  19.607  13.546
86940W        W59266  32.889   3.256   1.374
86941W        W59267  19.560   7.410  14.492
86942W        W59268  30.958  32.050  13.997
86943W        W59269  29.176  16.753  10.412
86944W        W59270  41.528  16.641   2.681
86945W        W59271  35.503  43.960   4.189
86946W        W59272  19.093  18.628   0.845
86947W        W59273  25.160  29.076  11.873
86948W        W59274  43.899   2.810  14.966
86949W        W59275  14.278  35.473   2.796
86950W        W59276  34.012  28.154  13.951
86951W        W59277   2.830  27.449   0.744
86952W        W59278   8.666  18.243  10.070
86953W        W59279   2.943   2.739   4.690
86954W        W59280   1.411   2.346   2.827
86955W        W59281  40.311  17.243   0.821
86956W        W59282  15.609  42.478   1.382
86957W        W59283  15.323  22.207   0.858
86958W        W59284   1.350  40.915   4.808
86959W        W59285  33.444   3.776  14.420
86960W        W59286  44.990  19.237  12.505
86961W        W59287  42.909  32.560   0.423
86962W        W59288  29.007  24.095   3.799
86963W        W59289  15.669  39.052   5.297
86964W        W59290  42.928  32.998   4.254
86965W        W59291  44.282  43.856  14.453
86966W        W59292  27.669   7.391  12.961
86967W        W59293  33.399  33.518  10.474
86968W        W59294  30.926  28.164   1.818
86969W        W59295  40.453  39.859   3.756
86970W        W59296  26.670   9.695   2.744
86971W        W59297   7.250   0.369  12.982
86972W        W59298   2.360  42.329   0.380
86973W        W59299   7.297   0.362  14.029
86974W        W59300   1.745   7.868  12.093
86975W        W59301   5.754  14.607  14.404
86976W        W59302  29.931  43.827  10.415
86977W        W59303   5.210  35.077  14.400
86978W        W59304  39.823  37.469  10.430
86979W        W59305  16.197   6.820  11.442
86980W        W59306   3.305  32.612   3.377
86981W        W59307  30.035  28.050   2.263
86982W        W59308  17.684  44.976  13.797
86983W        W59309  39.407  10.666   5.576
86984W        W59310  11.692  32.532   1.334
86985W        W59311  17.164  19.710   3.174
86986W        W59312  34.878  36.419   4.342
86987W        W59313  43.453   5.414   0.423
86988W        W59314   9.214  13.218  14.399
86989W        W59315   3.888  20.136   1.388
86990W        W59316  27.559  34.404  13.890
86991W        W59317   1.388   5.381  13.920
86992W        W59318  41.480   0.320  11.055
86993W        W59319   1.290  27.447   2.232
86994W        W59320  26.585  28.061   2.307
86995W        W59321   5.743  30.438  14.020
86996W        W59322  39.022  17.587   2.243
86997W        W59323  34.469   3.318  10.566
86998W        W59324   4.382  16.658   4.126
86999W        W59325  12.253  11.247   4.751
87000W        W59326  18.149  35.567  12.023
87001W        W59327   5.888   5.815  12.969
87002W        W59328  25.217  33.614  11.092
87003W        W59329   4.411  17.619   0.394
87004W        W59330   9.326  23.100   3.199
87005W        W59331  28.079  16.288   0.958
87006W        W59332   1.736  33.908  13.885
87007W        W59333   9.168  18.732  10.556
87008W        W59334  34.056  36.357   4.607
87009W        W59335   1.310  38.498   1.362
87010W        W59336   6.210  19.744   5.179
87011W        W59337  27.985   9.799   1.390
87012W        W59338  18.778  39.972  12.887
87013W        W59339  13.689  10.680   4.726
87014W        W59340   8.275  40.918  11.978
87015W        W59341  33.934   2.360   3.754
87016W        W59342  25.685  15.245  13.873
87017W        W59343   6.238   9.165  10.499
87018W        W59344  29.942  11.150  14.899
87019W        W59345  31.059  31.627   1.705
87020W        W59346  26.589  27.556   2.261
87021W        W59347  37.068   9.282   1.756
87022W        W59348  30.069  33.503   4.605
87023W        W59349  10.815  19.606  14.980
87024W        W59350   3.444  36.886   2.302
87025W        W59351  44.390  18.237   1.303
87026W        W59352  37.578   5.757  12.945
87027W        W59353  29.942   7.196   2.346
87028W        W59354  21.258  33.045  11.536
87029W        W59355   1.310  17.712   2.740
87030W        W59356  37.876   3.726  14.890
87031W        W59357   9.873   1.961  10.423
87032W        W59358   7.864  36.034   4.794
87033W        W59359  24.659   4.934   4.233
87034W        W59360  15.723  24.216   2.271
87035W        W59361  19.628  43.786   4.739
87036W        W59362  29.021  24.512   3.781
87037W        W59363  22.602  21.607  13.422
87038W        W59364   5.327   2.407  13.958
87039W        W59365   2.464  41.525   3.804
87040W        W59366   8.882  38.912   3.643
87041W        W59367  24.618  27.167   4.718
87042W        W59368   5.395  33.987   4.134
87043W        W59369   3.944  41.458   3.177
87044W        W59370  19.742  42.790  12.391
87045W        W59371  32.950  13.656   4.318
87046W        W59372  14.787  22.554  11.910
87047W        W59373  44.948   9.714   0.483
87048W        W59374   1.418  23.665  12.473
87049W        W59375  10.795  10.726   3.845
87050W        W59376  35.508  16.260  12.862
87051W        W59377  10.726  33.603   2.272
87052W        W59378  31.592  38.383  11.557
87053W        W59379  23.096  35.089   2.362
87054W        W59380  33.470   6.211  13.034
87055W        W59381  10.295  20.188   0.351
87056W        W59382   4.899  38.032   3.859
87057W        W59383  14.769  30.552   2.885
87058W        W59384  16.664   9.688   3.203
87059W        W59385   0.460   1.293  11.477
87060W        W59386  31.432  15.804   0.759
87061W        W59387  42.785   3.262   1.928
87062W        W59388  14.286  12.746  14.993
87063W        W59389  26.668  41.372   4.622
87064W        W59390  32.954  41.962  13.903
87065W        W59391   4.858  13.765   0.788
87066W        W59392  31.989  23.650   9.922
87067W        W59393  30.638  17.253  14.886
87068W        W59394   2.458   6.317   1.377
87069W        W59395  21.512  28.535  13.903
87070W        W59396  28.579   2.282   4.291
87071W        W59397   0.468  41.413   0.745
87072W        W59398   9.321  36.550   4.329
87073W        W59399  13.628  39.988   2.236
87074W        W59400  10.173  12.714   2.384
87075W        W59401  44.441   8.195   2.748
87076W        W59402   9.726  13.764  13.521
87077W        W59403  42.476  27.541  14.347
87078W        W59404  34.089  39.453  13.497
87079W        W59405  21.605  14.698  13.942
87080W        W59406  37.558   0.363   1.238
87081W        W59407  33.009  11.842  11.538
87082W        W59408  35.852  18.207  11.975
87083W        W59409  18.072  25.550   0.365
87084W        W59410  40.800  11.264  12.039
87085W        W59411   2.775  13.710   2.376
87086W        W59412  21.583  40.841   2.731
87087W        W59413  42.369  16.716  11.129
87088W        W59414  32.574  36.572  12.434
87089W        W59415   0.861  16.674   0.452
87090W        W59416  35.065  36.041   4.206
87091W        W59417  27.005  32.948  11.012
87092W        W59418  16.158  35.948   1.699
87093W        W59419  31.119  25.102  13.391
87094W        W59420  21.582  28.628   0.816
87095W        W59421  28.148   0.485  13.010
87096W        W59422  13.650  21.037   1.330
87097W        W59423  13.729  42.470   2.220
87098W        W59424   8.341  38.398  12.500
87099W        W59425   0.807  33.425   3.857
87100W        W59426  36.929  20.594  11.566
87101W        W59427  44.001   7.825   0.843
87102W        W59428  40.963   7.901   1.356
87103W        W59429  38.505  12.752   1.723
87104W        W59430   2.345  36.909   3.736
87105W        W59431  32.614  21.157  12.954
87106W        W59432   1.475  30.066  14.310
87107W        W59433  12.755  33.972  12.558
87108W        W59434   2.856   3.801   9.972
87109W        W59435  43.293  36.853   0.460
87110W        W59436  42.989   1.868   1.713
87111W        W59437  21.250  25.016   1.262
87112W        W59438  17.801   6.732  11.026
87113W        W59439   5.288  38.901  14.406
87114W        W59440  29.510  18.267  11.612
87115W        W59441  44.872  42.305  12.346
87116W        W59442  22.597  44.304   3.779
87117W        W59443   0.786  13.665   3.767
87118W        W59444  35.439   3.772   4.797
87119W        W59445  16.760  12.836  13.462
87120W        W59446   7.910  39.922   0.882
87121W        W59447   3.943  20.678   1.390
87122W        W59448  34.017  38.068   2.760
87123W        W59449  14.701  32.088  13.496
87124W        W59450  10.219  15.633   4.161
87125W        W59451   2.907  39.356   4.178
87126W        W59452  20.199  15.814   1.815
87127W        W59453  38.502  22.067   1.254
87128W        W59454  19.064  10.724  10.968
87129W        W59455  13.689  25.073   5.303
87130W        W59456  30.041  42.421  12.918
87131W        W59457  40.408  21.532  13.855
87132W        W59458  42.295  36.507  13.529
87133W        W59459  36.924  28.949   2.405
87134W        W59460  22.721  10.750   2.772
87135W        W59461  19.626   0.463  13.521
87136W        W59462   2.419  21.568  10.098
87137W        W59463  17.302  19.228   3.817
87138W        W59464  19.182  27.063   1.912
87139W        W59465   0.482  34.485   2.735
87140W        W59466  23.720  21.137   0.932
87141W        W59467  20.629  39.912   0.881
87142W        W59468   4.384  30.960   1.909
87143W        W59469  30.491   2.826   2.257
87144W        W59470  27.171  18.553   3.307
87145W        W59471  20.687  34.454  11.560
87146W        W59472   6.329  21.204   0.282
87147W        W59473  23.656   8.278   1.810
87148W        W59474  20.154   9.205  11.040
87149W        W59475   5.267  22.552   4.115
87150W        W59476  12.764   8.679  12.549
87151W        W59477  19.099   2.910  12.509
87152W        W59478  41.917  34.471   1.774
87153W        W59479  33.987  28.094   3.835
87154W        W59480  34.985   3.815  14.909
87155W        W59481   6.346  25.603  12.364
87156W        W59482  20.763   5.760   4.327
87157W        W59483  19.670  33.498  13.020
87158W        W59484  35.866  41.481   4.284
87159W        W59485   9.371   2.365  13.821
87160W        W59486   1.763  11.165  11.482
87161W        W59487   2.471  39.523   0.333
87162W        W59488  22.706  11.210   1.338
87163W        W59489  28.146  37.945  14.999
87164W        W59490  44.283  33.623   2.381
87165W        W59491  29.548  31.577  13.039
87166W        W59492  43.808  30.074  13.386
87167W        W59493  23.220  29.430   4.719
87168W        W59494   3.733  17.582   3.647
87169W        W59495   0.813  41.932   4.651
87170W        W59496   0.472  10.291  13.531
87171W        W59497   6.792  30.959  11.598
87172W        W59498  22.021  36.358   1.730
87173W        W59499  20.550  17.239  13.965
87174W        W59500  23.169   9.148  14.019
87175W        W59501   4.370  36.356   2.222
87176W        W59502   0.890  24.196   4.170
87177W        W59503  33.011  32.026   5.137
87178W        W59504  44.975  39.381  12.343
87179W        W59505  43.781  15.230  14.944
87180W        W59506  14.175   5.229   4.821
87181W        W59507   5.220   0.332  14.364
87182W        W59508  38.433  42.314  14.914
87183W        W59509  32.491  12.798   0.773
87184W        W59510   9.645  21.595   1.277
87185W        W59511   9.390   2.427  10.573
87186W        W59512  20.109  38.529  11.514
87187W        W59513  14.670   3.393   1.879
87188W        W59514  12.687  44.986   3.665
87189W        W59515  39.020   6.209   5.138
87190W        W59516  44.434  23.210  13.796
87191W        W59517   4.324  14.796  12.077
87192W        W59518  28.508   4.337  13.359
87193W        W59519   4.267  27.987   4.201
87194W        W59520  11.209  17.190   3.842
87195W        W59521  33.087  14.133   0.304
87196W        W59522  40.858   9.845   0.473
87197W        W59523  17.621   5.373  12.525
87198W        W59524  28.929  38.958  12.033
87199W        W59525   0.766  33.915  11.058
87200W        W59526  39.893  40.007   4.229
87201W        W59527  10.788  21.060   0.929
87202W        W59528  16.689   5.332  11.380
87203W        W59529   4.239  32.082  13.885
87204W        W59530   3.241  34.545   4.719
87205W        W59531  23.095  11.230  12.435
87206W        W59532   5.360  24.632   0.944
87207W        W59533  27.185   5.754  12.535
87208W        W59534  26.044  29.552  12.953
87209W        W59535  24.712  41.480   4.131
87210W        W59536  29.168  24.228   0.379
87211W        W59537  25.571  30.908  12.989
87212W        W59538  30.597  36.019  11.379
87213W        W59539   5.378  35.016  13.991
87214W        W59540  13.780   2.854   0.873
87215W        W59541   9.889  12.713   2.842
87216W        W59542   0.357  33.468   2.853
87217W        W59543   2.327   2.824  14.329
87218W        W59544   4.745   7.680   0.951
87219W        W59545   7.224   2.795   2.879
87220W        W59546  30.542  22.124  11.429
87221W        W59547  23.084  33.981  13.836
87222W        W59548  25.567  12.327  11.927
87223W        W59549  44.480   2.927   2.755
87224W        W59550  13.756  32.963   5.748
87225W        W59551  42.346  14.260   1.835
87226W        W59552  15.701  38.851   1.404
87227W        W59553  36.894  13.184   0.466
87228W        W59554  25.619  38.438   3.222
87229W        W59555  19.206  35.968  11.873
87230W        W59556  40.038  40.373   1.218
87231W        W59557  18.714   7.309   0.278
87232W        W59558  17.222  11.744   5.225
87233W        W59559  20.559  18.553  14.777
87234W        W59560  10.678  29.024  13.324
87235W        W59561  19.068  33.601   0.334
87236W        W59562  27.588   6.790  11.057
87237W        W59563   7.174  13.178   3.231
87238W        W59564  15.739  10.379   2.299
87239W        W59565  13.109  35.450  10.420
87240W        W59566   9.289  44.796  11.921
87241W        W59567  38.012   0.888  13.054
87242W        W59568  19.077   5.923  11.371
87243W        W59569  10.346  30.985   5.209
87244W        W59570  24.682   8.176  10.500
87245W        W59571  20.214  36.398   2.292
87246W        W59572  40.997  16.653  12.054
87247W        W59573  35.025  38.386   4.262
87248W        W59574  42.938   4.330   0.353
87249W        W59575  44.267   5.865  12.879
87250W        W59576  17.671   5.736  14.330
87251W        W59577  43.442   6.883  11.443
87252W        W59578  37.880  44.909  11.058
87253W        W59579   1.818  40.797   4.226
87254W        W59580   2.432  32.140  12.923
87255W        W59581  21.703   7.882   0.425
87256W        W59582  16.166  42.467  14.333
87257W        W59583   9.270  26.696  14.450
87258W        W59584  34.456  18.684  10.609
87259W        W59585   6.706  43.924   2.827
87260W        W59586  28.573  18.565  13.937
87261W        W59587   6.234  35.395  11.882
87262W        W59588  27.449  29.134  11.539
87263W        W59589  28.176   1.473   2.330
87264W        W59590  30.150  13.661  13.925
87265W        W59591  10.831  20.623   1.929
87266W        W59592   0.929   4.892  10.407
87267W        W59593   5.338   0.253  14.868
87268W        W59594  34.369   9.356  14.456
87269W        W59595  23.178  42.866   2.802
87270W        W59596  36.914  36.497   0.808
87271W        W59597  27.454  19.538  12.465
87272W        W59598  13.162  25.072   3.227
87273W        W59599   9.811  41.403   1.769
87274W        W59600  29.128   9.850   3.183
87275W        W59601   0.417  21.035   0.837
87276W        W59602  16.283  22.116  14.370
87277W        W59603  12.212  20.634   1.813
87278W        W59604  35.420  18.684  11.472
87279W        W59605  29.163  34.508  10.580
87280W        W59606  29.131  30.542   2.315
87281W        W59607  42.802  17.751   3.207
87282W        W59608   2.781  33.420  11.433
87283W        W59609  32.475  22.175   3.380
87284W        W59610  24.554  10.691  13.510
87285W        W59611  12.655   5.693  12.064
87286W        W59612  16.621  41.478   2.805
87287W        W59613  36.388  17.802  12.945
87288W        W59614  40.447  34.091  11.488
87289W        W59615  15.657  40.992   1.272
87290W        W59616  10.660   3.342   2.712
87291W        W59617  24.134  41.912   1.699
87292W        W59618  23.687  23.056  13.009
87293W        W59619  42.892  28.633  11.067
87294W        W59620  37.434   5.859  14.762
87295W        W59621   3.251  24.626   4.811
87296W        W59622  18.726  44.297  14.885
87297W        W59623  39.909  43.388   3.207
87298W        W59624  31.545  43.816  13.996
87299W        W59625  41.347  36.540   4.257
87300W        W59626   5.853  40.847  11.543
87301W        W59627   3.921   2.784   2.832
87302W        W59628   9.188  41.901  10.422
87303W        W59629  23.589  39.829  10.150
87304W        W59630   5.886   6.422  14.980
87305W        W59631  39.883   4.818  13.814
87306W        W59632  26.510  23.172  11.008
87307W        W59633   2.295  19.056  10.465
87308W        W59634  32.565  34.903   3.240
87309W        W59635   1.968  12.691   3.255
87310W        W59636  12.186  15.169   4.163
87311W        W59637  44.454   0.873  12.481
87312W        W59638  43.351  37.912   0.282
87313W        W59639   9.366  41.861   3.297
87314W        W59640   7.264  24.022   4.271
87315W        W59641  35.401   5.241  11.874
87316W        W59642   8.738  36.363  11.519
87317W        W59643  31.640  10.202  12.825
87318W        W59644  20.157  23.149  12.387
87319W        W59645  38.999  24.211   3.307
87320W        W59646  40.387   1.441   2.827
87321W        W59647   6.204  25.178  12.891
87322W        W59648   6.393   9.264   9.942
87323W        W59649   0.968  22.141  14.304
87324W        W59650   5.817   1.389   0.346
87325W        W59651  43.786  32.976  11.000
87326W        W59652  43.850  16.291  14.459
87327W        W59653  29.934  35.438   1.331
87328W        W59654  36.051  33.127   3.153
87329W        W59655  19.661  14.616   3.706
87330W        W59656   1.733  42.524   0.460
87331W        W59657  23.214  44.847  12.384
87332W        W59658  14.214  24.582   9.995
87333W        W59659  18.748  16.665  12.466
87334W        W59660  25.992  15.785   3.798
87335W        W59661  20.050  16.770   2.686
87336W        W59662  35.499  42.397   3.794
87337W        W59663   4.449  18.659  12.977
87338W        W59664  22.573  17.717   1.795
87339W        W59665  39.953   7.811  14.277
87340W        W59666   3.840  14.802   0.290
87341W        W59667   2.468  39.859   3.224
87342W        W59668  38.887  39.982   2.752
87343W        W59669  29.126  33.889   3.329
87344W        W59670  35.358  13.327  11.112
87345W        W59671  22.565   6.822  12.476
87346W        W59672  14.118  42.404  10.414
87347W        W59673  11.803  29.622  11.506
87348W        W59674  10.656  10.327  13.937
87349W        W59675   0.415  22.240   3.746
87350W        W59676  36.463  15.202   2.178
87351W        W59677  24.200  11.802  10.897
87352W        W59678  40.870   2.450   4.316
87353W        W59679  16.143  20.616   4.204
87354W        W59680  35.423  43.355  13.062
87355W        W59681   6.871  38.519   4.288
87356W        W59682  33.537  17.273  14.497
87357W        W59683  17.239  10.769   0.731
87358W        W59684   1.947   0.801   5.149
87359W        W59685  20.582  37.464   3.744
87360W        W59686  38.403  18.174   3.793
87361W        W59687  37.042  40.011   0.258
87362W        W59688  26.983  29.018   4.691
87363W        W59689  25.990   5.909   0.468
87364W        W59690  15.125   2.275  12.989
87365W        W59691  20.631  35.039  14.329
87366W        W59692  11.663  32.398   0.899
87367W        W59693   7.353  38.878   3.742
87368W        W59694  29.035  21.538   1.704
87369W        W59695  32.575  18.150  13.393
87370W        W59696  21.132  39.403   1.382
87371W        W59697  22.566  13.349   1.847
87372W        W59698  16.768  27.071  13.521
87373W        W59699  11.678  26.556  11.557
87374W        W59700  35.468  15.236   1.857
87375W        W59701  22.570  32.910   2.380
87376W        W59702   8.766  28.170  14.363
87377W        W59703   5.851  27.023   0.782
87378W        W59704   2.786  24.066  12.961
87379W        W59705   6.210  43.836  12.396
87380W        W59706   1.271  36.562  11.103
87381W        W59707  43.406  31.070   2.204
87382W        W59708   7.810  10.152  12.941
87383W        W59709  27.582  26.160  10.022
87384W        W59710  10.864  15.131  14.494
87385W        W59711  37.040  21.151   1.407
87386W        W59712  20.601  40.044   1.929
87387W        W59713  40.521  14.735   4.213
87388W        W59714  28.098  21.092  13.427
87389W        W59715   9.303  42.357  14.323
87390W        W59716   6.330  24.489   4.681
87391W        W59717  22.035   8.803   0.847
87392W        W59718  36.432  19.605   4.819
87393W        W59719  26.489   2.905  11.033
87394W        W59720  21.714  25.668  13.530
87395W        W59721  13.274  18.776  13.375
87396W        W59722  24.044  18.557  12.921
87397W        W59723   4.877  41.367  11.900
87398W        W59724  40.981  14.210  11.039
87399W        W59725   0.924  27.979   5.212
87400W        W59726   7.264  43.496   2.857
87401W        W59727  30.034  40.435  11.937
87402W        W59728   0.379   2.857   5.677
87403W        W59729  32.969  21.666  11.899
87404W        W59730  34.439   8.378  11.049
87405W        W59731  30.464  13.240   2.744
87406W        W59732  22.029  32.570  12.842
87407W        W59733  28.942  21.258  13.826
87408W        W59734  32.505   3.348  13.965
87409W        W59735  36.039  29.661  13.352
87410W        W59736  36.566  44.419  10.983
87411W        W59737  34.477  39.461   3.811
87412W        W59738  22.741  28.659  10.909
87413W        W59739  19.611  40.854  11.959
87414W        W59740  42.452  29.570  10.471
87415W        W59741  21.690  14.330  11.484
87416W        W59742  40.990  19.552   3.357
87417W        W59743  36.006  23.161  14.769
87418W        W59744  44.950   5.758   0.419
87419W        W59745  20.600  15.215  10.541
87420W        W59746  26.963  36.424   0.836
87421W        W59747   8.347  31.903  13.860
87422W        W59748   0.772  40.470   0.302
87423W        W59749  33.132   0.391   3.740
87424W        W59750  37.947   9.377   0.886
87425W        W59751   5.230  15.306   4.776
87426W        W59752   3.901  14.592  14.841
87427W        W59753  33.939   9.730   4.742
87428W        W59754  38.329  15.166   4.236
87429W        W59755  14.749  41.299  14.012
87430W        W59756  14.832  29.054  12.952
87431W        W59757  17.131  11.210   1.905
87432W        W59758   1.382   8.277   3.854
87433W        W59759  23.654  10.633   4.784
87434W        W59760  18.703  21.159   1.746
87435W        W59761  13.611  31.626  12.999
87436W        W59762  35.506  36.936  13.489
87437W        W59763   7.783  31.572   1.730
87438W        W59764  20.723   6.787   2.328
87439W        W59765  40.309  44.762  10.613
87440W        W59766   4.441  34.392  11.035
87441W        W59767  39.495  12.651  12.006
87442W        W59768  27.950  18.165  12.534
87443W        W59769  42.446  43.516   0.956
87444W        W59770  35.381  14.329   2.372
87445W        W59771   4.873  15.727  14.402
87446W        W59772  21.213  36.562   4.287
87447W        W59773  38.930  24.039  11.531
87448W        W59774  35.403  21.032  11.023
87449W        W59775  36.015  21.025  13.958
87450W        W59776  13.310   4.218   3.745
87451W        W59777   6.321  19.699  14.365
87452W        W59778  31.085  32.497  13.028
87453W        W59779  24.525  19.061   2.735
87454W        W59780  28.514  19.231  14.026
87455W        W59781  29.575  29.502   4.617
87456W        W59782   1.454   1.827  13.491
87457W        W59783   7.888   7.346   4.744
87458W        W59784   4.225  21.726  13.954
87459W        W59785  12.722   9.781  11.067
87460W        W59786   2.880  42.398  14.800
87461W        W59787   2.731  29.553  12.344
87462W        W59788  12.206  14.743  14.970
87463W        W59789   5.262  43.375   0.414
87464W        W59790  19.625  35.058  12.069
87465W        W59791  22.521  30.931   2.333
87466W        W59792  22.636  31.417  13.957
87467W        W59793  44.316  12.152   2.371
87468W        W59794  11.281  21.055   2.320
87469W        W59795  27.584   3.843  10.461
87470W        W59796  42.439  24.091   1.274
87471W        W59797  20.733   1.867  12.010
87472W        W59798  15.767  33.626  11.077
87473W        W59799  14.226  33.456  12.391
87474W        W59800   1.312  39.018   2.890
87475W        W59801  25.970  31.448  10.430
87476W        W59802  18.725  26.587   0.301
87477W        W59803   3.811   3.837   9.672
87478W        W59804  24.015  30.419  14.880
87479W        W59805  29.054  16.769   4.254
87480W        W59806  28.638  22.025  10.899
87481W        W59807  19.263   3.266  12.368
87482W        W59808  39.489  39.038   3.273
87483W        W59809  11.236  28.676   3.326
87484W        W59810  33.572  30.156   4.744
87485W        W59811  28.483  25.187  14.383
87486W        W59812  32.035  29.924   4.638
87487W        W59813  32.626  28.661   4.322
87488W        W59814  22.549  37.574   5.175
87489W        W59815  12.762   6.696   1.708
87490W        W59816  25.158  38.829   4.798
87491W        W59817  33.412  43.298   3.152
87492W        W59818  18.248  20.562   0.897
87493W        W59819   2.948  39.315  10.989
87494W        W59820   1.248  17.686  13.353
87495W        W59821  38.021  24.188  14.427
87496W        W59822  31.474  43.791  13.352
87497W        W59823  28.456  28.157   3.789
87498W        W59824   2.399  34.397  12.948
87499W        W59825  10.349   7.896   0.262
87500W        W59826  41.357  41.527  10.893
87501W        W59827  11.372  32.449  14.851
87502W        W59828  10.861  35.543   3.273
87503W        W59829   6.212   5.709  10.506
87504W        W59830  22.130  16.608  14.920
87505W        W59831   0.796  44.761   3.736
87506W        W59832  14.627  18.179  12.441
87507W        W59833  16.602  17.075  12.069
87508W        W59834   6.823  30.035   2.199
87509W        W59835   9.282  22.569  14.335
87510W        W59836  14.320  27.681  13.003
87511W        W59837  37.541  22.509  11.054
87512W        W59838  24.075  43.277   0.291
87513W        W59839  28.092   5.894  11.035
87514W        W59840  23.650  29.138   1.226
87515W        W59841  10.760  34.906  14.786
87516W        W59842  44.277  39.391   0.933
87517W        W59843  21.704  20.269   4.315
87518W        W59844  42.837  27.101   0.814
87519W        W59845   1.912   9.389  14.845
87520W        W59846   2.827  31.062   3.682
87521W        W59847   4.249  19.221  13.006
87522W        W59848  23.059   8.865  14.291
87523W        W59849   7.182  10.711  13.896
87524W        W59850  39.429  22.738  13.035
87525W        W59851   6.428  25.023   4.798
87526W        W59852   9.354  41.916  13.373
87527W        W59853  44.364  29.071  10.148
87528W        W59854   8.205  39.922  11.493
87529W        W59855   8.771  30.598   4.693
87530W        W59856  25.553  14.109   2.743
87531W        W59857  43.964   6.388   1.440
87532W        W59858  27.642  39.352  10.617
87533W        W59859  44.387  25.489   4.253
87534W        W59860  37.537  33.589   3.650
87535W        W59861  43.394  37.582   0.333
87536W        W59862   3.932  31.616  10.964
87537W        W59863   2.470  12.709   2.902
87538W        W59864  19.561  21.148   4.806
87539W        W59865  12.117  31.021  13.460
87540W        W59866  17.563  21.104  10.424
87541W        W59867  27.676  12.612  13.398
87542W        W59868   7.238   6.821   2.899
87543W        W59869   3.325  25.632   4.229
87544W        W59870  38.905  30.921  11.419
87545W        W59871  30.545  32.476  13.883
87546W        W59872  27.032  23.666  12.847
87547W        W59873  25.141  26.491  14.286
87548W        W59874  30.453  42.368  10.426
87549W        W59875  15.700  16.101   1.769
87550W        W59876  13.348  19.538   0.738
87551W        W59877  18.545   8.821   4.279
87552W        W59878   1.266  15.757  13.533
87553W        W59879  44.459  35.080   2.857
87554W        W59880  33.538   6.828   0.873
87555W        W59881  17.641   5.335   2.834
87556W        W59882  11.733  41.407   0.944
87557W        W59883   0.336  11.326  12.531
87558W        W59884  10.166   1.972   4.787
87559W        W59885  36.011  14.268  11.882
87560W        W59886  11.840  21.600   3.377
87561W        W59887  10.876  34.459   1.751
87562W        W59888   1.902   8.859   1.802
87563W        W59889  26.642  44.835   2.272
87564W        W59890   0.772  18.575   1.441
87565W        W59891  44.440  22.199  12.907
87566W        W59892  35.412  23.227  13.489
87567W        W59893  32.927  44.327  13.375
87568W        W59894  26.541  20.643   3.354
87569W        W59895  44.439  38.971  10.127
87570W        W59896  44.918  20.087   0.390
87571W        W59897  37.029  18.106   0.856
87572W        W59898  11.826  36.430  12.841
87573W        W59899  19.715  11.348  13.318
87574W        W59900  14.156  14.288   9.990
87575W        W59901  23.215  10.770   3.221
87576W        W59902  15.131  14.297   3.382
87577W        W59903  33.472  25.184  10.015
87578W        W59904  22.220  25.554   0.906
87579W        W59905  26.093  43.806  11.602
87580W        W59906  36.395   0.344   1.409
87581W        W59907  22.193  39.853   9.587
87582W        W59908  21.632  44.292   3.230
87583W        W59909  23.621  10.687  10.612
87584W        W59910  36.954  10.358   0.411
87585W        W59911  25.644  37.342  11.472
87586W        W59912  18.767  12.703  13.002
87587W        W59913  15.291  35.883  12.843
87588W        W59914  25.066  26.487  11.052
87589W        W59915  44.777  42.791  12.069
87590W        W59916   5.228  34.025   3.749
87591W        W59917  27.660  10.276   3.700
87592W        W59918  22.037  39.813  12.482
87593W        W59919  22.570  34.876   4.203
87594W        W59920  37.933  13.736  12.463
87595W        W59921  26.030   8.399   3.860
87596W        W59922  38.341   8.859  10.616
87597W        W59923   8.380  16.082  12.507
87598W        W59924  33.060  43.435   4.141
87599W        W59925  22.147  40.358   1.233
87600W        W59926  27.507  25.007   1.714
87601W        W59927  28.946  21.134   3.859
87602W        W59928  12.672  32.453  13.470
87603W        W59929  18.676  13.712   2.690
87604W        W59930   3.757  41.350  13.346
87605W        W59931  39.977  24.586   1.219
87606W        W59932  14.270   1.785   0.729
87607W        W59933   9.643   5.432  13.875
87608W        W59934  23.049  42.475  14.796
87609W        W59935  34.906  33.003  11.383
87610W        W59936  33.602  24.981  13.882
87611W        W59937  42.955  12.134   0.397
87612W        W59938  44.448  43.870   1.755
87613W        W59939   5.720  22.707   4.175
87614W        W59940  41.434  19.223   2.301
87615W        W59941   7.838  32.597  10.955
87616W        W59942  32.977  27.036  11.543
87617W        W59943  43.880  39.483   2.672
87618W        W59944   9.686   2.818   0.792
87619W        W59945  44.780  24.682   4.234
87620W        W59946  43.899  22.054   4.630
87621W        W59947  44.906  13.210   4.191
87622W        W59948  27.122   6.738   0.855
87623W        W59949  20.740  32.455  14.346
87624W        W59950  28.573   2.304   0.287
87625W        W59951  23.163  37.486   4.275
87626W        W59952  26.648  14.827   0.760
87627W        W59953  44.404  39.496   2.900
87628W        W59954  31.011  22.158   1.751
87629W        W59955  40.432  37.504   3.721
87630W        W59956   1.473  39.980  13.429
87631W        W59957  41.899  19.776  13.520
87632W        W59958  39.899  11.212   0.314
87633W        W59959   7.205   6.709  12.888
87634W        W59960  21.757  40.404  10.503
87635W        W59961  44.864  16.306   3.364
87636W        W59962  19.065   1.386   2.254
87637W        W59963  39.045   6.221   3.718
87638W        W59964   3.268   1.949   5.613
87639W        W59965  12.290  22.072  14.861
87640W        W59966  17.602  23.233  14.511
87641W        W59967  39.997  18.714  13.944
87642W        W59968  36.856  18.209   2.816
87643W        W59969  15.299  40.331   4.155
87644W        W59970  29.608   6.756  10.413
87645W        W59971   3.884  17.635   4.311
87646W        W59972  13.780  18.578  13.982
87647W        W59973  33.567  12.263   1.720
87648W        W59974  40.348  20.274   1.396
87649W        W59975  29.918  35.937   1.910
87650W        W59976  29.536   6.731  13.822
87651W        W59977  41.908  16.573  12.507
87652W        W59978   5.272  39.848   3.737
87653W        W59979  12.717  43.769   2.402
87654W        W59980  11.692  33.036   3.688
87655W        W59981  22.084   0.418  13.811
87656W        W59982  18.687  15.639   4.803
87657W        W59983  37.365   0.306  10.091
87658W        W59984  18.240  25.619   4.718
87659W        W59985  43.359   4.708  10.527
87660W        W59986  23.178  37.460   5.768
87661W        W59987  34.495   8.840   0.341
87662W        W59988  28.128  24.165  11.526
87663W        W59989   6.380   2.830   2.280
87664W        W59990   3.348  31.635   1.433
87665W        W59991  33.995  12.647   2.326
87666W        W59992  24.561  27.519  13.459
87667W        W59993  31.963  10.144  10.049
87668W        W59994  12.821  26.119   0.272
87669W        W59995  43.479  23.549   0.800
87670W        W59996  31.903   6.723   1.820
87671W        W59997  39.865  33.502  10.476
87672W        W59998  34.049  12.240   1.341
87673W        W59999  26.565  26.960   3.289
87674W        W60000  14.193   5.315   2.869
87675W        W60001   7.270  11.272  10.454
87676W        W60002  14.180  17.074  11.895
87677W        W60003  27.985  22.714   4.243
87678W        W60004  27.596  14.768  12.075
87679W        W60005  24.678  39.985  14.500
87680W        W60006  29.512  43.326  13.543
87681W        W60007  44.794  18.745   4.288
87682W        W60008  41.040  29.451   4.709
87683W        W60009  37.496  30.138   1.772
87684W        W60010  19.730  21.634   2.334
87685W        W60011  17.153  18.174  13.338
87686W        W60012  22.611   7.284   3.689
87687W        W60013  37.461  43.421  11.107
87688W        W60014  24.146  33.446   4.255
87689W        W60015  11.816  39.504  14.342
87690W        W60016  36.474  43.455  11.419
87691W        W60017  19.168  10.343  13.539
87692W        W60018  11.323   6.334   4.759
87693W        W60019  28.979  43.991   2.326
87694W        W60020  28.564  31.573  10.922
87695W        W60021  16.150  31.448   3.844
87696W        W60022  26.111  19.153   1.705
87697W        W60023  13.181  44.996   1.876
87698W        W60024  39.056  23.602   0.255
87699W        W60025  20.156  25.086  14.952
87700W        W60026  38.973  39.893  13.023
87701W        W60027  44.864  18.102  14.773
87702W        W60028   4.903  28.511  13.958
87703W        W60029  10.228   3.359  13.320
87704W        W60030  41.411  36.581  11.551
87705W        W60031  21.097  11.747   4.191
87706W        W60032   7.701  40.340  10.561
87707W        W60033  38.053   0.264  12.498
87708W        W60034  16.577  22.015   1.808
87709W        W60035  25.116  10.213   0.275
87710W        W60036  30.088   7.826   1.267
87711W        W60037  17.573   8.742  14.428
87712W        W60038  42.826  27.449   3.661
87713W        W60039  25.009   5.280   3.270
87714W        W60040   7.694  17.105   5.246
87715W        W60041  28.662  36.361   2.349
87716W        W60042  29.635  14.307  13.388
87717W        W60043  39.004  11.686  14.016
87718W        W60044   3.446  10.217   3.365
87719W        W60045  11.824  31.074   0.873
87720W        W60046   0.966  29.956   2.361
87721W        W60047  29.950  24.725  14.407
87722W        W60048   2.743  26.035   2.721
87723W        W60049  12.252  26.199   3.701
87724W        W60050  19.279   5.372   0.844
87725W        W60051  41.294  33.612   5.249
87726W        W60052   7.912  17.601   2.260
87727W        W60053  44.011  43.477   4.604
87728W        W60054  34.906  32.994   0.354
87729W        W60055  35.084  23.986   1.717
87730W        W60056  32.970  36.521  11.015
87731W        W60057  38.395  22.116  10.438
87732W        W60058   0.297  40.485  11.122
87733W        W60059  12.171  43.448   1.912
87734W        W60060   5.847  36.986  11.932
87735W        W60061  26.041   3.353   3.243
87736W        W60062  43.005  15.222   2.847
87737W        W60063  39.520  25.019  11.025
87738W        W60064  12.719  27.595  11.609
87739W        W60065  11.287  29.611  13.833
87740W        W60066  14.630   8.770   2.857
87741W        W60067   3.842  15.777   4.323
87742W        W60068   0.787  33.531   2.323
87743W        W60069  29.535   6.230   3.153
87744W        W60070  31.022  37.560   5.111
87745W        W60071  36.900  24.484  13.996
87746W        W60072  44.823  15.320   3.323
87747W        W60073   0.363   4.319   3.309
87748W        W60074  24.564   5.386   3.650
87749W        W60075  27.057  20.118  11.911
87750W        W60076   3.734   1.928   0.390
87751W        W60077  19.115  10.269  12.083
87752W        W60078  17.125   1.832  13.392
87753W        W60079   2.376  36.496   1.226
87754W        W60080  41.357  23.183  14.839
87755W        W60081  26.989  14.144   4.309
87756W        W60082   2.345  14.700   2.217
87757W        W60083  33.384  37.432  14.915
87758W        W60084   7.752  35.867   3.172
87759W        W60085  15.317  41.508  11.577
87760W        W60086  21.145  36.032   4.276
87761W        W60087  22.510  19.737  12.077
87762W        W60088  12.250  31.051   4.744
87763W        W60089  27.655  41.014   0.777
87764W        W60090  30.958  18.760   4.602
87765W        W60091  28.612  35.506  13.900
87766W        W60092  18.633   4.742  10.090
87767W        W60093  21.261  20.145  14.782
87768W        W60094  34.927  33.449   1.400
87769W        W60095  32.045  36.512  11.102
87770W        W60096   7.380   4.919   1.250
87771W        W60097  12.731  12.722  13.514
87772W        W60098  21.658   6.881   3.356
87773W        W60099   3.251  25.098   0.729
87774W        W60100   2.251  38.863  12.426
87775W        W60101   4.884   9.294   1.929
87776W        W60102  20.154  17.230   4.134
87777W        W60103  22.047   1.781   1.390
87778W        W60104  39.529  14.322  12.977
87779W        W60105  24.560   1.921  11.397
87780W        W60106  36.917  15.790   4.213
87781W        W60107   2.960  24.158   9.646
87782W        W60108  34.501  25.607  11.514
87783W        W60109   0.767   8.212  14.916
87784W        W60110  34.506  37.389   4.782
87785W        W60111  25.208  21.092  11.475
87786W        W60112  19.104  11.219  14.446
87787W        W60113  28.539  25.667  11.091
87788W        W60114  38.946  15.310  12.546
87789W        W60115  13.189  42.005  11.406
87790W        W60116  27.096  17.257   3.775
87791W        W60117  32.023  31.898   3.666
87792W        W60118  40.931  43.429   0.751
87793W        W60119   6.398   8.805  11.386
87794W        W60120   8.678  16.137   1.332
87795W        W60121  17.648  35.460  12.523
87796W        W60122  31.936   4.311  14.949
87797W        W60123  34.009  38.004   1.720
87798W        W60124  32.949  29.510   0.377
87799W        W60125  36.992  35.384  10.452
87800W        W60126  32.416  15.743  10.437
87801W        W60127  30.158  37.561  14.308
87802W        W60128  41.537  13.202   4.758
87803W        W60129  30.540  26.109   1.706
87804W        W60130  21.234  20.708  13.849
87805W        W60131  30.159  36.878  14.817
87806W        W60132  10.379  11.331  13.835
87807W        W60133  39.011  13.193  14.023
87808W        W60134   4.714  29.092   4.168
87809W        W60135  25.118  29.546  14.792
87810W        W60136  29.457  38.067   2.373
87811W        W60137   9.186  21.102  14.947
87812W        W60138  42.021  19.042   0.877
87813W        W60139  13.843  19.227  14.780
87814W        W60140   9.327  39.534   3.829
87815W        W60141  30.547  36.050   2.221
87816W        W60142  22.737  23.239  14.784
87817W        W60143  36.030  10.267   1.850
87818W        W60144  35.459  21.570   1.445
87819W        W60145  24.984   2.839  14.964
87820W        W60146  42.402  39.541   0.749
87821W        W60147   8.283  24.142  11.408
87822W        W60148   0.414  22.648   2.766
87823W        W60149  25.479   2.792  12.919
87824W        W60150  17.125  29.556  12.849
87825W        W60151  36.356  16.708   0.779
87826W        W60152  30.914  36.947   1.264
87827W        W60153  25.713   1.325   3.255
87828W        W60154   5.853   4.845   1.853
87829W        W60155  38.968  42.911  13.533
87830W        W60156  21.736  24.494  13.989
87831W        W60157   0.965  27.057  13.933
87832W        W60158  37.434  26.082   4.330
87833W        W60159  21.169  39.512  14.877
87834W        W60160  25.550   5.220   0.301
87835W        W60161  26.695  22.728   1.696
87836W        W60162  14.660  25.485   9.956
87837W        W60163  28.668  29.002   1.304
87838W        W60164  44.286  30.920   3.814
87839W        W60165   9.876  39.024   2.772
87840W        W60166   3.315  41.810   1.366
87841W        W60167  15.215   0.847  13.049
87842W        W60168  24.717  40.907   1.845
87843W        W60169  40.385  42.344   0.294
87844W        W60170  32.518  30.156   0.897
87845W        W60171  35.385   8.169   3.155
87846W        W60172  37.055  10.178  11.113
87847W        W60173  41.005  38.827  10.449
87848W        W60174  18.143  29.079   0.798
87849W        W60175  27.970   6.702   3.797
87850W        W60176  27.527  13.839   4.310
87851W        W60177  28.172  13.182   4.671
87852W        W60178  39.988  13.108   4.159
87853W        W60179  40.362   7.247  13.007
87854W        W60180  10.637   4.835   4.297
87855W        W60181  33.928  41.908   3.368
87856W        W60182   0.325   4.207   0.265
87857W        W60183  41.400   8.223  14.917
87858W        W60184  27.536  37.399   4.185
87859W        W60185  23.210   4.789  11.468
87860W        W60186  14.323  38.918   0.945
87861W        W60187   4.723  34.008   2.707
87862W        W60188  12.326  23.225   2.212
87863W        W60189   0.356   4.719  13.970
87864W        W60190  28.011  36.865   2.692
87865W        W60191  13.223  21.701   1.414
87866W        W60192  28.499  43.787   2.667
87867W        W60193  26.655   4.289  11.961
87868W        W60194  20.061  15.209  12.505
87869W        W60195  13.183   1.435  11.864
87870W        W60196  32.469  11.770   2.265
87871W        W60197  10.324  12.614   4.312
87872W        W60198  35.412  14.165  11.040
87873W        W60199  36.961  12.855  14.515
87874W        W60200  17.152  17.583   9.932
87875W        W60201  33.588  34.955   0.455
87876W        W60202  14.727  14.274  13.801
87877W        W60203  14.643  22.677  12.902
87878W        W60204  39.983   1.386   2.689
87879W        W60205  11.745  37.497  13.528
87880W        W60206  17.064  42.474  10.447
87881W        W60207   3.955  28.122  14.380
87882W        W60208  44.970  33.011  13.011
87883W        W60209  22.513  22.076  10.124
87884W        W60210  15.595   4.719  13.936
87885W        W60211  13.210  25.119   2.679
87886W        W60212  16.770   9.664  14.495
87887W        W60213  22.671  26.175   0.874
87888W        W60214  16.190  37.440  12.053
87889W        W60215  16.087   2.781  12.349
87890W        W60216   7.798  21.156  12.939
87891W        W60217  14.194  34.575  12.939
87892W        W60218  16.146   9.367  11.945
87893W        W60219  18.273   0.855   4.812
87894W        W60220  34.589   6.914   3.207
87895W        W60221  34.918  25.536  11.397
87896W        W60222  12.756   4.385  10.555
87897W        W60223   9.728  38.991  14.012
87898W        W60224  11.648   6.199   4.677
87899W        W60225  12.120  44.778   1.254
87900W        W60226  16.250   3.773  14.023
87901W        W60227  40.358  43.954  11.561
87902W        W60228   8.230  35.406  11.005
87903W        W60229  19.202   6.202   1.766
87904W        W60230   8.772  12.707   4.172
87905W        W60231  34.925  44.865   4.138
87906W        W60232  20.589  31.565   4.830
87907W        W60233  38.851   9.795  14.409
87908W        W60234   3.390  16.154   1.212
87909W        W60235  41.826  35.933   4.671
87910W        W60236   1.885  36.997   4.837
87911W        W60237  33.909   4.758   0.909
87912W        W60238   0.298  22.679   4.635
87913W        W60239  12.628   6.703   0.754
87914W        W60240  29.128  39.507   4.696
87915W        W60241  16.789  34.382   1.278
87916W        W60242  44.268  10.849  13.831
87917W        W60243  28.443  34.435   1.737
87918W        W60244  13.107  32.461  13.340
87919W        W60245  33.556  27.081  12.050
87920W        W60246  23.653  42.794  11.515
87921W        W60247   7.902  22.597  12.062
87922W        W60248  13.168  43.802  14.860
87923W        W60249  22.576  41.873   4.702
87924W        W60250  39.518   6.733   1.324
87925W        W60251  25.558  31.056  11.942
87926W        W60252  34.580  33.123  13.372
87927W        W60253   9.333   3.353   2.859
87928W        W60254   7.415  36.846  11.586
87929W        W60255  25.616   9.370   4.604
87930W        W60256   2.753  30.646   4.785
87931W        W60257  31.458  29.144  14.775
87932W        W60258   4.808   2.743   3.755
87933W        W60259  16.170   2.792  12.830
87934W        W60260  43.299  37.371   4.281
87935W        W60261  31.415  15.603  13.870
87936W        W60262  17.561  30.996   3.700
87937W        W60263   7.378   3.350  10.622
87938W        W60264  11.150  26.681  10.549
87939W        W60265  31.930   4.929   3.338
87940W        W60266   9.189  21.042   4.801
87941W        W60267   8.224  38.044   2.746
87942W        W60268  30.934  20.257   3.178
87943W        W60269  38.826  30.420  14.882
87944W        W60270   0.760  26.171  11.123
87945W        W60271  42.837  39.036   3.762
87946W        W60272  19.731  43.443   0.292
87947W        W60273  31.589  32.116   4.315
87948W        W60274   5.815  28.645   1.907
87949W        W60275  18.721  32.451  11.450
87950W        W60276   4.232  32.099  10.099
87951W        W60277  16.645  34.874   0.777
87952W        W60278   3.945  36.355   1.316
87953W        W60279  37.974  40.420  14.322
87954W        W60280  43.817  42.504  13.019
87955W        W60281   4.762  25.688   1.354
87956W        W60282  30.006  15.298   1.278
87957W        W60283  35.444  11.720  12.380
87958W        W60284  21.727   9.719  14.294
87959W        W60285  19.739  38.828  13.532
87960W        W60286  10.755  43.301  11.481
87961W        W60287  35.521  27.076  12.050
87962W        W60288   1.418  44.451   0.443
87963W        W60289  33.937   5.352  12.494
87964W        W60290   9.768  34.957  13.992
87965W        W60291  29.134  35.508   3.333
87966W        W60292  19.150  26.981  11.094
87967W        W60293   8.198   4.746  11.410
87968W        W60294   6.751  18.143  14.422
87969W        W60295   1.478  16.081   4.623
87970W        W60296  17.636   8.217  12.377
87971W        W60297   9.886  33.022  13.798
87972W        W60298  18.770  11.746  13.457
87973W        W60299  14.731  13.702  11.479
87974W        W60300  31.425   8.167  12.900
87975W        W60301  38.048  18.721   3.865
87976W        W60302  31.482   6.364   1.924
87977W        W60303   9.688   0.435   0.869
87978W        W60304  23.491  25.992   1.836
87979W        W60305  33.435  21.255  14.286
87980W        W60306  33.507  32.886   1.370
87981W        W60307  18.074   0.426   0.842
87982W        W60308  13.764  34.065   0.417
87983W        W60309  42.969  34.983  10.918
87984W        W60310   6.271  12.612   4.189
87985W        W60311  15.598  34.435  14.893
87986W        W60312   8.816  28.511   4.702
87987W        W60313  19.106   2.860  13.035
87988W        W60314   6.296  38.488  11.451
87989W        W60315  29.638  18.177  11.069
87990W        W60316  39.933  17.666   4.637
87991W        W60317  44.833  35.456  14.284
87992W        W60318  34.967  40.317   2.779
87993W        W60319  28.502  15.087   2.262
87994W        W60320  32.066  42.939  12.065
87995W        W60321  32.934  30.136  14.436
87996W        W60322  26.955  32.466  12.409
87997W        W60323   1.938   1.856   3.363
87998W        W60324  13.298  17.127   0.775
87999W        W60325   1.754  16.592  11.436
88000W        W60326  40.509  32.473   3.852
88001W        W60327  36.441  12.242  13.040
88002W        W60328   1.464  12.240  13.428
88003W        W60329  44.869  12.761  11.529
88004W        W60330  39.558  32.041   2.236
88005W        W60331  44.290  14.242  14.349
88006W        W60332  23.592  24.682   2.835
88007W        W60333  42.915   8.171   3.365
88008W        W60334  43.508  11.254   2.703
88009W        W60335   4.777  25.663   1.917
88010W        W60336  21.541  12.768  14.857
88011W        W60337  12.219  30.164  13.473
88012W        W60338  33.569  24.158  12.481
88013W        W60339  43.292   4.901  12.345
88014W        W60340  24.018  31.519   0.830
88015W        W60341   0.784  22.999   5.721
88016W        W60342  15.223  13.632  11.491
88017W        W60343   8.757  26.141   3.188
88018W        W60344  12.274  38.533   3.692
88019W        W60345  39.041   2.760   1.358
88020W        W60346  32.116  37.870   3.833
88021W        W60347  44.840  15.731   1.809
88022W        W60348  23.091  41.373   1.775
88023W        W60349  28.555  38.008  11.044
88024W        W60350   9.857   0.281  13.853
88025W        W60351   2.768  22.534  13.415
88026W        W60352   9.184  16.606  13.530
88027W        W60353  19.548  32.430   2.884
88028W        W60354   8.219   7.329  14.363
88029W        W60355   9.228   3.893   2.693
88030W        W60356  11.362   2.418  14.409
88031W        W60357   3.945  34.059   3.636
88032W        W60358  21.610  26.044  13.883
88033W        W60359  30.479  34.041   3.847
88034W        W60360  26.586  26.536   1.378
88035W        W60361  38.040  44.790  14.367
88036W        W60362  26.016  29.477   4.776
88037W        W60363  26.060  16.669   2.780
88038W        W60364   4.236  25.570  14.809
88039W        W60365   2.315   0.828  10.148
88040W        W60366   5.236  16.244  11.002
88041W        W60367  16.197  12.193   3.821
88042W        W60368  37.037  20.667   0.959
88043W        W60369   0.329  21.740   3.153
88044W        W60370  29.463  34.568  13.345
88045W        W60371  27.608  18.113  10.897
88046W        W60372  40.463   2.458   1.228
88047W        W60373  14.726   4.430  10.918
88048W        W60374  27.530  20.239   1.846
88049W        W60375  18.729  39.031  10.607
88050W        W60376  10.196  22.214   3.332
88051W        W60377  30.114  42.474   4.768
88052W        W60378  41.455  24.703   3.161
88053W        W60379  11.839  30.161  14.454
88054W        W60380  12.640  41.480  13.851
88055W        W60381  31.100  14.634  12.471
88056W        W60382  27.992  35.924  10.925
88057W        W60383  30.505   0.909  11.533
88058W        W60384  15.794   7.234  12.463
88059W        W60385  25.046  19.640   3.155
88060W        W60386  35.963   6.868   1.327
88061W        W60387  35.533  17.612   2.884
88062W        W60388  16.216  43.978   4.286
88063W        W60389  10.352  21.688  14.970
88064W        W60390  27.628  22.548  12.447
88065W        W60391  16.628  37.978  14.937
88066W        W60392  24.125  16.769   1.440
88067W        W60393   2.759   0.388  12.572
88068W        W60394  25.500  35.512  11.859
88069W        W60395  24.689  36.930  11.485
88070W        W60396   3.381   8.744   3.858
88071W        W60397   5.200  12.812  11.571
88072W        W60398  22.542  12.641   3.167
88073W        W60399   1.321  29.964  14.892
88074W        W60400   1.902  12.254  10.494
88075W        W60401  41.399  11.285   3.191
88076W        W60402  29.423  42.497  13.320
88077W        W60403  43.912  10.818   1.806
88078W        W60404  21.185  25.665   4.658
88079W        W60405   1.345   2.805   2.373
88080W        W60406  26.171  31.978  12.070
88081W        W60407  16.587  33.906  12.927
88082W        W60408  34.522  18.244  12.964
88083W        W60409  11.319  25.040  13.406
88084W        W60410  11.232   9.674   4.318
88085W        W60411  25.037  25.131   3.778
88086W        W60412  28.039  20.739  13.318
88087W        W60413  37.446  27.953   0.796
88088W        W60414  41.986  26.630  10.450
88089W        W60415  39.482  32.015  14.882
88090W        W60416  33.407  37.356  13.350
88091W        W60417   1.370   2.940  11.381
88092W        W60418  37.969  13.790  13.991
88093W        W60419  19.266  27.193  13.414
88094W        W60420  27.943   2.401  10.621
88095W        W60421  44.319  11.862   1.405
88096W        W60422   8.364  34.412  14.865
88097W        W60423   9.259  12.643   0.275
88098W        W60424  28.500  19.137  12.516
88099W        W60425  27.531  13.768   1.296
88100W        W60426  15.150  32.979   0.454
88101W        W60427  42.793   5.913  14.018
88102W        W60428   6.223  14.737   2.321
88103W        W60429  37.340  16.288   2.705
88104W        W60430  41.486  16.166  14.993
88105W        W60431  19.047  37.394  14.495
88106W        W60432   0.312  30.630   4.353
88107W        W60433  27.138  43.422  14.308
88108W        W60434  30.593   4.439   3.352
88109W        W60435   7.763  44.353  13.431
88110W        W60436  38.365  33.474   2.776
88111W        W60437  26.554   2.303   1.279
88112W        W60438  42.312  41.911  14.471
88113W        W60439  33.558   8.380   0.449
88114W        W60440  38.011  41.497   3.739
88115W        W60441  19.061   7.670  12.377
88116W        W60442  36.045  24.111  12.401
88117W        W60443  35.578   5.894   3.843
88118W        W60444  22.018   8.318   1.361
88119W        W60445  11.215  17.607  13.029
88120W        W60446  13.843  17.146   0.738
88121W        W60447  36.542  20.542   3.327
88122W        W60448  26.182  27.579   0.747
88123W        W60449   9.229  40.824   4.235
88124W        W60450  37.975   8.223  11.607
88125W        W60451  20.161  10.843  14.875
88126W        W60452  42.409  26.011  14.456
88127W        W60453   3.352  21.637   0.336
88128W        W60454   6.919   7.242   0.855
88129W        W60455  23.063   9.339   2.318
88130W        W60456  34.019  20.763  10.613
88131W        W60457  33.464  13.110  14.490
88132W        W60458  32.011  30.588   1.253
88133W        W60459  28.000  28.486   5.669
88134W        W60460  37.061  29.584  13.335
88135W        W60461   8.215  13.110   2.249
88136W        W60462  36.488  36.982   4.666
88137W        W60463   9.366  34.879  12.343
88138W        W60464  14.599   8.687  11.916
88139W        W60465  22.539  44.283  14.016
88140W        W60466  31.643   4.318   4.756
88141W        W60467  17.101  44.770   2.345
88142W        W60468  34.483   2.847  11.086
88143W        W60469  23.582  10.687   1.324
88144W        W60470   1.836  28.452  12.063
88145W        W60471  43.438  18.257  14.307
88146W        W60472  34.964  16.259  10.444
88147W        W60473   2.774  26.553  13.522
88148W        W60474  43.369  17.617   2.297
88149W        W60475  21.144   6.748   4.353
88150W        W60476   5.299  19.159  10.522
88151W        W60477  31.497   9.857  12.824
88152W        W60478   7.789  20.201  12.455
88153W        W60479   5.722   4.871   2.244
88154W        W60480  43.782  19.185   3.681
88155W        W60481  34.400  17.668  13.938
88156W        W60482   9.395  40.529  10.485
88157W        W60483  25.199  25.594  12.422
88158W        W60484  17.282  23.513   4.347
88159W        W60485  34.109   9.863   3.774
88160W        W60486  33.062  38.421  13.965
88161W        W60487  44.462  29.561   1.809
88162W        W60488  39.412  15.770  10.958
88163W        W60489  14.827  23.228   1.286
88164W        W60490  23.543   8.886   2.683
88165W        W60491   4.825  33.876  11.968
88166W        W60492  40.521   0.327   1.895
88167W        W60493   7.213  20.238   4.682
88168W        W60494  42.958  35.930  12.460
88169W        W60495  17.105  39.536   1.851
88170W        W60496  34.974  10.155  12.999
88171W        W60497  26.517   1.886  11.493
88172W        W60498  21.065  30.093   1.234
88173W        W60499   5.736   6.428  11.568
88174W        W60500  23.598  24.534  13.488
88175W        W60501  34.886  44.420  12.565
88176W        W60502   6.250  42.341   1.898
88177W        W60503  11.307  15.296  11.126
88178W        W60504  21.232  28.548   0.316
88179W        W60505  16.201   1.289  12.469
88180W        W60506   7.684  44.973   3.343
88181W        W60507  21.035  38.377   2.747
88182W        W60508  20.175   8.677  10.469
88183W        W60509  16.108   1.390   3.338
88184W        W60510  29.521  14.626  13.513
88185W        W60511  31.572  17.699   4.779
88186W        W60512   6.696  39.876   3.810
88187W        W60513  22.685  35.537  14.006
88188W        W60514  30.953   4.370   3.681
88189W        W60515  35.372   9.319  11.524
88190W        W60516  30.626   8.352  10.922
88191W        W60517  37.050  44.841  10.552
88192W        W60518   2.868  32.414  12.507
88193W        W60519  43.384  15.577   3.318
88194W        W60520  10.368  30.490   2.399
88195W        W60521  23.079  13.612  12.035
88196W        W60522   5.761  33.538  11.074
88197W        W60523  15.812   4.256  13.361
88198W        W60524  42.857   8.161   0.262
88199W        W60525  32.392  30.510   0.478
88200W        W60526  38.971  27.032   1.451
88201W        W60527  19.591  25.581  12.888
88202W        W60528  43.324  16.177  12.062
88203W        W60529  39.950  11.143  11.380
88204W        W60530   8.743  24.199  14.935
88205W        W60531  10.274  23.550   3.645
88206W        W60532  38.007  33.100  12.852
88207W        W60533  20.037  24.014   4.737
88208W        W60534   9.176  26.621  13.057
88209W        W60535  39.529  20.613  13.802
88210W        W60536  44.384   0.329  14.411
88211W        W60537  32.106  44.765  11.857
88212W        W60538  30.965  15.159   0.854
88213W        W60539  22.633  11.238  11.558
88214W        W60540  23.535  43.775   2.776
88215W        W60541  42.312  43.923  12.875
88216W        W60542  20.259  11.708   0.368
88217W        W60543  41.443  28.091  10.409
88218W        W60544   5.194   2.928  14.920
88219W        W60545   5.720  19.152   0.300
88220W        W60546  39.464   6.253  14.030
88221W        W60547   6.782  36.469   3.688
88222W        W60548  11.326  43.912  10.545
88223W        W60549   1.277  42.340   0.258
88224W        W60550   2.924  18.637  11.875
88225W        W60551  30.972  16.119  10.489
88226W        W60552   7.826  42.904   4.618
88227W        W60553   7.262  19.138   0.924
88228W        W60554  21.148  32.938  10.592
88229W        W60555  11.212  24.164  12.440
88230W        W60556  38.481  36.398  10.521
88231W        W60557  20.235   9.834   0.433
88232W        W60558   3.725  43.908   2.268
88233W        W60559  21.069   8.661  13.975
88234W        W60560   4.709   7.260   3.744
88235W        W60561  38.888  11.227   3.655
88236W        W60562   6.318  35.854   1.840
88237W        W60563  37.981  26.020   3.749
88238W        W60564  34.923  22.663  12.366
88239W        W60565   4.270  28.973  11.115
88240W        W60566  36.565  16.749  11.864
88241W        W60567  32.467  20.539  11.521
88242W        W60568  41.422  38.994  13.424
88243W        W60569  31.900  14.280   3.379
88244W        W60570  28.025  21.627   2.183
88245W        W60571  12.142   3.421  13.058
88246W        W60572   8.237  19.213   0.256
88247W        W60573  20.550   2.842   4.795
88248W        W60574  37.070  22.120  13.435
88249W        W60575  27.521  27.981   5.210
88250W        W60576   9.245  22.539  10.506
88251W        W60577  13.602  42.914   0.269
88252W        W60578  35.874  39.921  14.939
88253W        W60579  25.105   2.961   0.928
88254W        W60580   4.266  26.023   3.641
88255W        W60581  30.050  26.149   1.915
88256W        W60582  32.030  23.146   4.670
88257W        W60583   5.822  20.159  11.889
88258W        W60584   8.285  35.949   2.735
88259W        W60585  24.198  31.125  12.556
88260W        W60586  17.069  29.963   1.390
88261W        W60587  15.662  33.544  14.765
88262W        W60588   7.719  36.459  12.574
88263W        W60589  22.710  39.557   1.698
88264W        W60590  18.577  20.547   2.678
88265W        W60591  42.032  42.846  13.354
88266W        W60592  44.490  14.215  10.593
88267W        W60593  24.175  39.375  14.788
88268W        W60594  21.659  34.053  14.398
88269W        W60595  44.297   9.178  12.088
88270W        W60596  35.430  16.749   1.737
88271W        W60597  42.334  34.383   3.840
88272W        W60598  29.590  33.622   1.225
88273W        W60599  41.821   9.663   2.370
88274W        W60600  36.948  31.615   2.810
88275W        W60601  26.544  31.976   2.242
88276W        W60602  12.257  41.891  10.966
88277W        W60603   1.895  28.665   4.130
88278W        W60604  17.243  16.108   4.711
88279W        W60605  36.546  31.067  10.978
88280W        W60606   6.309   1.894  11.579
88281W        W60607   7.363  30.953   0.370
88282W        W60608  16.186   8.223  14.954
88283W        W60609   3.756   8.818   4.243
88284W        W60610  43.853  27.686  14.351
88285W        W60611   9.194  39.978  14.951
88286W        W60612  24.104  41.948   2.811
88287W        W60613  24.016   5.423  14.872
88288W        W60614  16.073  36.519   4.139
88289W        W60615  15.677  38.913  14.310
88290W        W60616   3.224  34.026  14.507
88291W        W60617  10.839  23.007   3.262
88292W        W60618  17.241  36.091  14.412
88293W        W60619  41.354  39.545  13.934
88294W        W60620  37.459  22.612  13.532
88295W        W60621  32.409  33.875   2.244
88296W        W60622  34.487  19.119  12.027
88297W        W60623  44.418  33.409  14.760
88298W        W60624  34.524  40.912  11.978
88299W        W60625   0.396  15.691   2.689
88300W        W60626  10.295  10.811   3.188
88301W        W60627  23.517  24.693   4.741
88302W        W60628   7.212  44.862  10.975
88303W        W60629  44.478  37.449  14.432
88304W        W60630   2.227  38.903  14.820
88305W        W60631  20.693  20.656   0.377
88306W        W60632  41.924  12.675  11.381
88307W        W60633  11.287  12.238   2.320
88308W        W60634  27.565  17.156   3.635
88309W        W60635  28.152  26.560  11.089
88310W        W60636  30.041  20.662   2.857
88311W        W60637  41.847   2.792   3.723
88312W        W60638  40.849  14.816  10.449
88313W        W60639  44.428  26.468   4.802
88314W        W60640   3.798   1.379  11.448
88315W        W60641  10.239  41.966   3.792
88316W        W60642  31.997  37.404   9.953
88317W        W60643  21.077  20.537  11.038
88318W        W60644  21.199  13.641  10.631
88319W        W60645  27.677  41.466   1.303
88320W        W60646  30.927  31.975  12.018
88321W        W60647  29.107  12.682   0.306
88322W        W60648  21.264  40.926  11.074
88323W        W60649  27.040  40.966  14.771
88324W        W60650  38.842   2.815   0.270
88325W        W60651  36.579  33.601   3.169
88326W        W60652  12.291  15.603   1.705
88327W        W60653  28.980  40.956   4.252
88328W        W60654  40.798  20.253   1.369
88329W        W60655   7.252   0.257   4.625
88330W        W60656  32.441  32.959  11.379
88331W        W60657  40.456   6.425   2.847
88332W        W60658   8.371  30.062  11.507
88333W        W60659  25.124   3.865  12.012
88334W        W60660  44.961  18.084  12.844
88335W        W60661   7.858  19.723   2.296
88336W        W60662  38.523   5.867   3.708
88337W        W60663   0.767  11.857  14.928
88338W        W60664   4.914   6.266  14.390
88339W        W60665  34.932  22.102   3.196
88340W        W60666  30.488  22.552   5.176
88341W        W60667   8.282  10.356  14.496
88342W        W60668  12.720  43.427  13.889
88343W        W60669  39.485   4.888  10.605
88344W        W60670   6.423  44.495   3.308
88345W        W60671  40.537  36.549  13.814
88346W        W60672  10.843  39.509  10.639
88347W        W60673   6.405   3.274   3.194
88348W        W60674  12.629   4.282  14.955
88349W        W60675  33.516  44.368   4.247
88350W        W60676  23.733  32.140  13.415
88351W        W60677  21.639  29.945  13.034
88352W        W60678  25.212  39.508   1.699
88353W        W60679  21.705  11.621  14.981
88354W        W60680  25.601  44.365   2.823
88355W        W60681  44.348  36.422   4.724
88356W        W60682  34.495  35.390  13.858
88357W        W60683  36.468  43.280   0.371
88358W        W60684  31.498  27.995  11.508
88359W        W60685  40.975  14.775  13.331
88360W        W60686  32.902   2.943  12.541
88361W        W60687  23.071   2.401   3.825
88362W        W60688  14.278  20.528   3.369
88363W        W60689   3.434  41.010  14.967
88364W        W60690  25.711  29.971   1.858
88365W        W60691   5.228  43.332   3.216
88366W        W60692  25.107  14.105  12.994
88367W        W60693  37.484  42.416  14.849
88368W        W60694  18.581  24.195   4.804
88369W        W60695   5.217  11.316   3.197
88370W        W60696   5.289  18.669  13.863
88371W        W60697   5.203  43.390   0.917
88372W        W60698  19.664  44.437   1.413
88373W        W60699  38.940   5.357  14.977
88374W        W60700  27.978  21.636  10.491
88375W        W60701  27.587  44.855   1.226
88376W        W60702  11.666  26.159  10.412
88377W        W60703  41.839   3.879  14.928
88378W        W60704  42.947  41.346   1.855
88379W        W60705  39.989  14.617   3.334
88380W        W60706  38.396   8.268   4.310
88381W        W60707  10.802   7.868   1.381
88382W        W60708   7.715   4.284  13.834
88383W        W60709  13.757  14.200   4.813
88384W        W60710   3.915  17.177   2.352
88385W        W60711  27.469  28.176  14.438
88386W        W60712  10.176  27.550  10.464
88387W        W60713  14.708  42.352   4.698
88388W        W60714  23.539  13.633  14.000
88389W        W60715   8.400  27.545  13.315
88390W        W60716  16.583  38.925  12.502
88391W        W60717  40.378  38.330  13.892
88392W        W60718   6.386  41.980  14.836
88393W        W60719  34.439   2.783  14.449
88394W        W60720  12.197   4.788  11.877
88395W        W60721  13.709  18.778   3.223
88396W        W60722   9.810  14.295   0.759
88397W        W60723  41.797  29.522   2.214
88398W        W60724  36.892  11.768  12.029
88399W        W60725  34.445   9.247  10.952
88400W        W60726  12.782  25.474  10.900
88401W        W60727  28.175  23.176   1.447
88402W        W60728   4.259   3.864   3.169
88403W        W60729  44.857  37.073  11.866
88404W        W60730  14.323  10.825  13.056
88405W        W60731   6.680   3.446  14.502
88406W        W60732  26.099  22.690   3.863
88407W        W60733   4.923  25.497   0.730
88408W        W60734   3.424  30.523  10.902
88409W        W60735  28.615   0.975  14.812
88410W        W60736  42.847   9.650  14.869
88411W        W60737  25.194  24.144   4.157
88412W        W60738   1.830  36.494  12.920
88413W        W60739  18.100  31.638  10.470
88414W        W60740  43.411  32.464  14.929
88415W        W60741  26.667  10.863   2.830
88416W        W60742  37.581   1.476  11.858
88417W        W60743  27.550  43.397  12.387
88418W        W60744  34.043  44.798  12.867
88419W        W60745  29.593  12.667  10.074
88420W        W60746   3.334  43.804  12.855
88421W        W60747  38.864  43.834  12.047
88422W        W60748  12.671  40.445  10.419
88423W        W60749  16.171  31.904  10.903
88424W        W60750  18.062  31.150   1.372
88425W        W60751  27.080  21.171  11.944
88426W        W60752  11.338  38.352   3.777
88427W        W60753  24.664  35.396  12.978
88428W        W60754   6.183  39.399   1.886
88429W        W60755  15.698  43.935   9.943
88430W        W60756  35.921  18.176  10.515
88431W        W60757  14.135  38.954   2.293
88432W        W60758  42.887  38.894   0.397
88433W        W60759  20.655  15.329  12.969
88434W        W60760  25.530   4.285  10.548
88435W        W60761  20.579  44.467   2.724
88436W        W60762  42.832  29.512   5.293
88437W        W60763  34.407  22.121  11.582
88438W        W60764  16.113  26.148  11.404
88439W        W60765  38.888  30.620  10.087
88440W        W60766  25.173  21.692  13.472
88441W        W60767  36.861  42.506   4.828
88442W        W60768  28.483  19.560   4.802
88443W        W60769   7.292   8.318   0.347
88444W        W60770   0.368  15.132   3.178
88445W        W60771  18.785  15.136   3.869
88446W        W60772   2.463  13.802   3.769
88447W        W60773  38.034  37.835   4.232
88448W        W60774   7.172  26.663   1.432
88449W        W60775  42.974   2.290   0.859
88450W        W60776  35.986  14.762  10.608
88451W        W60777   7.236  21.220  14.886
88452W        W60778  35.473  28.949   0.875
88453W        W60779  33.564  29.965   4.308
88454W        W60780   4.349  41.859  13.986
88455W        W60781   2.910  40.400   3.675
88456W        W60782  40.973   3.436  11.383
88457W        W60783  13.687  42.293   1.241
88458W        W60784   2.376  11.665   2.232
88459W        W60785  32.957  10.222  13.379
88460W        W60786   2.412   1.414   1.330
88461W        W60787   8.373   9.301   2.245
88462W        W60788  43.017  27.462  10.021
88463W        W60789  19.055  39.325   4.217
88464W        W60790  18.596   2.830   2.284
88465W        W60791  11.800  35.400  12.950
88466W        W60792  28.121  43.322   0.411
88467W        W60793  15.325   1.841  13.919
88468W        W60794   3.423   8.839  12.565
88469W        W60795  17.649   2.423  12.047
88470W        W60796  23.224  29.547  10.925
88471W        W60797  38.922  34.863  13.451
88472W        W60798   4.266  13.682  10.922
88473W        W60799  13.236  35.057   4.813
88474W        W60800  43.422  42.838  10.592
88475W        W60801   5.886  41.404   3.149
88476W        W60802   1.963  24.192   0.352
88477W        W60803  13.743  35.551  14.948
88478W        W60804   2.468   7.710  11.926
88479W        W60805   5.436  28.610   3.371
88480W        W60806  12.260   2.233   1.880
88481W        W60807  37.988  35.072  10.409
88482W        W60808   4.240  19.120  11.083
88483W        W60809  34.988  33.098   3.266
88484W        W60810  18.222   4.411  12.997
88485W        W60811  30.442  38.507  12.846
88486W        W60812   2.370   2.429   5.170
88487W        W60813  30.604  16.238  13.796
88488W        W60814  42.829   1.966  12.848
88489W        W60815  42.983  24.486  14.494
88490W        W60816  31.972  14.179   1.757
88491W        W60817  16.770  35.077   4.239
88492W        W60818  32.891  19.776   4.338
88493W        W60819  26.552  12.738   2.689
88494W        W60820  40.012  27.166   4.335
88495W        W60821   6.322  22.579  11.537
88496W        W60822  25.042  20.193  14.277
88497W        W60823  24.012  29.464   3.174
88498W        W60824  44.340  21.755   0.824
88499W        W60825  23.102  36.875   1.694
88500W        W60826  26.505  20.627  12.079
88501W        W60827  33.086  16.603  13.997
88502W        W60828  17.106  29.108   0.264
88503W        W60829  35.546  36.083  11.110
88504W        W60830  36.431  24.132  13.471
88505W        W60831  40.346  32.135  13.326
88506W        W60832  17.135   7.288   4.241
88507W        W60833  42.959  15.165   3.851
88508W        W60834  44.446  33.450  13.992
88509W        W60835  29.936  10.307   1.402
88510W        W60836   7.237  26.611  13.398
88511W        W60837  33.103  25.992   3.861
88512W        W60838  10.178  10.669  12.525
88513W        W60839  15.208  28.158  12.854
88514W        W60840  26.490   1.767  13.867
88515W        W60841  31.574  28.525  13.829
88516W        W60842   8.203  39.882   3.338
88517W        W60843  39.929  26.458  13.365
88518W        W60844   0.317  22.569  13.857
88519W        W60845  41.903  37.942  14.402
88520W        W60846  34.068  41.459  14.281
88521W        W60847  19.158  16.751   4.661
88522W        W60848   9.675   9.652  14.911
88523W        W60849  23.164  27.687  11.894
88524W        W60850   1.256  36.396  12.943
88525W        W60851  11.732  33.401  13.509
88526W        W60852   2.921  40.046   3.816
88527W        W60853  28.187  26.646   3.386
88528W        W60854  43.318  14.224   1.264
88529W        W60855  30.635  19.220   3.340
88530W        W60856   8.896  10.756   3.778
88531W        W60857  42.329  36.874  12.913
88532W        W60858  36.878  20.714  12.347
88533W        W60859  32.567  18.110  14.276
88534W        W60860  34.871  41.464   0.939
88535W        W60861  32.990  24.633  12.476
88536W        W60862   3.259  20.628  11.613
88537W        W60863  25.214  20.032   2.342
88538W        W60864  41.514  42.353   3.167
88539W        W60865  37.909  11.841  10.940
88540W        W60866  40.463  32.454   2.857
88541W        W60867  35.545  36.881   4.148
88542W        W60868  34.609  35.504   1.336
88543W        W60869  30.991  19.282  12.838
88544W        W60870   4.745  12.759   1.364
88545W        W60871  44.763  41.941   3.789
88546W        W60872  22.169   6.184   3.161
88547W        W60873  24.197   4.792   2.384
88548W        W60874   5.893  29.113   2.773
88549W        W60875   2.230  13.162  14.934
88550W        W60876  15.790   7.347   4.714
88551W        W60877   4.722  13.220  11.949
88552W        W60878  10.229  44.353  12.344
88553W        W60879  44.766  35.984  11.473
88554W        W60880   7.221   6.917  14.284
88555W        W60881  22.684   1.375  13.317
88556W        W60882  28.008  17.640   0.441
88557W        W60883  24.700  31.149   2.196
88558W        W60884   8.220  43.439   4.197
88559W        W60885  32.487  40.816  14.504
88560W        W60886   8.310  27.665   4.793
88561W        W60887  31.420  14.295  11.117
88562W        W60888   4.238  41.948   3.795
88563W        W60889  26.029  25.011  10.549
88564W        W60890  11.643  12.292   2.221
88565W        W60891   5.251  22.104  14.013
88566W        W60892  10.836  26.653  10.635
88567W        W60893  17.276  37.427  14.796
88568W        W60894   6.883   3.746  11.454
88569W        W60895  40.379  10.326  10.949
88570W        W60896  40.468  18.759   4.693
88571W        W60897   5.403  27.973  14.370
88572W        W60898  23.045  18.686  14.325
88573W        W60899  25.683  18.765   3.709
88574W        W60900  38.481  15.711  14.328
88575W        W60901   6.799  15.179  13.891
88576W        W60902  36.414  30.539   2.879
88577W        W60903  19.183   5.769   0.306
88578W        W60904  16.235  41.400  12.864
88579W        W60905   3.347  21.648  12.953
88580W        W60906  18.666  33.415   4.610
88581W        W60907  35.976  17.247   0.248
88582W        W60908  13.278   9.199   3.294
88583W        W60909  24.498  25.132   3.771
88584W        W60910  24.180  33.013   0.340
88585W        W60911  23.991  13.790  13.888
88586W        W60912  32.431  32.606   4.326
88587W        W60913  17.086  34.561   0.773
88588W        W60914  34.060   0.318   1.923
88589W        W60915  37.002  24.114  10.972
88590W        W60916  26.459  15.129  14.326
88591W        W60917  17.207  23.141   4.148
88592W        W60918  24.988   6.330   4.323
88593W        W60919   7.184  18.147   3.208
88594W        W60920  10.827  25.162  13.020
88595W        W60921  33.080  25.015   3.290
88596W        W60922  22.182   9.243   4.182
88597W        W60923  40.806  20.266   4.638
88598W        W60924   0.939  34.973   0.365
88599W        W60925  41.337  10.661   2.754
88600W        W60926  37.078  30.542  14.941
88601W        W60927   5.797  32.391  11.895
88602W        W60928  36.512   3.874  14.868
88603W        W60929  36.951   6.763   2.705
88604W        W60930  18.284  28.609   2.783
88605W        W60931  20.728  37.032  11.531
88606W        W60932  36.458  41.846   4.137
88607W        W60933  37.063  40.974  12.977
88608W        W60934  25.652  36.439   3.666
88609W        W60935  38.368  44.325  12.378
88610W        W60936  36.455   1.780   0.319
88611W        W60937  16.277  36.017   2.277
88612W        W60938  26.190   6.682   3.231
88613W        W60939  37.847  33.052   1.439
88614W        W60940   0.354  22.252   9.600
88615W        W60941  20.171  27.519  10.406
88616W        W60942   2.858  18.782  13.999
88617W        W60943   0.876   2.377  12.850
88618W        W60944  29.089  21.163  10.442
88619W        W60945  23.717   6.412   2.211
88620W        W60946   0.309  17.657  13.048
88621W        W60947  19.746  41.306  13.980
88622W        W60948   6.412  16.696   1.916
88623W        W60949   0.974  39.437   1.339
88624W        W60950   9.388   4.825  12.934
88625W        W60951  22.599  10.331  14.914
88626W        W60952  34.120  22.736   4.282
88627W        W60953  29.489  10.649   0.823
88628W        W60954  14.138   1.794   1.405
88629W        W60955  14.220  39.846   4.203
88630W        W60956  26.597  23.617   1.753
88631W        W60957  35.962  29.459   2.192
88632W        W60958  11.638  43.498  11.418
88633W        W60959  34.377  11.186  12.951
88634W        W60960   9.833  35.871  14.908
88635W        W60961  12.299   6.422   1.761
88636W        W60962  19.773  44.939  14.476
88637W        W60963  36.018  11.793  12.007
88638W        W60964  36.967  42.032  14.950
88639W        W60965   3.305   1.745  13.440
88640W        W60966   6.239  32.576  11.579
88641W        W60967  26.017  19.040  11.559
88642W        W60968   2.360  30.091   4.837
88643W        W60969   1.439  29.556   4.723
88644W        W60970  18.248   5.920   0.428
88645W        W60971  29.545   9.244  11.061
88646W        W60972  31.118  12.767   0.449
88647W        W60973  40.304   9.216  11.068
88648W        W60974  33.109   2.289  10.961
88649W        W60975   9.200  20.531  12.556
88650W        W60976  37.512   3.377   2.805
88651W        W60977  10.723  31.483   0.935
88652W        W60978  11.641  37.080   1.819
88653W        W60979  31.615   1.881  11.893
88654W        W60980  26.028  42.302  14.020
88655W        W60981  34.983  40.326  11.921
88656W        W60982  42.522  20.681  12.545
88657W        W60983  22.591  16.675   4.757
88658W        W60984   7.337  15.206  13.884
88659W        W60985  42.788  39.933   2.229
88660W        W60986  37.038  15.610  11.081
88661W        W60987   7.414  18.575   4.728
88662W        W60988  34.381  28.962   2.901
88663W        W60989  44.327  27.984  10.506
88664W        W60990  20.163  15.733  10.476
88665W        W60991  10.364  41.823   2.286
88666W        W60992  35.595  11.762  13.444
88667W        W60993  38.417   9.699   9.581
88668W        W60994  29.089  30.504   3.191
88669W        W60995  14.148  26.975   2.257
88670W        W60996  18.050  14.308   4.180
88671W        W60997  11.632  32.065  11.601
88672W        W60998  26.022   2.393   0.918
88673W        W60999  32.128  14.317   0.772
88674W        W61000  12.151  29.483  10.581
88675W        W61001   3.733  33.618  11.069
88676W        W61002  22.518  15.764   4.113
88677W        W61003   0.760   5.901   3.758
88678W        W61004  14.180  43.432  14.348
88679W        W61005  40.363  41.958   1.286
88680W        W61006  23.698  33.525   3.235
88681W        W61007  21.049  31.001  14.299
88682W        W61008   3.863  13.255   2.729
88683W        W61009   8.805  26.102   4.302
88684W        W61010  11.720  15.705   1.361
88685W        W61011  35.078  21.233  10.000
88686W        W61012  17.276  36.511   4.135
88687W        W61013  18.592  42.845  13.878
88688W        W61014   6.301  31.442  14.926
88689W        W61015  27.660  30.048  12.924
88690W        W61016   1.851  33.097   4.764
88691W        W61017  28.187  35.888  12.355
88692W        W61018  15.817  44.336  13.025
88693W        W61019  28.480  16.631   2.411
88694W        W61020   5.350   3.412  13.419
88695W        W61021  28.641   6.266   4.153
88696W        W61022  27.585  43.315  12.955
88697W        W61023  11.640  12.116   4.259
88698W        W61024  23.032  13.110   2.394
88699W        W61025  16.073   9.699  14.298
88700W        W61026  30.952  20.555  13.921
88701W        W61027   1.423  21.043  14.854
88702W        W61028  42.873  17.285  14.289
88703W        W61029  25.142  19.252  12.888
88704W        W61030  18.053  18.080  13.898
88705W        W61031  15.760   8.218   0.474
88706W        W61032  15.238   1.805   2.867
88707W        W61033  10.269  27.635   2.330
88708W        W61034  42.486  32.893   1.878
88709W        W61035   2.240  10.184  10.476
88710W        W61036  35.467  14.617   0.312
88711W        W61037   9.757  28.653  12.366
88712W        W61038  32.009  27.605  11.922
88713W        W61039  22.733  12.276   4.644
88714W        W61040   9.663   9.643   3.198
88715W        W61041  19.564  28.060  13.930
88716W        W61042  33.555   1.927   5.276
88717W        W61043   7.836  19.651   3.845
88718W        W61044  30.491  39.557  14.427
88719W        W61045   7.230   0.850   4.626
88720W        W61046  19.681  32.940  11.414
88721W        W61047   6.361  42.512  12.070
88722W        W61048  31.570   7.339  14.498
88723W        W61049   7.798  32.540  13.460
88724W        W61050  17.274  10.774  10.928
88725W        W61051  33.882  35.398   0.746
88726W        W61052  30.985  23.077   3.775
88727W        W61053  27.074  25.541   1.319
88728W        W61054  25.473   2.362  10.584
88729W        W61055  31.098  29.583  12.865
88730W        W61056  40.006  19.286  14.369
88731W        W61057  19.170  25.509  10.572
88732W        W61058  26.692  23.033   0.457
88733W        W61059   3.840  29.629  14.931
88734W        W61060  24.027  19.588   0.783
88735W        W61061  13.766  31.080  12.826
88736W        W61062  13.226  32.940  10.047
88737W        W61063  35.016  18.270  14.295
88738W        W61064  16.178  14.659  10.955
88739W        W61065  26.110  36.929  14.885
88740W        W61066  22.243  39.356   1.861
88741W        W61067   9.643  13.166  14.412
88742W        W61068  43.882  15.783   4.241
88743W        W61069  32.973  25.002   1.843
88744W        W61070  21.750  43.313  13.961
88745W        W61071  35.372  41.966   4.634
88746W        W61072  14.598   8.306  12.529
88747W        W61073  13.154   6.413  10.921
88748W        W61074  22.576  22.080  11.534
88749W        W61075  26.473  23.181  12.541
88750W        W61076  34.512   4.921  10.597
88751W        W61077  36.542  39.958   0.447
88752W        W61078  25.645  29.438  12.484
88753W        W61079   2.836  13.319  11.975
88754W        W61080  30.506  10.372  13.417
88755W        W61081   7.878  17.162   3.831
88756W        W61082  24.635  13.743   3.746
88757W        W61083  21.221   9.664   2.885
88758W        W61084  27.578  20.135   1.393
88759W        W61085  28.987  37.029  11.094
88760W        W61086  16.103  30.972   4.229
88761W        W61087  44.404  30.970  10.486
88762W        W61088  21.183  16.705   1.363
88763W        W61089  16.720  28.434   0.919
88764W        W61090   1.459  29.437   2.838
88765W        W61091  44.790  39.404   1.334
88766W        W61092   1.940  31.586   4.224
88767W        W61093  23.708  35.053  13.039
88768W        W61094  31.528  37.477  10.995
88769W        W61095  16.165  19.613  10.635
88770W        W61096   4.732  32.549   9.977
88771W        W61097  39.867   2.954  12.005
88772W        W61098  19.612  20.743  11.602
88773W        W61099  27.942  27.009  14.001
88774W        W61100  43.844  29.538   0.735
88775W        W61101  11.207  17.151   1.353
88776W        W61102  16.210  22.708  13.309
88777W        W61103   8.375  12.192   1.451
88778W        W61104  31.108  21.036  12.066
88779W        W61105   1.273  40.490  11.954
88780W        W61106  34.113  38.920   3.331
88781W        W61107  29.075  16.652   4.790
88782W        W61108  38.911  14.769   3.662
88783W        W61109  23.010  39.450   2.750
88784W        W61110  27.050   0.326  12.076
88785W        W61111  20.071  31.995  14.836
88786W        W61112  41.038  36.898  13.334
88787W        W61113  22.089  23.106  14.837
88788W        W61114  18.177  18.257   0.287
88789W        W61115  12.285  14.187  12.899
88790W        W61116   8.706  11.635  13.416
88791W        W61117  38.550  16.568  12.512
88792W        W61118   1.482   0.770  11.423
88793W        W61119   6.757  23.572   2.404
88794W        W61120   1.369  28.969  10.577
88795W        W61121   9.160   0.761   2.743
88796W        W61122  15.723  19.645  11.930
88797W        W61123  39.479  35.892   1.327
88798W        W61124  15.770   2.355   1.300
88799W        W61125  10.816   5.857   1.349
88800W        W61126  22.681  15.647   9.940
88801W        W61127  27.045  16.647   0.469
88802W        W61128  18.692  42.968  10.015
88803W        W61129  14.590  15.752   2.688
88804W        W61130  10.852   1.878  14.491
88805W        W61131  33.902  40.906   2.882
88806W        W61132  15.719  18.262  12.463
88807W        W61133   7.285   4.387  11.102
88808W        W61134   0.440  10.149   4.328
88809W        W61135  22.039  15.693  13.476
88810W        W61136   4.435  24.193   0.807
88811W        W61137   1.467  33.965   3.308
88812W        W61138  15.176  21.696   1.362
88813W        W61139  17.764   0.424  13.824
88814W        W61140  17.594   7.858   0.963
88815W        W61141  19.073  44.891  11.072
88816W        W61142  11.344  22.686   3.379
88817W        W61143  44.462  33.524   1.774
88818W        W61144  11.361  30.130   0.365
88819W        W61145  44.895  24.641   4.712
88820W        W61146  10.688  16.085   0.854
88821W        W61147  26.053  28.673  13.526
88822W        W61148  30.623  16.079   4.630
88823W        W61149  24.580  17.772  13.345
88824W        W61150  10.242  24.013   1.444
88825W        W61151  36.481  31.914  12.971
88826W        W61152  32.004   6.721   1.361
88827W        W61153  10.368  27.515   2.704
88828W        W61154  19.137  30.511   0.920
88829W        W61155  19.100  21.623   1.451
88830W        W61156  24.567  14.596   0.253
88831W        W61157  23.199   3.308  13.355
88832W        W61158   5.710  30.103  14.887
88833W        W61159  33.124   5.828   2.204
88834W        W61160   3.745  13.244  14.337
88835W        W61161   8.203   0.360  14.940
88836W        W61162  31.612  42.780   1.282
88837W        W61163  20.758  16.699  14.864
88838W        W61164  17.213  34.958   3.151
88839W        W61165  42.304  34.379   1.911
88840W        W61166   1.292  23.730   0.811
88841W        W61167  44.963  22.700   1.876
88842W        W61168   8.712  37.551   0.782
88843W        W61169  36.864   5.785  10.982
88844W        W61170  40.820  31.074  13.460
88845W        W61171  30.058  23.068   1.918
88846W        W61172   7.911  39.892   1.695
88847W        W61173  16.174   5.749   4.278
88848W        W61174  21.743  16.579  11.592
88849W        W61175  14.620   8.794   3.307
88850W        W61176  16.635  14.193   4.322
88851W        W61177  26.593  36.408  14.349
88852W        W61178   2.235  15.808  10.435
88853W        W61179  14.650  18.556  10.624
88854W        W61180   7.175   1.939  13.371
88855W        W61181  18.274  35.511  10.491
88856W        W61182  40.993   3.422   1.265
88857W        W61183   8.700  26.573  11.534
88858W        W61184   2.463  32.510   3.633
88859W        W61185   1.476  31.081  11.504
88860W        W61186  44.961  21.114   4.621
88861W        W61187  44.895  38.062  10.439
88862W        W61188   2.229  33.491   1.313
88863W        W61189   0.882   0.762   0.898
88864W        W61190  23.686  39.320   5.598
88865W        W61191   1.840  44.834  14.914
88866W        W61192   8.663   5.219  11.423
88867W        W61193  43.964  28.613  13.430
88868W        W61194  18.290  37.514   0.269
88869W        W61195  39.386  12.169  12.502
88870W        W61196  31.147   2.726  14.983
88871W        W61197  16.107  30.073   3.276
88872W        W61198  17.245   4.937  13.411
88873W        W61199  29.576  33.519   0.391
88874W        W61200  17.781  29.553  10.644
88875W        W61201  19.778  42.313   2.353
88876W        W61202  38.910  17.071   5.290
88877W        W61203  35.935  27.196   4.196
88878W        W61204   5.794  11.269  14.852
88879W        W61205  34.043  29.557  12.437
88880W        W61206   6.900  44.423  12.479
88881W        W61207  17.737  28.665   1.727
88882W        W61208  36.863   2.351  14.311
88883W        W61209   1.349  37.411   1.387
88884W        W61210   9.215  20.753  14.851
88885W        W61211  13.185   7.814  12.968
88886W        W61212  10.354  16.294  11.391
88887W        W61213  40.977  10.359   4.661
88888W        W61214  33.118  17.151  11.463
88889W        W61215  29.009  33.466   0.478
88890W        W61216  32.437  33.982   2.747
88891W        W61217  29.441  37.446   1.865
88892W        W61218  34.936  13.300   4.306
88893W        W61219  38.981   0.294  10.562
88894W        W61220  33.521  21.174   3.702
88895W        W61221   1.888  11.369  11.053
88896W        W61222  33.490  21.525  10.089
88897W        W61223   6.318  20.194   1.273
88898W        W61224  11.693  12.297   3.793
88899W        W61225  37.453  26.957  14.878
88900W        W61226  43.779  38.518   0.904
88901W        W61227   2.353   3.460   3.196
88902W        W61228  37.042  21.229   4.639
88903W        W61229   9.747  22.215   2.861
88904W        W61230  19.240  23.993  10.438
88905W        W61231  18.637  35.586  13.792
88906W        W61232  16.760  30.557   4.649
88907W        W61233   8.229  37.849  10.507
88908W        W61234  35.972   7.839  10.584
88909W        W61235  29.508  44.946   1.823
88910W        W61236   4.922  34.425  10.635
88911W        W61237  27.579   6.888  11.486
88912W        W61238   0.810  39.854   2.722
88913W        W61239  22.020   3.830   4.741
88914W        W61240  33.116  37.956  13.400
88915W        W61241  18.619   9.861   1.722
88916W        W61242  34.970  40.448  10.128
88917W        W61243  27.025  18.718  10.940
88918W        W61244  30.518  17.297   4.249
88919W        W61245  33.011  35.576  10.027
88920W        W61246  20.729  16.710  12.004
88921W        W61247   1.824  37.378  11.463
88922W        W61248  25.992  20.665   2.395
88923W        W61249  35.860  24.626  11.582
88924W        W61250  32.584  40.987   1.290
88925W        W61251  29.974  19.705  12.414
88926W        W61252   1.768   2.262  11.926
88927W        W61253  34.515  34.442   0.264
88928W        W61254  28.132  16.601   0.324
88929W        W61255  33.390   6.723   2.365
88930W        W61256  22.247  43.303  12.071
88931W        W61257  28.495  24.011   0.871
88932W        W61258  23.218  22.167  14.320
88933W        W61259   4.339  12.712   0.927
88934W        W61260   1.373  21.184   2.275
88935W        W61261  13.117   3.246  12.482
88936W        W61262  25.651  27.499  13.948
88937W        W61263   7.325   0.754  10.623
88938W        W61264  33.403   9.380  11.034
88939W        W61265  25.968   2.931   3.756
88940W        W61266  31.631  19.254  13.348
88941W        W61267  23.517   0.830   4.750
88942W        W61268  26.523   6.322  14.916
88943W        W61269  30.582  41.335  14.491
88944W        W61270  18.581  12.821   1.260
88945W        W61271  24.034   0.932   2.179
88946W        W61272  14.809   8.673   4.264
88947W        W61273  39.039  21.631   2.218
88948W        W61274  15.309  34.390  13.023
88949W        W61275  21.699   1.371   4.328
88950W        W61276  41.837  16.733   2.188
88951W        W61277  24.992  26.056  13.933
88952W        W61278  17.228  44.418   4.164
88953W        W61279  38.517  15.306   1.853
88954W        W61280  16.240   4.736  11.011
88955W        W61281  43.457   3.870  10.498
88956W        W61282  27.473  33.602  14.807
88957W        W61283  37.362  23.681   1.277
88958W        W61284  23.643  33.024   2.795
88959W        W61285   4.818  37.502   4.809
88960W        W61286  33.402  38.914  10.533
88961W        W61287   2.375   6.260  13.879
88962W        W61288  24.666  28.026   2.860
88963W        W61289  21.262   7.407   3.179
88964W        W61290  31.131   9.794  13.489
88965W        W61291  24.977  15.703   4.205
88966W        W61292  36.911  36.094  10.448
88967W        W61293  24.620  25.589   4.322
88968W        W61294  19.646  12.260  11.387
88969W        W61295  36.565  19.556  12.012
88970W        W61296  13.327  35.969   9.974
88971W        W61297  24.482  15.206   0.436
88972W        W61298   0.376   1.879   5.188
88973W        W61299   0.375  37.969  13.359
88974W        W61300  27.142  27.568  13.540
88975W        W61301  21.132  29.980  10.936
88976W        W61302   5.354  13.707   2.382
88977W        W61303  12.809  37.037   5.709
88978W        W61304  22.655  35.455  11.055
88979W        W61305  43.397  14.718   1.759
88980W        W61306   4.211  44.302   2.825
88981W        W61307  25.596  39.407  14.013
88982W        W61308   2.320  25.146  10.455
88983W        W61309  25.598  13.254   4.773
88984W        W61310  37.569  25.576   3.806
88985W        W61311  44.848   3.305   2.194
88986W        W61312   1.768  40.053   4.675
88987W        W61313   9.701  13.606   4.681
88988W        W61314  31.597  26.458   2.679
88989W        W61315   5.890  29.498  10.573
88990W        W61316   9.348   0.378  12.878
88991W        W61317  34.571  43.369  10.462
88992W        W61318  28.068  28.072   5.297
88993W        W61319  35.907  16.291   2.377
88994W        W61320  26.588  27.993  10.458
88995W        W61321  14.197  35.854  11.109
88996W        W61322  35.886  35.868   0.316
88997W        W61323  10.870  20.094  14.877
88998W        W61324  39.955  31.582   0.786
88999W        W61325  32.460  33.549   0.740
89000W        W61326  42.437   3.860  13.044
89001W        W61327  23.697  37.942  11.386
89002W        W61328  27.493   4.713   2.380
89003W        W61329  28.165  10.329  12.070
89004W        W61330  14.788  42.865   0.907
89005W        W61331  33.386   4.239   2.817
89006W        W61332  44.988  42.474  14.509
89007W        W61333  38.887  19.675  11.396
89008W        W61334  34.613  15.800  11.952
89009W        W61335  27.056  31.010   3.644
89010W        W61336  24.145  30.498   2.675
89011W        W61337  18.605  23.237  11.929
89012W        W61338  33.579  18.156   0.400
89013W        W61339  11.224  13.316  12.841
89014W        W61340  32.059   8.849  13.955
89015W        W61341  11.138  35.472  11.940
89016W        W61342  39.344   2.393   2.209
89017W        W61343  34.987   9.279   1.767
89018W        W61344  13.760  34.371   3.235
89019W        W61345  22.578  21.611   0.764
89020W        W61346  11.690   5.742   1.225
89021W        W61347  28.537   3.914   2.900
89022W        W61348  35.581   9.392   0.335
89023W        W61349  28.635  30.012  11.981
89024W        W61350  44.001  12.308  11.394
89025W        W61351  35.876  26.506   4.611
89026W        W61352  34.508   7.667   1.819
89027W        W61353  24.066  22.596   3.822
89028W        W61354  37.905  22.559  12.988
89029W        W61355  29.618  28.660  11.499
89030W        W61356  18.163  43.498   2.708
89031W        W61357  23.154   9.872  10.971
89032W        W61358  19.767  11.316  10.912
89033W        W61359  38.955  11.675  14.356
89034W        W61360  41.899   3.930  13.452
89035W        W61361  30.498   5.832  10.633
89036W        W61362  12.647   2.457  11.122
89037W        W61363  19.238  18.251  10.513
89038W        W61364  37.396   5.857  14.373
89039W        W61365  20.692   3.439   2.357
89040W        W61366  28.542  29.966  12.356
89041W        W61367  21.690   0.270  10.535
89042W        W61368   7.754  20.127   4.621
89043W        W61369  33.986   7.361  12.941
89044W        W61370  21.654   2.764  10.548
89045W        W61371   8.655  20.137   2.806
89046W        W61372  42.028  27.481   0.917
89047W        W61373  35.891  28.990  13.033
89048W        W61374   4.754  15.754  13.343
89049W        W61375  44.902  32.073  10.621
89050W        W61376   8.851   8.778   4.311
89051W        W61377  10.206  34.094   1.398
89052W        W61378  19.573   5.367   3.213
89053W        W61379  22.226  14.139   1.913
89054W        W61380  25.192   3.221  11.591
89055W        W61381  15.326  15.694  14.502
89056W        W61382   0.267  40.005  12.571
89057W        W61383  18.680   7.716   0.246
89058W        W61384  25.101  34.950   1.365
89059W        W61385  30.087  34.908   4.802
89060W        W61386  10.764  41.812  13.497
89061W        W61387  20.761   8.722  14.288
89062W        W61388   2.883  13.705   3.187
89063W        W61389  14.742  37.064  11.980
89064W        W61390  11.178  26.688   3.190
89065W        W61391  39.989  27.986   1.237
89066W        W61392  41.875  15.298  13.361
89067W        W61393  16.231  29.047  14.407
89068W        W61394  23.188   1.785   1.924
89069W        W61395   2.465  26.005   2.339
89070W        W61396  18.644  22.101   2.875
89071W        W61397  16.617  23.144   1.218
89072W        W61398  18.060   5.224  11.437
89073W        W61399  33.115  28.981  14.365
89074W        W61400  11.368   9.277   1.323
89075W        W61401  17.720   4.715  10.598
89076W        W61402  43.282  35.045  10.607
89077W        W61403  29.425  26.601  12.538
89078W        W61404  43.277  27.946  14.511
89079W        W61405  33.552   1.483   0.750
89080W        W61406  29.165   8.678   1.860
89081W        W61407  27.533  29.426  11.556
89082W        W61408  15.145   9.233  13.484
89083W        W61409  44.288  42.436   4.142
89084W        W61410   9.208   2.422   1.269
89085W        W61411   2.444  16.643   1.721
89086W        W61412  25.608   6.793  14.029
89087W        W61413  14.626   5.200   2.178
89088W        W61414  23.539   9.675   1.694
89089W        W61415  20.174  40.815  12.907
89090W        W61416  17.644  41.956   3.320
89091W        W61417  43.856  34.874   1.860
89092W        W61418  16.734  14.791  10.524
89093W        W61419   1.957   9.273  13.877
89094W        W61420  44.991  20.273   2.385
89095W        W61421  27.658  16.202   3.233
89096W        W61422  32.102   0.339   0.322
89097W        W61423  18.094   5.868   3.366
89098W        W61424  33.108   7.800  10.598
89099W        W61425  16.812  31.071  11.008
89100W        W61426  35.097  36.589  12.096
89101W        W61427  36.389   0.817  10.027
89102W        W61428  34.377  37.051   0.864
89103W        W61429   8.683  40.901   2.704
89104W        W61430   9.728  36.433   0.365
89105W        W61431  25.675   1.920  12.906
89106W        W61432   6.225  18.636  14.311
89107W        W61433  15.781  37.836   4.645
89108W        W61434  37.502  30.989   1.258
89109W        W61435  33.521  13.105   1.757
89110W        W61436  10.805  44.890  13.047
89111W        W61437  30.071  41.853   4.733
89112W        W61438  32.083   6.315   2.376
89113W        W61439   7.400  28.529  11.919
89114W        W61440  11.145  28.645  11.076
89115W        W61441  12.276  21.694   0.462
89116W        W61442   5.304  39.902   0.463
89117W        W61443  35.538  35.364   1.219
89118W        W61444  28.453   0.280   3.338
89119W        W61445   0.797  30.610  13.482
89120W        W61446  30.613  37.404  12.985
89121W        W61447   9.151  39.464  13.418
89122W        W61448  42.904  36.843   3.346
89123W        W61449  39.054  11.128  10.071
89124W        W61450   6.896  32.465   4.146
89125W        W61451  25.500  27.528  12.846
89126W        W61452  11.166  13.142   0.950
89127W        W61453  21.234  40.515  13.907
89128W        W61454  41.911  43.440   3.368
89129W        W61455  28.636  17.757   3.842
89130W        W61456  31.494  38.964   0.867
89131W        W61457  21.601   2.918  13.997
89132W        W61458  36.493  21.157  12.926
89133W        W61459  13.759  21.712   1.378
89134W        W61460  30.924  14.305   4.662
89135W        W61461  15.198  24.165   1.836
89136W        W61462  35.972   6.782   3.305
89137W        W61463  17.714  16.717   1.824
89138W        W61464  25.074  44.921  14.406
89139W        W61465  35.052   8.726  13.919
89140W        W61466   9.369  24.581  11.067
89141W        W61467  17.716  24.665  13.543
89142W        W61468  18.780   9.200   3.247
89143W        W61469   8.709  25.628   0.424
89144W        W61470   0.297   2.250   0.414
89145W        W61471  38.912  42.896  12.474
89146W        W61472  24.080  19.165   3.330
89147W        W61473  25.975  21.099  10.513
89148W        W61474   4.257   9.155   1.358
89149W        W61475  34.967  21.631  13.366
89150W        W61476  21.149   4.722   2.838
89151W        W61477  19.633  26.130   2.335
89152W        W61478  26.539   6.863   2.787
89153W        W61479   5.407  36.398  14.786
89154W        W61480  39.479  38.517   2.861
89155W        W61481  39.842  14.183  14.481
89156W        W61482  38.937  40.429   2.222
89157W        W61483  15.760  44.264  13.816
89158W        W61484  33.459   0.796   3.344
89159W        W61485  16.720   1.844   4.837
89160W        W61486  14.594  31.963   4.259
89161W        W61487  27.632   3.832  12.876
89162W        W61488  42.828   1.785   3.185
89163W        W61489  33.506  23.171  12.874
89164W        W61490  31.508  31.967   2.323
89165W        W61491  11.790  35.999  12.424
89166W        W61492  37.374  38.845  13.861
89167W        W61493  32.135   1.335   3.244
89168W        W61494  22.042  13.737   3.837
89169W        W61495  30.074  39.396   0.363
89170W        W61496   5.206   7.788  11.041
89171W        W61497  27.183  10.266   2.354
89172W        W61498  34.063   8.203   4.640
89173W        W61499  12.850   4.424  11.404
89174W        W61500  42.385   9.814   0.838
89175W        W61501   3.361  43.955  12.527
89176W        W61502   0.473  29.556  12.510
89177W        W61503   5.293  18.746   2.675
89178W        W61504  29.481  16.702  11.429
89179W        W61505  17.072  25.582   2.258
89180W        W61506   9.784  18.551   3.299
89181W        W61507  12.243   0.258  14.947
89182W        W61508  30.992  40.356   3.341
89183W        W61509  17.659   4.857   0.965
89184W        W61510  41.452  39.001  14.022
89185W        W61511  11.267   5.309   0.265
89186W        W61512  12.154  13.628  13.389
89187W        W61513   7.179   2.368  11.533
89188W        W61514  43.998  10.247  13.478
89189W        W61515   2.305  23.664   9.494
89190W        W61516  27.060  36.434   4.187
89191W        W61517  33.621  17.632   1.294
89192W        W61518  26.970  13.778  11.557
89193W        W61519  23.213  36.352  14.825
89194W        W61520  17.134   6.685  10.968
89195W        W61521   8.879   0.456  13.339
89196W        W61522  44.887  15.231  13.345
89197W        W61523   3.414   3.234   0.807
89198W        W61524  41.320  42.935  12.000
89199W        W61525  12.675  29.092  14.380
89200W        W61526  26.702   4.811   5.247
89201W        W61527  23.560  36.951   9.925
89202W        W61528  38.914   5.418  12.007
89203W        W61529  20.163  16.128  14.805
89204W        W61530  34.888  25.029   1.435
89205W        W61531  21.200  10.786   2.761
89206W        W61532   1.441  39.362  12.377
89207W        W61533  22.174  44.975  14.419
89208W        W61534  34.979  22.693   2.373
89209W        W61535  30.065  30.600   1.214
89210W        W61536  44.450  26.050  12.971
89211W        W61537  36.451   6.764  13.340
89212W        W61538  14.137  12.711  11.606
89213W        W61539  25.517  33.963  12.878
89214W        W61540  41.521  16.309  12.971
89215W        W61541  25.168  39.830   2.821
89216W        W61542  35.400  44.497  14.350
89217W        W61543   8.221  23.532  13.495
89218W        W61544  31.412  33.578  13.912
89219W        W61545  29.160  12.337   1.875
89220W        W61546  44.798   2.256  10.946
89221W        W61547  10.184  39.908   0.841
89222W        W61548  38.971  44.265   1.759
89223W        W61549   0.477   8.736   5.198
89224W        W61550  21.111  35.077   2.206
89225W        W61551   2.227   2.803   4.323
89226W        W61552  26.581  10.635   3.190
89227W        W61553   7.840  26.498  14.442
89228W        W61554  21.706  32.000  12.059
89229W        W61555  11.363   5.737  12.441
89230W        W61556  43.890   1.288   0.391
89231W        W61557  36.913  18.781   1.728
89232W        W61558  10.175  43.327  14.409
89233W        W61559  28.540  24.172   3.244
89234W        W61560  10.645   7.912  11.539
89235W        W61561  37.475  32.599  10.928
89236W        W61562  41.938  38.042  13.911
89237W        W61563  15.283  11.336   2.737
89238W        W61564  33.968  44.332  14.906
89239W        W61565  43.311  34.369   4.250
89240W        W61566   6.903   6.798  11.092
89241W        W61567  17.264  11.676  10.602
89242W        W61568  17.790  36.431  12.507
89243W        W61569   8.376  20.568  11.488
89244W        W61570  43.326  35.438   0.478
89245W        W61571  23.184  20.660   1.236
89246W        W61572   6.312   1.411  12.962
89247W        W61573  10.832   4.906   4.638
89248W        W61574  16.282  44.009  13.475
89249W        W61575  21.743  20.692   3.212
89250W        W61576  36.938   6.340   1.391
89251W        W61577  10.697  37.448   3.638
89252W        W61578   7.234  37.352  13.047
89253W        W61579  26.537  34.009  13.388
89254W        W61580  17.719   2.779  13.531
89255W        W61581  13.825  32.435  14.505
89256W        W61582  18.097  41.530   4.744
89257W        W61583  22.222  17.091  13.824
89258W        W61584  30.045   1.383   1.378
89259W        W61585  33.056  23.230  12.022
89260W        W61586  12.169  29.033   1.235
89261W        W61587  14.201   9.847  11.909
89262W        W61588  31.476  42.895   4.699
89263W        W61589  39.424   3.887  11.005
89264W        W61590  40.369  25.533   4.181
89265W        W61591  37.554  11.685  13.050
89266W        W61592  33.958   2.305   4.643
89267W        W61593  42.321  43.373  14.335
89268W        W61594  30.592  28.459  14.385
89269W        W61595  26.997  24.542   4.247
89270W        W61596  10.139   8.348   2.761
89271W        W61597  16.578  42.379   2.362
89272W        W61598  11.729  42.853   4.704
89273W        W61599  20.151  31.414   0.847
89274W        W61600   0.813  27.460  11.864
89275W        W61601  43.462  20.596  11.501
89276W        W61602   5.778   4.827   2.885
89277W        W61603  42.898  14.816  12.536
89278W        W61604  41.876  27.682  10.973
89279W        W61605   6.730   4.801  10.494
89280W        W61606  36.366  29.057  13.818
89281W        W61607   1.478   9.313  13.943
89282W        W61608   2.280  22.192  12.367
89283W        W61609  26.173  42.331   1.217
89284W        W61610  14.814   2.309  13.408
89285W        W61611  19.075  26.646   2.202
89286W        W61612   3.333  18.205  11.570
89287W        W61613  29.570   6.846   0.747
89288W        W61614  27.495  42.985   2.222
89289W        W61615  41.999  36.989   4.718
89290W        W61616  43.331  26.198   0.964
89291W        W61617   4.840  23.079   1.251
89292W        W61618  38.882  33.988  13.856
89293W        W61619  11.741   4.706   2.718
89294W        W61620  42.887  19.102  10.419
89295W        W61621  24.212   2.253  11.076
89296W        W61622   0.411  44.826   4.705
89297W        W61623  38.065   6.397  11.099
89298W        W61624  29.157  38.074  11.548
89299W        W61625  32.056   4.744  11.531
89300W        W61626  26.498  39.007   4.245
89301W        W61627   1.343  11.647  13.515
89302W        W61628  25.147  38.405   1.712
89303W        W61629   6.884  18.568  13.860
89304W        W61630  24.580   2.276  14.828
89305W        W61631  43.927  15.111   1.408
89306W        W61632  21.737  23.675   0.962
89307W        W61633  11.291  14.692   2.693
89308W        W61634  30.659  25.073   2.774
89309W        W61635  23.098  17.198   3.179
89310W        W61636  43.012  26.089   0.833
89311W        W61637   5.763  39.836  12.081
89312W        W61638  20.607  39.872   1.366
89313W        W61639   5.352  43.356  12.395
89314W        W61640  22.247  43.871   0.749
89315W        W61641  29.511  41.293   9.983
89316W        W61642  20.121  40.957   4.698
89317W        W61643  29.150   5.846  11.884
89318W        W61644  20.669  23.147  13.854
89319W        W61645  43.438  19.169   3.703
89320W        W61646  30.580  39.811   3.242
89321W        W61647  33.421  30.130  11.376
89322W        W61648   4.428  22.032   9.455
89323W        W61649  31.043   0.364  10.924
89324W        W61650  40.465  32.017  14.854
89325W        W61651   9.801   8.654  14.951
89326W        W61652  29.932  14.611   0.888
89327W        W61653   3.925  40.525  10.422
89328W        W61654  28.011  10.191  13.451
89329W        W61655  41.417  20.600  12.456
89330W        W61656  30.623  37.841   4.284
89331W        W61657  34.606  14.212   1.703
89332W        W61658  19.212   0.825  11.988
89333W        W61659  39.019  12.244   4.236
89334W        W61660  38.034  22.589   1.867
89335W        W61661  38.501   1.975  14.983
89336W        W61662  44.889  13.285   2.823
89337W        W61663  31.150  24.985  10.504
89338W        W61664   9.327  30.910  14.809
89339W        W61665  43.966   0.460  14.944
89340W        W61666  31.500  31.994   0.370
89341W        W61667  13.292  15.809  12.373
89342W        W61668  40.459  12.828   2.239
89343W        W61669  15.265  37.994   1.747
89344W        W61670  39.490  29.475  10.453
89345W        W61671  42.433  30.037   0.836
89346W        W61672  23.521   3.841  11.497
89347W        W61673  29.486  39.992   3.328
89348W        W61674   5.404  16.146  12.538
89349W        W61675  42.524  23.535  13.050
89350W        W61676  23.542   7.814  11.601
89351W        W61677  28.437  41.349   0.931
89352W        W61678  30.587   5.740  13.910
89353W        W61679  16.587  20.557   0.461
89354W        W61680  37.414  13.175   9.553
89355W        W61681   2.334  18.215  14.940
89356W        W61682  42.914  42.409  13.800
89357W        W61683  42.932  32.620   0.746
89358W        W61684  24.675  41.334   4.650
89359W        W61685  26.161   6.853   0.274
89360W        W61686  44.897   7.240   4.674
89361W        W61687   2.894  10.663   1.262
89362W        W61688  32.597  18.187   5.185
89363W        W61689  22.033   6.232  12.532
89364W        W61690   2.427  34.598  12.380
89365W        W61691  29.502  23.093   0.297
89366W        W61692  13.788  28.132  10.540
89367W        W61693  16.158  14.241   5.221
89368W        W61694  38.972  36.478   3.838
89369W        W61695  17.660  22.131  14.777
89370W        W61696  34.369  40.445   3.764
89371W        W61697  34.495  19.081  13.409
89372W        W61698  16.096  30.415  14.824
89373W        W61699  29.933   0.391   4.344
89374W        W61700  12.851  17.608   0.347
89375W        W61701  11.693  37.938  14.495
89376W        W61702  10.374  15.766  12.455
89377W        W61703   3.748  17.307   2.725
89378W        W61704   3.225  40.912   1.369
89379W        W61705   8.313  15.680   4.791
89380W        W61706  10.742  35.098  10.505
89381W        W61707  14.315  37.082  12.498
89382W        W61708   7.785  10.688   2.789
89383W        W61709   3.405  22.135  13.367
89384W        W61710  29.482  22.708  12.570
89385W        W61711  35.419  13.245  14.391
89386W        W61712  15.718  14.197  10.926
89387W        W61713  31.570  11.250   0.331
89388W        W61714  40.046  35.861   0.283
89389W        W61715  15.602  11.625   1.899
89390W        W61716  33.976  24.013   3.175
89391W        W61717  22.014  43.454  14.916
89392W        W61718   8.317  28.665   2.373
89393W        W61719   6.188  29.433  10.451
89394W        W61720   9.871  15.624   1.408
89395W        W61721  32.081  38.334   4.188
89396W        W61722  22.644   3.377   5.224
89397W        W61723  23.700   8.742  10.987
89398W        W61724  36.443  38.878  14.275
89399W        W61725  21.627  42.947   4.153
89400W        W61726  25.524  31.983  13.923
89401W        W61727   4.757  19.734   0.745
89402W        W61728  26.574   8.863   2.903
89403W        W61729  11.717  29.627  10.076
89404W        W61730  28.180  44.418  14.773
89405W        W61731  10.817  19.627  12.083
89406W        W61732  14.723  16.695   1.324
89407W        W61733  23.668  12.116  12.376
89408W        W61734  32.453  32.033  11.036
89409W        W61735  15.657  24.050  14.383
89410W        W61736  41.978  12.674   1.235
89411W        W61737  40.448  40.441  12.387
89412W        W61738   2.297  18.118  12.989
89413W        W61739  44.304  23.154  11.434
89414W        W61740  30.014   4.846   4.692
89415W        W61741  30.608   4.423   3.848
89416W        W61742   7.879  18.586   4.324
89417W        W61743  35.441  33.049   1.706
89418W        W61744  44.491  20.730  14.471
89419W        W61745  30.975   8.813  14.813
89420W        W61746  16.229  25.541  14.980
89421W        W61747  39.541  13.686  11.492
89422W        W61748  33.440  40.933  14.292
89423W        W61749  10.713  41.467   3.157
89424W        W61750  35.015  10.761  12.000
89425W        W61751   1.410  28.081   1.379
89426W        W61752  32.555  30.926   4.682
89427W        W61753  26.002  18.250  12.986
89428W        W61754  10.873   3.244   4.752
89429W        W61755  44.887  19.285  10.580
89430W        W61756   8.180  32.118   4.724
89431W        W61757  14.803   0.349   4.229
89432W        W61758  21.601  21.259   2.333
89433W        W61759  17.157  39.557  11.088
89434W        W61760  42.436   7.229  11.003
89435W        W61761  32.077  27.662  11.547
89436W        W61762  13.106   0.386   3.374
89437W        W61763  30.917  42.285  12.970
89438W        W61764   9.751  30.492   2.367
89439W        W61765   3.431  40.004   3.256
89440W        W61766  20.570   9.272  14.029
89441W        W61767  14.331   4.931   1.896
89442W        W61768  25.679  21.669  11.523
89443W        W61769   2.354  21.219   3.666
89444W        W61770  17.590  19.631  14.821
89445W        W61771  34.404  27.500   1.389
89446W        W61772  25.206   0.494   0.258
89447W        W61773  29.490   5.270  14.326
89448W        W61774   4.700  27.627  12.574
89449W        W61775  20.155   6.311  11.059
89450W        W61776  43.337  41.940   4.315
89451W        W61777  15.171  13.281   3.259
89452W        W61778  28.614  30.471  11.440
89453W        W61779   2.357  19.725   1.440
89454W        W61780   9.220  13.156  12.858
89455W        W61781   6.375   0.362   3.232
89456W        W61782  13.843  39.948   2.844
89457W        W61783  33.559  27.658  14.300
89458W        W61784   4.365  14.192  14.005
89459W        W61785  31.930  40.544  13.469
89460W        W61786  19.772   8.343  10.491
89461W        W61787   0.924  33.452  11.959
89462W        W61788   3.408  36.098  14.821
89463W        W61789  44.778  28.452  10.494
89464W        W61790  20.240  14.692   2.213
89465W        W61791  28.998  16.579  12.435
89466W        W61792   4.225  15.257  12.459
89467W        W61793  36.970   2.814  11.513
89468W        W61794  40.894  19.544   0.904
89469W        W61795  37.490  15.604  12.015
89470W        W61796  39.324  23.502   0.772
89471W        W61797   0.840   9.679  11.932
89472W        W61798  28.583   7.855   1.437
89473W        W61799  31.477  12.753  14.510
89474W        W61800  15.594  26.537  10.937
89475W        W61801  34.439  31.916  12.979
89476W        W61802  38.934  34.935   5.168
89477W        W61803  37.460  39.960   4.781
89478W        W61804  39.952  26.125   1.759
89479W        W61805  19.671  38.357   3.856
89480W        W61806   7.683  15.654   2.888
89481W        W61807  23.603   1.884  14.375
89482W        W61808  37.514  43.498  14.470
89483W        W61809  33.126  35.059  12.368
89484W        W61810   0.869   1.374  11.604
89485W        W61811  44.782  10.292   0.829
89486W        W61812  22.039  42.495  10.998
89487W        W61813  15.673  18.776   2.796
89488W        W61814  41.356  34.589  12.908
89489W        W61815  22.182  22.729  14.325
89490W        W61816  41.802  14.130  13.943
89491W        W61817  22.147  30.493  12.412
89492W        W61818  38.912  34.006   1.868
89493W        W61819  21.030  11.703   1.432
89494W        W61820  15.582   6.879   0.897
89495W        W61821  22.099  22.656   3.868
89496W        W61822  22.218  16.085  14.800
89497W        W61823  41.389  44.957   2.695
89498W        W61824  21.205  25.210   4.206
89499W        W61825   9.653  32.595  13.320
89500W        W61826  43.277   7.230  13.501
89501W        W61827  39.371   9.198  13.888
89502W        W61828  44.503  30.081   4.291
89503W        W61829  25.605  25.606   3.633
89504W        W61830  43.835  23.006  13.839
89505W        W61831  21.058  44.969   0.457
89506W        W61832  12.734  34.879   3.803
89507W        W61833  24.662  12.743  13.944
89508W        W61834  43.365  15.759  10.602
89509W        W61835  13.780  26.550   4.812
89510W        W61836  20.620  18.556  12.838
89511W        W61837  31.058  32.572  13.874
89512W        W61838  40.355  25.014  13.802
89513W        W61839   7.745  30.014  10.630
89514W        W61840  38.923  27.666  13.006
89515W        W61841  25.135  33.595   5.166
89516W        W61842  42.796   0.902   1.730
89517W        W61843   0.260  18.280   0.826
89518W        W61844  30.531   2.242  12.435
89519W        W61845  23.058  27.687   3.677
89520W        W61846  14.641  35.917   4.228
89521W        W61847   4.720  23.531   0.464
89522W        W61848   2.387  40.352   2.726
89523W        W61849  13.707  20.707   2.289
89524W        W61850  17.230  38.973   1.359
89525W        W61851   8.195  37.382   0.283
89526W        W61852  14.639  44.863  12.083
89527W        W61853  11.769  33.103   0.823
89528W        W61854  24.049  37.503   2.771
89529W        W61855   1.813  22.237  13.061
89530W        W61856  31.419  23.666   4.323
89531W        W61857  35.860  18.769  13.500
89532W        W61858   2.751   5.390  10.040
89533W        W61859  33.626   7.214   3.838
89534W        W61860  21.585  25.004   4.179
89535W        W61861  43.873  28.995  13.024
89536W        W61862  26.992  31.502  14.421
89537W        W61863   6.205   3.920  11.018
89538W        W61864  42.300  18.202   0.484
89539W        W61865  44.459   1.317   1.410
89540W        W61866  15.716   3.293  14.942
89541W        W61867  25.665   5.840   0.898
89542W        W61868  31.914  34.890  11.493
89543W        W61869  33.125  18.640  11.442
89544W        W61870  32.951  42.387  11.568
89545W        W61871  44.282  44.946  10.627
89546W        W61872  28.047   1.965  11.567
89547W        W61873  43.809  18.122  13.444
89548W        W61874  10.300   3.864  14.845
89549W        W61875  41.487  26.502   4.780
89550W        W61876   8.254  29.988  13.872
89551W        W61877  32.044  23.701  14.334
89552W        W61878   0.901   9.306   0.873
89553W        W61879  25.088  17.649  10.935
89554W        W61880  37.853   5.916  13.814
89555W        W61881  21.628  44.000   3.334
89556W        W61882  14.795  35.903   0.444
89557W        W61883  24.528  37.427  10.069
89558W        W61884   6.764  31.475   3.235
89559W        W61885  36.993  12.718   3.775
89560W        W61886  29.458  42.857  10.025
89561W        W61887   0.904  29.103  12.083
89562W        W61888   0.433  41.902  12.075
89563W        W61889  16.153  22.675   1.877
89564W        W61890  22.598  42.350   4.727
89565W        W61891   0.305  27.547  14.810
89566W        W61892   9.694  38.450   3.216
89567W        W61893  24.198  31.942  11.558
89568W        W61894  31.007  10.686   1.872
89569W        W61895  41.405  40.511   3.298
89570W        W61896  38.340   4.346   3.748
89571W        W61897  17.087  20.554   0.829
89572W        W61898   1.814  26.618  11.129
89573W        W61899  16.708  14.120   1.845
89574W        W61900  43.856  10.659   4.808
89575W        W61901  28.022  11.149   2.252
89576W        W61902  40.474  30.452  11.098
89577W        W61903   9.280  14.671   1.888
89578W        W61904  27.048  32.131   3.664
89579W        W61905  23.238   3.866  11.457
89580W        W61906  39.977  23.637   0.401
89581W        W61907  29.602  30.930   0.857
89582W        W61908  21.215  14.783   3.709
89583W        W61909  26.190  24.588   0.924
89584W        W61910  40.379  33.468  12.500
89585W        W61911  17.757  33.445  12.017
89586W        W61912  13.755  16.792   0.907
89587W        W61913  35.567   5.365  10.414
89588W        W61914  21.542  41.935   3.653
89589W        W61915  37.527  24.992   0.781
89590W        W61916   0.978  35.996  10.519
89591W        W61917  43.451  41.387   4.257
89592W        W61918  14.590  35.917  10.031
89593W        W61919  23.735  11.831   0.913
89594W        W61920  40.327  41.874  13.936
89595W        W61921  22.607  34.894   4.774
89596W        W61922  41.338   9.205   0.476
89597W        W61923  36.419  18.735  12.922
89598W        W61924   3.395  38.324  10.619
89599W        W61925   0.492  11.674  14.959
89600W        W61926  36.515  34.994  10.978
89601W        W61927   7.861  25.597   3.703
89602W        W61928  31.633  16.280   4.658
89603W        W61929   1.836  29.967  12.824
89604W        W61930  18.284  43.847   3.833
89605W        W61931  21.550   3.226   5.142
89606W        W61932  15.709   6.678   4.352
89607W        W61933  37.993  11.844  13.393
89608W        W61934   7.804  29.543   0.253
89609W        W61935  10.176   2.804   4.733
89610W        W61936   3.826   7.333  13.969
89611W        W61937  11.306   0.977  13.905
89612W        W61938   3.860  20.096  13.397
89613W        W61939  35.601  20.210  11.977
89614W        W61940  39.821  22.098  14.889
89615W        W61941  43.361  38.007   0.750
89616W        W61942  29.091  44.899  13.824
89617W        W61943  32.893  15.126   0.390
89618W        W61944  33.912   0.389  14.341
89619W        W61945  10.150  24.115  14.012
89620W        W61946  35.555  11.188  12.062
89621W        W61947  20.220   6.375  13.019
89622W        W61948  44.998   4.264  14.983
89623W        W61949  38.566   1.325  13.919
89624W        W61950  22.647  19.279  11.595
89625W        W61951  37.477  15.112  12.554
89626W        W61952  27.569  10.211  13.320
89627W        W61953  26.463  33.600  12.509
89628W        W61954  34.991   3.413  11.527
89629W        W61955  32.519  30.996   0.294
89630W        W61956  42.342  16.593   0.852
89631W        W61957  30.976   2.394   3.221
89632W        W61958  20.231  28.475   3.784
89633W        W61959  10.664  30.525   3.646
89634W        W61960  37.918  35.941  14.979
89635W        W61961   0.843  32.987   4.167
89636W        W61962   9.774  38.824   1.384
89637W        W61963  30.064  30.590   2.721
89638W        W61964   4.377  30.623  14.320
89639W        W61965   2.796  29.630   3.738
89640W        W61966   7.739  38.384   3.286
89641W        W61967  32.896  31.963  11.097
89642W        W61968  22.152  42.830  14.496
89643W        W61969  13.195   9.167  12.909
89644W        W61970  42.822  37.514  11.924
89645W        W61971  39.559  25.158   2.306
89646W        W61972  38.907  17.230  10.929
89647W        W61973  30.522  31.148  13.897
89648W        W61974  29.655   4.732   1.390
89649W        W61975  13.801  34.945   2.230
89650W        W61976  26.165  11.305  12.862
89651W        W61977   5.927  10.687  12.015
89652W        W61978  31.108  22.669  10.503
89653W        W61979  41.420   5.741  12.422
89654W        W61980   9.365   8.203  13.912
89655W        W61981  31.073  14.290  14.871
89656W        W61982   7.297  21.651   0.249
89657W        W61983  36.487   9.298   4.274
89658W        W61984  28.561  42.518   4.269
89659W        W61985  36.959  44.369   2.758
89660W        W61986  26.539   4.223  13.870
89661W        W61987   7.218  14.131   4.658
89662W        W61988  33.522   6.677   2.822
89663W        W61989   2.318   6.874  11.583
89664W        W61990  17.675   9.352   3.180
89665W        W61991  42.466   2.760   3.721
89666W        W61992  42.904  40.982  10.590
89667W        W61993  25.588  32.073   0.886
89668W        W61994  10.653  42.979  14.996
89669W        W61995  11.833   4.819  10.593
89670W        W61996  24.547  33.945  13.437
89671W        W61997  23.020   5.864   1.757
89672W        W61998   0.330  30.049  14.891
89673W        W61999  18.690  34.036  11.888
89674W        W62000  19.176  12.262   0.909
89675W        W62001   9.189   0.955   2.223
89676W        W62002  41.956  19.546  10.980
89677W        W62003   7.340  10.878   0.283
89678W        W62004  28.565  14.132   2.779
89679W        W62005   8.255   3.867   0.807
89680W        W62006  44.006  18.621  12.408
89681W        W62007  21.236   9.225   3.684
89682W        W62008  32.480  41.394   5.103
89683W        W62009  20.664  10.297   1.907
89684W        W62010  40.916  39.522   2.687
89685W        W62011  21.518  19.651   1.212
89686W        W62012  35.531  41.892  11.400
89687W        W62013  25.473  18.622   3.368
89688W        W62014   5.809  38.950  14.428
89689W        W62015   0.266  39.470   3.335
89690W        W62016   1.813  19.733  10.459
89691W        W62017  33.883  20.089   3.691
89692W        W62018   9.663  30.503  12.064
89693W        W62019  27.044  23.595   2.234
89694W        W62020   2.284   7.803  14.793
89695W        W62021  12.768  39.505  14.873
89696W        W62022  33.434  13.297  12.475
89697W        W62023   0.902  19.246   4.620
89698W        W62024  18.246  21.659  12.845
89699W        W62025  39.913   2.891  12.456
89700W        W62026   7.908  12.692   4.292
89701W        W62027   5.213  12.803   2.778
89702W        W62028  28.961  26.564   3.385
89703W        W62029  35.405  32.968   2.667
89704W        W62030  17.267  23.587  12.421
89705W        W62031  27.515  29.621  12.341
89706W        W62032  28.067   3.383   1.278
89707W        W62033  22.995  17.127   0.378
89708W        W62034  41.796  40.523   2.773
89709W        W62035  17.143  21.698  10.596
89710W        W62036  28.453  29.932   2.729
89711W        W62037  15.149  35.401   9.493
89712W        W62038  12.673  25.469  14.763
89713W        W62039  23.198  25.475   0.290
89714W        W62040  29.173   8.256  12.932
89715W        W62041  38.864  15.267  11.506
89716W        W62042  30.449  22.051   4.315
89717W        W62043  38.036  20.633  12.340
89718W        W62044  24.119   4.900   0.920
89719W        W62045   8.745  19.636   4.203
89720W        W62046  32.607   1.897   2.732
89721W        W62047  33.417   6.228   0.846
89722W        W62048  32.910  15.658  14.955
89723W        W62049   2.387  12.734   1.807
89724W        W62050  10.841  17.741   3.760
89725W        W62051  41.017  18.054   4.123
89726W        W62052   5.330  36.863   2.347
89727W        W62053  36.454  18.052  11.989
89728W        W62054  30.529  24.198   0.367
89729W        W62055  11.371  23.007   1.800
89730W        W62056  19.546  28.638   4.195
89731W        W62057  14.114   5.837  10.590
89732W        W62058  35.088  20.700  13.379
89733W        W62059   2.443  21.744   1.446
89734W        W62060  21.520   3.857   1.909
89735W        W62061  24.516  23.051   0.394
89736W        W62062  27.017   8.717   0.897
89737W        W62063  41.042   2.834   4.711
89738W        W62064  10.159  17.133  11.438
89739W        W62065   5.910  30.941  13.516
89740W        W62066  12.325  11.146  12.962
89741W        W62067   3.447   7.268  11.377
89742W        W62068  17.565  18.723  12.405
89743W        W62069  38.865  36.890  14.859
89744W        W62070   2.826  44.504   3.201
89745W        W62071  32.586  26.994   0.937
89746W        W62072   9.889   0.313   4.708
89747W        W62073  31.508   4.335  14.993
89748W        W62074  16.758  41.416  14.403
89749W        W62075  38.918   7.414   9.982
89750W        W62076  23.192  38.926  13.341
89751W        W62077  42.353  43.936  11.075
89752W        W62078  43.941   7.229  10.992
89753W        W62079  15.208  10.328  10.998
89754W        W62080  37.035  37.573  12.995
89755W        W62081  30.108  31.910  13.931
89756W        W62082  22.510   2.409   1.932
89757W        W62083  30.639  15.323  13.918
89758W        W62084  21.623  11.638   1.932
89759W        W62085   0.855  22.631  12.018
89760W        W62086   1.310  40.935   0.765
89761W        W62087  39.341  23.997  14.907
89762W        W62088  23.512  29.495   2.218
89763W        W62089  24.593  32.545  10.933
89764W        W62090   5.241  29.476   4.817
89765W        W62091  38.960  40.506  12.997
89766W        W62092  15.702  21.076  14.950
89767W        W62093  21.538  10.696   1.880
89768W        W62094  17.600  23.651  12.551
89769W        W62095  20.100  36.565  10.626
89770W        W62096  12.711  40.310   1.934
89771W        W62097   3.392   6.216   0.391
89772W        W62098  21.195  13.303   1.331
89773W        W62099  28.992  33.901   3.813
89774W        W62100   6.681   8.771   1.251
89775W        W62101  12.639   1.302   4.240
89776W        W62102   4.822  12.770  12.823
89777W        W62103  24.650  37.087   0.401
89778W        W62104  40.046  36.478   1.236
89779W        W62105   1.277   8.854   4.252
89780W        W62106   7.789  12.174   2.315
89781W        W62107  37.874  26.516   4.723
89782W        W62108  19.757  43.944   2.743
89783W        W62109   0.849  28.004  10.985
89784W        W62110   9.887   6.208   4.744
89785W        W62111  42.452  28.086  12.872
89786W        W62112   9.799  13.312  10.638
89787W        W62113  25.091  32.394   4.740
89788W        W62114  12.650  39.512   2.220
89789W        W62115  42.880  30.580   2.708
89790W        W62116  20.059  14.784   2.818
89791W        W62117  36.018  39.019  14.315
89792W        W62118  43.391  32.476   4.145
89793W        W62119  16.737  43.466   4.294
89794W        W62120   4.925   1.961   0.926
89795W        W62121  15.720  20.552   4.161
89796W        W62122  11.307  23.685   3.679
89797W        W62123  29.023   3.251  10.449
89798W        W62124   7.834  28.951   0.878
89799W        W62125  24.527  43.862  10.527
89800W        W62126  26.129  42.481   2.194
89801W        W62127   1.458  16.296   0.761
89802W        W62128  21.630   4.738  13.543
89803W        W62129  34.109  12.139   4.279
89804W        W62130  15.793   9.750   4.715
89805W        W62131  13.351  36.376   2.740
89806W        W62132   3.940  12.634   0.864
89807W        W62133   2.944  32.467   0.446
89808W        W62134  24.121  31.488  14.480
89809W        W62135   5.834  22.715  11.098
89810W        W62136   4.371   9.846  12.030
89811W        W62137  12.680  19.263   0.839
89812W        W62138  10.165  34.494  13.371
89813W        W62139  13.793  17.201  11.928
89814W        W62140  11.840  34.453  11.950
89815W        W62141  29.990  32.511  13.311
89816W        W62142  23.038  36.404  11.106
89817W        W62143   6.226  41.982  11.892
89818W        W62144  36.981  41.506  12.020
89819W        W62145  12.163  11.127   1.922
89820W        W62146  27.145  10.294  10.539
89821W        W62147   8.291  23.093   4.156
89822W        W62148  31.423  25.186   1.794
89823W        W62149  20.205  23.498   0.277
89824W        W62150  35.004  35.431  14.942
89825W        W62151  44.500   1.363  12.379
89826W        W62152  13.842  20.587   4.239
89827W        W62153  36.022   3.360  12.882
89828W        W62154  40.888  21.653   2.293
89829W        W62155   0.970   5.230   0.327
89830W        W62156  21.049  44.374   3.791
89831W        W62157  30.574  25.698   3.660
89832W        W62158  38.988   2.846   3.240
89833W        W62159  42.963  44.952  14.359
89834W        W62160  37.423  42.951  11.603
89835W        W62161  26.001  40.393  13.010
89836W        W62162  32.582   6.852   1.256
89837W        W62163  40.365  25.046   4.246
89838W        W62164  36.506  17.176  13.471
89839W        W62165  28.031  26.979   4.700
89840W        W62166   3.886  34.909  10.510
89841W        W62167   7.708   2.803   1.698
89842W        W62168  22.041   8.805   1.887
89843W        W62169  29.436  12.781   1.366
89844W        W62170   4.359   5.840   3.668
89845W        W62171   0.385  17.145   2.371
89846W        W62172  16.725  41.856   2.401
89847W        W62173  42.802  44.432  14.830
89848W        W62174   5.895  17.727  10.491
89849W        W62175  40.305   3.411   1.902
89850W        W62176  36.942  37.850   2.213
89851W        W62177  22.534  32.491  14.764
89852W        W62178   3.266  40.421   1.323
89853W        W62179  27.653   3.374   3.820
89854W        W62180  15.087  40.952  13.517
89855W        W62181  28.557   8.695   1.895
89856W        W62182   2.405  33.902   3.854
89857W        W62183  19.591  35.414   2.862
89858W        W62184  38.340  17.674   1.362
89859W        W62185   2.952  29.657  10.464
89860W        W62186   4.841   2.348  13.011
89861W        W62187  21.164  30.597  11.074
89862W        W62188   9.738  20.560   2.680
89863W        W62189   4.934  21.628  10.621
89864W        W62190   9.330   9.846   0.473
89865W        W62191  44.264   7.275  12.825
89866W        W62192  27.501  18.202  11.540
89867W        W62193  38.898   6.882  13.412
89868W        W62194  10.186   8.242  14.904
89869W        W62195  34.007   5.300  11.556
89870W        W62196  40.828  10.314  12.888
89871W        W62197   2.360  17.661  11.592
89872W        W62198   4.780  10.375   5.133
89873W        W62199  30.975  39.530  11.582
89874W        W62200  13.296  29.511   0.761
89875W        W62201  16.283  11.153  13.889
89876W        W62202  13.128  21.238   5.107
89877W        W62203  21.050  24.483  12.079
89878W        W62204  30.579   2.463   2.185
89879W        W62205  10.346  11.265  11.390
89880W        W62206   9.155  28.435  10.948
89881W        W62207   0.361  44.946  10.437
89882W        W62208  36.064  36.350   1.905
89883W        W62209  40.350  14.753  11.009
89884W        W62210  22.587   7.775  14.457
89885W        W62211   4.916  34.928  10.438
89886W        W62212   0.370  33.394  11.904
89887W        W62213  21.718  36.918  12.875
89888W        W62214  40.883  41.497  13.418
89889W        W62215  18.551   2.249  10.593
89890W        W62216  15.714  29.490   3.695
89891W        W62217  27.015   2.350   1.400
89892W        W62218  26.524  16.308  12.984
89893W        W62219  28.174  36.583   4.656
89894W        W62220  29.658  18.242   0.347
89895W        W62221   0.326  15.665   3.218
89896W        W62222  30.600  19.147  14.384
89897W        W62223   6.845  25.569  13.492
89898W        W62224  17.615  13.621   2.875
89899W        W62225  19.533  37.565   1.417
89900W        W62226   1.973   8.748  12.398
89901W        W62227   0.800  35.983  12.923
89902W        W62228  24.639  18.121   5.690
89903W        W62229   7.390   2.441  10.476
89904W        W62230  25.208  44.488   2.826
89905W        W62231  27.022  16.751   1.931
89906W        W62232   6.428  33.072  10.584
89907W        W62233   7.217  12.823  13.994
89908W        W62234  26.007   7.376   0.949
89909W        W62235  24.217  23.095  12.446
89910W        W62236  17.685  18.588  13.362
89911W        W62237  43.009  15.235  10.514
89912W        W62238  40.911  22.063   1.286
89913W        W62239  30.077   7.684  12.088
89914W        W62240  32.510  34.050   4.838
89915W        W62241  10.683  15.618   2.413
89916W        W62242  23.031  44.424   3.706
89917W        W62243  42.014  16.697  12.869
89918W        W62244  36.386  26.693   3.742
89919W        W62245  29.049   1.255  10.407
89920W        W62246  28.524  21.650  13.842
89921W        W62247   7.839  27.118  11.058
89922W        W62248  15.104  16.219   0.752
89923W        W62249  44.468  32.946   4.252
89924W        W62250  21.528  22.233  14.805
89925W        W62251  18.577  13.637  14.482
89926W        W62252  10.711   3.431   3.793
89927W        W62253  23.563  11.191   1.286
89928W        W62254  29.957   3.337  12.405
89929W        W62255  41.522  15.209   0.283
89930W        W62256  24.590  39.448   2.699
89931W        W62257  17.186   9.875   0.912
89932W        W62258   1.240  32.955   1.279
89933W        W62259   3.217   2.431  13.497
89934W        W62260  13.604  11.630   4.249
89935W        W62261  31.955  42.995  11.408
89936W        W62262  33.595  21.111   5.201
89937W        W62263  25.620  39.960   2.401
89938W        W62264   3.221  18.654   5.113
89939W        W62265  44.799   9.376  14.893
89940W        W62266   6.375   2.925  11.603
89941W        W62267  32.427   4.771  13.944
89942W        W62268  41.874  11.827   1.742
89943W        W62269  34.976   4.749   4.749
89944W        W62270  21.145  43.381  14.999
89945W        W62271  11.244  10.296   3.758
89946W        W62272  38.069  43.423  11.038
89947W        W62273  35.032  44.443   3.657
89948W        W62274  35.004  32.525   1.440
89949W        W62275  40.032  31.509  13.308
89950W        W62276  37.518  27.007   4.308
89951W        W62277  10.256  30.640  12.867
89952W        W62278   0.925   8.353   2.691
89953W        W62279  21.698  14.193   0.761
89954W        W62280  23.000  22.068  13.036
89955W        W62281   9.168  40.941  11.938
89956W        W62282  17.717   0.872   4.633
89957W        W62283  39.348   4.764   0.831
89958W        W62284  20.685   5.826  14.890
89959W        W62285  31.088  41.474   1.239
89960W        W62286  31.522  30.512   0.418
89961W        W62287  41.026  11.350   1.241
89962W        W62288  15.666  44.377   5.081
89963W        W62289  17.799  31.615   1.743
89964W        W62290  27.540  33.483  10.484
89965W        W62291   2.430  12.785  14.455
89966W        W62292  18.250  32.611   1.266
89967W        W62293  14.124   0.437  10.947
89968W        W62294  14.726  11.133  14.410
89969W        W62295  40.488  26.173   3.380
89970W        W62296  21.122  14.636  14.938
89971W        W62297  16.291  18.684  10.122
89972W        W62298  10.266  43.008  10.983
89973W        W62299  27.540  35.566  11.934
89974W        W62300  41.443   3.926   2.222
89975W        W62301  35.955  27.574   1.773
89976W        W62302  10.290   1.910  14.983
89977W        W62303  10.262  16.220  14.481
89978W        W62304  31.612   2.355  11.045
89979W        W62305  20.728  33.951  13.425
89980W        W62306   9.295  22.159   1.349
89981W        W62307  25.168   2.734  13.410
89982W        W62308  12.728  44.783  14.343
89983W        W62309  16.584  24.039  10.504
89984W        W62310   4.840  29.503   0.914
89985W        W62311   9.859  21.641   4.245
89986W        W62312  34.083  11.819   4.236
89987W        W62313  31.048   6.372   4.749
89988W        W62314  25.714  36.916  11.991
89989W        W62315  26.677  29.951  13.347
89990W        W62316  42.983  18.280   2.807
89991W        W62317  20.745  36.883  14.941
89992W        W62318  27.048  17.247   4.291
89993W        W62319  38.016  26.466  11.063
89994W        W62320  34.565   5.342  13.392
89995W        W62321  42.371  39.044  13.532
89996W        W62322  44.432  39.388   0.449
89997W        W62323  16.169  42.916  14.831
89998W        W62324  42.481   6.791   2.701
89999W        W62325  24.092   5.263  12.564
90000W        W62326  39.850  10.215  12.485
90001W        W62327  18.758  19.162  14.920
90002W        W62328  19.046   5.235  11.488
90003W        W62329   1.874  42.400  12.437
90004W        W62330  32.444  15.674  13.322
90005W        W62331  43.497  19.683  13.005
90006W        W62332   9.804  14.315  13.052
90007W        W62333  19.245   4.825   0.876
90008W        W62334   6.333  17.211   0.249
90009W        W62335   9.774  17.750   0.477
90010W        W62336  28.444  39.364   1.918
90011W        W62337   5.726  35.490  12.461
90012W        W62338  29.117  17.163   2.235
90013W        W62339  41.874   0.920   3.810
90014W        W62340  10.214  31.051   2.715
90015W        W62341   1.840  17.629   1.225
90016W        W62342  43.864  34.535   1.451
90017W        W62343  44.384   0.837   1.346
90018W        W62344  22.541  40.039  13.792
90019W        W62345   1.755  34.419   0.962
90020W        W62346  36.448  31.576   4.608
90021W        W62347  42.320  38.549  14.912
90022W        W62348  38.912  39.347  14.897
90023W        W62349  25.024  43.376   2.182
90024W        W62350   2.411  21.721  14.284
90025W        W62351   4.370  37.422  14.935
90026W        W62352   8.375  22.071   1.803
90027W        W62353  43.345  18.066  10.447
90028W        W62354  37.575  28.538  14.795
90029W        W62355  41.972  21.530  14.323
90030W        W62356  17.156  26.526  11.003
90031W        W62357  19.235  23.681   0.944
90032W        W62358  20.711  34.516   2.330
90033W        W62359  35.881  10.799   2.204
90034W        W62360   2.248   6.857  11.946
90035W        W62361  14.706  37.537  11.062
90036W        W62362  13.341  15.148   2.702
90037W        W62363  33.041  31.561   1.311
90038W        W62364  31.107   3.737  12.531
90039W        W62365  23.543   7.299   3.865
90040W        W62366  18.075  39.470   2.842
90041W        W62367  31.623  37.504  14.881
90042W        W62368  26.008  11.792  13.957
90043W        W62369   7.736  34.942   0.871
90044W        W62370   3.263   3.221  11.030
90045W        W62371  41.894  40.987  10.887
90046W        W62372  44.440  29.103   0.448
90047W        W62373  26.081  39.855   0.252
90048W        W62374  10.279  27.040   3.247
90049W        W62375  41.514  16.706   1.749
90050W        W62376  37.846  12.122   3.725
90051W        W62377  23.099   7.835  12.047
90052W        W62378  20.684  22.553  12.535
90053W        W62379   0.465  20.137   2.888
90054W        W62380  22.202   4.442   1.416
90055W        W62381  42.504   2.314   3.866
90056W        W62382  41.835  39.545   4.788
90057W        W62383  32.619   6.734  14.342
90058W        W62384  11.141  16.207   0.771
90059W        W62385  22.201  43.854   0.244
90060W        W62386  17.576  44.772  14.325
90061W        W62387  15.214  25.671  10.416
90062W        W62388   6.339  19.243  14.955
90063W        W62389   8.860   8.219   0.436
90064W        W62390  15.200   0.776  12.517
90065W        W62391  19.582  14.276  14.398
90066W        W62392  35.455   2.241  13.343
90067W        W62393   3.734  15.229  11.511
90068W        W62394  18.196  38.547   3.290
90069W        W62395   3.919  31.908   4.353
90070W        W62396  42.802  17.667  12.488
90071W        W62397  32.486  28.631   1.227
90072W        W62398  30.514   5.276   2.283
90073W        W62399  43.332  26.176  14.009
90074W        W62400  29.564  36.586   3.331
90075W        W62401  37.880  39.453  14.343
90076W        W62402  38.934  18.291  13.510
90077W        W62403  14.210  35.052  12.379
90078W        W62404  28.182  32.099   0.406
90079W        W62405  44.757  43.288   3.201
90080W        W62406  38.527  34.430   2.338
90081W        W62407  24.149  29.534  11.418
90082W        W62408  35.497  12.149  11.449
90083W        W62409  33.916  24.223   3.737
90084W        W62410   0.898  33.394  12.497
90085W        W62411  32.004  32.429  11.869
90086W        W62412   5.207  38.536  11.430
90087W        W62413   9.351   2.775  11.097
90088W        W62414  23.659  17.228  13.815
90089W        W62415  41.480  17.188   2.194
90090W        W62416  38.553  12.644  14.867
90091W        W62417  19.135  22.071   1.807
90092W        W62418  38.983  38.480   1.292
90093W        W62419  19.128  35.432  11.482
90094W        W62420  15.733  17.743   2.411
90095W        W62421  31.558  14.755  13.879
90096W        W62422  33.489   1.741  11.954
90097W        W62423  15.768  16.258  13.966
90098W        W62424   1.286   0.798   4.832
90099W        W62425  29.508  32.567   4.220
90100W        W62426  23.578  37.550  13.404
90101W        W62427  21.214  43.931   0.310
90102W        W62428   1.416  34.053   1.373
90103W        W62429  24.715  18.563   9.970
90104W        W62430   9.847  12.807  11.407
90105W        W62431  41.021   9.355   1.708
90106W        W62432   9.150  42.301   4.606
90107W        W62433  17.620  35.098  13.392
90108W        W62434  36.483  11.832   5.092
90109W        W62435  25.080  39.471   2.665
90110W        W62436  12.292  21.709   4.671
90111W        W62437  30.084  30.649   3.739
90112W        W62438  42.525   5.699  14.875
90113W        W62439  25.647   8.209   0.832
90114W        W62440  21.207  21.534  12.393
90115W        W62441   7.825  14.219   2.846
90116W        W62442  41.473   5.318  10.454
90117W        W62443  26.660  26.514   0.281
90118W        W62444  37.865  23.126   3.752
90119W        W62445  33.099  32.521  13.952
90120W        W62446   6.752   2.277  13.437
90121W        W62447  40.370  33.493   1.738
90122W        W62448  26.617  35.594   1.336
90123W        W62449   5.225   4.850   2.663
90124W        W62450  21.576  43.880  13.940
90125W        W62451  23.709  24.125  14.420
90126W        W62452   1.386   2.292   3.255
90127W        W62453  14.199  39.943  12.394
90128W        W62454  22.515   8.696   0.446
90129W        W62455  31.595  13.158   0.483
90130W        W62456  32.077   7.297  10.903
90131W        W62457  12.156  35.416   5.162
90132W        W62458  35.022  10.263  10.551
90133W        W62459  41.389  21.040   1.708
90134W        W62460  31.919  22.130   1.446
90135W        W62461  23.145  25.568   3.666
90136W        W62462  36.357  15.178   1.313
90137W        W62463  32.626  41.425  14.800
90138W        W62464  29.670  40.822   4.609
90139W        W62465   3.401  40.918  10.494
90140W        W62466  24.207   8.357   0.823
90141W        W62467  33.978   7.800   4.159
90142W        W62468  28.586  15.168  12.550
90143W        W62469   5.362  25.625  10.481
90144W        W62470  35.549  37.561  11.529
90145W        W62471  38.413  35.464   4.288
90146W        W62472   5.861  15.242  11.901
90147W        W62473  36.433  30.620   1.266
90148W        W62474  11.164  36.534   1.705
90149W        W62475  31.907  16.597  14.863
90150W        W62476  26.148   9.648   2.310
90151W        W62477  42.455  19.131  12.390
90152W        W62478  10.651   9.737  14.956
90153W        W62479   0.361  37.355   3.248
90154W        W62480  33.455  40.936  11.413
90155W        W62481  38.824  35.435   1.278
90156W        W62482  21.106   1.777  10.003
90157W        W62483  14.721  30.444  12.936
90158W        W62484  26.010  25.552   2.676
90159W        W62485   6.234  30.496   5.155
90160W        W62486  18.707  36.405  13.017
90161W        W62487   3.815  10.713   4.265
90162W        W62488  33.055   0.862  13.857
90163W        W62489  37.576  31.121   0.324
90164W        W62490   7.274  18.577  14.980
90165W        W62491   4.878  25.129   2.669
90166W        W62492   1.429  36.880   0.742
90167W        W62493  19.272  13.264  13.795
90168W        W62494  36.064  14.640  13.424
90169W        W62495  18.155  17.801  13.310
90170W        W62496  29.140  27.467  11.947
90171W        W62497  28.508   5.357  10.962
90172W        W62498  38.554  39.538   1.352
90173W        W62499  33.897  13.820   4.311
90174W        W62500  10.325  19.136   0.358
90175W        W62501  24.988  14.666   2.328
90176W        W62502  31.910  22.136   2.304
90177W        W62503  26.983  18.681  10.075
90178W        W62504  43.442  38.480  14.770
90179W        W62505  28.644  19.102   1.888
90180W        W62506   7.377  31.906  12.399
90181W        W62507  38.990   1.367  13.530
90182W        W62508  12.817   4.273   1.362
90183W        W62509  11.332   3.720  12.038
90184W        W62510   5.888  19.708  11.863
90185W        W62511   4.247   3.851  12.505
90186W        W62512  29.534  44.814  12.561
90187W        W62513  17.659   2.806   1.753
90188W        W62514  39.502  16.799   3.240
90189W        W62515   1.449  35.567   0.275
90190W        W62516   5.352   3.436  10.422
90191W        W62517  21.744  12.696   4.288
90192W        W62518  30.085  11.722   2.304
90193W        W62519  22.539   9.836  13.839
90194W        W62520  10.718  20.060  11.378
90195W        W62521  30.942  17.583   4.180
90196W        W62522  33.121  32.951   2.315
90197W        W62523  32.940  38.393  12.890
90198W        W62524  39.813  30.635  12.055
90199W        W62525  37.887  38.522  14.764
90200W        W62526   2.377  30.417   4.343
90201W        W62527  35.454  29.434   4.816
90202W        W62528  42.490   9.241   4.682
90203W        W62529  14.819  12.681  10.508
90204W        W62530  27.039   2.772   0.734
90205W        W62531  42.812  12.790   1.257
90206W        W62532   7.898   9.741   3.680
90207W        W62533  38.555  11.274   4.770
90208W        W62534  41.309  14.151   1.704
90209W        W62535  25.181  34.019   1.358
90210W        W62536  10.171   4.753  14.355
90211W        W62537  19.659  44.395   2.208
90212W        W62538   1.348  26.965   0.308
90213W        W62539  17.166  40.543  12.904
90214W        W62540  16.313  41.830  12.039
90215W        W62541  33.989  35.104   4.188
90216W        W62542  12.148  39.810   0.294
90217W        W62543  36.919  40.957  12.450
90218W        W62544  40.969  30.948   2.775
90219W        W62545  34.033  35.886  11.951
90220W        W62546   8.364  19.191  10.410
90221W        W62547  18.162  37.433  14.854
90222W        W62548   8.369  28.596   0.837
90223W        W62549  37.024  37.852   0.314
90224W        W62550  27.958   1.905  11.921
90225W        W62551   9.266  29.141  14.023
90226W        W62552  44.851  13.724  13.794
90227W        W62553  34.950  39.419   1.926
90228W        W62554  44.485  11.368   4.674
90229W        W62555  42.374   3.726   4.266
90230W        W62556  10.202   4.788  12.363
90231W        W62557  16.095  17.288   0.343
90232W        W62558  33.521  21.611  13.434
90233W        W62559   4.332   5.720   2.895
90234W        W62560  10.733   9.307  12.034
90235W        W62561  32.554  37.368  12.078
90236W        W62562  10.764   3.860   2.376
90237W        W62563  20.648  13.738   1.715
90238W        W62564   2.380  15.124   4.325
90239W        W62565  34.408  26.186  13.960
90240W        W62566  22.132  39.364  13.932
90241W        W62567  29.021  26.509  11.038
90242W        W62568  41.950  10.801  14.820
90243W        W62569   7.774  26.610  14.776
90244W        W62570  27.562  15.761   3.146
90245W        W62571  15.672  38.515   3.668
90246W        W62572  38.011  32.095  11.957
90247W        W62573  20.132   6.217   0.348
90248W        W62574  37.569  25.161  13.915
90249W        W62575  26.676   3.231  13.331
90250W        W62576  18.184  37.830  14.967
90251W        W62577   8.259  13.844   4.346
90252W        W62578   6.881  32.017  11.037
90253W        W62579  26.132   1.271   1.900
90254W        W62580  44.932  17.757  12.022
90255W        W62581  41.349  30.569   4.642
90256W        W62582  14.602  12.645  12.563
90257W        W62583  22.737  31.426  12.987
90258W        W62584  18.606  34.510  13.944
90259W        W62585  20.230  25.040  12.833
90260W        W62586  35.505  12.654  12.562
90261W        W62587  25.519  37.570  12.063
90262W        W62588   2.842  33.533   1.320
90263W        W62589   5.809  16.586   1.785
90264W        W62590  10.309  21.511  10.447
90265W        W62591  31.466  35.976  14.808
90266W        W62592  14.673  28.929   5.084
90267W        W62593  36.018  40.020   0.278
90268W        W62594  31.035   9.320  13.412
90269W        W62595   9.338  31.560   0.482
90270W        W62596   8.365   6.211   3.187
90271W        W62597  27.636  34.080   1.436
90272W        W62598  35.440   1.303  10.937
90273W        W62599   6.909   3.919  14.430
90274W        W62600  31.022   4.428  12.537
90275W        W62601  30.020  44.472   4.195
90276W        W62602  36.429  35.856   1.797
90277W        W62603  34.458  44.783  12.087
90278W        W62604  41.368   1.471   4.803
90279W        W62605  17.641  20.665   1.817
90280W        W62606   5.359  36.432  12.569
90281W        W62607  24.585  22.736   0.733
90282W        W62608  13.298  35.941  11.046
90283W        W62609  10.702  12.131  12.515
90284W        W62610  19.120  17.251   1.923
90285W        W62611  39.893  17.731  13.887
90286W        W62612  26.514  27.558  11.056
90287W        W62613  18.060  21.180   4.629
90288W        W62614  36.386  31.950   0.428
90289W        W62615  38.375  10.796   3.775
90290W        W62616  11.181  11.184   4.664
90291W        W62617  25.687  32.550  13.317
90292W        W62618  44.407  10.250  12.030
90293W        W62619  21.197  27.140  14.501
90294W        W62620  40.343  30.479  13.347
90295W        W62621   2.437  41.485  12.504
90296W        W62622  26.164  14.788  13.881
90297W        W62623   4.389  10.264  10.414
90298W        W62624  29.032  10.677  14.357
90299W        W62625  23.582  18.742   2.781
90300W        W62626  41.025  42.422   0.930
90301W        W62627  22.570  24.643  12.408
90302W        W62628  22.609   0.822   3.297
90303W        W62629  40.374  33.978  12.351
90304W        W62630  15.151  42.819   0.831
90305W        W62631  32.965  13.844   0.949
90306W        W62632  25.167  12.815   3.192
90307W        W62633  42.854  20.164  11.455
90308W        W62634   0.273  24.626  11.857
90309W        W62635   2.921  35.072  13.544
90310W        W62636  19.723  30.007   0.838
90311W        W62637  28.448  18.191  14.964
90312W        W62638  43.773   1.809   3.355
90313W        W62639  42.796  17.773   2.272
90314W        W62640  15.222  39.355  11.901
90315W        W62641  19.672   1.966   4.726
90316W        W62642  14.286  21.111  13.884
90317W        W62643  42.929  25.209  10.412
90318W        W62644  28.474  39.008   0.373
90319W        W62645  17.204  20.255   0.322
90320W        W62646  16.128  30.096  12.548
90321W        W62647  26.144  10.273   0.364
90322W        W62648  23.119  23.117   0.422
90323W        W62649   7.716  24.665   1.926
90324W        W62650  10.243  24.590   0.842
90325W        W62651  37.839  20.138   4.197
90326W        W62652  36.473   8.211  11.527
90327W        W62653  12.353  33.903   2.735
90328W        W62654  11.238  27.170   0.458
90329W        W62655  35.026  40.948  14.355
90330W        W62656  25.640   4.716   2.389
90331W        W62657  24.126  41.295  14.477
90332W        W62658  26.119  21.142  13.882
90333W        W62659  19.227  29.985  11.908
90334W        W62660   3.927  41.391   4.760
90335W        W62661   4.771   4.377   2.850
90336W        W62662   4.854  17.619   3.348
90337W        W62663  35.571  44.336   2.409
90338W        W62664   1.353  32.455  12.045
90339W        W62665   5.310  10.690   2.847
90340W        W62666  44.792  39.810   3.376
90341W        W62667   5.904  44.975  10.417
90342W        W62668  10.793  42.831   3.730
90343W        W62669  22.035   4.297   4.172
90344W        W62670   4.774  23.632   9.962
90345W        W62671  21.018  11.261  14.868
90346W        W62672  17.102  14.130  11.601
90347W        W62673  39.918  15.189   2.313
90348W        W62674   5.325  28.950   3.215
90349W        W62675   6.860  34.438  14.866
90350W        W62676  44.337  25.517  10.432
90351W        W62677  26.959  18.240  14.316
90352W        W62678  18.578   5.815  12.498
90353W        W62679  41.411   2.242   1.439
90354W        W62680  25.563  21.642  14.412
90355W        W62681  14.753  21.534   3.718
90356W        W62682  32.013  14.113  11.085
90357W        W62683  34.120  42.799   4.230
90358W        W62684  31.059  22.191   2.412
90359W        W62685  42.818  32.595  12.865
90360W        W62686   0.290  17.577  14.435
90361W        W62687   3.307  24.488  13.857
90362W        W62688  42.852  16.719  11.477
90363W        W62689  31.128  19.688  11.115
90364W        W62690  15.599  14.254   1.730
90365W        W62691   5.830   4.417   1.929
90366W        W62692  22.538  18.171  13.827
90367W        W62693   4.298   3.381  13.421
90368W        W62694  36.867  37.501  11.560
90369W        W62695   2.877  35.453   4.759
90370W        W62696  20.690   0.832   0.757
90371W        W62697  38.885   2.926   2.757
90372W        W62698  40.436  20.598  10.433
90373W        W62699  41.881  38.338   3.644
90374W        W62700  19.153  42.980   5.108
90375W        W62701  15.276  24.641   4.153
90376W        W62702  23.036   5.384  14.871
90377W        W62703  10.659  30.031   3.827
90378W        W62704  41.535  23.033   2.663
90379W        W62705  15.129   8.337   4.754
90380W        W62706  22.218   2.805  10.956
90381W        W62707  32.542   4.784   1.851
90382W        W62708  41.406  29.114   0.896
90383W        W62709  18.078   4.721  14.485
90384W        W62710   2.235  40.319  11.035
90385W        W62711  19.282   3.407  14.314
90386W        W62712  35.875  38.461   3.209
90387W        W62713  34.026  39.376  14.029
90388W        W62714  44.428   1.251   2.393
90389W        W62715  21.579  31.074   2.864
90390W        W62716   4.432  18.752  14.351
90391W        W62717  35.010   8.234   4.116
90392W        W62718  27.659  30.574   3.809
90393W        W62719   2.420  29.510   2.276
90394W        W62720  40.822  24.149  14.445
90395W        W62721  18.253  13.272   0.313
90396W        W62722  44.953  26.629   0.434
90397W        W62723  35.860  35.031   4.290
90398W        W62724   3.298   9.184   2.683
90399W        W62725  35.424  11.253  12.576
90400W        W62726   2.332  40.009   4.719
90401W        W62727  15.809   3.349   5.166
90402W        W62728  14.197  33.094  12.526
90403W        W62729   1.346  43.364  11.438
90404W        W62730  27.483  32.498   0.924
90405W        W62731  12.343  24.138   4.171
90406W        W62732  17.746  15.105   0.744
90407W        W62733  40.305  10.878   1.806
90408W        W62734  19.237   1.846  10.474
90409W        W62735  13.224  10.806   4.166
90410W        W62736  25.140  22.052   0.448
90411W        W62737  32.054  19.536   2.890
90412W        W62738  21.108   9.379  11.564
90413W        W62739   4.247  23.518   4.155
90414W        W62740  30.492  14.610  11.970
90415W        W62741  29.064  23.609  14.927
90416W        W62742  24.165  15.635  11.118
90417W        W62743  35.911  31.501  13.317
90418W        W62744   1.336   4.890  14.952
90419W        W62745  21.669  11.130  10.613
90420W        W62746  30.524  11.183  14.872
90421W        W62747  33.050  10.318  10.957
90422W        W62748  23.045  36.563  14.016
90423W        W62749   6.702  11.246  12.563
90424W        W62750  37.999   7.287   1.398
90425W        W62751  32.941  13.276  10.545
90426W        W62752  39.433  14.221  14.816
90427W        W62753  44.407  44.445   3.634
90428W        W62754  26.162  32.131  12.397
90429W        W62755  22.118   3.328   3.664
90430W        W62756  34.001  30.601  10.895
90431W        W62757   5.338  34.405  14.915
90432W        W62758  33.975  20.098   0.842
90433W        W62759   2.807   6.270   4.817
90434W        W62760   4.442   9.302   4.206
90435W        W62761   7.672  12.638  13.953
90436W        W62762  14.706  11.755  13.391
90437W        W62763  39.467  34.896   2.692
90438W        W62764  13.232   6.709  14.823
90439W        W62765  33.482  31.093   2.277
90440W        W62766  38.977  22.229  11.082
90441W        W62767  43.408  21.515   3.351
90442W        W62768  36.975   0.920  11.464
90443W        W62769   9.201  32.923  12.406
90444W        W62770  11.769  39.817   2.213
90445W        W62771  23.194  42.508   2.885
90446W        W62772  18.244  11.740  11.449
90447W        W62773  38.518  15.787   4.731
90448W        W62774  15.630  20.038   0.923
90449W        W62775  24.072  33.963   4.705
90450W        W62776  28.656  18.124   2.788
90451W        W62777  41.908  16.131   4.309
90452W        W62778   1.446  35.462  11.889
90453W        W62779  21.023  37.391   5.319
90454W        W62780  14.592  19.650  11.436
90455W        W62781   7.297  21.125   2.392
90456W        W62782   5.863  41.311  10.484
90457W        W62783   0.353  20.534   0.372
90458W        W62784  22.224   8.732  10.526
90459W        W62785  21.246  27.547  13.428
90460W        W62786  12.676  40.906   0.826
90461W        W62787  31.601  37.907  14.318
90462W        W62788   8.404  20.693  12.580
90463W        W62789   3.776   0.306  14.391
90464W        W62790   3.917  44.978  13.806
90465W        W62791  38.382  35.011   3.808
90466W        W62792  35.033  28.560  12.475
90467W        W62793  43.912  36.474   4.757
90468W        W62794  30.925   3.345  10.639
90469W        W62795  24.509  31.433   0.387
90470W        W62796  22.729   0.250  11.536
90471W        W62797  33.038  30.517   2.838
90472W        W62798  13.842  40.396   0.480
90473W        W62799  17.285   4.771  13.040
90474W        W62800  38.358  22.146  11.031
90475W        W62801  37.469  32.612  10.433
90476W        W62802  18.103  17.607  11.571
90477W        W62803  43.277   0.463   2.229
90478W        W62804  40.042   0.349   3.730
90479W        W62805   2.924  15.816  11.394
90480W        W62806  15.768  20.665  14.942
90481W        W62807  19.749  35.601  14.853
90482W        W62808  22.678   7.811  13.842
90483W        W62809  15.589  25.505   2.227
90484W        W62810   2.786  42.929   0.913
90485W        W62811  35.581  43.439   4.733
90486W        W62812  44.385  29.018   4.673
90487W        W62813  35.005  36.453   4.828
90488W        W62814  12.341   0.980   4.316
90489W        W62815  13.319   9.149   1.783
90490W        W62816  10.178  27.126   0.261
90491W        W62817  12.340  33.040  12.563
90492W        W62818  18.747  23.626   2.824
90493W        W62819  21.122  38.997   4.286
90494W        W62820  35.047  19.061   2.695
90495W        W62821  17.227   1.315  13.329
90496W        W62822  36.987   4.365  12.387
90497W        W62823  15.093  31.042  12.969
90498W        W62824  13.724  17.131  14.363
90499W        W62825  31.410  30.922  11.028
90500W        W62826  29.576   5.206  12.434
90501W        W62827  13.738   3.908   1.707
90502W        W62828  44.958   0.447  12.533
90503W        W62829  21.633  39.057  13.851
90504W        W62830  35.929   6.802   3.807
90505W        W62831  15.192  10.188   1.369
90506W        W62832   8.338  42.286   0.288
90507W        W62833  28.656   5.839  13.398
90508W        W62834  25.615  28.032   4.165
90509W        W62835  43.937  17.780   2.852
90510W        W62836  43.303  11.767   2.728
90511W        W62837  43.772  30.471   4.761
90512W        W62838   5.203  11.813   3.297
90513W        W62839  38.394  38.402  13.958
90514W        W62840  23.568   3.913   3.337
90515W        W62841  33.089  29.104  14.796
90516W        W62842  21.194  12.355   1.742
90517W        W62843  27.956  13.737   1.317
90518W        W62844  21.121  23.538   1.774
90519W        W62845  26.130  17.570   1.299
90520W        W62846  10.862  15.249   0.309
90521W        W62847  15.196  21.042  13.333
90522W        W62848  26.679   1.970   1.245
90523W        W62849   2.341  38.564   3.715
90524W        W62850   3.259  23.048  10.144
90525W        W62851  37.081  23.123  11.501
90526W        W62852  31.997  13.839  14.869
90527W        W62853   0.444  36.956   2.331
90528W        W62854  26.163   1.480  13.878
90529W        W62855  28.523  18.069  11.475
90530W        W62856  13.261  22.077  13.885
90531W        W62857  32.011  12.300  12.977
90532W        W62858  13.245  25.486   3.710
90533W        W62859  32.543  24.005  14.390
90534W        W62860  21.576   3.225   2.679
90535W        W62861   1.352  21.623   3.229
90536W        W62862  26.069  23.600   0.768
90537W        W62863  24.112  40.798   4.321
90538W        W62864   1.388  23.706   9.621
90539W        W62865  24.981  22.156   1.211
90540W        W62866  18.767   5.374  10.615
90541W        W62867  38.524  35.440   1.711
90542W        W62868  24.721   1.356   3.243
90543W        W62869  24.096  22.067   0.882
90544W        W62870   5.252  29.456  10.962
90545W        W62871  22.527   1.771  10.453
90546W        W62872   5.933  17.555  11.876
90547W        W62873  20.727  32.968  14.763
90548W        W62874   6.748   5.709   1.263
90549W        W62875  16.292  26.006   2.716
90550W        W62876   4.413  23.678  14.365
90551W        W62877  41.944  20.273  12.064
90552W        W62878  44.974  34.449  13.849
90553W        W62879   6.393  42.483   3.251
90554W        W62880  30.969  13.628  12.847
90555W        W62881  10.323  29.661   0.378
90556W        W62882   3.303  24.227  13.457
90557W        W62883  21.077   7.291  11.982
90558W        W62884  17.564  41.417   1.302
90559W        W62885  43.376  13.657   3.752
90560W        W62886  13.604   7.820   4.797
90561W        W62887  17.151  36.346   1.881
90562W        W62888  44.854  21.571   2.873
90563W        W62889  34.402  22.517  13.960
90564W        W62890  20.182  40.414  10.061
90565W        W62891  40.451  18.617  11.583
90566W        W62892   0.825  39.407   1.896
90567W        W62893  13.349  37.949   3.354
90568W        W62894  37.543   0.458   0.781
90569W        W62895   7.862  29.469   4.234
90570W        W62896   0.412  14.826  11.043
90571W        W62897  41.907  33.940   2.698
90572W        W62898  35.946   2.268   2.387
90573W        W62899   6.923  12.162   1.834
90574W        W62900  10.207  40.530   0.866
90575W        W62901  40.392  37.430  12.441
90576W        W62902  19.187  18.066   4.635
90577W        W62903  28.613  26.488  10.609
90578W        W62904  16.674  11.301   2.411
90579W        W62905  25.026  24.116  11.568
90580W        W62906  35.388  28.570  14.395
90581W        W62907  16.598  44.891  10.588
90582W        W62908  14.117  18.608   4.350
90583W        W62909   5.705  22.619  14.301
90584W        W62910  32.599  42.775   4.633
90585W        W62911  36.386  24.541   1.380
90586W        W62912  12.191  24.085   0.940
90587W        W62913  27.595  28.481  11.527
90588W        W62914  43.000  13.657   3.361
90589W        W62915  34.981  11.237   4.199
90590W        W62916  23.521  20.717  11.092
90591W        W62917  14.217  31.120  12.469
90592W        W62918   4.423   3.403   4.342
90593W        W62919  31.541  31.043   1.301
90594W        W62920  33.024  23.567   3.168
90595W        W62921  29.623   4.769  11.554
90596W        W62922   9.270  29.593  12.981
90597W        W62923  44.404  13.189  12.923
90598W        W62924  43.417  33.042  12.366
90599W        W62925   6.415  30.500  11.416
90600W        W62926  41.877  10.214  12.902
90601W        W62927  26.658   8.774  10.906
90602W        W62928   3.407  40.469   4.787
90603W        W62929  17.127   7.742   2.816
90604W        W62930   6.321  27.113  12.050
90605W        W62931   2.370  10.289  14.508
90606W        W62932   1.353  44.352  11.891
90607W        W62933  21.514  32.414   2.773
90608W        W62934   4.445  15.702  10.601
90609W        W62935   9.231  22.026  11.448
90610W        W62936  17.767  16.733  13.310
90611W        W62937  16.687  38.485  12.392
90612W        W62938  18.681  11.689  14.810
90613W        W62939  36.438   5.303  11.872
90614W        W62940  12.261  22.198   3.781
90615W        W62941  32.474  29.434   2.412
90616W        W62942  36.537   3.890   2.723
90617W        W62943   1.888   1.327  13.330
90618W        W62944  13.269  41.533  12.054
90619W        W62945  39.850  20.141   4.332
90620W        W62946   9.294   6.218  14.769
90621W        W62947  30.571  37.872   1.263
90622W        W62948  23.597  12.633   2.195
90623W        W62949  20.661  14.167  13.027
90624W        W62950  40.821   7.317   1.319
90625W        W62951  20.147  18.133  13.916
90626W        W62952   5.197   4.933  10.489
90627W        W62953   7.892  10.352   3.773
90628W        W62954  24.533  29.648  14.353
90629W        W62955   9.886  26.461   9.924
90630W        W62956   2.457  19.274  13.905
90631W        W62957  38.855  19.106  10.895
90632W        W62958  21.252   8.370  11.081
90633W        W62959  37.464  35.520   4.686
90634W        W62960  33.503  42.797  12.823
90635W        W62961  32.981  10.343   4.302
90636W        W62962   5.276  12.320  14.320
90637W        W62963  20.578  43.271  13.955
90638W        W62964   5.894   6.812  14.367
90639W        W62965  17.574  44.424  10.525
90640W        W62966  24.083  20.632   0.754
90641W        W62967  28.971  42.495  11.067
90642W        W62968  32.404  39.012  12.013
90643W        W62969  11.746   0.489  12.487
90644W        W62970  17.750  31.135   3.274
90645W        W62971   8.307  36.858  14.502
90646W        W62972  25.018  11.633   2.373
90647W        W62973  36.537   1.962  14.436
90648W        W62974   4.383  40.328  11.979
90649W        W62975  29.130   3.254  14.438
90650W        W62976  12.825   4.926  11.984
90651W        W62977  37.971  20.599   1.869
90652W        W62978  28.000   2.736  11.987
90653W        W62979   5.421  30.651  12.997
90654W        W62980  19.212  25.052  14.814
90655W        W62981  39.986  22.526   1.376
90656W        W62982  33.403   7.269  10.125
90657W        W62983  33.460  33.574  11.879
90658W        W62984  11.625  21.699   3.857
90659W        W62985   7.837  30.509   4.672
90660W        W62986   9.756  20.243  14.463
90661W        W62987   1.846  37.488   1.340
90662W        W62988   4.936   7.745   4.734
90663W        W62989  29.030   4.890  12.964
90664W        W62990  35.024   2.395   0.293
90665W        W62991  16.615  20.143  10.999
90666W        W62992  27.039  24.059  11.060
90667W        W62993  17.206  17.690  14.915
90668W        W62994   7.750  27.457  10.534
90669W        W62995  13.661  34.391   1.866
90670W        W62996  17.194  24.698   4.835
90671W        W62997   7.702   3.881  13.512
90672W        W62998  34.967  18.682   3.335
90673W        W62999  33.554  11.740  10.015
90674W        W63000  29.497  28.566   9.653
90675W        W63001  43.350  24.545  14.809
90676W        W63002  12.798  36.527   4.812
90677W        W63003  11.278  21.239   2.713
90678W        W63004  21.727  33.445   3.217
90679W        W63005  41.376  22.170   1.731
90680W        W63006  28.546  35.967  12.461
90681W        W63007  23.658  42.346   0.316
90682W        W63008   7.188  34.544   4.151
90683W        W63009  39.468  32.524  11.858
90684W        W63010  23.016  28.995  10.961
90685W        W63011  25.619  26.604  12.376
90686W        W63012  10.207  13.349  10.937
90687W        W63013  42.778  29.924  13.540
90688W        W63014  24.169   2.908   4.228
90689W        W63015   6.858  30.150   0.858
90690W        W63016  42.905  33.958  14.438
90691W        W63017  43.382  24.063   1.306
90692W        W63018  40.020  24.216   3.846
90693W        W63019  30.520  16.643  10.467
90694W        W63020  26.995   0.775   1.269
90695W        W63021  24.677  36.525   1.922
90696W        W63022   4.219   8.823  11.032
90697W        W63023  29.963  39.350  13.392
90698W        W63024  20.670  38.958  11.099
90699W        W63025   8.655  30.465   1.872
90700W        W63026  32.595   3.256  11.442
90701W        W63027   2.867  13.208   2.787
90702W        W63028  29.963  38.518   4.224
90703W        W63029  42.783  30.534   4.331
90704W        W63030  40.934  27.026   2.812
90705W        W63031  37.562  10.861   3.154
90706W        W63032   3.723  37.071  13.404
90707W        W63033  23.650   1.343  14.779
90708W        W63034  20.737  40.826   0.357
90709W        W63035  29.665   9.318  11.868
90710W        W63036  22.010  28.034   4.319
90711W        W63037  37.915   4.217  12.939
90712W        W63038   0.474   0.838   3.329
90713W        W63039   8.375   9.684   2.889
90714W        W63040  29.105  37.535   3.772
90715W        W63041   3.852  13.110   4.349
90716W        W63042  30.436   9.693   1.804
90717W        W63043  18.750   0.831   0.829
90718W        W63044  43.999   3.944  11.491
90719W        W63045  28.978  23.694  13.000
90720W        W63046  32.046  32.505  11.394
90721W        W63047  26.984   7.878  11.943
90722W        W63048  34.605  20.253   3.669
90723W        W63049   3.234  18.278   4.145
90724W        W63050  24.490  18.740  13.993
90725W        W63051  35.435  31.527  11.087
90726W        W63052  14.719   2.325   4.752
90727W        W63053  32.610  15.138  14.287
90728W        W63054  37.477   8.281   3.255
90729W        W63055  30.940   4.368  14.442
90730W        W63056  12.660  10.749   2.204
90731W        W63057  17.308  17.715   1.390
90732W        W63058  43.385  30.035   3.150
90733W        W63059  17.674  11.796   4.674
90734W        W63060  16.284  24.484  13.935
90735W        W63061  44.844   4.915  10.566
90736W        W63062   3.835  13.672  10.564
90737W        W63063  32.432  23.190   3.818
90738W        W63064  25.131  43.470  11.396
90739W        W63065  12.362   7.272  13.024
90740W        W63066  17.649   8.697   3.159
90741W        W63067   2.763  32.577  13.047
90742W        W63068   5.327   7.786  11.471
90743W        W63069  38.053  25.488   0.339
90744W        W63070   8.687  18.216   4.350
90745W        W63071  29.541  36.515  13.027
90746W        W63072  31.091  33.040   0.913
90747W        W63073  30.950  44.792  13.950
90748W        W63074  38.553  36.857   4.244
90749W        W63075  21.083  17.235  11.580
90750W        W63076   4.890  32.457  14.472
90751W        W63077  33.072  33.521   2.827
90752W        W63078  17.094   3.843   1.370
90753W        W63079  42.982  11.209   4.731
90754W        W63080  19.179  20.550   3.247
90755W        W63081   3.742  11.276  14.990
90756W        W63082  25.580  31.041   2.691
90757W        W63083  15.802  21.608  14.991
90758W        W63084  19.214  34.885   2.275
90759W        W63085  25.599  41.441   4.297
90760W        W63086  19.179  26.456  13.963
90761W        W63087  22.012  37.057   3.227
90762W        W63088   9.887   2.282   3.374
90763W        W63089  39.887   9.349  11.607
90764W        W63090  40.904  19.727  12.371
90765W        W63091   1.279  22.110  12.535
90766W        W63092   1.950  17.789   2.199
90767W        W63093   5.720  18.603  14.031
90768W        W63094  28.007  40.857   4.223
90769W        W63095  10.376   0.480  13.793
90770W        W63096  14.193   8.373  14.321
90771W        W63097   1.291  30.558   2.791
90772W        W63098  40.377  39.852  13.318
90773W        W63099  24.546  26.974  14.360
90774W        W63100   0.372  25.039  12.398
90775W        W63101  43.987   9.216   4.630
90776W        W63102  18.136  27.944  12.341
90777W        W63103  44.959  35.937  10.470
90778W        W63104  44.885  32.551   0.424
90779W        W63105  33.012  15.667  13.058
90780W        W63106  42.004  36.043   3.762
90781W        W63107  22.006  35.044   3.383
90782W        W63108   7.281  21.252  11.552
90783W        W63109  29.540   9.647   2.716
90784W        W63110  19.565  36.454  13.867
90785W        W63111  36.554   4.329   1.345
90786W        W63112   5.338  26.952  13.473
90787W        W63113   0.811   9.764  10.499
90788W        W63114  43.366   4.279   3.339
90789W        W63115  42.506  12.634  11.586
90790W        W63116  30.479   1.377   4.296
90791W        W63117  24.127  34.382  12.884
90792W        W63118  29.940  31.005   1.252
90793W        W63119   1.375   0.863  14.815
90794W        W63120  30.010  26.626   5.087
90795W        W63121  22.648  34.931  11.105
90796W        W63122  41.402  37.830  14.922
90797W        W63123   8.716  19.551   3.252
90798W        W63124   2.798   7.768  13.801
90799W        W63125  23.214   2.351  10.521
90800W        W63126  18.122  33.607   2.671
90801W        W63127   1.368  14.730   0.901
90802W        W63128  24.627  15.654   1.290
90803W        W63129  12.774  28.050  14.005
90804W        W63130  37.932   1.244  13.858
90805W        W63131  26.145   2.268   2.181
90806W        W63132  39.030  24.205  13.058
90807W        W63133  27.996   7.177  10.589
90808W        W63134  26.013  28.553   3.266
90809W        W63135  36.553  40.018   2.329
90810W        W63136  33.587  38.363   3.817
90811W        W63137  28.504  44.834  12.405
90812W        W63138   4.735  10.141   2.393
90813W        W63139  40.506  30.561   2.690
90814W        W63140  18.050  33.406   0.317
90815W        W63141  34.895  37.418   2.777
90816W        W63142  37.879  14.728  12.065
90817W        W63143   5.220  34.419   0.481
90818W        W63144  18.732  29.112  14.481
90819W        W63145  39.518   9.664   0.483
90820W        W63146  14.130  40.005  13.521
90821W        W63147  26.995  21.535   3.660
90822W        W63148   9.257  44.790  14.957
90823W        W63149  21.561   7.780   1.269
90824W        W63150  31.560   1.272  10.519
90825W        W63151  10.713  12.702   0.313
90826W        W63152   2.762   9.251  10.446
90827W        W63153  22.620  29.021   0.751
90828W        W63154  23.492  14.704   2.333
90829W        W63155   4.871  12.247   3.700
90830W        W63156   7.190  42.789  13.487
90831W        W63157   9.250  28.063  12.460
90832W        W63158  10.717  34.090  13.350
90833W        W63159  32.553  25.061   3.160
90834W        W63160   4.899   5.222   1.723
90835W        W63161   4.352  28.108  13.933
90836W        W63162  20.172  32.025   1.917
90837W        W63163  22.998  27.646  13.538
90838W        W63164  35.554   4.801   2.686
90839W        W63165  36.492  22.531  14.782
90840W        W63166  43.351   0.865   0.452
90841W        W63167   3.242  38.989   4.306
90842W        W63168  21.240  28.132  12.020
90843W        W63169  28.964   2.721  14.882
90844W        W63170  14.735  20.660   3.243
90845W        W63171  13.281  25.031   4.260
90846W        W63172  26.657   2.304  11.955
90847W        W63173  19.572  17.258  14.502
90848W        W63174  12.631   9.685  13.985
90849W        W63175  26.013  42.003   3.676
90850W        W63176  34.056   7.190   3.200
90851W        W63177   3.742   5.430  14.480
90852W        W63178   5.846  15.667  11.001
90853W        W63179  22.221   2.893   4.218
90854W        W63180  10.321  18.719  13.797
90855W        W63181  43.840  25.999  12.463
90856W        W63182  43.338  21.063   1.291
90857W        W63183  12.841  18.765  10.952
90858W        W63184  25.027   9.799  13.805
90859W        W63185  18.606  22.180   2.296
90860W        W63186  27.097  38.368   3.860
90861W        W63187   3.461  13.768   4.211
90862W        W63188  13.158  16.674  14.407
90863W        W63189  41.312  28.119  13.332
90864W        W63190   7.178  24.187  12.044
90865W        W63191  38.425  16.155   1.713
90866W        W63192  12.240  24.635   3.759
90867W        W63193  10.731  18.568  14.306
90868W        W63194  35.874   0.284   2.773
90869W        W63195  16.692  13.219  10.600
90870W        W63196   5.266  18.621   3.289
90871W        W63197  21.714  10.854   1.444
90872W        W63198  32.082  40.853  14.464
90873W        W63199   9.867  12.117  12.844
90874W        W63200  28.525  10.787   4.143
90875W        W63201  21.524   2.366   3.362
90876W        W63202  18.074  26.695  14.917
90877W        W63203  12.790   4.236   3.293
90878W        W63204  20.151  34.500   1.817
90879W        W63205  40.000   0.978  11.596
90880W        W63206  21.714  35.506   3.657
90881W        W63207  37.026  28.612  10.501
90882W        W63208  23.019  38.829  14.284
90883W        W63209  44.305   8.308   2.282
90884W        W63210  24.621  19.739  11.867
90885W        W63211  15.114   7.256   1.332
90886W        W63212  12.270  33.063  13.844
90887W        W63213  28.066  39.016  12.041
90888W        W63214  17.206  14.666   1.738
90889W        W63215  23.223  16.152  11.865
90890W        W63216   5.915  11.299  14.488
90891W        W63217  10.186  10.811  14.957
90892W        W63218  44.341  39.495  12.882
90893W        W63219   1.975  43.482  12.014
90894W        W63220  14.217  31.636  11.375
90895W        W63221  14.162  13.644   3.790
90896W        W63222  15.602  44.822   0.316
90897W        W63223  18.767  43.853   1.244
90898W        W63224  22.049  28.178   2.838
90899W        W63225  28.508  38.444   2.714
90900W        W63226  43.824  36.470  12.873
90901W        W63227  19.735  29.505   0.427
90902W        W63228   8.716  21.231  13.860
90903W        W63229  32.134  11.708   3.713
90904W        W63230  31.935  10.721  12.388
90905W        W63231  17.151  40.328  13.314
90906W        W63232  18.583  26.579  14.885
90907W        W63233  29.937   1.377   0.901
90908W        W63234  23.694  14.604   3.199
90909W        W63235  27.518  44.332  11.106
90910W        W63236   0.361  44.377  13.981
90911W        W63237   9.706  43.019  10.119
90912W        W63238  20.684   3.885  13.008
90913W        W63239  11.200  29.592  13.439
90914W        W63240  11.625  27.571  14.863
90915W        W63241  43.316  28.500  12.033
90916W        W63242  13.312  22.153   2.803
90917W        W63243  44.872   7.756  11.543
90918W        W63244  23.127  21.258  13.872
90919W        W63245  18.630   0.806   2.360
90920W        W63246  41.336  39.033  12.949
90921W        W63247   6.693  17.092   2.791
90922W        W63248  33.969  10.736  12.578
90923W        W63249  33.092  30.654   0.731
90924W        W63250  44.992  37.373  11.917
90925W        W63251  31.463  40.465   3.809
90926W        W63252  22.035  19.167   0.834
90927W        W63253  32.049  38.354   4.801
90928W        W63254  38.036  39.499   4.663
90929W        W63255  17.214  32.475   2.695
90930W        W63256  30.060  13.186   4.747
90931W        W63257  28.057  27.448   1.408
90932W        W63258  34.606  44.967   2.339
90933W        W63259  11.762   5.280   0.770
90934W        W63260  18.226   8.704   1.300
90935W        W63261  20.582  22.550  13.003
90936W        W63262  30.078  23.540   4.610
90937W        W63263  15.638  30.639   0.319
90938W        W63264   0.350   8.819  11.046
90939W        W63265  38.997   9.872  12.413
90940W        W63266  32.924  25.636   1.333
90941W        W63267  42.363  34.538   1.247
90942W        W63268  14.783  40.999  14.394
90943W        W63269  43.795  22.743  10.635
90944W        W63270  20.752   9.697   1.340
90945W        W63271  24.598  25.217   0.264
90946W        W63272   7.241  21.556  13.033
90947W        W63273  25.517  44.462  10.993
90948W        W63274  39.045  39.808   1.299
90949W        W63275  26.672  30.082   3.164
90950W        W63276   6.385  27.566  12.492
90951W        W63277  14.135   4.943  11.964
90952W        W63278  27.556   1.382  10.515
90953W        W63279  36.889   3.336  12.371
90954W        W63280  44.317  25.219  13.328
90955W        W63281  43.443  23.698   3.866
90956W        W63282  30.110  32.897  11.374
90957W        W63283  30.007  31.122  13.312
90958W        W63284  36.977  34.599   3.702
90959W        W63285   2.817  27.001   3.689
90960W        W63286  15.287   8.679  13.033
90961W        W63287  33.948  21.683  11.055
90962W        W63288   3.320  43.498  14.008
90963W        W63289  28.936   3.377   5.085
90964W        W63290  33.458  16.713   3.822
90965W        W63291   9.232  40.799  10.589
90966W        W63292  43.434  27.609   1.392
90967W        W63293  31.143   5.305  11.858
90968W        W63294   7.201  17.081   0.762
90969W        W63295  13.763  25.061   9.978
90970W        W63296  36.927  10.814   0.760
90971W        W63297   9.817  34.369   3.187
90972W        W63298  23.125  14.723   1.880
90973W        W63299   9.224  23.146   3.649
90974W        W63300  22.628  24.209   3.774
90975W        W63301  13.275  21.148   1.695
90976W        W63302   1.459  10.744   3.245
90977W        W63303  32.904  20.763  11.880
90978W        W63304  10.784  41.977  12.846
90979W        W63305  36.463  16.245  14.915
90980W        W63306  37.346  31.936   4.763
90981W        W63307  23.663  38.537  11.454
90982W        W63308  43.878   0.939   3.329
90983W        W63309  40.533  32.998  10.938
90984W        W63310   4.742  27.650   9.969
90985W        W63311   0.363  38.055   0.799
90986W        W63312  14.173  39.525  12.372
90987W        W63313  26.693   5.848  13.009
90988W        W63314  11.293  22.082   4.261
90989W        W63315  27.454  30.425  12.414
90990W        W63316  36.481  17.183  14.898
90991W        W63317   5.925  39.902  11.052
90992W        W63318  25.102  32.500  12.946
90993W        W63319  15.718  30.537   2.786
90994W        W63320  25.475  14.605  12.548
90995W        W63321   6.370   3.394  12.873
90996W        W63322  39.988   1.845  11.461
90997W        W63323  13.608  27.528  12.555
90998W        W63324   6.711   1.441   3.808
90999W        W63325  16.108  37.912  12.497
91000W        W63326  10.747  36.999   2.336
91001W        W63327  21.129  42.358  12.569
91002W        W63328   4.435  26.018  13.422
91003W        W63329  44.801  28.069   4.308
91004W        W63330  41.307  25.191   2.338
91005W        W63331  36.016  11.643  12.351
91006W        W63332  23.551  34.046   3.343
91007W        W63333  19.741  23.992   3.221
91008W        W63334  19.242  11.653  12.945
91009W        W63335  13.139  26.588   2.358
91010W        W63336  21.739  20.597  14.309
91011W        W63337   4.709  13.315  11.408
91012W        W63338  44.504  42.954   0.258
91013W        W63339  12.354  18.696  10.603
91014W        W63340  10.186  30.648  13.541
91015W        W63341  30.538  24.069   2.837
91016W        W63342  29.976  26.570   4.201
91017W        W63343  33.509  38.380  11.921
91018W        W63344  37.351  38.391   2.828
91019W        W63345  13.778  21.229   2.894
91020W        W63346  33.108  34.400  12.351
91021W        W63347   6.917  27.518   1.703
91022W        W63348  37.353  29.945  12.002
91023W        W63349  41.876  16.573   4.707
91024W        W63350  12.668  14.592  10.636
91025W        W63351  11.825  29.437   0.330
91026W        W63352  31.648  37.885  13.329
91027W        W63353  25.968  22.740  11.533
91028W        W63354  37.366  29.065  14.278
91029W        W63355  36.519  23.690   3.789
91030W        W63356  35.548   4.412   4.291
91031W        W63357  36.843  21.514   1.797
91032W        W63358   0.273   4.390  13.917
91033W        W63359   2.945  17.713   4.657
91034W        W63360  21.206  28.106  13.361
91035W        W63361  32.100  16.243  11.439
91036W        W63362  10.728  12.687   4.723
91037W        W63363   6.205  19.755  14.770
91038W        W63364  13.207  10.220   0.479
91039W        W63365  35.513  25.600   4.247
91040W        W63366  32.051  14.645  11.859
91041W        W63367  17.567   5.347   4.150
91042W        W63368  31.455  44.302   4.193
91043W        W63369   7.666   7.727   0.481
91044W        W63370  12.672  13.606  11.120
91045W        W63371  34.004   8.878  14.290
91046W        W63372  24.203  27.551   0.779
91047W        W63373  44.413  20.198   4.338
91048W        W63374   6.350  44.808   3.195
91049W        W63375  35.599   4.265  13.062
91050W        W63376   3.319  38.483   3.635
91051W        W63377  38.518  21.731   3.667
91052W        W63378   2.343   2.310   0.440
91053W        W63379  11.738  16.118   2.386
91054W        W63380  25.150  18.592  11.409
91055W        W63381  19.632  19.141  13.374
91056W        W63382   1.452  14.707   4.346
91057W        W63383  30.648  19.704  12.507
91058W        W63384  35.491  44.368  10.969
91059W        W63385  39.316  30.918  14.956
91060W        W63386  11.855  29.168   1.386
91061W        W63387  42.443  35.420  12.009
91062W        W63388  29.539  41.492  12.082
91063W        W63389  30.651   8.766   2.285
91064W        W63390  20.240   5.380  10.521
91065W        W63391  18.677  14.747   2.303
91066W        W63392  18.201   0.830  14.512
91067W        W63393  29.073  13.120  14.379
91068W        W63394  41.389  33.043   2.194
91069W        W63395   7.744  27.960   0.403
91070W        W63396   6.213  15.679   3.182
91071W        W63397  17.672  20.255  11.551
91072W        W63398  30.146   7.184   0.967
91073W        W63399  16.612  16.228  14.923
91074W        W63400   5.838  22.585   3.172
91075W        W63401   7.370  13.228  13.330
91076W        W63402   0.312  16.655   0.859
91077W        W63403  20.692  15.707   1.764
91078W        W63404  24.002  17.622   5.257
91079W        W63405  26.176  23.631  12.526
91080W        W63406  12.673   9.796   2.280
91081W        W63407  37.954  21.039   1.342
91082W        W63408  26.465  40.034   1.814
91083W        W63409  37.891  11.262  14.512
91084W        W63410  12.631   4.723   0.779
91085W        W63411   3.920  15.091   0.453
91086W        W63412  26.054  11.723  14.908
91087W        W63413   4.814   4.389  12.490
91088W        W63414  18.240  39.894  14.874
91089W        W63415  13.142  33.440   1.292
91090W        W63416   0.766  35.417   4.703
91091W        W63417  40.869  13.167  10.632
91092W        W63418  19.135   8.890   4.124
91093W        W63419   2.764  24.984  14.318
91094W        W63420   4.912  42.970  12.480
91095W        W63421  18.275  13.333   3.350
91096W        W63422  38.489  44.452   2.735
91097W        W63423   7.252  18.568   0.245
91098W        W63424  25.042  40.008   1.296
91099W        W63425  35.069  39.984   2.681
91100W        W63426  14.637   9.284  11.863
91101W        W63427   9.853  35.602  12.961
91102W        W63428  44.465  38.041   1.338
91103W        W63429  30.518  21.725  13.916
91104W        W63430  12.119  10.711  13.868
91105W        W63431  32.558   2.741   4.281
91106W        W63432  30.955   6.695  14.947
91107W        W63433   7.775  12.790   5.174
91108W        W63434   4.864  17.188   0.810
91109W        W63435   5.690  29.987  14.393
91110W        W63436  44.788  34.881  13.929
91111W        W63437   3.322  32.522  14.992
91112W        W63438  19.251  35.082   1.342
91113W        W63439  21.540  29.066   4.690
91114W        W63440  36.512   6.685   1.219
91115W        W63441  31.005   1.762  11.071
91116W        W63442   5.914  24.128  14.496
91117W        W63443   2.242   7.263   3.770
91118W        W63444  21.047  29.161  12.362
91119W        W63445  13.290  40.535   1.274
91120W        W63446  39.052  42.477  12.979
91121W        W63447   5.320  44.959  12.387
91122W        W63448  15.649  36.066   1.744
91123W        W63449  17.193  20.766  12.485
91124W        W63450   4.351   1.867   1.765
91125W        W63451   2.285  19.580  11.924
91126W        W63452  22.180  40.917  10.926
91127W        W63453  34.533   9.689  12.046
91128W        W63454   8.681  32.588   1.793
91129W        W63455  27.610  18.653  13.062
91130W        W63456  41.855  37.548  12.062
91131W        W63457   7.834  19.184   2.760
91132W        W63458  39.486   1.858   2.834
91133W        W63459  28.153  29.031   0.734
91134W        W63460  11.333  27.537  14.881
91135W        W63461  33.452  20.752  10.890
91136W        W63462  23.200  28.667   4.234
91137W        W63463  39.956   4.316   1.445
91138W        W63464  27.583  36.077  13.452
91139W        W63465  26.666  25.156   2.816
91140W        W63466   4.258  40.961  11.564
91141W        W63467   2.953  34.551   1.421
91142W        W63468  20.675   8.773  12.053
91143W        W63469  43.361  31.638   1.911
91144W        W63470  13.670   6.700  14.424
91145W        W63471  33.081  36.000   1.292
91146W        W63472  23.055  36.847   4.143
91147W        W63473  38.333  36.434  14.359
91148W        W63474  16.729  26.606  13.883
91149W        W63475  34.388  15.782   3.659
91150W        W63476  44.467  27.173   0.786
91151W        W63477  16.122  10.764   2.794
91152W        W63478  21.565  21.722   2.241
91153W        W63479   9.263  27.064  14.448
91154W        W63480  30.607  26.620  14.285
91155W        W63481  29.994  19.616   1.901
91156W        W63482  18.115  33.055  11.582
91157W        W63483  23.996  32.138   0.313
91158W        W63484  36.089   1.767   0.313
91159W        W63485   1.352  38.559  13.849
91160W        W63486   4.767  24.651  10.986
91161W        W63487   7.718  25.570   2.328
91162W        W63488   2.268  37.341  10.152
91163W        W63489  20.233  25.061   3.217
91164W        W63490  30.491  18.200  12.843
91165W        W63491   3.262  41.303  13.475
91166W        W63492   6.739  21.066   0.466
91167W        W63493   2.270   7.720   4.261
91168W        W63494  42.886  44.984  11.123
91169W        W63495  34.066   8.215   1.923
91170W        W63496   0.417  23.040  10.079
91171W        W63497  21.075  19.534  12.833
91172W        W63498  19.713  17.274  11.974
91173W        W63499  13.684  19.726   4.709
91174W        W63500  39.557  21.692  12.523
91175W        W63501  17.670  10.782   4.670
91176W        W63502   7.183  36.426  10.455
91177W        W63503  22.087  24.516  14.407
91178W        W63504   0.845  28.560   3.204
91179W        W63505  35.011  25.199   2.852
91180W        W63506  40.488  44.855   1.356
91181W        W63507   0.983  28.183  10.508
91182W        W63508  22.091  39.845   3.683
91183W        W63509  23.623   9.768   1.375
91184W        W63510  44.822  10.300  11.389
91185W        W63511  39.033  14.317  10.950
91186W        W63512  34.086  19.168  11.975
91187W        W63513  11.660   4.286   2.786
91188W        W63514  40.453  14.706  11.441
91189W        W63515   8.406   1.851   3.828
91190W        W63516   6.750  40.941   1.722
91191W        W63517  12.314  24.717  11.998
91192W        W63518   6.200  39.857  10.474
91193W        W63519  27.006  37.398  12.957
91194W        W63520  44.458  12.823  12.542
91195W        W63521  21.583  42.974   9.929
91196W        W63522   0.454  40.536  11.398
91197W        W63523   4.208  20.237  13.818
91198W        W63524  23.535  22.500  13.445
91199W        W63525   0.291  24.639  13.410
91200W        W63526  18.613  17.141   3.865
91201W        W63527  19.653  15.775   4.662
91202W        W63528  44.378  42.918   5.262
91203W        W63529   3.445  33.049   2.727
91204W        W63530  16.634  13.814   1.352
91205W        W63531   2.428  34.489   1.443
91206W        W63532  38.569  17.099   0.727
91207W        W63533   3.420   5.221  14.436
91208W        W63534  42.365   3.940   1.323
91209W        W63535  30.463   5.308  10.907
91210W        W63536  19.134  19.188   4.799
91211W        W63537  28.120  25.470  11.422
91212W        W63538  34.397  10.242   4.329
91213W        W63539  37.405  17.699   2.847
91214W        W63540   4.878  34.001   4.335
91215W        W63541   4.708  14.654  10.955
91216W        W63542   4.238   2.360  12.431
91217W        W63543  37.862  37.525  10.023
91218W        W63544  35.432  15.105  13.429
91219W        W63545  12.241  43.822   3.772
91220W        W63546   3.318   3.713  14.912
91221W        W63547  32.115  44.406   2.411
91222W        W63548  24.193  24.708  14.486
91223W        W63549   3.429  29.633   2.832
91224W        W63550  22.648   8.396  11.979
91225W        W63551  23.111  23.630  14.291
91226W        W63552   0.353  28.597   0.433
91227W        W63553  14.645   2.882  11.397
91228W        W63554  29.460  26.497   3.687
91229W        W63555   7.702   4.365  14.903
91230W        W63556  41.865  14.677  10.460
91231W        W63557  34.869  33.616  14.283
91232W        W63558   4.829   8.804  13.005
91233W        W63559  38.375  16.798  14.360
91234W        W63560  37.927  43.326   0.421
91235W        W63561   2.455  37.437  12.893
91236W        W63562   5.694  33.052   1.428
91237W        W63563  12.751  23.545   4.178
91238W        W63564  27.019  11.370   0.793
91239W        W63565  24.224  24.663  11.383
91240W        W63566  26.974  23.524   0.412
91241W        W63567  10.725  20.645   1.419
91242W        W63568  25.176  33.615   4.646
91243W        W63569  19.668  17.255   0.830
91244W        W63570  37.016  19.705   4.697
91245W        W63571  31.125  22.614  12.038
91246W        W63572   7.810  26.051   2.761
91247W        W63573  11.291  18.090   0.805
91248W        W63574   9.394  26.145   3.788
91249W        W63575  42.786  34.399   4.180
91250W        W63576  39.469  41.007   0.299
91251W        W63577  13.671  34.532  13.964
91252W        W63578  12.778   6.770   1.222
91253W        W63579  40.310  30.429  10.534
91254W        W63580  20.744  31.035   4.666
91255W        W63581  25.582  25.603   2.226
91256W        W63582  21.581  33.900   2.833
91257W        W63583  39.987  43.877  10.506
91258W        W63584  23.080  36.968  10.409
91259W        W63585  32.109   3.285  14.838
91260W        W63586  42.436  15.797   4.760
91261W        W63587  30.490   2.906   1.232
91262W        W63588  14.729  27.061   3.372
91263W        W63589  19.585  21.256   2.229
91264W        W63590  11.298   7.293   3.756
91265W        W63591  31.453  36.012  12.894
91266W        W63592  29.090  29.625  11.858
91267W        W63593  21.626  18.145   0.375
91268W        W63594  41.530  24.076  10.434
91269W        W63595   5.429  38.893   3.339
91270W        W63596   3.290   9.705   5.166
91271W        W63597  22.111  24.989  12.025
91272W        W63598  17.151  28.557   4.823
91273W        W63599  14.254  10.189   2.724
91274W        W63600   9.682   5.385  12.862
91275W        W63601  31.419  17.279   0.868
91276W        W63602  18.290   1.382  14.856
91277W        W63603  33.091  37.525  12.018
91278W        W63604  15.233  10.150   3.785
91279W        W63605  30.517   8.198   0.777
91280W        W63606   2.836   1.405   5.216
91281W        W63607  39.898  29.926  10.438
91282W        W63608  23.644   0.248   1.765
91283W        W63609  25.605   7.285  11.417
91284W        W63610  15.676  21.723   1.793
91285W        W63611  43.844  25.213  12.866
91286W        W63612  22.143  22.097  12.465
91287W        W63613   5.772  24.067  11.936
91288W        W63614  34.581  40.979   2.845
91289W        W63615   0.446  39.812   1.720
91290W        W63616   2.934   9.723   0.771
91291W        W63617  43.327  10.179   4.315
91292W        W63618  39.340  19.605  14.815
91293W        W63619  42.844  31.501   1.882
91294W        W63620   1.743  27.943   1.220
91295W        W63621   4.326  31.624  13.540
91296W        W63622  36.867  31.497  12.909
91297W        W63623   5.410  29.090  11.020
91298W        W63624  41.931  43.875  10.417
91299W        W63625  25.528   5.865   2.187
91300W        W63626  39.353   6.701  11.436
91301W        W63627  40.958   6.683  14.372
91302W        W63628   7.395  15.292  10.508
91303W        W63629  36.907  15.794  11.495
91304W        W63630  43.013  30.065   2.716
91305W        W63631  20.274  35.544   0.288
91306W        W63632  31.090  25.677  11.054
91307W        W63633  39.851   8.290   3.776
91308W        W63634   4.261  17.780  11.451
91309W        W63635  14.186  41.847   0.336
91310W        W63636  18.218   6.195   1.327
91311W        W63637  18.149  44.862   1.377
91312W        W63638  27.953  33.043   0.316
91313W        W63639  22.045  11.226   2.881
91314W        W63640   3.835  41.896   3.319
91315W        W63641   0.397  18.624   1.743
91316W        W63642  34.538   2.278   1.927
91317W        W63643   0.319  26.164   4.316
91318W        W63644  38.023   9.841   5.216
91319W        W63645  12.185   9.261  11.000
91320W        W63646  11.851  25.697  14.806
91321W        W63647  25.060  25.581  14.422
91322W        W63648  37.060   2.398  11.581
91323W        W63649  44.341  10.764  12.356
91324W        W63650   1.451  16.169   2.251
91325W        W63651  33.560  17.572   0.846
91326W        W63652  14.096  23.156   3.717
91327W        W63653  32.506  36.941  14.305
91328W        W63654  14.317   3.242   2.761
91329W        W63655   2.770  18.694   2.300
91330W        W63656  25.473  15.653  10.096
91331W        W63657  43.285  40.539   4.627
91332W        W63658  36.532  24.478  13.993
91333W        W63659  16.162  38.519  11.442
91334W        W63660  34.969   2.917   2.893
91335W        W63661  41.902  23.122  14.494
91336W        W63662   3.363  11.267  10.592
91337W        W63663  13.345   0.478  13.976
91338W        W63664  36.033  17.619  10.914
91339W        W63665  42.463  24.979  11.126
91340W        W63666  33.971  42.796  12.878
91341W        W63667  10.356  40.384  10.407
91342W        W63668  14.714  23.046  12.467
91343W        W63669  42.390  10.798   3.222
91344W        W63670  19.682  14.798  13.524
91345W        W63671  38.565  23.106   3.330
91346W        W63672  21.677  23.051  14.026
91347W        W63673  15.240  18.549  14.847
91348W        W63674  14.767  44.498   3.217
91349W        W63675  31.024   1.392   2.867
91350W        W63676  25.088  36.968  14.466
91351W        W63677   7.177  33.124  12.450
91352W        W63678  42.813  15.296   4.656
91353W        W63679  23.136  31.996   0.884
91354W        W63680   4.225   4.378  11.108
91355W        W63681  32.967  26.976  14.338
91356W        W63682  26.512  38.473  14.773
91357W        W63683  20.664  25.014   3.846
91358W        W63684   9.206  11.164  13.310
91359W        W63685  11.322  23.690   2.835
91360W        W63686  17.175  15.126   0.418
91361W        W63687  25.078   7.704   1.379
91362W        W63688  14.800   0.896  11.083
91363W        W63689  22.010   3.217   3.159
91364W        W63690   4.263  10.202  11.565
91365W        W63691  39.867  36.974   1.370
91366W        W63692  26.119  37.432  14.980
91367W        W63693  18.721  24.152  10.954
91368W        W63694  33.489  33.614   4.263
91369W        W63695  29.452  42.519   2.255
91370W        W63696  10.731  18.075   2.853
91371W        W63697  44.493  18.116  13.919
91372W        W63698  42.385  12.226  12.911
91373W        W63699   8.332  35.058  12.462
91374W        W63700  28.616   5.193  13.424
91375W        W63701  39.362  22.551  13.403
91376W        W63702  42.804   9.236  12.466
91377W        W63703  23.717  19.164   1.394
91378W        W63704  33.420   0.842   1.240
91379W        W63705   0.788  11.841  11.497
91380W        W63706  27.625  12.179  12.013
91381W        W63707   6.401  16.310  13.331
91382W        W63708   1.391  11.637   4.221
91383W        W63709   4.423  26.024   2.796
91384W        W63710  26.655   3.836   5.111
91385W        W63711  29.669  36.876   3.779
91386W        W63712   9.263  18.713  13.336
91387W        W63713  15.683   4.422   2.302
91388W        W63714  15.597  39.921   3.163
91389W        W63715  19.055  28.490  10.576
91390W        W63716  19.090   9.258  13.036
91391W        W63717  44.897  12.743   1.357
91392W        W63718  30.973  33.897  11.520
91393W        W63719  23.610   4.344   4.748
91394W        W63720  14.125  10.803  11.602
91395W        W63721   4.809  26.974  14.443
91396W        W63722   8.277  27.517   1.337
91397W        W63723  27.466  25.144  14.000
91398W        W63724   6.858  31.961   1.836
91399W        W63725  21.128  17.179   4.168
91400W        W63726   7.892  22.614   4.645
91401W        W63727  39.999  19.618   1.381
91402W        W63728  22.115   0.310   0.271
91403W        W63729  39.456  24.137   3.360
91404W        W63730  34.557   7.823  10.568
91405W        W63731  22.727  38.483  11.441
91406W        W63732  44.976  10.261  12.078
91407W        W63733  35.413   9.874   2.714
91408W        W63734  38.330  39.551  12.378
91409W        W63735  34.403   9.670   4.619
91410W        W63736  33.515  43.845   3.166
91411W        W63737   8.223  33.482   2.402
91412W        W63738  21.703  43.374   1.399
91413W        W63739  40.980   3.460   1.826
91414W        W63740  30.088  11.151  13.547
91415W        W63741   5.709   9.305  12.929
91416W        W63742  34.484   1.240  10.608
91417W        W63743  29.927  19.127  13.316
91418W        W63744  22.216  19.217  14.788
91419W        W63745   2.423  27.152   4.800
91420W        W63746   2.429  33.017  11.374
91421W        W63747  27.102  14.306   0.845
91422W        W63748  19.703  35.540  10.436
91423W        W63749   6.727  32.090   0.357
91424W        W63750  22.557  11.774   4.727
91425W        W63751  29.660  41.875   1.429
91426W        W63752   8.354  22.721   0.371
91427W        W63753  33.395   4.784   3.764
91428W        W63754  21.653  15.644   4.794
91429W        W63755  20.569  26.182   1.236
91430W        W63756   3.392  10.723   3.264
91431W        W63757   8.833   4.730  10.556
91432W        W63758   8.174  31.935   2.878
91433W        W63759  34.889  28.057  11.912
91434W        W63760  16.073  12.313   0.301
91435W        W63761   8.726  26.093  10.942
91436W        W63762  34.502  25.105   4.786
91437W        W63763   7.785  32.611  10.461
91438W        W63764  29.130   8.743   2.275
91439W        W63765  18.746   6.753  13.822
91440W        W63766  13.127  31.104  11.906
91441W        W63767  14.815   9.324   2.294
91442W        W63768  35.505  38.918  11.567
91443W        W63769  24.530  10.171   2.226
91444W        W63770  26.477  14.099  11.014
91445W        W63771  17.089  17.181  14.910
91446W        W63772  14.123  24.491   0.378
91447W        W63773   8.184  43.472  12.037
91448W        W63774  28.175  39.831  13.822
91449W        W63775   7.398  38.897   2.803
91450W        W63776  31.921  25.166  13.307
91451W        W63777  41.865  43.304   0.940
91452W        W63778  14.307  39.345   4.134
91453W        W63779  19.715   3.244   5.188
91454W        W63780   5.423  14.834  13.018
91455W        W63781  22.595  35.049   2.775
91456W        W63782  24.591   9.691   4.690
91457W        W63783  37.920  32.102   2.769
91458W        W63784  16.316  10.765  13.329
91459W        W63785  18.050  37.506   0.822
91460W        W63786  20.565  39.471   1.401
91461W        W63787  19.140  13.688   3.637
91462W        W63788  21.730  21.687   3.717
91463W        W63789   4.218  17.769   3.857
91464W        W63790  31.022   1.875   4.737
91465W        W63791  22.017  24.522  13.796
91466W        W63792  17.732  24.634  12.950
91467W        W63793  25.042  42.778  12.005
91468W        W63794   4.810   4.351   2.369
91469W        W63795  11.849  41.451  10.919
91470W        W63796  24.685  15.323   1.442
91471W        W63797  24.217  18.620   2.300
91472W        W63798  11.195  37.048   3.270
91473W        W63799  29.097  25.995   0.960
91474W        W63800   7.898   8.714  10.052
91475W        W63801  10.146   7.198   4.334
91476W        W63802  23.037  12.718  10.534
91477W        W63803  16.574  40.369   1.390
91478W        W63804  26.088  13.107  14.015
91479W        W63805  16.677  24.090  14.472
91480W        W63806  20.182   4.877  10.940
91481W        W63807   5.734  23.708  13.874
91482W        W63808  33.945   1.850   4.130
91483W        W63809  13.747  34.538   2.663
91484W        W63810  10.321   1.750  12.341
91485W        W63811  15.308  19.098  12.353
91486W        W63812   7.246  23.133  13.814
91487W        W63813  16.688  10.168   3.774
91488W        W63814  38.530   4.289  11.944
91489W        W63815  21.179  25.998  12.931
91490W        W63816  29.108   6.744   2.181
91491W        W63817   7.822  29.571  11.492
91492W        W63818  44.835   4.232   2.311
91493W        W63819  34.409   7.734  12.402
91494W        W63820   9.769  43.424  12.561
91495W        W63821  22.023   5.780  11.895
91496W        W63822   9.666  24.978   4.186
91497W        W63823   3.377  41.822  14.799
91498W        W63824  15.762  12.340   0.467
91499W        W63825   6.271  27.600   3.263
91500W        W63826  17.153  42.516   2.365
91501W        W63827  17.669  36.524  12.965
91502W        W63828  16.148   1.241   3.790
91503W        W63829  38.542  32.939  14.847
91504W        W63830  23.671  25.196   0.927
91505W        W63831  11.750  11.255  13.880
91506W        W63832  29.604  10.704  10.595
91507W        W63833  41.848   6.332   0.765
91508W        W63834  29.588  34.043   1.388
91509W        W63835  29.116   6.232   4.811
91510W        W63836   1.820  29.439  10.454
91511W        W63837  35.435  35.508  14.850
91512W        W63838  28.089  17.294   1.892
91513W        W63839  27.523  42.505  13.421
91514W        W63840  20.269   7.292   2.406
91515W        W63841  19.613  11.675   2.825
91516W        W63842  30.417  10.772   4.603
91517W        W63843   7.172  33.558   2.375
91518W        W63844  12.193   3.788   2.673
91519W        W63845  10.641  22.142  13.323
91520W        W63846  29.161   6.249  10.931
91521W        W63847  13.829  10.226   0.855
91522W        W63848  34.502  40.521   0.265
91523W        W63849  37.499  35.511  12.545
91524W        W63850  37.843  40.929   1.882
91525W        W63851  16.085  39.051   1.431
91526W        W63852  36.539  30.909  14.777
91527W        W63853  12.698   7.247   3.259
91528W        W63854  27.134  28.568   1.266
91529W        W63855  44.799  16.261   4.306
91530W        W63856   4.862  23.730  14.892
91531W        W63857   3.918  23.212   2.729
91532W        W63858  42.483  29.073  14.290
91533W        W63859  41.496  20.654   0.786
91534W        W63860  34.992  40.491   0.818
91535W        W63861  12.703  37.911   3.824
91536W        W63862  32.520  23.501  12.514
91537W        W63863  17.263   6.698   0.736
91538W        W63864  12.156   5.731   4.130
91539W        W63865  17.163  21.229  11.071
91540W        W63866  11.731   7.822   3.256
91541W        W63867  12.669  41.308   2.888
91542W        W63868  44.845  12.130   3.304
91543W        W63869  39.339  44.320  13.897
91544W        W63870  29.061   3.406   3.313
91545W        W63871  19.761  22.606  12.036
91546W        W63872  17.182  39.985  13.025
91547W        W63873   4.711  33.887   1.826
91548W        W63874  17.091  18.742  13.913
91549W        W63875  11.291   8.232   2.259
91550W        W63876   3.418   5.750  11.036
91551W        W63877  25.685  15.680   1.768
91552W        W63878  27.972  29.531  10.507
91553W        W63879  24.667   6.919   4.321
91554W        W63880  23.200  16.718   2.178
91555W        W63881   6.916  23.566   0.903
91556W        W63882  28.159  20.554   3.774
91557W        W63883   4.752  32.438  11.031
91558W        W63884  34.560  18.700  13.469
91559W        W63885   4.843  12.338   5.083
91560W        W63886  20.103  33.485   2.366
91561W        W63887   8.168  30.646   0.266
91562W        W63888  18.132  16.224   2.841
91563W        W63889  11.291  30.599  14.029
91564W        W63890  43.944   3.933   4.689
91565W        W63891  16.571  41.859   3.193
91566W        W63892  37.007  43.994  11.942
91567W        W63893   2.316  30.097  10.545
91568W        W63894  30.516   4.832  11.077
91569W        W63895   0.856  20.236   4.326
91570W        W63896  40.920  13.209  14.281
91571W        W63897  10.259  12.815   1.818
91572W        W63898  37.539  43.486  14.831
91573W        W63899  39.347   0.900   0.407
91574W        W63900  26.497  26.094   5.207
91575W        W63901  20.236  17.120   0.365
91576W        W63902   5.280  23.497   0.939
91577W        W63903  15.329  26.959   3.276
91578W        W63904  41.849  14.721   3.743
91579W        W63905  14.252  27.075  12.402
91580W        W63906  40.880  26.965   2.328
91581W        W63907   0.337  13.839   1.386
91582W        W63908   6.399  23.701   2.807
91583W        W63909  37.007  16.587  12.388
91584W        W63910  20.187   6.679   4.698
91585W        W63911  40.544  27.486  13.042
91586W        W63912  33.100  23.122  13.402
91587W        W63913   3.711   9.186   5.158
91588W        W63914  13.797  42.820   1.884
91589W        W63915  25.663  14.145  14.790
91590W        W63916   2.733  30.023   1.276
91591W        W63917  13.625  15.203  14.954
91592W        W63918   0.359  12.135  14.323
91593W        W63919  35.486  24.223  13.387
91594W        W63920  42.293  36.071  14.275
91595W        W63921  11.332  15.781  13.793
91596W        W63922   0.905  14.640  14.470
91597W        W63923   9.852  35.868  10.961
91598W        W63924  38.965   0.387   1.232
91599W        W63925  14.180  36.424  11.593
91600W        W63926  26.586  11.704   2.886
91601W        W63927  21.729  36.575  12.920
91602W        W63928  16.753  41.998  11.540
91603W        W63929  25.102  11.348  11.506
91604W        W63930  25.204  22.034  13.959
91605W        W63931  10.329  18.167  14.921
91606W        W63932   4.308  37.994   3.240
91607W        W63933  22.733   4.416   4.280
91608W        W63934  20.258  32.586  10.941
91609W        W63935  39.432  39.012  13.049
91610W        W63936   5.824   0.915   1.914
91611W        W63937  39.814  27.522   2.295
91612W        W63938  17.077  19.248  14.972
91613W        W63939  20.234  19.133  11.107
91614W        W63940  18.107  28.957  13.864
91615W        W63941  32.089  15.275   5.300
91616W        W63942  36.528  32.973   3.735
91617W        W63943   6.847  26.102  11.052
91618W        W63944  41.899   8.831  10.532
91619W        W63945   3.400   2.729  14.878
91620W        W63946  33.626  38.982  13.043
91621W        W63947  25.053  31.943   3.728
91622W        W63948   9.715  20.600   3.783
91623W        W63949  32.949  34.922  10.468
91624W        W63950   9.652   0.973  13.954
91625W        W63951  26.489  34.532  10.414
91626W        W63952   9.252  12.197  14.960
91627W        W63953  41.499  20.628  13.054
91628W        W63954  44.925   6.297  14.385
91629W        W63955  35.972  44.307  14.307
91630W        W63956  24.715  35.059   3.730
91631W        W63957  28.588  13.756  14.964
91632W        W63958  33.624  22.052  12.081
91633W        W63959  25.559   5.398  10.893
91634W        W63960  14.096  11.726   0.440
91635W        W63961  32.579  11.864   0.735
91636W        W63962  30.625  20.755  14.965
91637W        W63963  11.629  11.332   3.722
91638W        W63964  26.608  18.220  14.870
91639W        W63965  37.079  11.833  10.589
91640W        W63966  41.451   4.269   0.887
91641W        W63967  41.514   5.859   2.398
91642W        W63968  11.245  14.267  11.474
91643W        W63969  18.631   3.819   4.719
91644W        W63970  17.791  22.623  12.063
91645W        W63971  37.859  23.522  10.638
91646W        W63972   9.156  20.609   1.736
91647W        W63973  43.937  35.004   3.816
91648W        W63974  17.232  39.015  14.794
91649W        W63975  18.653  18.134   9.995
91650W        W63976  21.621  10.367   3.379
91651W        W63977  39.498  15.238   2.691
91652W        W63978  36.081  17.285  11.873
91653W        W63979  15.809  34.394   0.420
91654W        W63980   6.766  12.185   3.659
91655W        W63981   6.750  26.477   3.182
91656W        W63982   4.279   9.866   1.866
91657W        W63983  41.330  17.583   1.288
91658W        W63984  33.495  44.977  13.332
91659W        W63985  31.438   1.433  14.921
91660W        W63986  15.629  34.096   3.167
91661W        W63987  22.539  22.663  10.903
91662W        W63988   2.757  16.642   1.356
91663W        W63989  37.921  18.712   1.434
91664W        W63990  12.219  14.742  12.568
91665W        W63991  25.689   8.289  13.985
91666W        W63992  37.972  27.643  13.309
91667W        W63993  19.747  13.626   2.224
91668W        W63994  20.584  44.292  13.064
91669W        W63995  27.573  25.640  12.563
91670W        W63996  37.505  42.811   0.392
91671W        W63997  34.512  25.120  13.316
91672W        W63998  39.364   9.167  12.459
91673W        W63999   8.259   3.221  10.411
91674W        W64000   2.855  22.044  10.949
91675W        W64001  12.215  33.078   0.893
91676W        W64002  33.103  21.036   3.277
91677W        W64003   3.427  19.146   1.748
91678W        W64004  44.872  42.793  14.973
91679W        W64005   5.268  32.052  11.518
91680W        W64006  42.884  26.042   4.231
91681W        W64007   9.872  36.509   1.846
91682W        W64008  14.744  42.937   5.161
91683W        W64009  17.265  43.439  14.316
91684W        W64010  19.746  15.314  10.989
91685W        W64011  44.312  23.546  12.467
91686W        W64012  20.655  31.140  12.824
91687W        W64013  35.854  30.139  11.951
91688W        W64014  23.152   9.874   1.445
91689W        W64015  16.702  15.814  12.943
91690W        W64016  34.462  41.320  11.957
91691W        W64017  42.516  18.571   4.354
91692W        W64018  13.806  33.968   9.536
91693W        W64019  16.252  36.368  13.411
91694W        W64020  26.695  14.251  13.543
91695W        W64021  38.385  10.285  13.391
91696W        W64022  17.746  44.796  12.492
91697W        W64023  34.534  30.596   2.683
91698W        W64024  14.783  11.835  12.859
91699W        W64025   1.278  30.081   2.303
91700W        W64026  39.478  11.357   2.307
91701W        W64027  39.554  25.660   4.781
91702W        W64028  38.000   9.223   3.204
91703W        W64029  37.550  41.997  14.487
91704W        W64030  35.531  30.160  11.469
91705W        W64031  18.102  12.339   2.322
91706W        W64032  23.167  41.999  10.994
91707W        W64033  10.828   0.795   2.692
91708W        W64034  30.080  41.896   0.304
91709W        W64035  36.487  26.145   0.761
91710W        W64036   5.390  16.231   2.316
91711W        W64037  36.483  15.111   0.330
91712W        W64038  38.044  37.348  12.369
91713W        W64039  17.723  39.044   4.193
91714W        W64040  25.478  34.469   4.240
91715W        W64041  19.586  41.521  12.545
91716W        W64042  21.134   1.450  10.436
91717W        W64043   3.244  19.172   0.302
91718W        W64044  24.604  37.977   4.266
91719W        W64045  22.710  31.123  14.310
91720W        W64046  37.504  22.042   0.909
91721W        W64047   4.783  42.819  13.976
91722W        W64048  22.717  20.699   4.632
91723W        W64049  16.779  12.810   1.865
91724W        W64050   3.948  39.510  10.442
91725W        W64051   0.759  39.443   2.405
91726W        W64052  44.344  40.435  10.952
91727W        W64053  27.010  19.133  14.444
91728W        W64054   6.691  30.009  10.625
91729W        W64055  33.544  26.979   4.249
91730W        W64056   0.297  36.390   4.779
91731W        W64057  22.159   2.910  11.602
91732W        W64058  23.710  12.843  13.508
91733W        W64059  31.129   1.789  12.983
91734W        W64060  41.792  18.240  12.924
91735W        W64061  14.745  13.282   0.762
91736W        W64062   0.960  16.312   1.409
91737W        W64063  42.308  23.723  13.310
91738W        W64064  44.898  13.669  11.456
91739W        W64065  10.187  44.995   3.273
91740W        W64066  14.808  25.192   2.358
91741W        W64067  18.208  33.936  13.401
91742W        W64068  41.435  35.572   3.232
91743W        W64069  42.801   6.365   3.165
91744W        W64070  26.977  23.123   2.221
91745W        W64071   4.277  15.624  10.129
91746W        W64072  37.839   6.207   4.166
91747W        W64073  37.360  22.218   4.673
91748W        W64074  29.426  14.127   3.290
91749W        W64075  18.659  32.486  13.483
91750W        W64076  31.065   0.348   2.327
91751W        W64077  36.520  15.245   3.319
91752W        W64078   8.727  31.080   2.678
91753W        W64079   1.300  44.362  11.117
91754W        W64080  25.592  16.310   0.762
91755W        W64081  23.029  33.941   1.776
91756W        W64082   2.891  30.141  13.979
91757W        W64083  35.595  10.315   1.852
91758W        W64084  10.664  27.644  13.028
91759W        W64085  40.351  32.134   2.346
91760W        W64086  13.828  22.234   0.248
91761W        W64087   5.841   4.294  13.334
91762W        W64088  41.303  33.580   3.677
91763W        W64089  28.610  14.152  13.476
91764W        W64090  32.945  29.151   2.412
91765W        W64091  32.096  26.502   0.927
91766W        W64092  10.224   8.380  12.418
91767W        W64093  26.134  10.821  10.531
91768W        W64094  24.543  29.492  12.495
91769W        W64095  44.956   2.918   1.317
91770W        W64096  32.910  29.573   4.722
91771W        W64097  14.753  17.289  14.506
91772W        W64098  22.112  14.223  14.321
91773W        W64099  44.303  34.530   3.280
91774W        W64100  17.673  31.017  13.487
91775W        W64101  32.067  41.005   4.820
91776W        W64102   4.358  37.531   3.163
91777W        W64103  32.960  32.930   1.870
91778W        W64104  33.924  35.532   3.182
91779W        W64105  26.007  22.664  10.986
91780W        W64106  23.083  12.242  10.607
91781W        W64107   0.908   9.294  12.576
91782W        W64108  21.536  14.813   3.631
91783W        W64109  23.176  23.225   4.180
91784W        W64110  39.440  23.133   4.148
91785W        W64111  32.099   9.245   1.893
91786W        W64112   3.722  38.882   0.768
91787W        W64113  22.562   3.825   3.224
91788W        W64114  18.155  40.889  13.891
91789W        W64115   1.326  32.980  13.362
91790W        W64116  38.414  39.851   2.180
91791W        W64117  34.528  11.205  13.920
91792W        W64118  13.806  17.794   2.352
91793W        W64119   3.869  18.097  13.462
91794W        W64120  16.710  29.025  11.577
91795W        W64121  34.501  33.475  14.794
91796W        W64122   7.681  18.642   1.804
91797W        W64123  36.419  30.472   0.416
91798W        W64124   3.394  27.542   4.132
91799W        W64125   4.435  34.897  11.520
91800W        W64126  24.099  20.197  13.421
91801W        W64127  27.663  24.597   4.740
91802W        W64128   3.352  20.762  12.985
91803W        W64129   0.453  32.392  11.111
91804W        W64130   9.206  26.112  13.860
91805W        W64131   9.721   7.721   4.832
91806W        W64132  27.017   9.355  14.803
91807W        W64133  26.610  25.026   0.820
91808W        W64134  15.318  16.575   3.849
91809W        W64135   5.875   1.882  13.439
91810W        W64136  39.420  19.582   0.433
91811W        W64137  22.203   1.246  12.548
91812W        W64138  42.434  39.907   2.863
91813W        W64139  20.248  19.636  11.886
91814W        W64140  11.641  33.991   1.333
91815W        W64141  37.369  11.234   0.463
91816W        W64142  37.995  14.198  13.501
91817W        W64143  19.736  27.451   4.652
91818W        W64144  19.063  44.345  11.047
91819W        W64145   9.275   9.882  11.556
91820W        W64146   6.768  38.065  12.978
91821W        W64147  18.734  25.992   1.713
91822W        W64148  18.651   0.909  14.415
91823W        W64149  38.918  14.615  12.861
91824W        W64150   8.657  32.390   0.747
91825W        W64151   2.872   7.236   4.125
91826W        W64152  11.209  33.579   2.393
91827W        W64153  36.547  28.663   3.276
91828W        W64154  30.610  39.987  12.895
91829W        W64155  36.929  40.418  11.378
91830W        W64156   3.938  17.124  10.009
91831W        W64157  14.181   5.300  11.420
91832W        W64158  12.740  21.750   2.253
91833W        W64159   5.756  40.415  14.279
91834W        W64160  17.564  19.774  13.357
91835W        W64161  26.150  25.576   4.759
91836W        W64162  18.569  39.866   1.726
91837W        W64163  24.002   1.835  13.792
91838W        W64164  30.934  28.672  11.952
91839W        W64165  32.971   8.859   1.220
91840W        W64166   8.749  42.291   1.818
91841W        W64167  25.604  40.476  12.514
91842W        W64168   8.272   1.938   2.791
91843W        W64169  15.711  22.252   0.819
91844W        W64170  10.366   8.713  13.886
91845W        W64171  12.161  38.443   1.269
91846W        W64172  29.159  24.498  12.006
91847W        W64173  39.410  31.009  11.964
91848W        W64174  28.436  43.333  12.568
91849W        W64175  34.071  32.579   2.718
91850W        W64176  39.975  20.538  11.056
91851W        W64177   2.910  36.458  14.446
91852W        W64178  23.698  10.307   0.909
91853W        W64179  23.121   2.880  14.913
91854W        W64180  40.547  18.674   3.175
91855W        W64181  21.252  34.604  11.065
91856W        W64182  15.243  42.817  13.547
91857W        W64183  14.323  22.651  11.385
91858W        W64184   5.689  19.602   3.650
91859W        W64185  40.465  15.729   2.384
91860W        W64186  11.305  25.123  14.433
91861W        W64187  11.209  14.731   0.874
91862W        W64188  16.091  24.112   1.234
91863W        W64189  34.088   2.444   0.935
91864W        W64190  19.629  28.470  14.503
91865W        W64191  29.081  15.633   3.355
91866W        W64192  23.182  29.653  11.390
91867W        W64193  19.700  25.549   4.708
91868W        W64194  18.632  19.127   3.740
91869W        W64195  19.103  26.696  11.069
91870W        W64196  29.029  32.988  13.459
91871W        W64197  39.052   2.752   3.857
91872W        W64198  13.685  25.696  14.328
91873W        W64199  28.450  35.085  13.836
91874W        W64200   8.727  33.074  12.905
91875W        W64201  20.232   9.691   2.249
91876W        W64202  25.601   0.918   3.717
91877W        W64203  25.555   0.784   3.339
91878W        W64204   6.194  28.048  12.425
91879W        W64205  44.485  44.316   1.399
91880W        W64206  32.575  25.529   4.312
91881W        W64207  22.184  37.902   3.373
91882W        W64208  19.075  20.170  11.439
91883W        W64209  38.382  23.556  11.872
91884W        W64210   0.878  17.631   4.599
91885W        W64211  40.918   6.848  12.885
91886W        W64212  28.479   4.281  10.499
91887W        W64213  21.656  19.250   2.196
91888W        W64214  42.850   6.295  12.907
91889W        W64215  26.513  37.056  10.580
91890W        W64216  24.087   9.216  11.015
91891W        W64217  14.799  26.019   0.400
91892W        W64218  12.300   6.348   3.858
91893W        W64219  29.928  33.060   3.629
91894W        W64220  44.272  34.489  10.992
91895W        W64221  13.747  28.984   0.401
91896W        W64222  31.524   2.331  11.397
91897W        W64223  43.310  11.209  12.020
91898W        W64224  39.386  29.071  12.503
91899W        W64225  35.472  32.603   3.153
91900W        W64226  44.357  19.557  14.981
91901W        W64227  43.774  14.718  12.906
91902W        W64228  32.633   3.820   1.432
91903W        W64229  30.503  32.927   1.885
91904W        W64230  33.491  41.001   0.356
91905W        W64231  26.589  31.625  14.284
91906W        W64232  39.849  33.126   1.261
91907W        W64233  11.140   9.314   2.304
91908W        W64234  16.773  23.199  13.428
91909W        W64235   2.312  27.547  14.295
91910W        W64236  12.775  27.507   5.285
91911W        W64237  38.402  25.130   0.369
91912W        W64238   6.903  18.627  14.327
91913W        W64239   0.902  24.658  11.945
91914W        W64240   8.212   5.934   0.947
91915W        W64241   5.409  17.784  13.860
91916W        W64242   4.916  28.494   3.762
91917W        W64243  37.345  40.052   0.903
91918W        W64244  42.388  34.480  12.846
91919W        W64245  40.850  23.240   4.779
91920W        W64246  37.948  37.912   4.687
91921W        W64247  14.750  19.535   4.180
91922W        W64248  27.610  25.171  11.960
91923W        W64249  41.372   5.704   4.341
91924W        W64250  28.522  31.002  10.910
91925W        W64251  10.733  25.130   3.747
91926W        W64252  25.187  29.446  11.449
91927W        W64253   3.262  35.967  11.953
91928W        W64254   1.855  21.597   4.239
91929W        W64255  32.449  12.724   1.262
91930W        W64256  21.248  24.595  14.809
91931W        W64257  31.080   9.752  14.385
91932W        W64258  29.538  39.887  13.389
91933W        W64259  34.424   7.171   3.285
91934W        W64260  12.782  16.591   3.202
91935W        W64261  28.980  30.925  11.454
91936W        W64262  43.777   8.296   1.278
91937W        W64263  42.886  44.464   2.357
91938W        W64264   6.729   2.827   4.124
91939W        W64265   5.274  14.707  11.484
91940W        W64266  17.302  33.109   0.828
91941W        W64267  34.502  38.846  13.914
91942W        W64268  11.356  41.824   4.192
91943W        W64269  29.960  29.103   0.856
91944W        W64270   7.349  37.435  12.523
91945W        W64271   6.280  37.971   2.704
91946W        W64272  33.417  21.087  13.542
91947W        W64273  37.886  12.285  11.417
91948W        W64274  17.798  35.927  13.966
91949W        W64275  40.328  31.972   2.887
91950W        W64276  23.699  16.175  11.508
91951W        W64277   6.309  20.719   2.797
91952W        W64278  21.218   3.911   0.332
91953W        W64279  25.686   8.867   4.831
91954W        W64280   0.254  39.040  11.407
91955W        W64281  22.030   6.265   0.281
91956W        W64282  42.885  27.152  12.393
91957W        W64283   5.698   0.956  13.008
91958W        W64284  37.372  40.489  13.913
91959W        W64285  31.948  19.157  13.891
91960W        W64286  43.882  27.454   4.632
91961W        W64287  14.283  34.108   0.341
91962W        W64288  11.272  44.382  14.437
91963W        W64289  17.296   3.228  13.825
91964W        W64290  29.626   9.830   3.794
91965W        W64291  29.501   6.183   2.700
91966W        W64292  36.439  44.364   3.781
91967W        W64293   1.482   2.260  14.418
91968W        W64294  14.740  33.561  12.948
91969W        W64295  14.617  24.079   3.268
91970W        W64296  40.953  24.050  13.935
91971W        W64297   6.866  44.980   2.374
91972W        W64298   3.450  17.788   2.249
91973W        W64299  43.968   0.948   2.360
91974W        W64300  20.226  10.873  13.458
91975W        W64301  19.095   0.984   2.739
91976W        W64302   7.252  39.521  12.539
91977W        W64303  35.025  15.773   4.141
91978W        W64304  39.558  13.287  10.559
91979W        W64305  22.635  19.266   3.727
91980W        W64306  23.552  18.609  12.877
91981W        W64307  37.885   4.274   2.708
91982W        W64308   7.215  40.476   3.717
91983W        W64309  16.666  30.970   1.720
91984W        W64310  35.490  42.421   0.444
91985W        W64311  18.121   8.282   1.334
91986W        W64312  23.615  29.990  12.919
91987W        W64313  33.880   3.295   0.760
91988W        W64314  39.413  14.258  14.375
91989W        W64315   9.870  27.958   4.134
91990W        W64316  25.002  38.019  12.847
91991W        W64317  31.417  44.777  10.975
91992W        W64318  43.465  11.695  14.772
91993W        W64319   2.744   2.844  14.879
91994W        W64320   9.886  34.466  13.962
91995W        W64321  31.913  25.655  11.596
91996W        W64322  17.667  35.017  10.587
91997W        W64323  11.767  36.391  13.521
91998W        W64324  23.606   7.861   3.751
91999W        W64325  39.369  12.131   1.395
92000W        W64326  10.710  39.477  14.862
92001W        W64327  41.316  15.620  10.013
92002W        W64328  15.708  16.111  12.065
92003W        W64329  37.006  36.018  14.337
92004W        W64330   9.308  23.686  13.845
92005W        W64331   8.163  16.276  14.870
92006W        W64332  38.041  31.042   2.738
92007W        W64333   6.368  23.208   4.618
92008W        W64334  20.603  43.435  12.877
92009W        W64335  27.033   1.902  13.473
92010W        W64336  34.449  34.038  11.032
92011W        W64337  33.058  43.411   3.868
92012W        W64338  11.776  14.234  13.359
92013W        W64339  24.222  18.078  12.944
92014W        W64340  26.512  28.034  12.409
92015W        W64341   0.274  26.540   0.855
92016W        W64342  18.699  18.146  13.908
92017W        W64343  37.536   7.376  11.069
92018W        W64344  35.457   9.272   3.769
92019W        W64345  20.594  18.677   1.700
92020W        W64346  23.545  42.974  12.839
92021W        W64347  38.552  16.603   2.304
92022W        W64348   9.270  10.855   1.352
92023W        W64349   1.901   7.752   3.759
92024W        W64350  27.957  35.019  13.369
92025W        W64351   1.918  15.675   0.744
92026W        W64352  33.608   9.716  12.096
92027W        W64353  17.182  20.109   1.852
92028W        W64354   1.446  25.986   4.284
92029W        W64355  25.485  13.696  13.503
92030W        W64356  29.592  21.241  12.039
92031W        W64357  39.990  41.006   3.783
92032W        W64358  24.150   3.250   4.146
92033W        W64359   9.241  18.584   3.365
92034W        W64360  39.333  37.835   3.683
92035W        W64361  15.156  21.031  14.305
92036W        W64362  30.561  38.419  13.451
92037W        W64363  18.577   1.435  13.960
92038W        W64364  21.090  42.803   2.419
92039W        W64365  12.627  17.778  14.351
92040W        W64366   5.281   3.762  13.416
92041W        W64367  44.895  11.196   4.303
92042W        W64368   3.873  39.982  11.859
92043W        W64369   3.320   1.366   0.788
92044W        W64370  34.982  13.105  11.092
92045W        W64371  39.870   4.754  14.889
92046W        W64372   7.272  34.574   0.384
92047W        W64373  43.274  43.926   0.373
92048W        W64374  33.066   2.356  11.935
92049W        W64375  10.706   4.355  12.927
92050W        W64376  34.019  35.559   2.401
92051W        W64377  37.451  33.518   4.764
92052W        W64378  29.008   7.205   1.852
92053W        W64379  14.114   0.851  14.505
92054W        W64380  29.559  37.365  14.998
92055W        W64381  18.267  17.214   1.803
92056W        W64382  39.044  39.898  10.630
92057W        W64383  17.222  30.471   3.735
92058W        W64384  15.141  19.551  14.886
92059W        W64385  38.326  31.634   3.790
92060W        W64386   5.350   3.781   0.310
92061W        W64387  17.610  33.874   1.738
92062W        W64388   8.321  17.742  11.542
92063W        W64389   4.709  39.956  11.965
92064W        W64390  16.267   2.883  11.503
92065W        W64391  19.177  18.733   1.834
92066W        W64392  26.192  31.526   0.303
92067W        W64393  38.349  33.622  12.513
92068W        W64394   2.232  32.974  12.563
92069W        W64395  21.164  17.284  14.918
92070W        W64396  41.997  24.174   4.283
92071W        W64397   2.727  29.919  10.553
92072W        W64398  22.740  28.553   2.850
92073W        W64399  26.493  17.567  12.984
92074W        W64400  17.747   7.301  14.915
92075W        W64401  44.306  44.821   0.803
92076W        W64402  22.542  44.284   0.900
92077W        W64403   3.783  37.915  10.436
92078W        W64404  18.099  18.171   1.715
92079W        W64405  39.955  14.797  12.388
92080W        W64406   4.220  37.959   2.848
92081W        W64407  30.430  35.469   3.245
92082W        W64408   4.834   5.194   2.794
92083W        W64409  28.084  25.600   1.398
92084W        W64410  11.773  20.584  11.109
92085W        W64411   6.737  29.646  11.529
92086W        W64412  41.412  34.944   3.156
92087W        W64413  26.636  17.297  14.903
92088W        W64414  29.096  28.950  14.897
92089W        W64415  39.810  33.480   3.246
92090W        W64416  32.097  28.000   4.790
92091W        W64417  13.337   9.719  14.900
92092W        W64418  43.891  22.560  11.448
92093W        W64419  23.992   6.862   4.345
92094W        W64420  24.582   9.182   4.134
92095W        W64421   0.460  10.204   2.788
92096W        W64422   3.431  13.261   1.816
92097W        W64423  43.765   2.731  11.521
92098W        W64424  34.966   7.248  11.050
92099W        W64425   3.821  24.630  14.292
92100W        W64426   4.763  16.184   0.250
92101W        W64427  33.478  22.506   0.258
92102W        W64428   7.906  15.279  11.975
92103W        W64429  26.534  38.338   2.319
92104W        W64430  33.412  18.679  12.508
92105W        W64431  27.514  38.019   4.211
92106W        W64432  42.436  39.443   2.704
92107W        W64433  15.602  14.129  12.488
92108W        W64434   0.877  40.960  14.461
92109W        W64435  36.855   4.905   4.621
92110W        W64436  18.170  12.782   3.812
92111W        W64437  22.717  38.368  13.499
92112W        W64438  20.736  14.275   3.816
92113W        W64439  16.314   1.880  14.498
92114W        W64440  18.218   8.696  14.821
92115W        W64441   2.297  28.049   4.162
92116W        W64442  26.564  36.539   4.283
92117W        W64443  34.527  25.091  14.986
92118W        W64444   2.884  23.505   2.205
92119W        W64445  32.935   9.707   2.332
92120W        W64446  40.894  23.078  12.409
92121W        W64447   8.259   4.729  12.917
92122W        W64448  44.423  31.648  11.900
92123W        W64449   6.872  31.628  14.363
92124W        W64450  32.616   1.359  10.421
92125W        W64451   5.337  10.670  13.999
92126W        W64452  40.309  29.018  13.809
92127W        W64453   8.694  28.465   3.737
92128W        W64454   2.353   5.715  10.424
92129W        W64455  22.168  37.891   5.170
92130W        W64456  18.712  10.763  14.278
92131W        W64457  10.271  40.840  11.473
92132W        W64458  42.426  38.511   2.721
92133W        W64459  27.642  28.595   9.519
92134W        W64460  15.319  22.058  11.891
92135W        W64461  34.989  21.202   1.282
92136W        W64462  30.150  24.609  14.826
92137W        W64463  41.816  41.322  13.846
92138W        W64464   7.686   3.417   5.252
92139W        W64465  32.999  36.490   3.332
92140W        W64466  36.884  36.984  14.840
92141W        W64467   6.685  22.674  14.951
92142W        W64468  44.822  11.767  13.013
92143W        W64469  29.171  38.474  11.526
92144W        W64470  29.989   9.362  12.578
92145W        W64471  37.365  24.171   0.751
92146W        W64472  11.729  41.295   2.880
92147W        W64473  40.852  15.726  14.286
92148W        W64474  24.586  35.936   1.739
92149W        W64475  24.702  37.383   5.235
92150W        W64476   3.243   7.414   2.704
92151W        W64477   7.682  38.405  14.390
92152W        W64478   4.401  30.126  10.622
92153W        W64479  42.829  19.597   9.949
92154W        W64480  42.506   3.730  11.000
92155W        W64481  20.087  40.532   1.932
92156W        W64482  22.740  31.952  11.127
92157W        W64483   7.848  40.357   1.844
92158W        W64484  33.551  43.325  10.601
92159W        W64485  31.057  44.903  11.873
92160W        W64486  29.047  25.666   1.275
92161W        W64487  20.120   7.690  10.533
92162W        W64488  41.822   5.780   0.871
92163W        W64489   9.359  27.515   3.225
92164W        W64490  22.529   9.216  12.541
92165W        W64491  12.162  26.057   4.126
92166W        W64492  40.492  25.068   5.220
92167W        W64493  19.660  19.096  11.378
92168W        W64494  18.564  15.625   2.337
92169W        W64495  27.541  23.134   3.822
92170W        W64496  20.635  21.078  10.588
92171W        W64497  14.622   9.210   0.483
92172W        W64498   3.439  20.135  12.361
92173W        W64499   2.812  35.960   2.391
92174W        W64500  18.637  23.684  11.398
92175W        W64501  40.824  32.486  14.767
92176W        W64502   5.875  31.405  12.541
92177W        W64503  11.665  20.187  12.858
92178W        W64504   1.438   4.285  11.897
92179W        W64505   7.846  32.606  12.825
92180W        W64506  35.391  14.737  14.899
92181W        W64507   9.700  43.975  14.360
92182W        W64508   2.278  22.735  12.548
92183W        W64509  39.840  22.131  11.610
92184W        W64510  29.953  35.900   4.709
92185W        W64511  40.537   5.193   2.768
92186W        W64512  31.918  21.736  11.909
92187W        W64513  36.052  26.670   0.377
92188W        W64514  18.170   1.364   3.735
92189W        W64515  39.399   0.798  10.917
92190W        W64516   0.839  34.025   3.316
92191W        W64517  14.172  17.213  14.992
92192W        W64518  43.926  42.319   2.208
92193W        W64519  29.586  42.348  14.857
92194W        W64520  40.943  32.521  10.909
92195W        W64521  27.473  13.191   0.963
92196W        W64522  30.981  22.127  11.531
92197W        W64523  40.977  18.639  12.090
92198W        W64524   3.830  18.645   4.773
92199W        W64525   2.791  21.637  14.439
92200W        W64526  28.051  25.126   3.648
92201W        W64527  35.068  34.989   4.598
92202W        W64528  30.655  25.533  12.383
92203W        W64529  41.486  30.148   0.247
92204W        W64530   4.333  38.402  11.105
92205W        W64531  25.145  18.183   4.180
92206W        W64532  36.516  24.191   1.277
92207W        W64533   5.912   9.255  10.985
92208W        W64534  36.006  13.676  12.065
92209W        W64535  40.389  44.775  14.442
92210W        W64536   0.825  11.744   0.295
92211W        W64537  14.281  25.516  11.495
92212W        W64538   8.379  10.358   2.777
92213W        W64539  40.014  32.619   3.350
92214W        W64540  39.861  31.152   1.303
92215W        W64541   3.249  14.755   0.966
92216W        W64542   9.202   3.264  13.443
92217W        W64543  22.645  26.575   4.169
92218W        W64544   5.437  42.406  12.969
92219W        W64545  11.738  30.549   1.769
92220W        W64546  41.819   7.357   2.835
92221W        W64547  37.055  18.767  11.129
92222W        W64548   2.886  43.511   1.758
92223W        W64549  34.929   7.897  13.029
92224W        W64550  43.442  42.366  13.459
92225W        W64551  25.562   6.286   5.130
92226W        W64552   6.335   9.332   4.336
92227W        W64553  39.538  24.107   4.760
92228W        W64554  16.207   4.731  11.983
92229W        W64555   4.703  31.913   2.216
92230W        W64556   4.299  43.772  11.422
92231W        W64557  36.882  16.706  12.850
92232W        W64558  15.677  33.490  12.430
92233W        W64559  31.633  39.006   1.752
92234W        W64560  14.760  15.753   4.745
92235W        W64561  20.617   6.864   1.883
92236W        W64562  40.831  42.029  13.319
92237W        W64563  33.071  30.608  11.063
92238W        W64564  41.989   0.773  10.954
92239W        W64565   9.276  17.138   3.184
92240W        W64566  29.589   2.731  13.949
92241W        W64567  25.608   5.891  12.391
92242W        W64568  17.632   2.898  13.829
92243W        W64569  32.560  13.720  10.487
92244W        W64570  43.399  16.642   3.813
92245W        W64571   4.326  39.426   0.864
92246W        W64572  38.554   8.812  12.393
92247W        W64573  22.539   2.267   0.394
92248W        W64574  30.614   1.240  12.963
92249W        W64575  39.539  24.977   4.661
92250W        W64576  33.115  29.570   1.725
92251W        W64577   8.841  34.041  10.451
92252W        W64578  27.551  12.300  11.445
92253W        W64579  42.412  11.711   0.265
92254W        W64580  18.223  36.542  12.057
92255W        W64581  44.441   8.272   0.879
92256W        W64582  15.662   6.386  12.480
92257W        W64583  12.200   3.370  10.463
92258W        W64584  25.490  16.085   5.255
92259W        W64585  12.226   4.391   2.260
92260W        W64586  30.468  18.754  14.995
92261W        W64587  27.183  27.466  14.883
92262W        W64588  42.507   4.445  14.411
92263W        W64589  24.575   4.938  12.015
92264W        W64590  26.703   6.906   1.930
92265W        W64591   9.150  10.152  13.504
92266W        W64592  19.228   7.773  14.850
92267W        W64593   7.288  33.473  14.920
92268W        W64594   1.869  27.050   2.249
92269W        W64595  23.560   4.834   2.687
92270W        W64596  20.596  28.473   3.238
92271W        W64597   0.931  28.594   4.231
92272W        W64598  21.131  18.756  12.527
92273W        W64599   5.795  25.159   0.243
92274W        W64600  15.112  29.438  12.829
92275W        W64601  15.657  18.756  11.101
92276W        W64602  26.567  13.117   0.412
92277W        W64603  31.414   8.856  12.468
92278W        W64604  10.782  38.041  14.964
92279W        W64605  20.149  30.921  10.469
92280W        W64606   2.923  31.425   3.651
92281W        W64607  10.185  12.742  14.908
92282W        W64608   7.244  14.688  13.917
92283W        W64609  43.846  22.610  14.325
92284W        W64610  21.529  27.005   4.307
92285W        W64611  24.506  29.659   0.268
92286W        W64612  23.672  38.441   1.748
92287W        W64613   5.829  21.261   2.744
92288W        W64614  33.013  34.447   9.551
92289W        W64615  11.667   3.888  10.004
92290W        W64616   8.194  20.555   0.369
92291W        W64617  20.042  42.852   2.790
92292W        W64618  34.879   2.801   2.188
92293W        W64619   6.796  13.674   2.353
92294W        W64620  43.445  26.676  10.585
92295W        W64621   8.177   8.667   1.920
92296W        W64622  13.793  41.844   4.344
92297W        W64623  30.038  20.105   3.154
92298W        W64624  38.421  33.485   1.261
92299W        W64625  10.322  40.855  11.024
92300W        W64626  25.551   7.669  12.893
92301W        W64627  15.677  43.493  10.958
92302W        W64628  30.646  14.335   4.797
92303W        W64629  16.227   5.839  13.861
92304W        W64630  33.584  34.477  10.067
92305W        W64631  35.054  20.105  11.507
92306W        W64632  41.468  10.755   0.279
92307W        W64633  33.880   7.750   4.694
92308W        W64634  27.454  29.170   1.823
92309W        W64635  43.960   9.725   3.208
92310W        W64636  44.871   6.874   1.898
92311W        W64637  11.131   9.823  11.881
92312W        W64638  14.214   9.231  10.406
92313W        W64639  12.315  34.901  12.085
92314W        W64640  29.561  27.196   4.341
92315W        W64641  26.994   8.346   4.677
92316W        W64642  12.642  12.623  12.831
92317W        W64643  18.691  19.578   0.308
92318W        W64644  21.072  11.695   0.303
92319W        W64645  21.216  10.873   0.390
92320W        W64646  38.570  20.112   1.301
92321W        W64647  13.122  10.708   0.858
92322W        W64648  32.049   8.900  11.455
92323W        W64649   6.316  16.217  11.513
92324W        W64650  40.802   4.808   2.312
92325W        W64651  39.932  29.604   0.946
92326W        W64652  34.473  21.545   3.677
92327W        W64653   9.237   6.376  11.605
92328W        W64654  40.505  44.321   4.317
92329W        W64655  25.615  37.069   4.690
92330W        W64656   3.380  10.717   1.227
92331W        W64657  40.818  17.561   1.743
92332W        W64658   2.889  35.500  12.039
92333W        W64659   1.901  20.652  10.969
92334W        W64660  32.622  36.583  13.858
92335W        W64661   4.940  18.675   3.695
92336W        W64662  34.472  39.437  13.040
92337W        W64663  19.585  12.143   4.738
92338W        W64664   8.285  18.731  13.881
92339W        W64665  22.619  26.970   3.278
92340W        W64666   2.295   6.809   1.282
92341W        W64667  33.486  43.862  13.795
92342W        W64668  31.033   0.795   4.637
92343W        W64669  25.023   5.763   3.661
92344W        W64670  38.942  24.121  10.562
92345W        W64671  38.920  33.129   4.326
92346W        W64672  25.139  15.285   2.259
92347W        W64673  38.398  29.657   4.778
92348W        W64674   1.387  23.723  11.566
92349W        W64675   6.803  15.167  12.541
92350W        W64676  38.892  25.011  12.994
92351W        W64677  27.141  24.524  10.580
92352W        W64678  21.182  36.066  13.429
92353W        W64679  24.676  27.059   3.320
92354W        W64680  35.412  12.144   2.755
92355W        W64681  19.224  30.946  12.982
92356W        W64682  39.365  19.138  12.524
92357W        W64683   5.854   7.221   4.669
92358W        W64684  36.986   7.413   2.371
92359W        W64685  22.640  16.795   0.463
92360W        W64686  29.029  12.752  12.902
92361W        W64687   5.700  15.286  11.380
92362W        W64688  16.298  10.232  12.875
92363W        W64689  19.628   1.344   4.797
92364W        W64690  44.442  18.280  14.414
92365W        W64691   0.378  35.526   2.379
92366W        W64692   5.719  37.369  13.017
92367W        W64693  21.582  33.443  13.903
92368W        W64694  31.919  27.017  13.017
92369W        W64695  40.969  10.148   0.415
92370W        W64696  24.722  16.648  14.777
92371W        W64697  21.640  15.214   0.890
92372W        W64698  33.959  40.425  12.943
92373W        W64699  27.575  40.829   4.190
92374W        W64700  28.601  25.158  12.412
92375W        W64701  12.281  33.409  13.406
92376W        W64702   2.894  22.223  11.876
92377W        W64703  39.368  39.956  11.949
92378W        W64704  29.658  23.734  10.902
92379W        W64705  42.289  17.195   1.846
92380W        W64706  29.173  26.652  11.872
92381W        W64707  17.796   0.869   2.710
92382W        W64708  29.082  13.339  14.827
92383W        W64709   3.948  44.991  11.036
92384W        W64710  34.107  24.996  12.833
92385W        W64711  18.128  42.481   1.827
92386W        W64712  41.996  32.101   2.295
92387W        W64713  11.795  23.133  10.084
92388W        W64714  40.992  42.957  13.917
92389W        W64715  24.673   5.435   1.884
92390W        W64716  23.536   4.803  13.334
92391W        W64717  35.393  31.546  11.410
92392W        W64718  43.391  27.133  12.983
92393W        W64719  44.915  26.181  13.512
92394W        W64720  24.533  25.206   3.258
92395W        W64721  13.256   6.849  13.336
92396W        W64722   0.320  27.532   3.209
92397W        W64723  12.785  16.219  14.462
92398W        W64724  19.614  35.566   4.724
92399W        W64725  16.259  24.588   2.844
92400W        W64726  18.167  36.865  11.479
92401W        W64727   6.288  10.308   3.221
92402W        W64728  38.420  12.625  10.596
92403W        W64729  23.731  26.689  13.362
92404W        W64730  11.250   1.739   3.373
92405W        W64731   6.846  43.775  11.015
92406W        W64732   5.924   7.902  11.077
92407W        W64733  36.355   6.342   0.815
92408W        W64734  34.104  38.924   4.263
92409W        W64735  17.639  42.354  10.515
92410W        W64736  17.682  34.958  11.548
92411W        W64737  30.964  28.083   2.852
92412W        W64738  23.594   1.346   1.339
92413W        W64739  34.492  35.437   0.850
92414W        W64740   6.906  44.335  11.960
92415W        W64741  43.899  12.137   3.791
92416W        W64742  42.923   1.956  14.334
92417W        W64743  22.621  16.081  10.517
92418W        W64744  31.401  32.894   3.383
92419W        W64745   3.449  16.116   4.683
92420W        W64746  37.553   5.853  12.520
92421W        W64747  20.603  20.068  11.503
92422W        W64748  31.423  36.005  10.898
92423W        W64749  29.487  37.365   0.319
92424W        W64750  39.968   0.409  12.448
92425W        W64751  41.523   6.240   4.709
92426W        W64752  20.033  20.180   0.404
92427W        W64753  17.720  24.660  14.430
92428W        W64754  32.461  22.066   4.807
92429W        W64755   8.872  42.841  13.009
92430W        W64756  25.491  36.472  13.512
92431W        W64757   7.326  25.642  11.113
92432W        W64758   9.848  16.608   3.707
92433W        W64759  10.732  33.101  11.068
92434W        W64760  14.816  44.986  11.416
92435W        W64761   7.206   5.321  14.768
92436W        W64762  23.083  24.536  11.600
92437W        W64763   5.425  10.712   1.246
92438W        W64764  15.111  28.648   4.145
92439W        W64765   0.320  30.526   4.664
92440W        W64766  14.296   3.746   1.235
92441W        W64767   4.328   8.398  11.067
92442W        W64768  21.570  30.492  12.054
92443W        W64769  27.465  16.575  10.950
92444W        W64770   7.902  27.467   4.663
92445W        W64771  44.933  13.182  12.445
92446W        W64772  13.135  30.908   2.678
92447W        W64773  17.704  16.214  12.078
92448W        W64774   3.249  37.030   0.272
92449W        W64775  44.982  31.507   3.662
92450W        W64776   7.230   2.932   0.293
92451W        W64777  43.803  40.032  11.438
92452W        W64778  38.364  41.433   0.436
92453W        W64779  42.024  39.027   2.769
92454W        W64780   2.372   1.907   1.714
92455W        W64781  33.618   8.655   4.168
92456W        W64782  26.692  11.171  14.911
92457W        W64783  18.546  17.231   2.328
92458W        W64784  30.015  17.671   0.927
92459W        W64785  22.075  16.804   4.762
92460W        W64786   4.775  10.353   1.761
92461W        W64787  20.634  35.872  10.986
92462W        W64788  24.154  27.087  14.986
92463W        W64789  23.544  34.478  14.468
92464W        W64790  12.800  39.545  11.860
92465W        W64791  13.647  33.504  14.335
92466W        W64792   4.766  39.350   1.749
92467W        W64793  41.043  29.476  10.552
92468W        W64794  34.944  10.864  10.934
92469W        W64795  28.965  28.041   4.715
92470W        W64796   7.351  10.174  12.859
92471W        W64797  29.577  38.000   2.743
92472W        W64798  16.167  42.858  13.541
92473W        W64799  40.444  12.740   5.134
92474W        W64800  42.938  16.309  11.012
92475W        W64801  34.119  23.145   3.201
92476W        W64802  39.481  35.497   3.332
92477W        W64803  24.632   0.760  14.374
92478W        W64804  20.583  29.041   1.251
92479W        W64805  22.029  38.931   3.861
92480W        W64806   9.347   0.749  10.526
92481W        W64807   0.857  18.582   5.099
92482W        W64808  13.757   7.758  11.065
92483W        W64809  16.591  26.561   1.343
92484W        W64810  40.051  24.686  14.804
92485W        W64811   4.251  15.138  11.534
92486W        W64812  34.909  16.269   4.266
92487W        W64813   6.388  24.707   1.799
92488W        W64814  23.087  21.217   1.445
92489W        W64815  10.779   4.431   0.342
92490W        W64816  17.683  25.158   1.865
92491W        W64817  13.748  42.393   1.851
92492W        W64818  13.173  29.591   1.335
92493W        W64819   6.352  13.179  10.445
92494W        W64820  43.944  40.838  14.027
92495W        W64821   3.820  30.624  10.491
92496W        W64822  40.015  44.871   0.943
92497W        W64823  17.646  39.883  14.804
92498W        W64824   6.861  41.898   0.867
92499W        W64825  11.833  14.775  14.501
92500W        W64826  44.391   3.833  11.386
92501W        W64827  34.439  23.561   3.228
92502W        W64828  29.590  12.298  14.866
92503W        W64829  38.372  27.015  13.797
92504W        W64830  35.011   5.381   3.776
92505W        W64831  41.314  39.498   3.643
92506W        W64832  24.131   5.322  11.580
92507W        W64833  21.697  43.815   4.232
92508W        W64834  38.012  34.114   2.799
92509W        W64835   4.368  27.479  13.389
92510W        W64836  27.011  16.763  13.022
92511W        W64837  24.612  14.279   4.804
92512W        W64838   7.302  10.871   1.725
92513W        W64839  26.974   2.883   1.318
92514W        W64840  22.741   5.208   1.780
92515W        W64841  32.515  33.500  10.978
92516W        W64842  26.206  43.315   1.929
92517W        W64843  37.502  36.465  10.555
92518W        W64844  27.950   1.758   3.721
92519W        W64845  21.616  25.614  14.935
92520W        W64846  37.943   0.297   2.179
92521W        W64847  35.461  15.774  13.467
92522W        W64848   1.909  10.155   4.617
92523W        W64849  18.158   1.753   3.343
92524W        W64850  33.053  28.993  11.413
92525W        W64851  39.389  10.877   4.696
92526W        W64852   2.277  42.925  13.041
92527W        W64853   2.915   1.739   3.343
92528W        W64854   4.765   8.767   0.287
92529W        W64855  19.140   1.965   3.379
92530W        W64856  41.391  10.229   4.694
92531W        W64857  15.618  30.044  10.024
92532W        W64858   0.892  31.061   2.251
92533W        W64859  34.036  17.594   1.424
92534W        W64860  31.634  24.560   4.659
92535W        W64861  15.182   1.956   1.318
92536W        W64862  21.100  32.965   4.248
92537W        W64863  38.028   2.833  14.792
92538W        W64864   8.791   8.778  11.460
92539W        W64865  16.232  40.970   4.317
92540W        W64866   9.646  34.613  14.952
92541W        W64867   2.929  43.408  12.366
92542W        W64868  40.338   4.943  13.901
92543W        W64869   6.720   0.779   0.802
92544W        W64870  12.128   3.442   4.326
92545W        W64871  41.982   9.341  14.960
92546W        W64872  25.549  15.199  10.025
92547W        W64873   7.375  42.425  13.952
92548W        W64874  31.999  18.736  14.022
92549W        W64875  37.521   8.165   1.361
92550W        W64876  39.821  22.205  12.826
92551W        W64877  20.615  39.378  11.031
92552W        W64878   2.424   2.911  11.966
92553W        W64879  34.406  17.757   2.336
92554W        W64880  41.517  29.973  11.116
92555W        W64881   9.780  41.412  14.951
92556W        W64882  35.996  26.670  11.066
92557W        W64883  28.669  41.491   0.413
92558W        W64884   7.743   6.293  14.416
92559W        W64885  10.308  13.267  14.994
92560W        W64886  23.068  32.433   1.386
92561W        W64887   7.203  35.040  13.487
92562W        W64888  12.613  17.297   3.766
92563W        W64889   4.389   3.438   5.238
92564W        W64890  39.481   7.796  10.923
92565W        W64891  26.202  13.106  14.855
92566W        W64892   6.706  31.978   2.269
92567W        W64893  10.820  20.274  11.128
92568W        W64894  22.552  41.374  12.391
92569W        W64895  11.770  22.718  14.385
92570W        W64896   0.284  34.529   3.679
92571W        W64897  28.950   1.311   4.776
92572W        W64898  16.803  24.159  12.915
92573W        W64899  18.594  38.524  14.783
92574W        W64900  41.457  32.021  11.889
92575W        W64901   1.806  25.165  10.536
92576W        W64902  32.956  24.132  10.528
92577W        W64903  15.734  35.012  12.433
92578W        W64904  38.347  18.162   0.259
92579W        W64905  17.612  42.507  13.935
92580W        W64906  10.829  21.044  11.988
92581W        W64907  28.462  36.878  12.377
92582W        W64908  41.915  30.132  12.014
92583W        W64909  40.048  40.853   0.803
92584W        W64910   4.831  16.778   4.156
92585W        W64911  32.027   4.241  11.578
92586W        W64912  43.276  19.595   0.834
92587W        W64913  31.637  10.173  13.817
92588W        W64914  36.454   7.225  13.815
92589W        W64915  39.347  11.644   1.211
92590W        W64916   9.685  14.716   4.810
92591W        W64917  32.093  37.061   0.350
92592W        W64918  17.616  17.062  12.845
92593W        W64919  13.292  35.960  11.561
92594W        W64920  25.595  33.004   0.851
92595W        W64921  23.239  33.385  14.449
92596W        W64922  12.644  41.495  13.471
92597W        W64923  33.480  20.604  13.026
92598W        W64924   6.752  26.971  11.418
92599W        W64925   5.277  27.076   4.616
92600W        W64926  32.022   9.722  13.952
92601W        W64927  13.838  17.628   1.240
92602W        W64928  21.203  40.883   4.676
92603W        W64929  31.438  10.375   0.896
92604W        W64930  44.830  22.187   0.949
92605W        W64931  18.207  40.052  10.435
92606W        W64932  29.658   9.782   1.268
92607W        W64933  13.294  35.408  11.422
92608W        W64934  19.095  25.596  12.467
92609W        W64935  22.084  29.497   3.849
92610W        W64936  40.467  11.321   2.843
92611W        W64937  39.530  26.049   0.370
92612W        W64938  35.102  12.187   4.234
92613W        W64939  35.986  36.878  11.884
92614W        W64940  38.415  39.446  14.300
92615W        W64941  38.346  14.748   3.754
92616W        W64942   6.229  13.202   0.816
92617W        W64943  28.532  33.038   3.384
92618W        W64944  19.744  39.901   1.399
92619W        W64945  40.390  14.189  13.949
92620W        W64946  27.012  41.508  11.490
92621W        W64947  39.539  29.455   4.336
92622W        W64948  15.724   4.918   2.743
92623W        W64949  29.951  19.691   2.319
92624W        W64950  29.074  12.791  10.507
92625W        W64951  22.227  16.315   5.673
92626W        W64952  35.010  43.470  14.779
92627W        W64953   5.774  44.916   3.225
92628W        W64954  44.767  22.678  12.422
92629W        W64955  37.512  14.827  14.491
92630W        W64956  39.815  18.290  13.956
92631W        W64957  14.707   6.267  13.419
92632W        W64958   4.921   5.371   2.269
92633W        W64959  13.653  28.108   2.777
92634W        W64960   1.343  27.130   3.797
92635W        W64961  15.087  38.022  12.016
92636W        W64962  30.526  28.463   0.956
92637W        W64963  15.202  39.961   3.309
92638W        W64964  41.798   5.282  11.072
92639W        W64965   5.809  22.205   2.737
92640W        W64966  32.605  21.149  12.359
92641W        W64967  17.622  14.673   1.872
92642W        W64968  42.517  34.369   2.842
92643W        W64969   3.910  23.220  13.907
92644W        W64970   4.447  31.129  14.023
92645W        W64971  29.115   9.670  12.096
92646W        W64972   2.379   2.863  10.948
92647W        W64973  16.621  20.583   1.873
92648W        W64974  33.591   8.357  13.418
92649W        W64975   9.858  22.236   4.238
92650W        W64976  42.486  13.125   0.270
92651W        W64977  39.987  32.121  10.985
92652W        W64978   9.365   4.450   2.810
92653W        W64979  12.663  20.094   3.784
92654W        W64980   4.280   0.272   3.175
92655W        W64981  29.537  10.229   1.399
92656W        W64982  11.677  11.809   2.203
92657W        W64983   8.727  30.458   2.673
92658W        W64984   7.186  22.719  12.971
92659W        W64985   9.162  42.430  10.971
92660W        W64986  17.761  36.904   3.835
92661W        W64987  11.764  27.554   1.738
92662W        W64988  30.589  31.587   3.185
92663W        W64989  31.901  38.870   1.415
92664W        W64990  37.009  34.457   0.320
92665W        W64991   4.331  22.669  10.524
92666W        W64992  34.467  27.133  11.376
92667W        W64993  33.068  27.509   1.832
92668W        W64994  34.611  42.443   4.264
92669W        W64995  37.980   3.261  10.568
92670W        W64996  37.361  17.721   3.312
92671W        W64997  14.267  27.089  11.572
92672W        W64998  29.506  30.652   3.273
92673W        W64999  20.530  22.218  13.002
92674W        W65000  40.048  10.312  11.891
92675W        W65001  30.981  16.790  13.529
92676W        W65002   6.341  33.510   4.693
92677W        W65003  41.368  14.639  14.508
92678W        W65004  41.811  39.456  14.302
92679W        W65005   1.464  39.842   4.189
92680W        W65006   7.402  39.323   1.897
92681W        W65007  35.915  17.098  12.388
92682W        W65008  30.490  20.058  13.882
92683W        W65009  16.284  43.850  12.857
92684W        W65010  28.101  19.647   2.709
92685W        W65011  17.760  17.232  14.311
92686W        W65012   9.231   3.299   3.644
92687W        W65013  37.072   7.847  10.599
92688W        W65014  32.911  43.875  11.566
92689W        W65015   0.290   5.719  12.970
92690W        W65016  12.832  34.089  13.814
92691W        W65017  36.385  25.217  13.451
92692W        W65018  22.701  17.715  12.446
92693W        W65019   1.904  12.206  11.089
92694W        W65020  19.583  19.255  13.836
92695W        W65021  24.175  19.553  11.539
92696W        W65022  38.439  39.042   0.880
92697W        W65023  18.552   0.320   4.737
92698W        W65024  26.079   7.740   1.757
92699W        W65025   3.793  14.817   3.829
92700W        W65026  23.985  10.835   4.318
92701W        W65027   1.820   8.231   1.314
92702W        W65028  22.640  43.410  11.995
92703W        W65029  44.412  21.596   3.156
92704W        W65030  20.170   6.314   4.682
92705W        W65031  29.051  10.811  10.896
92706W        W65032  14.787  28.655  11.877
92707W        W65033  42.784  23.068  11.532
92708W        W65034  34.068  16.701   3.631
92709W        W65035  28.007  38.999  10.057
92710W        W65036  30.950  41.861  11.069
92711W        W65037  34.031  26.189   1.290
92712W        W65038  37.834   8.795   1.912
92713W        W65039  40.458  19.582   5.170
92714W        W65040  38.888  28.930   4.600
92715W        W65041  14.100  18.258  10.039
92716W        W65042   9.343   5.332   0.418
92717W        W65043  13.617   3.370   3.697
92718W        W65044  30.976  42.996   2.355
92719W        W65045   6.799  11.203   1.843
92720W        W65046  24.113  29.137   3.721
92721W        W65047   6.681  21.520   2.248
92722W        W65048   2.907  34.030   2.375
92723W        W65049  12.693  20.751  10.973
92724W        W65050  10.160  38.839  10.576
92725W        W65051   3.438   0.944  14.360
92726W        W65052   4.875  32.056  10.953
92727W        W65053  43.328  16.582   2.876
92728W        W65054  20.670  31.057   3.268
92729W        W65055   7.245  40.868   1.344
92730W        W65056  42.925  27.478  11.040
92731W        W65057  14.115  38.050  13.882
92732W        W65058  38.344  14.741   0.320
92733W        W65059  41.343  27.686  14.319
92734W        W65060  22.698   6.270  13.989
92735W        W65061  28.656  39.969   0.277
92736W        W65062  14.233  17.694   3.725
92737W        W65063  19.609  14.730  10.464
92738W        W65064  36.423  25.160   1.410
92739W        W65065  44.961  29.120  12.458
92740W        W65066  18.733  35.000   3.779
92741W        W65067   8.179  44.858   4.721
92742W        W65068  16.190   9.653   3.160
92743W        W65069  34.068  22.628   1.444
92744W        W65070  44.371   9.327   1.858
92745W        W65071  17.241  14.284  14.467
92746W        W65072  36.852  15.207  12.060
92747W        W65073  19.083   2.288  11.484
92748W        W65074  29.025  18.242  10.956
92749W        W65075   5.306  20.531  12.459
92750W        W65076  33.538  25.162  10.437
92751W        W65077  34.462  23.170   1.697
92752W        W65078   3.345   1.326  12.919
92753W        W65079  12.136  31.089  11.463
92754W        W65080  31.552  11.350   3.856
92755W        W65081  10.768   0.488  14.765
92756W        W65082  34.905   1.400  14.803
92757W        W65083  37.945   5.410   2.337
92758W        W65084  16.226  21.626   2.353
92759W        W65085  24.993  17.801  10.599
92760W        W65086  39.826  40.367   1.895
92761W        W65087  41.984  25.971  14.300
92762W        W65088  28.062  36.090  12.928
92763W        W65089  19.690  35.109   0.917
92764W        W65090  14.621  23.666   0.419
92765W        W65091   6.696   5.869   4.630
92766W        W65092  28.156  34.540  14.823
92767W        W65093  42.328  19.668   4.334
92768W        W65094   7.705  23.192   2.362
92769W        W65095  27.093  30.528  14.276
92770W        W65096  20.685  36.444  13.508
92771W        W65097  21.137  39.418  12.987
92772W        W65098  42.287  12.264   4.656
92773W        W65099  16.605  43.490  11.426
92774W        W65100  14.153  30.094   0.405
92775W        W65101  20.638   0.988   3.666
92776W        W65102  11.767  20.595  11.402
92777W        W65103  19.732  17.212  14.010
92778W        W65104  32.421  25.055   4.684
92779W        W65105  20.713  29.126  11.524
92780W        W65106  36.040  18.639   4.163
92781W        W65107  10.325  22.562   2.245
92782W        W65108  29.041  22.681   3.212
92783W        W65109   9.334  31.635  10.560
92784W        W65110  10.161  29.067  11.408
92785W        W65111  30.562   4.824   4.164
92786W        W65112   0.822   2.882  14.971
92787W        W65113  12.359  35.950   5.772
92788W        W65114  25.646  16.220  14.803
92789W        W65115  34.977  10.796   4.250
92790W        W65116  38.907  12.259  11.604
92791W        W65117  44.906  31.138   2.364
92792W        W65118  40.538  25.471   1.259
92793W        W65119   0.476  24.565   1.770
92794W        W65120  13.652  27.144   0.892
92795W        W65121  36.909  30.038   4.231
92796W        W65122  32.892  12.711  14.863
92797W        W65123  28.164  14.794  14.880
92798W        W65124  17.771  25.996  14.806
92799W        W65125  14.825  41.296  12.359
92800W        W65126  42.812  32.057   1.746
92801W        W65127   6.787  26.105  14.009
92802W        W65128  29.035  37.976   0.336
92803W        W65129  43.269  41.486  14.424
92804W        W65130  29.577  37.937  12.852
92805W        W65131   1.359  29.648   1.280
92806W        W65132  10.320   1.339   2.766
92807W        W65133  26.104  29.990   3.805
92808W        W65134  11.856  16.084   1.696
92809W        W65135  15.635  17.767  10.463
92810W        W65136  12.357   4.321  11.436
92811W        W65137  12.836   1.390  11.537
92812W        W65138  35.598   1.466  14.457
92813W        W65139  24.994  43.382   0.835
92814W        W65140  16.756   0.862  11.066
92815W        W65141  40.953  17.144  11.109
92816W        W65142  44.340  16.799   2.331
92817W        W65143   7.203   4.289   0.740
92818W        W65144   5.337  40.046   4.730
92819W        W65145  27.025  37.522  11.467
92820W        W65146  23.229  30.531   4.207
92821W        W65147  31.957  13.258   1.724
92822W        W65148  27.620  11.702  11.936
92823W        W65149  19.241  12.186   3.305
92824W        W65150  27.007  26.104  14.896
92825W        W65151  15.674  10.193  13.541
92826W        W65152  30.519  14.225  10.948
92827W        W65153  41.930   8.284  14.823
92828W        W65154  16.756  38.377  12.849
92829W        W65155  14.732   8.378  12.964
92830W        W65156   1.881  22.620   0.320
92831W        W65157  18.252  44.964   4.348
92832W        W65158   6.410  20.599  13.802
92833W        W65159  34.564  24.489  12.382
92834W        W65160  14.211   4.734   3.669
92835W        W65161  26.554   6.321   4.637
92836W        W65162   1.844  40.485  13.951
92837W        W65163   3.319  29.517   4.601
92838W        W65164  15.226  20.545  13.485
92839W        W65165  12.851   7.252   2.829
92840W        W65166  29.434  10.142  12.528
92841W        W65167  34.983  39.420   2.181
92842W        W65168  32.957  16.217   1.275
92843W        W65169   0.807   5.881  10.542
92844W        W65170  14.737  19.039  14.350
92845W        W65171  28.639  39.355  14.300
92846W        W65172  23.548   7.743  11.908
92847W        W65173  41.903   4.286  10.431
92848W        W65174  36.880  34.932   1.895
92849W        W65175  17.096  29.057   4.669
92850W        W65176  31.620  41.513   3.691
92851W        W65177  28.462  36.973  10.453
92852W        W65178  16.690  38.444   4.244
92853W        W65179  43.780   2.297  12.905
92854W        W65180  34.934  29.104  11.121
92855W        W65181  43.325   8.299   1.298
92856W        W65182  29.517  26.563   4.147
92857W        W65183  21.219   9.279   0.932
92858W        W65184  41.524  34.469  14.369
92859W        W65185   6.685  16.756   1.268
92860W        W65186  27.482   1.381  11.421
92861W        W65187  30.556  44.925   2.887
92862W        W65188  26.636   1.913   3.752
92863W        W65189  34.370  36.002   1.845
92864W        W65190  21.063   6.821  11.067
92865W        W65191  11.288  32.537  12.030
92866W        W65192  40.451  33.464   0.312
92867W        W65193  13.255   4.205  12.036
92868W        W65194  44.504  10.203   5.223
92869W        W65195  22.561  12.717  12.039
92870W        W65196  32.427  30.653  11.564
92871W        W65197  30.459  35.866   1.755
92872W        W65198   2.908  29.508   2.242
92873W        W65199  32.901  18.644  10.432
92874W        W65200   3.816  25.639   3.657
92875W        W65201  32.433   6.871  12.944
92876W        W65202  20.063  16.317  13.015
92877W        W65203  19.745   1.794  11.549
92878W        W65204  25.151  38.559  14.019
92879W        W65205   4.944  10.308   4.626
92880W        W65206  37.410  20.211  12.843
92881W        W65207   7.384  10.684   2.383
92882W        W65208   2.964  21.705  12.537
92883W        W65209  13.825  28.099   4.657
92884W        W65210  24.218  40.881   3.368
92885W        W65211   6.187  37.394   5.105
92886W        W65212  41.385  34.915  11.951
92887W        W65213   8.237   9.350  10.428
92888W        W65214  34.611  18.175  13.932
92889W        W65215  29.042  18.717   3.218
92890W        W65216  14.106   9.229  10.931
92891W        W65217  10.155   0.491  11.465
92892W        W65218  17.644  25.569  12.895
92893W        W65219   4.855   5.314  11.947
92894W        W65220  44.312  30.621   0.837
92895W        W65221  24.670  31.123  12.444
92896W        W65222  36.901  28.070  12.883
92897W        W65223  21.512  27.474   3.675
92898W        W65224   1.477  23.698   4.600
92899W        W65225   9.828  14.134  12.340
92900W        W65226  38.550  13.325   9.939
92901W        W65227  31.940   5.837   2.762
92902W        W65228  43.404  25.532  11.592
92903W        W65229  42.994  11.861  10.472
92904W        W65230  14.148  37.901   0.892
92905W        W65231  14.250   7.782   4.241
92906W        W65232  22.178  38.877  11.506
92907W        W65233   1.769  35.418   2.900
92908W        W65234  17.100  21.028   3.744
92909W        W65235  40.965   9.815  14.781
92910W        W65236  36.998  38.481  12.472
92911W        W65237  33.030  43.788  10.487
92912W        W65238  29.012  30.445  14.333
92913W        W65239  30.622   2.380   0.839
92914W        W65240   4.237   3.308  11.543
92915W        W65241   1.462  17.670   1.274
92916W        W65242  33.916  17.131   4.834
92917W        W65243  38.908  26.539   2.862
92918W        W65244  24.563  38.412  11.047
92919W        W65245  41.534  34.982   0.932
92920W        W65246  22.248  35.375  14.782
92921W        W65247  21.518  21.568   1.286
92922W        W65248  29.518  17.800  14.507
92923W        W65249  28.000  18.581   4.709
92924W        W65250  10.837  14.147   0.742
92925W        W65251  12.729  43.843   1.424
92926W        W65252  34.454  19.260  11.071
92927W        W65253  13.777  10.695   0.813
92928W        W65254  14.687  17.632  14.821
92929W        W65255  36.090   8.731   2.234
92930W        W65256  39.399  12.845  13.819
92931W        W65257  15.159   1.425  14.483
92932W        W65258   3.952  25.595   2.339
92933W        W65259  39.818  43.943  13.390
92934W        W65260  17.244   3.270   2.255
92935W        W65261   3.938  19.770  14.434
92936W        W65262  17.180  34.896  11.983
92937W        W65263  32.563  33.980  10.896
92938W        W65264   7.214  17.685   3.380
92939W        W65265   5.400  18.653   4.741
92940W        W65266  31.479   2.319  14.299
92941W        W65267  14.635   7.285   3.750
92942W        W65268  11.850   7.215  10.451
92943W        W65269  17.636  39.813   4.349
92944W        W65270  34.074  15.316  13.319
92945W        W65271   2.427  40.826  12.924
92946W        W65272  23.136  20.615  10.956
92947W        W65273  22.198  39.918   1.838
92948W        W65274  19.274   4.796  14.335
92949W        W65275   2.249  37.968  12.912
92950W        W65276   6.184  43.786  13.428
92951W        W65277   1.446   7.782  11.989
92952W        W65278  42.892  36.417  10.419
92953W        W65279  11.633  15.592   2.276
92954W        W65280  28.986  35.484  10.450
92955W        W65281   9.680   2.236  13.813
92956W        W65282  37.578  17.767  13.326
92957W        W65283   4.428   7.194  11.380
92958W        W65284  21.147  37.996   2.320
92959W        W65285  28.162  34.975   0.313
92960W        W65286  28.009  30.638  10.002
92961W        W65287  14.709  39.975   4.132
92962W        W65288  16.763  34.471  14.389
92963W        W65289   6.349  43.420  14.405
92964W        W65290  34.452  11.800  13.966
92965W        W65291  42.960   0.306   2.272
92966W        W65292  20.174   8.255   4.668
92967W        W65293  15.702  23.602  13.380
92968W        W65294  44.907  44.755  13.366
92969W        W65295  42.363  25.117   3.320
92970W        W65296  21.588  11.630  12.996
92971W        W65297   5.246  37.345   1.310
92972W        W65298   4.741  36.978  12.036
92973W        W65299  11.308  35.976  14.869
92974W        W65300   0.391  35.397  13.319
92975W        W65301  20.661  40.015  12.915
92976W        W65302  36.990  28.002  13.383
92977W        W65303  34.532  43.421   2.696
92978W        W65304   0.255   3.846  14.357
92979W        W65305  10.161  14.747   2.701
92980W        W65306   6.196  12.800   0.361
92981W        W65307  36.388  34.535   0.836
92982W        W65308  28.663  15.282   3.147
92983W        W65309   9.742   5.252  14.807
92984W        W65310  23.674  11.336  11.610
92985W        W65311  38.408  18.251  10.959
92986W        W65312   7.725  17.280  10.066
92987W        W65313  14.241  44.837   0.310
92988W        W65314  41.329   8.661  12.895
92989W        W65315  16.686   8.689  12.996
92990W        W65316   0.775   2.808   2.852
92991W        W65317   2.787  14.282   1.886
92992W        W65318  26.039  19.168  14.990
92993W        W65319  15.312  38.562  13.361
92994W        W65320  24.023   0.868   9.994
92995W        W65321   6.866  24.662  13.887
92996W        W65322   4.848  10.812   4.232
92997W        W65323  12.257  25.579   0.728
92998W        W65324  12.758  41.802   2.337
92999W        W65325  33.487  26.183  14.346
93000W        W65326  28.073   8.192   3.212
93001W        W65327  24.587  27.674   2.388
93002W        W65328  29.668  20.058  13.343
93003W        W65329  25.701  19.086  14.767
93004W        W65330  22.213  26.636   0.896
93005W        W65331   7.747  41.331  10.018
93006W        W65332  22.077   4.854  11.930
93007W        W65333  14.279  35.603  11.377
93008W        W65334  21.019  14.157  13.415
93009W        W65335  16.272   9.280  12.902
93010W        W65336  38.876   3.348   3.660
93011W        W65337  19.606  38.414  14.342
93012W        W65338  20.598  32.041  12.997
93013W        W65339  43.829  44.479   1.919
93014W        W65340  14.794  10.143   2.789
93015W        W65341  12.699  31.016  12.057
93016W        W65342   9.304  17.597   3.195
93017W        W65343  30.559  28.178   4.205
93018W        W65344  41.955  28.577  13.463
93019W        W65345  20.084  35.507  14.464
93020W        W65346  29.981  17.160   3.647
93021W        W65347  18.773  14.699  11.384
93022W        W65348  41.917  36.922  10.464
93023W        W65349   1.784   8.342   3.866
93024W        W65350  31.495   9.810  11.391
93025W        W65351  15.771  16.670   0.247
93026W        W65352  40.412  28.451  13.420
93027W        W65353  42.874  38.368  14.283
93028W        W65354  19.100  27.017   0.263
93029W        W65355  31.952  39.331  12.898
93030W        W65356  31.549  30.565  13.436
93031W        W65357   4.709  42.861   5.120
93032W        W65358  15.693  37.356   5.279
93033W        W65359  29.457  25.681  10.574
93034W        W65360  19.539  12.627   1.265
93035W        W65361  23.213  30.936  10.937
93036W        W65362  13.763   9.281   0.482
93037W        W65363  18.209  40.389  13.900
93038W        W65364  23.061  39.524   5.261
93039W        W65365  30.081  20.058   2.346
93040W        W65366   5.854  35.472  11.026
93041W        W65367  26.175  16.808  10.004
93042W        W65368  43.852   5.922  13.009
93043W        W65369  21.633  11.827   1.304
93044W        W65370  33.457  10.800  13.347
93045W        W65371  39.954  17.277   2.394
93046W        W65372  26.158  38.058   3.846
93047W        W65373  28.175  23.141   3.765
93048W        W65374  21.250  29.539  10.567
93049W        W65375  13.279  11.327  13.795
93050W        W65376  20.202  30.002  11.405
93051W        W65377  40.437  12.232   0.263
93052W        W65378  39.012  19.779  11.919
93053W        W65379  19.220  12.170  11.029
93054W        W65380  30.999  14.332   0.450
93055W        W65381  36.414   2.435  14.924
93056W        W65382  43.468   0.383  12.903
93057W        W65383  41.350  24.619   0.775
93058W        W65384  31.110  40.377   1.399
93059W        W65385  44.445  27.005  14.513
93060W        W65386  32.066   1.767  13.350
93061W        W65387  35.532  12.224   0.447
93062W        W65388  29.923  28.670  11.039
93063W        W65389  36.515  15.718  10.552
93064W        W65390  22.203   7.319  10.405
93065W        W65391  21.748  37.048   9.927
93066W        W65392  35.036  30.630   5.188
93067W        W65393  26.667  23.661  14.372
93068W        W65394  31.568  42.373   1.284
93069W        W65395  36.580  23.550  11.407
93070W        W65396  36.445   1.942   4.143
93071W        W65397  37.474  34.521  14.356
93072W        W65398  20.587   9.871   2.264
93073W        W65399  13.660  28.531  12.875
93074W        W65400   8.775   6.354  14.459
93075W        W65401  26.696  41.980  14.292
93076W        W65402  30.420  23.616  10.461
93077W        W65403   9.784  24.992   5.192
93078W        W65404  39.424  38.546   1.222
93079W        W65405  31.136  44.416   2.271
93080W        W65406  17.591   7.715  14.954
93081W        W65407  14.179   2.402   3.275
93082W        W65408  25.675   8.219  13.056
93083W        W65409  16.118  20.180   4.806
93084W        W65410  35.936  17.131   1.375
93085W        W65411  37.408   3.367   0.794
93086W        W65412   5.366  18.109   1.362
93087W        W65413  31.957   4.397  12.872
93088W        W65414   0.355  39.551   1.308
93089W        W65415  16.155  24.705   1.770
93090W        W65416  38.553  21.160  12.395
93091W        W65417  38.035  12.615   0.395
93092W        W65418  29.641  29.024   2.833
93093W        W65419  18.649  28.511  10.637
93094W        W65420  40.472  38.517  11.611
93095W        W65421  12.612  43.318   0.272
93096W        W65422  31.515  27.492   0.906
93097W        W65423   3.877  14.620  11.897
93098W        W65424  37.342   0.872  14.446
93099W        W65425   3.849  32.042   1.854
93100W        W65426  41.898  11.299   4.274
93101W        W65427  27.997   0.461   3.352
93102W        W65428  21.022  22.668   1.885
93103W        W65429   8.708  19.725   5.124
93104W        W65430  26.124  11.280  10.557
93105W        W65431  19.282  33.127   4.292
93106W        W65432  24.217   9.866   2.292
93107W        W65433  40.916  43.990  11.017
93108W        W65434  13.250  19.561   1.219
93109W        W65435   9.221  44.278   3.236
93110W        W65436   1.308  12.144   5.791
93111W        W65437   6.316  44.837  10.624
93112W        W65438  37.859  10.682   0.472
93113W        W65439  32.555  32.054   4.324
93114W        W65440  14.755  36.083  10.899
93115W        W65441  40.533  17.171  12.849
93116W        W65442  42.474  19.045   2.229
93117W        W65443  25.174  22.602   4.211
93118W        W65444  32.023  18.607   3.639
93119W        W65445  42.926  44.996   1.742
93120W        W65446   1.255  27.142  11.011
93121W        W65447  34.088  18.141   4.670
93122W        W65448  11.742  42.421  10.589
93123W        W65449  44.798  28.472  11.415
93124W        W65450  33.944  35.100   0.961
93125W        W65451  36.564   9.694  12.358
93126W        W65452  35.895  43.935  13.505
93127W        W65453  33.084  12.736  13.317
93128W        W65454  44.439  44.478   2.207
93129W        W65455  35.889  42.338   2.725
93130W        W65456  39.875  25.998   2.183
93131W        W65457  32.423  26.547  10.508
93132W        W65458   6.868  13.293   4.283
93133W        W65459  41.803   4.273  12.874
93134W        W65460  14.150  22.568   0.776
93135W        W65461  30.145  31.051   3.699
93136W        W65462  31.921  31.090   4.201
93137W        W65463  15.657  23.694   4.130
93138W        W65464  35.459  25.551   0.795
93139W        W65465  41.904   3.899   1.232
93140W        W65466  35.446   0.812  11.465
93141W        W65467   3.258  37.003   1.713
93142W        W65468  27.495   7.896   2.722
93143W        W65469  37.964  21.549   3.829
93144W        W65470   8.677  33.565   2.778
93145W        W65471  20.252  30.470  10.603
93146W        W65472  33.609  38.051   4.836
93147W        W65473  22.705   7.241   4.668
93148W        W65474   6.897  31.904   4.768
93149W        W65475  32.908   5.760  14.890
93150W        W65476  33.515  38.394   3.246
93151W        W65477  44.469  41.977   3.698
93152W        W65478   5.716  38.037   4.725
93153W        W65479  23.516  34.387  13.888
93154W        W65480   2.457  30.557  14.348
93155W        W65481  43.381  42.900   2.292
93156W        W65482  12.130   9.717  10.452
93157W        W65483  16.076  26.583  14.314
93158W        W65484   8.882  16.136  13.529
93159W        W65485  25.676  27.492  14.762
93160W        W65486  26.989  27.614   2.214
93161W        W65487  43.313  41.531  10.064
93162W        W65488  41.346   4.303  14.900
93163W        W65489   3.796  36.446  10.917
93164W        W65490  20.532  14.277   1.229
93165W        W65491  10.301  20.561  13.911
93166W        W65492  41.481  37.473   4.733
93167W        W65493  10.633  33.058   1.732
93168W        W65494  43.877  32.487  14.496
93169W        W65495  12.716  11.365  10.906
93170W        W65496  24.725   0.455   1.382
93171W        W65497  23.197  16.786   4.796
93172W        W65498   8.729  18.243  14.353
93173W        W65499  35.035   4.225  12.531
93174W        W65500  23.085   9.757   2.227
93175W        W65501   9.757  24.561  12.455
93176W        W65502  44.942  28.113   0.454
93177W        W65503  21.253  37.949  10.439
93178W        W65504  33.515  33.940  14.872
93179W        W65505  22.506  20.116   2.853
93180W        W65506   1.427   9.248  10.900
93181W        W65507  43.914   6.724  11.611
93182W        W65508  21.257  29.558  13.993
93183W        W65509  35.864   5.866  14.954
93184W        W65510  21.117   6.876   4.644
93185W        W65511   3.426   8.358  11.593
93186W        W65512  35.594  40.403  12.906
93187W        W65513   3.333  30.094  11.870
93188W        W65514  28.965  10.876   0.410
93189W        W65515   0.745  13.333   2.404
93190W        W65516  43.842  32.596  10.487
93191W        W65517  43.842  13.245   4.698
93192W        W65518   4.710  26.034  12.072
93193W        W65519  11.342  16.576  13.327
93194W        W65520  19.166   8.262   0.891
93195W        W65521  19.138  14.638   0.768
93196W        W65522  23.109  19.707  12.872
93197W        W65523  22.719  33.406  13.796
93198W        W65524   3.932  31.928  11.876
93199W        W65525  25.618  36.450  11.408
93200W        W65526  26.566   7.375  13.512
93201W        W65527  43.398  13.729  13.420
93202W        W65528  20.587  16.291   3.238
93203W        W65529  17.710  20.754  14.871
93204W        W65530  26.694   6.869  10.501
93205W        W65531  30.590  44.503  10.888
93206W        W65532   3.321  18.565   0.880
93207W        W65533  32.609   5.742   2.357
93208W        W65534  36.476  35.023  12.033
93209W        W65535  21.711  13.136  12.519
93210W        W65536  10.835  18.592   1.400
93211W        W65537  36.910  43.996  12.452
93212W        W65538  25.541  20.703   0.463
93213W        W65539  31.586  44.325   1.756
93214W        W65540  24.533  21.052   4.186
93215W        W65541  32.124  22.061   2.736
93216W        W65542  44.822  26.551   0.824
93217W        W65543  32.459   5.309  14.023
93218W        W65544  19.602  20.629  13.793
93219W        W65545  25.025   6.807   0.326
93220W        W65546  20.648  30.952  10.586
93221W        W65547  40.815  43.481  14.887
93222W        W65548  24.014  43.004  14.869
93223W        W65549  22.025  15.162  10.979
93224W        W65550   2.327  24.222   2.377
93225W        W65551   9.379   2.808   0.924
93226W        W65552  17.102  21.545   2.405
93227W        W65553  40.809  33.524  11.573
93228W        W65554   9.824  17.090  12.067
93229W        W65555   0.329   9.648  14.342
93230W        W65556  13.609   6.231   1.297
93231W        W65557  40.023   2.842   3.801
93232W        W65558  18.213  39.864  14.425
93233W        W65559  17.095  27.014   4.158
93234W        W65560  28.545   2.860  12.344
93235W        W65561  40.868   2.261   3.752
93236W        W65562  34.055   9.340   3.256
93237W        W65563  30.587  31.030   4.679
93238W        W65564  40.440  23.684   4.138
93239W        W65565  18.118  44.368  14.965
93240W        W65566   6.813  34.987   1.833
93241W        W65567  18.241  43.018   3.358
93242W        W65568  31.513  25.551  13.855
93243W        W65569  23.027  43.363   0.406
93244W        W65570  24.987   1.299   4.778
93245W        W65571  22.251   0.376   3.155
93246W        W65572  11.159   6.255  12.540
93247W        W65573  16.702  31.148  14.768
93248W        W65574  28.588  16.164  13.888
93249W        W65575   0.278  37.016  11.944
93250W        W65576  36.032  38.849  10.533
93251W        W65577  30.483  25.684   1.926
93252W        W65578  21.701  14.623  14.278
93253W        W65579  43.841   0.977  14.341
93254W        W65580  24.168  10.157  11.049
93255W        W65581  25.667  39.315  11.608
93256W        W65582  43.301  24.163  11.429
93257W        W65583  23.684  28.479  13.060
93258W        W65584  20.595  32.907  11.520
93259W        W65585   1.289   0.475  11.879
93260W        W65586  29.978  13.204   0.288
93261W        W65587  16.162   9.795  14.935
93262W        W65588  25.643  15.752   0.483
93263W        W65589   8.193   3.261   0.908
93264W        W65590  17.089  20.660   4.164
93265W        W65591  30.606   8.789  14.340
93266W        W65592   6.886  33.553  11.908
93267W        W65593  27.947  12.343   3.690
93268W        W65594   1.386   2.795   3.369
93269W        W65595   0.384   5.860  14.767
93270W        W65596  17.648  43.867   1.289
93271W        W65597  42.895   8.705  12.545
93272W        W65598  27.128   5.242  10.467
93273W        W65599  43.488  12.644  12.901
93274W        W65600   2.934  36.968   1.446
93275W        W65601  27.561  14.156  12.943
93276W        W65602   9.693  28.635  13.541
93277W        W65603  37.476  30.991  10.501
93278W        W65604  23.577   8.717   4.249
93279W        W65605   3.450   6.213  11.001
93280W        W65606   2.437  38.543  14.999
93281W        W65607  34.573  29.963  12.490
93282W        W65608  23.234  43.298  14.008
93283W        W65609  31.943  15.713   1.780
93284W        W65610  44.928  41.827  14.767
93285W        W65611   0.268  14.700   3.786
93286W        W65612  28.952  39.494   1.396
93287W        W65613  15.151  10.784   0.315
93288W        W65614  13.799   7.398   1.715
93289W        W65615  14.704  28.488   1.862
93290W        W65616   9.215  34.461   2.306
93291W        W65617  18.240  10.752   0.461
93292W        W65618   7.870  13.708   1.782
93293W        W65619  33.455  15.139  12.912
93294W        W65620   5.702  32.597  13.883
93295W        W65621  32.985   6.690   2.327
93296W        W65622  26.143  37.512   3.814
93297W        W65623  32.575  28.545  11.993
93298W        W65624  13.184  18.585   0.322
93299W        W65625  37.961   0.875   1.746
93300W        W65626  15.779   8.229  10.418
93301W        W65627  39.431  14.699   0.320
93302W        W65628  23.238  15.322   5.319
93303W        W65629   0.319  19.740  10.912
93304W        W65630  12.235  27.454   1.384
93305W        W65631  37.076   7.763  11.407
93306W        W65632  29.027  41.788   3.147
93307W        W65633   3.400  23.534  11.469
93308W        W65634  30.567  28.176   0.325
93309W        W65635  26.618  13.618   3.347
93310W        W65636  27.547  39.872   3.333
93311W        W65637  27.946  25.581  14.426
93312W        W65638  34.432  12.633  14.367
93313W        W65639  34.868  18.585   4.212
93314W        W65640  39.060  44.863   4.687
93315W        W65641  38.856  12.720   0.963
93316W        W65642  34.942  39.866  10.544
93317W        W65643  14.770  35.530   0.909
93318W        W65644  14.629  30.557   0.371
93319W        W65645  23.640  36.430  14.913
93320W        W65646   2.892  17.152  13.867
93321W        W65647  20.229  31.472   3.783
93322W        W65648  29.118   5.857  14.368
93323W        W65649  23.689   0.951   2.840
93324W        W65650  43.428  14.695  13.487
93325W        W65651  21.154  27.972   0.739
93326W        W65652  16.779  39.439   0.346
93327W        W65653  44.968  18.277  13.429
93328W        W65654  23.634  14.715  13.920
93329W        W65655  16.692   2.410  12.059
93330W        W65656  30.981   2.870  11.910
93331W        W65657  44.356  43.806   2.798
93332W        W65658  33.968  21.199  12.425
93333W        W65659  16.227  19.697   4.650
93334W        W65660   3.347  23.223   1.701
93335W        W65661  36.003  13.663  14.782
93336W        W65662  28.585  19.171   3.267
93337W        W65663   2.789  14.132   4.837
93338W        W65664   7.209  16.158   2.772
93339W        W65665  34.900  32.441   1.855
93340W        W65666  15.684   9.728  14.911
93341W        W65667  24.478  21.250  12.022
93342W        W65668  25.574  12.659  13.418
93343W        W65669  26.602   1.402  13.840
93344W        W65670  14.695  31.052   1.397
93345W        W65671  13.252  28.929  10.475
93346W        W65672   7.788  27.942   0.745
93347W        W65673   0.945  21.030  14.437
93348W        W65674  33.066  24.494   3.285
93349W        W65675   0.276  25.060   3.334
93350W        W65676  20.232   7.394  10.408
93351W        W65677  37.503  10.872   0.464
93352W        W65678  33.503  27.595  13.961
93353W        W65679  26.071  18.195   4.116
93354W        W65680  29.456   1.478  14.810
93355W        W65681  24.004  31.953  12.492
93356W        W65682  26.046  23.049   2.851
93357W        W65683  43.328   6.293   0.322
93358W        W65684  41.395   8.302   1.356
93359W        W65685   3.340   5.737   2.319
93360W        W65686  18.172   0.267  10.912
93361W        W65687   2.944  34.482   4.599
93362W        W65688   6.726  13.654  11.609
93363W        W65689  44.285  29.512  14.817
93364W        W65690  32.584  39.063  12.862
93365W        W65691   3.363  17.796  12.843
93366W        W65692  40.546  21.698  13.370
93367W        W65693   3.378  21.180  11.569
93368W        W65694  12.687  32.631  11.970
93369W        W65695  31.963  15.154   0.824
93370W        W65696  17.081  34.955   0.880
93371W        W65697  40.486   2.866   4.212
93372W        W65698  24.173   6.226   1.255
93373W        W65699  26.552  42.457   2.316
93374W        W65700  39.392  14.767  13.973
93375W        W65701   2.834  29.492   1.230
93376W        W65702  38.337   8.697  13.932
93377W        W65703  38.839   8.686   4.119
93378W        W65704  39.952  39.982  13.881
93379W        W65705  42.950  36.860  10.975
93380W        W65706  43.478  39.526  10.438
93381W        W65707  37.934  13.845   4.264
93382W        W65708  23.039   5.430  14.004
93383W        W65709  44.797   4.329  13.414
93384W        W65710   7.858  26.461   4.194
93385W        W65711  29.520  28.001   3.293
93386W        W65712  15.736  30.572  14.359
93387W        W65713  33.974  11.682   1.919
93388W        W65714  25.086  22.555   1.797
93389W        W65715  34.927   7.701   3.808
93390W        W65716  32.892   9.854  14.344
93391W        W65717  24.135  11.340   1.763
93392W        W65718   9.698  13.747   4.114
93393W        W65719  43.459  24.178   2.821
93394W        W65720  15.821  25.109  13.840
93395W        W65721  28.656  17.124   0.888
93396W        W65722  36.025   5.889   0.887
93397W        W65723  40.358  22.634  13.896
93398W        W65724   7.290  31.589   0.788
93399W        W65725  23.215  38.916   3.174
93400W        W65726  30.568  39.001  10.591
93401W        W65727   0.810  10.331  13.840
93402W        W65728   8.292  10.383  12.915
93403W        W65729  25.175  26.173   4.789
93404W        W65730   1.411  25.709  10.908
93405W        W65731   2.937  20.732  12.470
93406W        W65732  42.787   4.378   2.244
93407W        W65733  25.159  19.600  10.448
93408W        W65734  36.513  39.859  12.341
93409W        W65735  35.505  11.795   0.742
93410W        W65736  35.024  31.621   2.375
93411W        W65737  24.143  26.461   0.840
93412W        W65738   1.360   8.172   3.279
93413W        W65739  44.410   7.803  11.109
93414W        W65740  30.045   2.865  11.442
93415W        W65741  39.495  16.125   0.805
93416W        W65742   8.272   2.878  12.017
93417W        W65743  40.856  31.532   0.919
93418W        W65744  11.343   3.726  14.005
93419W        W65745  11.269  11.302   0.832
93420W        W65746  34.985   8.802   4.274
93421W        W65747  14.744  10.149   1.890
93422W        W65748  21.744  40.995   0.295
93423W        W65749  18.608   9.738  14.476
93424W        W65750   5.734  38.399   3.169
93425W        W65751   5.808  29.503   4.792
93426W        W65752   7.348  14.723   4.670
93427W        W65753  25.590  12.219  11.380
93428W        W65754  11.668  18.189  10.905
93429W        W65755  36.036  13.167   4.838
93430W        W65756  42.307  41.023  12.573
93431W        W65757   5.703  12.353   3.317
93432W        W65758  19.666  15.739  12.438
93433W        W65759  18.246  27.688  14.356
93434W        W65760  16.213   4.929  14.427
93435W        W65761  40.871  37.467  13.361
93436W        W65762  41.335   2.273  10.417
93437W        W65763  20.105  34.930  11.053
93438W        W65764  12.200  25.657  13.362
93439W        W65765  31.964  28.606  12.031
93440W        W65766  14.104  21.262  12.865
93441W        W65767  25.086  25.633  11.500
93442W        W65768   1.255  43.322   4.640
93443W        W65769   1.731  44.862  12.527
93444W        W65770  40.997  26.567  10.922
93445W        W65771   3.432  22.540   5.136
93446W        W65772  16.751   4.888  13.981
93447W        W65773  10.779   4.902  12.390
93448W        W65774  27.659  10.336   1.809
93449W        W65775   1.437  17.785   3.703
93450W        W65776  38.034   4.433   1.449
93451W        W65777  14.803  15.603   3.212
93452W        W65778  25.053  37.077   4.740
93453W        W65779  42.829  25.701   0.899
93454W        W65780  23.049  26.170   1.357
93455W        W65781  37.850  17.077  10.000
93456W        W65782  37.371  13.636  12.538
93457W        W65783  14.645  26.164   5.727
93458W        W65784   9.688  11.309  10.594
93459W        W65785  44.371  25.102  14.426
93460W        W65786  30.955  26.133  11.093
93461W        W65787   5.240   9.834   0.285
93462W        W65788   0.768  21.041   3.146
93463W        W65789  26.158  18.256  14.315
93464W        W65790   9.231  25.964  10.423
93465W        W65791  31.975  24.642   2.701
93466W        W65792  30.467  29.966   0.365
93467W        W65793  28.941  14.221  14.375
93468W        W65794   8.753  41.022  11.003
93469W        W65795   7.356   3.255   4.309
93470W        W65796  34.545   6.801  11.034
93471W        W65797   4.870  26.609   2.846
93472W        W65798  29.004  23.107   3.386
93473W        W65799  33.909   6.848   0.831
93474W        W65800  28.990   7.836   1.439
93475W        W65801  23.037  35.888   3.177
93476W        W65802  23.622   9.172  11.588
93477W        W65803  20.585   7.247   3.311
93478W        W65804  25.055  23.050  12.523
93479W        W65805  41.927  14.113  11.601
93480W        W65806  22.680   5.721   2.838
93481W        W65807  26.001  36.946  13.859
93482W        W65808   4.241  28.601  11.063
93483W        W65809   6.423  37.493   0.466
93484W        W65810  15.299   3.301  12.023
93485W        W65811  41.435  39.002  12.401
93486W        W65812  13.315  14.637   2.304
93487W        W65813  44.924  10.754   3.273
93488W        W65814  19.112  25.117  12.391
93489W        W65815  18.192  34.415  10.611
93490W        W65816   2.954  39.991  14.507
93491W        W65817  22.107   8.772   0.244
93492W        W65818   2.879  39.512   2.837
93493W        W65819  30.599  26.166  12.892
93494W        W65820  13.231  15.142  10.582
93495W        W65821  17.578   4.396  10.532
93496W        W65822  35.468  21.640   0.292
93497W        W65823  27.081  26.664  12.481
93498W        W65824  13.608   6.809  13.478
93499W        W65825  24.193   0.432   4.684
93500W        W65826   8.671  11.315   2.326
93501W        W65827  25.509   9.866  14.969
93502W        W65828  41.873  26.469   0.415
93503W        W65829  38.424  14.590   4.766
93504W        W65830  12.299   7.791   1.347
93505W        W65831   6.310  29.465   2.725
93506W        W65832  32.934  21.118  13.482
93507W        W65833  16.225  13.688   0.406
93508W        W65834  41.980   7.853   4.182
93509W        W65835  24.678  36.465   2.180
93510W        W65836  24.095  10.330  11.928
93511W        W65837  37.978  17.161  14.364
93512W        W65838  44.975  21.633   3.336
93513W        W65839  37.059  36.035   4.230
93514W        W65840  10.281  10.179   4.655
93515W        W65841  17.169  21.653   3.786
93516W        W65842  16.176  25.057  14.436
93517W        W65843   9.168   3.769  13.519
93518W        W65844  22.532   0.394  10.541
93519W        W65845  23.128  12.811   0.459
93520W        W65846  28.042  21.673   4.198
93521W        W65847   0.475  35.027   2.681
93522W        W65848   2.279   4.813   0.260
93523W        W65849  38.984  20.675   1.801
93524W        W65850  38.003  23.614  12.906
93525W        W65851  13.683  16.261  14.883
93526W        W65852  37.378  20.214   1.915
93527W        W65853  37.435  37.517  14.338
93528W        W65854   7.716  14.771   2.707
93529W        W65855  13.177  37.563   3.779
93530W        W65856  41.315  21.139  12.547
93531W        W65857  23.068  32.932   2.694
93532W        W65858  43.862  22.221   3.289
93533W        W65859  29.997  40.311  12.463
93534W        W65860  37.892   2.251   1.716
93535W        W65861  19.644  40.858   1.323
93536W        W65862  15.102  36.972   1.395
93537W        W65863  30.418  29.451  11.074
93538W        W65864  25.084   6.315   1.862
93539W        W65865  14.258  37.995  10.517
93540W        W65866  13.764  42.437  14.437
93541W        W65867  36.055  22.011   4.192
93542W        W65868  17.072  24.605   0.343
93543W        W65869  15.260   3.316  13.496
93544W        W65870   4.253  20.636   4.796
93545W        W65871  36.009  13.263  13.825
93546W        W65872  16.202  37.350   3.669
93547W        W65873  37.557  21.202  14.789
93548W        W65874  35.996  42.338  10.527
93549W        W65875  15.703  22.697  14.359
93550W        W65876  35.431  32.458   1.393
93551W        W65877  26.480   0.951   3.285
93552W        W65878   1.398  16.237  12.833
93553W        W65879  31.100  13.657   3.765
93554W        W65880  25.513  12.793   9.953
93555W        W65881  34.370  33.025   0.743
93556W        W65882   6.327  24.092  12.979
93557W        W65883  11.345   7.879  12.437
93558W        W65884  33.969  27.480   1.309
93559W        W65885  24.123  24.478  12.377
93560W        W65886   3.865  36.041   2.863
93561W        W65887   7.872   2.237  10.891
93562W        W65888  27.020  26.171   4.209
93563W        W65889  10.182  11.665   3.726
93564W        W65890  12.170  41.961  13.393
93565W        W65891  16.715   2.275   2.832
93566W        W65892  24.643  40.442  13.323
93567W        W65893  24.008  34.922  14.507
93568W        W65894  36.412  14.138  10.041
93569W        W65895  18.622  24.225   1.386
93570W        W65896  16.694  13.162   0.480
93571W        W65897  25.521   0.437  11.584
93572W        W65898  25.513  17.205   9.633
93573W        W65899  21.218  24.212  14.367
93574W        W65900  28.147  13.812   2.753
93575W        W65901  18.578  15.278   1.818
93576W        W65902  10.780  38.826   0.812
93577W        W65903  16.586   6.727  13.847
93578W        W65904   2.295  22.698   2.261
93579W        W65905  40.967  20.048  11.025
93580W        W65906  32.439  22.186  11.027
93581W        W65907  39.824  29.091  13.800
93582W        W65908  32.000  39.404  11.120
93583W        W65909  16.145  15.187   1.396
93584W        W65910  31.122  18.276  13.936
93585W        W65911  34.475   2.867  13.912
93586W        W65912   1.857  40.315  12.391
93587W        W65913  23.090   7.904  14.766
93588W        W65914  15.636  33.104  10.068
93589W        W65915  21.030  40.901   3.377
93590W        W65916  32.419  15.195  13.962
93591W        W65917  15.667  25.126  13.309
93592W        W65918  35.446  11.768   5.594
93593W        W65919   7.890  32.080   4.722
93594W        W65920  19.746  26.491  11.882
93595W        W65921   8.282  34.448   1.874
93596W        W65922  32.057  38.338   1.893
93597W        W65923  27.647  16.236   2.237
93598W        W65924  14.763   0.750  14.026
93599W        W65925  26.120   6.191   3.379
93600W        W65926  13.765  26.953  13.389
93601W        W65927  17.778  17.275   9.941
93602W        W65928   8.846   4.348  11.472
93603W        W65929  20.241  44.275  14.933
93604W        W65930   7.713  18.112   1.398
93605W        W65931  22.639   2.793   4.629
93606W        W65932  19.672  18.188  10.532
93607W        W65933  19.041   5.388   3.838
93608W        W65934  36.409  15.667  13.350
93609W        W65935  32.997  27.675  10.954
93610W        W65936  22.672  32.041  14.011
93611W        W65937  30.971   6.403  11.006
93612W        W65938  27.990  38.872   0.926
93613W        W65939  28.502  25.084  11.049
93614W        W65940  15.134  14.311   0.436
93615W        W65941   9.214  30.517   4.249
93616W        W65942  25.549  26.174   0.396
93617W        W65943  13.773  25.665  11.990
93618W        W65944  17.757   3.273  14.867
93619W        W65945  26.981  43.344   2.855
93620W        W65946  15.776   5.720   2.292
93621W        W65947  20.045  26.000   1.360
93622W        W65948  14.314  23.705  10.612
93623W        W65949  26.054  34.989   1.759
93624W        W65950  20.206  17.114  10.425
93625W        W65951   5.716  39.975  12.507
93626W        W65952   6.687  23.602   4.207
93627W        W65953  43.969   1.919   1.897
93628W        W65954  24.646   8.231   2.706
93629W        W65955  21.080  27.572   4.337
93630W        W65956  44.825   5.844  12.411
93631W        W65957  14.642  24.197   2.218
93632W        W65958  33.930  36.094   4.344
93633W        W65959  35.014  24.514   3.647
93634W        W65960   4.434  42.865   0.456
93635W        W65961  14.267  44.943   0.742
93636W        W65962  20.533  33.531  14.441
93637W        W65963  34.410   4.276   2.789
93638W        W65964  28.648   4.329  11.555
93639W        W65965   0.442  26.536  13.031
93640W        W65966  12.161  33.613   4.184
93641W        W65967  17.202   3.432   1.720
93642W        W65968  42.968  12.265  14.398
93643W        W65969   8.812  37.900   4.333
93644W        W65970  12.762  22.727  11.884
93645W        W65971  33.046  44.925  12.870
93646W        W65972  33.481  11.305   2.795
93647W        W65973  37.066  40.956  11.930
93648W        W65974  21.639  36.886   1.911
93649W        W65975  26.674   7.291  14.483
93650W        W65976   4.912  42.955   3.858
93651W        W65977  35.484  40.821  12.517
93652W        W65978   4.935  21.074   4.217
93653W        W65979   6.719  33.881   0.901
93654W        W65980  24.670   8.679  11.979
93655W        W65981  13.706  35.900   4.346
93656W        W65982  16.106  18.558  11.963
93657W        W65983  30.968  24.056  13.388
93658W        W65984  25.157  10.750  14.438
93659W        W65985  33.390  26.674   0.335
93660W        W65986  13.715  12.673   0.265
93661W        W65987  13.185  31.016  14.321
93662W        W65988  31.980  33.096  11.449
93663W        W65989  12.688  35.996   9.478
93664W        W65990   0.257  15.590   0.472
93665W        W65991  44.789  32.478   1.788
93666W        W65992  43.967  36.506   0.245
93667W        W65993  22.193  10.707   0.875
93668W        W65994  14.621  23.229  14.959
93669W        W65995   4.720   5.920  13.518
93670W        W65996  22.540   1.856  11.909
93671W        W65997   3.326   5.932  14.320
93672W        W65998  23.729  38.386  13.418
93673W        W65999  23.037  28.111   3.292
93674W        W66000  44.757  22.556   2.790
93675W        W66001  33.454   0.880  10.479
93676W        W66002  16.100   3.924  13.473
93677W        W66003  34.991  15.267  11.980
93678W        W66004  28.594  10.334   1.417
93679W        W66005  32.966  32.093  13.869
93680W        W66006  33.584  44.954  11.522
93681W        W66007  18.659  16.583   0.744
93682W        W66008  13.692  11.332  13.448
93683W        W66009  31.495  23.160  13.994
93684W        W66010  18.181  23.654  11.412
93685W        W66011  33.105  24.213   2.759
93686W        W66012  21.168  21.544   1.923
93687W        W66013   9.777   6.854  11.560
93688W        W66014  43.432  18.247   3.255
93689W        W66015  43.862   3.773   0.438
93690W        W66016  16.669  30.584  13.412
93691W        W66017  10.229  25.171   1.308
93692W        W66018  24.045  34.916   5.141
93693W        W66019  20.667   0.836  10.992
93694W        W66020  40.959   7.871   3.149
93695W        W66021   4.735   4.741   1.833
93696W        W66022  24.614   2.844  11.997
93697W        W66023  41.342  23.194   1.330
93698W        W66024   1.351   8.670   3.696
93699W        W66025  41.498  22.503  13.012
93700W        W66026  25.605  13.712  10.552
93701W        W66027  40.015  20.704  10.625
93702W        W66028  41.803   5.270  13.905
93703W        W66029  26.488  19.610   9.978
93704W        W66030  24.630  44.921   1.390
93705W        W66031   7.710  34.544   3.665
93706W        W66032  26.062  25.996   4.336
93707W        W66033  43.357  42.835  13.391
93708W        W66034  25.548  14.708  12.025
93709W        W66035   2.887  10.802  11.419
93710W        W66036  39.504  42.809  11.097
93711W        W66037  18.667  11.691   3.764
93712W        W66038  22.164   0.871  13.383
93713W        W66039  14.805  22.227   1.423
93714W        W66040  20.749  39.947  14.812
93715W        W66041   0.321  21.130  12.874
93716W        W66042  12.295   4.432   0.328
93717W        W66043  20.135  34.092  11.506
93718W        W66044  31.047  23.168  12.403
93719W        W66045  19.703   6.249   2.747
93720W        W66046  19.262  12.225   1.269
93721W        W66047   3.227  15.240  13.895
93722W        W66048  14.106  43.786   3.188
93723W        W66049   8.796  14.658   0.363
93724W        W66050  32.075  36.484   0.369
93725W        W66051  15.821  23.231   2.369
93726W        W66052  19.051  42.361  14.343
93727W        W66053   6.378  29.963   3.658
93728W        W66054  21.245  19.565  14.351
93729W        W66055  36.502   7.372  14.366
93730W        W66056   2.745  21.193   1.866
93731W        W66057  19.768   5.357   4.733
93732W        W66058  40.996  17.144   4.727
93733W        W66059   0.964  37.495   1.894
93734W        W66060  40.964  14.793   0.305
93735W        W66061  20.619   7.335   2.814
93736W        W66062   8.313  23.035   3.666
93737W        W66063  22.174  35.441   4.118
93738W        W66064   2.445  36.871  13.435
93739W        W66065   3.764  32.891   2.310
93740W        W66066  24.080  30.514  11.520
93741W        W66067  14.329  10.326   4.620
93742W        W66068  43.371  22.160  14.954
93743W        W66069  17.687  17.227  11.471
93744W        W66070   4.448  10.849  11.570
93745W        W66071  42.987  16.185   0.850
93746W        W66072  30.991  24.684  12.476
93747W        W66073  37.058  25.205  10.594
93748W        W66074   8.187  14.259  10.970
93749W        W66075   9.856  43.383  10.430
93750W        W66076  20.727  18.211   0.865
93751W        W66077   6.875  38.997  10.640
93752W        W66078  36.991  30.991  10.904
93753W        W66079  27.594  34.006   1.886
93754W        W66080   4.264   4.321   1.271
93755W        W66081   3.851  20.643  12.448
93756W        W66082  13.721   7.679   2.721
93757W        W66083  41.814  41.911   1.781
93758W        W66084  44.345  13.233   2.892
93759W        W66085  32.432  44.828   2.206
93760W        W66086  28.659  37.456  10.590
93761W        W66087  37.907  26.591  14.790
93762W        W66088  43.977  26.182   1.381
93763W        W66089   7.412  20.208  12.947
93764W        W66090  16.642  20.042   4.220
93765W        W66091  42.456  43.407   3.314
93766W        W66092  44.866  42.020  13.814
93767W        W66093  41.852  26.992  12.350
93768W        W66094  10.678   4.222   1.363
93769W        W66095  42.315   8.745  13.048
93770W        W66096  15.601  15.766  10.620
93771W        W66097  17.294   1.300   4.755
93772W        W66098   4.211   9.178  14.905
93773W        W66099  16.714  17.677  11.543
93774W        W66100   5.706   8.793   3.665
93775W        W66101  26.990  34.557   0.373
93776W        W66102  44.922   5.820  10.921
93777W        W66103   5.214  18.701   0.821
93778W        W66104   0.347  25.967  14.331
93779W        W66105  12.792  32.937   1.429
93780W        W66106  42.520  39.525  12.557
93781W        W66107  34.409  16.306  14.985
93782W        W66108  32.003  32.982  12.506
93783W        W66109   3.929  39.407  12.905
93784W        W66110   2.887   7.321  14.783
93785W        W66111   3.815  16.605  13.011
93786W        W66112  43.309   5.208   0.727
93787W        W66113  10.722  34.466   3.341
93788W        W66114  18.555  16.778  14.393
93789W        W66115   3.744  40.962  14.032
93790W        W66116  33.978  14.219  14.991
93791W        W66117   0.904  19.125  14.880
93792W        W66118  25.712  31.416   2.856
93793W        W66119  23.736  30.464   0.287
93794W        W66120  12.840  27.669   2.204
93795W        W66121  23.618  26.480  10.961
93796W        W66122  34.475  33.909  11.887
93797W        W66123  38.002  24.616  12.846
93798W        W66124  38.048  38.849  13.860
93799W        W66125  24.633  17.192   4.252
93800W        W66126  35.456  33.579  11.552
93801W        W66127  22.091  12.137  11.558
93802W        W66128   7.852  28.974   2.771
93803W        W66129  22.078  26.122  10.908
93804W        W66130  15.300  13.640   4.169
93805W        W66131  37.985  38.459   3.721
93806W        W66132   5.239   3.855   2.673
93807W        W66133  11.790  36.575   1.346
93808W        W66134  39.907  44.793   0.272
93809W        W66135   2.304   9.208  13.499
93810W        W66136  36.363  27.179  10.468
93811W        W66137  24.222  16.650   3.167
93812W        W66138  35.367  13.250   2.274
93813W        W66139  17.243  29.950  12.385
93814W        W66140   1.797   6.775  14.456
93815W        W66141  24.570   0.271   3.292
93816W        W66142   6.235  24.230  14.908
93817W        W66143  43.913  42.367   4.282
93818W        W66144  18.122  37.890   0.962
93819W        W66145  34.425  20.146   1.915
93820W        W66146  38.477  10.849  13.376
93821W        W66147  18.550  24.491   4.152
93822W        W66148  17.611  20.242  13.450
93823W        W66149  29.651  39.487   3.728
93824W        W66150  39.820  25.508   3.714
93825W        W66151  29.444  38.375  13.047
93826W        W66152  12.266  28.106   5.224
93827W        W66153  19.143  12.852  14.817
93828W        W66154  20.181  15.239   1.820
93829W        W66155  21.722   3.815   0.392
93830W        W66156  16.287   1.897  11.959
93831W        W66157  30.578  24.541   2.662
93832W        W66158  16.649  13.309   2.377
93833W        W66159  39.540  21.636  11.522
93834W        W66160   0.827  20.604   4.217
93835W        W66161  37.852  34.003   3.815
93836W        W66162  18.570  12.665   2.662
93837W        W66163  18.565   2.917  11.923
93838W        W66164   4.709  15.616  11.039
93839W        W66165  20.614  32.041  13.928
93840W        W66166   9.703  35.358   3.216
93841W        W66167  39.866   7.263   3.317
93842W        W66168   9.342  22.025   0.892
93843W        W66169  16.752   1.431   4.769
93844W        W66170  28.161  12.696   1.314
93845W        W66171  44.890   5.830   1.380
93846W        W66172  19.202  16.736   0.811
93847W        W66173   4.231   4.813   3.279
93848W        W66174  15.308  33.027  14.326
93849W        W66175  31.561  19.761  10.587
93850W        W66176  14.235   2.403   0.893
93851W        W66177  21.062  22.244  10.543
93852W        W66178  29.655  16.223   1.747
93853W        W66179  30.449  31.523   3.803
93854W        W66180  24.605  12.814   2.782
93855W        W66181  40.878  24.007   0.864
93856W        W66182  33.067  44.489   0.308
93857W        W66183  21.612   3.840  11.593
93858W        W66184  25.073  39.387  13.949
93859W        W66185  14.785   6.267  10.534
93860W        W66186  30.595  24.176  10.618
93861W        W66187  34.577  35.423   1.694
93862W        W66188  24.200  28.128  12.881
93863W        W66189  12.137  13.610  11.865
93864W        W66190  10.831  33.074  14.432
93865W        W66191  26.626  23.518   0.944
93866W        W66192  34.408  13.625   2.664
93867W        W66193  18.547  35.561  10.951
93868W        W66194   7.895  16.584   3.380
93869W        W66195  30.529  29.148   3.707
93870W        W66196  27.059   7.846  10.899
93871W        W66197  33.897  12.849   4.166
93872W        W66198  37.336  33.386  11.112
93873W        W66199  14.222  18.557   2.230
93874W        W66200  17.716   0.350  11.865
93875W        W66201  21.572  40.332   1.856
93876W        W66202   3.427   7.187  12.577
93877W        W66203   9.240  38.944   2.688
93878W        W66204  19.135  17.599   0.966
93879W        W66205  33.047  28.443  11.475
93880W        W66206  11.647   7.236   4.228
93881W        W66207  38.908  11.197   0.401
93882W        W66208   8.794   7.694   1.803
93883W        W66209  11.252  10.148   0.357
93884W        W66210   5.424  27.566   0.877
93885W        W66211  40.001  38.928   0.877
93886W        W66212   5.407   1.962   1.844
93887W        W66213  26.979  43.017   3.737
93888W        W66214  31.971  32.039  14.823
93889W        W66215  28.558  38.946   4.661
93890W        W66216   1.314  24.588   4.175
93891W        W66217  36.883  39.520   3.184
93892W        W66218  22.680  18.589   2.669
93893W        W66219  31.081  23.531  14.001
93894W        W66220  43.897   1.482  11.988
93895W        W66221   1.941   4.437  12.965
93896W        W66222  14.666  16.189  10.533
93897W        W66223  42.350  33.897  12.997
93898W        W66224  28.038   0.914   4.622
93899W        W66225  27.648  31.088   3.632
93900W        W66226  41.920   2.873  14.354
93901W        W66227  14.731  43.315   2.903
93902W        W66228   9.733   0.420   3.677
93903W        W66229  17.215   3.778   2.804
93904W        W66230   9.721   8.291  10.429
93905W        W66231   1.327  39.987   2.359
93906W        W66232   3.948  12.358   1.284
93907W        W66233  41.027  13.329  13.523
93908W        W66234  21.629  24.500  14.962
93909W        W66235  33.381  10.192  14.497
93910W        W66236  11.141  36.352   2.850
93911W        W66237   6.242   8.898  12.435
93912W        W66238  44.470   6.359  11.006
93913W        W66239  23.660  29.095  14.310
93914W        W66240  39.850  13.686   3.318
93915W        W66241  11.836  23.155  13.012
93916W        W66242  43.952  19.230   2.840
93917W        W66243   7.756  28.590   3.779
93918W        W66244   2.868  14.717  12.918
93919W        W66245  42.958  38.511  10.420
93920W        W66246  38.487   4.942  10.415
93921W        W66247  44.009   5.911   3.864
93922W        W66248  14.265   9.810   0.807
93923W        W66249  44.339  14.097   1.292
93924W        W66250  32.438  23.545  10.891
93925W        W66251  36.912   9.680  14.981
93926W        W66252  32.069  24.172   0.243
93927W        W66253  21.208  11.319   4.306
93928W        W66254  10.238  15.310  14.854
93929W        W66255  31.896  15.590   2.665
93930W        W66256  36.451   6.805  13.882
93931W        W66257  38.008  30.937  10.610
93932W        W66258  12.678  10.707  10.940
93933W        W66259  10.665   7.195   1.375
93934W        W66260  44.451  13.740  12.912
93935W        W66261  33.906  16.316  12.950
93936W        W66262  31.622   1.269   4.143
93937W        W66263   5.202  42.003   3.229
93938W        W66264  25.505  30.118  10.924
93939W        W66265   6.324  19.197   1.273
93940W        W66266  36.895  36.585  13.805
93941W        W66267  36.560   9.204  12.463
93942W        W66268  37.484   1.889  14.901
93943W        W66269  20.060  36.011   0.743
93944W        W66270  16.582   9.800   3.647
93945W        W66271   7.254  12.846  12.407
93946W        W66272  14.728  41.846  14.839
93947W        W66273  33.987  34.585   0.370
93948W        W66274  33.015  22.174  12.908
93949W        W66275  39.848  31.032   4.140
93950W        W66276  19.722  14.286   4.649
93951W        W66277  26.034  19.621  13.313
93952W        W66278  43.769  29.968  14.998
93953W        W66279  13.138  11.739  12.064
93954W        W66280   0.748   4.802  13.454
93955W        W66281   5.240  18.133   1.844
93956W        W66282  16.090   1.880   1.251
93957W        W66283  40.888  29.133   3.366
93958W        W66284  38.932  29.995   3.707
93959W        W66285  44.449  15.608  12.040
93960W        W66286  24.066  30.016   0.805
93961W        W66287  26.147   3.366   0.820
93962W        W66288  31.532  27.665  10.471
93963W        W66289  36.016   1.858  14.360
93964W        W66290  23.082  18.671   2.280
93965W        W66291  39.027  32.481  13.881
93966W        W66292  33.126  40.547  13.919
93967W        W66293  34.520  23.056  14.023
93968W        W66294  42.999  23.602   1.826
93969W        W66295  42.405  37.972   1.879
93970W        W66296  10.285  28.529   3.208
93971W        W66297  11.213   5.795   4.223
93972W        W66298   7.339  34.407   2.373
93973W        W66299  36.449  20.676  10.901
93974W        W66300  33.017   2.739   4.699
93975W        W66301  11.830   1.239   3.217
93976W        W66302  30.554  10.648  11.069
93977W        W66303   8.291  22.127  14.496
93978W        W66304  22.582  14.172   3.371
93979W        W66305   7.820  29.113   4.757
93980W        W66306  13.791  17.104  13.472
93981W        W66307  31.035   9.733  10.493
93982W        W66308  28.005  23.086   3.331
93983W        W66309  31.049  29.979   3.360
93984W        W66310  32.576   3.243  11.890
93985W        W66311  25.526  35.882   4.152
93986W        W66312   6.902  20.608   4.773
93987W        W66313   9.258  14.737   1.218
93988W        W66314  14.264  34.501   2.402
93989W        W66315   4.279  18.759   3.730
93990W        W66316   5.240  31.153   3.778
93991W        W66317  14.712  34.590   5.698
93992W        W66318  41.432   5.380  12.535
93993W        W66319  10.823  40.851   0.472
93994W        W66320  21.200   0.348  12.479
93995W        W66321   6.182  36.548  11.496
93996W        W66322  16.281   4.253  10.946
93997W        W66323  14.613  44.906  14.286
93998W        W66324  20.132   1.764   5.242
93999W        W66325  43.022  39.421   0.799
94000W        W66326   6.337  44.821  12.440
94001W        W66327   6.829   0.757  13.422
94002W        W66328  43.498  15.812  11.436
94003W        W66329   5.872  35.513  13.365
94004W        W66330  27.008   1.332   4.231
94005W        W66331  10.718  25.672   2.786
94006W        W66332  36.041  31.008  12.462
94007W        W66333   6.348  40.461  12.906
94008W        W66334  11.705  17.730   1.887
94009W        W66335   9.384  17.610   4.181
94010W        W66336  37.055   3.903  13.826
94011W        W66337  19.117  37.898   3.696
94012W        W66338  25.481   9.871  10.413
94013W        W66339  11.179  42.993   4.238
94014W        W66340   0.777  32.513   2.350
94015W        W66341  28.607  40.004   4.689
94016W        W66342  25.130  11.364  10.428
94017W        W66343  26.526   7.412  11.459
94018W        W66344   2.227  40.436  13.795
94019W        W66345   8.879  36.059   1.304
94020W        W66346  36.479  43.937  13.375
94021W        W66347  10.808  33.448   3.367
94022W        W66348  20.557  25.072  13.808
94023W        W66349  28.447  37.891   2.259
94024W        W66350  28.481  43.281  10.991
94025W        W66351   6.879  13.792  14.844
94026W        W66352  15.145  11.148   4.176
94027W        W66353  29.005  13.734  12.088
94028W        W66354   0.985  36.544   2.832
94029W        W66355  18.263   9.339  11.570
94030W        W66356  44.379  29.041   2.751
94031W        W66357  22.168  27.513  13.001
94032W        W66358   5.872  18.678   0.817
94033W        W66359  32.967  41.495  14.437
94034W        W66360  33.469  27.649   3.245
94035W        W66361   7.759   1.815   3.665
94036W        W66362  37.359   0.490  12.041
94037W        W66363   6.309   5.827   2.367
94038W        W66364  43.801  22.147   0.261
94039W        W66365  41.870   8.392   1.292
94040W        W66366  31.627  38.928   2.734
94041W        W66367  30.939  15.594   1.839
94042W        W66368   5.326  37.970  14.466
94043W        W66369   1.769  36.430  14.923
94044W        W66370  28.002  13.795   0.316
94045W        W66371  28.935  24.544   1.334
94046W        W66372   3.435  30.656  13.994
94047W        W66373  10.352  36.582  12.044
94048W        W66374  20.273   9.695   1.321
94049W        W66375  39.887  18.734   3.849
94050W        W66376   6.722  41.956  11.408
94051W        W66377  20.124  40.415   0.774
94052W        W66378  33.967   4.857  14.375
94053W        W66379  22.640  39.366  12.445
94054W        W66380   7.237   6.748  12.016
94055W        W66381  24.022  32.603  13.806
94056W        W66382   9.308  10.287  11.603
94057W        W66383   8.815  25.201  12.557
94058W        W66384  42.320  43.781  14.898
94059W        W66385  33.507  41.434   0.802
94060W        W66386  27.055   4.292  14.812
94061W        W66387  42.908  43.017  10.943
94062W        W66388  36.519  29.499   2.665
94063W        W66389  33.422  11.766  12.069
94064W        W66390  21.630  38.905   9.666
94065W        W66391   7.228  34.981  10.937
94066W        W66392  10.149  18.559  11.575
94067W        W66393  33.042  31.628  12.968
94068W        W66394  30.552  28.643   2.897
94069W        W66395   1.385  18.212   2.369
94070W        W66396  37.530   7.210  10.508
94071W        W66397  11.365  16.125  12.861
94072W        W66398  14.145  13.248  13.920
94073W        W66399   9.353  19.147   3.656
94074W        W66400  36.044  25.033  14.844
94075W        W66401  23.561   2.898  13.999
94076W        W66402   2.449  42.888   4.172
94077W        W66403  15.793  39.830  14.838
94078W        W66404  41.918  35.464   3.294
94079W        W66405  42.312   5.747   1.844
94080W        W66406  32.435  24.208  11.470
94081W        W66407   7.262  15.207   1.728
94082W        W66408   8.763  31.079   4.763
94083W        W66409  11.842  17.593   4.157
94084W        W66410  42.869  42.485  12.538
94085W        W66411   3.833  34.082  14.865
94086W        W66412  35.552  13.315   2.726
94087W        W66413  37.060   9.665  10.555
94088W        W66414   9.754  43.283  10.941
94089W        W66415  40.395  15.230  14.307
94090W        W66416  26.106  43.449  12.578
94091W        W66417  18.274  19.675  14.893
94092W        W66418  17.696  26.523  11.378
94093W        W66419   6.327  28.990   3.237
94094W        W66420  16.111  19.120  11.888
94095W        W66421   3.792  29.590   3.778
94096W        W66422  18.250  37.473  10.446
94097W        W66423   1.782  21.043  13.825
94098W        W66424  27.450   4.377  12.089
94099W        W66425  23.645  41.005   4.200
94100W        W66426  31.422  22.665   1.852
94101W        W66427  42.326  38.539   1.849
94102W        W66428  18.219  36.042  12.374
94103W        W66429   3.940  22.064  12.421
94104W        W66430  23.021  26.565   3.183
94105W        W66431  41.859  30.580  13.455
94106W        W66432  38.467  27.652   0.956
94107W        W66433  24.585   9.317   1.867
94108W        W66434   9.395  14.111   2.742
94109W        W66435   7.310   4.351   0.265
94110W        W66436  28.644  17.786  10.633
94111W        W66437  37.357  21.207  11.566
94112W        W66438  13.150  28.624  14.026
94113W        W66439  19.654   2.796  13.419
94114W        W66440   7.770  37.000  12.962
94115W        W66441  13.602  15.179   0.453
94116W        W66442  13.334  44.352   2.320
94117W        W66443  33.125  11.819  14.843
94118W        W66444  27.636  42.822  14.317
94119W        W66445  27.971  27.043   0.944
94120W        W66446   9.874  40.467   2.714
94121W        W66447  19.127  16.261  10.521
94122W        W66448  31.974   5.798   2.276
94123W        W66449  20.073  36.963  13.927
94124W        W66450  29.038  44.292  14.434
94125W        W66451  29.960  28.977  11.101
94126W        W66452  20.547   7.719   3.281
94127W        W66453  17.064  27.499   3.707
94128W        W66454  31.936  30.452   1.807
94129W        W66455  16.746  35.362  13.012
94130W        W66456  39.823  38.895  10.956
94131W        W66457  44.834  21.172  11.932
94132W        W66458  13.805  41.305  11.507
94133W        W66459   2.741   3.927  11.008
94134W        W66460  36.463   3.277   0.774
94135W        W66461  24.184   0.877  13.404
94136W        W66462   0.432  16.246   2.278
94137W        W66463  22.502   7.741   1.746
94138W        W66464  13.233  36.394   1.281
94139W        W66465  19.208  26.700   0.777
94140W        W66466   8.387  14.209   4.733
94141W        W66467  19.058   1.344  12.556
94142W        W66468  18.193  36.438  14.976
94143W        W66469  33.878  19.606  12.014
94144W        W66470  14.723  26.700   0.794
94145W        W66471   9.736  44.309  13.546
94146W        W66472  43.304  23.505   1.283
94147W        W66473   5.919   6.237   4.199
94148W        W66474  31.979  44.275  10.570
94149W        W66475  17.718  16.278   2.402
94150W        W66476   5.913   3.822   2.377
94151W        W66477  29.629  39.991   1.350
94152W        W66478   7.185  15.260  14.474
94153W        W66479  21.746  41.538   2.257
94154W        W66480  10.359  22.722  11.003
94155W        W66481  26.007  35.579   4.691
94156W        W66482  33.617   3.378   4.665
94157W        W66483  28.450  25.153   0.389
94158W        W66484   2.725  12.672   4.766
94159W        W66485  23.605  27.599   0.830
94160W        W66486  30.418  13.155  11.441
94161W        W66487  11.727  18.597  12.845
94162W        W66488  35.020  43.916   4.215
94163W        W66489  15.752  24.206   3.379
94164W        W66490  39.928  22.665   4.702
94165W        W66491  17.256   7.296  11.898
94166W        W66492  27.161  14.833  12.460
94167W        W66493   1.921  12.788   4.235
94168W        W66494  11.323  20.123  11.385
94169W        W66495  26.033  14.732   3.743
94170W        W66496   2.787  28.024  12.844
94171W        W66497  15.624  40.408  14.382
94172W        W66498  22.542  15.608   2.385
94173W        W66499  43.349   3.789  13.458
94174W        W66500  14.150  41.994  10.422
94175W        W66501  21.249   7.818  11.593
94176W        W66502  13.832  43.996  11.511
94177W        W66503  15.135  34.442  14.387
94178W        W66504  42.504  21.633  10.410
94179W        W66505  30.610  37.408   3.221
94180W        W66506  32.502   5.211  12.062
94181W        W66507  43.882  35.361  14.303
94182W        W66508   8.261  35.068  10.563
94183W        W66509   9.694  13.139   4.281
94184W        W66510  28.545  28.501  10.900
94185W        W66511  40.798  40.513  11.010
94186W        W66512  10.719  17.095  11.588
94187W        W66513  26.152   0.315   4.647
94188W        W66514  15.707  11.780  11.606
94189W        W66515   2.870  20.566   0.746
94190W        W66516  30.636   4.354  11.421
94191W        W66517   9.181   5.311  10.500
94192W        W66518  41.974  11.243  11.890
94193W        W66519  39.998  44.454  12.553
94194W        W66520  15.221  43.334   0.958
94195W        W66521  40.475   3.821   4.124
94196W        W66522  14.759   9.253   3.387
94197W        W66523  25.090  39.976  13.935
94198W        W66524  16.164  18.087   4.263
94199W        W66525  27.167  26.587   0.301
94200W        W66526  36.499  21.562   0.484
94201W        W66527   1.422  37.338   4.733
94202W        W66528  32.912  30.419  13.973
94203W        W66529  23.673  41.470   4.805
94204W        W66530  10.681  20.575  13.482
94205W        W66531   6.893  22.512   0.472
94206W        W66532  17.776  32.096   1.873
94207W        W66533  14.232  15.302   4.649
94208W        W66534   1.807  36.438  13.921
94209W        W66535  16.289  20.196   2.283
94210W        W66536  12.763  32.899  13.030
94211W        W66537  43.440  35.407   3.840
94212W        W66538  12.745  44.475   0.888
94213W        W66539  41.856  27.485  14.457
94214W        W66540  23.055  12.799  12.069
94215W        W66541  35.994  18.085   4.202
94216W        W66542  31.004  41.468   0.341
94217W        W66543   1.735  28.508   1.239
94218W        W66544  16.282  36.381   1.413
94219W        W66545  21.553   1.888  13.994
94220W        W66546  13.221  44.380  11.988
94221W        W66547  34.991  31.938  14.507
94222W        W66548  21.511  17.175   9.922
94223W        W66549  44.961  30.082   0.959
94224W        W66550   0.386  41.940   4.254
94225W        W66551  41.506  29.640   2.414
94226W        W66552  34.372   0.259  13.539
94227W        W66553  43.992  34.080  11.485
94228W        W66554  23.621  44.457  12.467
94229W        W66555  24.494  10.179   0.774
94230W        W66556  42.810  14.335   4.189
94231W        W66557  38.554   3.834   1.928
94232W        W66558  27.180   8.177   0.254
94233W        W66559  19.281  44.984  11.865
94234W        W66560  31.954   8.721   1.386
94235W        W66561   4.778  19.251  11.016
94236W        W66562   0.801  44.840   3.165
94237W        W66563   7.364   9.867   0.460
94238W        W66564  14.722  19.670   2.675
94239W        W66565  16.586  44.841  14.918
94240W        W66566  29.666  15.819   3.669
94241W        W66567   2.945   9.372   2.801
94242W        W66568  19.112  22.073  14.788
94243W        W66569  30.961  35.531  10.503
94244W        W66570  20.607  22.245   1.866
94245W        W66571  15.224   1.319  10.955
94246W        W66572  36.924  26.118   4.252
94247W        W66573  21.176  22.084   2.200
94248W        W66574  26.000  21.662  14.506
94249W        W66575   6.864   9.336  11.566
94250W        W66576  34.021  22.063   1.852
94251W        W66577  38.026  14.276  11.974
94252W        W66578  35.573  12.131  13.922
94253W        W66579  18.748  22.571   3.773
94254W        W66580   6.328   6.817   0.895
94255W        W66581  44.282  17.204   2.289
94256W        W66582  10.633  44.468  13.494
94257W        W66583  24.626  28.531  13.342
94258W        W66584  28.101   4.366  14.944
94259W        W66585  40.444  10.278   1.837
94260W        W66586  26.951  25.030  13.851
94261W        W66587  28.574   9.342   1.933
94262W        W66588  29.626  39.952  14.507
94263W        W66589  31.944   9.385   2.718
94264W        W66590  23.132  19.184  14.942
94265W        W66591  36.985   3.863   1.912
94266W        W66592  18.711  10.369   2.377
94267W        W66593  41.938  38.844  14.971
94268W        W66594  44.356  29.927   3.147
94269W        W66595  44.891  43.012  13.931
94270W        W66596  40.432   5.694   1.214
94271W        W66597  10.796  21.088  10.606
94272W        W66598   1.873  41.930   1.365
94273W        W66599  34.500  10.156   3.266
94274W        W66600  13.180   8.795  14.933
94275W        W66601  34.105   0.486   1.271
94276W        W66602   6.693   8.739  12.971
94277W        W66603  24.666  19.603   2.742
94278W        W66604  36.356  37.492   2.720
94279W        W66605  32.046  12.830  10.134
94280W        W66606  35.521  33.054  11.041
94281W        W66607   3.776  43.516   4.788
94282W        W66608  39.981   1.752   3.796
94283W        W66609   2.299  22.062   2.798
94284W        W66610   3.230  43.290  12.449
94285W        W66611  41.382  40.385  13.426
94286W        W66612  30.506  35.921   2.824
94287W        W66613  22.644  43.940   4.827
94288W        W66614  40.855  34.990   0.921
94289W        W66615  44.800  16.180  10.561
94290W        W66616  11.819  31.440  10.631
94291W        W66617  12.141   6.825   0.874
94292W        W66618  14.635   0.771   3.730
94293W        W66619  30.103  36.429   3.741
94294W        W66620  43.451  29.655   0.380
94295W        W66621  13.255  42.944  14.309
94296W        W66622  27.126  29.456  11.096
94297W        W66623  17.235   8.663   3.827
94298W        W66624  37.534  30.580  10.531
94299W        W66625  36.950  20.632   2.703
94300W        W66626   9.842  36.423   2.223
94301W        W66627  19.201  12.828  11.552
94302W        W66628  28.107   4.814   1.820
94303W        W66629  23.215  27.488  14.778
94304W        W66630  24.192  37.551  11.072
94305W        W66631  35.940  29.454  11.063
94306W        W66632  27.177  38.363   2.399
94307W        W66633  15.134  36.374   1.230
94308W        W66634  27.486  18.644   4.784
94309W        W66635  32.109   7.229   0.924
94310W        W66636   8.204  22.170   3.146
94311W        W66637   9.223  20.102   3.800
94312W        W66638  31.936  26.053   3.267
94313W        W66639  44.912  35.597  11.408
94314W        W66640  44.852  42.958   1.316
94315W        W66641   2.286  13.710   4.699
94316W        W66642  17.575  26.516   2.271
94317W        W66643  20.541   1.964   1.708
94318W        W66644   0.318  43.843  10.472
94319W        W66645   6.793  21.264   1.867
94320W        W66646  17.164  28.533   4.213
94321W        W66647  15.685   8.863   0.792
94322W        W66648  39.314  21.049  12.996
94323W        W66649  30.957  42.780   5.307
94324W        W66650  20.249   7.289   1.701
94325W        W66651  38.028   8.834   1.410
94326W        W66652  28.607  29.639   0.269
94327W        W66653  14.340  28.171   2.866
94328W        W66654  37.034   7.295  11.495
94329W        W66655  21.166  38.819  13.809
94330W        W66656   7.187  41.534   0.817
94331W        W66657  27.447   3.888  11.604
94332W        W66658  37.419   8.834   1.316
94333W        W66659  15.083  19.752  14.514
94334W        W66660  17.115  42.963   2.276
94335W        W66661  41.794  28.587  11.526
94336W        W66662  22.144  21.242   3.373
94337W        W66663  18.768  12.253   1.753
94338W        W66664  15.686  10.725   4.700
94339W        W66665  34.602  10.745  13.901
94340W        W66666  43.943   0.987  12.542
94341W        W66667  28.093  39.843   2.813
94342W        W66668  31.611  31.602   1.699
94343W        W66669  21.255   9.268  13.415
94344W        W66670  41.954  21.160  12.017
94345W        W66671  38.366  20.667  12.467
94346W        W66672  20.732  42.998   5.297
94347W        W66673  32.092  29.559  10.411
94348W        W66674   6.677   9.290  14.806
94349W        W66675  33.482  19.189   4.639
94350W        W66676  20.728   6.841  10.543
94351W        W66677  38.828  21.181   3.340
94352W        W66678  36.574   8.830   2.188
94353W        W66679   6.878  38.990  14.424
94354W        W66680  26.574   4.420   4.653
94355W        W66681  20.229  29.535  13.962
94356W        W66682  26.542  44.381  10.418
94357W        W66683  11.178   5.929  11.598
94358W        W66684  30.464  16.567   4.171
94359W        W66685   2.472  13.658   0.254
94360W        W66686  33.011   6.692   4.274
94361W        W66687  28.066  36.977  14.955
94362W        W66688   6.776   1.830   0.932
94363W        W66689   8.176  26.025   0.446
94364W        W66690  19.542  33.493  14.770
94365W        W66691  37.903  35.958  12.512
94366W        W66692  40.047  11.336   4.743
94367W        W66693   5.278  36.550   3.736
94368W        W66694   6.874   9.861   0.317
94369W        W66695  43.491  25.076   2.322
94370W        W66696   3.439  26.465  11.886
94371W        W66697  35.488  31.032  12.534
94372W        W66698  21.758  10.813  10.943
94373W        W66699  41.462  41.966   3.161
94374W        W66700  40.426  26.974   4.155
94375W        W66701  13.679  23.534  11.931
94376W        W66702  33.499   2.738  14.399
94377W        W66703  10.258   3.949   0.818
94378W        W66704  27.990  11.267   4.302
94379W        W66705   5.293  18.239   2.739
94380W        W66706  43.448  27.472   0.267
94381W        W66707  10.301   1.288  14.367
94382W        W66708  38.388   1.263   1.342
94383W        W66709   0.332   1.446  12.457
94384W        W66710  11.627  29.570  14.487
94385W        W66711  15.590  12.818   0.350
94386W        W66712  19.210  21.116  14.907
94387W        W66713   4.426   2.451   3.173
94388W        W66714  30.623   6.235  13.958
94389W        W66715  19.685  21.054  13.830
94390W        W66716  28.496   5.838  14.321
94391W        W66717  39.379  35.938  12.871
94392W        W66718  16.285  13.626  12.535
94393W        W66719  13.604   4.897   2.888
94394W        W66720   7.379  22.709   2.667
94395W        W66721  42.780  34.029  12.373
94396W        W66722   7.264  32.948   4.600
94397W        W66723  16.691  42.783   2.224
94398W        W66724   8.797  10.648  14.368
94399W        W66725  34.070   6.793   2.785
94400W        W66726  13.143  32.084   2.755
94401W        W66727  22.594  13.308  11.593
94402W        W66728  18.109  30.036  13.367
94403W        W66729  41.790  12.764  13.370
94404W        W66730  44.959  36.928   2.222
94405W        W66731  28.052  41.471   2.797
94406W        W66732  19.162  12.664  14.016
94407W        W66733  21.133  23.992   3.734
94408W        W66734   0.772   5.840  13.875
94409W        W66735  41.299   0.946   3.682
94410W        W66736   8.715  29.163   0.353
94411W        W66737  24.181   2.918   2.362
94412W        W66738   0.880   8.369   3.251
94413W        W66739  30.143  13.762   3.826
94414W        W66740  10.203   6.200  11.606
94415W        W66741   5.322  39.366  12.360
94416W        W66742  35.369  34.546   4.316
94417W        W66743  43.877  25.621   0.956
94418W        W66744   3.772   1.885  14.856
94419W        W66745  38.474  22.169  11.857
94420W        W66746  15.138   7.711  13.028
94421W        W66747  22.065  16.754   0.484
94422W        W66748  44.499  10.373   4.181
94423W        W66749  11.806   2.316   3.763
94424W        W66750  12.655  14.120  13.869
94425W        W66751  12.821  43.480  11.053
94426W        W66752   0.321   6.788   3.776
94427W        W66753   5.802  33.418  13.414
94428W        W66754  42.996   0.758   0.397
94429W        W66755  43.399  15.319  14.503
94430W        W66756  26.999  28.110  14.009
94431W        W66757  11.811  17.673  14.280
94432W        W66758  44.826  11.852   4.774
94433W        W66759   7.763  42.992   2.350
94434W        W66760  26.044  30.937  13.916
94435W        W66761  36.023  13.317  10.100
94436W        W66762  19.202  44.811  12.899
94437W        W66763  23.993  15.320   4.598
94438W        W66764  32.502  23.605  10.510
94439W        W66765  39.948  41.032  13.920
94440W        W66766  24.534  17.105  12.472
94441W        W66767  28.021  36.365   2.271
94442W        W66768  21.535  31.626   1.232
94443W        W66769  44.397  37.405   5.102
94444W        W66770   1.378   7.691  13.494
94445W        W66771   8.388  16.764  10.471
94446W        W66772   1.350  28.661  14.322
94447W        W66773  38.358  42.341  12.971
94448W        W66774  25.649  19.654  11.009
94449W        W66775  32.587  28.087  13.320
94450W        W66776   4.713  44.475   1.289
94451W        W66777  11.172   7.795   4.611
94452W        W66778   7.357  43.429   0.797
94453W        W66779  37.531  34.953  13.846
94454W        W66780  19.239   0.985   2.394
94455W        W66781  43.419   4.204  10.962
94456W        W66782   7.395   4.374   2.731
94457W        W66783   8.318  34.542  11.373
94458W        W66784  13.626  30.653  14.981
94459W        W66785  12.163  13.132  11.062
94460W        W66786  15.769  44.922  12.047
94461W        W66787   6.745   1.900  10.513
94462W        W66788  14.779  36.575   1.783
94463W        W66789   0.783  17.715  11.120
94464W        W66790   3.454  34.899   0.934
94465W        W66791   0.930  31.912   0.955
94466W        W66792  37.971  41.019  11.600
94467W        W66793  21.183  18.592  13.445
94468W        W66794  44.762  43.429   4.292
94469W        W66795  34.375  30.447  13.034
94470W        W66796  11.154   7.201  12.855
94471W        W66797   2.936  41.042  14.937
94472W        W66798   2.463  15.685  12.511
94473W        W66799   5.286  25.709   1.229
94474W        W66800  42.021  21.566   4.203
94475W        W66801   2.468  12.804   1.450
94476W        W66802  24.036  19.171   1.872
94477W        W66803  36.523  10.756   1.870
94478W        W66804  14.599  21.088   4.747
94479W        W66805  18.571  27.182  13.865
94480W        W66806  20.218   3.742   3.720
94481W        W66807   0.352  29.160  14.334
94482W        W66808  16.316  44.912   1.397
94483W        W66809  23.645   9.691   3.327
94484W        W66810   3.953  33.624  11.498
94485W        W66811  31.534  18.636   0.967
94486W        W66812   9.774  28.530   3.270
94487W        W66813  36.902  29.429   3.154
94488W        W66814  30.971  16.772  12.555
94489W        W66815  27.567  37.386   3.225
94490W        W66816  37.507   3.802  13.324
94491W        W66817  14.337  12.199  13.537
94492W        W66818  16.782   5.248   0.954
94493W        W66819   3.857  21.137   0.869
94494W        W66820  38.350  14.180  12.832
94495W        W66821  42.902  28.104   4.229
94496W        W66822  27.037   9.837  13.947
94497W        W66823  21.091  10.799  14.848
94498W        W66824  22.056  33.124   2.664
94499W        W66825  20.718   4.227   4.208
94500W        W66826  44.277  30.954  14.996
94501W        W66827  44.387  34.468   1.419
94502W        W66828  40.012  35.466  12.894
94503W        W66829  21.120  38.851   1.238
94504W        W66830   1.861  31.992   2.793
94505W        W66831  23.731  22.571  12.834
94506W        W66832  36.347  20.155   1.234
94507W        W66833  26.973   5.825   2.833
94508W        W66834  26.960  37.888   0.449
94509W        W66835  12.252  15.725  14.409
94510W        W66836  25.602  34.049   2.412
94511W        W66837   4.394  27.542   0.324
94512W        W66838  14.670  23.213   4.131
94513W        W66839  23.103  22.661  10.479
94514W        W66840  44.396  15.753  14.331
94515W        W66841  11.300  14.297  13.520
94516W        W66842   0.475  20.183   3.330
94517W        W66843  31.624  36.843   0.813
94518W        W66844  12.794  41.876  13.459
94519W        W66845  41.333  37.467  11.572
94520W        W66846   0.494  29.579  11.091
94521W        W66847   1.305  37.842  11.900
94522W        W66848  29.501  25.094   0.400
94523W        W66849  12.738  33.017  10.587
94524W        W66850  25.020  18.290  10.457
94525W        W66851   4.303  22.017  11.589
94526W        W66852  17.212  27.499  12.058
94527W        W66853  36.945  26.521   4.611
94528W        W66854  39.490  15.180   0.861
94529W        W66855   7.900  40.315   3.681
94530W        W66856   7.340  17.623   1.315
94531W        W66857   4.424   6.196  11.526
94532W        W66858  16.741  42.962  10.072
94533W        W66859  14.152  22.126   1.878
94534W        W66860  26.666  19.076  10.971
94535W        W66861  20.061  35.376  10.480
94536W        W66862  28.641   6.282  13.935
94537W        W66863  12.228  25.157   4.702
94538W        W66864  33.566  13.603   2.750
94539W        W66865  14.275  44.480   3.373
94540W        W66866  19.141  43.297  13.316
94541W        W66867  18.200  20.675  12.481
94542W        W66868  43.369  39.032   1.257
94543W        W66869  40.970  29.108  14.302
94544W        W66870  21.226   5.382  13.499
94545W        W66871  19.761   9.658  11.950
94546W        W66872  30.623  23.127  10.979
94547W        W66873  35.537  13.201  12.953
94548W        W66874  43.461  44.803  10.940
94549W        W66875  30.008  39.006  11.045
94550W        W66876   0.744  21.126   5.248
94551W        W66877  18.702   1.918   0.940
94552W        W66878   4.896   8.818  14.328
94553W        W66879  25.972  21.140  14.428
94554W        W66880  39.527  18.096   2.392
94555W        W66881  40.396  20.695   3.839
94556W        W66882  26.067  44.504  13.349
94557W        W66883  19.770  16.214  13.351
94558W        W66884   0.774   7.870  10.596
94559W        W66885  17.557   3.370  13.355
94560W        W66886   9.346  38.942   4.827
94561W        W66887   7.173   0.806  13.952
94562W        W66888  28.125  17.756   1.295
94563W        W66889  27.981  20.045  11.049
94564W        W66890  12.748  38.324  13.876
94565W        W66891  23.102  24.224  10.564
94566W        W66892  36.023  43.328   1.856
94567W        W66893  26.064  43.985   1.876
94568W        W66894  17.784  31.547   2.342
94569W        W66895  41.916   8.251   0.853
94570W        W66896  23.660  18.203  12.017
94571W        W66897  24.061  15.159  10.023
94572W        W66898  15.628  10.676   2.822
94573W        W66899  32.043   1.773   3.247
94574W        W66900  18.757  15.627   0.378
94575W        W66901  42.847  41.903  11.548
94576W        W66902  30.546  15.761   2.239
94577W        W66903  19.658   0.872  10.640
94578W        W66904  31.905  29.493   3.740
94579W        W66905  34.495   0.845   1.360
94580W        W66906  35.960  31.564   0.825
94581W        W66907  40.005  12.278   0.480
94582W        W66908  34.574   1.426   1.768
94583W        W66909  26.636  34.120  13.880
94584W        W66910  30.520  13.319   1.332
94585W        W66911  32.617  42.979   2.350
94586W        W66912  38.914   1.748  10.032
94587W        W66913   3.220  11.804  14.857
94588W        W66914  29.934   0.964   0.363
94589W        W66915  15.691  42.804  12.570
94590W        W66916  27.045  33.107  14.951
94591W        W66917   8.866  25.654   4.653
94592W        W66918  12.724  32.011   0.905
94593W        W66919   2.226   2.245   4.787
94594W        W66920  34.002   1.888   4.821
94595W        W66921  42.295  23.557   2.764
94596W        W66922  43.357  32.113   0.310
94597W        W66923   9.798  33.003  14.838
94598W        W66924  38.409   3.316  11.028
94599W        W66925  41.493  38.405  10.470
94600W        W66926  25.108  26.469  12.039
94601W        W66927  22.066  13.250   2.671
94602W        W66928   1.462  26.591  14.444
94603W        W66929   8.892  21.107   3.335
94604W        W66930  10.296  30.050  10.476
94605W        W66931  22.523  35.530   2.812
94606W        W66932  42.912   3.221   1.336
94607W        W66933   0.492  28.106   0.963
94608W        W66934  28.142   9.273   3.287
94609W        W66935   5.354  14.338  13.820
94610W        W66936  26.951   0.815  11.917
94611W        W66937  19.178   7.266  10.613
94612W        W66938  40.517  22.670   4.191
94613W        W66939  26.621  26.970   2.364
94614W        W66940  23.067  36.573   0.778
94615W        W66941  39.909  39.471  12.396
94616W        W66942  17.685  36.477   4.275
94617W        W66943  11.781  42.963   9.935
94618W        W66944  26.479  22.143  13.326
94619W        W66945   7.793  18.192   4.704
94620W        W66946  12.159  25.554   3.787
94621W        W66947  22.502   1.284   0.885
94622W        W66948  11.239  21.257  11.464
94623W        W66949  33.065  11.356  11.495
94624W        W66950  34.958  24.998  13.363
94625W        W66951  27.572   7.773   0.373
94626W        W66952  40.361   7.679   2.250
94627W        W66953   7.770  18.179  12.019
94628W        W66954  36.956  32.502   2.305
94629W        W66955   6.405  44.878  12.939
94630W        W66956  28.163  25.549   0.829
94631W        W66957   8.360   6.271  14.815
94632W        W66958  34.432  34.448  12.357
94633W        W66959  22.036  32.894   4.826
94634W        W66960  15.759   9.769  12.534
94635W        W66961  41.532  38.339  12.039
94636W        W66962  10.247  37.429   2.360
94637W        W66963  41.972   2.860   2.710
94638W        W66964  11.151   4.305   2.299
94639W        W66965   3.458  13.609  12.512
94640W        W66966   3.760   7.237   2.416
94641W        W66967  16.806   8.282  13.515
94642W        W66968  20.120  13.116   1.794
94643W        W66969  23.049  30.435   1.305
94644W        W66970   4.434  35.862  10.422
94645W        W66971   0.921  21.554   2.881
94646W        W66972  39.912  15.098  12.463
94647W        W66973   0.762  40.940  12.863
94648W        W66974   0.285  30.140   4.325
94649W        W66975  14.259  42.460  11.901
94650W        W66976   1.746  10.771   0.875
94651W        W66977  30.155  40.493  13.945
94652W        W66978   7.722  19.750  10.614
94653W        W66979   1.319  24.481  10.578
94654W        W66980  19.139  42.933  10.484
94655W        W66981  26.534   0.945  12.540
94656W        W66982  17.688  27.501   3.267
94657W        W66983   6.356  14.706  13.875
94658W        W66984  11.273  37.847   4.288
94659W        W66985  12.632  25.991   1.705
94660W        W66986   3.760  15.651   3.335
94661W        W66987  37.944   1.290  14.965
94662W        W66988  17.126  33.957   2.376
94663W        W66989  42.349  42.802   2.833
94664W        W66990   4.872  23.709   3.288
94665W        W66991  24.984  42.020   1.771
94666W        W66992  17.250  36.574  10.594
94667W        W66993  29.934  39.992   3.171
94668W        W66994  21.722  28.030   4.259
94669W        W66995   4.922  12.309   1.762
94670W        W66996  28.666  37.931  12.887
94671W        W66997  35.429  13.250  11.479
94672W        W66998  36.007  18.128  11.127
94673W        W66999  39.848  13.181  13.400
94674W        W67000  17.756  27.534   1.719
94675W        W67001   4.448   1.437  11.867
94676W        W67002  32.895  16.748  12.385
94677W        W67003  44.339  42.972  14.018
94678W        W67004  13.249  37.965  12.981
94679W        W67005  10.848  17.694   2.383
94680W        W67006  17.762  27.042   4.175
94681W        W67007  23.631  41.516  12.014
94682W        W67008  23.494  25.570  14.294
94683W        W67009  24.683  30.497   2.300
94684W        W67010  20.133  32.590  13.531
94685W        W67011  10.278  41.957  14.403
94686W        W67012  29.581  37.545   4.204
94687W        W67013  10.291  32.608   4.319
94688W        W67014  41.947  12.704  14.805
94689W        W67015  40.421  34.094   4.116
94690W        W67016  36.542  15.606   3.740
94691W        W67017   6.892   9.673  12.904
94692W        W67018  43.804  22.619   4.782
94693W        W67019  12.272  29.925   0.779
94694W        W67020  24.051  41.818  11.421
94695W        W67021  29.576  23.554   3.346
94696W        W67022  14.162  32.963  14.915
94697W        W67023  22.551  21.549  12.508
94698W        W67024  43.413   8.397  13.332
94699W        W67025  31.582  19.155  14.976
94700W        W67026  21.078   3.928   3.673
94701W        W67027  43.429  13.708  11.083
94702W        W67028  13.328  40.978   1.869
94703W        W67029   8.371   1.304   4.606
94704W        W67030  35.482  35.582  10.462
94705W        W67031   2.322  17.565   1.754
94706W        W67032  20.699  16.575  13.506
94707W        W67033   3.363  22.054  12.843
94708W        W67034  24.583   4.332  12.889
94709W        W67035  17.307  12.728  11.997
94710W        W67036  26.178   6.259  14.331
94711W        W67037   3.917  22.209  14.511
94712W        W67038  42.490  39.392   1.720
94713W        W67039  39.425   5.394   1.858
94714W        W67040  24.220  12.242  11.379
94715W        W67041  16.736  25.596  12.508
94716W        W67042   4.774  38.562   1.398
94717W        W67043  44.845  24.181   3.202
94718W        W67044  13.716  22.219   4.243
94719W        W67045  14.705   2.877   1.231
94720W        W67046  36.426   5.822   2.393
94721W        W67047  16.136  23.578  14.383
94722W        W67048  26.031  44.903   1.276
94723W        W67049  38.518  35.395  13.452
94724W        W67050  28.000  19.147  12.388
94725W        W67051   7.317  12.119   0.799
94726W        W67052  32.394  44.388  11.077
94727W        W67053  39.487  26.524   2.246
94728W        W67054  19.089  28.593  11.047
94729W        W67055  38.878   6.197  14.834
94730W        W67056  10.245   8.833   4.754
94731W        W67057   8.162  23.536   0.867
94732W        W67058  40.473  42.833   0.404
94733W        W67059   4.921   8.392  11.921
94734W        W67060   6.234  35.528   4.737
94735W        W67061  17.304  36.024  12.930
94736W        W67062  41.939  35.085   1.335
94737W        W67063  15.159  27.115  13.527
94738W        W67064  27.473  30.501  13.316
94739W        W67065  43.830  25.662  13.971
94740W        W67066  21.187  18.764  11.558
94741W        W67067  13.846  24.537   2.340
94742W        W67068  19.101  30.503   4.738
94743W        W67069  41.869  16.102   2.407
94744W        W67070  32.415  39.351   3.800
94745W        W67071  28.146  28.056   2.870
94746W        W67072  43.505  33.546  11.122
94747W        W67073  11.831  28.499  13.905
94748W        W67074  36.088  44.360  12.388
94749W        W67075  13.294   3.411   4.214
94750W        W67076  15.280  33.417  13.525
94751W        W67077   0.443  32.899   4.604
94752W        W67078  35.525  36.859  14.407
94753W        W67079   6.770  29.110  14.842
94754W        W67080  24.071  23.232   0.738
94755W        W67081   1.330  27.037  14.387
94756W        W67082  11.148  11.861   4.759
94757W        W67083  28.946   9.881   0.921
94758W        W67084  39.330  25.697  12.917
94759W        W67085  19.759  32.544  13.437
94760W        W67086  30.489  31.959   2.707
94761W        W67087   5.223  25.668   2.776
94762W        W67088   7.287  25.061   1.890
94763W        W67089  20.089  37.411   0.458
94764W        W67090  27.484   8.322  13.981
94765W        W67091  26.157  31.518  12.981
94766W        W67092   4.235  37.561   1.800
94767W        W67093  18.746  26.498  14.303
94768W        W67094  17.589  19.109   1.284
94769W        W67095  22.617  23.045   3.847
94770W        W67096   6.824   9.380   2.677
94771W        W67097  33.055   5.819   3.311
94772W        W67098  33.909  22.215  13.032
94773W        W67099  20.087   3.231  10.119
94774W        W67100  25.988  33.451  12.836
94775W        W67101   0.347   3.327   1.232
94776W        W67102  23.996   7.245   0.441
94777W        W67103  22.665  25.505  10.456
94778W        W67104  15.723  44.294   0.814
94779W        W67105  35.979  17.213   4.655
94780W        W67106   9.357  37.572  11.082
94781W        W67107   9.279  26.683  11.912
94782W        W67108  36.935  17.066  12.910
94783W        W67109  10.682  32.973   3.812
94784W        W67110  33.506   0.982  12.994
94785W        W67111  19.243  15.151   1.717
94786W        W67112  31.541   7.356   4.228
94787W        W67113  32.626  29.556   2.779
94788W        W67114  17.192  17.073   3.282
94789W        W67115  14.224  32.513   4.666
94790W        W67116  32.896  21.136   2.842
94791W        W67117  15.151  44.839   4.305
94792W        W67118  39.351  37.933  14.875
94793W        W67119  26.678  36.083  14.869
94794W        W67120  14.195  18.171   4.142
94795W        W67121  44.900  40.360  13.343
94796W        W67122  37.472   8.711   2.804
94797W        W67123  43.476  34.876   3.378
94798W        W67124  28.098   2.810   3.867
94799W        W67125  38.494  14.106   0.246
94800W        W67126  18.554  21.514   2.381
94801W        W67127  19.557  34.561  14.896
94802W        W67128  34.441  41.311  11.505
94803W        W67129  17.739  35.396  14.280
94804W        W67130  31.030  19.176  12.489
94805W        W67131   2.833  30.592  14.954
94806W        W67132  26.514  31.608   3.686
94807W        W67133  13.321  14.141  13.012
94808W        W67134  12.809  33.610   2.234
94809W        W67135  35.872  31.586  12.392
94810W        W67136  33.547  30.485   2.268
94811W        W67137  18.566   2.958   3.207
94812W        W67138  32.921  10.741  11.444
94813W        W67139   3.433  15.616  13.543
94814W        W67140  43.407  10.366   1.449
94815W        W67141  31.004  42.354   2.831
94816W        W67142  23.131  38.847   1.777
94817W        W67143  22.731   1.243   3.658
94818W        W67144  28.457  30.491  10.925
94819W        W67145   2.226  30.967   3.819
94820W        W67146  39.852  23.234  13.540
94821W        W67147  35.563   1.967   4.786
94822W        W67148  21.052  36.094   0.909
94823W        W67149  36.026  19.128   2.758
94824W        W67150  10.206   8.798  11.950
94825W        W67151  20.549  19.747  10.541
94826W        W67152  32.091  18.276   2.413
94827W        W67153  14.729  23.151   0.333
94828W        W67154  27.135  15.657   1.417
94829W        W67155  32.598  40.313  11.536
94830W        W67156  33.387  21.653   4.279
94831W        W67157  30.976  18.742  13.504
94832W        W67158  37.350  35.858  11.383
94833W        W67159  15.299  13.747  13.918
94834W        W67160  10.181  21.637  14.428
94835W        W67161  10.816  19.122   2.330
94836W        W67162  19.041   3.259  13.479
94837W        W67163   7.830  28.987  14.914
94838W        W67164  18.224  23.159  10.566
94839W        W67165   3.429   3.336   2.324
94840W        W67166  33.969   3.829   1.804
94841W        W67167  18.617  40.830  14.374
94842W        W67168  30.165  10.674   4.134
94843W        W67169   0.275  27.511  12.565
94844W        W67170  40.427  27.638   1.883
94845W        W67171  31.056  23.242   0.380
94846W        W67172  11.330   2.897   0.244
94847W        W67173  13.700   2.243  10.410
94848W        W67174  33.481  31.975  10.476
94849W        W67175  11.760  41.453   1.779
94850W        W67176  10.777   5.413   2.190
94851W        W67177  16.276  10.661  12.364
94852W        W67178  41.533  10.182   3.810
94853W        W67179  30.961  11.700  12.938
94854W        W67180  39.032  36.573   9.956
94855W        W67181  13.811  17.193   2.417
94856W        W67182   1.472  22.139  11.936
94857W        W67183   7.667   3.887   0.477
94858W        W67184  11.186  32.524  12.480
94859W        W67185  24.619   0.894  12.432
94860W        W67186  10.384   5.728   5.103
94861W        W67187  35.431  31.622   4.735
94862W        W67188  21.132  37.572   4.706
94863W        W67189  13.291  14.130   3.184
94864W        W67190  20.035  21.153   0.888
94865W        W67191  35.427  32.895   0.943
94866W        W67192  28.083  10.694   2.248
94867W        W67193  40.522  39.818  12.424
94868W        W67194   7.251  41.941  14.483
94869W        W67195   5.796  12.639   1.412
94870W        W67196  27.015  41.855  14.952
94871W        W67197  32.532  30.547   2.297
94872W        W67198   7.701  29.563   4.835
94873W        W67199  34.903  24.006   4.772
94874W        W67200   7.880   2.734   2.674
94875W        W67201  20.677  35.516  11.109
94876W        W67202  21.687   5.828   1.854
94877W        W67203  42.874  20.095   1.739
94878W        W67204  35.483  15.762   3.793
94879W        W67205  11.276  20.138   0.828
94880W        W67206   5.267  12.830  13.959
94881W        W67207   8.253   4.720  13.317
94882W        W67208  24.168  26.597   5.315
94883W        W67209  24.072  32.532   2.788
94884W        W67210  28.527   2.416  14.871
94885W        W67211  39.950  10.357  10.576
94886W        W67212  16.233  43.455  13.833
94887W        W67213  36.989   8.356   0.369
94888W        W67214   7.715  19.560  12.383
94889W        W67215  29.098  28.489  13.870
94890W        W67216  11.312  12.768   0.467
94891W        W67217   1.835  39.879   0.880
94892W        W67218  28.101  22.667  13.547
94893W        W67219  25.529   0.785   1.766
94894W        W67220  10.878  18.597  12.839
94895W        W67221   0.330  20.065   0.259
94896W        W67222  36.474   0.300  12.386
94897W        W67223  25.129  31.473  12.096
94898W        W67224  22.695  31.584   3.819
94899W        W67225   7.732  27.957   4.690
94900W        W67226  11.724   2.877  14.437
94901W        W67227   9.349  21.259  13.352
94902W        W67228  38.360   9.300  11.945
94903W        W67229  18.293   7.215  10.420
94904W        W67230  36.545  25.170  11.088
94905W        W67231  15.179  39.963  14.392
94906W        W67232  14.160  16.184   4.729
94907W        W67233  21.230  25.160  10.536
94908W        W67234  44.460  17.569  10.537
94909W        W67235   2.387  17.095   5.118
94910W        W67236  24.024  36.439   4.760
94911W        W67237  41.351   5.328   1.868
94912W        W67238   5.695  26.541  10.513
94913W        W67239   9.262   1.747   4.291
94914W        W67240   9.263  11.799  12.527
94915W        W67241  38.968  42.890  11.041
94916W        W67242  21.257  42.967  12.953
94917W        W67243  30.484  26.084   0.367
94918W        W67244  25.030  32.489  11.545
94919W        W67245  35.522  12.346   9.977
94920W        W67246  10.165  37.055  11.056
94921W        W67247  10.745  31.568  14.785
94922W        W67248  30.644  22.213  14.948
94923W        W67249  44.758   1.759  10.416
94924W        W67250   4.209  36.401   1.926
94925W        W67251  38.836   4.287  14.909
94926W        W67252  41.828  20.719  14.897
94927W        W67253  31.591   9.206  10.593
94928W        W67254  17.701  16.787  12.568
94929W        W67255  14.670  35.603   5.287
94930W        W67256  14.777  10.657   3.653
94931W        W67257  22.215  44.845  11.019
94932W        W67258  13.215  14.834   1.350
94933W        W67259  24.016  19.660   2.729
94934W        W67260  30.010   1.957  13.956
94935W        W67261   3.393  30.988   1.890
94936W        W67262  26.198   0.324  14.366
94937W        W67263  30.007   1.916   3.149
94938W        W67264  36.383   8.178  13.500
94939W        W67265  20.133   9.331   2.880
94940W        W67266  37.836  27.071   0.812
94941W        W67267  43.270  44.002  13.916
94942W        W67268   7.900  16.606  11.461
94943W        W67269   7.835   2.275  14.387
94944W        W67270   5.694  27.176   3.824
94945W        W67271  17.789  22.691  13.043
94946W        W67272  42.997  30.137   3.639
94947W        W67273  32.462  44.783  12.574
94948W        W67274  18.063  29.037   2.856
94949W        W67275   9.829  12.731  10.905
94950W        W67276  44.789  35.964  12.030
94951W        W67277   3.285   9.394  10.578
94952W        W67278   1.419   8.385   4.126
94953W        W67279  39.940  18.590  12.418
94954W        W67280  12.307  16.286   3.251
94955W        W67281  24.033   7.196  12.948
94956W        W67282  18.717  44.446   4.331
94957W        W67283   0.325  14.312   3.242
94958W        W67284  26.662  42.910   0.263
94959W        W67285  23.213  38.406  14.804
94960W        W67286   0.301  14.747  10.549
94961W        W67287  22.715   5.914   3.224
94962W        W67288  24.077  39.520  13.992
94963W        W67289   6.300   2.885  13.997
94964W        W67290  44.985   6.330   0.761
94965W        W67291  14.738   9.714   0.820
94966W        W67292  15.096   4.728  14.394
94967W        W67293  25.126   0.927  13.941
94968W        W67294  44.314   0.872  11.100
94969W        W67295  34.936  39.881  11.075
94970W        W67296  27.655  27.451   2.185
94971W        W67297   9.798  19.571   3.240
94972W        W67298   9.820   9.288  10.977
94973W        W67299   0.457   9.652   3.826
94974W        W67300  10.296   0.293   0.345
94975W        W67301   5.822   2.911  11.441
94976W        W67302  39.353  29.970  13.326
94977W        W67303  13.187   7.714   1.774
94978W        W67304   0.901  16.680   1.223
94979W        W67305  14.763  25.171   3.357
94980W        W67306  20.548  34.941  14.903
94981W        W67307  12.151  11.163   4.222
94982W        W67308  40.001  40.307   2.714
94983W        W67309  23.091  20.271  12.474
94984W        W67310  24.585  33.610   3.242
94985W        W67311  20.166  32.926   3.295
94986W        W67312   9.151  29.152  11.991
94987W        W67313  41.404  42.321   2.878
94988W        W67314  15.685   1.937   4.227
94989W        W67315  16.266  21.515   4.661
94990W        W67316  22.230  29.577  14.411
94991W        W67317  25.476  39.325   3.761
94992W        W67318  38.872  28.464   3.298
94993W        W67319  22.722  37.348   1.831
94994W        W67320  37.033  11.179  14.872
94995W        W67321  13.711  36.372  11.564
94996W        W67322   4.337   5.385  13.358
94997W        W67323  20.537  11.340  11.461
94998W        W67324  11.856  17.291  13.360
94999W        W67325  41.386  35.865  14.032
95000W        W67326  32.008  23.665  12.563
95001W        W67327  23.075  37.995   4.684
95002W        W67328  32.392   6.191  12.838
95003W        W67329   1.390  24.622   1.786
95004W        W67330  36.973   1.838   3.203
95005W        W67331  36.013  12.762   3.304
95006W        W67332  36.976  11.819  13.866
95007W        W67333  22.606  26.515  10.569
95008W        W67334  21.733  35.418   4.173
95009W        W67335  33.556  29.443   4.648
95010W        W67336  33.959   7.400   0.351
95011W        W67337  33.523   1.320   1.762
95012W        W67338  19.184  29.495  12.554
95013W        W67339  30.085  42.418   2.345
95014W        W67340  36.504  39.904   2.680
95015W        W67341  43.302  20.129  13.501
95016W        W67342  13.728   2.439  14.464
95017W        W67343   7.710   7.187   0.337
95018W        W67344  21.614  16.737  12.920
95019W        W67345  24.507  34.378  13.521
95020W        W67346   9.168  30.573   0.338
95021W        W67347   5.196  29.640  14.990
95022W        W67348   0.321  40.029   4.220
95023W        W67349  37.867  17.153   0.855
95024W        W67350  21.168  43.967  12.439
95025W        W67351  41.317  14.717  13.978
95026W        W67352  36.895  12.170   1.437
95027W        W67353  34.863  27.516  14.479
95028W        W67354  34.416  16.624   4.803
95029W        W67355   7.882  33.538  12.940
95030W        W67356  15.772   0.860   3.868
95031W        W67357  42.938  15.593   2.784
95032W        W67358   0.390  15.728   4.672
95033W        W67359  26.135   5.226  13.018
95034W        W67360  19.570   2.939  12.032
95035W        W67361  42.321  13.288   2.698
95036W        W67362  44.900  11.627   1.350
95037W        W67363  18.656  30.078   1.416
95038W        W67364   5.930  18.707  11.611
95039W        W67365  31.603   6.249  13.886
95040W        W67366  43.929  36.932  13.449
95041W        W67367   4.913  11.707   9.937
95042W        W67368  35.481  23.235  11.103
95043W        W67369   3.807  37.517   0.332
95044W        W67370   5.228  34.955  13.496
95045W        W67371  41.368  28.948  12.044
95046W        W67372  18.546   6.319   4.282
95047W        W67373  32.021  39.884  12.938
95048W        W67374   6.303  20.722   1.805
95049W        W67375  42.319   1.887  10.603
95050W        W67376  26.185   6.295  13.844
95051W        W67377  40.369  18.632   0.402
95052W        W67378  38.445  11.640   0.257
95053W        W67379   0.918  29.657  10.469
95054W        W67380  23.092   9.231   4.833
95055W        W67381  18.058  27.474  11.958
95056W        W67382  30.938  44.778  14.372
95057W        W67383  40.496  13.647   1.894
95058W        W67384  39.972   7.317   4.316
95059W        W67385   8.204  18.169   2.822
95060W        W67386  37.497  34.043  13.813
95061W        W67387  34.410  12.301  14.362
95062W        W67388  44.306  27.679   1.822
95063W        W67389   3.408  19.063  11.118
95064W        W67390   2.957   0.343  12.070
95065W        W67391  41.516   6.827  10.440
95066W        W67392  29.091  27.565  11.384
95067W        W67393   0.326  39.929  14.929
95068W        W67394  16.190  43.357  12.515
95069W        W67395  27.456  42.874   3.791
95070W        W67396  20.036  31.511  14.846
95071W        W67397  27.953   6.918  14.496
95072W        W67398  34.949  31.139   4.193
95073W        W67399  19.213  15.817   2.316
95074W        W67400  12.738   8.250  12.058
95075W        W67401  37.343  20.040  14.323
95076W        W67402  26.650   2.798   3.345
95077W        W67403  11.259  27.954   2.332
95078W        W67404  33.512   2.310   3.333
95079W        W67405  36.053  25.613  10.624
95080W        W67406  39.984  19.267  11.877
95081W        W67407  26.538  12.814  14.917
95082W        W67408   2.904  44.294   4.260
95083W        W67409  18.698   5.236  11.430
95084W        W67410  28.673  28.177   2.692
95085W        W67411  39.374   6.298   1.874
95086W        W67412  26.167  22.596  12.885
95087W        W67413   8.181   4.428   4.710
95088W        W67414  41.300  29.502  14.492
95089W        W67415  28.120  16.584   4.126
95090W        W67416  43.889  37.573  12.491
95091W        W67417  36.375  31.421   3.229
95092W        W67418   6.848   8.305  12.040
95093W        W67419  37.387  28.519   4.143
95094W        W67420  21.044  42.359  11.547
95095W        W67421  41.425  21.197  14.439
95096W        W67422  32.041  10.829  13.915
95097W        W67423  17.793  43.319   4.829
95098W        W67424   9.794   2.939   4.163
95099W        W67425  44.770  39.982  13.455
95100W        W67426  13.154  21.563   2.679
95101W        W67427  20.180  19.048   2.840
95102W        W67428   8.263   9.796  13.986
95103W        W67429  38.012   5.413  13.507
95104W        W67430  29.959  28.044  13.528
95105W        W67431  33.612  38.935   2.308
95106W        W67432  29.531   2.727  10.536
95107W        W67433   6.214   2.398   5.105
95108W        W67434  20.683  39.936   2.769
95109W        W67435  22.127  42.403  13.310
95110W        W67436  38.445   6.771  12.952
95111W        W67437  35.023  35.410   2.305
95112W        W67438  19.123  29.086   4.782
95113W        W67439  11.704  24.687   3.265
95114W        W67440  38.943  13.284   4.153
95115W        W67441   0.966  42.418   2.798
95116W        W67442  26.088  43.428   3.814
95117W        W67443  26.018  14.323   0.881
95118W        W67444  33.456  35.099   9.445
95119W        W67445  30.075  33.971   1.854
95120W        W67446  21.236  41.018  13.895
95121W        W67447  37.877  33.579   1.419
95122W        W67448  42.011  23.513  10.615
95123W        W67449   4.208  10.335  12.964
95124W        W67450  11.229   3.417  14.889
95125W        W67451  34.549  31.986  14.299
95126W        W67452   4.701  42.880   1.810
95127W        W67453  32.552  19.775  13.964
95128W        W67454  22.226   2.252   0.414
95129W        W67455  20.059  23.601  14.025
95130W        W67456  32.436   3.243   0.378
95131W        W67457  37.951  17.685  14.024
95132W        W67458  30.460  10.718   1.742
95133W        W67459  23.120  23.685   2.680
95134W        W67460   4.272  10.150  14.459
95135W        W67461  17.297  20.709  10.103
95136W        W67462  20.216  43.857  11.118
95137W        W67463  29.605  26.649   4.782
95138W        W67464  24.612  34.471   3.285
95139W        W67465  18.177  41.410   1.232
95140W        W67466  31.494   0.745  12.518
95141W        W67467   0.775  31.005  14.509
95142W        W67468  43.863   8.664  12.981
95143W        W67469  18.150  36.977  12.082
95144W        W67470   8.661  11.781   3.733
95145W        W67471  42.408  16.291   4.782
95146W        W67472  43.470  27.522  14.288
95147W        W67473   5.695  24.075   1.418
95148W        W67474  40.985   5.357   2.327
95149W        W67475   3.379  32.942   4.299
95150W        W67476  37.067  30.923  11.403
95151W        W67477  23.719  30.442  11.014
95152W        W67478  41.511   1.855  10.447
95153W        W67479  24.150  22.118   1.712
95154W        W67480   6.361  20.698   0.867
95155W        W67481   8.843  20.240  11.904
95156W        W67482  27.952  39.985   4.297
95157W        W67483  17.676  29.548  13.851
95158W        W67484  13.819  35.907  14.356
95159W        W67485  20.570  14.741  10.419
95160W        W67486  38.906  44.369   4.818
95161W        W67487  11.862  33.405   2.879
95162W        W67488  17.757   4.358  13.422
95163W        W67489  16.208   3.307   1.343
95164W        W67490  44.950  15.585   1.449
95165W        W67491  38.554   6.218  10.929
95166W        W67492  10.782   3.351   1.252
95167W        W67493  35.950  15.709   0.445
95168W        W67494  26.618  11.813   4.618
95169W        W67495  15.675  42.438  10.538
95170W        W67496  24.976   2.331   1.404
95171W        W67497   0.478  25.989   0.869
95172W        W67498  28.501  40.870  13.391
95173W        W67499   0.771   3.377  12.075
95174W        W67500   8.806  22.134   0.429
95175W        W67501  14.316  36.029   0.874
95176W        W67502  28.524  42.993  11.059
95177W        W67503  15.198   2.356   2.192
95178W        W67504  25.065  24.644  12.053
95179W        W67505   4.447  42.465  11.879
95180W        W67506  29.494  32.987  11.032
95181W        W67507   0.263   7.205   2.375
95182W        W67508  33.931   7.343  14.852
95183W        W67509  44.903  10.864  14.806
95184W        W67510  10.291   0.898   3.844
95185W        W67511   2.746   0.469  13.815
95186W        W67512  32.631  36.474  10.557
95187W        W67513  29.919   2.283   3.245
95188W        W67514  21.206   8.314   3.203
95189W        W67515   7.292  39.963   3.360
95190W        W67516  20.659  40.798   1.291
95191W        W67517  41.035   0.314  14.992
95192W        W67518  19.182  38.992  12.418
95193W        W67519  20.653   8.685  10.596
95194W        W67520  42.882   9.684   0.295
95195W        W67521  32.473  38.446  13.804
95196W        W67522  35.599  11.280   2.777
95197W        W67523   5.234  14.301   3.325
95198W        W67524  14.731   3.933  13.847
95199W        W67525  34.400   5.371   2.688
95200W        W67526  29.014  21.019  14.406
95201W        W67527  43.419  21.541  13.421
95202W        W67528   8.402  39.014  13.795
95203W        W67529   5.758   0.897   0.838
95204W        W67530  42.914   3.408  11.007
95205W        W67531  35.567  30.604   3.782
95206W        W67532   7.745   9.277   2.237
95207W        W67533  42.371  41.487  13.961
95208W        W67534  27.189  44.754  13.839
95209W        W67535  25.144  21.067   3.684
95210W        W67536  41.303   5.791  11.493
95211W        W67537  16.568  44.760   4.226
95212W        W67538  22.087   4.269   2.381
95213W        W67539  19.230  40.504   1.877
95214W        W67540   2.785   2.916  14.417
95215W        W67541  29.021  27.520   0.859
95216W        W67542  34.875   5.222   2.839
95217W        W67543  37.358  38.039   0.805
95218W        W67544  42.312   8.791   1.899
95219W        W67545  44.436  18.653   4.786
95220W        W67546   2.427   2.271   5.633
95221W        W67547  31.419  22.558   3.689
95222W        W67548   5.423  37.897   1.798
95223W        W67549  16.758  15.216  14.305
95224W        W67550  43.466  34.453  12.540
95225W        W67551   9.661  37.566   3.810
95226W        W67552  10.637  31.420  10.535
95227W        W67553   5.366  21.021  11.418
95228W        W67554  27.130  26.093   3.821
95229W        W67555  18.221  13.124   1.266
95230W        W67556   2.462  19.145   4.238
95231W        W67557  41.898   3.759  13.803
95232W        W67558  12.616   3.244   1.371
95233W        W67559  22.075  35.028  11.452
95234W        W67560  16.187  15.161  10.466
95235W        W67561  24.215  13.799   4.766
95236W        W67562  40.004   8.889  13.928
95237W        W67563  19.747  42.525  11.458
95238W        W67564   4.374  26.492  11.018
95239W        W67565  24.084  19.203   3.775
95240W        W67566   7.834  25.024   1.725
95241W        W67567   0.345  44.263   2.305
95242W        W67568  32.893  23.088   3.280
95243W        W67569  11.635  40.968  14.960
95244W        W67570  31.418  19.678  14.307
95245W        W67571  33.500  16.567  12.376
95246W        W67572  27.649  29.508   9.947
95247W        W67573  16.774   2.365   1.327
95248W        W67574  43.417  42.316   3.649
95249W        W67575   4.905  14.194   5.287
95250W        W67576  34.062  41.992  11.016
95251W        W67577  26.534  27.086  12.452
95252W        W67578  24.071  30.633  11.982
95253W        W67579   4.940  24.497   4.304
95254W        W67580  41.435  32.072   4.136
95255W        W67581   2.956   2.451  10.928
95256W        W67582  36.959   4.331   3.833
95257W        W67583  38.022  24.027   0.788
95258W        W67584  15.660  31.420   4.304
95259W        W67585   7.326  37.454   1.828
95260W        W67586  28.010  24.641   3.698
95261W        W67587  26.062  36.044  11.039
95262W        W67588  39.324  33.972  11.858
95263W        W67589   6.856  43.825  14.959
95264W        W67590  17.296  40.975   2.237
95265W        W67591  16.752  21.527   3.813
95266W        W67592  11.348  10.873  14.861
95267W        W67593  22.140  26.188   1.400
95268W        W67594  27.552  22.615  11.017
95269W        W67595  34.102  37.028  13.823
95270W        W67596  11.246  34.372   4.678
95271W        W67597  43.354  43.944  11.987
95272W        W67598  19.745  17.649  13.041
95273W        W67599  19.653  13.108  11.481
95274W        W67600  41.460  12.799  10.934
95275W        W67601  39.015   7.248   2.833
95276W        W67602  18.778  17.762  13.464
95277W        W67603   2.333  40.440  10.626
95278W        W67604   2.378  20.754   4.267
95279W        W67605  41.839  21.072   4.261
95280W        W67606   4.261  44.794   1.721
95281W        W67607  13.154  20.769   1.768
95282W        W67608  38.973  37.904   1.210
95283W        W67609  40.403  28.117   2.712
95284W        W67610   0.958  16.725  11.570
95285W        W67611  42.326  30.440  11.084
95286W        W67612   6.780  14.707  10.439
95287W        W67613  17.265  28.014  12.546
95288W        W67614  12.234  39.027  12.830
95289W        W67615  38.858  17.304   1.316
95290W        W67616  40.334  24.991   3.676
95291W        W67617  40.869  35.579  14.276
95292W        W67618   8.846  12.190   3.296
95293W        W67619  19.155  31.455  14.313
95294W        W67620  28.641  19.650  11.380
95295W        W67621  29.442  19.645  13.882
95296W        W67622  21.740   4.341   4.809
95297W        W67623  37.895  37.496  14.964
95298W        W67624  42.989   2.262  12.965
95299W        W67625  11.335  18.596   1.340
95300W        W67626  14.149  12.641  11.946
95301W        W67627   9.879  32.537   1.272
95302W        W67628  43.436  28.019   1.229
95303W        W67629   4.306  32.559  12.480
95304W        W67630   6.351  30.601   0.769
95305W        W67631  11.744   8.690   4.143
95306W        W67632   4.934  35.855   4.783
95307W        W67633  20.130  36.078  14.835
95308W        W67634  37.447  39.465  13.985
95309W        W67635  23.163  23.016   2.779
95310W        W67636  26.973   4.828  10.600
95311W        W67637  30.971  39.063  14.784
95312W        W67638  44.442  17.109   3.227
95313W        W67639  39.455   2.910  12.519
95314W        W67640  38.482  43.480   3.296
95315W        W67641  36.537   4.295   3.818
95316W        W67642  25.004  42.311   4.258
95317W        W67643  25.480  44.303   1.405
95318W        W67644  28.958  20.167   2.788
95319W        W67645  32.473   0.405   3.661
95320W        W67646   4.353  36.097   3.719
95321W        W67647  24.104   1.739   2.878
95322W        W67648   9.659  36.860   3.641
95323W        W67649   2.801   1.919  13.797
95324W        W67650   5.277  34.954   4.149
95325W        W67651  26.054   0.876   0.729
95326W        W67652  44.398  22.716  13.837
95327W        W67653  41.360  39.323  12.897
95328W        W67654   7.747  31.537   0.478
95329W        W67655  25.972  40.443  11.567
95330W        W67656   0.473  19.163   4.702
95331W        W67657  24.723  19.217   3.374
95332W        W67658  40.036  26.503   0.853
95333W        W67659  21.566  12.139   0.307
95334W        W67660  23.549  18.284   3.163
95335W        W67661   3.440  14.639  11.938
95336W        W67662  24.154  10.247  12.830
95337W        W67663   1.897  18.577  13.482
95338W        W67664  24.151  29.012   4.151
95339W        W67665  39.980  37.024   0.956
95340W        W67666   6.413  39.395   4.815
95341W        W67667  19.655  33.976   1.842
95342W        W67668   8.896  21.617  12.832
95343W        W67669  31.916  18.231  10.082
95344W        W67670  25.693  31.942  12.342
95345W        W67671  34.550   0.309  14.425
95346W        W67672  39.462  11.271   0.882
95347W        W67673  15.223  34.445  10.581
95348W        W67674   5.831  36.075  14.882
95349W        W67675  37.953  36.475   0.378
95350W        W67676  44.842  16.708  12.374
95351W        W67677  22.210  19.538   3.307
95352W        W67678   5.897   6.791  11.542
95353W        W67679  28.020  37.469   2.186
95354W        W67680  31.920  40.023   4.646
95355W        W67681  21.588  20.565   1.281
95356W        W67682  14.259  27.092   4.688
95357W        W67683  33.899  21.630  11.606
95358W        W67684   8.657  12.784   1.338
95359W        W67685  38.979  39.402   9.965
95360W        W67686  17.136  36.859   2.713
95361W        W67687  35.462  13.647   4.798
95362W        W67688  43.896  21.223  10.999
95363W        W67689  19.548  25.707  13.466
95364W        W67690  12.634  44.498  11.559
95365W        W67691  31.934  20.538  11.029
95366W        W67692  22.098  11.316  10.998
95367W        W67693  10.195  31.931   1.855
95368W        W67694  42.943  31.618   2.308
95369W        W67695   5.887  30.037   1.928
95370W        W67696   8.195   7.315   4.240
95371W        W67697  10.636  35.477   1.350
95372W        W67698   2.256  43.889   1.395
95373W        W67699  10.247  37.009  10.643
95374W        W67700  15.198  41.531  11.910
95375W        W67701  17.586  15.796   3.227
95376W        W67702  24.008  31.084   1.726
95377W        W67703  24.593  37.492  14.763
95378W        W67704  33.947  41.335  10.887
95379W        W67705  27.990  12.233  10.435
95380W        W67706  12.152   5.305  10.620
95381W        W67707  20.113  15.822   0.905
95382W        W67708  30.556  35.363  14.365
95383W        W67709  14.635   6.851  13.831
95384W        W67710  40.498   2.756   0.907
95385W        W67711  31.099  16.765   2.217
95386W        W67712  15.728  27.633   3.831
95387W        W67713  17.782  26.595   3.821
95388W        W67714  30.467  35.505   2.342
95389W        W67715  12.795  26.626   3.865
95390W        W67716   5.903   2.458  10.983
95391W        W67717  14.673   3.954   4.785
95392W        W67718  16.595  13.138   2.773
95393W        W67719   9.240  33.064   1.282
95394W        W67720  40.524  43.376  10.472
95395W        W67721  42.879  20.618  14.793
95396W        W67722  15.174  15.623  12.084
95397W        W67723  30.598  31.109  11.382
95398W        W67724  27.509  29.038  13.976
95399W        W67725  11.253   7.330   4.141
95400W        W67726   6.780  21.630   4.716
95401W        W67727  37.934   0.800  10.994
95402W        W67728  24.601  22.104   4.248
95403W        W67729   4.227  22.025   1.769
95404W        W67730  14.141  25.123   9.493
95405W        W67731  31.447   8.675   2.888
95406W        W67732  34.508  16.263  12.435
95407W        W67733  24.024  13.620  14.441
95408W        W67734   2.953  27.004   1.285
95409W        W67735  43.838  25.999   4.640
95410W        W67736  18.049   7.324   2.254
95411W        W67737   5.214  13.651   3.190
95412W        W67738  36.885  22.179  13.970
95413W        W67739  39.823  20.139   2.223
95414W        W67740  17.754  18.652  11.870
95415W        W67741  44.321  14.652   4.287
95416W        W67742   8.234  22.195  12.004
95417W        W67743   4.287  44.416   3.241
95418W        W67744  42.323  32.962   1.371
95419W        W67745  36.919  27.147  11.528
95420W        W67746   0.470  12.628  12.436
95421W        W67747  33.015  11.283   2.297
95422W        W67748  30.029   0.814   1.924
95423W        W67749   2.892  16.282  14.415
95424W        W67750  15.598  39.941  10.107
95425W        W67751  13.719  29.545   1.411
95426W        W67752  34.892  30.998   3.868
95427W        W67753  33.111  13.184  13.317
95428W        W67754   7.849   3.925  14.970
95429W        W67755  11.275  26.649  13.791
95430W        W67756  26.197  16.094   4.772
95431W        W67757  43.861  13.124   1.449
95432W        W67758  31.511  26.564  11.384
95433W        W67759  10.732  18.105  14.452
95434W        W67760  43.336   7.391   0.330
95435W        W67761  15.587  19.103  13.520
95436W        W67762   6.381  30.646   1.260
95437W        W67763  22.024  37.337  14.002
95438W        W67764  23.567  39.979   0.320
95439W        W67765  13.212  21.583   2.351
95440W        W67766  39.021  14.142   0.372
95441W        W67767  28.086  12.319   0.422
95442W        W67768   6.421  11.211   2.253
95443W        W67769  34.881   5.917   4.193
95444W        W67770  13.695  24.710  10.972
95445W        W67771   1.298   6.287   0.268
95446W        W67772   9.186  20.247   2.691
95447W        W67773  24.592   1.971  14.494
95448W        W67774  29.477   0.346   3.871
95449W        W67775  42.427  13.706  13.314
95450W        W67776  19.185  44.480   1.264
95451W        W67777  26.186   2.242   1.329
95452W        W67778   6.420  26.545   3.646
95453W        W67779  32.135  23.489   3.668
95454W        W67780  27.564   5.926  12.367
95455W        W67781  33.613  29.924  14.831
95456W        W67782  20.043  32.607   3.335
95457W        W67783   6.415  12.286  11.895
95458W        W67784  24.168  35.926  11.977
95459W        W67785   1.750   2.429   5.191
95460W        W67786  42.987   8.791   3.711
95461W        W67787  30.619  33.386   3.839
95462W        W67788  16.131  20.062   0.888
95463W        W67789  23.692  44.374   3.846
95464W        W67790  11.221  21.136  11.095
95465W        W67791  16.603  15.150  11.856
95466W        W67792  25.146  43.935   4.282
95467W        W67793   3.892  36.956  14.484
95468W        W67794  27.448  19.154  13.959
95469W        W67795  18.057  38.413   1.709
95470W        W67796  41.865  13.238  13.031
95471W        W67797  44.343  44.344   0.305
95472W        W67798  22.544   2.449   2.216
95473W        W67799  17.275   7.805  13.887
95474W        W67800  43.316  19.212  14.320
95475W        W67801  13.235  14.172   0.306
95476W        W67802  14.268   0.755  10.446
95477W        W67803  42.382  30.115   1.315
95478W        W67804  15.182  18.645   0.832
95479W        W67805  14.667  38.465   1.308
95480W        W67806  20.270  40.967   2.900
95481W        W67807  24.055   0.459  13.394
95482W        W67808   7.321   4.863   2.402
95483W        W67809   8.178  33.974   1.405
95484W        W67810  41.487  21.658  13.015
95485W        W67811  26.151  17.178  13.894
95486W        W67812  36.056   1.776  12.041
95487W        W67813  10.340  32.051  14.866
95488W        W67814  35.009  15.595  13.933
95489W        W67815  34.565   1.442  13.926
95490W        W67816  36.000   6.887  14.794
95491W        W67817  16.770  15.180   4.146
95492W        W67818  20.151  13.778  14.315
95493W        W67819  18.134  43.388  12.486
95494W        W67820  29.600  43.770   0.756
95495W        W67821  20.195  18.692  13.511
95496W        W67822  30.553  30.000  14.325
95497W        W67823  10.340  19.774  10.936
95498W        W67824  38.420   9.792   0.869
95499W        W67825  24.046  35.408   4.294
95500W        W67826  39.446  15.690  12.493
95501W        W67827   2.435  35.483   1.365
95502W        W67828  36.530   5.378   0.901
95503W        W67829  31.430  39.509   2.281
95504W        W67830   5.438  13.199  12.947
95505W        W67831  29.559   7.708   0.812
95506W        W67832  27.679  33.414   0.427
95507W        W67833  30.033  42.859   2.272
95508W        W67834  41.854  10.330   0.290
95509W        W67835  15.802  14.792   2.377
95510W        W67836   2.344  35.567   3.812
95511W        W67837  11.293  15.687   0.335
95512W        W67838  12.752   4.251  12.967
95513W        W67839  30.973  12.669  13.874
95514W        W67840  10.843  21.101   5.161
95515W        W67841   9.855  32.956   1.721
95516W        W67842  26.553  30.947  14.313
95517W        W67843  14.157  36.036   3.794
95518W        W67844  40.008   0.893  10.501
95519W        W67845  14.304  17.217   2.876
95520W        W67846  24.582  37.941   5.303
95521W        W67847  19.583  14.178   4.195
95522W        W67848  32.078  36.544   3.828
95523W        W67849   9.360  39.056   3.668
95524W        W67850  19.570  14.306   0.879
95525W        W67851  35.082   9.243   1.239
95526W        W67852  43.415  26.644   1.773
95527W        W67853   9.336  39.929   0.367
95528W        W67854  36.573  42.352   1.227
95529W        W67855  27.461  33.396   4.227
95530W        W67856  23.513  25.059  14.476
95531W        W67857  35.057  34.891  11.418
95532W        W67858  15.096   7.719   4.208
95533W        W67859  32.057  17.261   4.836
95534W        W67860  12.189  27.108   5.719
95535W        W67861  30.492  44.467   0.265
95536W        W67862  23.201   6.892   1.772
95537W        W67863  20.166  42.464  11.433
95538W        W67864  42.455  29.134   4.312
95539W        W67865   0.826  34.430  12.550
95540W        W67866  30.124   5.688   2.416
95541W        W67867  38.824  26.459  11.904
95542W        W67868  31.094  40.357  10.512
95543W        W67869  23.097  26.635  14.502
95544W        W67870   2.852  16.117   0.897
95545W        W67871  26.681  40.350   3.368
95546W        W67872  42.298  22.139  12.050
95547W        W67873  23.031   2.296   4.688
95548W        W67874  26.560  10.741   4.310
95549W        W67875  24.662   3.392  13.334
95550W        W67876  37.479  12.789  13.857
95551W        W67877  28.083  29.468   4.686
95552W        W67878  40.839   2.734  14.474
95553W        W67879  18.605  16.163  12.947
95554W        W67880  27.062  19.059   4.709
95555W        W67881  16.080   2.769   2.335
95556W        W67882   1.351   3.447   3.198
95557W        W67883  19.600  43.372  12.559
95558W        W67884   1.264  41.996  11.490
95559W        W67885  44.477   9.208   4.215
95560W        W67886  22.013  42.456  14.323
95561W        W67887  16.145   5.394   3.757
95562W        W67888  16.228  21.641   4.237
95563W        W67889  43.330  42.924  10.122
95564W        W67890  42.790   7.271  11.518
95565W        W67891  29.458  43.288  10.524
95566W        W67892   5.736  19.573   2.337
95567W        W67893  31.429  29.935   2.734
95568W        W67894   0.751   1.774   2.254
95569W        W67895  42.436  28.175   4.786
95570W        W67896   0.921  13.811  14.397
95571W        W67897  32.525   6.921   3.742
95572W        W67898  11.347  44.937  13.811
95573W        W67899  32.934  22.155  13.907
95574W        W67900  38.380  32.587   0.313
95575W        W67901  23.161  32.549   3.792
95576W        W67902  12.734   4.328   4.322
95577W        W67903   1.475  42.411  14.825
95578W        W67904  25.503  43.838  12.340
95579W        W67905  35.504   8.282   0.387
95580W        W67906  20.029  21.163  13.523
95581W        W67907  20.146  24.101  10.914
95582W        W67908   6.294  10.183   0.309
95583W        W67909  40.973  30.951  14.440
95584W        W67910   7.224   2.428   0.732
95585W        W67911   6.693  18.101  12.954
95586W        W67912  22.536  25.018   1.715
95587W        W67913  12.641  39.330   3.288
95588W        W67914  26.631   9.697  11.432
95589W        W67915   1.452  23.211  12.863
95590W        W67916  34.585  18.568   0.773
95591W        W67917  32.996  20.057   1.340
95592W        W67918  16.639  38.486   2.900
95593W        W67919   5.813  42.524   4.182
95594W        W67920  25.669  37.936  13.362
95595W        W67921  37.990  41.818   4.680
95596W        W67922   5.301  15.641   0.851
95597W        W67923  17.721   9.877   2.228
95598W        W67924  33.010   1.925   3.281
95599W        W67925   3.274  32.906  10.965
95600W        W67926  35.493  14.289  13.441
95601W        W67927   5.924  30.059   0.967
95602W        W67928  40.495   3.747  14.001
95603W        W67929  19.669  23.067  10.406
95604W        W67930   2.834   5.396  12.420
95605W        W67931  30.656  14.618  11.461
95606W        W67932  12.702  22.556   4.655
95607W        W67933   0.338  23.094   4.749
95608W        W67934  29.126   5.249  12.883
95609W        W67935  41.468  35.933  12.841
95610W        W67936  24.582   0.974   3.803
95611W        W67937   5.230  37.551  14.870
95612W        W67938  40.419   2.769  12.398
95613W        W67939  24.058   4.895   3.303
95614W        W67940  12.780  31.575   0.367
95615W        W67941  34.440  21.532   0.420
95616W        W67942   1.911  38.041   2.829
95617W        W67943  12.195   9.281  11.979
95618W        W67944  40.397  42.369   4.257
95619W        W67945  38.906  23.613   4.646
95620W        W67946  20.267   7.242  11.386
95621W        W67947  31.939   9.674  13.417
95622W        W67948  12.853  20.747  11.987
95623W        W67949  28.046  19.135  11.608
95624W        W67950   0.744  12.618   9.990
95625W        W67951  28.152  30.560  12.082
95626W        W67952   0.794  13.276  10.615
95627W        W67953  43.358   4.716   1.711
95628W        W67954  20.077  12.742   2.337
95629W        W67955   0.386  14.777   4.183
95630W        W67956  34.556  37.405  14.764
95631W        W67957   7.241  40.941  11.086
95632W        W67958  33.603  38.018  13.320
95633W        W67959  14.636  28.934  11.986
95634W        W67960  44.306  10.757  11.453
95635W        W67961  39.867  32.433   1.412
95636W        W67962  27.995  21.667   3.641
95637W        W67963  42.861  42.849  12.446
95638W        W67964   8.662  30.541  12.022
95639W        W67965  35.427  30.100  13.428
95640W        W67966  16.630   3.444  14.004
95641W        W67967  33.043  12.145  13.849
95642W        W67968   3.735  37.030   3.185
95643W        W67969  32.500  39.433   0.384
95644W        W67970  27.533  39.519  14.457
95645W        W67971  37.411  17.588  13.005
95646W        W67972  31.089  34.582  13.385
95647W        W67973  20.706  22.512   2.189
95648W        W67974  26.138   0.479  11.017
95649W        W67975  23.057   7.885  10.982
95650W        W67976  41.916   0.944  14.935
95651W        W67977  16.795  33.555   1.888
95652W        W67978  16.804  43.833  10.555
95653W        W67979  18.080  12.761  11.012
95654W        W67980  25.975  40.829   1.437
95655W        W67981  11.270   8.278  14.851
95656W        W67982  41.907  29.059   4.222
95657W        W67983  22.625  40.333  12.953
95658W        W67984   8.850  27.149  11.429
95659W        W67985   2.427  14.151   2.214
95660W        W67986  14.792  32.999  10.628
95661W        W67987  32.553  12.302  13.401
95662W        W67988  20.086  12.725  11.065
95663W        W67989  29.132  34.407  10.988
95664W        W67990  35.075  20.128   4.138
95665W        W67991   5.361  42.346  12.021
95666W        W67992  32.568   5.784   1.442
95667W        W67993  10.242  40.956   0.340
95668W        W67994  14.693  33.997  11.949
95669W        W67995   5.797  10.684   4.689
95670W        W67996  38.536  25.486  11.554
95671W        W67997  26.589  21.119  13.049
95672W        W67998  41.831   3.310   2.877
95673W        W67999  25.591  35.058   3.293
95674W        W68000  29.117  15.776   0.963
95675W        W68001   7.715   2.958   3.631
95676W        W68002  19.631  23.091  13.336
95677W        W68003  35.932  15.704   3.385
95678W        W68004  22.588  27.186   1.322
95679W        W68005  13.806   0.444  11.537
95680W        W68006  29.008   9.878   1.394
95681W        W68007  19.637  36.042  12.462
95682W        W68008  29.093  34.447   1.898
95683W        W68009  19.632  30.629  10.470
95684W        W68010  17.099  22.661   3.220
95685W        W68011  15.125  26.981   4.642
95686W        W68012  23.560   6.802   1.860
95687W        W68013   0.953  18.656   0.365
95688W        W68014  10.857   6.840   4.146
95689W        W68015   5.226  30.626   1.841
95690W        W68016  13.825  17.279   1.769
95691W        W68017  29.128  22.545   1.845
95692W        W68018   2.771  28.606   4.802
95693W        W68019  24.579  15.615  10.501
95694W        W68020   6.810  36.424  13.537
95695W        W68021  42.339  42.351  11.989
95696W        W68022   8.749  23.010   3.710
95697W        W68023  27.077  28.661  13.535
95698W        W68024   8.867  40.946   0.322
95699W        W68025   9.769  24.026   0.362
95700W        W68026  27.057  44.379  12.344
95701W        W68027  19.198  36.052   0.865
95702W        W68028  36.891  31.152   1.825
95703W        W68029   2.935  43.498   2.675
95704W        W68030  20.238   8.781   3.660
95705W        W68031  37.050  11.306  11.943
95706W        W68032  34.458  36.042  12.433
95707W        W68033  43.311  35.928  12.479
95708W        W68034  13.248  16.093  14.278
95709W        W68035  12.804  23.217   0.454
95710W        W68036  25.085   5.729  12.947
95711W        W68037  13.672  18.138   3.282
95712W        W68038  21.660  38.071   0.819
95713W        W68039  27.132  23.229  12.070
95714W        W68040   3.743  17.179  14.289
95715W        W68041  28.472  43.948   4.177
95716W        W68042   1.954  39.350   2.305
95717W        W68043  36.582  25.162   0.831
95718W        W68044  23.542  27.013  14.938
95719W        W68045  39.384  20.680  11.397
95720W        W68046   3.855   9.817  10.021
95721W        W68047  17.247  15.732  12.849
95722W        W68048  23.694  24.161   0.282
95723W        W68049  22.095  39.362   9.920
95724W        W68050  42.413  44.798   0.453
95725W        W68051  18.582  34.925   0.764
95726W        W68052   6.812  40.037   0.267
95727W        W68053  38.991  29.460   4.667
95728W        W68054  14.602  22.704   0.435
95729W        W68055  32.956  44.493  11.502
95730W        W68056  29.997  29.158   3.725
95731W        W68057  19.574  34.042  14.026
95732W        W68058  29.535  35.458  13.911
95733W        W68059  32.074  16.189   1.374
95734W        W68060  27.482  22.093   2.346
95735W        W68061  20.755   0.883   0.417
95736W        W68062  44.855   8.218   3.160
95737W        W68063  30.970  16.681   0.726
95738W        W68064  10.864  14.277   2.345
95739W        W68065   1.859  35.523   1.342
95740W        W68066  42.406  39.466  11.981
95741W        W68067   9.331  41.309  11.121
95742W        W68068  22.212  44.303  12.015
95743W        W68069  25.541  38.999   0.825
95744W        W68070  26.599   7.189  12.837
95745W        W68071  36.064   0.464  11.069
95746W        W68072  23.566  34.113   0.340
95747W        W68073  19.773  10.688  11.501
95748W        W68074   9.384  16.285  12.392
95749W        W68075  25.524   1.348   3.761
95750W        W68076  33.949  14.657   4.735
95751W        W68077  42.030  40.052  10.966
95752W        W68078  25.589  36.445   4.749
95753W        W68079  10.324  12.132  12.448
95754W        W68080  21.080  40.390   4.152
95755W        W68081  33.579  44.917   5.317
95756W        W68082   9.380  40.460   0.362
95757W        W68083   7.861   1.784  14.515
95758W        W68084  40.451  44.826   3.758
95759W        W68085  25.183  15.654  10.005
95760W        W68086  13.752  42.977   4.168
95761W        W68087  44.398  25.581  12.525
95762W        W68088   1.788  35.573   2.265
95763W        W68089  12.751  26.541  12.903
95764W        W68090  27.946  10.172  14.364
95765W        W68091   7.416  40.951   3.668
95766W        W68092  23.715   8.232   2.669
95767W        W68093  14.189  32.468  13.365
95768W        W68094  18.149   1.274  14.469
95769W        W68095  17.173   8.366  14.441
95770W        W68096  42.474  41.348   4.741
95771W        W68097   4.727  30.125  13.342
95772W        W68098  10.823  38.957  14.425
95773W        W68099   5.753  18.546  12.579
95774W        W68100  35.919  20.207   1.817
95775W        W68101   0.867  37.958   2.202
95776W        W68102  44.912  18.711   0.912
95777W        W68103  11.675  25.102  13.043
95778W        W68104   8.288   5.828   1.445
95779W        W68105  23.104  39.927   2.759
95780W        W68106   6.799   4.332  11.537
95781W        W68107   2.410  24.580   1.800
95782W        W68108  29.608   6.872   3.739
95783W        W68109   9.163  35.589  14.864
95784W        W68110   6.423  36.868  14.784
95785W        W68111   9.229  20.554  11.115
95786W        W68112   6.816  41.941   4.189
95787W        W68113  39.055   9.736   3.791
95788W        W68114  37.427  30.950  14.807
95789W        W68115  30.640  19.195  11.603
95790W        W68116   5.250   6.367   2.293
95791W        W68117  29.990  28.002   4.737
95792W        W68118  25.153  42.937   4.757
95793W        W68119  27.477   7.848   4.769
95794W        W68120  14.589  22.222   2.379
95795W        W68121  16.220  29.515   4.142
95796W        W68122  13.168  32.005  14.456
95797W        W68123  25.158  15.299   2.758
95798W        W68124  32.139   6.292   0.940
95799W        W68125  41.499  18.657  13.472
95800W        W68126  24.724  41.850  11.034
95801W        W68127  15.234   6.378   2.342
95802W        W68128  11.805   9.352   2.233
95803W        W68129  30.958   8.219  11.878
95804W        W68130  27.458  30.629   0.752
95805W        W68131  41.519  33.001  12.969
95806W        W68132  27.458  41.299   3.690
95807W        W68133  38.009  44.768  11.543
95808W        W68134  11.654   0.429  14.285
95809W        W68135   8.673  34.878   1.850
95810W        W68136  26.699  14.163  13.791
95811W        W68137   6.379   8.782   3.345
95812W        W68138   2.793  18.183   0.743
95813W        W68139  35.076  41.990   4.717
95814W        W68140   1.383  17.654   3.264
95815W        W68141  34.392  14.663   1.696
95816W        W68142  43.793  25.485   2.250
95817W        W68143  12.836  43.295   1.741
95818W        W68144  13.294  43.910   0.258
95819W        W68145  42.309  12.202  14.894
95820W        W68146   8.821  24.664   3.653
95821W        W68147   4.731  18.740   0.863
95822W        W68148   2.879  35.915   1.838
95823W        W68149  13.157  14.829   4.745
95824W        W68150  16.764  31.147   3.315
95825W        W68151  33.978  30.962  14.771
95826W        W68152  34.458  29.087   0.946
95827W        W68153  30.475  20.672   1.394
95828W        W68154   9.158  42.931   1.811
95829W        W68155  42.457  27.631   0.764
95830W        W68156  24.617  11.690  10.510
95831W        W68157   3.762  22.103  10.105
95832W        W68158  36.069  21.624  11.075
95833W        W68159   1.416   3.818  11.056
95834W        W68160   6.699  29.591   0.451
95835W        W68161  15.797  17.213  11.405
95836W        W68162  26.620  37.833   2.343
95837W        W68163  21.233  13.691  14.852
95838W        W68164  30.518  28.447  14.823
95839W        W68165  10.247   7.764   4.216
95840W        W68166  11.761  20.720   1.802
95841W        W68167  39.391   7.902  14.960
95842W        W68168  34.874  26.064   4.654
95843W        W68169   8.796  10.336   3.309
95844W        W68170   7.417  26.047  14.354
95845W        W68171  30.540  24.974   0.285
95846W        W68172  11.217   6.250  12.836
95847W        W68173  34.603   4.281   0.823
95848W        W68174   2.893  24.601   0.319
95849W        W68175  11.314  10.150  14.938
95850W        W68176  20.068  12.679   5.247
95851W        W68177  43.772  10.701  13.387
95852W        W68178  27.141  38.494  14.289
95853W        W68179  30.957  37.445  13.818
95854W        W68180  21.139  38.370  13.336
95855W        W68181  41.359  14.677   0.319
95856W        W68182  36.556  43.785  10.981
95857W        W68183   0.901  37.409  11.919
95858W        W68184   7.380  34.472  12.541
95859W        W68185  40.313  33.955   0.427
95860W        W68186  25.604   2.723  11.121
95861W        W68187  38.979  37.404   2.318
95862W        W68188  26.154  19.198  13.391
95863W        W68189  15.703  31.957   2.780
95864W        W68190  14.113  25.204   3.678
95865W        W68191  42.352  40.482  13.314
95866W        W68192   6.796  12.673  11.017
95867W        W68193  16.105  20.171  11.474
95868W        W68194  15.253   7.190   2.371
95869W        W68195  34.890  18.285  10.635
95870W        W68196  41.864   8.749  14.496
95871W        W68197  10.199  21.524  11.397
95872W        W68198  22.584  10.162   3.348
95873W        W68199  14.607  33.069   3.728
95874W        W68200  28.003  12.333   0.935
95875W        W68201  36.568  21.580  12.882
95876W        W68202  19.635  23.531   1.791
95877W        W68203   0.805  42.780   5.206
95878W        W68204  12.792  40.440   0.943
95879W        W68205  14.142  17.271  14.277
95880W        W68206  21.168  41.375   1.726
95881W        W68207  37.945  15.156  10.643
95882W        W68208  20.217   0.427  11.863
95883W        W68209   9.857  19.189  10.493
95884W        W68210   6.417   6.208   0.478
95885W        W68211  31.564   7.231  11.893
95886W        W68212  10.300  20.656  10.621
95887W        W68213  12.121  36.389   4.679
95888W        W68214  28.146  42.334   0.439
95889W        W68215  25.038  11.810  12.899
95890W        W68216  39.427  41.322   1.422
95891W        W68217   0.853  30.529   1.260
95892W        W68218  39.845  22.092  12.036
95893W        W68219  13.252  31.135   0.942
95894W        W68220  17.796  28.956  13.962
95895W        W68221  28.486  32.967  12.381
95896W        W68222  27.517  42.470  13.987
95897W        W68223  26.175   4.236  10.456
95898W        W68224  25.710  38.930  12.027
95899W        W68225  31.136  18.256   0.827
95900W        W68226  35.878  14.810  11.121
95901W        W68227  31.015  37.967  14.419
95902W        W68228  15.248  23.201  10.524
95903W        W68229   3.860  10.696  14.944
95904W        W68230  41.340  32.632   3.735
95905W        W68231  44.803  39.431   4.743
95906W        W68232   5.881  13.688  13.437
95907W        W68233  10.814   5.813   4.275
95908W        W68234  13.226  19.140  12.574
95909W        W68235  43.416  19.104   4.338
95910W        W68236  42.813  43.796  14.340
95911W        W68237  31.935  12.783   2.802
95912W        W68238  37.554  37.077   3.343
95913W        W68239  38.899  38.913   2.662
95914W        W68240  25.072  17.082   2.747
95915W        W68241  34.381  29.555  10.640
95916W        W68242  23.037  30.153   3.721
95917W        W68243  21.151   0.797   4.242
95918W        W68244  42.334   8.695   1.221
95919W        W68245  25.612  30.006  13.050
95920W        W68246   2.784  36.842  10.519
95921W        W68247  42.032  34.866  11.955
95922W        W68248  10.720   4.791   0.814
95923W        W68249  26.584  18.657   3.212
95924W        W68250  30.134  23.516   0.325
95925W        W68251   1.308  34.109   2.829
95926W        W68252   0.786   3.458   3.664
95927W        W68253  44.995  30.563  11.493
95928W        W68254  30.451  43.329   2.351
95929W        W68255  39.954  44.407   3.257
95930W        W68256  40.438  28.067   1.853
95931W        W68257  17.693  17.250   4.223
95932W        W68258   7.309  26.567   2.182
95933W        W68259  17.156  30.928  11.420
95934W        W68260  32.898   5.727  13.836
95935W        W68261   7.865  11.659  14.760
95936W        W68262  41.312  44.275  12.980
95937W        W68263  20.060  21.728   1.215
95938W        W68264  23.191  18.725  11.386
95939W        W68265  27.673  37.073   4.706
95940W        W68266  34.375  15.138  14.510
95941W        W68267  23.535  39.992   1.743
95942W        W68268  18.278  25.595  12.374
95943W        W68269  22.619  40.815  10.478
95944W        W68270  32.960   0.809  11.897
95945W        W68271   4.305  15.652   4.330
95946W        W68272  15.129   5.244  10.894
95947W        W68273  29.039  29.603   1.384
95948W        W68274  10.372  32.886  11.433
95949W        W68275  28.005  37.454  14.446
95950W        W68276  15.253  29.923  13.896
95951W        W68277  11.373   3.328   0.431
95952W        W68278  21.087  26.104  12.451
95953W        W68279  25.200  38.921   3.687
95954W        W68280  21.147   8.879   2.670
95955W        W68281  10.176  37.973  13.366
95956W        W68282  29.537  26.174  14.797
95957W        W68283  34.018  11.732   3.186
95958W        W68284  18.133   2.878  11.571
95959W        W68285  35.928   1.343  14.764
95960W        W68286  43.400  19.182  11.002
95961W        W68287  15.324  32.028   3.822
95962W        W68288  38.391  19.137  14.378
95963W        W68289  13.277   0.373  12.374
95964W        W68290   0.493  14.771   0.796
95965W        W68291  31.151  38.834  11.943
95966W        W68292  43.376  44.842  11.384
95967W        W68293   7.253   1.429  11.902
95968W        W68294  33.534  17.778   4.213
95969W        W68295  10.698  37.034   0.890
95970W        W68296  10.299  25.076  13.365
95971W        W68297  24.533   6.229   4.197
95972W        W68298  17.645  20.123  12.952
95973W        W68299   6.740  22.727  14.490
95974W        W68300   4.716  18.780  10.622
95975W        W68301   0.976   4.315  11.560
95976W        W68302  30.581   2.421  14.383
95977W        W68303  36.094  32.927   1.762
95978W        W68304   2.948  14.155   0.357
95979W        W68305  31.087   1.454  13.798
95980W        W68306   8.867  44.500  13.051
95981W        W68307  11.793  42.302   0.766
95982W        W68308  18.773  40.928   3.228
95983W        W68309  12.202  36.447   5.089
95984W        W68310  17.062  22.544   4.164
95985W        W68311  27.562  12.690  12.517
95986W        W68312  26.602  38.348  12.447
95987W        W68313  41.490  39.436  10.632
95988W        W68314   0.317  13.688  14.845
95989W        W68315  37.395   7.387  12.042
95990W        W68316  39.005  19.235  13.910
95991W        W68317  33.410  15.242   0.334
95992W        W68318  19.056   1.254  13.341
95993W        W68319  18.129  29.965  12.494
95994W        W68320  25.534  11.772  11.530
95995W        W68321  39.998  12.623   1.288
95996W        W68322  17.131  20.046   2.244
95997W        W68323  20.188  19.252  14.794
95998W        W68324  30.461  15.117   0.831
95999W        W68325   6.877  22.135   2.383
96000W        W68326   9.234  28.138  10.894
96001W        W68327   8.788  12.679  13.474
96002W        W68328  28.041  27.508  14.969
96003W        W68329  29.149  13.719   4.798
96004W        W68330   4.229   7.721  11.075
96005W        W68331  26.622   9.876  10.948
96006W        W68332  20.226  40.866  11.962
96007W        W68333  15.235   6.414   1.853
96008W        W68334  12.329   4.730  11.507
96009W        W68335   6.182  38.937   4.793
96010W        W68336  42.024  42.369   2.213
96011W        W68337  35.514  40.936  11.552
96012W        W68338   8.889  42.933   5.103
96013W        W68339  25.571  37.979   1.359
96014W        W68340  19.582  18.641  13.511
96015W        W68341  31.594   6.818  12.060
96016W        W68342  15.198  10.816  10.527
96017W        W68343  37.526  35.575   2.712
96018W        W68344   3.434  42.848  13.018
96019W        W68345  27.638  38.396  12.524
96020W        W68346  15.722  21.055   2.186
96021W        W68347  42.801  36.559  10.963
96022W        W68348  38.937  22.007  12.533
96023W        W68349  38.044  10.761  13.538
96024W        W68350  38.003  37.842  11.937
96025W        W68351  18.688  21.116   3.300
96026W        W68352  35.898   3.447   2.268
96027W        W68353  13.169  42.814  11.525
96028W        W68354   5.817  25.181   2.339
96029W        W68355  43.965   6.759  12.354
96030W        W68356  21.239  41.825   0.800
96031W        W68357  34.881  22.564  10.421
96032W        W68358  24.493  40.054   5.106
96033W        W68359  35.082  18.125  12.084
96034W        W68360  34.459  30.592   2.276
96035W        W68361  36.893  25.103  14.878
96036W        W68362  25.609  41.334   2.679
96037W        W68363  36.885  11.176  11.430
96038W        W68364   8.217  33.458  12.069
96039W        W68365   4.388  20.216   2.755
96040W        W68366  43.384  17.625   3.268
96041W        W68367   0.934  15.241   2.903
96042W        W68368  39.007   9.786   0.802
96043W        W68369  16.180  14.801  13.853
96044W        W68370  36.371  10.701  13.353
96045W        W68371  36.933  13.176   9.572
96046W        W68372  10.652  33.930  13.801
96047W        W68373   8.202  14.137   2.261
96048W        W68374  30.485  17.779   2.875
96049W        W68375  35.953  34.054   0.883
96050W        W68376  29.447  37.900  13.826
96051W        W68377  28.977  38.997   0.368
96052W        W68378   3.335  32.998  13.425
96053W        W68379   9.370  27.108   2.249
96054W        W68380  28.547  36.036   4.648
96055W        W68381  40.428  22.154   2.883
96056W        W68382  37.882  11.860  12.366
96057W        W68383  23.621  33.937  12.973
96058W        W68384  30.417  13.726   4.276
96059W        W68385  37.408  18.232  13.056
96060W        W68386  14.204  37.029   2.409
96061W        W68387   2.777  37.872   0.282
96062W        W68388  36.391  19.630   1.781
96063W        W68389  41.297  36.413  11.014
96064W        W68390  41.884  24.565  11.421
96065W        W68391  16.789  13.716  11.420
96066W        W68392   0.271  39.843  11.441
96067W        W68393  35.031  40.428   1.405
96068W        W68394  28.519   5.809  12.569
96069W        W68395  31.500  24.998  13.321
96070W        W68396  16.755  10.821  13.313
96071W        W68397  42.955  18.640  14.369
96072W        W68398  41.504  13.347   4.120
96073W        W68399  38.504  22.152   0.291
96074W        W68400   1.941  35.504  12.836
96075W        W68401  21.600  41.884   0.937
96076W        W68402  21.595  25.618   2.832
96077W        W68403   4.745  32.142   2.800
96078W        W68404   8.273   2.782  11.088
96079W        W68405  30.954  15.735   3.202
96080W        W68406  19.678  10.752   3.792
96081W        W68407  14.319  44.924  12.534
96082W        W68408  34.533  37.345   1.740
96083W        W68409  17.232  39.050   0.727
96084W        W68410  26.054  12.311  13.894
96085W        W68411  35.950  28.990  13.360
96086W        W68412  43.300  41.339  13.976
96087W        W68413  10.178  16.652   3.232
96088W        W68414  37.360  33.414  12.908
96089W        W68415   4.927  31.514   5.142
96090W        W68416  18.272  32.413  11.987
96091W        W68417  16.569  13.813   4.286
96092W        W68418  24.691   3.725  11.010
96093W        W68419  11.364  42.475   4.733
96094W        W68420  25.536  10.287   4.130
96095W        W68421  18.052  31.436   3.161
96096W        W68422  32.593  22.072  14.326
96097W        W68423   1.381  11.246   0.866
96098W        W68424  36.922  33.458  11.061
96099W        W68425  16.755  17.605  12.357
96100W        W68426  26.105  44.789  11.491
96101W        W68427  24.229  30.979  14.899
96102W        W68428  25.206   7.303   1.844
96103W        W68429  17.101  16.160  14.369
96104W        W68430  38.413   2.758  10.607
96105W        W68431  38.458  29.148  12.473
96106W        W68432  26.480  43.442  11.121
96107W        W68433  33.091  11.749  10.627
96108W        W68434  28.107  41.326  14.881
96109W        W68435  13.157  25.164  12.546
96110W        W68436  17.092  43.995  11.443
96111W        W68437   0.890  13.770   1.848
96112W        W68438   2.429  34.938  10.553
96113W        W68439   4.834  22.629  11.894
96114W        W68440  21.239  31.627   4.791
96115W        W68441   4.887   7.737  10.915
96116W        W68442  43.826   9.849  10.600
96117W        W68443  14.333  33.430   0.782
96118W        W68444  30.443  41.812   1.834
96119W        W68445  38.932   3.805  12.998
96120W        W68446  12.803   8.317   2.361
96121W        W68447  37.363   7.413  13.341
96122W        W68448   3.458  22.652  11.940
96123W        W68449  38.326  41.442  12.064
96124W        W68450  27.654  16.254  11.588
96125W        W68451  39.369   9.374   2.335
96126W        W68452   9.691  32.900  11.393
96127W        W68453  33.563  36.979  12.493
96128W        W68454  17.774  16.608   4.133
96129W        W68455  33.088   4.715   3.720
96130W        W68456  20.131  28.159   0.748
96131W        W68457  11.834  43.394   0.888
96132W        W68458  11.753  15.628   5.305
96133W        W68459   6.420  10.152  13.373
96134W        W68460  33.485  29.034  11.972
96135W        W68461   8.699  18.765  14.314
96136W        W68462  42.320  21.199  13.905
96137W        W68463  16.646   8.720   4.661
96138W        W68464   7.886  37.981   4.181
96139W        W68465   7.901  15.755   3.317
96140W        W68466  36.590  32.998  13.927
96141W        W68467  17.697  21.210  13.380
96142W        W68468  12.698  42.798   5.114
96143W        W68469  13.767   1.241  11.085
96144W        W68470  25.654   5.849   4.152
96145W        W68471  43.802   2.407   1.415
96146W        W68472  21.239   4.436   4.232
96147W        W68473  22.597  27.990  13.346
96148W        W68474  14.322  11.162   4.714
96149W        W68475  24.178   7.759  10.523
96150W        W68476  25.704  31.467  13.010
96151W        W68477  19.147  28.548   2.391
96152W        W68478  31.561  32.511  14.426
96153W        W68479  13.784  33.078   4.195
96154W        W68480  39.885  44.846  13.849
96155W        W68481  32.930  12.782   0.962
96156W        W68482  24.195  33.926   3.863
96157W        W68483  22.557  31.586  11.994
96158W        W68484  17.793  24.702   2.728
96159W        W68485  18.193  14.601  12.507
96160W        W68486  39.433  43.792   0.271
96161W        W68487   7.239  16.808  10.996
96162W        W68488  20.726  23.110   1.260
96163W        W68489  14.704  30.604   4.789
96164W        W68490   3.828  42.923   3.338
96165W        W68491  36.905  18.195  14.400
96166W        W68492  26.962  35.073   3.700
96167W        W68493   0.836  29.042  10.917
96168W        W68494   9.867   0.799   1.258
96169W        W68495  14.105   4.368  12.408
96170W        W68496  22.590  22.638  14.946
96171W        W68497  21.220   4.719  14.811
96172W        W68498  18.660  37.468   1.798
96173W        W68499  22.029  34.368  13.422
96174W        W68500  28.181  44.802   1.307
96175W        W68501  31.637  10.145  14.472
96176W        W68502  26.209  12.231   1.851
96177W        W68503  38.823   2.916   9.966
96178W        W68504  39.956  38.875  10.610
96179W        W68505  35.898  12.718   2.770
96180W        W68506  41.900  41.307  12.508
96181W        W68507  21.712  43.768   0.281
96182W        W68508  43.814  26.699  14.413
96183W        W68509  12.253  14.269  11.474
96184W        W68510  39.912  20.549  13.322
96185W        W68511  24.489  23.088   0.802
96186W        W68512   2.739  11.786  13.466
96187W        W68513  16.589  22.635   2.354
96188W        W68514  24.049  28.478   3.246
96189W        W68515   9.186  13.179   2.734
96190W        W68516  38.893   3.289   2.872
96191W        W68517  36.366  36.899  13.865
96192W        W68518   9.192   3.451  12.959
96193W        W68519   7.901  28.653  10.568
96194W        W68520  42.323   6.334   0.246
96195W        W68521  39.042   7.192  10.995
96196W        W68522  10.703  25.005   2.871
96197W        W68523  22.035  10.812  12.517
96198W        W68524   4.736  22.546  14.837
96199W        W68525  25.698   8.208  10.894
96200W        W68526  24.989  27.030  10.467
96201W        W68527  16.687  37.917   0.461
96202W        W68528  21.245   3.357   3.798
96203W        W68529  18.270  39.916   2.843
96204W        W68530  21.264  28.048  14.968
96205W        W68531  10.667  30.027  12.006
96206W        W68532  38.021  40.343   2.289
96207W        W68533  41.441  16.269   4.214
96208W        W68534  41.323   3.302  10.501
96209W        W68535  28.025  20.565   4.678
96210W        W68536  34.404  29.582   1.246
96211W        W68537  17.161  37.533  11.095
96212W        W68538  36.439  22.103  12.575
96213W        W68539  28.064  20.062   1.914
96214W        W68540   5.716  11.705   2.738
96215W        W68541  14.672  28.125   0.377
96216W        W68542  21.207   7.236   1.288
96217W        W68543  25.521  28.124   5.117
96218W        W68544   3.836   4.400  12.039
96219W        W68545  29.993   0.889   1.384
96220W        W68546  40.499  25.142  10.512
96221W        W68547   8.736  31.126   1.744
96222W        W68548  29.954   6.723  10.485
96223W        W68549  27.978   1.242   4.696
96224W        W68550   4.944   9.149  12.505
96225W        W68551   3.311  17.557  13.424
96226W        W68552  16.709   1.460  10.614
96227W        W68553  35.544  43.420  13.482
96228W        W68554  23.695  11.313  14.413
96229W        W68555   2.856  40.863  13.007
96230W        W68556  25.615  32.038  12.968
96231W        W68557  16.600  36.537  10.968
96232W        W68558  28.124   4.866   1.331
96233W        W68559  11.291  28.548   4.830
96234W        W68560  20.688  28.025  14.912
96235W        W68561  24.524  34.549  14.403
96236W        W68562   0.484  11.228   3.743
96237W        W68563  31.976   7.837  10.628
96238W        W68564   4.707  17.287  13.491
96239W        W68565  38.839  22.677   0.319
96240W        W68566   8.262   0.253  12.065
96241W        W68567  43.399  33.906  12.908
96242W        W68568   6.780   1.365   2.672
96243W        W68569  25.036  25.484   2.688
96244W        W68570  24.594  35.918   0.397
96245W        W68571  20.030  35.081   0.765
96246W        W68572  17.776  42.878   3.253
96247W        W68573  23.702  32.424   3.847
96248W        W68574  19.164  29.488   1.858
96249W        W68575  38.841  36.010   9.949
96250W        W68576  18.587  20.066   0.745
96251W        W68577  32.965  43.796   4.721
96252W        W68578  13.751  16.255  11.425
96253W        W68579  38.022   5.714  13.313
96254W        W68580  39.850  16.714   4.131
96255W        W68581  23.614  29.972  12.381
96256W        W68582   5.703  26.695  11.916
96257W        W68583  44.311  35.094   3.339
96258W        W68584  26.464   0.829  11.456
96259W        W68585  33.390  29.043   1.853
96260W        W68586  24.134  17.073   0.789
96261W        W68587   5.784   9.740   3.836
96262W        W68588  19.649   9.280  12.902
96263W        W68589  42.333   5.356   2.788
96264W        W68590  41.898  27.482   2.758
96265W        W68591   0.876  15.582  12.546
96266W        W68592   2.838  24.975  13.544
96267W        W68593   3.900  30.512  11.012
96268W        W68594  25.506  12.189   3.254
96269W        W68595  18.768  44.864   4.673
96270W        W68596  35.553  38.546  14.796
96271W        W68597  29.096   2.241  14.907
96272W        W68598  22.637   7.171  10.599
96273W        W68599  26.004  42.515   2.690
96274W        W68600   7.764  23.173  12.851
96275W        W68601  15.742  18.554  13.982
96276W        W68602   2.880   6.344   2.706
96277W        W68603  25.137  14.292  13.447
96278W        W68604  35.513  42.519  11.931
96279W        W68605   3.757  11.720   1.736
96280W        W68606  32.450  44.353  10.043
96281W        W68607  17.623   2.263   3.680
96282W        W68608  31.602  41.787  12.999
96283W        W68609  44.795  37.522  11.387
96284W        W68610  36.478   8.709  14.336
96285W        W68611  41.346  16.175  14.410
96286W        W68612  37.363  26.604  11.433
96287W        W68613  24.673  38.454   4.664
96288W        W68614  12.259   4.407   4.774
96289W        W68615  17.117  39.978  12.069
96290W        W68616  42.816  18.275  10.076
96291W        W68617   8.298  18.647  12.574
96292W        W68618  27.532   2.433  11.462
96293W        W68619  33.043   7.774  11.973
96294W        W68620   1.474   2.288   4.649
96295W        W68621  44.277  39.847  11.977
96296W        W68622  15.220  35.927  14.869
96297W        W68623  26.637  35.564   0.373
96298W        W68624  19.176   6.222   4.639
96299W        W68625   7.319  23.171   4.615
96300W        W68626  11.372  37.967  10.579
96301W        W68627  37.559   5.204   0.931
96302W        W68628  23.033  16.579   1.797
96303W        W68629  26.546  25.128   4.692
96304W        W68630  23.509  16.697  10.620
96305W        W68631  22.010  24.634   2.778
96306W        W68632  26.470  29.947  13.008
96307W        W68633  25.021   9.162   3.297
96308W        W68634  10.177   6.799   0.868
96309W        W68635  27.969  39.467   2.241
96310W        W68636  25.149  41.316   0.427
96311W        W68637   0.886  38.881   3.230
96312W        W68638  36.929   8.746  14.959
96313W        W68639   0.397  35.925   2.900
96314W        W68640  18.723   5.898   2.211
96315W        W68641  19.273   8.817   4.813
96316W        W68642  24.168  34.600  11.399
96317W        W68643  23.496  12.360   0.399
96318W        W68644   0.318  30.040  10.993
96319W        W68645  37.506  14.738  12.089
96320W        W68646   5.738  34.887  11.432
96321W        W68647  14.810  14.118  12.520
96322W        W68648   0.406  39.431  10.982
96323W        W68649  23.122  30.131   0.414
96324W        W68650  23.497   1.405   2.363
96325W        W68651  10.875  13.264  13.027
96326W        W68652  35.573  43.809  12.539
96327W        W68653  37.016   7.404   1.361
96328W        W68654  40.537  22.683   4.752
96329W        W68655  18.712   8.383   3.630
96330W        W68656  29.032  28.169  11.034
96331W        W68657   3.322  23.208   5.234
96332W        W68658  25.470  38.482  10.612
96333W        W68659  38.374   0.320   0.805
96334W        W68660  32.438  27.002   2.746
96335W        W68661  37.861  27.113   3.188
96336W        W68662   2.277  36.374   0.428
96337W        W68663  18.621   2.818   3.791
96338W        W68664   8.266  22.618  13.386
96339W        W68665  41.927  30.141  11.050
96340W        W68666  37.353  29.974   4.650
96341W        W68667  10.758  38.953  10.936
96342W        W68668  29.526  20.228  11.993
96343W        W68669  33.060  23.057   2.340
96344W        W68670  15.303   0.962   0.912
96345W        W68671   0.364   8.698   3.735
96346W        W68672  22.115  43.764  10.602
96347W        W68673  14.288   1.764   4.173
96348W        W68674  29.474   1.844   4.617
96349W        W68675  18.602  16.672  13.884
96350W        W68676   0.848  20.049   2.365
96351W        W68677  44.001  25.485   3.848
96352W        W68678   8.691  29.966  11.915
96353W        W68679  39.056   3.288  12.873
96354W        W68680   5.387  10.239  11.020
96355W        W68681   0.853   4.708  12.974
96356W        W68682  44.888  26.656   4.687
96357W        W68683   8.679   1.258   4.264
96358W        W68684  40.004   7.312  11.099
96359W        W68685  24.072  15.629  11.472
96360W        W68686  14.592  26.586   0.283
96361W        W68687   0.261   8.369  12.092
96362W        W68688  43.343   4.348   4.256
96363W        W68689  38.870  36.579   1.396
96364W        W68690  37.049  29.164  12.930
96365W        W68691   4.444   0.447   0.794
96366W        W68692  27.177  13.297   2.385
96367W        W68693  11.228  17.148  13.930
96368W        W68694  35.553  26.067   3.819
96369W        W68695  13.277  19.693  10.532
96370W        W68696  32.636  30.162  11.880
96371W        W68697  30.424  24.603   3.233
96372W        W68698  28.006   9.743  11.529
96373W        W68699  22.721  20.752   0.383
96374W        W68700   5.314   6.737  11.078
96375W        W68701  39.849   5.799  11.868
96376W        W68702  16.683  40.497  10.531
96377W        W68703  35.070  33.020   2.260
96378W        W68704  43.385  21.568  12.501
96379W        W68705  38.454   3.288   3.800
96380W        W68706  10.187   8.742   0.928
96381W        W68707   8.196  39.884   3.669
96382W        W68708  16.216   0.487  11.946
96383W        W68709   0.279   5.235  11.569
96384W        W68710   4.792  24.989   1.327
96385W        W68711  30.651  37.380   4.208
96386W        W68712  22.507  29.923  11.041
96387W        W68713   7.812  15.255   4.310
96388W        W68714   2.453  42.857   0.797
96389W        W68715  36.520  22.542   1.337
96390W        W68716  16.758  17.106   4.731
96391W        W68717  38.905  36.431  14.893
96392W        W68718   2.230   6.725  13.838
96393W        W68719  29.077  42.823   0.865
96394W        W68720   7.906  13.701   0.483
96395W        W68721   6.242  39.821  13.862
96396W        W68722  40.039  32.522  10.494
96397W        W68723  15.095   9.792  14.011
96398W        W68724  29.967  22.651   2.292
96399W        W68725  38.428   3.220   2.836
96400W        W68726  27.070  33.129   0.287
96401W        W68727  29.518  20.565   4.184
96402W        W68728  33.613  36.050  12.531
96403W        W68729  26.687  40.475  10.448
96404W        W68730  44.941  35.498  12.892
96405W        W68731  41.322  22.099  12.897
96406W        W68732   3.240  16.201  12.971
96407W        W68733  42.799  14.242   2.734
96408W        W68734  15.676  40.936   4.288
96409W        W68735  13.306  39.005   0.319
96410W        W68736  30.581  39.047   0.950
96411W        W68737  29.635  16.253   4.157
96412W        W68738  10.810  18.073  13.424
96413W        W68739  37.481  40.381   0.749
96414W        W68740  30.568  40.955  12.446
96415W        W68741  25.134  44.296   4.756
96416W        W68742   4.814  23.672   1.925
96417W        W68743  16.302  36.899  13.935
96418W        W68744  10.326  21.068   1.411
96419W        W68745  19.155  30.614  12.987
96420W        W68746  15.189  36.094  11.100
96421W        W68747  34.611  33.401  13.995
96422W        W68748  15.742  35.455   0.920
96423W        W68749  10.200  14.719   1.717
96424W        W68750  41.490  28.678   4.266
96425W        W68751  25.524  42.393   3.193
96426W        W68752  44.326  43.799  12.949
96427W        W68753  24.095   4.320   0.734
96428W        W68754  28.166  31.992   2.897
96429W        W68755  44.816  26.547  10.943
96430W        W68756  24.116   0.342  13.963
96431W        W68757  29.989  21.177  11.024
96432W        W68758  19.575  36.995  13.802
96433W        W68759  22.100  38.995  14.288
96434W        W68760  21.246   1.350  13.893
96435W        W68761   9.791   3.925  13.546
96436W        W68762   6.844  29.128   3.241
96437W        W68763  29.539   8.793   3.823
96438W        W68764  40.521  27.958   5.280
96439W        W68765  22.089  31.152  14.488
96440W        W68766  41.895  23.604  14.332
96441W        W68767  39.850  34.465  11.559
96442W        W68768  41.535   9.205   1.374
96443W        W68769  16.305  27.159   1.828
96444W        W68770   2.286   8.879   5.171
96445W        W68771   6.816  12.611   1.288
96446W        W68772  22.187   9.766   3.354
96447W        W68773   6.708  19.259  13.851
96448W        W68774  17.785  44.832   0.384
96449W        W68775  36.973  21.076  14.774
96450W        W68776  40.311  36.064  10.510
96451W        W68777  29.105  42.487  11.869
96452W        W68778  39.550  36.350   4.818
96453W        W68779   4.774   2.874   1.374
96454W        W68780  17.063  34.922  12.999
96455W        W68781  35.089  25.663   0.879
96456W        W68782  33.893  35.939  11.453
96457W        W68783  35.568  14.285  12.557
96458W        W68784   9.252  34.583   1.879
96459W        W68785  28.540  38.029  11.583
96460W        W68786  38.446   8.329  14.457
96461W        W68787  29.445  33.604   2.217
96462W        W68788  44.272  34.423   5.204
96463W        W68789  22.019   6.830  14.446
96464W        W68790   9.789   9.313  13.922
96465W        W68791  44.968  27.595   2.201
96466W        W68792  22.508  29.127   2.214
96467W        W68793   3.416   7.774   2.356
96468W        W68794  16.596  32.138   1.212
96469W        W68795  44.368  33.488   5.136
96470W        W68796  40.384  21.116  10.024
96471W        W68797   3.303  13.621   0.916
96472W        W68798  44.445  29.557   3.327
96473W        W68799  35.433  22.712  14.343
96474W        W68800  39.982  28.649  13.013
96475W        W68801  27.942  40.893  14.382
96476W        W68802   8.383   8.306  10.961
96477W        W68803  18.243  31.125  10.596
96478W        W68804   2.397  30.434   0.913
96479W        W68805  43.792   6.369  12.934
96480W        W68806  26.584  42.892   4.696
96481W        W68807  44.999   6.879   2.777
96482W        W68808   6.351  23.551  14.442
96483W        W68809  40.444  30.991   3.686
96484W        W68810  14.151  30.018   1.696
96485W        W68811  31.493  43.019   5.167
96486W        W68812   6.226   7.877   4.651
96487W        W68813  36.431  23.504  12.345
96488W        W68814   9.866  25.495   2.828
96489W        W68815  10.204  26.027  10.453
96490W        W68816  41.308  37.042   0.442
96491W        W68817   1.961  13.667  12.430
96492W        W68818  35.548  22.072   0.869
96493W        W68819   9.734  41.481   0.355
96494W        W68820  34.976  12.688  14.461
96495W        W68821   5.240  39.001  11.973
96496W        W68822  35.035  17.588   3.668
96497W        W68823   2.296   1.434   9.518
96498W        W68824  36.071  10.845   1.435
96499W        W68825  31.464  21.715   3.188
96500W        W68826  20.066  17.071   2.225
96501W        W68827  30.482  12.819  10.608
96502W        W68828  18.121  42.905  13.425
96503W        W68829   9.826  43.480   2.266
96504W        W68830   7.278   2.274   1.318
96505W        W68831  44.822  32.049  10.935
96506W        W68832  14.256  43.859   1.831
96507W        W68833  38.832  27.143   3.177
96508W        W68834   0.903  16.231  11.978
96509W        W68835  14.222  33.130   2.412
96510W        W68836   8.815  19.155  11.495
96511W        W68837  25.000  15.766  11.559
96512W        W68838  20.202  24.685  12.475
96513W        W68839  29.482  18.075   3.755
96514W        W68840  36.841  15.099   2.330
96515W        W68841  29.051  23.591   2.233
96516W        W68842  37.505  35.028   2.819
96517W        W68843  18.216  40.801   1.812
96518W        W68844  29.469  40.017   0.948
96519W        W68845   9.855  11.169  12.510
96520W        W68846  19.545  30.636  14.967
96521W        W68847   3.900  12.824   0.343
96522W        W68848  44.799   3.215   4.647
96523W        W68849  25.653  34.544  12.934
96524W        W68850  27.182   7.828   2.866
96525W        W68851  10.156  27.043  10.913
96526W        W68852  18.579  32.083  13.915
96527W        W68853  18.096  38.351  11.472
96528W        W68854  16.588  22.133  13.516
96529W        W68855   4.401  21.260   0.378
96530W        W68856  31.046  14.730  11.037
96531W        W68857  42.469  37.388  10.966
96532W        W68858   7.739  11.659   2.209
96533W        W68859  39.925  12.733   0.296
96534W        W68860   0.333  35.939   0.452
96535W        W68861   0.921  37.414   2.672
96536W        W68862  33.478   6.391   1.778
96537W        W68863  28.013  33.957  14.436
96538W        W68864   1.941  20.635  11.591
96539W        W68865  28.542   4.398   0.963
96540W        W68866   3.912  11.329   0.332
96541W        W68867   3.920  33.893  13.993
96542W        W68868  44.866  19.039  14.815
96543W        W68869   2.890  25.188   0.380
96544W        W68870  40.028  43.821  14.503
96545W        W68871  12.231  36.406   0.760
96546W        W68872  22.583  31.635   4.714
96547W        W68873   9.703   4.856  14.405
96548W        W68874  20.610  29.031   2.347
96549W        W68875  44.291   6.730  10.509
96550W        W68876  26.073   4.263   3.368
96551W        W68877  21.251   1.366  14.314
96552W        W68878  37.064  10.321   3.702
96553W        W68879  37.986  33.410  13.000
96554W        W68880  42.455  33.039  14.986
96555W        W68881  37.060   9.236   3.188
96556W        W68882  33.505   6.289  14.931
96557W        W68883  22.715  32.047  14.489
96558W        W68884  25.081  27.485  11.406
96559W        W68885   2.287  40.388   0.329
96560W        W68886   0.469  40.314   4.160
96561W        W68887   8.874  10.839  14.968
96562W        W68888  26.539  12.614  13.446
96563W        W68889  19.087  36.084   0.244
96564W        W68890  24.484  40.408  11.993
96565W        W68891  18.270  40.530  11.068
96566W        W68892  34.536  32.626  14.005
96567W        W68893  21.202  32.141  14.504
96568W        W68894  41.467  39.354   0.839
96569W        W68895   0.939  10.372   3.188
96570W        W68896  37.044  20.162  13.864
96571W        W68897   9.174   5.752  13.393
96572W        W68898  35.067  40.374  14.020
96573W        W68899  22.101  42.336  14.895
96574W        W68900   9.688  38.033   2.410
96575W        W68901  15.788  33.988  10.975
96576W        W68902  24.053  15.727   4.636
96577W        W68903  43.352  21.207  13.929
96578W        W68904  37.551  19.719  11.937
96579W        W68905  34.526  26.081   2.204
96580W        W68906  16.706  22.721   3.311
96581W        W68907  24.014  12.721   2.357
96582W        W68908  29.434   8.257   0.868
96583W        W68909  37.025  14.178  11.589
96584W        W68910  39.542  13.715  13.060
96585W        W68911  17.591  40.374  12.888
96586W        W68912  21.059  26.463   5.300
96587W        W68913  21.103  30.493   0.728
96588W        W68914   3.438  29.122   3.821
96589W        W68915  43.904  26.076   1.814
96590W        W68916   6.278  12.196   2.876
96591W        W68917  39.491   8.775  13.007
96592W        W68918  32.630  13.164  10.405
96593W        W68919   7.175  40.866  14.841
96594W        W68920  39.964   5.783   0.244
96595W        W68921  41.529  21.143   0.873
96596W        W68922  11.257  12.805  13.814
96597W        W68923  35.579   8.760  13.443
96598W        W68924  34.575  24.710  13.055
96599W        W68925  33.513   4.407  11.003
96600W        W68926  44.957   5.692   0.954
96601W        W68927  41.532  41.817   0.914
96602W        W68928  40.993  38.069   3.338
96603W        W68929   5.828  33.929   1.360
96604W        W68930   2.352  11.701  14.291
96605W        W68931  40.827  19.713  11.565
96606W        W68932  31.945  36.588  11.415
96607W        W68933  38.561  22.156  11.449
96608W        W68934  43.384   3.461   4.231
96609W        W68935  19.533  23.525   0.954
96610W        W68936  35.087  38.410  13.435
96611W        W68937   9.757  38.501   1.396
96612W        W68938   8.351  31.445  14.278
96613W        W68939   5.754  25.713   3.163
96614W        W68940  39.428   6.253   2.368
96615W        W68941   4.869  40.501  13.511
96616W        W68942  12.755  25.563   0.731
96617W        W68943  31.631   1.367   0.863
96618W        W68944  37.901  43.405  14.313
96619W        W68945  27.156  33.099   1.243
96620W        W68946  14.795  25.514   1.366
96621W        W68947   5.321   0.950  13.929
96622W        W68948  21.715  28.008  13.018
96623W        W68949  18.271   4.793   1.427
96624W        W68950   3.758  21.030  11.938
96625W        W68951  32.447  22.172   0.816
96626W        W68952  14.172  26.034   1.292
96627W        W68953  38.456  12.749   0.905
96628W        W68954  10.208  38.939   3.779
96629W        W68955  44.985  26.098   0.782
96630W        W68956  42.919  17.259   0.937
96631W        W68957  30.449  44.993  13.528
96632W        W68958   1.372  31.502   2.340
96633W        W68959  34.068  29.026   1.923
96634W        W68960  19.604  11.155  13.981
96635W        W68961  33.929  31.965  12.831
96636W        W68962  35.532  43.796   0.875
96637W        W68963  11.283  27.656  12.961
96638W        W68964  10.256  42.897  12.996
96639W        W68965   1.246  23.991   0.383
96640W        W68966  16.566  26.660   2.667
96641W        W68967   6.381  28.056   1.825
96642W        W68968  27.009  42.326  11.928
96643W        W68969  27.550  18.190   0.901
96644W        W68970  43.325  13.751  11.423
96645W        W68971  31.607  36.530  10.514
96646W        W68972  39.442  18.118   4.776
96647W        W68973  11.151  30.990  14.769
96648W        W68974  24.032   4.297   2.258
96649W        W68975   9.307  17.129   4.147
96650W        W68976  31.000  31.976  14.999
96651W        W68977  24.982  27.635  12.870
96652W        W68978  40.892   1.891   3.667
96653W        W68979  36.348  18.147  14.455
96654W        W68980  23.033  19.552   3.724
96655W        W68981  15.644  22.210   0.334
96656W        W68982  19.104  29.475  12.047
96657W        W68983  40.870  16.807  13.435
96658W        W68984  32.462  43.348   0.306
96659W        W68985   6.689  38.063  11.606
96660W        W68986  11.642  43.019   2.352
96661W        W68987  41.417  25.553  13.462
96662W        W68988   7.221  33.517  11.005
96663W        W68989  17.589  31.488   4.796
96664W        W68990  22.041  35.056  14.792
96665W        W68991  29.011   0.447  14.885
96666W        W68992  38.348  14.597  13.390
96667W        W68993  29.545  15.787   9.940
96668W        W68994  13.716   8.379  12.901
96669W        W68995  43.781  20.718  11.585
96670W        W68996  33.452  16.673  14.363
96671W        W68997   3.259  10.683  11.927
96672W        W68998  13.703  35.853   0.288
96673W        W68999  35.030   3.910   0.733
96674W        W69000  21.182  34.469  11.426
96675W        W69001   8.890  10.711  11.115
96676W        W69002  25.539  28.603   1.239
96677W        W69003  32.416   4.301   1.798
96678W        W69004   7.258  26.122  12.841
96679W        W69005  29.663  39.423  11.037
96680W        W69006  39.908  14.307   4.839
96681W        W69007  35.960  36.429   0.962
96682W        W69008   0.445   0.858   2.774
96683W        W69009  37.387  30.626   3.679
96684W        W69010  18.078  13.331   1.896
96685W        W69011  23.525  36.077   3.719
96686W        W69012  43.507  40.334   3.224
96687W        W69013  34.476  24.068   0.250
96688W        W69014  16.634  25.207   1.835
96689W        W69015   6.274  14.685  10.443
96690W        W69016  18.716   4.926  10.529
96691W        W69017   9.176  32.548  11.047
96692W        W69018  35.912  15.649   4.661
96693W        W69019   1.305  30.051  13.409
96694W        W69020   6.327   3.284   9.992
96695W        W69021  32.112  32.538   0.788
96696W        W69022  32.941  40.485   4.724
96697W        W69023  31.635  22.081  13.544
96698W        W69024  30.929  20.264   0.276
96699W        W69025   5.771   9.261   0.256
96700W        W69026  35.949  10.840  10.410
96701W        W69027  32.019  40.490  10.441
96702W        W69028  12.256  28.146  11.894
96703W        W69029   4.805  38.973   0.331
96704W        W69030  30.077   7.834  13.997
96705W        W69031   6.374  30.964  14.890
96706W        W69032  40.003  15.220   3.694
96707W        W69033  40.457   8.741   2.685
96708W        W69034  19.548  24.219   2.274
96709W        W69035   3.848  31.628  11.385
96710W        W69036  20.766  34.046   2.826
96711W        W69037  44.306  13.613   4.269
96712W        W69038  23.072  21.050  10.141
96713W        W69039  42.408  35.977  14.963
96714W        W69040  16.597  18.224   3.794
96715W        W69041   0.893  31.089   0.281
96716W        W69042  23.716  44.779  13.925
96717W        W69043  31.574  12.732  12.921
96718W        W69044   5.927  23.027   2.366
96719W        W69045  27.193  29.506  11.492
96720W        W69046  12.708   7.849  10.563
96721W        W69047   3.246   4.787   5.308
96722W        W69048  34.938  44.972   2.689
96723W        W69049  13.301   4.816   3.385
96724W        W69050   9.294  24.543   0.848
96725W        W69051  22.195  12.222  13.042
96726W        W69052   7.218   7.912  10.944
96727W        W69053   9.689  25.668  14.361
96728W        W69054  18.255  41.472  11.111
96729W        W69055  30.159  41.516   0.729
96730W        W69056  17.653   2.328   0.306
96731W        W69057  11.810  16.713   3.828
96732W        W69058  43.347  40.980  12.925
96733W        W69059  39.356  12.258  13.443
96734W        W69060  11.245  25.568   0.960
96735W        W69061  44.808   5.929  13.533
96736W        W69062  37.545  22.238  14.868
96737W        W69063   8.349   9.687   4.693
96738W        W69064   5.341  39.009  14.961
96739W        W69065  43.274   8.310  12.077
96740W        W69066  22.084  35.601  13.514
96741W        W69067   4.409  32.099  13.048
96742W        W69068  25.996   7.385   4.790
96743W        W69069  24.054  24.511   3.689
96744W        W69070  36.952  42.305  12.024
96745W        W69071   4.402  21.028   2.837
96746W        W69072  33.923  33.395   9.606
96747W        W69073  28.588  29.039  10.107
96748W        W69074   0.316  24.667  12.832
96749W        W69075  14.776  34.541  12.443
96750W        W69076  43.348  17.183  11.114
96751W        W69077  17.707  28.574   0.844
96752W        W69078  14.709  38.457  14.877
96753W        W69079   7.289  35.859   3.366
96754W        W69080  20.213  42.015   2.277
96755W        W69081  41.327  33.603   4.219
96756W        W69082  12.263  39.440  12.358
96757W        W69083  34.580  24.142   2.318
96758W        W69084  24.550  21.585   3.780
96759W        W69085  29.604   6.915  11.434
96760W        W69086  14.157  31.597   1.281
96761W        W69087  30.907  42.846   1.915
96762W        W69088  24.975  33.395  12.829
96763W        W69089  27.634  22.630   2.294
96764W        W69090  42.962  20.528   2.208
96765W        W69091   2.466  44.380   1.313
96766W        W69092   0.907  43.921   4.719
96767W        W69093  17.072  23.559   1.891
96768W        W69094  21.148  14.791   1.315
96769W        W69095  42.281  22.555  13.937
96770W        W69096   5.747  11.860   0.342
96771W        W69097  29.436  20.738   2.872
96772W        W69098  38.351   1.824  13.904
96773W        W69099  43.332  43.860  10.633
96774W        W69100  13.206  32.073   3.343
96775W        W69101  28.936  22.235   4.354
96776W        W69102  16.185  39.446   2.244
96777W        W69103  10.348  18.063  10.535
96778W        W69104  18.268  17.728  12.454
96779W        W69105  29.601  36.065   2.364
96780W        W69106   3.714  19.673  12.499
96781W        W69107  33.585  22.036   0.882
96782W        W69108  13.639  36.998   4.187
96783W        W69109  40.973   6.857   2.785
96784W        W69110   4.746  41.826  11.101
96785W        W69111  26.629  21.215   5.086
96786W        W69112  28.970  18.613   1.896
96787W        W69113  16.627  11.326  12.999
96788W        W69114  11.360  44.005   2.250
96789W        W69115  27.071  37.044   1.307
96790W        W69116   8.351  35.603  14.463
96791W        W69117   3.339  16.657   4.789
96792W        W69118   6.851  10.313  12.416
96793W        W69119  25.191  25.067  11.611
96794W        W69120  36.378  18.564  12.470
96795W        W69121   6.421  15.104  14.353
96796W        W69122  20.266  34.903  11.376
96797W        W69123   2.290  36.012   1.832
96798W        W69124  28.538   1.865  14.830
96799W        W69125  27.065  30.513  10.899
96800W        W69126  22.040  22.125  14.295
96801W        W69127  25.001  18.276   2.400
96802W        W69128  15.296  27.012  11.975
96803W        W69129  41.816   9.197  13.835
96804W        W69130  42.976   9.342   0.336
96805W        W69131   6.241  34.988  14.964
96806W        W69132  26.106  31.569  13.516
96807W        W69133  40.360  26.205  14.030
96808W        W69134   2.826  19.707   1.404
96809W        W69135  25.692  37.421  14.443
96810W        W69136   1.747  28.988   3.649
96811W        W69137  10.325  24.216   2.201
96812W        W69138  38.860   3.952   1.298
96813W        W69139  19.601  10.874  10.537
96814W        W69140   9.239  25.077  11.414
96815W        W69141  27.964  43.988   1.291
96816W        W69142   9.152   8.295   0.299
96817W        W69143  35.087  14.098   2.403
96818W        W69144  36.937  35.431  11.930
96819W        W69145  13.654   0.802  14.973
96820W        W69146  35.554  22.695   4.724
96821W        W69147  14.136  20.267   2.901
96822W        W69148  23.121  15.674  10.156
96823W        W69149  33.012  35.469   5.252
96824W        W69150   7.266   9.840   4.819
96825W        W69151  41.301  17.606  14.919
96826W        W69152  36.372  14.157   2.838
96827W        W69153  38.933  41.017  10.413
96828W        W69154   4.921  32.603   4.261
96829W        W69155  13.770  11.868   4.767
96830W        W69156  21.587  15.180  12.992
96831W        W69157  26.685  27.648   1.421
96832W        W69158  31.009  25.976   0.318
96833W        W69159  30.416  27.083   0.796
96834W        W69160  36.547  41.376   4.144
96835W        W69161   4.727   8.362   4.617
96836W        W69162   0.419  24.530   2.828
96837W        W69163  39.444  10.217  12.961
96838W        W69164  30.131  21.717   4.354
96839W        W69165  36.421  14.206   1.312
96840W        W69166   1.261  26.016  12.073
96841W        W69167  16.592  20.652   4.333
96842W        W69168  42.335  14.260   3.210
96843W        W69169  30.545  16.587  12.509
96844W        W69170  34.390  31.041   4.836
96845W        W69171   6.711  37.033   3.772
96846W        W69172  21.158  19.716   2.268
96847W        W69173  22.713   2.421  12.535
96848W        W69174  13.173  40.382  13.507
96849W        W69175  38.949  37.356  11.937
96850W        W69176  26.182  27.545   5.118
96851W        W69177  10.857  37.559  12.369
96852W        W69178  20.715  20.193  12.406
96853W        W69179   4.912  15.617   3.319
96854W        W69180  23.102  28.513   0.799
96855W        W69181  11.699  14.619  10.993
96856W        W69182  34.941  24.572   0.461
96857W        W69183  11.785  27.976  11.606
96858W        W69184  10.821  10.681   0.437
96859W        W69185  30.447  35.084   1.340
96860W        W69186  28.661  36.099  13.890
96861W        W69187  40.052  13.157  10.587
96862W        W69188  13.728   3.856   1.252
96863W        W69189  12.251  18.153   0.402
96864W        W69190  17.154  32.894   1.369
96865W        W69191  23.235  24.073   4.212
96866W        W69192  23.490  10.294  11.474
96867W        W69193   8.357  22.668  11.373
96868W        W69194  17.146  44.459   4.599
96869W        W69195  13.136   6.908   3.684
96870W        W69196  33.959  10.858  13.837
96871W        W69197   0.873  40.422  10.569
96872W        W69198  33.546   8.285   4.352
96873W        W69199  22.525   3.442  11.418
96874W        W69200  39.508   1.791  13.817
96875W        W69201  36.549  25.133   4.680
96876W        W69202   0.964  14.723   3.360
96877W        W69203   8.844  32.928  12.520
96878W        W69204  25.689  36.431  10.916
96879W        W69205  43.857  28.136   2.736
96880W        W69206   8.794  41.401   0.298
96881W        W69207  12.333  37.564   2.203
96882W        W69208  37.881  13.104  14.394
96883W        W69209  41.841   2.466  14.797
96884W        W69210   6.364  36.992   4.637
96885W        W69211  42.454   7.827   1.770
96886W        W69212  11.795  16.145   3.223
96887W        W69213  39.861  40.469  14.018
96888W        W69214   4.838  34.542   3.817
96889W        W69215  33.533  32.588   1.284
96890W        W69216  18.663  24.588  11.532
96891W        W69217   4.878  26.020  14.812
96892W        W69218   0.876  39.468  13.385
96893W        W69219  42.940  26.067  12.081
96894W        W69220  30.643  34.447  11.970
96895W        W69221   0.367  41.385   4.114
96896W        W69222   1.811  39.031  10.912
96897W        W69223  35.588   8.840   0.458
96898W        W69224  23.143  39.987  10.901
96899W        W69225   0.490  25.073  13.535
96900W        W69226  16.211  10.341   3.698
96901W        W69227  31.048   2.255   2.682
96902W        W69228  29.565  12.718   4.784
96903W        W69229  19.603   9.769   1.231
96904W        W69230  19.720   0.348   1.450
96905W        W69231  32.985  36.968  13.963
96906W        W69232  20.136  26.669   9.954
96907W        W69233  20.656  38.069  14.429
96908W        W69234  28.593  21.066  13.831
96909W        W69235  35.072  44.911  11.413
96910W        W69236   6.787  15.090  11.093
96911W        W69237  30.158  29.040  14.828
96912W        W69238  32.557   5.789  11.113
96913W        W69239  13.296  41.448  10.530
96914W        W69240  19.719  30.562   1.746
96915W        W69241  40.926  11.217   4.301
96916W        W69242  12.653  10.712  10.416
96917W        W69243  12.262  40.343  12.944
96918W        W69244  43.815   4.857  11.940
96919W        W69245  17.574  20.643  13.450
96920W        W69246  20.070  23.186   0.357
96921W        W69247   0.907  31.010  13.002
96922W        W69248   5.255  11.311   4.755
96923W        W69249  37.852  40.049   1.893
96924W        W69250  23.988  44.836  13.478
96925W        W69251  33.599  20.116   2.830
96926W        W69252  29.149  25.045   3.374
96927W        W69253  20.247  21.234   9.970
96928W        W69254   1.742  40.020   1.806
96929W        W69255  22.532   8.691   2.672
96930W        W69256  38.913  30.066  11.533
96931W        W69257  43.380  23.676   2.692
96932W        W69258  40.812  17.715  12.515
96933W        W69259  26.174  34.543   0.402
96934W        W69260  36.378  44.325  13.903
96935W        W69261  28.598  29.545  10.004
96936W        W69262   1.355  37.081  13.954
96937W        W69263  24.011   8.323   2.334
96938W        W69264  34.092  32.084   3.766
96939W        W69265   9.332  22.579   2.833
96940W        W69266  43.898  10.862  12.393
96941W        W69267   5.241  29.942   4.779
96942W        W69268  24.543  11.847  13.321
96943W        W69269  21.211   4.922  12.851
96944W        W69270  44.440  41.304  10.617
96945W        W69271  43.782   7.358   2.290
96946W        W69272  25.537  27.564  13.420
96947W        W69273   6.350  26.098  12.505
96948W        W69274  40.309   2.296   3.696
96949W        W69275   9.709  27.690  11.529
96950W        W69276  25.712  43.403  11.127
96951W        W69277  36.589  23.585  12.829
96952W        W69278  37.851  42.503   2.410
96953W        W69279  43.322  10.825  13.016
96954W        W69280  24.590  18.195  11.492
96955W        W69281  17.090  38.839   4.349
96956W        W69282  43.867  12.155   3.238
96957W        W69283  23.038  18.285  14.276
96958W        W69284  32.419  25.032   4.232
96959W        W69285  20.535  14.231  11.079
96960W        W69286  16.187  36.964   0.428
96961W        W69287   2.287  20.685  10.094
96962W        W69288   3.747   6.915   3.843
96963W        W69289   9.239  40.851   3.254
96964W        W69290  10.862  23.098   1.926
96965W        W69291  20.111  28.089  13.502
96966W        W69292  32.070  24.084   1.401
96967W        W69293   8.324  17.668   4.117
96968W        W69294  37.869  21.081   2.338
96969W        W69295  35.094  21.672  11.050
96970W        W69296  36.854  20.110  10.547
96971W        W69297  19.597   7.195  13.376
96972W        W69298  43.785  36.933   3.861
96973W        W69299  24.641  42.986   3.856
96974W        W69300  40.498  23.673   4.606
96975W        W69301  37.526   0.986   4.116
96976W        W69302  15.093   1.468   1.285
96977W        W69303  42.955  12.715  14.465
96978W        W69304  10.712  17.764  14.786
96979W        W69305  28.566  17.215   4.202
96980W        W69306  27.165   1.864   3.146
96981W        W69307  27.992  24.141  13.424
96982W        W69308   0.799   5.699   4.720
96983W        W69309  31.062  31.971   3.174
96984W        W69310  19.174   1.886  11.944
96985W        W69311  12.718  11.810  13.348
96986W        W69312  27.053  27.620   3.157
96987W        W69313  43.975  31.535   3.705
96988W        W69314  36.848  44.801   0.358
96989W        W69315  41.895  12.813   2.307
96990W        W69316  32.461  27.645  11.935
96991W        W69317   9.165   4.928  14.501
96992W        W69318  37.052  34.100  12.387
96993W        W69319  19.607  21.725  14.442
96994W        W69320   9.818  33.468   2.896
96995W        W69321  17.179   9.381  10.605
96996W        W69322  19.061  10.140   1.343
96997W        W69323  22.737  17.248   2.196
96998W        W69324   0.857  29.084   1.796
96999W        W69325   1.788  32.920  13.344
97000W        W69326  41.817  19.160   0.287
97001W        W69327  10.650  33.547  12.867
97002W        W69328  16.589  12.236   0.316
97003W        W69329  25.215   6.300   2.331
97004W        W69330   2.875  44.940   0.739
97005W        W69331  34.872   9.774   0.729
97006W        W69332  28.034  11.792   3.305
97007W        W69333  12.133  43.962   4.622
97008W        W69334  27.947   8.735  10.408
97009W        W69335  34.946  26.677  12.055
97010W        W69336  35.989  11.710  13.925
97011W        W69337  29.452  28.022  12.465
97012W        W69338   5.242  31.032   3.173
97013W        W69339  30.506  16.782   2.798
97014W        W69340  27.642  34.607  13.420
97015W        W69341   2.846  21.520   4.296
97016W        W69342  43.907  42.384  14.320
97017W        W69343  35.985  35.986  12.900
97018W        W69344  11.170  37.032  12.020
97019W        W69345  41.859  16.290   1.390
97020W        W69346  44.763  19.131   4.254
97021W        W69347  11.687  21.753   4.273
97022W        W69348   8.693   8.875  14.898
97023W        W69349  33.445  33.110  13.037
97024W        W69350  12.686  38.559   0.455
97025W        W69351   3.272  32.018  10.985
97026W        W69352  13.815  10.318  13.505
97027W        W69353  34.506   1.463   2.686
97028W        W69354  32.409  39.886  11.505
97029W        W69355  25.600   3.413  14.437
97030W        W69356  21.748  43.452  11.584
97031W        W69357  15.748  14.172   1.366
97032W        W69358  14.111  16.703   3.370
97033W        W69359  38.943   1.796  10.477
97034W        W69360   2.911  29.016  13.981
97035W        W69361  33.482   8.664  11.882
97036W        W69362   1.427  20.740  10.908
97037W        W69363   9.246  37.400   0.875
97038W        W69364  25.625   3.221  13.877
97039W        W69365   5.343  13.666   1.260
97040W        W69366  20.541  20.631   1.301
97041W        W69367  11.694  22.713  11.084
97042W        W69368  24.226  17.746  14.363
97043W        W69369  18.587   8.173   2.292
97044W        W69370   9.706   9.669   0.811
97045W        W69371   8.271  18.255   1.899
97046W        W69372  22.038  32.413   0.457
97047W        W69373  30.937  28.142  10.586
97048W        W69374  36.975  10.827  14.463
97049W        W69375  13.648  15.721   3.297
97050W        W69376  22.681  43.283  12.839
97051W        W69377  23.148  13.128   3.353
97052W        W69378   1.387  22.668  13.318
97053W        W69379   8.728  26.663   5.115
97054W        W69380   4.279  35.389  10.479
97055W        W69381  43.869  41.481  14.840
97056W        W69382  36.955  11.801   2.838
97057W        W69383  32.613  14.260   0.260
97058W        W69384  38.983   5.901  14.397
97059W        W69385  35.998  44.316  11.594
97060W        W69386   5.238   9.748   3.240
97061W        W69387   8.764  19.094  12.446
97062W        W69388  20.550  27.551   3.262
97063W        W69389  33.929  27.045  11.923
97064W        W69390   2.442   9.815   1.797
97065W        W69391  21.552  15.619   5.194
97066W        W69392  29.947  27.454   2.355
97067W        W69393  39.983  10.825  13.352
97068W        W69394  39.399   8.783   0.367
97069W        W69395   5.748  41.032  13.522
97070W        W69396  14.660   9.852   0.335
97071W        W69397   3.800  36.075   0.806
97072W        W69398   4.434  37.070  11.406
97073W        W69399  14.235  25.105  12.548
97074W        W69400  32.000  14.130   5.166
97075W        W69401  39.545  28.464   1.421
97076W        W69402  40.806  23.593  12.830
97077W        W69403  24.478   4.777   4.715
97078W        W69404  11.273  21.698  10.932
97079W        W69405  27.588  18.257   0.391
97080W        W69406   5.926   6.374   3.770
97081W        W69407  34.048   2.879  12.498
97082W        W69408  29.448  18.296   4.722
97083W        W69409  41.912  12.610   0.809
97084W        W69410  37.872  44.840  11.927
97085W        W69411  16.177  38.440  12.494
97086W        W69412  16.796  30.123   2.413
97087W        W69413  29.531  23.187   4.675
97088W        W69414   6.230  16.799   4.810
97089W        W69415  29.155  17.599   4.206
97090W        W69416  12.654  29.560   3.155
97091W        W69417  41.370  34.090   0.882
97092W        W69418   0.252   2.429  13.469
97093W        W69419   2.953  34.601  13.808
97094W        W69420  19.534  15.806  10.510
97095W        W69421  11.848  36.530  12.066
97096W        W69422  40.449  43.910   0.391
97097W        W69423   0.925   2.344   2.694
97098W        W69424  14.198  22.053  13.371
97099W        W69425  33.116  43.403   1.218
97100W        W69426  21.067  17.633  14.932
97101W        W69427  40.544  15.213  10.485
97102W        W69428  15.591  14.806   0.837
97103W        W69429  24.977  20.707   1.905
97104W        W69430  30.147  28.173   9.652
97105W        W69431  19.124  37.429  14.986
97106W        W69432  35.091  31.428  11.414
97107W        W69433  25.656   6.197   1.731
97108W        W69434  34.448  25.676  11.873
97109W        W69435  30.632  15.681  14.350
97110W        W69436  38.441  16.608   3.275
97111W        W69437  24.087  18.286   4.354
97112W        W69438  22.508  10.844  13.357
97113W        W69439  43.965  17.767   2.331
97114W        W69440  41.972  32.391   0.920
97115W        W69441  43.275  35.029  12.408
97116W        W69442   7.415  40.457  13.545
97117W        W69443  34.878  29.498   2.804
97118W        W69444  21.045  12.149   1.287
97119W        W69445  10.365  28.122   2.674
97120W        W69446   6.183   2.391  11.520
97121W        W69447  13.838  28.135   0.390
97122W        W69448  23.586  16.283   0.764
97123W        W69449   3.909  21.758   3.786
97124W        W69450  39.439  15.094  13.971
97125W        W69451  21.525  25.220  10.972
97126W        W69452  41.932  41.296  14.837
97127W        W69453  39.902  25.964  14.324
97128W        W69454  43.296  32.988   2.822
97129W        W69455  36.841  16.076   0.917
97130W        W69456  13.620  10.233   2.322
97131W        W69457  28.634  43.271   1.394
97132W        W69458  41.003   0.269  14.308
97133W        W69459  39.527  19.738   1.259
97134W        W69460  25.084  35.917   3.257
97135W        W69461  16.695  24.131   0.913
97136W        W69462   3.413  37.904   2.749
97137W        W69463  39.491  17.711   4.681
97138W        W69464   1.905  16.165   0.267
97139W        W69465  14.699   6.372  14.439
97140W        W69466  29.119  23.548   2.686
97141W        W69467  36.977  26.587  10.938
97142W        W69468  20.580   3.712   0.765
97143W        W69469  24.094  33.593   5.210
97144W        W69470  17.155  34.422  11.862
97145W        W69471   1.735  16.281  11.920
97146W        W69472   2.376  44.503   4.600
97147W        W69473  31.493  17.568  10.609
97148W        W69474  43.431  26.604   2.369
97149W        W69475   0.980  10.765  12.849
97150W        W69476  15.109  26.631  13.862
97151W        W69477  14.818  39.419  11.856
97152W        W69478  26.953  35.455   3.679
97153W        W69479  42.986  18.548   2.855
97154W        W69480  33.094  19.228   1.303
97155W        W69481   1.750  15.694   0.374
97156W        W69482  10.810  41.377   0.876
97157W        W69483  17.235  41.340  14.004
97158W        W69484  39.927   1.791   1.906
97159W        W69485  24.007  37.480   0.734
97160W        W69486  43.007   3.397   2.345
97161W        W69487  39.554   7.789   1.306
97162W        W69488  38.470  28.185  11.453
97163W        W69489   2.241   1.284  12.035
97164W        W69490  26.001  29.077   0.299
97165W        W69491   7.222  26.142   4.124
97166W        W69492  44.759   9.214   2.194
97167W        W69493  29.492   8.783   2.303
97168W        W69494  14.588  40.048   3.690
97169W        W69495  19.705   0.974   2.748
97170W        W69496  24.166  19.533   2.309
97171W        W69497  42.320   1.355  13.479
97172W        W69498  44.911  12.219  13.796
97173W        W69499   8.716  38.519  14.508
97174W        W69500   6.232  12.223   4.175
97175W        W69501  38.430   2.454  10.605
97176W        W69502  34.583  27.672   1.876
97177W        W69503  21.641  15.215  12.088
97178W        W69504  18.675  20.262   3.670
97179W        W69505  16.277  26.157  10.961
97180W        W69506  40.464  12.686  11.911
97181W        W69507  22.163  19.578   2.872
97182W        W69508   6.309   0.961   3.277
97183W        W69509  15.668  19.718  13.974
97184W        W69510  26.626  19.659   1.841
97185W        W69511   7.765   6.346  10.485
97186W        W69512   8.797  34.081  12.518
97187W        W69513  35.455  17.698   4.235
97188W        W69514  36.074  22.155   0.359
97189W        W69515   2.778  44.341   3.746
97190W        W69516  39.994  35.926  11.497
97191W        W69517  25.578  19.064   0.749
97192W        W69518  42.527  43.847   1.747
97193W        W69519  14.133  16.142  11.520
97194W        W69520  27.171  34.473   2.674
97195W        W69521  28.956   3.440   0.900
97196W        W69522  43.294   8.170  11.520
97197W        W69523  26.965   5.364  13.429
97198W        W69524  38.075  42.970   2.290
97199W        W69525  27.608  25.148   2.750
97200W        W69526  34.501  34.993  14.018
97201W        W69527  15.244  38.544   2.318
97202W        W69528  13.616  31.095   2.335
97203W        W69529  36.386  33.002   2.281
97204W        W69530  43.297  24.529  13.344
97205W        W69531  32.976  23.691  11.998
97206W        W69532  29.935  25.679   4.830
97207W        W69533  16.108  28.971   2.696
97208W        W69534   5.895  17.097  14.299
97209W        W69535  10.345  30.595   1.866
97210W        W69536  25.576  42.332  11.945
97211W        W69537  13.271   2.909   0.476
97212W        W69538  15.605   8.672  10.576
97213W        W69539  32.547  23.542   2.764
97214W        W69540  34.472  17.216  12.978
97215W        W69541  43.847  16.120   0.861
97216W        W69542   3.871  25.971  14.315
97217W        W69543  11.170   7.723  13.491
97218W        W69544  35.583  42.440   2.772
97219W        W69545  22.222   1.330   0.388
97220W        W69546  19.648  16.290  12.984
97221W        W69547  41.014  29.147  10.607
97222W        W69548  14.671  26.080  14.297
97223W        W69549  10.300  31.913  12.402
97224W        W69550  13.115  37.935   1.346
97225W        W69551   2.323  20.674   1.799
97226W        W69552  21.120  31.586  12.076
97227W        W69553   8.861   1.786   1.696
97228W        W69554  44.999  11.285  10.895
97229W        W69555  24.593  37.013   0.919
97230W        W69556  30.569  43.507  12.091
97231W        W69557  35.366  42.838  13.503
97232W        W69558   5.791  26.464  13.344
97233W        W69559  30.979  35.077   1.267
97234W        W69560  26.179  41.365  12.876
97235W        W69561  38.939   9.889  13.453
97236W        W69562   7.414  32.018  13.017
97237W        W69563  42.420  28.076  11.376
97238W        W69564  28.527  26.203   9.486
97239W        W69565  41.447   8.825   3.705
97240W        W69566   2.342  34.989   2.896
97241W        W69567   5.758  44.426   0.784
97242W        W69568  14.118  14.753  13.985
97243W        W69569  19.564   0.364  11.956
97244W        W69570  12.670   3.741  11.946
97245W        W69571  18.654  21.107  12.926
97246W        W69572  12.782   5.333   2.835
97247W        W69573  37.971  21.742  12.914
97248W        W69574   4.712   9.163  14.290
97249W        W69575  20.200  20.570  14.306
97250W        W69576  14.682   5.246  12.968
97251W        W69577  13.208  38.067   0.910
97252W        W69578  21.058  24.055   5.297
97253W        W69579  36.374  33.113   1.333
97254W        W69580  10.685  34.444   0.839
97255W        W69581  21.244   7.909   3.171
97256W        W69582  12.779  15.284  14.957
97257W        W69583   9.298  10.815   0.388
97258W        W69584   2.428  16.705   4.798
97259W        W69585  24.684   5.819  13.441
97260W        W69586  27.562  10.848   0.882
97261W        W69587   3.228  28.634  10.559
97262W        W69588  43.882  38.049  13.345
97263W        W69589  35.017  41.022  13.002
97264W        W69590  34.480  29.489   0.931
97265W        W69591  11.345  32.528  13.859
97266W        W69592  33.995   3.876  14.828
97267W        W69593   3.952  10.277   3.382
97268W        W69594  31.546  23.611  13.014
97269W        W69595  18.604  44.923  14.868
97270W        W69596  29.598  14.743  10.934
97271W        W69597  37.034   7.243   1.735
97272W        W69598   4.266  18.135  11.859
97273W        W69599  14.742  22.203   3.251
97274W        W69600  32.975   3.952  14.858
97275W        W69601  13.236  24.568   1.835
97276W        W69602  42.303  43.427   1.381
97277W        W69603   7.692   0.888   0.958
97278W        W69604  27.537  29.036  10.440
97279W        W69605  14.823  43.924   4.163
97280W        W69606  18.081  36.021  13.341
97281W        W69607  30.600  28.101   1.321
97282W        W69608  39.961  12.622   2.336
97283W        W69609  23.541  17.202   3.643
97284W        W69610  35.978   8.406   0.962
97285W        W69611  30.975  37.338  11.862
97286W        W69612  34.427  25.593   3.859
97287W        W69613  28.666  18.707  14.378
97288W        W69614  31.478  18.624   4.759
97289W        W69615  31.954  44.504  12.974
97290W        W69616  39.989  11.624   4.137
97291W        W69617  44.500  43.311   1.298
97292W        W69618  25.700  17.582   1.254
97293W        W69619  22.247  20.748  10.888
97294W        W69620   6.718   1.305   4.613
97295W        W69621  12.360  42.380  14.854
97296W        W69622  16.805  29.657   3.283
97297W        W69623  19.183   6.343   2.894
97298W        W69624  26.079  27.476   4.240
97299W        W69625  42.356   0.811   3.216
97300W        W69626  43.373  28.602  13.331
97301W        W69627  41.007  28.526   2.785
97302W        W69628  38.384   6.324   3.808
97303W        W69629  15.804  35.097  11.411
97304W        W69630  14.751   0.807   0.264
97305W        W69631  39.060  28.121  12.439
97306W        W69632  25.515  28.980  12.402
97307W        W69633  29.613   7.265  14.312
97308W        W69634   1.282   0.971  12.920
97309W        W69635   5.206  14.827   0.373
97310W        W69636   4.761  24.085  11.916
97311W        W69637  33.118  21.022   0.372
97312W        W69638  21.533  11.255  14.957
97313W        W69639  43.834  23.159   4.283
97314W        W69640  30.525   5.223  11.477
97315W        W69641  19.059  13.158  13.524
97316W        W69642  39.822  16.101   2.852
97317W        W69643  16.589  20.206   1.856
97318W        W69644   9.737  31.422   0.281
97319W        W69645  37.447   6.242   4.323
97320W        W69646   6.253  10.265   2.314
97321W        W69647   0.878   7.708  12.519
97322W        W69648  40.932   2.384   1.241
97323W        W69649  19.775  25.963  11.963
97324W        W69650   1.857  12.153  14.878
97325W        W69651  12.695  36.073   4.257
97326W        W69652  26.970  40.888  11.051
97327W        W69653   5.807  42.798   4.696
97328W        W69654  16.697  29.444   2.781
97329W        W69655   7.172  39.482   3.214
97330W        W69656  36.850  29.580   0.268
97331W        W69657  19.579  40.867  11.103
97332W        W69658   8.786   6.350   1.811
97333W        W69659  20.177  26.535   4.820
97334W        W69660   1.393   9.717  14.489
97335W        W69661  16.694   7.270   4.255
97336W        W69662  10.711  13.252   0.810
97337W        W69663  32.114  12.355  12.552
97338W        W69664  13.160  15.823   4.772
97339W        W69665  10.821  42.798   5.083
97340W        W69666  37.576   2.444   1.744
97341W        W69667  39.871  40.997   2.820
97342W        W69668  25.543  43.844  14.811
97343W        W69669  30.076  12.236  11.003
97344W        W69670   7.685  12.651   1.270
97345W        W69671  41.914  15.746   2.782
97346W        W69672   6.279  34.568  12.032
97347W        W69673   9.316  17.212   1.315
97348W        W69674  38.870   6.305   2.178
97349W        W69675  17.662   7.241  12.539
97350W        W69676   3.391   3.238  13.907
97351W        W69677   9.310  34.036   4.276
97352W        W69678  20.172  10.720   2.871
97353W        W69679  10.312  31.585  13.961
97354W        W69680  25.114  15.766   2.758
97355W        W69681  14.272  41.832  13.805
97356W        W69682  40.369   0.288  12.832
97357W        W69683  32.412   2.935   1.769
97358W        W69684  36.543  30.580  12.501
97359W        W69685  17.745  28.542   4.159
97360W        W69686  44.278  40.034  13.480
97361W        W69687  10.162  27.622  11.941
97362W        W69688  21.655  39.415   0.824
97363W        W69689  43.381  14.713  12.458
97364W        W69690  31.461  36.503   0.917
97365W        W69691  34.553  24.684   0.953
97366W        W69692   7.379  26.703   3.288
97367W        W69693  34.010  15.600   2.410
97368W        W69694  15.178  35.546   5.103
97369W        W69695  23.003  30.967  11.406
97370W        W69696  25.989  38.409   4.676
97371W        W69697  45.000   6.385  11.080
97372W        W69698  12.740  21.070   4.662
97373W        W69699  38.412   1.285   4.177
97374W        W69700  32.047  41.375  14.773
97375W        W69701  44.504  13.163  12.445
97376W        W69702  13.334  31.099   3.355
97377W        W69703  20.211   6.314  14.016
97378W        W69704   6.247  23.025  13.465
97379W        W69705  21.098  32.504  13.443
97380W        W69706  13.107  12.271  13.505
97381W        W69707  44.830  11.719  10.058
97382W        W69708  13.674   9.867  12.896
97383W        W69709   0.983  21.532   0.314
97384W        W69710  41.855  12.220   4.305
97385W        W69711  12.154  22.144  10.985
97386W        W69712   9.326  31.470  11.028
97387W        W69713   4.347  16.283   4.185
97388W        W69714  27.982  34.488   4.750
97389W        W69715  14.770  43.439  13.414
97390W        W69716  30.421  26.992  14.390
97391W        W69717  17.253   7.195   4.791
97392W        W69718  14.826  19.052  14.888
97393W        W69719  15.110  29.175  12.086
97394W        W69720  13.843  28.990   1.779
97395W        W69721  29.113  42.973   4.679
97396W        W69722  30.910  17.235   5.131
97397W        W69723   6.364  43.461  10.532
97398W        W69724   2.807   0.436  14.469
97399W        W69725   3.345  39.849   3.851
97400W        W69726  42.446  31.143  13.318
97401W        W69727  28.164  36.063   1.907
97402W        W69728  38.021   8.361   2.852
97403W        W69729  16.594  22.077   2.702
97404W        W69730  27.520  16.610  13.830
97405W        W69731  12.337   7.225   2.726
97406W        W69732  14.763   0.974   4.704
97407W        W69733   6.221  36.046  12.886
97408W        W69734  23.646   3.717   3.869
97409W        W69735  44.481   0.767   2.410
97410W        W69736  21.133   2.295  11.930
97411W        W69737   9.189   0.275   4.269
97412W        W69738  14.726  37.514   0.872
97413W        W69739   7.381  25.020   0.856
97414W        W69740  26.965  37.042   2.319
97415W        W69741   0.408  34.029  13.852
97416W        W69742  31.426  15.110   0.460
97417W        W69743  14.629  29.517  14.344
97418W        W69744  34.942  34.485  13.448
97419W        W69745   2.321  28.122  12.536
97420W        W69746  42.960  13.113  14.930
97421W        W69747  42.457  41.847   2.337
97422W        W69748   5.706  11.779   2.357
97423W        W69749  20.726   7.877  11.863
97424W        W69750  31.519  17.793   1.788
97425W        W69751   8.349  14.683  10.567
97426W        W69752  33.099  35.907   1.823
97427W        W69753   7.360  43.817   0.246
97428W        W69754  40.826  37.015  10.540
97429W        W69755  10.783   0.814  14.474
97430W        W69756  27.673  37.049   0.910
97431W        W69757   9.294  33.623   4.803
97432W        W69758  28.599  29.973   4.781
97433W        W69759   7.183   7.276  13.488
97434W        W69760  36.021   8.177  13.051
97435W        W69761   8.282   1.921   4.258
97436W        W69762  27.023  36.532  11.467
97437W        W69763   7.346  36.071   1.244
97438W        W69764  12.743   5.802   4.284
97439W        W69765  17.652   8.856   1.379
97440W        W69766  35.552   0.272   3.820
97441W        W69767  30.964  28.014   3.211
97442W        W69768  12.801  36.941   3.304
97443W        W69769  29.626  32.009   2.668
97444W        W69770   6.355  15.634  13.809
97445W        W69771  21.515  17.251  11.541
97446W        W69772  32.449   8.716   1.751
97447W        W69773   2.723  28.673   4.311
97448W        W69774   9.880   7.202  12.861
97449W        W69775   3.829  13.266  12.038
97450W        W69776  22.147  25.532  11.071
97451W        W69777  22.043   2.267  11.915
97452W        W69778  10.187  12.286  11.480
97453W        W69779  15.101  22.636  13.010
97454W        W69780  35.091  36.563  10.996
97455W        W69781  30.110   5.906  11.995
97456W        W69782   3.848  16.201  14.509
97457W        W69783  41.490  44.380  13.929
97458W        W69784   8.399  21.102   4.276
97459W        W69785   5.925  11.214  10.606
97460W        W69786  21.154  10.876  12.095
97461W        W69787  32.550  42.334   2.256
97462W        W69788  27.668   6.393  14.339
97463W        W69789  40.497  35.973   3.788
97464W        W69790  42.301  21.679   0.479
97465W        W69791   2.760  40.386  11.900
97466W        W69792   3.717  42.983  14.903
97467W        W69793  40.914  32.608  11.374
97468W        W69794  27.163  13.290   3.227
97469W        W69795  23.497  17.650   1.270
97470W        W69796   8.758  38.008   0.446
97471W        W69797  22.996  13.811  13.359
97472W        W69798  41.820  22.187   0.458
97473W        W69799   4.386  21.524  13.333
97474W        W69800  36.467  18.088  10.075
97475W        W69801  34.976  33.416   3.772
97476W        W69802  26.463  11.131   1.284
97477W        W69803  27.518  39.834  11.384
97478W        W69804  41.825   8.700  10.033
97479W        W69805  33.980  36.363   4.275
97480W        W69806  12.753  15.223   1.779
97481W        W69807  13.651  34.889   4.308
97482W        W69808   3.293  43.909  11.894
97483W        W69809  13.763  39.962  12.939
97484W        W69810  25.184   6.852  14.294
97485W        W69811  38.531  34.886  14.420
97486W        W69812  20.732  36.902   3.195
97487W        W69813  36.449   6.219   1.761
97488W        W69814  40.986  13.344  11.581
97489W        W69815  37.046  43.361  11.539
97490W        W69816  10.745  22.148  11.535
97491W        W69817  31.031   8.339  10.460
97492W        W69818  36.945  10.867  13.913
97493W        W69819  26.514  35.862  10.464
97494W        W69820  43.332  23.496  10.910
97495W        W69821   0.828  42.865  14.987
97496W        W69822  33.980  41.938  14.391
97497W        W69823  30.557  13.702  14.320
97498W        W69824  40.848   2.768   0.380
97499W        W69825  36.508  41.882   1.701
97500W        W69826  23.543  40.003   2.261
97501W        W69827   2.388  28.469   0.913
97502W        W69828  10.315  24.692  14.002
97503W        W69829  14.676  40.311   0.862
97504W        W69830  44.424  19.091  12.936
97505W        W69831  26.958  25.649  14.365
97506W        W69832  15.192   2.241   1.704
97507W        W69833  41.801  19.180   1.786
97508W        W69834  27.947  19.639  13.896
97509W        W69835  25.680  21.560   4.259
97510W        W69836  35.006  43.873  11.474
97511W        W69837  40.348   3.267  11.535
97512W        W69838  35.057  34.891  14.320
97513W        W69839  38.017  19.564   0.922
97514W        W69840  18.178  22.542   2.704
97515W        W69841   9.704  16.617  14.299
97516W        W69842  15.679  22.530   4.119
97517W        W69843  25.537   6.870   4.717
97518W        W69844  11.657   9.855  12.574
97519W        W69845  18.601  32.032  11.528
97520W        W69846  22.223  12.137   4.781
97521W        W69847  32.050   6.367   3.310
97522W        W69848  17.163  34.086   1.826
97523W        W69849  17.691  35.888  12.863
97524W        W69850  24.628  28.624   0.836
97525W        W69851  26.986  27.962  11.932
97526W        W69852  43.389  39.527  14.485
97527W        W69853  18.645  31.447   0.958
97528W        W69854  32.442  14.755   4.645
97529W        W69855  38.366  43.451  13.428
97530W        W69856   7.687  29.163  12.835
97531W        W69857  39.814  39.430  13.524
97532W        W69858  27.191  28.133   4.136
97533W        W69859   8.666  30.958  14.926
97534W        W69860  29.523  13.776  13.354
97535W        W69861  39.834   9.307   1.695
97536W        W69862  13.826  39.912  11.883
97537W        W69863  38.857   3.229  14.426
97538W        W69864  23.674   6.380   3.347
97539W        W69865  44.463  39.417   1.324
97540W        W69866  31.098  18.686  11.013
97541W        W69867  30.069  14.207   1.896
97542W        W69868  32.457  22.530  12.009
97543W        W69869  27.581  25.482  14.435
97544W        W69870  17.151  10.360  12.371
97545W        W69871  32.471   8.856   1.303
97546W        W69872  42.869  32.630  10.421
97547W        W69873  36.536  14.698  13.442
97548W        W69874   1.812  38.950   3.706
97549W        W69875  34.882  27.006   2.850
97550W        W69876  11.759  42.901  10.465
97551W        W69877   4.376  36.532   0.959
97552W        W69878  29.123  35.575  10.982
97553W        W69879   6.826   2.245   4.614
97554W        W69880   7.184  44.291   4.608
97555W        W69881   6.349  35.360   9.947
97556W        W69882  38.988   2.368   2.286
97557W        W69883  35.400  30.051  12.089
97558W        W69884  24.064  23.031   2.792
97559W        W69885  39.474  39.009  11.387
97560W        W69886  35.377   8.169   0.927
97561W        W69887  43.342  44.861  12.565
97562W        W69888  27.556  34.965   2.699
97563W        W69889  24.171   9.727  12.889
97564W        W69890  36.075  36.561  14.467
97565W        W69891  20.251  24.508   0.471
97566W        W69892   9.237   2.838  12.431
97567W        W69893  26.606  40.962  14.875
97568W        W69894  18.669   9.716   0.381
97569W        W69895  13.291  27.152   0.793
97570W        W69896  28.952  14.100   3.365
97571W        W69897  11.728   8.680  11.917
97572W        W69898  18.137  40.973   0.394
97573W        W69899  34.413  10.648  13.522
97574W        W69900  30.044  22.161   3.863
97575W        W69901  20.066   3.437  11.045
97576W        W69902  40.917  29.020  14.777
97577W        W69903  25.042  38.991  12.051
97578W        W69904  10.208  18.622  13.436
97579W        W69905   1.944  26.107   0.820
97580W        W69906  28.039  33.081  10.009
97581W        W69907   2.351  36.917  11.540
97582W        W69908   3.780  38.366   2.815
97583W        W69909  14.809   1.828   4.188
97584W        W69910   6.914  15.584  11.971
97585W        W69911   8.233  41.382  14.795
97586W        W69912  24.524  32.978   2.794
97587W        W69913  13.113   0.264  14.839
97588W        W69914  30.924  11.715   1.859
97589W        W69915   0.877   3.249  14.901
97590W        W69916  25.050  27.183  11.035
97591W        W69917  34.614   5.827  13.924
97592W        W69918  39.860  18.736  13.049
97593W        W69919  37.496  26.591   4.729
97594W        W69920  27.024  11.798  13.365
97595W        W69921  14.677  20.716   2.379
97596W        W69922  43.790  29.141   0.798
97597W        W69923  35.961  39.908   0.867
97598W        W69924   2.836  35.512  14.373
97599W        W69925  28.607   8.235  12.546
97600W        W69926   2.334   1.756  11.570
97601W        W69927  38.907  38.050  13.462
97602W        W69928  35.998  13.194   0.261
97603W        W69929  11.194  23.997   2.779
97604W        W69930  44.823  26.002   4.223
97605W        W69931  20.573  31.512  13.982
97606W        W69932  24.978  21.042  10.507
97607W        W69933  37.343  37.843   2.298
97608W        W69934  37.902   8.666   5.217
97609W        W69935  36.041  18.111   0.897
97610W        W69936  24.997  35.076  14.315
97611W        W69937  20.045  28.943  11.434
97612W        W69938  36.477  32.515   2.824
97613W        W69939  30.519  12.738   1.918
97614W        W69940   5.301  22.640   0.960
97615W        W69941  11.853  41.016   2.403
97616W        W69942  41.873   5.847  11.499
97617W        W69943  31.540   1.744  11.377
97618W        W69944   7.853  44.831   2.200
97619W        W69945  28.546   5.266  12.861
97620W        W69946  21.019   5.884  14.424
97621W        W69947  40.970  20.607   3.792
97622W        W69948   1.913  20.065   3.759
97623W        W69949   6.401  25.129   1.797
97624W        W69950  31.991  37.060  14.946
97625W        W69951  22.048  25.008   1.846
97626W        W69952  26.993   2.265   3.646
97627W        W69953   0.365   5.858  11.105
97628W        W69954  12.616  28.534   4.204
97629W        W69955   3.368  27.106  13.459
97630W        W69956  33.473  25.144   0.917
97631W        W69957  12.182   8.853   1.310
97632W        W69958  20.266  39.349  11.956
97633W        W69959   3.873  11.135   3.213
97634W        W69960  32.505  40.450   1.379
97635W        W69961  43.421  39.955  12.920
97636W        W69962  26.056  39.497   1.820
97637W        W69963  26.502  16.268   3.827
97638W        W69964   0.302   1.411  13.861
97639W        W69965   3.917  14.285  11.431
97640W        W69966  37.066  30.943   4.687
97641W        W69967   5.840  42.932  10.562
97642W        W69968  40.941  19.578   4.355
97643W        W69969  33.410  28.438  11.501
97644W        W69970  12.623  42.298  11.940
97645W        W69971  36.509  24.654  11.914
97646W        W69972   8.292  37.868  12.361
97647W        W69973  36.582  40.380   2.746
97648W        W69974  37.443   2.377  11.991
97649W        W69975  36.558  22.183  11.548
97650W        W69976  23.209  40.409  13.931
97651W        W69977   9.842  20.140   4.229
97652W        W69978  30.920  31.975  14.359
97653W        W69979   3.442   4.708   0.747
97654W        W69980   3.750  19.725  14.798
97655W        W69981  40.319   0.401  14.760
97656W        W69982   9.798  36.369   3.308
97657W        W69983  20.616   9.334  10.487
97658W        W69984   5.266  35.588   2.364
97659W        W69985  10.718  33.533   1.336
97660W        W69986  44.393  18.232  11.951
97661W        W69987  30.119  37.375   3.824
97662W        W69988  15.803   2.249   2.309
97663W        W69989  31.538  12.842   3.724
97664W        W69990   4.851  20.769  12.884
97665W        W69991  38.962  37.001   1.809
97666W        W69992  23.237   7.819  12.924
97667W        W69993   9.788  24.634  11.538
97668W        W69994  36.904  17.280  10.929
97669W        W69995  12.356  34.949   0.390
97670W        W69996  39.347  43.428   2.797
97671W        W69997  18.746  20.030   1.268
97672W        W69998  28.129  14.653  14.494
97673W        W69999  16.632  16.796  10.425
97674W        W70000  29.550  16.663   1.304
97675W        W70001  10.307  14.199  10.125
97676W        W70002  25.663  38.399  13.380
97677W        W70003  24.645  24.057   3.193
97678W        W70004  23.668  37.530   4.605
97679W        W70005   9.201   8.275  10.946
97680W        W70006  43.937  24.144  14.424
97681W        W70007  40.498  21.097  13.807
97682W        W70008  42.314  37.496   0.463
97683W        W70009  11.320  21.020   4.239
97684W        W70010   7.811  21.543   1.239
97685W        W70011  33.875  22.146  13.465
97686W        W70012   8.797  20.150  14.936
97687W        W70013   3.359  16.195   0.426
97688W        W70014  29.579  36.414  11.451
97689W        W70015  27.634  11.741  10.903
97690W        W70016  36.587  21.060  12.057
97691W        W70017  21.199  18.676  14.371
97692W        W70018  43.334  27.170  13.376
97693W        W70019  11.236  41.383  12.051
97694W        W70020  33.918  37.446  12.923
97695W        W70021  24.057   8.344   4.269
97696W        W70022  27.074   4.711   1.750
97697W        W70023   3.944  32.432   1.932
97698W        W70024  20.558  27.634   0.311
97699W        W70025  11.203   3.735  14.471
97700W        W70026   7.747  26.115  10.607
97701W        W70027  12.315  24.510  13.857
97702W        W70028  27.557  40.304   0.268
97703W        W70029  31.117  22.623   2.236
97704W        W70030  20.671  28.961   2.717
97705W        W70031   0.742  24.067   2.374
97706W        W70032  40.054   2.379   2.689
97707W        W70033  11.215  21.114  10.488
97708W        W70034  37.004  32.035  13.003
97709W        W70035  43.902  28.455   4.300
97710W        W70036  20.094  25.203   2.299
97711W        W70037  35.902   2.948  13.946
97712W        W70038  18.168  17.684   0.400
97713W        W70039   4.923  31.556  13.371
97714W        W70040   1.743  44.811   0.373
97715W        W70041  42.339  17.704   4.673
97716W        W70042  22.068  29.637   0.744
97717W        W70043   3.879  35.587  10.481
97718W        W70044  39.391  34.011  12.946
97719W        W70045  43.457  21.198   3.646
97720W        W70046  16.573  18.620  11.476
97721W        W70047  15.643   8.193  10.889
97722W        W70048  43.802  28.652   2.767
97723W        W70049   7.827  20.623  10.901
97724W        W70050  35.079   5.703   3.260
97725W        W70051  40.487  31.923   4.679
97726W        W70052   6.291   0.806  13.855
97727W        W70053  37.394  17.659  10.976
97728W        W70054  36.990   9.694  10.924
97729W        W70055  25.207   6.183  12.378
97730W        W70056  34.863  12.720   3.318
97731W        W70057  21.071   7.751  14.867
97732W        W70058   0.910  30.990  13.351
97733W        W70059  26.046  15.747  13.389
97734W        W70060  27.131  15.129   1.736
97735W        W70061  24.130   3.452   2.268
97736W        W70062   5.847  18.111   2.250
97737W        W70063   1.827  30.534   4.280
97738W        W70064  32.926   3.731  14.014
97739W        W70065  28.600  42.903   3.196
97740W        W70066  39.869  23.636  11.896
97741W        W70067  29.052  11.327  13.996
97742W        W70068   5.342   2.272  12.094
97743W        W70069   6.238  30.626   4.647
97744W        W70070  39.468  42.414   1.744
97745W        W70071  20.047  44.755  13.962
97746W        W70072  33.028   8.176   0.376
97747W        W70073  38.068  41.371  13.337
97748W        W70074   1.767   7.387   0.469
97749W        W70075  18.205  12.851  11.877
97750W        W70076  44.265  24.051  14.885
97751W        W70077  41.891  34.018   4.307
97752W        W70078  40.803  23.234   3.184
97753W        W70079  20.065   7.893  11.520
97754W        W70080   8.858  40.316  10.929
97755W        W70081  23.987  29.539  13.837
97756W        W70082   2.256  33.551  11.577
97757W        W70083  42.927  30.111  13.813
97758W        W70084  42.487  20.125  13.519
97759W        W70085  25.527  18.653   4.250
97760W        W70086   2.908  26.523  10.513
97761W        W70087  26.997   5.228  11.403
97762W        W70088  20.690  17.605  14.987
97763W        W70089  26.645  41.915   3.858
97764W        W70090  14.339  26.532   1.871
97765W        W70091  24.082  14.271   0.822
97766W        W70092  12.165   5.411  11.597
97767W        W70093  28.951   8.272  11.870
97768W        W70094   1.738  24.111  11.033
97769W        W70095  11.141   8.665   2.384
97770W        W70096   4.295  12.320  13.532
97771W        W70097  43.371  18.764   1.231
97772W        W70098  23.517  25.974   0.748
97773W        W70099  29.958  19.111   2.296
97774W        W70100  31.081  38.473   4.736
97775W        W70101  21.263   2.720  14.334
97776W        W70102   9.229   3.317  14.432
97777W        W70103  40.822  34.395   1.249
97778W        W70104  44.794  25.140   1.849
97779W        W70105  21.194  22.238  13.386
97780W        W70106  26.540   7.679   4.822
97781W        W70107  37.849   3.313  11.951
97782W        W70108   7.715  26.585  10.956
97783W        W70109  20.758  34.486  13.471
97784W        W70110  20.749  43.773  15.000
97785W        W70111  35.562  12.357   1.317
97786W        W70112   5.915  27.563  11.454
97787W        W70113  39.405  40.430   0.753
97788W        W70114  13.678  10.826  13.044
97789W        W70115  29.919  35.553   2.662
97790W        W70116  33.127   9.704  11.078
97791W        W70117  39.554  43.946   2.720
97792W        W70118  17.128  18.682  14.811
97793W        W70119  18.784  17.173  13.337
97794W        W70120   9.165   8.888  14.912
97795W        W70121  31.608  32.055  13.906
97796W        W70122  22.108  38.826  13.059
97797W        W70123  21.181   3.907  12.074
97798W        W70124  18.262  13.165   3.635
97799W        W70125  26.022  28.172  10.641
97800W        W70126  11.690  12.622  11.423
97801W        W70127   7.802  28.128   5.132
97802W        W70128   2.391   0.960  13.024
97803W        W70129  39.436   6.727  12.824
97804W        W70130   9.680  16.639  11.978
97805W        W70131  14.596  20.760   3.855
97806W        W70132  10.786   4.423  11.042
97807W        W70133   2.876   7.182  10.962
97808W        W70134  35.859  42.362   4.709
97809W        W70135   0.756  16.158   3.319
97810W        W70136  39.338  33.437  12.964
97811W        W70137  19.699   7.257  12.473
97812W        W70138  12.306   3.866  11.508
97813W        W70139  42.399   7.356  11.456
97814W        W70140   7.373   2.806  12.055
97815W        W70141  20.566  44.478   2.280
97816W        W70142  18.124  16.129  11.002
97817W        W70143  27.992  19.624  10.547
97818W        W70144  39.888   3.357   9.977
97819W        W70145   5.236  18.646   4.227
97820W        W70146  34.426   0.398   0.813
97821W        W70147  28.665  34.892  10.489
97822W        W70148  40.410  24.570  11.540
97823W        W70149   5.755  17.270  13.808
97824W        W70150  28.009  28.606  14.884
97825W        W70151  41.447  10.875  12.960
97826W        W70152  40.971  25.533  14.770
97827W        W70153  40.827   0.422  12.395
97828W        W70154   1.796   2.371   1.359
97829W        W70155  36.516  17.222   3.224
97830W        W70156  29.080  23.218   2.402
97831W        W70157  19.080  27.454   1.417
97832W        W70158  39.474  32.002   3.215
97833W        W70159   0.980  11.831   3.308
97834W        W70160  25.643   9.229   1.820
97835W        W70161  41.870   9.347  11.048
97836W        W70162  42.912  12.131   2.286
97837W        W70163  32.887   7.315  12.069
97838W        W70164  11.299  22.083   3.282
97839W        W70165  14.679  20.665   2.785
97840W        W70166  17.166  19.619  14.844
97841W        W70167  37.964  24.072   1.232
97842W        W70168   0.389  26.154  13.440
97843W        W70169  36.887  27.953   4.722
97844W        W70170  13.676   0.945  11.500
97845W        W70171   5.758   5.320  14.964
97846W        W70172  16.074   5.241   4.760
97847W        W70173  42.803  14.254  13.397
97848W        W70174  34.586  11.707   0.834
97849W        W70175   2.911  20.095   2.273
97850W        W70176   8.680  13.250  12.928
97851W        W70177  35.509  30.964   3.843
97852W        W70178  26.167  23.600  11.584
97853W        W70179  24.554  28.642   4.235
97854W        W70180  20.601  42.890   0.783
97855W        W70181   4.860   5.272   4.316
97856W        W70182   1.353  33.594  10.505
97857W        W70183  27.951  33.107   3.719
97858W        W70184   1.313   3.760  14.781
97859W        W70185  39.380  24.134  11.472
97860W        W70186  10.875  18.746  11.606
97861W        W70187   9.350  39.441  10.433
97862W        W70188  10.369  15.649  13.510
97863W        W70189  13.765  19.769   0.430
97864W        W70190  20.098  20.609  10.582
97865W        W70191  21.521  16.760  14.854
97866W        W70192  14.817  17.657   0.966
97867W        W70193   6.342  22.063  14.946
97868W        W70194   6.289   7.331  11.433
97869W        W70195  28.500   4.838   2.295
97870W        W70196   7.376   6.189  14.442
97871W        W70197  35.062  22.071  10.425
97872W        W70198  20.258  32.637  11.858
97873W        W70199  10.678   6.358   4.199
97874W        W70200  36.405  22.083   0.288
97875W        W70201  38.917  41.493  10.144
97876W        W70202  11.222   7.407  10.638
97877W        W70203  24.087  38.409  11.376
97878W        W70204  26.180   7.291  10.535
97879W        W70205  15.224  39.493   3.644
97880W        W70206  41.384  29.931   3.761
97881W        W70207  14.301  44.787  10.506
97882W        W70208   2.805  38.490  11.503
97883W        W70209   7.764  42.304  14.917
97884W        W70210   8.166  39.463  11.428
97885W        W70211  41.404  27.968  11.127
97886W        W70212  10.795  19.580  13.421
97887W        W70213  37.959  38.073  11.396
97888W        W70214   3.337   6.809  11.921
97889W        W70215  42.521  20.143  11.906
97890W        W70216  39.366   1.275  12.550
97891W        W70217  14.164  29.940   4.286
97892W        W70218  14.118  32.485   0.731
97893W        W70219  38.898  35.522   0.314
97894W        W70220  23.543   9.176  14.333
97895W        W70221  25.137  33.070   0.742
97896W        W70222  18.711  27.040   0.800
97897W        W70223   4.870  41.426  10.905
97898W        W70224  37.525  13.755   4.828
97899W        W70225  21.559   5.411  13.495
97900W        W70226   5.195   0.983  11.875
97901W        W70227   4.339  28.453   4.342
97902W        W70228  18.110  17.710   0.822
97903W        W70229   9.748  32.553   0.904
97904W        W70230  31.147  20.046   2.335
97905W        W70231  42.456  27.602   4.688
97906W        W70232   1.838  27.138  14.918
97907W        W70233  37.036  13.709   3.182
97908W        W70234  22.071  36.901  11.080
97909W        W70235  19.568  20.192  13.049
97910W        W70236  43.915   8.312   3.221
97911W        W70237  38.498  26.635   0.399
97912W        W70238  10.318  27.588  14.283
97913W        W70239  41.332   1.377   3.710
97914W        W70240  31.615  15.658  14.391
97915W        W70241  30.536  15.209  12.031
97916W        W70242  37.047  22.622  13.879
97917W        W70243   3.293  27.480   3.341
97918W        W70244  43.366  30.495   4.741
97919W        W70245  41.812  16.793   4.133
97920W        W70246   2.259   5.808   3.346
97921W        W70247  23.623  33.496   2.882
97922W        W70248  42.823  42.965   1.219
97923W        W70249  32.497  31.913   3.348
97924W        W70250  22.636  34.083  12.521
97925W        W70251  43.320  31.594  13.793
97926W        W70252  26.122   3.827  11.082
97927W        W70253  22.526  43.277  10.413
97928W        W70254  43.298   8.328  14.807
97929W        W70255  14.814   7.827   5.198
97930W        W70256  21.559  37.543  12.363
97931W        W70257  32.119  21.109   2.418
97932W        W70258   9.651  41.813  14.878
97933W        W70259  43.956   5.348   1.420
97934W        W70260  13.215  21.129  10.554
97935W        W70261  40.030  22.616  13.405
97936W        W70262  16.568  35.075   2.221
97937W        W70263  33.608   6.728   3.802
97938W        W70264  29.424  27.457   1.920
97939W        W70265   9.821   9.363   4.796
97940W        W70266  17.638  42.790  10.993
97941W        W70267  15.754  37.966  10.920
97942W        W70268  37.961  42.390  13.004
97943W        W70269  40.541  13.759   3.749
97944W        W70270   0.465  34.584   2.293
97945W        W70271  44.272  21.693   3.731
97946W        W70272  44.452  26.097   2.282
97947W        W70273  12.657  21.701  10.965
97948W        W70274  22.571  30.959   3.206
97949W        W70275  34.471  25.149  13.023
97950W        W70276  25.003  25.676   0.739
97951W        W70277  32.509   5.365   0.295
97952W        W70278   9.164   5.350   0.833
97953W        W70279  33.546  24.169  13.829
97954W        W70280  32.455  25.480  14.482
97955W        W70281  17.555   2.468   1.858
97956W        W70282  20.724  31.485   0.803
97957W        W70283  13.276  37.870   2.336
97958W        W70284  13.175  14.294   1.914
97959W        W70285  14.288  42.419  12.557
97960W        W70286  44.913  20.152   1.407
97961W        W70287  35.913  30.957  11.429
97962W        W70288  20.157  29.033   2.297
97963W        W70289   5.886  41.489  12.024
97964W        W70290  28.634  29.426  11.092
97965W        W70291  33.511   7.890   0.798
97966W        W70292  19.677   2.336  13.875
97967W        W70293  12.230  15.783  11.599
97968W        W70294  25.559  20.066   0.862
97969W        W70295   1.923  38.056   0.252
97970W        W70296   6.326   0.742  12.420
97971W        W70297  40.881  16.671  10.552
97972W        W70298  22.712  42.314   1.316
97973W        W70299  44.382  26.056   1.790
97974W        W70300  26.472  22.061  11.017
97975W        W70301   2.915  34.946   3.759
97976W        W70302  34.453  13.254   3.865
97977W        W70303  27.638  32.499  14.319
97978W        W70304  12.120  27.631   5.703
97979W        W70305  34.463  32.080   0.790
97980W        W70306  28.053   1.429  13.452
97981W        W70307   2.464  30.415  13.362
97982W        W70308  33.411  23.632  10.488
97983W        W70309  19.727   1.807   4.153
97984W        W70310  34.481  28.495   3.228
97985W        W70311  34.556  35.877   5.779
97986W        W70312  33.603  10.236  10.938
97987W        W70313  17.119  20.138  12.088
97988W        W70314  30.570  37.974   3.372
97989W        W70315  16.248  16.257  14.331
97990W        W70316  21.702  22.721  10.550
97991W        W70317  22.526   9.784  10.620
97992W        W70318  11.783  21.117   9.995
97993W        W70319  26.528  35.487   4.172
97994W        W70320  42.919  23.024   4.811
97995W        W70321  24.645  38.419   1.268
97996W        W70322  38.015  13.337  14.945
97997W        W70323  34.537  23.673   4.814
97998W        W70324   4.288  29.611  13.333
97999W        W70325  37.429  30.032   2.313
98000W        W70326  38.953  17.778   1.422
98001W        W70327   7.798  17.766  10.627
98002W        W70328  21.063  12.693   1.754
98003W        W70329   8.838   1.327  11.583
98004W        W70330  16.140  22.119   0.459
98005W        W70331   4.810  25.501  13.988
98006W        W70332  44.264  42.512  13.053
98007W        W70333  10.334  10.756  11.944
98008W        W70334  30.059  15.695  13.882
98009W        W70335  41.489   4.358   2.376
98010W        W70336  44.423  44.899   4.614
98011W        W70337  28.035  40.450  14.461
98012W        W70338   3.901  40.937   1.336
98013W        W70339  21.617  40.450   0.893
98014W        W70340  37.544  26.048   3.809
98015W        W70341   1.383  28.008   0.313
98016W        W70342  37.059   4.217  11.071
98017W        W70343   9.390  28.511  14.282
98018W        W70344   3.410  24.159   0.420
98019W        W70345  44.899  30.422   2.797
98020W        W70346  34.384   3.233  11.886
98021W        W70347   5.414  23.506  10.972
98022W        W70348   7.714  31.116  14.947
98023W        W70349  35.045   3.895  10.582
98024W        W70350  37.367   9.279   3.218
98025W        W70351  41.841  11.276  14.813
98026W        W70352   2.394  34.882  10.907
98027W        W70353  11.298  34.443   2.775
98028W        W70354   5.818  16.633   4.760
98029W        W70355  18.218  43.789   4.241
98030W        W70356  13.251  42.504   4.710
98031W        W70357  21.560   4.301   3.216
98032W        W70358  21.698  43.898   2.308
98033W        W70359  18.133   0.455   3.188
98034W        W70360  11.166  21.668   2.888
98035W        W70361  10.351  28.596  13.974
98036W        W70362  32.417   7.769   1.446
98037W        W70363  42.329  10.265   3.153
98038W        W70364   2.854  41.997   2.405
98039W        W70365  36.455   3.753   0.477
98040W        W70366  29.653  36.011   3.868
98041W        W70367   7.902  13.242   1.224
98042W        W70368  11.799  43.451   2.683
98043W        W70369  30.983  22.110  10.630
98044W        W70370  10.774  39.853  13.011
98045W        W70371  41.514   0.405   0.814
98046W        W70372  10.292  29.582  10.908
98047W        W70373  11.826   8.209  14.316
98048W        W70374  25.526  37.383   4.138
98049W        W70375  32.107   0.848  12.516
98050W        W70376  18.159  35.546   1.731
98051W        W70377  14.647  31.087   1.719
98052W        W70378  37.427   4.391  14.464
98053W        W70379  30.637  22.525  14.825
98054W        W70380  40.421   3.300  12.895
98055W        W70381  24.643   7.898   1.707
98056W        W70382  22.219  15.615  12.482
98057W        W70383   2.305  35.060   0.870
98058W        W70384  29.580  28.565   0.756
98059W        W70385  17.784  34.433   1.424
98060W        W70386  18.774  44.829   2.801
98061W        W70387   0.823   5.757  12.093
98062W        W70388  17.649  18.198  14.463
98063W        W70389   5.201  37.028   1.329
98064W        W70390  14.301   5.266  13.310
98065W        W70391  32.556  42.460  12.067
98066W        W70392   7.389  28.455   2.819
98067W        W70393  32.625  19.205   0.869
98068W        W70394  37.563  36.365   0.475
98069W        W70395  32.560  17.607  11.915
98070W        W70396  36.531  26.149  10.517
98071W        W70397  27.584   6.281  14.031
98072W        W70398  20.621  44.950  14.386
98073W        W70399  13.149  24.008  14.885
98074W        W70400  34.483  30.932  12.964
98075W        W70401  28.658   0.754   2.888
98076W        W70402   6.916   2.290  10.435
98077W        W70403  22.150   1.274   4.181
98078W        W70404  41.509   2.923   0.312
98079W        W70405  32.141   7.418  14.340
98080W        W70406  14.601  12.255   1.709
98081W        W70407  18.170  24.065  11.564
98082W        W70408  17.074  26.037  13.366
98083W        W70409  36.557  22.737  10.984
98084W        W70410  13.830   0.393  14.005
98085W        W70411  37.558  11.803   1.287
98086W        W70412  15.266   4.419  10.929
98087W        W70413  18.678   9.860   2.333
98088W        W70414   3.364  23.593   5.303
98089W        W70415  13.803  43.988   2.377
98090W        W70416  16.243  28.651   3.280
98091W        W70417   9.647  15.144   1.291
98092W        W70418   9.869  22.089  11.859
98093W        W70419  28.626   6.323  10.588
98094W        W70420   5.396  33.018  13.413
98095W        W70421  31.144   6.294   2.681
98096W        W70422  16.792  18.142   4.777
98097W        W70423  42.879  31.469  11.476
98098W        W70424  33.391  42.023  10.080
98099W        W70425  23.189  34.600   0.761
98100W        W70426  24.082   5.403   0.389
98101W        W70427  23.992   7.867   0.917
98102W        W70428  24.107  34.557  11.129
98103W        W70429  24.521  39.486   3.355
98104W        W70430   3.304  34.086   3.148
98105W        W70431  29.601   8.216   0.448
98106W        W70432  41.533   5.838  13.443
98107W        W70433  16.566  26.578   3.268
98108W        W70434   6.264   6.778   3.762
98109W        W70435  44.764  18.106  12.402
98110W        W70436  38.970  29.623  12.342
98111W        W70437  42.912  28.119   1.797
98112W        W70438  42.874  40.462  14.893
98113W        W70439   2.407  28.513   0.460
98114W        W70440  10.724  10.771   1.753
98115W        W70441   2.299  26.654   1.267
98116W        W70442   1.894  32.457  14.960
98117W        W70443  36.569  11.170   1.727
98118W        W70444   4.277   8.373   0.842
98119W        W70445   1.894  14.228  10.559
98120W        W70446  10.864  35.108   3.853
98121W        W70447  25.176  40.908  13.881
98122W        W70448  30.972  22.555  13.896
98123W        W70449  42.312  26.605  13.510
98124W        W70450   1.391  12.791  12.057
98125W        W70451  25.607  19.730  10.600
98126W        W70452   9.656  32.105   0.763
98127W        W70453   8.663  32.582   0.446
98128W        W70454  14.185  32.096  10.489
98129W        W70455  25.179   0.905   5.267
98130W        W70456   7.681  30.040   2.346
98131W        W70457  40.469  35.562  13.480
98132W        W70458   8.780  40.365   0.809
98133W        W70459  41.932  44.862   2.846
98134W        W70460  35.057  42.828   1.408
98135W        W70461  12.331  13.142  13.464
98136W        W70462  12.233  15.113  10.468
98137W        W70463  44.002   3.445  12.904
98138W        W70464  28.990  19.662  13.822
98139W        W70465   4.942   8.222   0.459
98140W        W70466   2.267  40.932  12.478
98141W        W70467  18.218  18.734  12.987
98142W        W70468   0.390  30.425  10.510
98143W        W70469  44.343  17.221   0.948
98144W        W70470   2.935  27.026  11.448
98145W        W70471   1.964   8.720  11.466
98146W        W70472  20.615  39.020  12.006
98147W        W70473   2.888  12.791   2.350
98148W        W70474   7.824  35.938  14.295
98149W        W70475   1.447  16.690  12.020
98150W        W70476  24.547  10.640   4.623
98151W        W70477  42.909  34.007  14.878
98152W        W70478   7.843  24.694   2.732
98153W        W70479   9.821  29.136  14.371
98154W        W70480  15.128  19.055   0.281
98155W        W70481  34.888   7.799   2.392
98156W        W70482   2.747  26.633   2.393
98157W        W70483  16.082  22.082  12.528
98158W        W70484  35.952  35.402  10.935
98159W        W70485  38.540  44.930  11.973
98160W        W70486   9.347  43.901  11.481
98161W        W70487  38.347  30.934  12.369
98162W        W70488  26.059   2.845  11.577
98163W        W70489  33.521  10.670   4.795
98164W        W70490  40.954  32.955   3.189
98165W        W70491  27.608  35.913  11.591
98166W        W70492  36.563  11.280  14.485
98167W        W70493  23.078  25.995   0.371
98168W        W70494  38.065  19.246  13.372
98169W        W70495  25.021  25.611  10.459
98170W        W70496  33.065  24.000   1.911
98171W        W70497  41.915  44.430  13.391
98172W        W70498  44.801  26.176   4.654
98173W        W70499  43.469  13.339   2.712
98174W        W70500  25.971  42.495  11.448
98175W        W70501  23.648  18.591  10.967
98176W        W70502   4.934  43.370  14.838
98177W        W70503  33.499   8.316  11.590
98178W        W70504   8.722  37.365  13.320
98179W        W70505  39.314  12.351   2.333
98180W        W70506  16.210  27.473  11.418
98181W        W70507  28.603  18.712   2.901
98182W        W70508  36.007  24.479   3.213
98183W        W70509  44.879  40.049   4.326
98184W        W70510   2.449  10.818   2.812
98185W        W70511  12.331  12.846  12.945
98186W        W70512  35.461  37.505   3.805
98187W        W70513  44.969  17.588  14.793
98188W        W70514   9.803  16.116   4.640
98189W        W70515  43.922   4.404   1.447
98190W        W70516  11.693  10.263  13.463
98191W        W70517  11.224  22.649  12.836
98192W        W70518  17.127   0.827   5.110
98193W        W70519  17.129  38.886  13.040
98194W        W70520  31.570  28.589   2.790
98195W        W70521   6.693   0.973   3.241
98196W        W70522  21.610  27.122  12.346
98197W        W70523  39.026  37.478  13.868
98198W        W70524  17.775  15.660  10.136
98199W        W70525  40.922  20.155  11.406
98200W        W70526  19.578  34.463   4.217
98201W        W70527   7.182  35.517   0.313
98202W        W70528   4.836  30.621  13.323
98203W        W70529   4.824  41.327   0.357
98204W        W70530  38.351   2.271   0.752
98205W        W70531   2.819  39.048   1.922
98206W        W70532   5.367   6.186  13.950
98207W        W70533  22.206  13.247  13.508
98208W        W70534  22.633  33.591   3.722
98209W        W70535  17.183  10.311   4.336
98210W        W70536  16.242  17.067   1.288
98211W        W70537  13.215  43.990  14.377
98212W        W70538  30.120  20.746   4.232
98213W        W70539  22.622   4.810  11.080
98214W        W70540  13.732   4.441   1.428
98215W        W70541  31.139  24.986   4.270
98216W        W70542  38.023   7.709   0.856
98217W        W70543  32.394  44.339  14.918
98218W        W70544  30.522  32.569   1.715
98219W        W70545  11.141  38.451   0.454
98220W        W70546  21.754   6.862  14.491
98221W        W70547  27.451   3.385   0.306
98222W        W70548  33.616  24.067  14.431
98223W        W70549  31.958   7.889  12.575
98224W        W70550  26.578   4.707   0.435
98225W        W70551   4.346  21.697  12.992
98226W        W70552   6.847  38.399  11.514
98227W        W70553  21.521  13.711   3.723
98228W        W70554  16.285  30.944  10.911
98229W        W70555  29.996  23.628  14.958
98230W        W70556  11.335  36.846   1.927
98231W        W70557   4.821  33.980  10.584
98232W        W70558  29.078  27.603   0.398
98233W        W70559  44.300  37.902   4.825
98234W        W70560  11.802  25.644   4.171
98235W        W70561  38.921  43.916  11.498
98236W        W70562  30.930  38.949   2.387
98237W        W70563  21.073  37.994   5.240
98238W        W70564   6.421  34.903   5.153
98239W        W70565  35.889  23.615  14.862
98240W        W70566  14.165  21.546   4.683
98241W        W70567  17.740  29.950   2.255
98242W        W70568   2.304   5.286  14.476
98243W        W70569  44.365  26.639  13.984
98244W        W70570  36.386   1.371  12.362
98245W        W70571   4.837  25.614  11.873
98246W        W70572  21.518  28.146  13.966
98247W        W70573  20.720  10.799  12.489
98248W        W70574   3.427  31.519   2.698
98249W        W70575  11.680   1.908   4.809
98250W        W70576   6.395   7.386  10.968
98251W        W70577  13.628  37.440  11.402
98252W        W70578   0.881   2.809  12.824
98253W        W70579  29.033   8.832  10.950
98254W        W70580   2.441  38.975   1.347
98255W        W70581  23.098  41.881  12.534
98256W        W70582  38.856  21.057   3.785
98257W        W70583  20.731  10.176   0.405
98258W        W70584  43.013  27.980   5.134
98259W        W70585  15.768  42.789  10.922
98260W        W70586  41.408  15.675   3.176
98261W        W70587  42.856  30.453  14.366
98262W        W70588  12.651  43.831  14.346
98263W        W70589  12.353  14.654   2.403
98264W        W70590  30.105   3.819   0.372
98265W        W70591  39.921  16.604  11.602
98266W        W70592  11.219  26.044   0.407
98267W        W70593  28.947  18.690   4.730
98268W        W70594  23.118  12.847  14.414
98269W        W70595  31.486   5.386  11.008
98270W        W70596  11.663  14.716   0.731
98271W        W70597   5.213   8.287  14.820
98272W        W70598   8.221  24.621   1.743
98273W        W70599  37.071  30.557  11.441
98274W        W70600  10.853   8.770  13.466
98275W        W70601  16.755  30.543   0.845
98276W        W70602  11.764  42.388  14.434
98277W        W70603  14.245  42.868  11.585
98278W        W70604  18.661  26.627  11.390
98279W        W70605  11.184  32.532  10.981
98280W        W70606  28.127  29.486   0.799
98281W        W70607  22.231  15.092  13.332
98282W        W70608   8.185  26.457   3.253
98283W        W70609  20.211  32.394   2.848
98284W        W70610  37.464   6.356   5.090
98285W        W70611  35.859  37.011   1.888
98286W        W70612  29.057  12.747   4.346
98287W        W70613  19.771  10.646  14.332
98288W        W70614  35.991  24.098  13.415
98289W        W70615  43.469   6.428   2.408
98290W        W70616   6.272  13.209   0.305
98291W        W70617  42.386  28.655  13.943
98292W        W70618   7.262  18.607   3.261
98293W        W70619  28.024  33.394  14.816
98294W        W70620  16.690  27.465   2.890
98295W        W70621  24.031   8.666  11.881
98296W        W70622  14.659  43.367   0.450
98297W        W70623  16.210   6.420   2.760
98298W        W70624  16.272  29.586  14.860
98299W        W70625  15.127  41.372   4.340
98300W        W70626  14.223   7.387   4.608
98301W        W70627  39.854  33.469   4.277
98302W        W70628  43.300   9.796   4.125
98303W        W70629  28.494   7.797  12.580
98304W        W70630  35.537  32.578  12.523
98305W        W70631  30.415  28.125  10.578
98306W        W70632  26.007   1.772  14.825
98307W        W70633  22.518  34.597   4.622
98308W        W70634  14.239  38.040  14.382
98309W        W70635  21.246  32.886   3.780
98310W        W70636  38.900  37.071   0.340
98311W        W70637  17.116  40.459   1.394
98312W        W70638  35.538  42.849  14.378
98313W        W70639   0.762   8.752   2.762
98314W        W70640  29.117  28.606  11.914
98315W        W70641  12.297  40.513  12.420
98316W        W70642  44.405  20.045  14.365
98317W        W70643  22.653  23.676  11.944
98318W        W70644   8.176  21.120  13.962
98319W        W70645  12.122  36.962  12.094
98320W        W70646  43.837  40.903  12.941
98321W        W70647  28.464  40.989   1.883
98322W        W70648   7.795  18.191   4.305
98323W        W70649  41.952  34.415  13.442
98324W        W70650   1.366   9.277   2.901
98325W        W70651  38.417  23.081  10.406
98326W        W70652  30.454   6.734  13.854
98327W        W70653  29.931  29.633  11.589
98328W        W70654  18.599  42.425   0.470
98329W        W70655  14.226  27.652  14.382
98330W        W70656  15.659  36.854  11.594
98331W        W70657  35.079   2.935   0.458
98332W        W70658  31.080  39.491   2.794
98333W        W70659  20.199  14.253  12.534
98334W        W70660  23.021  44.869  13.003
98335W        W70661   6.774  27.024  10.418
98336W        W70662  35.421  41.952   1.903
98337W        W70663  43.979   9.194  10.559
98338W        W70664  14.277  11.323   2.774
98339W        W70665  37.512   1.819  10.970
98340W        W70666  38.521  41.416   4.193
98341W        W70667  14.283  10.817  10.501
98342W        W70668  23.674  23.992   1.274
98343W        W70669   0.424   4.755   0.776
98344W        W70670  15.798  32.073  13.543
98345W        W70671   2.843  32.049   1.396
98346W        W70672  19.149  20.064  10.430
98347W        W70673  39.388   1.432   0.880
98348W        W70674  44.269  37.337   0.398
98349W        W70675   5.261  39.523   1.742
98350W        W70676   1.769  23.674   1.373
98351W        W70677  38.926  25.614   1.417
98352W        W70678  15.715  35.095   0.845
98353W        W70679  38.974   4.754  13.968
98354W        W70680  27.966  27.642   3.691
98355W        W70681  21.740  44.360   1.279
98356W        W70682  32.919   3.781   4.800
98357W        W70683  18.601  22.012  12.873
98358W        W70684  18.268  35.017   4.682
98359W        W70685  38.880  13.343   4.775
98360W        W70686  42.454  36.086   4.263
98361W        W70687   2.802  31.969   2.381
98362W        W70688   8.263  37.437  14.032
98363W        W70689  21.626  19.576   3.810
98364W        W70690  36.888  41.011   0.479
98365W        W70691   2.454  39.326   3.782
98366W        W70692  24.526  34.409   4.773
98367W        W70693  19.688  32.571   2.271
98368W        W70694  14.246   8.857   2.371
98369W        W70695  15.745  18.577  13.352
98370W        W70696  12.322  16.136  14.292
98371W        W70697  24.628  13.624   4.279
98372W        W70698  32.469  31.128   1.323
98373W        W70699  42.352  37.008  14.351
98374W        W70700  35.536  19.605   0.778
98375W        W70701  40.387  23.136   3.759
98376W        W70702  23.135   3.732   4.744
98377W        W70703  35.478  31.944   1.880
98378W        W70704   6.331   1.921  12.503
98379W        W70705  44.870   9.329   0.466
98380W        W70706  18.095  25.509  13.461
98381W        W70707  12.703  30.908  11.587
98382W        W70708  13.795  40.310   4.165
98383W        W70709  22.646  10.701  14.350
98384W        W70710   3.455  24.160   9.985
98385W        W70711  37.506  43.277  12.060
98386W        W70712  19.639  27.677   0.446
98387W        W70713  13.190  14.245   2.680
98388W        W70714  11.727  13.188   0.818
98389W        W70715  35.581  14.694  13.816
98390W        W70716  26.077  29.132   4.687
98391W        W70717  11.832  35.025   5.636
98392W        W70718  38.447  17.720  11.522
98393W        W70719   4.708  11.292   0.804
98394W        W70720  28.961  33.096   3.315
98395W        W70721  10.252  12.713   9.958
98396W        W70722  18.593  36.054  14.289
98397W        W70723   2.292   6.829   1.769
98398W        W70724  21.129  21.068   4.126
98399W        W70725  18.189  30.468   3.787
98400W        W70726  17.655  42.458  11.469
98401W        W70727  44.940   7.312   2.672
98402W        W70728  44.001  22.131   2.799
98403W        W70729  42.374  14.590  13.868
98404W        W70730  18.725  32.965   3.791
98405W        W70731   4.720  25.637   3.297
98406W        W70732   5.771   7.273  13.018
98407W        W70733   6.792   6.189  14.361
98408W        W70734   8.343   7.812  12.365
98409W        W70735  20.537  25.082  10.430
98410W        W70736  25.053  38.478   2.194
98411W        W70737  37.868  39.948   4.245
98412W        W70738  25.129  34.536  13.412
98413W        W70739  43.406  24.707  11.519
98414W        W70740  16.765  37.492  12.524
98415W        W70741   1.932  16.183  10.591
98416W        W70742   1.305  42.436  13.504
98417W        W70743   4.251   4.820  12.439
98418W        W70744  24.031   6.274  11.484
98419W        W70745  16.307  19.614  13.332
98420W        W70746   1.382  33.439  12.886
98421W        W70747  28.578  32.482   0.297
98422W        W70748   2.256   4.337   2.248
98423W        W70749   3.340  12.788  13.428
98424W        W70750   8.831   4.786   3.332
98425W        W70751  29.522   2.831  11.396
98426W        W70752   0.383  11.330   1.823
98427W        W70753  30.058  27.456   9.951
98428W        W70754  12.356  16.759  13.874
98429W        W70755  10.260   5.798   1.773
98430W        W70756  21.099  37.024  12.570
98431W        W70757   9.878  41.857   4.838
98432W        W70758  34.943  27.078   1.310
98433W        W70759  34.019   7.378  11.109
98434W        W70760  22.090  38.403   0.849
98435W        W70761  25.580  36.593  10.548
98436W        W70762  30.140  39.513   3.306
98437W        W70763  27.032  11.133  10.949
98438W        W70764  40.313  27.110   1.732
98439W        W70765  17.073  41.402   0.839
98440W        W70766  17.721  12.759   0.942
98441W        W70767  40.828  32.576   1.843
98442W        W70768  43.803  44.761  12.988
98443W        W70769  37.419  32.423   4.818
98444W        W70770  18.565  16.574   0.362
98445W        W70771  22.679   3.860   4.215
98446W        W70772  37.427  31.623   2.676
98447W        W70773  43.322  44.442   2.285
98448W        W70774  20.558  38.870   3.277
98449W        W70775  30.987   9.212  10.587
98450W        W70776  25.571   2.229  12.514
98451W        W70777  10.369   0.249  10.024
98452W        W70778   9.733   5.396   1.442
98453W        W70779  31.109  27.576  14.977
98454W        W70780  28.151   3.875  11.096
98455W        W70781  15.203  13.686   3.818
98456W        W70782   8.264  12.752  10.981
98457W        W70783  10.704   1.957   2.332
98458W        W70784  43.407   6.858   4.184
98459W        W70785  39.360  18.659   1.848
98460W        W70786  23.653  23.685   3.307
98461W        W70787  27.496  10.379  12.880
98462W        W70788  19.777  37.499   4.192
98463W        W70789   4.745  31.607  10.599
98464W        W70790  44.833  17.763   4.757
98465W        W70791  10.211  25.491  13.382
98466W        W70792  26.470  38.897  14.424
98467W        W70793  20.703   2.746   2.299
98468W        W70794   1.756  31.549   3.380
98469W        W70795  42.368  44.992  11.010
98470W        W70796  29.014   0.460  11.385
98471W        W70797   4.329   3.867  10.082
98472W        W70798  15.805  27.640  10.123
98473W        W70799  12.841  36.530   9.514
98474W        W70800  13.230   6.421  12.965
98475W        W70801  15.195  37.011  14.283
98476W        W70802   9.232  26.650  11.513
98477W        W70803  10.803  36.551  11.019
98478W        W70804  36.921   7.228   0.898
98479W        W70805  30.658  17.755  13.795
98480W        W70806  42.432  26.689   2.338
98481W        W70807   1.835  41.906   1.887
98482W        W70808  26.952  11.651   3.219
98483W        W70809  42.472   4.277   4.711
98484W        W70810  36.497  36.926  14.949
98485W        W70811  25.106  29.637  10.604
98486W        W70812  23.181   7.780   2.889
98487W        W70813  30.105   8.174   0.873
98488W        W70814  28.127   4.698  12.900
98489W        W70815  35.904  31.133  13.801
98490W        W70816   6.372  36.463   3.635
98491W        W70817  12.324   1.949  11.952
98492W        W70818  23.563  31.954   3.277
98493W        W70819  42.326  20.591   4.301
98494W        W70820  14.244  37.997   1.781
98495W        W70821   1.309   5.227  11.605
98496W        W70822  41.498  41.383  10.411
98497W        W70823  18.653   4.443  14.022
98498W        W70824  16.787  24.526  14.816
98499W        W70825  24.127   9.804   0.915
98500W        W70826  23.608  35.872  13.503
98501W        W70827  36.019  11.674  13.049
98502W        W70828  26.068  24.604  13.807
98503W        W70829  31.547   5.217  13.456
98504W        W70830  20.218   3.734   3.258
98505W        W70831  40.546  10.676   0.744
98506W        W70832   3.938   4.274  14.002
98507W        W70833  20.146  20.762  12.908
98508W        W70834  11.746  18.562  11.518
98509W        W70835  41.426   8.750   4.345
98510W        W70836  25.177   4.789  12.869
98511W        W70837  39.367  36.877  10.957
98512W        W70838   5.693  17.701  12.900
98513W        W70839  29.524  13.161  10.954
98514W        W70840  25.035  44.986   2.693
98515W        W70841   9.757  13.350   1.351
98516W        W70842  37.056   6.362   1.879
98517W        W70843   5.768  33.042  11.977
98518W        W70844  30.071  30.995   2.365
98519W        W70845  42.488  27.197   0.268
98520W        W70846  36.430  43.815   1.752
98521W        W70847   0.475  29.935   4.803
98522W        W70848  10.665  38.418   2.252
98523W        W70849  26.974   2.846  12.942
98524W        W70850  31.508   9.310   4.200
98525W        W70851   4.311  12.716   4.302
98526W        W70852  30.986  21.091  14.418
98527W        W70853  23.643  26.130  11.470
98528W        W70854   8.874  38.552   2.295
98529W        W70855  24.205   3.313  10.064
98530W        W70856  11.837   3.452  14.909
98531W        W70857  10.878  37.500  11.051
98532W        W70858  43.383  32.552  13.046
98533W        W70859   8.302  30.578   1.803
98534W        W70860  19.602  28.678  13.004
98535W        W70861  30.426  32.124  11.077
98536W        W70862  30.415  25.013  14.287
98537W        W70863  19.741  29.623  10.928
98538W        W70864  30.096  31.610  11.869
98539W        W70865  10.138  27.996  14.791
98540W        W70866  13.290  22.167   0.891
98541W        W70867  26.589  36.964   3.252
98542W        W70868  40.905  12.699  14.897
98543W        W70869  28.029  31.128  12.092
98544W        W70870  12.670  35.049   3.248
98545W        W70871  17.278  41.806  11.098
98546W        W70872  44.910  40.984  12.857
98547W        W70873  35.071  29.503  11.956
98548W        W70874  11.749   2.368   1.449
98549W        W70875   8.184   6.241  12.476
98550W        W70876  28.962  12.303   4.323
98551W        W70877  13.803  22.695  12.986
98552W        W70878   0.821  23.118   4.317
98553W        W70879  23.537  37.573  12.058
98554W        W70880  30.016  41.824  13.425
98555W        W70881  42.474  34.369   0.404
98556W        W70882  38.931  30.559   3.799
98557W        W70883  21.587   7.692  13.930
98558W        W70884  38.842  11.136   4.824
98559W        W70885   3.326   9.174   5.312
98560W        W70886  21.697   3.297   0.348
98561W        W70887   7.215  14.322  13.465
98562W        W70888  30.159   8.782  14.465
98563W        W70889   1.827  31.524  12.391
98564W        W70890  22.727   8.175  10.911
98565W        W70891  13.601  25.509  13.966
98566W        W70892  37.501   6.249  13.499
98567W        W70893  33.461  39.432  11.463
98568W        W70894   5.877  16.774  14.408
98569W        W70895  29.565  16.092  12.564
98570W        W70896  27.169  43.842  14.326
98571W        W70897  29.085   7.367   1.343
98572W        W70898   1.937   9.781   5.676
98573W        W70899  38.547  34.382  14.023
98574W        W70900  25.142  32.577  14.413
98575W        W70901  16.809  36.572   2.671
98576W        W70902  14.613  21.565  12.096
98577W        W70903  42.387  20.728  11.122
98578W        W70904  36.932  10.699  10.139
98579W        W70905  26.609   0.447   2.390
98580W        W70906  25.086  40.526   1.312
98581W        W70907   4.371  15.754   3.741
98582W        W70908  20.539   1.906  14.998
98583W        W70909  15.612  36.859  12.392
98584W        W70910   3.304  38.024   5.300
98585W        W70911  32.449  26.612  12.832
98586W        W70912  39.401   5.798   1.868
98587W        W70913   6.307  31.451   2.770
98588W        W70914  44.429  31.558  12.441
98589W        W70915   1.283  26.068  13.340
98590W        W70916  19.694  34.119  13.419
98591W        W70917  32.105   7.754   0.331
98592W        W70918   8.696   1.747  11.908
98593W        W70919   7.392  18.192  12.952
98594W        W70920  40.032  37.485  14.806
98595W        W70921  37.071  16.733   0.268
98596W        W70922   2.422  40.933  14.875
98597W        W70923   5.730  39.555   1.411
98598W        W70924  26.044  25.106  13.054
98599W        W70925  20.187  12.723  14.420
98600W        W70926  37.534  32.563  12.897
98601W        W70927  40.443  34.513   4.621
98602W        W70928   6.378   7.711   3.372
98603W        W70929  30.604   7.709   2.269
98604W        W70930  40.407  29.121   2.706
98605W        W70931  10.803  42.995   1.289
98606W        W70932   1.915  37.478  12.422
98607W        W70933  19.153  21.245  13.540
98608W        W70934  27.548   6.314   0.862
98609W        W70935  40.043   0.347   2.239
98610W        W70936  17.699  37.908   1.746
98611W        W70937  23.538   6.395  11.055
98612W        W70938   2.799  33.089   1.427
98613W        W70939  25.602   6.902  14.863
98614W        W70940  28.519  24.217   1.260
98615W        W70941   9.674  39.510   2.841
98616W        W70942  33.562  31.594  11.129
98617W        W70943  33.481  20.137   1.933
98618W        W70944  37.361  23.630  10.521
98619W        W70945   3.342  26.969   1.723
98620W        W70946  28.034   3.273  12.015
98621W        W70947  20.196   9.875  13.499
98622W        W70948   0.952   6.190  12.906
98623W        W70949  13.179  33.079   3.786
98624W        W70950  44.416  16.759  10.553
98625W        W70951  12.661   4.821   4.754
98626W        W70952   0.363  34.021  13.445
98627W        W70953   9.886  23.152   2.205
98628W        W70954  19.722  27.544   4.346
98629W        W70955   3.328  42.365  14.462
98630W        W70956   7.854  41.450   1.927
98631W        W70957  18.558  31.479  14.824
98632W        W70958  19.579  34.984   3.759
98633W        W70959  44.876  33.416  10.448
98634W        W70960   6.876  34.103  11.058
98635W        W70961  26.108  21.108   4.226
98636W        W70962   0.912  11.214   3.229
98637W        W70963   2.812  17.579  13.848
98638W        W70964  37.926  34.937   4.133
98639W        W70965  32.463  38.855  12.573
98640W        W70966   3.839   7.276   3.210
98641W        W70967   5.429  36.403   2.809
98642W        W70968  29.568  44.419   1.403
98643W        W70969  34.120  27.521  11.947
98644W        W70970   4.393   0.249   1.441
98645W        W70971  37.042  14.123   2.739
98646W        W70972  37.554  30.461  14.818
98647W        W70973   9.297  32.613  10.603
98648W        W70974   6.323  35.977  11.007
98649W        W70975  21.687   8.186   3.374
98650W        W70976  25.162  10.264  14.851
98651W        W70977   7.295   7.320  14.430
98652W        W70978  29.082  32.002   1.347
98653W        W70979  10.375   2.897   3.242
98654W        W70980   6.859  23.510  12.000
98655W        W70981  14.695  37.394  13.420
98656W        W70982   2.723  34.390  11.061
98657W        W70983  18.610  37.861  12.546
98658W        W70984  39.420  37.891   4.757
98659W        W70985  37.872  36.888   3.339
98660W        W70986  44.392  38.336  11.924
98661W        W70987  42.909   4.269   1.876
98662W        W70988  25.219   9.182   2.275
98663W        W70989  31.068  38.004  13.494
98664W        W70990   5.808  44.783   0.882
98665W        W70991  36.490  44.360  10.631
98666W        W70992  32.006   1.414  11.919
98667W        W70993  36.081  26.964   0.405
98668W        W70994  39.005   5.834   1.355
98669W        W70995  38.338  33.920  14.981
98670W        W70996  22.587  21.099   1.748
98671W        W70997  11.332  35.108  12.963
98672W        W70998  13.613   5.830  11.436
98673W        W70999  36.507  22.718  11.863
98674W        W71000  28.939  42.881  11.514
98675W        W71001   3.859  26.460  10.579
98676W        W71002  12.117  12.634   2.661
98677W        W71003   2.757  16.239  13.496
98678W        W71004  32.549  37.907  10.892
98679W        W71005  14.101  25.121   5.095
98680W        W71006  30.997  40.986  12.393
98681W        W71007  22.168  35.087  11.966
98682W        W71008  42.313  35.043  12.381
98683W        W71009  32.572  16.097  10.406
98684W        W71010  35.060  15.779  12.490
98685W        W71011  20.600  41.803  12.513
98686W        W71012  26.166  41.438  11.516
98687W        W71013  44.980   3.813   3.369
98688W        W71014  10.223  19.251   4.814
98689W        W71015  15.744  39.460  14.013
98690W        W71016  31.512  17.675  13.014
98691W        W71017  11.814  15.298  11.595
98692W        W71018  19.211   3.713  13.931
98693W        W71019  36.977  12.182  12.453
98694W        W71020  30.087  36.890   2.297
98695W        W71021   8.807  40.511   0.466
98696W        W71022  14.207  37.929   5.171
98697W        W71023  38.873  23.635   2.331
98698W        W71024  25.181  22.198  12.383
98699W        W71025  20.682  20.600   2.353
98700W        W71026  33.905  37.931  13.053
98701W        W71027  33.557   0.763   1.916
98702W        W71028  31.409  44.439   2.668
98703W        W71029   9.242  41.417   0.445
98704W        W71030  31.618  14.725   1.323
98705W        W71031  29.576   2.815   0.946
98706W        W71032  32.069  34.541  14.286
98707W        W71033  18.199  19.171  11.883
98708W        W71034  42.815   8.275  11.521
98709W        W71035  14.200  36.470  10.524
98710W        W71036  33.410   1.842  10.491
98711W        W71037  23.735  31.558  10.888
98712W        W71038  23.605  39.974   4.345
98713W        W71039   8.286  16.566   2.205
98714W        W71040  17.255  43.472  12.002
98715W        W71041  36.022   0.304  10.605
98716W        W71042  39.891  35.386  10.995
98717W        W71043  37.560  11.690   0.462
98718W        W71044  11.739   2.414  12.472
98719W        W71045  23.523   1.326  13.889
98720W        W71046  42.028  44.397   5.192
98721W        W71047  21.571   1.284   2.864
98722W        W71048   7.852  16.155  13.836
98723W        W71049  40.454   9.353   4.793
98724W        W71050  33.077   6.899   2.729
98725W        W71051  27.631   5.766   3.740
98726W        W71052   2.247  22.239   4.335
98727W        W71053  11.779  16.689   2.386
98728W        W71054  37.531  17.684   0.927
98729W        W71055   2.460  38.938  11.443
98730W        W71056  34.863   3.345   1.748
98731W        W71057  23.496  22.657  14.437
98732W        W71058  14.122   6.845   2.179
98733W        W71059  44.365   0.765   5.096
98734W        W71060   6.898  34.052  14.868
98735W        W71061  12.185  39.355   4.212
98736W        W71062  17.149  10.876  13.826
98737W        W71063  11.639  38.915   0.269
98738W        W71064   5.699  18.295  11.596
98739W        W71065   0.924  18.635   2.812
98740W        W71066  21.085  13.725  14.413
98741W        W71067  25.567  39.866   1.308
98742W        W71068  33.993  27.019   0.771
98743W        W71069  37.995  36.426  11.944
98744W        W71070   1.392  15.762  12.983
98745W        W71071  12.661   3.313  14.857
98746W        W71072  31.581  41.321   4.759
98747W        W71073  44.773   5.921  12.860
98748W        W71074  28.976  44.365  11.517
98749W        W71075  39.936  34.927  14.830
98750W        W71076  41.871  13.790   2.280
98751W        W71077  34.371  36.445  13.337
98752W        W71078   6.879  42.471   3.746
98753W        W71079  33.455  35.852   4.217
98754W        W71080   7.793  15.163  14.366
98755W        W71081  20.675  38.489   1.892
98756W        W71082  16.766  26.629   0.351
98757W        W71083  25.494   1.732   1.818
98758W        W71084  20.215  38.361   1.260
98759W        W71085   1.478  15.629   1.243
98760W        W71086   4.361  11.219  11.913
98761W        W71087  30.508  12.712  12.359
98762W        W71088  18.162  34.015  12.894
98763W        W71089   6.727  11.629   4.335
98764W        W71090  39.383  36.906  14.424
98765W        W71091  19.094   0.451   2.365
98766W        W71092   8.790  30.083  11.421
98767W        W71093  37.009   3.339   3.348
98768W        W71094  17.650  37.830  13.501
98769W        W71095  18.713  41.416   3.826
98770W        W71096  15.301  26.530   4.813
98771W        W71097  16.316   0.300  13.321
98772W        W71098  28.961  24.213  13.899
98773W        W71099  41.415  34.414   3.243
98774W        W71100  22.622   5.300  10.951
98775W        W71101   9.277   6.197   9.990
98776W        W71102  10.721  14.244   1.745
98777W        W71103   8.893   8.712  11.023
98778W        W71104  21.566   1.873  11.586
98779W        W71105  20.709  31.554  13.485
98780W        W71106   9.368  43.899   3.685
98781W        W71107  20.697  24.985  13.360
98782W        W71108  41.512  22.651   4.693
98783W        W71109  12.277  12.787  14.275
98784W        W71110  35.538  16.811   2.837
98785W        W71111  12.656   7.318  11.564
98786W        W71112  36.507  20.640   0.949
98787W        W71113  15.644   7.804  14.989
98788W        W71114  18.161  33.020   0.831
98789W        W71115   4.876   2.447  14.293
98790W        W71116  33.113  30.001   2.869
98791W        W71117   9.186  21.253   2.692
98792W        W71118  10.213  43.290   1.425
98793W        W71119  33.126  25.077   4.248
98794W        W71120  41.822  37.545   0.790
98795W        W71121  21.129  44.942   4.115
98796W        W71122   1.256   3.351   3.869
98797W        W71123  19.208  26.512   2.802
98798W        W71124  44.815  18.749  11.523
98799W        W71125  40.864   5.811   0.758
98800W        W71126  23.091  34.390  10.441
98801W        W71127  32.469  41.838  11.979
98802W        W71128  23.231  35.471  13.804
98803W        W71129  10.265  10.143  11.453
98804W        W71130  12.233  35.090  14.498
98805W        W71131  23.576  13.331  14.477
98806W        W71132   3.417  10.296  13.493
98807W        W71133   1.304  32.956  13.049
98808W        W71134  33.525  38.406   0.315
98809W        W71135  28.161  22.219   1.924
98810W        W71136   9.763   3.823  11.540
98811W        W71137  37.353   3.942  14.784
98812W        W71138   0.916  24.976  10.130
98813W        W71139  38.530  43.333   1.695
98814W        W71140  29.067   4.387   3.378
98815W        W71141   5.214  16.088  11.441
98816W        W71142  35.996  25.553   2.733
98817W        W71143  38.556  16.145   2.794
98818W        W71144  41.992  25.007   4.826
98819W        W71145   4.397  25.635  10.593
98820W        W71146   9.276  19.124  12.346
98821W        W71147  27.165  35.951   3.194
98822W        W71148  43.809  14.321   2.207
98823W        W71149  38.987  16.185  13.322
98824W        W71150  19.199  43.931   4.734
98825W        W71151   3.450   9.719   1.713
98826W        W71152  22.070  42.781   1.861
98827W        W71153  19.665  36.979  14.378
98828W        W71154  32.109  37.930  13.823
98829W        W71155  24.992   5.911  13.824
98830W        W71156   4.278  16.144   2.701
98831W        W71157  37.878  18.716  10.982
98832W        W71158  36.448  19.137   3.851
98833W        W71159   0.783   9.808   4.166
98834W        W71160  33.898   8.214  12.561
98835W        W71161  23.153  18.755  14.030
98836W        W71162   5.925  36.467  12.547
98837W        W71163  30.013  32.028   4.350
98838W        W71164  11.622   4.765  14.509
98839W        W71165   2.443  39.855   2.226
98840W        W71166  17.624  31.030  13.936
98841W        W71167  30.640  30.580   0.924
98842W        W71168   5.794  43.440  10.953
98843W        W71169  29.522  27.605  11.417
98844W        W71170  26.141  19.674  14.985
98845W        W71171  28.050  30.938   4.658
98846W        W71172  20.528  38.969   3.670
98847W        W71173  34.428  12.669  12.880
98848W        W71174  25.495  17.079   3.179
98849W        W71175   9.814   5.356  13.533
98850W        W71176  17.628  20.088   2.378
98851W        W71177   7.882  42.401  11.988
98852W        W71178  18.255  43.782  14.961
98853W        W71179  13.117  31.460  11.106
98854W        W71180   2.823   6.794  11.548
98855W        W71181  41.524  32.623  11.539
98856W        W71182  44.403  28.075   1.217
98857W        W71183  29.604  38.919  14.894
98858W        W71184  31.109  16.614  10.631
98859W        W71185  30.462  23.687   0.928
98860W        W71186  38.340  37.522   0.800
98861W        W71187  13.835   6.207  12.413
98862W        W71188  21.029  35.871  10.950
98863W        W71189  33.028  18.663   4.759
98864W        W71190  23.037  24.195  10.920
98865W        W71191  10.844  43.404  13.947
98866W        W71192  20.649  41.971  12.042
98867W        W71193  41.447  18.168   2.244
98868W        W71194  14.616  43.882  12.517
98869W        W71195  43.313  44.426   4.803
98870W        W71196  42.811  23.597  13.432
98871W        W71197  36.095  37.501   3.340
98872W        W71198  28.120  32.936  14.769
98873W        W71199   9.349   9.704  14.916
98874W        W71200   1.264  33.081  14.931
98875W        W71201  26.142  22.568  12.504
98876W        W71202  17.612  27.151  13.981
98877W        W71203  31.083   1.281   4.671
98878W        W71204  25.109  12.296  13.468
98879W        W71205  25.506  32.088   4.150
98880W        W71206  16.074  31.417  13.938
98881W        W71207  42.424  14.704   0.806
98882W        W71208  23.535  26.668  14.360
98883W        W71209  28.555   2.846  10.466
98884W        W71210  19.620  19.075  10.517
98885W        W71211  44.441  30.515  14.470
98886W        W71212   2.292  32.927   4.599
98887W        W71213  13.222  12.341   0.432
98888W        W71214  35.089   5.690   2.786
98889W        W71215  37.406  27.084   0.838
98890W        W71216  21.637  10.679   4.260
98891W        W71217  28.586  33.614  14.402
98892W        W71218  32.540  35.586   4.140
98893W        W71219  42.986  19.201   3.211
98894W        W71220  27.004  34.021   2.402
98895W        W71221  29.472  29.480   1.373
98896W        W71222  37.848  21.595   2.753
98897W        W71223  27.505  19.725  11.591
98898W        W71224   6.322  29.592   1.747
98899W        W71225  16.228  21.093  12.934
98900W        W71226   7.372  41.428   4.236
98901W        W71227  38.996  22.614   2.329
98902W        W71228  44.005  23.150  11.967
98903W        W71229  41.016  26.553  12.954
98904W        W71230  11.194   5.252  12.388
98905W        W71231  44.869  32.952  13.833
98906W        W71232  27.534  16.102   3.714
98907W        W71233  21.153  43.846   1.716
98908W        W71234  16.314  25.147   3.341
98909W        W71235  20.541  15.607  14.019
98910W        W71236  41.513  22.536   1.842
98911W        W71237  43.961   0.821  12.028
98912W        W71238  28.067  42.337  10.581
98913W        W71239  27.590  33.902  13.038
98914W        W71240  10.220  26.690   1.699
98915W        W71241  12.333  36.021   1.776
98916W        W71242  35.005  26.013  11.111
98917W        W71243   9.851   9.843  12.355
98918W        W71244  10.841  38.916   3.859
98919W        W71245  25.016  28.458  12.039
98920W        W71246   0.338  43.990   2.843
98921W        W71247  39.334  34.925  11.577
98922W        W71248   7.822  41.872   0.861
98923W        W71249  19.242   0.897  13.043
98924W        W71250  10.323  17.104  11.936
98925W        W71251  37.503   6.275  12.095
98926W        W71252  38.341   4.302   0.390
98927W        W71253  27.530  32.579   4.622
98928W        W71254  23.169  37.410   0.297
98929W        W71255  12.198  32.946   2.791
98930W        W71256  29.560  42.913   2.820
98931W        W71257  26.493  41.850   4.817
98932W        W71258  11.707   2.916  11.478
98933W        W71259  34.596  28.497   4.608
98934W        W71260  40.049  30.050   4.782
98935W        W71261  22.589  23.200   0.340
98936W        W71262   3.937  42.804  13.412
98937W        W71263  21.115  17.103   1.281
98938W        W71264   8.855  41.921   1.322
98939W        W71265  13.253   8.764   3.811
98940W        W71266  32.509  25.524  12.556
98941W        W71267  29.923   0.859   2.752
98942W        W71268   8.724   6.205   1.362
98943W        W71269  33.986   6.792   4.290
98944W        W71270  17.566  33.517  11.518
98945W        W71271   9.754   6.856  14.399
98946W        W71272  29.440  15.748   1.225
98947W        W71273  31.097   2.463  11.991
98948W        W71274  17.758  33.125   0.871
98949W        W71275  29.532  39.507   4.665
98950W        W71276  28.452  34.513  13.388
98951W        W71277   5.281   4.237  14.791
98952W        W71278  40.875  35.854   2.400
98953W        W71279   0.297  15.579  11.528
98954W        W71280   7.676  17.628   0.873
98955W        W71281  26.107  18.180   3.320
98956W        W71282  29.531   1.962  13.047
98957W        W71283  35.056  34.391   3.691
98958W        W71284  30.579  30.080   3.330
98959W        W71285  23.106  33.458  12.999
98960W        W71286  26.564  17.690   1.274
98961W        W71287  27.058   0.777   2.889
98962W        W71288  21.719  12.784   3.674
98963W        W71289  43.894  11.271  14.914
98964W        W71290  15.807  12.129  12.940
98965W        W71291   5.928  35.975  10.473
98966W        W71292  18.626  16.263   3.298
98967W        W71293  37.379  27.666   4.279
98968W        W71294  14.800  36.879   4.796
98969W        W71295  44.795  42.280   1.264
98970W        W71296   9.199   2.957  10.619
98971W        W71297  27.119  23.552  10.454
98972W        W71298  28.444  22.731   2.663
98973W        W71299  31.048  17.768   3.259
98974W        W71300  24.178   4.700   4.251
98975W        W71301  25.065  35.099  10.898
98976W        W71302  26.626  30.439   1.413
98977W        W71303  13.748  17.142   4.300
98978W        W71304  36.964  33.934   1.870
98979W        W71305  40.807  33.410  12.438
98980W        W71306  11.830  10.820   3.248
98981W        W71307  29.533  32.125   0.865
98982W        W71308  10.764  22.092   3.653
98983W        W71309  37.340  37.416   0.806
98984W        W71310  22.691  32.100   2.405
98985W        W71311  26.459  29.018  13.892
98986W        W71312   4.322  28.974  12.937
98987W        W71313  10.210  24.032  14.453
98988W        W71314  44.361  41.950   0.260
98989W        W71315  38.014  29.607  11.876
98990W        W71316  26.483  13.842   0.321
98991W        W71317  35.582  35.593   3.862
98992W        W71318  36.346   7.762   4.196
98993W        W71319   2.733  39.025   4.241
98994W        W71320  30.589  44.423   1.414
98995W        W71321  39.973  18.752   4.239
98996W        W71322  12.688  21.251  13.990
98997W        W71323   8.241  16.812   2.843
98998W        W71324   8.830  26.171  10.419
98999W        W71325   7.835   8.800  10.999
99000W        W71326  24.178  33.450  13.881
99001W        W71327  43.304  30.071   4.316
99002W        W71328   8.254  10.155  11.970
99003W        W71329  10.298  17.212  11.115
99004W        W71330  23.526   8.726  14.282
99005W        W71331  15.704  24.714   2.774
99006W        W71332  25.967   8.166  14.883
99007W        W71333   1.815  19.071   0.751
99008W        W71334  40.394  38.973   1.233
99009W        W71335   1.870  44.883   4.271
99010W        W71336   2.395  16.610   2.179
99011W        W71337  43.931   2.894  13.803
99012W        W71338  29.153  42.805   0.327
99013W        W71339   0.444  40.509   0.423
99014W        W71340  12.750  33.968   4.689
99015W        W71341  23.116  11.359  13.823
99016W        W71342  42.904  32.934   1.764
99017W        W71343  27.065  19.636  10.515
99018W        W71344  14.788   4.435  11.921
99019W        W71345   6.187  40.920   4.182
99020W        W71346   3.849  36.486  14.004
99021W        W71347   8.867  27.089  13.847
99022W        W71348  40.482   3.756   4.753
99023W        W71349  26.646  37.033  12.499
99024W        W71350  35.455  21.639  12.946
99025W        W71351  38.013  12.630   2.865
99026W        W71352  18.158  15.721   0.903
99027W        W71353  16.242   7.793  14.352
99028W        W71354  36.857  30.107   4.770
99029W        W71355  17.661   9.679  10.481
99030W        W71356  34.014  19.721   0.858
99031W        W71357   5.722  40.452   3.785
99032W        W71358  10.873  32.978  11.531
99033W        W71359  16.144  25.985   3.329
99034W        W71360  42.397  24.683  10.962
99035W        W71361  29.441   9.863  12.965
99036W        W71362   1.871  15.762  13.310
99037W        W71363  17.722  14.098  11.065
99038W        W71364  38.853  10.845  14.466
99039W        W71365  35.102  39.411   0.844
99040W        W71366  31.586   5.387   3.303
99041W        W71367  19.172  22.555   3.800
99042W        W71368  34.577  31.908   3.685
99043W        W71369   3.854  17.662  14.305
99044W        W71370   8.687  12.705   0.280
99045W        W71371  18.173  20.551   4.115
99046W        W71372  25.999  28.182   4.697
99047W        W71373  35.576  18.283  10.427
99048W        W71374  11.228  41.875  12.532
99049W        W71375   9.804   4.891  14.883
99050W        W71376  36.020   2.751  14.316
99051W        W71377   3.219   3.931   0.265
99052W        W71378  43.996   7.670   3.205
99053W        W71379   7.224  12.647   0.796
99054W        W71380   6.392  43.394   0.401
99055W        W71381  41.432  23.608  11.009
99056W        W71382  13.247   3.811   0.373
99057W        W71383   7.259  25.037  12.841
99058W        W71384   1.336  33.924  11.018
99059W        W71385  19.767  33.499   4.740
99060W        W71386  22.660  42.823   1.721
99061W        W71387  11.337  28.023  11.410
99062W        W71388  21.047  22.239   0.742
99063W        W71389  41.893  17.736  11.384
99064W        W71390   7.315  16.290   4.215
99065W        W71391  21.703   7.305  13.492
99066W        W71392  16.576  25.040  14.898
99067W        W71393  39.845   2.724  11.108
99068W        W71394  39.838   3.271   1.817
99069W        W71395  27.570   6.317  10.439
99070W        W71396   9.686  19.090   1.846
99071W        W71397   5.840   2.430  14.805
99072W        W71398  27.692   8.888  12.391
99073W        W71399  37.059   7.884  11.935
99074W        W71400  21.657  36.348  13.801
99075W        W71401   1.827   7.182   3.235
99076W        W71402  41.885   9.886   1.798
99077W        W71403  27.645  15.707  11.462
99078W        W71404  29.587  10.861  12.342
99079W        W71405  35.528  38.498   1.362
99080W        W71406  19.069  30.163  10.409
99081W        W71407  13.663  22.149   3.852
99082W        W71408  37.835  31.936  11.074
99083W        W71409  43.881   7.731   2.710
99084W        W71410  32.399  25.057  12.054
99085W        W71411   4.338  11.639  11.546
99086W        W71412  43.485  22.201  14.290
99087W        W71413  35.909  31.972  12.396
99088W        W71414  12.315  42.997  12.084
99089W        W71415   4.408  19.757  10.556
99090W        W71416  13.114   7.352   2.674
99091W        W71417  35.592  44.442  10.526
99092W        W71418  25.674  23.501  13.991
99093W        W71419  35.092  32.522   9.495
99094W        W71420  40.025  15.678  13.528
99095W        W71421   0.936  16.792  11.124
99096W        W71422  13.303   2.333   0.335
99097W        W71423  28.490  33.392  13.043
99098W        W71424  26.631  41.492  12.930
99099W        W71425  43.450  24.521   0.881
99100W        W71426  33.116   9.298  13.448
99101W        W71427  33.021  35.421  11.966
99102W        W71428  32.569  34.550   3.664
99103W        W71429  40.470  41.410   4.247
99104W        W71430  27.602  37.080   3.865
99105W        W71431  43.305  25.569  14.471
99106W        W71432   8.815  27.600   0.444
99107W        W71433  38.569  33.117   2.754
99108W        W71434  31.926  31.591  12.460
99109W        W71435   7.677  29.535  10.559
99110W        W71436  35.412  44.884  13.468
99111W        W71437  17.681   8.893   2.244
99112W        W71438   7.266  20.260   1.315
99113W        W71439   4.269  39.990   0.479
99114W        W71440  17.612  20.686  11.123
99115W        W71441   7.906   1.908   1.740
99116W        W71442   8.833  14.306   1.897
99117W        W71443   6.902  30.505   0.368
99118W        W71444  42.391  21.167   1.383
99119W        W71445   3.775  27.497  11.401
99120W        W71446  42.294  24.001  14.835
99121W        W71447  35.975  38.554  10.617
99122W        W71448  15.785  31.594  14.467
99123W        W71449  20.756  33.521   2.234
99124W        W71450   7.306  26.089  11.442
99125W        W71451  41.962  42.877   1.430
99126W        W71452  40.899   3.892  11.597
99127W        W71453  29.653  12.851  14.826
99128W        W71454  20.764   2.289  10.432
99129W        W71455  30.519  42.375   2.711
99130W        W71456   9.669  38.353   0.818
99131W        W71457  36.045  12.628  13.476
99132W        W71458  36.849  10.681   5.612
99133W        W71459  12.699  32.975  13.350
99134W        W71460  36.434  28.676  14.957
99135W        W71461   3.943  31.483   0.817
99136W        W71462  30.553   1.441  14.848
99137W        W71463  17.663  13.759  11.497
99138W        W71464  37.531  27.150  11.094
99139W        W71465  26.499   9.750   0.736
99140W        W71466  34.023  18.177  13.934
99141W        W71467  17.684  21.580   2.758
99142W        W71468  18.708  44.439  10.988
99143W        W71469  15.598   3.427  12.970
99144W        W71470   1.254  18.613  12.029
99145W        W71471   7.184  29.487   3.372
99146W        W71472  35.365  10.184   1.274
99147W        W71473   1.390   3.247  12.977
99148W        W71474  30.969  15.156  10.557
99149W        W71475   8.247  28.439   1.922
99150W        W71476  44.462  37.346   4.284
99151W        W71477  23.061  37.577  14.357
99152W        W71478   6.341  32.001   1.299
99153W        W71479  32.978   4.865   1.247
99154W        W71480  41.377  33.556   1.276
99155W        W71481  32.100  32.088   4.161
99156W        W71482  25.129  32.098   2.363
99157W        W71483  12.129   9.158   3.300
99158W        W71484   1.808   5.410  11.128
99159W        W71485  12.760  32.493   4.178
99160W        W71486  16.731  32.989  11.608
99161W        W71487   2.411   8.782   3.652
99162W        W71488  33.015  11.348  14.277
99163W        W71489  27.653  40.998  14.905
99164W        W71490  17.718  16.618   3.264
99165W        W71491  33.009  39.060  14.480
99166W        W71492   7.750   1.394  10.625
99167W        W71493  12.741  11.811  11.978
99168W        W71494  20.121  27.687  13.496
99169W        W71495  40.490  36.086   4.787
99170W        W71496  19.589  32.001   3.825
99171W        W71497  11.750  37.544   4.646
99172W        W71498  17.779  22.120  10.973
99173W        W71499  31.141  28.608   3.808
99174W        W71500  35.881  27.975  14.389
99175W        W71501  14.677  41.005   4.835
99176W        W71502   7.287  33.529  14.417
99177W        W71503  13.802   6.232  12.880
99178W        W71504  34.612  39.867   1.923
99179W        W71505  35.384   6.304  13.829
99180W        W71506  43.306  11.697  14.429
99181W        W71507  13.660  15.281   2.837
99182W        W71508   6.353  16.647   0.873
99183W        W71509  21.182  28.636   1.263
99184W        W71510  21.020   2.419  11.410
99185W        W71511  36.069   2.934  13.454
99186W        W71512  15.664  43.460  12.500
99187W        W71513  34.415  22.587  11.931
99188W        W71514  44.412  37.917  13.841
99189W        W71515  35.599  35.474  12.942
99190W        W71516  20.179   0.886   1.720
99191W        W71517  24.657  28.070  14.334
99192W        W71518   4.240  21.052   3.285
99193W        W71519  20.611  40.800   3.709
99194W        W71520  34.970  10.269   2.332
99195W        W71521  12.189  19.677   0.439
99196W        W71522  34.531  26.634  13.485
99197W        W71523  40.016  42.819   2.687
99198W        W71524  25.494  18.098   1.795
99199W        W71525  43.341  25.493   3.301
99200W        W71526   0.805  32.960  12.577
99201W        W71527  19.050  21.184   4.771
99202W        W71528  44.886   4.806  10.116
99203W        W71529  18.595  23.234   2.808
99204W        W71530  35.076   6.785   1.287
99205W        W71531  40.898   0.482  10.926
99206W        W71532   3.329  35.490  14.428
99207W        W71533   0.438  27.477  13.009
99208W        W71534  21.184  44.380   3.167
99209W        W71535  44.955  34.961   1.788
99210W        W71536  38.440  23.059  11.607
99211W        W71537  12.672  36.410   3.654
99212W        W71538  36.451  20.211   2.294
99213W        W71539  34.942   8.189  13.332
99214W        W71540  10.698  23.544   4.351
99215W        W71541  30.469  24.651   3.780
99216W        W71542  19.237  30.051  10.974
99217W        W71543  30.033  11.351   4.269
99218W        W71544  17.622  38.964  13.459
99219W        W71545  12.155  36.909  11.484
99220W        W71546  41.868  30.576   4.734
99221W        W71547  21.733   4.723   3.703
99222W        W71548  35.037   8.707  12.987
99223W        W71549  36.946  18.708   2.783
99224W        W71550   1.431   6.285   1.397
99225W        W71551  21.568  13.166  14.471
99226W        W71552  40.481  44.950   4.598
99227W        W71553  22.510   6.763  13.514
99228W        W71554  31.142  25.505  12.056
99229W        W71555  26.502   3.424   3.262
99230W        W71556   5.368  13.698  12.483
99231W        W71557  29.123  29.112   3.785
99232W        W71558  15.236  25.083  10.606
99233W        W71559  32.589  11.245   2.317
99234W        W71560   0.262  13.237   4.278
99235W        W71561  22.158  27.537  11.401
99236W        W71562  31.932  16.679   5.090
99237W        W71563  34.948   9.357  13.391
99238W        W71564   7.711  37.394   4.319
99239W        W71565   8.192  11.355   3.362
99240W        W71566   7.195  13.642  14.278
99241W        W71567  26.620   0.486   1.433
99242W        W71568  38.870  13.693   1.268
99243W        W71569  40.813  27.969  14.798
99244W        W71570  30.553  38.375  11.501
99245W        W71571  25.698   0.910  14.379
99246W        W71572  12.127  21.599   4.210
99247W        W71573  15.605  26.657  10.460
99248W        W71574  18.690  38.414  11.079
99249W        W71575   4.916  23.583   2.296
99250W        W71576  24.007   1.776   3.352
99251W        W71577  31.437  21.626  10.941
99252W        W71578   6.218  18.188   3.804
99253W        W71579  36.478  10.192   9.933
99254W        W71580  44.880  15.703  12.075
99255W        W71581  20.081  39.895   0.277
99256W        W71582  40.864  28.509   1.397
99257W        W71583  35.359  20.231   3.172
99258W        W71584  11.774  18.193  10.602
99259W        W71585   1.282  11.794  10.987
99260W        W71586  31.530  22.009   0.245
99261W        W71587  34.889  37.026  14.006
99262W        W71588   2.287  30.950   4.771
99263W        W71589   4.700  33.447   5.093
99264W        W71590  17.649  17.639   2.736
99265W        W71591   0.829  18.118   1.795
99266W        W71592   7.759  42.899   4.186
99267W        W71593   7.247  18.168   4.716
99268W        W71594  36.566  14.640   1.326
99269W        W71595  25.191  23.670  14.356
99270W        W71596  42.824   9.378   0.852
99271W        W71597  30.618  37.457   0.357
99272W        W71598  33.129   4.332   3.235
99273W        W71599  32.141  25.081   0.786
99274W        W71600  13.333  26.547   5.086
99275W        W71601   2.424  26.081   0.428
99276W        W71602  38.014  24.071  12.520
99277W        W71603  23.984  37.377   4.714
99278W        W71604   7.408   8.900   3.230
99279W        W71605  25.566  22.614  13.383
99280W        W71606  22.211  37.843  10.076
99281W        W71607  37.082  30.513   3.175
99282W        W71608  27.505  42.405   1.265
99283W        W71609  22.249  14.815  12.463
99284W        W71610  31.439  17.569   4.203
99285W        W71611  13.323  33.075   0.786
99286W        W71612   5.365  34.423   3.341
99287W        W71613  37.442  11.252  13.374
99288W        W71614  28.041  32.503   0.253
99289W        W71615  13.843  23.026  13.469
99290W        W71616  28.155  15.237   1.747
99291W        W71617   5.914   6.721   3.716
99292W        W71618  43.321  16.807  10.511
99293W        W71619  20.590  33.875   4.118
99294W        W71620  18.759   1.775   2.361
99295W        W71621  44.437  21.666  14.336
99296W        W71622  15.730  17.625   1.450
99297W        W71623  42.332  13.214  14.469
99298W        W71624  29.542   9.236  13.401
99299W        W71625  27.597  15.300   4.613
99300W        W71626  20.582  26.962   4.714
99301W        W71627  29.112  23.040  13.428
99302W        W71628  44.996  31.614   1.395
99303W        W71629  38.942  41.511  14.276
99304W        W71630  12.145  40.482  11.409
99305W        W71631  10.318   1.295   0.809
99306W        W71632  12.639   8.393  10.949
99307W        W71633  31.142  43.325  11.565
99308W        W71634  32.936   7.226   1.344
99309W        W71635  25.640   2.450  14.825
99310W        W71636  22.106  12.844  11.128
99311W        W71637   5.239   8.703  11.890
99312W        W71638  19.761  25.001   0.469
99313W        W71639  36.445   6.739  14.293
99314W        W71640  26.060  40.432  13.475
99315W        W71641  44.477  22.246   0.277
99316W        W71642  13.819  24.027  12.927
99317W        W71643  34.604  44.887   0.953
99318W        W71644  24.081   0.848   3.871
99319W        W71645   9.317  11.636   0.840
99320W        W71646   8.383  30.564  11.053
99321W        W71647  24.614  10.833  12.891
99322W        W71648  17.800  10.191   3.663
99323W        W71649  39.370   6.386   3.354
99324W        W71650   0.834  16.664   3.234
99325W        W71651  15.239  42.948  12.485
99326W        W71652   0.365  27.019   0.950
99327W        W71653   2.400  11.288  14.305
99328W        W71654  39.886  28.096  13.021
99329W        W71655   6.202  10.821  12.049
99330W        W71656  13.827  24.687   4.611
99331W        W71657  43.951   6.407   4.806
99332W        W71658   8.746  42.449   3.748
99333W        W71659   6.694  12.231  13.527
99334W        W71660  16.294  39.332   0.927
99335W        W71661  30.449  27.970  13.996
99336W        W71662  13.281  17.097  12.963
99337W        W71663   9.699  38.338   4.711
99338W        W71664  17.563   1.942  13.955
99339W        W71665  15.096  39.827   4.262
99340W        W71666  37.545  37.431  11.523
99341W        W71667   6.713  29.488   2.247
99342W        W71668  36.353  26.041   1.745
99343W        W71669  11.855  38.537   4.615
99344W        W71670  41.386  14.325  12.560
99345W        W71671  12.672  43.022  11.499
99346W        W71672  36.033  11.803  14.928
99347W        W71673  12.675   0.780  13.893
99348W        W71674  25.612  37.937   2.721
99349W        W71675  36.510  27.149  13.408
99350W        W71676  11.355  11.143  10.547
99351W        W71677  14.623  13.335  13.390
99352W        W71678  44.859  16.712  10.432
99353W        W71679   6.355  17.118   3.379
99354W        W71680  28.934  22.156   3.351
99355W        W71681  15.641  21.545  12.036
99356W        W71682  41.941   8.883  12.009
99357W        W71683  24.648  37.946  14.827
99358W        W71684  18.744  31.124  10.908
99359W        W71685   7.834  28.569  11.118
99360W        W71686  10.320  25.145  12.082
99361W        W71687   0.765  26.570   5.142
99362W        W71688   5.217  13.345   4.730
99363W        W71689  28.008   1.313  12.981
99364W        W71690   5.719  40.833  14.890
99365W        W71691  14.133  14.296  11.490
99366W        W71692  13.265  42.817   0.356
99367W        W71693  15.279  28.094  13.480
99368W        W71694  34.588  35.022   2.400
99369W        W71695   7.879  10.831   3.802
99370W        W71696  24.640   5.921  11.993
99371W        W71697  33.461  14.224   3.353
99372W        W71698  36.047   8.683  14.309
99373W        W71699   7.735  29.481   1.912
99374W        W71700  18.787  41.331  11.005
99375W        W71701  30.491  40.516   0.770
99376W        W71702  19.201  40.444   3.158
99377W        W71703  16.585  36.862   2.884
99378W        W71704  18.106  29.027   0.439
99379W        W71705  21.017   0.488   2.191
99380W        W71706  29.568  28.619  10.404
99381W        W71707  41.943   5.284   2.819
99382W        W71708  38.867  28.156  14.928
99383W        W71709  34.926  14.305   4.191
99384W        W71710  14.258  36.364  13.503
99385W        W71711  42.396  32.116  12.461
99386W        W71712  41.852  20.101   4.609
99387W        W71713  10.645  30.137   2.725
99388W        W71714  13.136  27.073   2.820
99389W        W71715  44.356   4.349  10.974
99390W        W71716  27.475  12.280  14.293
99391W        W71717  15.657  27.608   2.738
99392W        W71718  29.994  12.708  10.474
99393W        W71719  27.539  44.972  14.394
99394W        W71720  22.114  15.602  14.949
99395W        W71721  23.529  37.044  11.933
99396W        W71722   4.449  19.174   0.276
99397W        W71723  36.019  20.155   2.723
99398W        W71724  43.444  23.204  13.366
99399W        W71725   4.754  24.080   1.777
99400W        W71726  30.117  21.602   3.679
99401W        W71727  10.722   8.666   4.839
99402W        W71728  21.660  34.451   0.853
99403W        W71729  17.736  20.700   3.253
99404W        W71730   7.181  18.061  12.089
99405W        W71731  24.995  44.839   1.305
99406W        W71732  40.399  31.464   0.810
99407W        W71733  21.541   7.331  12.851
99408W        W71734  37.581  13.343   3.746
99409W        W71735  36.550  34.043  13.512
99410W        W71736  28.007  15.803   0.744
99411W        W71737  44.954   2.460   3.818
99412W        W71738  33.104  16.151  12.551
99413W        W71739  17.608  13.800  11.912
99414W        W71740  19.730  39.329  14.779
99415W        W71741  29.511  44.380  13.440
99416W        W71742  13.289  11.314   4.194
99417W        W71743  29.972  19.111  13.890
99418W        W71744   9.208  22.035   4.293
99419W        W71745  42.014  11.679   4.817
99420W        W71746   3.362   1.278   1.733
99421W        W71747  26.021  43.896  10.460
99422W        W71748  23.143   9.168   0.827
99423W        W71749  40.441  16.179   3.214
99424W        W71750  18.575   2.292  14.506
99425W        W71751  29.985  27.621  10.436
99426W        W71752  22.724  36.978  11.598
99427W        W71753  27.163  26.142  12.885
99428W        W71754   8.878  23.192   0.917
99429W        W71755  41.406  27.034  12.837
99430W        W71756  24.001  22.526   4.271
99431W        W71757  35.953   8.891   3.335
99432W        W71758  40.429  36.017   2.841
99433W        W71759  13.760  34.563  12.037
99434W        W71760  44.414  14.222   5.322
99435W        W71761  12.212   7.733   3.666
99436W        W71762  21.690  36.366   1.929
99437W        W71763  27.949   3.242  11.519
99438W        W71764  33.006  38.485   1.804
99439W        W71765  26.967  26.662   2.366
99440W        W71766  17.097  28.948  14.842
99441W        W71767   1.462  21.658   5.267
99442W        W71768  16.163   0.430   4.150
99443W        W71769  32.481  36.440   1.766
99444W        W71770   3.738  29.548  12.521
99445W        W71771  14.826  34.895   2.358
99446W        W71772  24.502  16.282  12.014
99447W        W71773  44.325   2.927  13.037
99448W        W71774  17.661  20.075  12.358
99449W        W71775  15.110  40.852   4.297
99450W        W71776   9.292  37.908  11.876
99451W        W71777  18.071  16.281  13.380
99452W        W71778   6.843   4.730   2.686
99453W        W71779  24.575  28.019  10.500
99454W        W71780  43.417  44.825   0.877
99455W        W71781  15.177  40.890  11.865
99456W        W71782  38.934   9.818   2.785
99457W        W71783  20.643  32.885   4.116
99458W        W71784  28.604  36.508  12.830
99459W        W71785  17.085  19.181   1.694
99460W        W71786  42.000  14.250  10.567
99461W        W71787  30.436  28.672   1.919
99462W        W71788  25.576  19.126   3.696
99463W        W71789  36.078  18.652  11.031
99464W        W71790  28.515  44.799  11.602
99465W        W71791   5.227  26.578  12.567
99466W        W71792  34.393  36.937  13.011
99467W        W71793  12.188  20.239   4.117
99468W        W71794   2.786  29.144   2.719
99469W        W71795  25.193  25.503  13.838
99470W        W71796  29.538  40.956  10.893
99471W        W71797   5.892   5.401   2.846
99472W        W71798   7.909  14.324  10.911
99473W        W71799  40.895  11.367   2.892
99474W        W71800  43.977  32.536   3.708
99475W        W71801  41.479  31.078  10.594
99476W        W71802  44.259  14.646   3.656
99477W        W71803  33.102  37.933  14.397
99478W        W71804  35.392  15.713   0.442
99479W        W71805   8.739  27.514  13.350
99480W        W71806  38.451  44.478   0.754
99481W        W71807  38.003  28.008   4.353
99482W        W71808  36.906   4.224   3.260
99483W        W71809  40.427   0.332  12.001
99484W        W71810  12.619  31.595  14.019
99485W        W71811   7.865  12.209  11.989
99486W        W71812  14.204  17.618  11.439
99487W        W71813  36.859  18.594   0.300
99488W        W71814  37.852   9.237   1.366
99489W        W71815  31.571  32.441   2.255
99490W        W71816  35.453  18.127  11.528
99491W        W71817   9.859  26.636  11.386
99492W        W71818  18.749  12.780   0.455
99493W        W71819  29.927  18.575   4.800
99494W        W71820  42.916  39.966   3.194
99495W        W71821   2.288  43.903  13.059
99496W        W71822   5.725  35.478   1.225
99497W        W71823  14.721  41.788   4.193
99498W        W71824   7.710   7.705  10.628
99499W        W71825  20.707  33.124  13.999
99500W        W71826   8.673  17.787   0.389
99501W        W71827   0.410  18.658  11.078
99502W        W71828   4.730  14.622  12.894
99503W        W71829  42.354  41.881   0.367
99504W        W71830   2.920  27.526   3.176
99505W        W71831  33.415  44.360  11.907
99506W        W71832  22.192   4.788   3.851
99507W        W71833  22.611  25.140  13.438
99508W        W71834  24.094  33.005   2.197
99509W        W71835  14.727   4.787  14.834
99510W        W71836  29.589  37.976   3.845
99511W        W71837  16.720   0.841   2.395
99512W        W71838   4.937  30.979   3.694
99513W        W71839  22.550  19.663  10.987
99514W        W71840  25.505  20.575   3.215
99515W        W71841  28.604  24.004  10.541
99516W        W71842  16.571  39.964   3.232
99517W        W71843  10.783  19.747   3.631
99518W        W71844  35.933  39.317   4.311
99519W        W71845  27.161  37.552  12.386
99520W        W71846  37.465  35.899  14.422
99521W        W71847  14.767  16.299  13.996
99522W        W71848  33.526  38.866  12.518
99523W        W71849  39.341  42.300   3.689
99524W        W71850  35.582   9.787  12.424
99525W        W71851  11.795  15.755   1.738
99526W        W71852  27.585   1.360   2.321
99527W        W71853  27.142  34.584  10.551
99528W        W71854  24.054   9.372  14.471
99529W        W71855  30.964  35.043   4.312
99530W        W71856   5.241  20.214   0.746
99531W        W71857  44.998  33.985   0.433
99532W        W71858  25.091  41.470   1.795
99533W        W71859  32.436  26.477   3.263
99534W        W71860  38.071  14.689  11.592
99535W        W71861  24.221  35.977  12.946
99536W        W71862   8.723   1.907  11.525
99537W        W71863  12.285  16.271  13.310
99538W        W71864   0.843  12.162   4.663
99539W        W71865  37.071  28.987  11.487
99540W        W71866   6.231   2.241  13.014
99541W        W71867   3.285  28.627  14.854
99542W        W71868  17.629   6.425  13.811
99543W        W71869  16.140  32.018  14.791
99544W        W71870  40.974  28.520  10.932
99545W        W71871   2.230  10.195   5.226
99546W        W71872   5.700  12.362  13.424
99547W        W71873  40.397   7.175  11.930
99548W        W71874  37.935   0.451   0.925
99549W        W71875   3.788  15.623   0.726
99550W        W71876   1.918  26.519   0.886
99551W        W71877  43.835  22.213   1.415
99552W        W71878   0.309  35.061   1.697
99553W        W71879  20.220  18.696   0.461
99554W        W71880  24.049  19.692  14.350
99555W        W71881  38.895  12.212   3.784
99556W        W71882  24.593  20.720  10.484
99557W        W71883  16.650  31.904   2.210
99558W        W71884  17.209  44.500   5.309
99559W        W71885  10.693  38.891   1.246
99560W        W71886  14.672   0.253   0.804
99561W        W71887  26.484  36.884  14.485
99562W        W71888  10.732  24.598   3.822
99563W        W71889  33.064  26.175  14.003
99564W        W71890  10.162  13.678  14.285
99565W        W71891  35.969   9.682   4.774
99566W        W71892  10.642   0.831   4.672
99567W        W71893  13.619  12.811   3.840
99568W        W71894  11.648  40.893   0.270
99569W        W71895  28.055  12.301   4.173
99570W        W71896  22.683  29.166   3.324
99571W        W71897  17.287  24.501  10.540
99572W        W71898  37.019  20.151   0.279
99573W        W71899  37.409   5.265   0.475
99574W        W71900  30.953  24.028   2.365
99575W        W71901  35.077  32.408   3.769
99576W        W71902  10.799   3.395  11.611
99577W        W71903  17.069  30.568  10.531
99578W        W71904  42.449  18.099  12.400
99579W        W71905  23.615  20.656   4.336
99580W        W71906  37.551  15.795  10.121
99581W        W71907  28.937  34.973   4.220
99582W        W71908  10.187  38.975  11.426
99583W        W71909  16.610  34.032   3.868
99584W        W71910  29.543   8.272   1.431
99585W        W71911  16.798  43.812  14.475
99586W        W71912  42.858  13.630   1.386
99587W        W71913   1.740  20.103  11.500
99588W        W71914   3.759  20.126   4.704
99589W        W71915  13.774  15.614  13.466
99590W        W71916  42.002   5.342   4.116
99591W        W71917  11.818   4.931   4.117
99592W        W71918   2.250  33.394  13.899
99593W        W71919  38.024  10.192   0.347
99594W        W71920  43.370  30.980  14.885
99595W        W71921  42.786  17.752  11.509
99596W        W71922  27.950  29.632   2.340
99597W        W71923   8.172  15.757   3.718
99598W        W71924   3.757  31.552  14.861
99599W        W71925   8.179  14.285   3.795
99600W        W71926  42.527  20.523   2.357
99601W        W71927  32.124  42.445  12.428
99602W        W71928  18.109  17.186   3.669
99603W        W71929  13.813   9.376  11.505
99604W        W71930   0.415   1.343   3.181
99605W        W71931  31.991  39.008  12.968
99606W        W71932  13.771  21.606   2.811
99607W        W71933  38.936  33.396  10.089
99608W        W71934  33.621  40.999   2.343
99609W        W71935   8.213  17.287   0.437
99610W        W71936  22.104  22.113  10.566
99611W        W71937   8.657  41.035  14.824
99612W        W71938  27.462  11.693   0.268
99613W        W71939  11.298  35.974   0.925
99614W        W71940  18.653  29.636  14.822
99615W        W71941  12.129  36.952  12.485
99616W        W71942  11.768  13.235  12.578
99617W        W71943  26.482   5.333   4.705
99618W        W71944   6.255  17.211   2.322
99619W        W71945  44.281  44.382  13.999
99620W        W71946   2.832  27.986   0.244
99621W        W71947  19.655  11.674  11.091
99622W        W71948  27.610  33.459  11.595
99623W        W71949  10.363  38.555  12.962
99624W        W71950  19.221  13.654   2.296
99625W        W71951  17.269  32.049   1.354
99626W        W71952  17.109  29.075  10.959
99627W        W71953  41.381  18.732  13.034
99628W        W71954  12.744  35.535   4.149
99629W        W71955  16.741  25.984  11.014
99630W        W71956  34.890  10.335   0.857
99631W        W71957  31.054  19.590   1.699
99632W        W71958  30.653  31.977   1.433
99633W        W71959  13.667  34.462   0.300
99634W        W71960  30.042  37.920  13.426
99635W        W71961  11.208  13.221   2.813
99636W        W71962  43.501  34.034   2.835
99637W        W71963  38.454   4.403   1.805
99638W        W71964  27.549  18.105  11.929
99639W        W71965   4.265  35.578   3.707
99640W        W71966  34.472  30.546   4.691
99641W        W71967  25.547   0.864   4.312
99642W        W71968  14.699  22.739  11.393
99643W        W71969  30.082  41.428  13.448
99644W        W71970  15.784  40.980   2.818
99645W        W71971   5.386  43.972   2.227
99646W        W71972  27.129   2.747   1.902
99647W        W71973  23.003  25.529  10.541
99648W        W71974  39.509  37.346   4.298
99649W        W71975  42.303  26.955   4.720
99650W        W71976  23.726  11.634  11.023
99651W        W71977  20.712   3.834   3.219
99652W        W71978  38.491  29.545   4.204
99653W        W71979  42.962   3.883  14.483
99654W        W71980  13.242  34.393  12.453
99655W        W71981  42.885   0.407   3.840
99656W        W71982  19.251  28.071   0.883
99657W        W71983  17.102  16.202  10.561
99658W        W71984  20.176  14.591  10.601
99659W        W71985   3.216   5.319   4.140
99660W        W71986  14.315  10.170   3.811
99661W        W71987  21.183   1.850  12.022
99662W        W71988  28.103  12.658  10.932
99663W        W71989  12.835  26.574  13.808
99664W        W71990  18.556  44.818  10.519
99665W        W71991  12.268  27.983   4.767
99666W        W71992  37.963  39.046  10.965
99667W        W71993  32.104  26.677   4.687
99668W        W71994  23.167  32.573  13.988
99669W        W71995  16.701  15.136  12.996
99670W        W71996   6.364   3.223  13.371
99671W        W71997  13.268  28.484   1.226
99672W        W71998  39.529  30.494  10.423
99673W        W71999  43.353   1.277   0.869
99674W        W72000  44.774   7.910   1.923
99675W        W72001   0.357  38.329   0.886
99676W        W72002   9.184  42.908  14.275
99677W        W72003  12.788  22.597  14.759
99678W        W72004   2.262  40.973   2.359
99679W        W72005  30.139   3.821  13.540
99680W        W72006  24.688   4.290   1.824
99681W        W72007  43.400  30.589  14.479
99682W        W72008  31.508  19.615  13.414
99683W        W72009   4.841  18.637   1.745
99684W        W72010  14.307  26.522   2.795
99685W        W72011   2.286  31.418  14.903
99686W        W72012  17.099  32.579   1.856
99687W        W72013  43.968  11.356   3.868
99688W        W72014  11.271   4.318  10.638
99689W        W72015   2.433  24.213   4.322
99690W        W72016   3.841  21.526   0.910
99691W        W72017   7.273   9.746   2.197
99692W        W72018   8.284  21.554  11.106
99693W        W72019   0.317   9.889  11.534
99694W        W72020  38.835  41.807   2.791
99695W        W72021  22.998  31.520   0.380
99696W        W72022  39.322   7.690   2.688
99697W        W72023  28.985  12.211  12.061
99698W        W72024  30.947   0.778  11.892
99699W        W72025   1.787  27.078   1.427
99700W        W72026   0.303  44.481   4.132
99701W        W72027  38.901  43.515  13.924
99702W        W72028   1.868  33.076  14.833
99703W        W72029  29.995  33.552  10.911
99704W        W72030  25.067  21.098  13.321
99705W        W72031  15.732  43.328   1.738
99706W        W72032  21.531  22.609   4.170
99707W        W72033  30.593  13.700  11.483
99708W        W72034  21.058  21.254   1.814
99709W        W72035  15.248  10.776   1.838
99710W        W72036  31.950  38.428   0.962
99711W        W72037   2.308   0.440  12.383
99712W        W72038  40.490  13.262  12.891
99713W        W72039  17.104   6.318   3.195
99714W        W72040  30.038  39.417  11.901
99715W        W72041  33.516  10.827   0.266
99716W        W72042  39.542  14.808   0.767
99717W        W72043  19.548  19.557   0.846
99718W        W72044  19.738  39.359  13.335
99719W        W72045  30.583  37.032  10.622
99720W        W72046  37.576  12.666   9.593
99721W        W72047  27.541   6.854  14.414
99722W        W72048   9.372   5.921   3.771
99723W        W72049  25.158  11.822   5.094
99724W        W72050   1.767  42.913   0.416
99725W        W72051  33.085   7.837   4.618
99726W        W72052  21.231  24.052  10.444
99727W        W72053  10.784   0.949   4.295
99728W        W72054  42.923   5.428   3.247
99729W        W72055  10.859  40.357   2.807
99730W        W72056  26.490  14.298   4.184
99731W        W72057  40.541  24.484  10.500
99732W        W72058  27.121  18.081  11.916
99733W        W72059  19.603   2.271   3.753
99734W        W72060  26.961  15.202   4.710
99735W        W72061   8.380  44.829   0.830
99736W        W72062   4.264  29.501   1.905
99737W        W72063  14.186  42.461   4.787
99738W        W72064   6.353  32.010  13.006
99739W        W72065  24.064  44.369   3.753
99740W        W72066  12.822  37.023   4.311
99741W        W72067   2.882  22.638   1.760
99742W        W72068  35.012  40.013   2.244
99743W        W72069   9.178  32.075   4.250
99744W        W72070  27.611   2.765   2.220
99745W        W72071   0.256   4.417  11.078
99746W        W72072  13.217   0.955  11.005
99747W        W72073  40.371  33.451  12.096
99748W        W72074  14.606  43.437   3.832
99749W        W72075  40.458   3.227   4.712
99750W        W72076  23.492  23.622   0.319
99751W        W72077   1.430  44.312  13.330
99752W        W72078  23.547  37.359   3.172
99753W        W72079  19.076  24.068  12.387
99754W        W72080  30.427  41.889  14.775
99755W        W72081   3.354   7.885   3.722
99756W        W72082  43.487  36.011   0.947
99757W        W72083   9.377  39.936   4.248
99758W        W72084  18.648  39.954   1.276
99759W        W72085   2.404  43.940   3.766
99760W        W72086  22.682   5.280  13.840
99761W        W72087  32.893  41.003  12.493
99762W        W72088  44.319  40.481   3.197
99763W        W72089  38.984   8.203  14.355
99764W        W72090   8.780  10.330  12.368
99765W        W72091   6.682  12.714   1.911
99766W        W72092   6.210  17.733   2.358
99767W        W72093  12.169  19.150   4.813
99768W        W72094  29.141  12.178   2.685
99769W        W72095  23.631  30.473  13.415
99770W        W72096  18.570   7.898  14.784
99771W        W72097  13.689  18.050  10.924
99772W        W72098  42.505  30.150   2.324
99773W        W72099   4.281   8.766  14.481
99774W        W72100  11.639  35.936   4.668
99775W        W72101   5.767   8.711  13.412
99776W        W72102  34.046  15.145   1.437
99777W        W72103  28.626   7.275  13.398
99778W        W72104  36.543  14.094   2.419
99779W        W72105  25.208  32.448   5.285
99780W        W72106   9.751  34.979   4.237
99781W        W72107  26.472  43.894   4.353
99782W        W72108   5.244  25.968   2.876
99783W        W72109  44.371  38.506  11.384
99784W        W72110  27.073   5.375  14.783
99785W        W72111  12.297   1.921   3.305
99786W        W72112  29.933   8.212   2.279
99787W        W72113  40.475   9.673   0.757
99788W        W72114  36.369   0.928  13.383
99789W        W72115   6.808  28.964   3.786
99790W        W72116  41.914  17.691   4.233
99791W        W72117  12.282  31.907  14.903
99792W        W72118  41.392  28.967   3.279
99793W        W72119  41.986  40.844   1.878
99794W        W72120  40.904  40.418  13.019
99795W        W72121  37.010  43.405  13.377
99796W        W72122   3.434  21.141  13.000
99797W        W72123  32.480  14.819   0.309
99798W        W72124  34.489  27.589  10.977
99799W        W72125  24.009  18.684   4.311
99800W        W72126  40.426  30.478   1.426
99801W        W72127  26.152  41.952   2.215
99802W        W72128  37.401  41.446   9.941
99803W        W72129   4.441  35.070  12.855
99804W        W72130  22.659  29.661  14.324
99805W        W72131  18.146  10.245  13.339
99806W        W72132  12.737  27.942  12.502
99807W        W72133   2.262  11.331   2.232
99808W        W72134  33.563  22.134  14.795
99809W        W72135   8.734  14.114  14.841
99810W        W72136  12.353  34.884   5.183
99811W        W72137  23.716  29.041  11.930
99812W        W72138  18.687   1.307   0.246
99813W        W72139   3.779  15.130   2.377
99814W        W72140  16.222  34.477  11.893
99815W        W72141  43.307  20.069   3.274
99816W        W72142  23.071  18.126   1.434
99817W        W72143  44.805  20.195  14.020
99818W        W72144  10.321  43.376   3.206
99819W        W72145  39.038  17.283  10.582
99820W        W72146  42.356  41.342  13.378
99821W        W72147  31.501  39.905   3.315
99822W        W72148  28.448   9.808   3.308
99823W        W72149  23.207   0.829   1.374
99824W        W72150  15.657  44.474   4.198
99825W        W72151  20.037  10.202  13.444
99826W        W72152   6.857  31.049   2.355
99827W        W72153   7.233  31.976   0.903
99828W        W72154  43.313  24.212  12.476
99829W        W72155  28.153  41.478   1.320
99830W        W72156  35.457  28.040  10.540
99831W        W72157  35.903  21.246   4.257
99832W        W72158  18.120  20.029   1.826
99833W        W72159  29.459  36.067  12.937
99834W        W72160  37.463   6.763   1.860
99835W        W72161  43.858  39.337   1.697
99836W        W72162  18.157   7.815  14.848
99837W        W72163   7.897   5.261  10.581
99838W        W72164  13.180  40.845   0.319
99839W        W72165   5.778  44.909   3.651
99840W        W72166  20.735  29.126   3.338
99841W        W72167  15.172  38.396  14.763
99842W        W72168   8.231   4.381   2.400
99843W        W72169  42.002  35.469  10.970
99844W        W72170  13.823  38.862   3.680
99845W        W72171   2.842  39.392   0.283
99846W        W72172   7.294  27.142   2.241
99847W        W72173  25.170  36.352  14.778
99848W        W72174  31.057  36.892  11.009
99849W        W72175   8.267   6.717   4.718
99850W        W72176  40.537   3.220  12.024
99851W        W72177  28.523  15.614  13.046
99852W        W72178  22.030  44.347  11.379
99853W        W72179   9.689   9.699   3.738
99854W        W72180  19.598  10.836   3.221
99855W        W72181   2.404  19.156   2.243
99856W        W72182  43.768   1.297  12.941
99857W        W72183  18.105   6.416   3.310
99858W        W72184  44.378  22.016   4.602
99859W        W72185  12.630  16.111  10.413
99860W        W72186  36.581   7.875   1.884
99861W        W72187  33.499  15.687  11.023
99862W        W72188  19.125  32.532   0.874
99863W        W72189  17.226   0.971  11.108
99864W        W72190  11.302   7.851  10.897
99865W        W72191  37.830  40.868   4.613
99866W        W72192  10.702  30.589   1.884
99867W        W72193  21.186  23.099  11.942
99868W        W72194  11.739   2.297  13.343
99869W        W72195  23.716  13.692   0.305
99870W        W72196  33.970  23.079   0.405
99871W        W72197  17.102  42.784   0.282
99872W        W72198  10.654   3.930   2.825
99873W        W72199  35.492  21.618  10.615
99874W        W72200  33.051  11.810   4.195
99875W        W72201   3.754  37.550  11.573
99876W        W72202  43.930  13.208   2.823
99877W        W72203  27.490  41.039  11.896
99878W        W72204  42.004  10.846  13.927
99879W        W72205  14.776  29.546   3.223
99880W        W72206  12.713  16.126  12.941
99881W        W72207  35.588  19.133   3.740
99882W        W72208  20.181   7.411   2.900
99883W        W72209   4.273  28.603   0.431
99884W        W72210  26.697  20.569  11.372
99885W        W72211  21.616   9.234   2.896
99886W        W72212  21.621   2.417  13.867
99887W        W72213   3.424  37.852   0.379
99888W        W72214  41.883  25.579   3.703
99889W        W72215  16.634   2.882   3.334
99890W        W72216  37.039  12.769   4.137
99891W        W72217   0.980  27.604   4.770
99892W        W72218  21.758  34.615   2.348
99893W        W72219  10.679  36.435  14.993
99894W        W72220  34.478  15.816   1.836
99895W        W72221  38.883  11.262   0.790
99896W        W72222  39.328  42.319   2.328
99897W        W72223  13.231  22.511  11.127
99898W        W72224  32.133  17.603   2.832
99899W        W72225   3.911  34.426   1.412
99900W        W72226  13.677  23.728  14.950
99901W        W72227  21.232  28.622  11.373
99902W        W72228  25.191  14.790   0.409
99903W        W72229  20.582  23.102  11.920
99904W        W72230  44.769  16.276   2.873
99905W        W72231  18.254  35.544  14.427
99906W        W72232  10.304  30.022  11.971
99907W        W72233  29.514   6.243   0.315
99908W        W72234  42.801  24.197  11.087
99909W        W72235  24.036  13.751   1.445
99910W        W72236   6.714  39.062  11.426
99911W        W72237  26.636  34.929  14.428
99912W        W72238   1.956  22.061  14.421
99913W        W72239  17.173   0.248   1.927
99914W        W72240  39.489  13.154  12.883
99915W        W72241  44.843  43.428  13.983
99916W        W72242   2.919  37.368  13.862
99917W        W72243  38.921  38.949  10.405
99918W        W72244  10.198  22.130  12.879
99919W        W72245   3.291   2.413   0.281
99920W        W72246  17.708  31.016  11.036
99921W        W72247   2.470  16.273  10.420
99922W        W72248  22.064   6.922  13.438
99923W        W72249  43.361  29.515  13.817
99924W        W72250   6.383  21.155   1.722
99925W        W72251  27.524  42.017  13.398
99926W        W72252  26.166  26.619  10.988
99927W        W72253  26.574   9.307  13.792
99928W        W72254  34.081  18.210   0.286
99929W        W72255   5.823  21.626   3.726
99930W        W72256  41.492  35.894   2.296
99931W        W72257  20.269  25.560  10.455
99932W        W72258  24.561  28.577   2.846
99933W        W72259  39.517  10.723  11.058
99934W        W72260  18.183  32.449  12.938
99935W        W72261  25.695   0.302  14.932
99936W        W72262  42.777  42.468  14.913
99937W        W72263  17.706  22.070  14.398
99938W        W72264  36.399  26.135  11.955
99939W        W72265  39.039  33.440   2.334
99940W        W72266   9.205  21.178  10.557
99941W        W72267  44.845  29.486   1.736
99942W        W72268  17.716  37.839  14.332
99943W        W72269   5.317  16.116   2.700
99944W        W72270   7.788  35.554  11.859
99945W        W72271  16.706   4.341   2.736
99946W        W72272  35.948  10.671   5.250
99947W        W72273  16.258  37.031  10.546
99948W        W72274   3.772  27.593   1.449
99949W        W72275  13.790   3.818  14.930
99950W        W72276  10.822  42.495   0.890
99951W        W72277  39.325  17.160  11.460
99952W        W72278  21.209  36.572   3.387
99953W        W72279  27.561   4.375   2.679
99954W        W72280  32.578   7.323  12.442
99955W        W72281  43.998  43.448   0.399
99956W        W72282  43.296  23.678   4.635
99957W        W72283  33.393   4.359   0.365
99958W        W72284  22.625  31.502  14.979
99959W        W72285  16.160   5.696  11.976
99960W        W72286  35.554  38.533   3.741
99961W        W72287  29.449   9.685  10.912
99962W        W72288  25.145  29.013   2.353
99963W        W72289  28.139  37.904   0.242
99964W        W72290  14.233  43.466   3.239
99965W        W72291  30.535  41.891  13.906
99966W        W72292   8.362  38.506   0.934
99967W        W72293  25.041  27.487   1.261
99968W        W72294  37.950  41.393   5.173
99969W        W72295  30.954   9.822  10.998
99970W        W72296  24.562  32.601   0.937
99971W        W72297  34.975   7.764   0.456
99972W        W72298  43.972  37.053  11.914
99973W        W72299   0.371  13.106   0.887
99974W        W72300  29.153  18.166  13.521
99975W        W72301  33.007  19.157  11.392
99976W        W72302  11.705  28.628  12.431
99977W        W72303   5.717  12.189   4.674
99978W        W72304  10.773  24.211  10.431
99979W        W72305  19.062  25.477   1.850
99980W        W72306  19.182  20.250   4.115
99981W        W72307  24.025  33.396  11.584
99982W        W72308  25.999  40.480   3.279
99983W        W72309   4.218   1.812  13.889
99984W        W72310  44.916  16.780  13.851
99985W        W72311  39.872  42.308  10.614
99986W        W72312  16.200   6.906   2.322
99987W        W72313  29.670  44.284  10.047
99988W        W72314  28.183  35.383   2.874
99989W        W72315  19.725  19.138   4.657
99990W        W72316  41.496   7.225   3.779
99991W        W72317  34.066  11.736  12.069
99992W        W72318  13.259   3.725   2.237
99993W        W72319  43.281  29.440  14.497
99994W        W72320  19.151  20.579  12.495
99995W        W72321  32.123  20.135   0.893
99996W        W72322   7.801  10.148   0.301
99997W        W72323   2.940  32.127   4.252
99998W        W72324  14.736  10.219   0.449
99999W        W72325  24.089  36.372  13.334
    0W        W72326  12.765  25.070   1.722
    1W        W72327  40.471  36.914   1.732
    2W        W72328   9.817   3.859   2.691
    3W        W72329  43.329  37.494   2.352
    4W        W72330  38.020  23.009   1.357
    5W        W72331  40.868  42.367  13.894
    6W        W72332   0.809   1.922   2.741
    7W        W72333  21.523   5.392  13.938
    8W        W72334  16.804  29.474  14.406
    9W        W72335  19.698  25.659   5.130
   10W        W72336  43.972  21.080   3.693
   11W        W72337  13.734  38.326  11.511
   12W        W72338  33.439  19.640   9.972
   13W        W72339  10.867  43.821  13.355
   14W        W72340  17.117   9.775  14.941
   15W        W72341  13.628  20.557   2.819
   16W        W72342   7.236  44.961   4.816
   17W        W72343  29.519  34.981  14.976
   18W        W72344  23.644  33.927   4.327
   19W        W72345  15.297  11.242  12.546
   20W        W72346   2.346  35.997  13.522
   21W        W72347  42.426   1.300   4.163
   22W        W72348  23.516  11.227  13.912
   23W        W72349  19.637   8.790   0.779
   24W        W72350  44.772   3.954   4.316
   25W        W72351  24.023  39.907   4.756
   26W        W72352   4.313  16.199  14.809
   27W        W72353  11.136  34.565  13.415
   28W        W72354  29.473   6.288  10.518
   29W        W72355  21.641  15.201  13.924
   30W        W72356  32.074  35.082  12.033
   31W        W72357   8.378  29.070  13.022
   32W        W72358   4.918  29.039  10.642
   33W        W72359  38.866  40.913  13.321
   34W        W72360  10.152  30.494  12.446
   35W        W72361  44.903  19.189   2.382
   36W        W72362  31.450  25.564   4.246
   37W        W72363  41.962   4.765   2.389
   38W        W72364  19.542  17.584   2.200
   39W        W72365   3.797   9.718  14.821
   40W        W72366   2.280   2.767   4.738
   41W        W72367  42.286  42.287   1.350
   42W        W72368   9.257  37.897  10.639
   43W        W72369  36.576   6.784   1.716
   44W        W72370  34.514  32.989  10.941
   45W        W72371   3.841   6.814  12.036
   46W        W72372  27.599  13.351   0.312
   47W        W72373  42.349  18.266   2.669
   48W        W72374  11.229  30.041  12.342
   49W        W72375   7.262  43.876   1.756
   50W        W72376  26.103   6.422   4.686
   51W        W72377  25.512  13.761   4.266
   52W        W72378  41.331  40.971  14.775
   53W        W72379  24.158  37.065  11.591
   54W        W72380  33.515  20.645   1.357
   55W        W72381   0.779  34.479   4.134
   56W        W72382  15.302  23.663  14.486
   57W        W72383  10.269  18.101   4.670
   58W        W72384  27.576   9.679  10.953
   59W        W72385  22.081  32.943   0.395
   60W        W72386  41.954  20.677   3.334
   61W        W72387   1.946   6.734   2.791
   62W        W72388  32.065  33.940  11.466
   63W        W72389  23.140  24.486   3.767
   64W        W72390  17.215  36.551  14.512
   65W        W72391  19.112  19.097   3.801
   66W        W72392  43.835  15.765   2.761
   67W        W72393  10.806   1.927  11.090
   68W        W72394  38.062  21.670   1.897
   69W        W72395  30.130  20.647  10.947
   70W        W72396  17.270  20.588  10.579
   71W        W72397  36.573  12.330   5.244
   72W        W72398  44.796   0.931  10.959
   73W        W72399  39.988   6.909   3.681
   74W        W72400  21.094  19.677   3.305
   75W        W72401   9.296  13.668   2.255
   76W        W72402  26.078  10.327   1.447
   77W        W72403  12.202  33.965   1.848
   78W        W72404  10.754   2.760  12.864
   79W        W72405  16.690  34.998  10.409
   80W        W72406   9.725  42.815  14.885
   81W        W72407   5.434  36.555   1.270
   82W        W72408  33.484  32.114   1.414
   83W        W72409   1.419  16.637  10.917
   84W        W72410   1.438   5.358   0.342
   85W        W72411  35.075  37.086   4.201
   86W        W72412  42.337  32.025   0.771
   87W        W72413  32.064  32.918   0.296
   88W        W72414  21.081   4.247  12.390
   89W        W72415  12.188   6.246  10.508
   90W        W72416   5.363  37.931   0.287
   91W        W72417  20.726  13.712  11.543
   92W        W72418  37.858   1.353   4.252
   93W        W72419  43.883  37.879   3.328
   94W        W72420   8.210  33.065  10.411
   95W        W72421  29.437  44.489  12.979
   96W        W72422  28.014  38.839   4.269
   97W        W72423   3.338  14.833   2.820
   98W        W72424  14.106  36.906  11.089
   99W        W72425  42.495  23.551   0.778
  100W        W72426   5.383  25.164   4.829
  101W        W72427  18.133  21.067   2.337
  102W        W72428  26.463  41.009  13.892
  103W        W72429   5.360  24.002   0.346
  104W        W72430  11.733  32.980  10.982
  105W        W72431  36.048  18.215  14.352
  106W        W72432  20.065  14.725   0.343
  107W        W72433  40.529  14.207   5.266
  108W        W72434   4.787  18.242  11.589
  109W        W72435  41.981  43.486   4.692
  110W        W72436  17.263   8.809   0.940
  111W        W72437   0.287   2.893   3.688
  112W        W72438  28.059  24.567  13.007
  113W        W72439  25.017  18.618  12.940
  114W        W72440  11.243  20.262  12.018
  115W        W72441  30.575  36.875  12.572
  116W        W72442  32.461  24.179  10.925
  117W        W72443  24.684  32.525  12.910
  118W        W72444  29.052  20.204  12.504
  119W        W72445  22.694  30.068  13.400
  120W        W72446  41.482  19.239   1.393
  121W        W72447  18.259   9.714   2.879
  122W        W72448  39.962  19.243   2.279
  123W        W72449   9.384  27.125  10.426
  124W        W72450  21.654  40.977   3.749
  125W        W72451  32.569  18.112  13.897
  126W        W72452  13.327  34.012  14.768
  127W        W72453  35.473  19.111  14.887
  128W        W72454  17.159  13.183  14.837
  129W        W72455  37.528  25.076  10.410
  130W        W72456  28.939  44.776   4.162
  131W        W72457  42.915   7.841   3.233
  132W        W72458  16.283   3.840  14.918
  133W        W72459  13.330   0.368  11.605
  134W        W72460   4.867  23.733   1.239
  135W        W72461  22.120  44.313   0.932
  136W        W72462  31.480   4.362   1.739
  137W        W72463  10.841  30.126  10.452
  138W        W72464  36.875  44.944   1.394
  139W        W72465  32.989   4.413  14.836
  140W        W72466   5.704  43.453  13.853
  141W        W72467   4.412  40.844   3.861
  142W        W72468   7.376  22.685   1.307
  143W        W72469  35.547  33.053   5.303
  144W        W72470  13.612   1.269   3.642
  145W        W72471  41.504  31.610  11.011
  146W        W72472  28.441   5.201   2.714
  147W        W72473  21.115  12.678  14.435
  148W        W72474  18.560   4.850   0.890
  149W        W72475  19.163  27.097   3.730
  150W        W72476  27.627  33.382   4.817
  151W        W72477  29.663  31.071  13.386
  152W        W72478  41.518  29.125  12.449
  153W        W72479   7.703  32.563  11.604
  154W        W72480   4.868   3.451   0.424
  155W        W72481   2.368  11.321   0.329
  156W        W72482  33.031  10.222   1.250
  157W        W72483  18.143  28.603   1.251
  158W        W72484  20.733   1.798  13.060
  159W        W72485  17.133  27.158   1.346
  160W        W72486  12.689  11.793  10.412
  161W        W72487  16.253  20.570  12.346
  162W        W72488  26.462  11.770   1.368
  163W        W72489   6.703  22.743   2.711
  164W        W72490  39.425   7.859   0.829
  165W        W72491   3.353  29.448   5.090
  166W        W72492   1.741  14.821  12.927
  167W        W72493  44.339   3.781  12.891
  168W        W72494  28.934  37.855  12.910
  169W        W72495  35.523  24.093   2.838
  170W        W72496   7.319  23.215  13.041
  171W        W72497  13.683  26.126   2.365
  172W        W72498  39.314  12.321   4.713
  173W        W72499  37.887  24.514   1.723
  174W        W72500  31.028   9.776  11.551
  175W        W72501  14.119  14.167   3.812
  176W        W72502  36.498  43.411  13.310
  177W        W72503  24.226  12.289   4.607
  178W        W72504  43.487   6.867  10.912
  179W        W72505   2.761   2.323   0.300
  180W        W72506  16.159  35.380  13.887
  181W        W72507  25.051   3.814  12.510
  182W        W72508  34.881  35.558  12.085
  183W        W72509   0.959   7.772  14.366
  184W        W72510   6.736  25.039  10.491
  185W        W72511  19.681  11.211   4.114
  186W        W72512  12.715  27.965   5.274
  187W        W72513  39.065   9.833  11.045
  188W        W72514   6.290  25.596  14.917
  189W        W72515  25.573  39.970  10.137
  190W        W72516  13.325  16.190   0.464
  191W        W72517  29.627  31.471  11.387
  192W        W72518  23.158  20.647   0.865
  193W        W72519   9.381  33.000  12.037
  194W        W72520  28.587  31.009  14.789
  195W        W72521  28.052  27.059   0.316
  196W        W72522  33.531   1.297  13.476
  197W        W72523  19.039  43.815  11.973
  198W        W72524  38.524  20.580   3.646
  199W        W72525  40.808  19.252   2.226
  200W        W72526  15.760   7.736  14.403
  201W        W72527  23.148  24.596   3.305
  202W        W72528   2.747   1.844   4.659
  203W        W72529  14.112  16.288   2.793
  204W        W72530  18.234  14.232   2.332
  205W        W72531  35.504   1.411   2.197
  206W        W72532  18.708  10.149  12.509
  207W        W72533  17.591  40.513   2.838
  208W        W72534  26.188  21.251   0.801
  209W        W72535   8.197  23.017   1.914
  210W        W72536   3.709  14.284   2.355
  211W        W72537  41.306  30.989   0.379
  212W        W72538   8.667   1.834   9.944
  213W        W72539  31.507  11.168  13.458
  214W        W72540  30.602   1.746   0.437
  215W        W72541   8.293  34.924   2.369
  216W        W72542  19.772  12.728   0.321
  217W        W72543  29.489  25.507   1.694
  218W        W72544  37.962  19.231   1.883
  219W        W72545  12.199  26.122   0.449
  220W        W72546   4.397   1.264   4.761
  221W        W72547  28.931   9.341  11.946
  222W        W72548  23.491  15.103   1.839
  223W        W72549  42.410  35.420   3.173
  224W        W72550  28.508  11.806  13.057
  225W        W72551  13.217  24.048  12.002
  226W        W72552  13.285  37.445   5.099
  227W        W72553  32.066  41.939   4.193
  228W        W72554  14.245   9.745  12.856
  229W        W72555  30.951   3.250   3.202
  230W        W72556  42.998   2.350   1.766
  231W        W72557  13.805  21.148   4.746
  232W        W72558  42.854  31.575   3.345
  233W        W72559  19.605   2.831  14.387
  234W        W72560  23.670  13.637   2.357
  235W        W72561  27.046  30.015   4.691
  236W        W72562  40.949  25.198   0.939
  237W        W72563  43.499  22.552   0.384
  238W        W72564  15.820  25.582   1.926
  239W        W72565  10.322  11.189  12.842
  240W        W72566  13.737   1.924  11.485
  241W        W72567  41.963   9.662  11.889
  242W        W72568  20.768  23.990   2.402
  243W        W72569   2.752  13.285   0.254
  244W        W72570  17.083  23.018  12.513
  245W        W72571  20.093  37.046  12.519
  246W        W72572  42.942  33.990   4.666
  247W        W72573   5.829  35.063   2.362
  248W        W72574  36.495   0.928   0.851
  249W        W72575  41.946  24.084  13.015
  250W        W72576  15.628  35.075  10.916
  251W        W72577  44.967  22.006   1.845
  252W        W72578  17.729  38.524   0.920
  253W        W72579  12.230  31.451  13.365
  254W        W72580  38.065   7.861   1.233
  255W        W72581  26.131  40.034   1.860
  256W        W72582  21.031  21.646   2.752
  257W        W72583  17.621  17.076   2.215
  258W        W72584  36.929  17.711   2.321
  259W        W72585  34.551  30.944  13.431
  260W        W72586  43.914  32.023   1.297
  261W        W72587  39.880  28.998   0.733
  262W        W72588  44.408  13.670  13.443
  263W        W72589   2.442  24.052   0.249
  264W        W72590  28.003  19.749  12.021
  265W        W72591  17.229  38.824  13.543
  266W        W72592  23.528  16.236   3.251
  267W        W72593  19.087  23.175  14.976
  268W        W72594  28.671  21.075   2.802
  269W        W72595   2.956  33.543   3.275
  270W        W72596  44.362  40.884   3.822
  271W        W72597  20.086  35.016   3.821
  272W        W72598  44.990  36.525   2.385
  273W        W72599  12.248  40.445   0.320
  274W        W72600  24.519  27.547   3.340
  275W        W72601   8.731  18.170  13.002
  276W        W72602  14.706  16.302   3.166
  277W        W72603   3.820  17.272  11.923
  278W        W72604  33.064  14.330   3.762
  279W        W72605   7.344  39.915  11.010
  280W        W72606  23.726  20.243  12.951
  281W        W72607  11.792  31.095   0.301
  282W        W72608   8.347   4.859   3.196
  283W        W72609   8.723  33.968   0.766
  284W        W72610  38.437   9.881  13.002
  285W        W72611  12.817  12.262  13.811
  286W        W72612   2.327  41.429   4.337
  287W        W72613   9.741  37.352  13.511
  288W        W72614  28.500  42.447  14.401
  289W        W72615  43.842  29.524  11.025
  290W        W72616  11.769   4.418  14.767
  291W        W72617   4.407  43.992  14.986
  292W        W72618  41.805  21.021   2.813
  293W        W72619  27.519  32.924  12.936
  294W        W72620  25.969  24.224   2.711
  295W        W72621  21.523  22.252  13.507
  296W        W72622  43.983  41.847   2.678
  297W        W72623  33.522  29.576   0.283
  298W        W72624   8.382   8.275   2.897
  299W        W72625  20.155   3.726  10.411
  300W        W72626  26.031  11.200  11.013
  301W        W72627  29.151  40.954   0.817
  302W        W72628  29.656  33.903  11.496
  303W        W72629  27.503  38.449   1.761
  304W        W72630  34.527   5.850   0.313
  305W        W72631  25.081  44.789   2.241
  306W        W72632   5.205  38.959   3.789
  307W        W72633  16.718  29.002   2.861
  308W        W72634  17.274  41.517  10.567
  309W        W72635  10.292  24.560   4.177
  310W        W72636  23.528   4.724   0.310
  311W        W72637  18.101  39.025  12.477
  312W        W72638  29.029  29.589  12.825
  313W        W72639  13.181  20.111   1.394
  314W        W72640  10.864  19.137  10.535
  315W        W72641  34.979  13.141   3.334
  316W        W72642  23.079  27.972   0.289
  317W        W72643  13.116  10.769   1.418
  318W        W72644   3.800  36.955  12.828
  319W        W72645  39.055   3.369  13.922
  320W        W72646  15.204   7.357  12.950
  321W        W72647   8.782  20.072   3.278
  322W        W72648   4.930  26.113  13.832
  323W        W72649   8.269  23.553   1.375
  324W        W72650  27.063  40.901  11.414
  325W        W72651  13.818   4.923   1.362
  326W        W72652  10.315  37.978  10.412
  327W        W72653  37.940  19.632  11.106
  328W        W72654  11.344  34.511  14.357
  329W        W72655  35.515  35.088   1.225
  330W        W72656   6.885  23.595   3.254
  331W        W72657  14.643  36.466  14.448
  332W        W72658  11.299  44.485   3.656
  333W        W72659  41.371  20.673  14.311
  334W        W72660  13.122   5.818   2.857
  335W        W72661  41.845  15.615  11.457
  336W        W72662  40.442  38.017   0.337
  337W        W72663  29.523  35.942   0.289
  338W        W72664  10.370  39.842   3.182
  339W        W72665   9.758  11.336  11.099
  340W        W72666   6.226  40.331  10.477
  341W        W72667  31.638   5.253  14.491
  342W        W72668  34.928  17.156  13.966
  343W        W72669   6.853  40.427   1.362
  344W        W72670   3.234  31.602   2.292
  345W        W72671  39.364  27.523   0.365
  346W        W72672  35.493  11.857  14.951
  347W        W72673   2.811  15.129  14.295
  348W        W72674  13.314  17.238   0.296
  349W        W72675  41.971  20.571  10.995
  350W        W72676  29.948  24.694  13.963
  351W        W72677  15.256  36.491  11.420
  352W        W72678   3.232  35.521  10.487
  353W        W72679   5.909  32.954   1.767
  354W        W72680   1.341   3.226  13.952
  355W        W72681   2.845  36.439   2.816
  356W        W72682  20.553  39.461   4.756
  357W        W72683  27.581  21.160  14.799
  358W        W72684  30.999  17.129  10.110
  359W        W72685   5.737  23.100  14.823
  360W        W72686  33.458  23.231  14.851
  361W        W72687   6.315  36.891  10.615
  362W        W72688  30.035  41.480   1.889
  363W        W72689   0.823  14.277  13.891
  364W        W72690  41.298  35.073  11.074
  365W        W72691  32.971  17.681  11.559
  366W        W72692  22.070  24.074   1.924
  367W        W72693  22.200  25.577  13.502
  368W        W72694  32.031  12.686   4.337
  369W        W72695   2.848  11.211   0.768
  370W        W72696  44.268  38.023   2.338
  371W        W72697  14.660   1.297  11.532
  372W        W72698  28.628  26.562  14.493
  373W        W72699   5.228  15.300  14.359
  374W        W72700  41.034  36.433  12.478
  375W        W72701  35.442  23.009  12.034
  376W        W72702  15.226  25.513  12.513
  377W        W72703  11.230  43.293   4.632
  378W        W72704  34.488  31.484  12.384
  379W        W72705  20.199   5.333   3.153
  380W        W72706  12.333  13.241   2.298
  381W        W72707  10.151  23.538   3.180
  382W        W72708  39.459   3.340  14.971
  383W        W72709  32.097  30.130  14.970
  384W        W72710  20.613  15.166  12.049
  385W        W72711  20.730  41.878   2.706
  386W        W72712  40.950  30.057   2.713
  387W        W72713  39.405  16.621   1.704
  388W        W72714   5.849  38.979   3.852
  389W        W72715  38.878   0.761  11.092
  390W        W72716  37.428  36.543  12.535
  391W        W72717  20.076  33.904  14.005
  392W        W72718  21.252   4.428   1.888
  393W        W72719  43.949  21.544  11.406
  394W        W72720  38.419  24.115   2.389
  395W        W72721  25.971  19.228   2.840
  396W        W72722  38.048  13.607   9.665
  397W        W72723  29.122  35.585  12.463
  398W        W72724   0.827  14.123  11.477
  399W        W72725  13.277  17.648  14.798
  400W        W72726   1.858  33.586  10.022
  401W        W72727  37.548   3.215   0.361
  402W        W72728   0.423  31.903  12.498
  403W        W72729   3.443  34.058  10.962
  404W        W72730  18.112  23.600  13.326
  405W        W72731  19.541  32.002   1.284
  406W        W72732  42.819  33.050  13.463
  407W        W72733   8.816  10.791   1.261
  408W        W72734  34.972  42.956   2.377
  409W        W72735  19.085  32.508  14.830
  410W        W72736  40.932  43.372  10.621
  411W        W72737  41.532  30.966   3.669
  412W        W72738   6.754   2.397   3.743
  413W        W72739  21.039  41.305  11.987
  414W        W72740  44.430   3.725  14.995
  415W        W72741  30.039  28.105  11.080
  416W        W72742  23.199   6.196   4.316
  417W        W72743   1.429   4.245   4.133
  418W        W72744  40.310  38.885   4.804
  419W        W72745  33.082  26.496  10.519
  420W        W72746  10.194  28.972   3.814
  421W        W72747  35.396  41.381   3.217
  422W        W72748  38.036  40.318   1.348
  423W        W72749   8.785   0.388   3.350
  424W        W72750  35.074  19.549  11.918
  425W        W72751  10.828  24.707  14.796
  426W        W72752  12.264  22.699  11.914
  427W        W72753   4.423   6.805   0.899
  428W        W72754  20.063  40.001  14.799
  429W        W72755  31.018  29.001   1.909
  430W        W72756  27.576  30.152  11.960
  431W        W72757  28.484  34.110  10.609
  432W        W72758  18.239  26.680  10.475
  433W        W72759  38.493  11.715  12.449
  434W        W72760  32.042   2.859   4.308
  435W        W72761   9.153  29.491   0.782
  436W        W72762  32.065  32.084  14.450
  437W        W72763  20.038   1.319  12.014
  438W        W72764  19.253  32.560   1.706
  439W        W72765  32.004  19.542  14.455
  440W        W72766   3.877  33.002   4.657
  441W        W72767   0.409   1.859  11.095
  442W        W72768  40.985   4.245  13.966
  443W        W72769  39.920   8.331  12.439
  444W        W72770  16.745  21.070   1.240
  445W        W72771  17.756  17.589  11.071
  446W        W72772  24.992  11.339  12.964
  447W        W72773  19.042   8.248   4.838
  448W        W72774  25.068  17.782  11.978
  449W        W72775  21.050  25.981   2.859
  450W        W72776   2.320  27.616   1.378
  451W        W72777   7.268  27.080  14.460
  452W        W72778  14.265  19.715  14.383
  453W        W72779  20.064  28.934  13.965
  454W        W72780  38.875   6.835  13.799
  455W        W72781  29.109  18.675  14.360
  456W        W72782  44.435  41.434  13.825
  457W        W72783  23.182  15.237  13.492
  458W        W72784   0.803  40.863  14.016
  459W        W72785   9.337   9.714   4.334
  460W        W72786  15.807   0.387   0.735
  461W        W72787   9.884  20.663  13.909
  462W        W72788  11.232  16.639   4.226
  463W        W72789  38.392  11.223  13.938
  464W        W72790  26.626  11.814   5.127
  465W        W72791  22.680  20.702  13.028
  466W        W72792  29.161   0.817  11.461
  467W        W72793  34.499   7.175   4.235
  468W        W72794  36.360  12.679  12.058
  469W        W72795  40.972  28.571  13.839
  470W        W72796   6.201  31.896  14.984
  471W        W72797  30.593  31.095   1.257
  472W        W72798  34.450  14.218   3.200
  473W        W72799  30.521  12.202   4.763
  474W        W72800  17.759  22.119  11.512
  475W        W72801   5.781  19.081  12.519
  476W        W72802   9.229  43.932  11.917
  477W        W72803  31.507  20.067   3.867
  478W        W72804  15.109  44.005   1.385
  479W        W72805  11.859  34.515   3.378
  480W        W72806  30.530  21.567  12.904
  481W        W72807   9.173  29.592   1.306
  482W        W72808  31.998  30.072  14.333
  483W        W72809   6.910  11.812   1.921
  484W        W72810  32.444  40.481  10.531
  485W        W72811  32.509   7.762   1.714
  486W        W72812  27.452  14.628  10.583
  487W        W72813  11.354  24.213  10.523
  488W        W72814  39.932  13.633  11.428
  489W        W72815  27.981  40.455   9.949
  490W        W72816  12.766  19.070   2.870
  491W        W72817  11.277   9.780   0.457
  492W        W72818  38.031  17.584  14.516
  493W        W72819  10.700  11.226   3.221
  494W        W72820  35.363   3.327   2.187
  495W        W72821   8.174  21.133   0.283
  496W        W72822  40.823   5.741  10.524
  497W        W72823  35.598  29.977   0.829
  498W        W72824  19.778  28.161   4.788
  499W        W72825  25.511  42.852  14.971
  500W        W72826  20.592  44.919  10.896
  501W        W72827   6.261   5.353   2.185
  502W        W72828  20.551  30.962  11.021
  503W        W72829  11.624   7.888  11.412
  504W        W72830  32.550   5.438   3.636
  505W        W72831  15.730  24.620   3.847
  506W        W72832  26.153   8.873  12.487
  507W        W72833  43.783   3.272  10.623
  508W        W72834   4.312   4.933  12.823
  509W        W72835  39.920  34.486   4.619
  510W        W72836   3.775  39.062   4.605
  511W        W72837  20.685  10.143   4.615
  512W        W72838  25.694   4.796   3.810
  513W        W72839  29.433  22.220   0.413
  514W        W72840  12.151  22.725  13.855
  515W        W72841  34.579   1.311  13.062
  516W        W72842  23.122  12.325  11.117
  517W        W72843  39.860   1.825  14.759
  518W        W72844  37.446  32.037  12.556
  519W        W72845   0.377  35.585  14.424
  520W        W72846  39.365  10.376   1.768
  521W        W72847  12.641  17.717  10.949
  522W        W72848   2.867   2.408   2.310
  523W        W72849  33.923  43.883   4.612
  524W        W72850  13.636  44.290  11.028
  525W        W72851  41.834  23.677   2.846
  526W        W72852  10.379  18.056   2.667
  527W        W72853  11.292  29.070  11.910
  528W        W72854  43.807  35.912   0.754
  529W        W72855   8.750  10.283  12.906
  530W        W72856   2.859   0.302   0.273
  531W        W72857  19.644  32.079   0.264
  532W        W72858   6.193  29.612  11.105
  533W        W72859   3.909  11.640  13.491
  534W        W72860  34.408  18.248  12.474
  535W        W72861  19.073  44.990   1.746
  536W        W72862  42.998  17.794  10.466
  537W        W72863  10.265  24.122  11.443
  538W        W72864  40.340  12.344  13.835
  539W        W72865  27.459  39.325   3.841
  540W        W72866  32.989  32.090   3.288
  541W        W72867  26.961  27.120   2.771
  542W        W72868   9.822  18.057  10.973
  543W        W72869  38.453  40.396   4.649
  544W        W72870  17.142  34.113  13.414
  545W        W72871  44.954  37.510   4.127
  546W        W72872  26.672   8.816  10.051
  547W        W72873  24.994  29.060   1.837
  548W        W72874  29.593  11.268  11.053
  549W        W72875  33.577   6.394  11.539
  550W        W72876  43.962  20.716   1.782
  551W        W72877   2.722  24.718   3.852
  552W        W72878  29.654  17.630  12.847
  553W        W72879  20.737   7.909  10.894
  554W        W72880   4.870  28.944   2.358
  555W        W72881  15.220  16.754  10.451
  556W        W72882  11.852  18.603   3.352
  557W        W72883  13.215   0.783   4.280
  558W        W72884   8.810  34.454  10.136
  559W        W72885   9.865  16.268  14.415
  560W        W72886  18.265   7.210   4.197
  561W        W72887  34.057  28.639   4.321
  562W        W72888  11.315   6.905   1.420
  563W        W72889  25.680  22.537  14.846
  564W        W72890  24.981  35.048   0.274
  565W        W72891  27.584  32.549   1.414
  566W        W72892   5.872  11.331   2.275
  567W        W72893  43.960  31.570  11.531
  568W        W72894  43.910  39.464  13.535
  569W        W72895  26.155  23.097   4.255
  570W        W72896  35.049  36.490  12.388
  571W        W72897  26.486  24.022  12.561
  572W        W72898  23.520  38.937  11.607
  573W        W72899  34.485  25.152  11.860
  574W        W72900   1.250  21.566  11.911
  575W        W72901  18.263   7.893   3.837
  576W        W72902  24.022  41.322   4.224
  577W        W72903  24.554  17.219   1.376
  578W        W72904  19.241  25.639  13.906
  579W        W72905  15.306  41.831  11.459
  580W        W72906  44.499  17.703   4.353
  581W        W72907  22.102  14.731  14.807
  582W        W72908   1.970  27.094  11.934
  583W        W72909   8.205  33.431  10.549
  584W        W72910  33.093  31.414   2.232
  585W        W72911  32.102  31.012  12.440
  586W        W72912  16.096   0.973  14.798
  587W        W72913  29.070   0.251   0.772
  588W        W72914  43.854   7.182   0.445
  589W        W72915  40.025  36.919  14.428
  590W        W72916  22.150  44.992   1.864
  591W        W72917   2.854   9.657  10.090
  592W        W72918  20.127   9.720  12.035
  593W        W72919  35.068  27.178  13.929
  594W        W72920  27.124   8.898  13.340
  595W        W72921  32.616   8.724   3.155
  596W        W72922   3.791  21.017  11.501
  597W        W72923   2.942  11.840  14.354
  598W        W72924   0.781  17.248  14.952
  599W        W72925  22.572  41.916  12.444
  600W        W72926  30.631  43.977  13.807
  601W        W72927  42.292  30.634   3.207
  602W        W72928  22.614  22.659   0.390
  603W        W72929  33.437  13.632   3.631
  604W        W72930  34.980  36.532  11.546
  605W        W72931  19.751  24.064   1.769
  606W        W72932   4.706  31.011  10.903
  607W        W72933  29.640   1.800   4.285
  608W        W72934  21.631   5.718   3.350
  609W        W72935  18.101  29.081  10.974
  610W        W72936   3.282   4.886  14.427
  611W        W72937  28.020  16.250   4.721
  612W        W72938  36.348  16.580   4.774
  613W        W72939  12.222   6.382  14.451
  614W        W72940  16.189  36.499  10.912
  615W        W72941  37.578  27.636  13.469
  616W        W72942  23.099   0.485  13.849
  617W        W72943  16.784   8.237   2.757
  618W        W72944  36.411  39.011  10.475
  619W        W72945  13.319  10.805  13.335
  620W        W72946  15.610   6.206   2.731
  621W        W72947   9.243   5.368   4.222
  622W        W72948  43.951   2.750  11.913
  623W        W72949  36.563  24.010   2.181
  624W        W72950  43.384  30.007  11.862
  625W        W72951   3.722  12.137  10.464
  626W        W72952   1.775   4.349  11.128
  627W        W72953   9.346   8.241   3.183
  628W        W72954   3.949   1.249   3.148
  629W        W72955   7.369  28.680   1.396
  630W        W72956  38.507  28.631   4.347
  631W        W72957  29.560  30.966   4.759
  632W        W72958  35.017  37.523   5.162
  633W        W72959  31.101  28.655  11.461
  634W        W72960  38.071   8.716  14.764
  635W        W72961  10.700  28.453  14.373
  636W        W72962  13.127  31.985  13.912
  637W        W72963  36.853  21.038  12.020
  638W        W72964  27.985  28.122   2.335
  639W        W72965   5.706  32.436  14.275
  640W        W72966  29.480  23.160   1.230
  641W        W72967  40.311   6.745  10.537
  642W        W72968   2.859   6.335  14.423
  643W        W72969  13.785  38.019   2.741
  644W        W72970   1.815  25.647   4.723
  645W        W72971  21.564   1.266   1.794
  646W        W72972  23.060  41.002   1.364
  647W        W72973  19.185   1.447  14.274
  648W        W72974  11.209   8.376  11.881
  649W        W72975  16.805  38.421   1.376
  650W        W72976  18.667   8.772  11.081
  651W        W72977  18.640  28.023   3.801
  652W        W72978  16.091  34.001  13.500
  653W        W72979  44.268  37.461  13.540
  654W        W72980   6.404  33.535  14.787
  655W        W72981  34.065  13.640  10.529
  656W        W72982  38.948   3.837   5.148
  657W        W72983  41.345   9.780   1.405
  658W        W72984   7.398  35.359   3.221
  659W        W72985  20.243   6.704   0.876
  660W        W72986  38.881  31.646   4.236
  661W        W72987  27.526   6.729  12.544
  662W        W72988  19.708   8.203  11.508
  663W        W72989  30.069  21.216  14.778
  664W        W72990  20.247  15.636   1.361
  665W        W72991  41.884  23.631   3.839
  666W        W72992  17.635   5.256  11.052
  667W        W72993  19.631   9.836   0.332
  668W        W72994  36.440  42.002  13.889
  669W        W72995  32.401  36.986   4.321
  670W        W72996  38.950  26.016   0.273
  671W        W72997  25.567  13.158  14.279
  672W        W72998   7.277  17.195  10.435
  673W        W72999  11.303   8.885  13.922
  674W        W73000  19.537  30.973  12.057
  675W        W73001  15.779  28.031  11.429
  676W        W73002  15.727   0.277  12.829
  677W        W73003  35.084  29.459   4.125
  678W        W73004  36.547  42.376   2.682
  679W        W73005   5.749  28.933  10.405
  680W        W73006   9.799  19.210   0.905
  681W        W73007   4.754  19.051  12.074
  682W        W73008  19.535   5.416   3.815
  683W        W73009   2.368  32.008  12.470
  684W        W73010  31.903   5.424   2.202
  685W        W73011  23.585  44.776   0.390
  686W        W73012  12.290  42.304   3.717
  687W        W73013  38.984  28.495  11.397
  688W        W73014  37.339  18.714   5.090
  689W        W73015  10.380  39.015  12.894
  690W        W73016  38.986  24.638   4.208
  691W        W73017  35.413  43.411   3.692
  692W        W73018  18.212  38.364   2.234
  693W        W73019  33.904  22.185  14.277
  694W        W73020  32.963  36.923   4.205
  695W        W73021   2.468  21.183   1.369
  696W        W73022  19.057  33.053  14.888
  697W        W73023   6.823  19.535  11.103
  698W        W73024   5.750  34.471  11.959
  699W        W73025  43.854  31.019   0.302
  700W        W73026  12.287  28.053   3.175
  701W        W73027  44.430  26.191   1.237
  702W        W73028  18.080  26.207  11.938
  703W        W73029  39.408  42.816   2.691
  704W        W73030   4.328  12.307   1.337
  705W        W73031  11.251  24.478  13.873
  706W        W73032   9.328  18.671   4.338
  707W        W73033   8.820  14.640   4.238
  708W        W73034   4.349   6.804  10.898
  709W        W73035  16.806  11.792   1.227
  710W        W73036  23.120  43.771  14.788
  711W        W73037  16.713  30.051  11.564
  712W        W73038  18.082  31.137  11.505
  713W        W73039  28.680  36.996  13.533
  714W        W73040  10.382  21.534  13.473
  715W        W73041  15.268  11.791   3.696
  716W        W73042   7.198   5.198  10.520
  717W        W73043  35.008  22.167   4.315
  718W        W73044  33.966  23.102  13.386
  719W        W73045   4.760  19.668   4.624
  720W        W73046  37.055  14.641   4.608
  721W        W73047  20.734   6.396   1.380
  722W        W73048   3.397  36.395   4.287
  723W        W73049  31.903  10.698  13.403
  724W        W73050  19.267   3.913   1.331
  725W        W73051   9.151  21.055   3.640
  726W        W73052  26.539  35.875   0.921
  727W        W73053  33.029   3.779  12.866
  728W        W73054   3.716  26.960  11.951
  729W        W73055   8.278  36.976   3.161
  730W        W73056  20.550   3.372  14.341
  731W        W73057  16.604  36.349  13.876
  732W        W73058  19.678  18.716   4.656
  733W        W73059  32.402  20.041   2.803
  734W        W73060   6.266   0.974   4.288
  735W        W73061  42.486  23.688   3.304
  736W        W73062   1.788  39.984  14.859
  737W        W73063  10.753  31.969  10.463
  738W        W73064  41.853  24.703   0.910
  739W        W73065   5.856  15.327  14.936
  740W        W73066  37.353  10.228  11.433
  741W        W73067  19.552  43.921  14.426
  742W        W73068  13.745   7.337  11.036
  743W        W73069  27.579  10.858  14.998
  744W        W73070  19.754  18.241  14.285
  745W        W73071  24.108  14.597   4.207
  746W        W73072  15.587  21.050   4.314
  747W        W73073  44.422   2.399  14.828
  748W        W73074  41.473  25.210  13.314
  749W        W73075   0.249  19.776  12.573
  750W        W73076  15.274  29.063   2.815
  751W        W73077  10.797  12.334  13.932
  752W        W73078  39.530  43.379  13.347
  753W        W73079  41.024  23.536   1.311
  754W        W73080   0.395  22.198   2.404
  755W        W73081  27.954  43.377  12.047
  756W        W73082  28.534  13.176   3.297
  757W        W73083  44.871  38.919  11.586
  758W        W73084   5.780   2.336   2.201
  759W        W73085  39.354  19.749  10.982
  760W        W73086  17.770  31.469  12.520
  761W        W73087  19.702  35.502  14.032
  762W        W73088   0.469   9.741   1.409
  763W        W73089  24.602  19.120  10.519
  764W        W73090  42.875   8.699  10.471
  765W        W73091   8.761  13.297   0.781
  766W        W73092  20.183   9.380   0.729
  767W        W73093  18.249  32.956  13.922
  768W        W73094  24.703  17.082  13.372
  769W        W73095   3.944  26.014  12.067
  770W        W73096  10.226   1.900   2.706
  771W        W73097   7.316  42.510  12.546
  772W        W73098  35.887  27.093  10.482
  773W        W73099   5.893  33.401   1.331
  774W        W73100  29.490  34.898   1.328
  775W        W73101   8.715  44.992   1.274
  776W        W73102  27.012  13.161  12.414
  777W        W73103  12.273  17.787   4.148
  778W        W73104  42.893  35.095   0.870
  779W        W73105  20.120   6.826  14.305
  780W        W73106   2.938  36.567   0.860
  781W        W73107  14.128  23.997  14.312
  782W        W73108  41.407  20.142   5.292
  783W        W73109  34.382   1.862  13.994
  784W        W73110  18.189   6.291   4.684
  785W        W73111  18.232  20.691   0.269
  786W        W73112   2.787  34.107  13.450
  787W        W73113   0.484  30.627  14.363
  788W        W73114  43.837  36.471  14.356
  789W        W73115   9.748  39.950  10.587
  790W        W73116  12.306   4.893  10.406
  791W        W73117  40.423  20.575   1.750
  792W        W73118  42.295  23.122  12.918
  793W        W73119  21.172  30.989   3.820
  794W        W73120  38.044  34.547   0.284
  795W        W73121   4.403  33.575   0.861
  796W        W73122   2.426  31.617  12.517
  797W        W73123   1.283  25.580  13.001
  798W        W73124  20.200  44.378  14.483
  799W        W73125  34.057  14.813   1.294
  800W        W73126  38.357  31.532  13.415
  801W        W73127  42.471  12.846  11.993
  802W        W73128  29.919  44.421  14.310
  803W        W73129  16.235   8.381  13.846
  804W        W73130  15.820   6.222  14.413
  805W        W73131  19.131  13.805  11.396
  806W        W73132  11.739  30.148  13.349
  807W        W73133  28.681  24.080   0.260
  808W        W73134  26.983  22.206  10.919
  809W        W73135  38.361  29.499   1.895
  810W        W73136  41.434  41.866  12.953
  811W        W73137  23.076  43.462   3.676
  812W        W73138  31.941  40.969   0.874
  813W        W73139  40.373  36.416  11.499
  814W        W73140  17.603   9.845   4.176
  815W        W73141  32.027  19.581  12.058
  816W        W73142  38.973  24.590  11.488
  817W        W73143  35.071   7.787   4.818
  818W        W73144  28.019  38.392   4.606
  819W        W73145   5.789   9.786  11.535
  820W        W73146   9.214  32.055   2.665
  821W        W73147  20.190  42.307   0.378
  822W        W73148  30.080   1.879  14.506
  823W        W73149   9.849   3.805  10.948
  824W        W73150  33.448  30.448   0.258
  825W        W73151   0.844  40.816  12.059
  826W        W73152  34.076  34.872   0.337
  827W        W73153  30.111   0.460  11.380
  828W        W73154  13.308  23.568   1.303
  829W        W73155  37.540   6.788   2.662
  830W        W73156  44.400  10.855   0.279
  831W        W73157  33.470  27.967   4.634
  832W        W73158  36.078  10.328   3.349
  833W        W73159  29.564   5.310  10.892
  834W        W73160   6.316  17.087   3.699
  835W        W73161  19.566  23.997  12.574
  836W        W73162  27.947  25.535  11.999
  837W        W73163  11.645  28.141  12.553
  838W        W73164   9.653  21.553  13.815
  839W        W73165   9.734   7.175  10.574
  840W        W73166  16.099  17.130   2.395
  841W        W73167   5.253  25.488  10.904
  842W        W73168  37.004   6.223  13.834
  843W        W73169  22.524  11.790   2.738
  844W        W73170  36.395  39.519  12.843
  845W        W73171   7.331  20.720   2.838
  846W        W73172  27.485  15.674   2.187
  847W        W73173  32.116   0.390  14.975
  848W        W73174  17.089  28.003   2.866
  849W        W73175   0.366  21.150  13.800
  850W        W73176  11.183  11.321  13.417
  851W        W73177  42.359  36.367  13.858
  852W        W73178   8.207   1.781   0.380
  853W        W73179   1.913  34.403   2.188
  854W        W73180   0.336   2.256  12.448
  855W        W73181  34.563  27.460  14.877
  856W        W73182   5.850  31.521   0.866
  857W        W73183  19.151  24.610   1.307
  858W        W73184  28.120  13.329  12.529
  859W        W73185  19.622  38.512   1.394
  860W        W73186   4.715  21.620  13.413
  861W        W73187   7.355  42.937   0.871
  862W        W73188  35.479  41.935  12.383
  863W        W73189  32.602  38.861   1.720
  864W        W73190   2.431  14.110   5.159
  865W        W73191  43.423  26.482   2.870
  866W        W73192  28.475  26.073  14.388
  867W        W73193   2.910  19.198   0.786
  868W        W73194  20.691  12.612   2.714
  869W        W73195  14.733  25.029  14.928
  870W        W73196   4.828  11.666   5.258
  871W        W73197  31.642  30.453  10.550
  872W        W73198  16.791  36.874   0.382
  873W        W73199  10.849  26.510  14.978
  874W        W73200   8.218   5.220   2.832
  875W        W73201  26.644  17.584  10.597
  876W        W73202   5.382   7.790   1.377
  877W        W73203   7.404  25.552  14.447
  878W        W73204  11.839  35.413  11.491
  879W        W73205  18.779   0.463   4.172
  880W        W73206  30.027  28.471  11.463
  881W        W73207  42.455  28.137   1.241
  882W        W73208  14.297  44.341  10.598
  883W        W73209  24.504  18.106  14.358
  884W        W73210  30.057  44.810   1.858
  885W        W73211  42.948   6.864  14.804
  886W        W73212  18.255  43.985  13.892
  887W        W73213  22.223   3.218   1.745
  888W        W73214   5.427  26.153   1.786
  889W        W73215  11.198  34.548  14.011
  890W        W73216  36.360  14.687  12.000
  891W        W73217  15.632   0.971  11.382
  892W        W73218  16.638  20.734  11.559
  893W        W73219  28.439  24.723   1.925
  894W        W73220  40.874   5.702   4.137
  895W        W73221  10.649  20.646  12.469
  896W        W73222  19.695  27.079  10.490
  897W        W73223  25.668   7.907  14.473
  898W        W73224  29.562  14.252   4.782
  899W        W73225  29.148   4.914   1.426
  900W        W73226  32.102  22.510  12.489
  901W        W73227  42.396  38.460  10.888
  902W        W73228   7.358  13.709  14.922
  903W        W73229   5.255  20.198  10.604
  904W        W73230  35.898  24.586  14.964
  905W        W73231  28.045  26.472   1.409
  906W        W73232  40.315  23.506  13.956
  907W        W73233   6.717  40.891   0.923
  908W        W73234  31.940   8.893   0.399
  909W        W73235  12.642  44.451  11.003
  910W        W73236  39.448  40.891  11.451
  911W        W73237  11.660   7.306   3.851
  912W        W73238  15.139  29.949  10.634
  913W        W73239  40.423  31.140  10.434
  914W        W73240  37.998  10.241  12.368
  915W        W73241   6.357  36.972  12.968
  916W        W73242  30.995  36.099  14.837
  917W        W73243  15.138  43.880  13.431
  918W        W73244  43.010  26.463   3.688
  919W        W73245  33.879  42.907   1.929
  920W        W73246  13.643   5.889   4.233
  921W        W73247   0.383  11.134   4.252
  922W        W73248  22.068  30.038   4.337
  923W        W73249  37.399  26.094   4.664
  924W        W73250   2.373  29.050   4.654
  925W        W73251  29.627  34.118  10.467
  926W        W73252  10.793  28.632   3.328
  927W        W73253  37.843  28.145  10.577
  928W        W73254  16.578  41.861  13.330
  929W        W73255  17.599  36.447   1.417
  930W        W73256  26.557  23.163  10.404
  931W        W73257   0.762  10.809   1.875
  932W        W73258  22.705  27.472   0.459
  933W        W73259  17.078  41.912  13.010
  934W        W73260  16.094  16.072  11.599
  935W        W73261  40.013  11.185  10.918
  936W        W73262  17.270  35.096   4.605
  937W        W73263  19.071  13.801   4.665
  938W        W73264   5.779  17.584  11.022
  939W        W73265   3.941  39.816  11.601
  940W        W73266  11.371  37.990  11.607
  941W        W73267  42.371  36.419  11.123
  942W        W73268  11.141  22.532  13.332
  943W        W73269  12.297  10.230   1.344
  944W        W73270  12.256   5.354   2.733
  945W        W73271  34.957   4.810   0.942
  946W        W73272   4.733  43.452   1.836
  947W        W73273  16.249  41.494   4.154
  948W        W73274  37.944  24.180   4.321
  949W        W73275  23.025  38.847   4.140
  950W        W73276  13.686  13.670  12.913
  951W        W73277  28.090  16.651  13.405
  952W        W73278  31.458   8.219   3.703
  953W        W73279  19.757   8.313  13.494
  954W        W73280  24.692  27.172   1.746
  955W        W73281   9.393  26.075   2.190
  956W        W73282  31.436  13.708   3.146
  957W        W73283  37.576   0.801  14.916
  958W        W73284  15.173  23.494   3.304
  959W        W73285   7.396  14.777   0.410
  960W        W73286  26.202  39.025  10.970
  961W        W73287  15.577  24.634  12.085
  962W        W73288   5.419  34.480   1.293
  963W        W73289  14.159  35.951  13.987
  964W        W73290  28.940  22.554  14.877
  965W        W73291   1.352   4.338  11.536
  966W        W73292  29.976  11.650  12.502
  967W        W73293  25.197   8.202   0.924
  968W        W73294  44.980  24.180  12.006
  969W        W73295   1.448   3.451  12.541
  970W        W73296  35.893  35.979   4.758
  971W        W73297  26.612  21.057   4.329
  972W        W73298  39.555  21.121   4.773
  973W        W73299  36.440  33.400   1.285
  974W        W73300  44.840  17.667   0.941
  975W        W73301  31.102  32.611  11.923
  976W        W73302  28.530  13.214  12.374
  977W        W73303  43.512   8.307   0.369
  978W        W73304  23.072  10.188   3.310
  979W        W73305  29.631  12.613  14.290
  980W        W73306  33.026  40.034  11.382
  981W        W73307  34.966  18.624   5.225
  982W        W73308  30.498   7.250  13.476
  983W        W73309   4.700  27.488  10.583
  984W        W73310  39.472  13.681   3.303
  985W        W73311  32.601  15.284  12.838
  986W        W73312  27.620   1.778  12.844
  987W        W73313  39.038  42.488  11.879
  988W        W73314  15.098   8.175   2.821
  989W        W73315  10.214  38.036  11.992
  990W        W73316  37.065  36.383  12.979
  991W        W73317  15.788  17.697   4.171
  992W        W73318   6.406  11.682  14.881
  993W        W73319  11.226  30.531   2.666
  994W        W73320  24.032   9.205   2.345
  995W        W73321  29.110   9.252  14.329
  996W        W73322  14.675   8.753   3.683
  997W        W73323  10.362   3.219  12.455
  998W        W73324  18.765  37.961   2.761
  999W        W73325  17.791  43.843   4.753
 1000W        W73326  20.742  31.452   3.638
 1001W        W73327  43.789  44.266  11.086
 1002W        W73328  16.120   2.335  13.540
 1003W        W73329  30.513   0.254   1.921
 1004W        W73330   7.735  40.804  13.009
 1005W        W73331  11.322  32.893   3.286
 1006W        W73332   7.346  10.818  14.434
 1007W        W73333  20.045  37.000   4.196
 1008W        W73334  38.001  36.535   2.414
 1009W        W73335  38.421  14.745   0.896
 1010W        W73336  20.189  24.213  13.448
 1011W        W73337  36.062  43.510  13.420
 1012W        W73338  35.903  11.832  13.510
 1013W        W73339  31.493  24.550  10.921
 1014W        W73340  40.326  44.864   0.398
 1015W        W73341   1.478  39.045   1.390
 1016W        W73342  33.978   4.767   4.603
 1017W        W73343  36.364  11.343   4.260
 1018W        W73344   5.284   1.399  11.999
 1019W        W73345   9.304  41.821   4.826
 1020W        W73346  21.149   6.734   0.868
 1021W        W73347  37.363   6.688   0.370
 1022W        W73348  40.000  41.012   1.290
 1023W        W73349  33.586  26.177   2.350
 1024W        W73350   9.843  33.616  11.008
 1025W        W73351   7.783   8.666  12.410
 1026W        W73352  40.381  10.748  12.050
 1027W        W73353  39.394  28.176  12.534
 1028W        W73354   4.776  15.775   1.220
 1029W        W73355  29.077  11.217  12.446
 1030W        W73356  36.542   6.287   0.305
 1031W        W73357   5.867  12.284  13.874
 1032W        W73358   5.774  42.844  13.915
 1033W        W73359  36.485  14.727   4.206
 1034W        W73360  41.854  29.172   3.226
 1035W        W73361  35.595  24.593   2.808
 1036W        W73362  26.548  32.997  14.337
 1037W        W73363  38.570  38.926   1.422
 1038W        W73364  10.179  15.097   4.670
 1039W        W73365  34.520  12.208  13.866
 1040W        W73366   0.889   8.883   9.999
 1041W        W73367   9.341  44.920   4.167
 1042W        W73368   8.338  16.810   0.943
 1043W        W73369  20.167   7.404   0.255
 1044W        W73370   7.387   5.814  12.879
 1045W        W73371  15.115   6.407  12.481
 1046W        W73372   3.852  38.064  11.376
 1047W        W73373  15.585  17.612  10.009
 1048W        W73374  28.547  36.442   0.785
 1049W        W73375  44.441   6.802  14.852
 1050W        W73376   5.321  34.915   4.733
 1051W        W73377  33.524   7.315   2.215
 1052W        W73378  43.972  16.629   3.346
 1053W        W73379  15.729  36.915  12.039
 1054W        W73380   7.735   7.684  11.543
 1055W        W73381  33.579  15.270  12.427
 1056W        W73382  41.849  14.112   3.846
 1057W        W73383   6.347  36.938   1.710
 1058W        W73384  29.950  37.087  12.966
 1059W        W73385   1.857  12.361   0.783
 1060W        W73386  31.466  32.582   1.317
 1061W        W73387  23.125   8.660  10.504
 1062W        W73388  16.124   0.355  12.980
 1063W        W73389  18.730  44.987   2.298
 1064W        W73390  21.069  44.365  11.402
 1065W        W73391  36.853  27.626  11.438
 1066W        W73392  11.819   4.375   3.364
 1067W        W73393  35.930  43.002   4.232
 1068W        W73394   7.245   8.192   3.679
 1069W        W73395  18.767  43.286  11.894
 1070W        W73396  34.460  15.613   3.384
 1071W        W73397  15.323  17.132  11.024
 1072W        W73398  39.031  31.967   1.389
 1073W        W73399  40.006  17.104   2.667
 1074W        W73400  26.552   9.862  12.403
 1075W        W73401  27.573  17.743   3.168
 1076W        W73402  16.112  14.201  10.413
 1077W        W73403  22.195  38.020  11.904
 1078W        W73404  35.023   2.743   3.296
 1079W        W73405  36.521  32.505  10.996
 1080W        W73406  28.134  26.068   3.834
 1081W        W73407  40.854  33.903  12.864
 1082W        W73408  17.287   6.833   1.915
 1083W        W73409  44.369  12.257  14.767
 1084W        W73410  33.410  28.438  11.020
 1085W        W73411   0.864  32.472   0.771
 1086W        W73412   0.978   8.178   4.776
 1087W        W73413   7.397  32.600  11.403
 1088W        W73414   9.680  17.260   2.783
 1089W        W73415  41.875  33.544  12.386
 1090W        W73416  17.771  17.126   1.914
 1091W        W73417   2.857  13.223  13.450
 1092W        W73418  20.226   7.275   3.362
 1093W        W73419  24.589  14.645  11.875
 1094W        W73420  18.564  31.910   1.290
 1095W        W73421  23.621  37.940  12.064
 1096W        W73422  37.054   7.725   2.749
 1097W        W73423  29.031  36.437   0.406
 1098W        W73424  20.037  35.532  13.893
 1099W        W73425  20.571  36.955  14.510
 1100W        W73426  12.356   8.698  14.496
 1101W        W73427  10.707   3.429  12.886
 1102W        W73428  38.923  37.994  14.362
 1103W        W73429  42.935  19.271  14.294
 1104W        W73430  13.252  33.469  12.052
 1105W        W73431  21.539  37.501  10.119
 1106W        W73432  38.874  34.042   4.134
 1107W        W73433  16.246  42.299   1.450
 1108W        W73434  40.477  22.509  12.352
 1109W        W73435  28.132  34.118  12.496
 1110W        W73436  32.111  12.259   3.185
 1111W        W73437  24.689  27.493  13.051
 1112W        W73438  18.270  19.740   0.829
 1113W        W73439  15.318  16.578   4.597
 1114W        W73440   1.864  11.735  12.448
 1115W        W73441  26.995  28.587  10.131
 1116W        W73442  14.826  27.144  11.376
 1117W        W73443   7.768  15.583   0.762
 1118W        W73444  38.928  17.611   1.805
 1119W        W73445  33.478  43.416   0.818
 1120W        W73446  15.731  19.649  12.562
 1121W        W73447  22.670  27.517   0.799
 1122W        W73448  10.768   7.408  14.505
 1123W        W73449  28.046   6.824   3.243
 1124W        W73450   7.397  26.533  14.948
 1125W        W73451   8.182  39.939   2.234
 1126W        W73452  16.793   4.313  11.386
 1127W        W73453  36.533   5.219  13.892
 1128W        W73454  41.899  20.561   2.734
 1129W        W73455   9.170  21.524  10.413
 1130W        W73456  11.718   7.343  12.045
 1131W        W73457  14.763  39.057  13.815
 1132W        W73458  40.444   1.249   1.839
 1133W        W73459  22.648  29.526  13.430
 1134W        W73460  40.826   9.770  12.890
 1135W        W73461  36.992  28.496  12.048
 1136W        W73462  10.754   0.808   2.252
 1137W        W73463  15.121  30.558   1.933
 1138W        W73464  12.262  33.551   1.800
 1139W        W73465  29.024  30.961  14.325
 1140W        W73466  19.205  16.143   2.409
 1141W        W73467  12.195  34.384   0.871
 1142W        W73468  25.037  28.004   4.822
 1143W        W73469   5.325  36.881  10.639
 1144W        W73470  36.513  24.133   0.281
 1145W        W73471  36.347  36.429   4.796
 1146W        W73472  37.846  44.001  11.464
 1147W        W73473  14.131  14.132   0.949
 1148W        W73474  37.842  42.834  12.463
 1149W        W73475  43.983  12.133   1.376
 1150W        W73476  42.913   8.402   1.754
 1151W        W73477  24.976  28.987  12.520
 1152W        W73478  26.521  27.484  11.413
 1153W        W73479  21.588  32.074   2.816
 1154W        W73480  29.019   2.232  14.514
 1155W        W73481  35.109  16.105   4.693
 1156W        W73482  17.736  17.672   4.738
 1157W        W73483  25.480  24.187  13.944
 1158W        W73484  38.390  42.895  11.977
 1159W        W73485  28.599  23.097  12.854
 1160W        W73486  21.662  11.255   2.807
 1161W        W73487  30.569  10.258  10.982
 1162W        W73488  39.816  40.980   0.310
 1163W        W73489  17.109   2.773   2.816
 1164W        W73490  13.770  29.977  11.028
 1165W        W73491  28.062  39.354  12.049
 1166W        W73492  23.610  26.558  12.565
 1167W        W73493  31.477  32.034   3.673
 1168W        W73494  39.840  17.622  11.432
 1169W        W73495   6.375  35.585   2.215
 1170W        W73496  18.064   4.352  14.478
 1171W        W73497  40.806  34.996  13.033
 1172W        W73498  43.957   6.311  10.930
 1173W        W73499  25.091  22.645  11.487
 1174W        W73500  35.856  16.247   3.845
 1175W        W73501  29.452  15.179  14.006
 1176W        W73502  14.655  42.394   2.398
 1177W        W73503  13.119  21.640  12.549
 1178W        W73504  38.041   0.386   0.366
 1179W        W73505  19.696  16.706  14.424
 1180W        W73506  38.033  13.108  12.570
 1181W        W73507  22.157  16.656  14.411
 1182W        W73508  13.341  17.753   0.440
 1183W        W73509  28.084   3.332   2.791
 1184W        W73510  32.080   4.300   2.821
 1185W        W73511  11.155  39.982   1.246
 1186W        W73512   2.319  18.783   2.336
 1187W        W73513  14.213  27.166   3.152
 1188W        W73514   7.301   7.372   1.722
 1189W        W73515  16.144  44.991  12.507
 1190W        W73516  30.570  17.191  13.525
 1191W        W73517  44.363  20.195   0.851
 1192W        W73518  22.529  30.494  14.850
 1193W        W73519  44.836   1.943  11.525
 1194W        W73520  29.954  36.958   3.157
 1195W        W73521  18.709   6.747   2.822
 1196W        W73522   4.860   1.954  11.992
 1197W        W73523  42.480  37.993  10.448
 1198W        W73524  12.853   0.782  11.049
 1199W        W73525  25.674  41.962   0.294
 1200W        W73526  11.781  22.563   2.824
 1201W        W73527  12.801  35.956   4.737
 1202W        W73528  18.699  10.189  11.391
 1203W        W73529  41.903  36.085  10.969
 1204W        W73530   8.782  10.167   4.251
 1205W        W73531  41.519  19.218   0.820
 1206W        W73532  14.239  19.758   2.332
 1207W        W73533  33.960  44.452   3.846
 1208W        W73534  22.557  36.530   1.926
 1209W        W73535  36.420  16.292   3.658
 1210W        W73536  22.574  21.062   2.207
 1211W        W73537  44.859  11.160  14.788
 1212W        W73538  23.212  21.254  13.006
 1213W        W73539  29.560  28.973   4.177
 1214W        W73540  21.747  31.555   2.698
 1215W        W73541  33.561  22.570  10.547
 1216W        W73542  26.987  26.642   4.607
 1217W        W73543  41.480  12.776  12.933
 1218W        W73544   2.293  44.344  10.503
 1219W        W73545  24.017   8.370  11.874
 1220W        W73546  40.031  34.904  12.444
 1221W        W73547  27.116  17.748  13.855
 1222W        W73548  26.684  28.543  11.043
 1223W        W73549  34.575   9.338   3.280
 1224W        W73550  12.195  27.061   3.154
 1225W        W73551  29.434  10.246   9.956
 1226W        W73552  44.414   9.304  11.552
 1227W        W73553  31.918  37.974  10.953
 1228W        W73554  25.604  19.572   3.753
 1229W        W73555  37.550   1.734  13.840
 1230W        W73556  19.740  33.041   2.409
 1231W        W73557  25.710   3.240  12.065
 1232W        W73558  39.545  36.378   0.254
 1233W        W73559  31.414   9.749   2.829
 1234W        W73560  30.654  21.543  11.377
 1235W        W73561  44.323  44.335   5.139
 1236W        W73562  20.066   1.908   3.782
 1237W        W73563  21.541  15.699  13.791
 1238W        W73564  13.131  22.520  14.278
 1239W        W73565  36.985   8.178  14.762
 1240W        W73566  33.389  41.809   3.697
 1241W        W73567   3.428   0.326  10.901
 1242W        W73568  20.116  26.144  12.556
 1243W        W73569   6.724  41.300  14.412
 1244W        W73570   1.932  39.381   0.336
 1245W        W73571  11.360  42.863   3.306
 1246W        W73572  34.879  40.048   4.621
 1247W        W73573  30.141  29.603  13.939
 1248W        W73574  19.617  41.912   3.819
 1249W        W73575  13.665  22.567   2.366
 1250W        W73576   5.791  18.566   1.771
 1251W        W73577  23.103  27.528   2.343
 1252W        W73578  25.602  15.241  13.503
 1253W        W73579   6.306  17.558  14.887
 1254W        W73580   3.778  13.621  14.389
 1255W        W73581   3.785   8.835   3.723
 1256W        W73582  33.444  29.541  11.595
 1257W        W73583   1.388  31.959  12.901
 1258W        W73584  31.579  12.129  12.043
 1259W        W73585  30.995   4.704  10.068
 1260W        W73586  21.220   5.905   0.886
 1261W        W73587  32.999  37.542   0.761
 1262W        W73588  12.832  14.178   4.619
 1263W        W73589  44.501  37.393   0.733
 1264W        W73590  23.625  23.516   4.737
 1265W        W73591  23.167  27.173   4.826
 1266W        W73592  26.520   0.430   0.728
 1267W        W73593  14.798  23.554  10.901
 1268W        W73594   0.901   3.412   1.400
 1269W        W73595  20.211  10.180  12.475
 1270W        W73596  25.065  37.556  10.973
 1271W        W73597  31.028  22.202   0.291
 1272W        W73598   7.180  37.065  14.326
 1273W        W73599  23.569   3.942  14.958
 1274W        W73600  21.130  44.957  11.869
 1275W        W73601  36.352   4.272   4.247
 1276W        W73602  12.613   5.383  13.452
 1277W        W73603  37.075  40.000   1.347
 1278W        W73604   6.182  40.386   2.403
 1279W        W73605  39.811  11.769   4.654
 1280W        W73606  37.379  14.138  14.301
 1281W        W73607  30.980   8.677  12.525
 1282W        W73608  35.946  37.477   1.733
 1283W        W73609  34.921  38.959   3.191
 1284W        W73610  34.958   6.339  13.489
 1285W        W73611   3.829  27.011   2.745
 1286W        W73612  10.756   8.851  14.429
 1287W        W73613   7.385   1.248   1.252
 1288W        W73614  19.663  41.468   1.905
 1289W        W73615   7.406   9.357   4.829
 1290W        W73616  38.000   8.367   3.774
 1291W        W73617   1.365  33.106   4.797
 1292W        W73618  30.025   7.336   3.322
 1293W        W73619  40.054  27.682  12.956
 1294W        W73620  17.080   7.693  10.586
 1295W        W73621  41.291  23.117  11.096
 1296W        W73622  31.032  19.780   4.766
 1297W        W73623  16.225  22.244   3.685
 1298W        W73624   7.196  34.445  13.906
 1299W        W73625  23.041  39.451   1.299
 1300W        W73626  44.979  43.471  11.869
 1301W        W73627  40.464  19.552   2.702
 1302W        W73628  27.575  28.631  12.840
 1303W        W73629  24.503  26.559   0.856
 1304W        W73630  22.092  42.512  12.925
 1305W        W73631  19.570  42.001   5.159
 1306W        W73632  22.599  37.422   4.333
 1307W        W73633   7.368   3.803   1.772
 1308W        W73634   2.827  39.819  13.473
 1309W        W73635  44.826   5.244  14.293
 1310W        W73636  35.017   8.230   2.204
 1311W        W73637  28.033  25.560   9.616
 1312W        W73638  32.000  10.292  14.957
 1313W        W73639  27.079  35.027   0.794
 1314W        W73640   1.769   4.340  13.499
 1315W        W73641  13.738   9.873   2.861
 1316W        W73642  26.079   1.417   0.817
 1317W        W73643  31.944  40.377   2.404
 1318W        W73644  42.864  38.518   0.445
 1319W        W73645  17.576   6.340  10.565
 1320W        W73646   4.255  39.856  10.454
 1321W        W73647  15.196  35.600   5.796
 1322W        W73648  28.654  21.248   1.757
 1323W        W73649  37.845  41.835  11.539
 1324W        W73650  27.061   4.331   1.859
 1325W        W73651  42.866  18.726  12.019
 1326W        W73652   9.760  31.974  10.912
 1327W        W73653  34.459  33.608  14.386
 1328W        W73654   6.791  41.883  14.806
 1329W        W73655  18.075   5.231   3.195
 1330W        W73656  41.981  26.203   3.857
 1331W        W73657  35.891  37.498  13.315
 1332W        W73658   3.738  22.694   2.901
 1333W        W73659  34.930  14.180   4.804
 1334W        W73660   4.727  32.605   0.290
 1335W        W73661   0.282  25.085  14.290
 1336W        W73662  11.360  35.472  14.989
 1337W        W73663  36.023   3.952   0.313
 1338W        W73664  42.294  16.129  14.936
 1339W        W73665  37.409  15.319   4.788
 1340W        W73666  21.517  36.991   3.710
 1341W        W73667   3.853   5.230  14.028
 1342W        W73668   1.458  26.515   3.358
 1343W        W73669  32.462  12.227  11.525
 1344W        W73670   7.411  42.882   1.424
 1345W        W73671  44.458  30.966   2.716
 1346W        W73672  33.581  34.570  13.983
 1347W        W73673  29.960  18.717  13.794
 1348W        W73674  40.946  10.176   0.962
 1349W        W73675  34.958  10.658  12.997
 1350W        W73676  36.380   4.723   4.810
 1351W        W73677  11.311   1.734   3.703
 1352W        W73678  27.689  20.051  13.796
 1353W        W73679  42.524   3.907  14.404
 1354W        W73680  44.322  18.554   3.853
 1355W        W73681   6.345  13.168  11.021
 1356W        W73682  21.053  40.314  10.037
 1357W        W73683  36.347  18.286  12.441
 1358W        W73684  26.025  42.284  10.910
 1359W        W73685  20.643  34.064   1.426
 1360W        W73686  18.168  22.738   3.192
 1361W        W73687  31.102  15.101   0.415
 1362W        W73688  28.484   5.800   2.410
 1363W        W73689  10.289  36.570  14.420
 1364W        W73690  31.612   8.735  11.943
 1365W        W73691  33.986  16.587   1.306
 1366W        W73692  42.499  20.082  14.927
 1367W        W73693  42.388  19.652   1.212
 1368W        W73694  31.036   4.220  11.556
 1369W        W73695  35.018  22.008   0.452
 1370W        W73696  21.684  12.164   2.858
 1371W        W73697  24.500   8.285   3.859
 1372W        W73698  27.632  34.406  10.512
 1373W        W73699   7.255  44.880   0.871
 1374W        W73700  40.515  18.620  12.899
 1375W        W73701  34.999  44.905   3.337
 1376W        W73702  31.141   9.315  11.554
 1377W        W73703   6.218  34.481   4.341
 1378W        W73704   4.736  32.536   1.713
 1379W        W73705  31.645  23.171   4.191
 1380W        W73706  32.474  43.352  10.483
 1381W        W73707  40.533  16.644  13.977
 1382W        W73708   9.343   2.938   4.303
 1383W        W73709  16.137  40.006  13.826
 1384W        W73710  12.610  42.785   1.403
 1385W        W73711  18.081  41.822  14.968
 1386W        W73712  31.586   0.439  11.995
 1387W        W73713  21.228  43.345   0.460
 1388W        W73714  43.952   2.751  10.618
 1389W        W73715  32.115  41.873  10.559
 1390W        W73716  21.025  29.118  11.906
 1391W        W73717   3.445  31.135   5.254
 1392W        W73718  12.666  17.796  14.961
 1393W        W73719  17.744  40.979  13.543
 1394W        W73720  36.991  15.698  14.283
 1395W        W73721  25.067   8.212   3.245
 1396W        W73722  38.824  41.399   4.287
 1397W        W73723   0.491  37.372  13.998
 1398W        W73724   8.218  22.181  13.517
 1399W        W73725  40.509  42.934  11.452
 1400W        W73726   7.826   7.254  10.123
 1401W        W73727  27.128  25.963  11.418
 1402W        W73728  38.426  42.831   4.294
 1403W        W73729  44.389  20.240  12.927
 1404W        W73730  19.711   3.388   3.836
 1405W        W73731  13.709  11.304  13.923
 1406W        W73732   4.917  29.112   3.313
 1407W        W73733   1.298   9.866   9.447
 1408W        W73734  28.101  18.560   3.757
 1409W        W73735  11.658  33.428   3.709
 1410W        W73736  35.585   6.902   4.127
 1411W        W73737  34.374  40.043   3.234
 1412W        W73738   8.258  34.105  11.890
 1413W        W73739   2.934  39.321   3.227
 1414W        W73740  27.093  17.302   0.859
 1415W        W73741  38.350  33.449  13.889
 1416W        W73742  20.546  41.399   0.839
 1417W        W73743  44.481   8.169  13.947
 1418W        W73744  27.126   9.385  12.565
 1419W        W73745  42.521   6.779   3.727
 1420W        W73746   3.252  31.146   0.853
 1421W        W73747  30.636  38.483   2.693
 1422W        W73748  25.119  28.597   0.847
 1423W        W73749  36.022  29.558   1.815
 1424W        W73750  30.616  13.342   4.330
 1425W        W73751  31.958  43.921  14.402
 1426W        W73752  41.934  44.372  12.546
 1427W        W73753   6.831  27.021  13.934
 1428W        W73754  23.718  37.957  13.324
 1429W        W73755  38.837  27.145  11.996
 1430W        W73756  23.736  15.108  10.943
 1431W        W73757  28.602  43.811  10.574
 1432W        W73758  28.007  31.457   0.861
 1433W        W73759  21.155  23.141  11.405
 1434W        W73760  12.345  30.049   1.845
 1435W        W73761   4.761  42.847   3.202
 1436W        W73762  14.693  41.346   0.361
 1437W        W73763  34.041  10.243  11.876
 1438W        W73764  44.945  42.007   3.334
 1439W        W73765  36.441  32.094   4.269
 1440W        W73766   0.819  22.186   0.842
 1441W        W73767  13.716  31.437   3.303
 1442W        W73768  10.677   8.168  11.119
 1443W        W73769  11.843  33.933  14.951
 1444W        W73770  33.085  34.083   1.439
 1445W        W73771   5.743  32.500  11.111
 1446W        W73772  39.044  39.895  13.801
 1447W        W73773  36.588  40.921   4.597
 1448W        W73774  20.098  23.187   4.234
 1449W        W73775  15.139  44.478   3.867
 1450W        W73776  23.683  23.053  13.886
 1451W        W73777  39.439  44.988   1.777
 1452W        W73778   1.864  39.853   1.385
 1453W        W73779  12.679  28.673  12.092
 1454W        W73780  22.559  22.579   2.746
 1455W        W73781  42.471   5.888   3.208
 1456W        W73782  12.359   1.327  11.387
 1457W        W73783  43.978  43.406   0.771
 1458W        W73784   5.855  26.491  12.914
 1459W        W73785  25.110   3.812   3.170
 1460W        W73786   8.173  12.827  13.935
 1461W        W73787  41.797  43.021  14.939
 1462W        W73788  28.442  19.549   5.298
 1463W        W73789  39.017  30.053   0.441
 1464W        W73790   6.356  15.090   0.312
 1465W        W73791  42.516  26.656  12.390
 1466W        W73792  11.282  37.908  13.497
 1467W        W73793  14.815  15.698  11.094
 1468W        W73794   6.338  12.158   2.367
 1469W        W73795  14.828  42.487  12.951
 1470W        W73796  24.207  41.467   0.888
 1471W        W73797  29.106   8.390  10.926
 1472W        W73798  11.681  34.892  10.995
 1473W        W73799  27.652  12.616  14.965
 1474W        W73800  21.546   3.831   3.252
 1475W        W73801   5.816  17.170  10.484
 1476W        W73802  20.655  20.172   0.358
 1477W        W73803  34.030  23.054  12.369
 1478W        W73804  23.041  26.545  11.977
 1479W        W73805  44.791  35.100  11.448
 1480W        W73806  13.651  40.031  11.042
 1481W        W73807  10.247  16.685   0.382
 1482W        W73808  16.136  31.457   3.324
 1483W        W73809  13.752  25.043  13.822
 1484W        W73810  18.195   8.660  13.894
 1485W        W73811  13.648  25.046  14.279
 1486W        W73812  21.084  13.304   1.744
 1487W        W73813  27.992   5.915   1.306
 1488W        W73814  15.187   9.169   1.798
 1489W        W73815  20.535  42.852   4.783
 1490W        W73816  35.103  29.643   3.193
 1491W        W73817  10.831   0.315   3.749
 1492W        W73818  15.587  22.593   0.831
 1493W        W73819   0.986   0.440  12.398
 1494W        W73820   0.749  11.713  13.915
 1495W        W73821  27.983  40.972   0.922
 1496W        W73822   7.193  18.701   0.959
 1497W        W73823   6.770  42.925   4.154
 1498W        W73824  25.063   4.794   1.823
 1499W        W73825  37.977  34.502  12.076
 1500W        W73826  28.119  39.812   1.211
 1501W        W73827   4.934  40.498  13.832
 1502W        W73828   2.444  14.229   0.288
 1503W        W73829   2.813   1.443  13.314
 1504W        W73830   3.230   1.771  10.429
 1505W        W73831   8.799  34.593  14.031
 1506W        W73832  38.016  30.112  12.950
 1507W        W73833  43.950  36.897   0.904
 1508W        W73834  12.814  39.430  14.499
 1509W        W73835  19.684  28.635   3.322
 1510W        W73836   9.370  20.581  13.414
 1511W        W73837  29.098  27.960  12.029
 1512W        W73838  39.823   4.798  11.031
 1513W        W73839  10.642  41.380  14.480
 1514W        W73840  23.547  44.825  11.048
 1515W        W73841  15.239  19.688   1.776
 1516W        W73842  41.303  11.336  14.816
 1517W        W73843  21.089  40.343   1.435
 1518W        W73844   8.243  22.131  13.003
 1519W        W73845  35.053  31.620   3.821
 1520W        W73846   7.831  12.830  12.400
 1521W        W73847  18.188  29.660   3.267
 1522W        W73848  21.525  37.483  14.386
 1523W        W73849  12.137  41.896   2.360
 1524W        W73850  16.765  31.528   0.808
 1525W        W73851  32.557   7.894  10.947
 1526W        W73852  28.670  37.576   1.282
 1527W        W73853  15.205  36.967   4.789
 1528W        W73854  40.867  25.021  13.433
 1529W        W73855  41.462  24.692  14.303
 1530W        W73856  13.736   2.926  10.629
 1531W        W73857  41.900  20.245   0.863
 1532W        W73858  24.227   3.748   1.312
 1533W        W73859   8.734  20.706   3.828
 1534W        W73860  29.167  44.264  13.414
 1535W        W73861  37.495  43.436   4.731
 1536W        W73862  23.730  27.007  12.843
 1537W        W73863  17.668  11.357   2.248
 1538W        W73864  27.016   1.760   2.182
 1539W        W73865  33.880  15.792  13.516
 1540W        W73866   1.468   0.982   0.738
 1541W        W73867  32.078  17.104   2.800
 1542W        W73868  12.120  26.040  11.564
 1543W        W73869  43.822   5.769  14.408
 1544W        W73870  40.493   7.670   1.746
 1545W        W73871  44.860   6.811  12.933
 1546W        W73872  21.640  35.572  14.371
 1547W        W73873  32.949  39.019  10.595
 1548W        W73874  41.343  22.580  10.638
 1549W        W73875  10.169  35.091  13.417
 1550W        W73876  41.370  21.601   3.296
 1551W        W73877  40.945   0.753   0.432
 1552W        W73878   3.256  37.083  14.935
 1553W        W73879  25.574  36.964  11.016
 1554W        W73880  10.848  12.261   3.757
 1555W        W73881   2.348  28.033  14.375
 1556W        W73882  42.793  23.710   0.733
 1557W        W73883  37.999  39.980   0.279
 1558W        W73884  24.548  31.621   4.645
 1559W        W73885  37.087  25.682   2.663
 1560W        W73886   4.904  44.294   5.258
 1561W        W73887  16.117  16.797   2.236
 1562W        W73888  19.256  12.167  14.422
 1563W        W73889  30.968  39.345  12.545
 1564W        W73890   7.248   3.880  14.808
 1565W        W73891  32.558   6.201   3.340
 1566W        W73892  33.089  22.098   1.842
 1567W        W73893  44.826  44.370   3.674
 1568W        W73894  15.227   7.286  13.996
 1569W        W73895   9.693  35.519   1.894
 1570W        W73896  25.512   8.848   3.782
 1571W        W73897  13.233  32.549  12.871
 1572W        W73898  26.551  29.111   9.976
 1573W        W73899  33.591  29.639  14.384
 1574W        W73900  18.548  37.498   4.703
 1575W        W73901   9.703   0.793  12.461
 1576W        W73902  41.000  18.281  11.079
 1577W        W73903  40.913  31.010   0.852
 1578W        W73904  11.180  35.977   0.416
 1579W        W73905  28.122  29.583   4.282
 1580W        W73906  11.828  27.538   3.790
 1581W        W73907  41.442  39.445  14.807
 1582W        W73908  27.047  36.882   2.896
 1583W        W73909   8.278  18.255   4.232
 1584W        W73910   0.261  21.209   9.965
 1585W        W73911  20.536  39.034  14.419
 1586W        W73912  41.350  21.531   2.361
 1587W        W73913  28.598  44.756  14.397
 1588W        W73914   3.402  21.136   4.136
 1589W        W73915  20.548  35.463   3.849
 1590W        W73916  37.551  42.004   3.684
 1591W        W73917   9.268  12.724   3.871
 1592W        W73918   5.224  42.283   1.870
 1593W        W73919  37.519  11.626  11.543
 1594W        W73920   9.340  34.615   3.667
 1595W        W73921  13.739  28.523  12.579
 1596W        W73922  32.430  36.032  10.913
 1597W        W73923   8.739  36.560   3.667
 1598W        W73924  18.090  24.083   3.275
 1599W        W73925  10.860   9.862   3.188
 1600W        W73926  29.136   5.367   4.250
 1601W        W73927  22.707  28.086   5.135
 1602W        W73928   2.739  43.447   0.296
 1603W        W73929  22.586  39.467   2.830
 1604W        W73930   9.378  31.115   1.771
 1605W        W73931  29.111  29.629   4.348
 1606W        W73932  17.200  15.819  12.038
 1607W        W73933  26.060  21.075  11.095
 1608W        W73934  40.452  39.968   4.250
 1609W        W73935  40.810   2.735   4.250
 1610W        W73936  30.082  17.556  13.989
 1611W        W73937  39.527  28.124   0.754
 1612W        W73938   3.302  20.080   5.191
 1613W        W73939  16.130  10.279  12.525
 1614W        W73940  24.691  42.817  12.574
 1615W        W73941  25.638   4.369   4.617
 1616W        W73942   7.875  36.437   3.830
 1617W        W73943  36.899  39.833  14.931
 1618W        W73944  37.339  12.218   0.935
 1619W        W73945  35.441  16.709  13.043
 1620W        W73946  10.650   5.840   0.891
 1621W        W73947  19.238  29.035   3.224
 1622W        W73948  30.611  11.841   0.321
 1623W        W73949  11.147   3.457  13.835
 1624W        W73950  30.134   6.286   4.176
 1625W        W73951  16.151   4.871  10.454
 1626W        W73952  28.545  38.925   3.192
 1627W        W73953  20.562  16.701  10.451
 1628W        W73954   4.390  41.498   1.429
 1629W        W73955  39.865  44.883   1.260
 1630W        W73956   6.182  20.531  12.383
 1631W        W73957  16.115   5.359   1.716
 1632W        W73958  34.474   7.833  14.479
 1633W        W73959  20.230  12.140   0.906
 1634W        W73960  24.666  41.447  10.502
 1635W        W73961  39.013   3.320  13.501
 1636W        W73962  13.330  41.438   0.473
 1637W        W73963  13.605  32.533   4.278
 1638W        W73964  13.215  41.945  11.988
 1639W        W73965  32.474  30.066   3.638
 1640W        W73966   1.420   9.199   3.151
 1641W        W73967  11.345  40.354   1.717
 1642W        W73968  20.115  38.429   2.380
 1643W        W73969  21.625   6.412  11.589
 1644W        W73970  13.782   5.211   3.787
 1645W        W73971  32.636  21.708   2.405
 1646W        W73972   5.915  33.955  11.107
 1647W        W73973  21.613  31.618  14.845
 1648W        W73974  19.263   2.769  13.497
 1649W        W73975   3.945   6.307   1.335
 1650W        W73976  15.092   6.330   3.245
 1651W        W73977   2.799  44.772  11.591
 1652W        W73978  39.432  19.571  10.585
 1653W        W73979  19.722  27.566  13.370
 1654W        W73980  20.234  37.483  12.452
 1655W        W73981  42.286  34.039  11.612
 1656W        W73982  24.187   9.149  10.462
 1657W        W73983  33.383  21.730  13.854
 1658W        W73984  10.257  10.252  10.405
 1659W        W73985  16.227  20.558   0.785
 1660W        W73986   9.185  30.050   3.271
 1661W        W73987  19.153  21.108  11.434
 1662W        W73988  41.978  36.441  14.910
 1663W        W73989  24.528  21.655   1.402
 1664W        W73990   6.264   2.322   3.229
 1665W        W73991  34.448   4.385  10.962
 1666W        W73992  18.770  21.227  11.074
 1667W        W73993   3.931  24.225   1.790
 1668W        W73994  32.887  13.835   1.766
 1669W        W73995  22.616   9.789   2.693
 1670W        W73996  34.992  39.927   4.121
 1671W        W73997  43.935  18.148   4.220
 1672W        W73998  41.336  42.932  13.458
 1673W        W73999  28.439   4.416   0.296
 1674W        W74000  39.962  21.608  11.953
 1675W        W74001   0.973  30.093  10.933
 1676W        W74002  40.532  14.110   2.665
 1677W        W74003  23.087   2.452   1.867
 1678W        W74004  41.469  18.578  14.365
 1679W        W74005  43.459  41.797  14.294
 1680W        W74006  37.934  39.440   1.424
 1681W        W74007  32.555  43.293   1.264
 1682W        W74008  11.788   2.832   4.785
 1683W        W74009  32.065   4.721  10.959
 1684W        W74010  29.161  30.027  13.798
 1685W        W74011  33.991  13.188   4.747
 1686W        W74012  12.765  11.663  12.839
 1687W        W74013  39.320  35.978  10.545
 1688W        W74014  17.196  34.415   4.774
 1689W        W74015  33.586  32.998   0.777
 1690W        W74016  32.889  27.951  14.320
 1691W        W74017  34.437  40.910   3.701
 1692W        W74018  26.022  34.520  12.568
 1693W        W74019  43.864   1.896  14.446
 1694W        W74020  29.457  28.513  13.891
 1695W        W74021  26.081   0.848  14.937
 1696W        W74022  43.917  26.513   2.267
 1697W        W74023   5.335  37.951  12.953
 1698W        W74024  24.979   9.766   1.327
 1699W        W74025  41.937  25.073   2.820
 1700W        W74026  11.287   9.385  13.975
 1701W        W74027   7.672  39.527  14.833
 1702W        W74028   7.763  37.069  10.908
 1703W        W74029  35.960  27.626   2.856
 1704W        W74030  21.124  34.107   3.802
 1705W        W74031   2.732  25.209   0.777
 1706W        W74032  27.593  36.566  11.094
 1707W        W74033  42.330  14.128   2.297
 1708W        W74034  20.548  28.144  10.897
 1709W        W74035   8.280  12.817  11.933
 1710W        W74036  34.594  18.627  13.865
 1711W        W74037  24.620  33.086   0.317
 1712W        W74038  30.555  30.041  11.100
 1713W        W74039  37.048   7.340   0.447
 1714W        W74040  10.309  10.680  13.984
 1715W        W74041   5.872   7.201   1.271
 1716W        W74042  17.732  20.175   0.439
 1717W        W74043  16.181  43.423  11.528
 1718W        W74044  40.352   2.446   4.271
 1719W        W74045   4.246  17.219   1.358
 1720W        W74046  27.139  39.356  12.029
 1721W        W74047  39.939  34.922  12.029
 1722W        W74048  11.750   1.911  12.468
 1723W        W74049  21.578   6.832   1.731
 1724W        W74050  44.263  40.017   4.791
 1725W        W74051  13.749  13.616  10.447
 1726W        W74052  32.535  21.636  11.963
 1727W        W74053  19.138  33.010  14.308
 1728W        W74054  25.986  36.387  13.011
 1729W        W74055  28.500   5.348   3.782
 1730W        W74056  26.574  18.648   2.880
 1731W        W74057   9.307  44.393   0.951
 1732W        W74058  21.733  42.448  13.316
 1733W        W74059  39.367  34.885  13.385
 1734W        W74060  42.031  42.860   0.799
 1735W        W74061  36.092  11.848   2.306
 1736W        W74062  12.830  24.507   2.684
 1737W        W74063  37.896  37.425   1.250
 1738W        W74064  34.011  13.844  14.956
 1739W        W74065   5.281  17.715   4.795
 1740W        W74066   3.270  12.270  10.067
 1741W        W74067  40.430  42.284  13.867
 1742W        W74068  24.030  40.335  14.011
 1743W        W74069  25.170  41.931  10.595
 1744W        W74070  18.186   3.909  12.408
 1745W        W74071  26.199  22.586   2.280
 1746W        W74072  10.177   2.267  14.383
 1747W        W74073  27.160   2.403  11.586
 1748W        W74074  38.526   4.758   3.357
 1749W        W74075  25.598   8.830   0.483
 1750W        W74076  43.972  30.972   2.379
 1751W        W74077  30.126  12.671  14.766
 1752W        W74078   3.410   4.214   3.184
 1753W        W74079  28.585  21.568  14.978
 1754W        W74080  32.042  11.238   3.338
 1755W        W74081   5.702  39.318   2.217
 1756W        W74082  32.592   7.710  14.960
 1757W        W74083  44.821  15.244  12.384
 1758W        W74084  34.991  32.397  10.065
 1759W        W74085   2.898  16.734   2.753
 1760W        W74086  30.513   8.748   1.786
 1761W        W74087  35.415  20.133  10.436
 1762W        W74088  19.665  36.398   2.404
 1763W        W74089   9.245   4.250   4.317
 1764W        W74090   7.720  28.666   0.321
 1765W        W74091  18.598  31.028  12.459
 1766W        W74092   9.707   9.317  12.888
 1767W        W74093  43.767  33.440  14.946
 1768W        W74094  12.813  40.030   2.773
 1769W        W74095  23.235   3.954  14.835
 1770W        W74096  35.435  28.074  11.485
 1771W        W74097   9.789   1.373   1.327
 1772W        W74098  37.498  18.221   2.805
 1773W        W74099  19.649  34.105   0.462
 1774W        W74100  42.955  17.686  14.945
 1775W        W74101  20.612  30.144  14.284
 1776W        W74102   4.924  37.561   0.818
 1777W        W74103  21.669  21.159  13.372
 1778W        W74104   0.807  31.566  10.628
 1779W        W74105  16.288   0.863   3.297
 1780W        W74106  11.720  26.987  12.044
 1781W        W74107  35.545  32.583  12.925
 1782W        W74108  43.867   4.282   1.934
 1783W        W74109   7.803   8.729  13.867
 1784W        W74110  43.938   1.306  10.406
 1785W        W74111   0.423  36.944  14.914
 1786W        W74112  42.807   6.911  12.963
 1787W        W74113   8.774  24.695  13.827
 1788W        W74114  26.614  25.646  10.911
 1789W        W74115   4.253  39.860  12.429
 1790W        W74116  35.572  36.389   9.961
 1791W        W74117  16.613  26.534   4.290
 1792W        W74118  24.054  39.441  12.990
 1793W        W74119  19.555  41.479  11.923
 1794W        W74120  42.838  22.199  13.360
 1795W        W74121   9.649  30.949   3.635
 1796W        W74122  44.859  39.555   4.287
 1797W        W74123  35.475  16.077   4.675
 1798W        W74124  34.371  13.836  13.512
 1799W        W74125  35.517  44.463  13.333
 1800W        W74126   4.215  17.276   4.124
 1801W        W74127  29.038  26.539  10.567
 1802W        W74128  32.419  17.581   0.767
 1803W        W74129  12.299  19.178  14.858
 1804W        W74130  42.288  37.869   0.739
 1805W        W74131  17.735  44.395  13.965
 1806W        W74132  41.535  31.499   3.696
 1807W        W74133   1.884   2.334  10.096
 1808W        W74134  40.440  21.649   4.785
 1809W        W74135  12.809  14.163  11.047
 1810W        W74136  18.641  14.802   3.173
 1811W        W74137   3.815  12.272   5.805
 1812W        W74138   3.340  14.200  10.581
 1813W        W74139  10.263  44.774  11.943
 1814W        W74140  16.584  44.811   2.418
 1815W        W74141  30.606   0.330  14.830
 1816W        W74142  26.026  12.350   2.872
 1817W        W74143  33.914  28.619  10.933
 1818W        W74144  32.553  20.544   0.245
 1819W        W74145  35.519  11.226   4.630
 1820W        W74146  19.058  43.952   2.774
 1821W        W74147   0.783  17.116   5.126
 1822W        W74148  30.108  12.707  11.009
 1823W        W74149   2.872  34.047  11.989
 1824W        W74150   3.222  10.257   3.832
 1825W        W74151  21.132  28.104  14.488
 1826W        W74152   2.273  31.960   1.752
 1827W        W74153   5.731  39.007   2.683
 1828W        W74154   9.171  26.163  14.461
 1829W        W74155  40.392  24.601  14.884
 1830W        W74156  37.501   1.925  13.369
 1831W        W74157  15.758  10.747  13.059
 1832W        W74158   7.328   3.390  13.351
 1833W        W74159  23.112  27.460  14.373
 1834W        W74160  20.227  23.509   2.258
 1835W        W74161  13.262   2.373  12.386
 1836W        W74162  34.402  21.758   0.842
 1837W        W74163  16.671  24.998  10.472
 1838W        W74164  22.067  40.368   0.408
 1839W        W74165   6.348  22.645   5.162
 1840W        W74166  10.658  24.691  10.991
 1841W        W74167  14.695  14.804   2.694
 1842W        W74168  21.088  39.856  14.999
 1843W        W74169  25.023  18.684   4.328
 1844W        W74170   1.383  28.534   1.763
 1845W        W74171  26.650  40.497   2.825
 1846W        W74172  43.272   3.954  11.999
 1847W        W74173   3.383  40.456  12.543
 1848W        W74174   5.821  28.599   0.798
 1849W        W74175  17.738  29.000   4.216
 1850W        W74176  32.402  39.973  14.502
 1851W        W74177   3.239  19.593  14.432
 1852W        W74178  22.716  30.908  12.072
 1853W        W74179  25.142   2.345  14.023
 1854W        W74180  23.168  37.525   3.733
 1855W        W74181  26.689   0.474  12.897
 1856W        W74182   6.315  27.534   3.787
 1857W        W74183  15.225  10.799  12.410
 1858W        W74184  42.864  42.022   3.192
 1859W        W74185  36.913  39.008  14.842
 1860W        W74186  26.074  42.904  11.008
 1861W        W74187   4.240  18.279   0.742
 1862W        W74188  31.144   3.382   4.650
 1863W        W74189  13.134  14.111   4.319
 1864W        W74190  24.711  34.988   2.802
 1865W        W74191  23.589  42.475   3.282
 1866W        W74192  44.335   4.720  11.120
 1867W        W74193  35.883   7.692  13.438
 1868W        W74194  34.601  31.097  11.025
 1869W        W74195  22.714   0.377  13.372
 1870W        W74196  44.920  38.065  11.492
 1871W        W74197   4.800  24.611  14.969
 1872W        W74198   0.767  19.676   4.683
 1873W        W74199  16.659  13.774   1.862
 1874W        W74200   2.277  40.832   0.781
 1875W        W74201  32.927   4.401  12.977
 1876W        W74202   8.825  23.500   3.757
 1877W        W74203  30.513  43.282   3.794
 1878W        W74204  27.513  12.696   1.358
 1879W        W74205  20.082  40.918  12.563
 1880W        W74206  27.566   0.872  10.468
 1881W        W74207   6.903  13.335   0.806
 1882W        W74208  32.131  30.468   4.226
 1883W        W74209  25.533  16.137  12.463
 1884W        W74210  43.446  20.718  11.049
 1885W        W74211  15.696  22.033  14.347
 1886W        W74212   8.396  18.719  10.586
 1887W        W74213  35.879  31.042  14.409
 1888W        W74214  27.077  19.088   1.407
 1889W        W74215  39.944   0.900  13.040
 1890W        W74216  27.083  16.704  11.958
 1891W        W74217   6.206  35.403   3.272
 1892W        W74218  19.717  44.999  13.344
 1893W        W74219  16.787  10.203  14.377
 1894W        W74220  44.836   3.874  13.511
 1895W        W74221  28.163  42.285  12.934
 1896W        W74222  31.498  25.128   4.706
 1897W        W74223   3.459  16.743   4.277
 1898W        W74224  20.721  39.319   2.739
 1899W        W74225  24.493  29.041  11.421
 1900W        W74226  14.257   6.693   0.424
 1901W        W74227  15.712  13.662   1.285
 1902W        W74228  11.353  19.096   2.860
 1903W        W74229  42.521  31.989   1.702
 1904W        W74230  41.900   5.216  11.609
 1905W        W74231  14.667  39.344   1.782
 1906W        W74232   2.447   4.903  11.896
 1907W        W74233  42.972  44.911   0.810
 1908W        W74234  27.667  26.090  13.542
 1909W        W74235   1.936  21.616  11.994
 1910W        W74236  22.538  25.159   2.415
 1911W        W74237  44.404  28.163  12.843
 1912W        W74238  13.610  40.477  10.461
 1913W        W74239  20.607   6.210  10.946
 1914W        W74240  18.167  34.475   2.222
 1915W        W74241   6.905  15.260   4.690
 1916W        W74242  11.781   1.831   0.415
 1917W        W74243  33.477  14.251   2.781
 1918W        W74244  11.183   1.852  14.405
 1919W        W74245  38.854  24.088   2.777
 1920W        W74246  15.291  16.125  13.877
 1921W        W74247  30.596  35.942   1.259
 1922W        W74248  23.678  24.631  10.480
 1923W        W74249  33.912  21.132   4.114
 1924W        W74250  23.525  18.103   5.199
 1925W        W74251  20.734  30.436  14.868
 1926W        W74252  40.472  16.596  10.456
 1927W        W74253  31.975  40.848   1.708
 1928W        W74254  31.136  30.962  13.963
 1929W        W74255  31.473  30.014  11.989
 1930W        W74256  33.596   7.908   4.773
 1931W        W74257  10.732   8.683   1.433
 1932W        W74258   5.416   9.149   3.309
 1933W        W74259  38.911  11.185  12.518
 1934W        W74260  30.457  16.082   0.820
 1935W        W74261   8.686   4.311   2.828
 1936W        W74262  19.112  15.311  11.599
 1937W        W74263  17.781   6.302   3.338
 1938W        W74264  25.689  26.022  13.064
 1939W        W74265   4.234  16.783  14.779
 1940W        W74266  21.169  32.466  12.022
 1941W        W74267  15.091  20.034   1.811
 1942W        W74268  20.031  33.004   3.693
 1943W        W74269  10.801  41.011  12.441
 1944W        W74270  25.105  38.396  13.482
 1945W        W74271  35.929   7.201   0.841
 1946W        W74272  11.260  44.396   0.358
 1947W        W74273  15.582  19.684  10.918
 1948W        W74274   0.324  34.889  10.985
 1949W        W74275  27.560   7.329  13.468
 1950W        W74276   1.972  34.550   3.773
 1951W        W74277   5.761  21.556  12.938
 1952W        W74278  22.170  20.104  11.561
 1953W        W74279  13.144   5.838  11.878
 1954W        W74280  27.612   2.765  11.592
 1955W        W74281  30.562   3.812  11.028
 1956W        W74282   9.206  18.723   3.729
 1957W        W74283   2.763  38.328   4.238
 1958W        W74284  18.617  43.974  12.450
 1959W        W74285  44.992   9.264  10.564
 1960W        W74286  23.189  35.395  10.617
 1961W        W74287  29.943  40.522   2.334
 1962W        W74288  13.762  15.326  12.468
 1963W        W74289  20.589  33.572   3.752
 1964W        W74290   7.708  14.765   1.768
 1965W        W74291  22.694  29.586   0.375
 1966W        W74292   1.936   1.816  14.894
 1967W        W74293   2.856  18.123  11.551
 1968W        W74294  25.713  37.536   3.365
 1969W        W74295   4.390  10.863  12.066
 1970W        W74296  33.098   9.698   3.348
 1971W        W74297   5.834   6.696  12.403
 1972W        W74298  28.451  15.760   1.423
 1973W        W74299  22.690  38.050  13.930
 1974W        W74300  26.584  44.405   2.785
 1975W        W74301  25.151  11.765   1.217
 1976W        W74302  20.143   1.385   2.318
 1977W        W74303  39.982  21.668  10.909
 1978W        W74304  42.466  12.659   2.695
 1979W        W74305   0.891   7.291  11.553
 1980W        W74306  39.914  18.248   2.306
 1981W        W74307  15.086   4.933  11.098
 1982W        W74308  18.108  15.603   4.825
 1983W        W74309  21.717  38.887   3.668
 1984W        W74310   2.321  36.880  14.420
 1985W        W74311  34.504  12.692   4.746
 1986W        W74312  31.001  30.580   0.859
 1987W        W74313  30.955   1.929   2.741
 1988W        W74314  10.240   5.774  14.941
 1989W        W74315  36.894  13.807   9.672
 1990W        W74316  12.738  34.558  10.504
 1991W        W74317  18.252   0.944  12.448
 1992W        W74318  37.953  42.860   4.147
 1993W        W74319   2.435  14.620  13.941
 1994W        W74320  18.609  27.969   3.157
 1995W        W74321   5.311   7.800   3.842
 1996W        W74322   6.904  43.935   4.799
 1997W        W74323   4.857  18.755  12.996
 1998W        W74324   2.357  30.005  13.889
 1999W        W74325  27.616  35.953   0.894
 2000W        W74326   9.860   4.290   3.183
 2001W        W74327   0.291   8.742   3.373
 2002W        W74328  40.890  33.939   4.217
 2003W        W74329  32.563  33.068   4.141
 2004W        W74330  40.047  15.707   1.718
 2005W        W74331   6.410  34.887  14.385
 2006W        W74332  25.978   5.868  11.959
 2007W        W74333  37.513  42.989  11.070
 2008W        W74334  36.353  36.013  12.509
 2009W        W74335   6.398  19.703  11.595
 2010W        W74336  44.794  31.119   0.337
 2011W        W74337   4.217   4.449   4.823
 2012W        W74338  40.356  38.433  13.410
 2013W        W74339  17.226  22.228  12.529
 2014W        W74340  34.437   7.694   3.686
 2015W        W74341  26.188  17.106  12.970
 2016W        W74342  16.279  25.699   1.759
 2017W        W74343  15.253  10.164   1.849
 2018W        W74344  20.739  24.707  10.568
 2019W        W74345  19.735  12.214  14.377
 2020W        W74346   9.724   6.785   1.844
 2021W        W74347  23.029  37.485  11.556
 2022W        W74348  27.484  36.547  10.582
 2023W        W74349  38.403  23.492  11.118
 2024W        W74350  10.346  21.602  11.072
 2025W        W74351  26.473  44.960  12.446
 2026W        W74352  16.142  29.996   2.199
 2027W        W74353  37.455   8.898   1.739
 2028W        W74354   1.248  16.210   3.839
 2029W        W74355  27.647  38.450  11.516
 2030W        W74356  26.094  29.972  12.983
 2031W        W74357  18.546  11.368  11.523
 2032W        W74358   3.397  42.021   5.127
 2033W        W74359  35.935  39.936   2.416
 2034W        W74360  12.795  10.363   1.867
 2035W        W74361  17.204  24.189   0.272
 2036W        W74362  31.047  31.109  13.041
 2037W        W74363  30.630  29.534  13.794
 2038W        W74364   5.882  22.523   3.868
 2039W        W74365  15.194  20.106  14.852
 2040W        W74366  18.778  18.265  12.887
 2041W        W74367  44.271  40.399   2.355
 2042W        W74368   3.452   0.362   2.384
 2043W        W74369  11.136  16.099   2.209
 2044W        W74370  44.404  17.643   9.931
 2045W        W74371   5.784  11.751   0.735
 2046W        W74372   9.184  16.737  14.431
 2047W        W74373  41.824  24.487  14.383
 2048W        W74374  11.309  26.004   1.350
 2049W        W74375  13.322  38.898   1.373
 2050W        W74376  34.031  28.038   0.734
 2051W        W74377   4.884  12.346  12.875
 2052W        W74378  37.570   4.793   3.353
 2053W        W74379  16.808  42.783  13.382
 2054W        W74380  40.926  33.938   1.226
 2055W        W74381  21.042   1.933   3.362
 2056W        W74382  11.310   8.694   0.359
 2057W        W74383  10.227  11.235   0.785
 2058W        W74384  38.330  35.871  11.436
 2059W        W74385  27.020  34.593   3.328
 2060W        W74386   2.757  25.608  11.116
 2061W        W74387  18.153  22.633   4.653
 2062W        W74388  11.669  37.439   1.739
 2063W        W74389  11.167  31.514   2.858
 2064W        W74390  38.415  14.167   3.185
 2065W        W74391  18.143  26.156   4.689
 2066W        W74392   9.749  19.259  12.547
 2067W        W74393  30.084   0.297  11.916
 2068W        W74394  12.629  44.486   2.725
 2069W        W74395  27.499  10.839  11.930
 2070W        W74396  27.066   7.401   0.382
 2071W        W74397  19.586  31.122   3.780
 2072W        W74398  19.582  15.749   3.823
 2073W        W74399  13.283  28.122  11.386
 2074W        W74400   2.953  24.692   4.282
 2075W        W74401  23.687  11.711   3.715
 2076W        W74402  20.229  21.044   2.850
 2077W        W74403  32.474  42.413   4.636
 2078W        W74404  40.978   8.303   1.770
 2079W        W74405  20.534  42.506   1.406
 2080W        W74406  14.336  41.464  14.389
 2081W        W74407  41.975  16.248  10.928
 2082W        W74408  43.781  10.708   3.639
 2083W        W74409  44.859  42.504  11.555
 2084W        W74410  11.810  33.939   2.254
 2085W        W74411  18.787  13.800   4.608
 2086W        W74412  21.194   5.837   2.303
 2087W        W74413  41.944  33.101  13.987
 2088W        W74414  23.139  12.768   1.719
 2089W        W74415  29.648   2.387  12.383
 2090W        W74416  23.527  24.982   2.744
 2091W        W74417  35.041  23.025  12.983
 2092W        W74418  32.003  40.827  11.466
 2093W        W74419   5.315   4.306   4.702
 2094W        W74420  23.193  31.535   3.733
 2095W        W74421  42.032   8.711   1.747
 2096W        W74422   1.878   8.855   0.887
 2097W        W74423  39.994  25.008   4.812
 2098W        W74424  27.107  30.997  12.501
 2099W        W74425   5.851   5.835   2.345
 2100W        W74426  32.112  27.992  14.285
 2101W        W74427  32.061  12.803   1.835
 2102W        W74428  26.005   3.801  12.569
 2103W        W74429   2.826  38.055  10.464
 2104W        W74430   9.358  29.010   2.848
 2105W        W74431  18.724   3.896  14.306
 2106W        W74432  34.515   6.781  12.534
 2107W        W74433  43.465  21.751   4.745
 2108W        W74434   0.871  34.518   0.841
 2109W        W74435  28.003  13.778  10.546
 2110W        W74436   3.275  43.459   4.822
 2111W        W74437  23.027  40.364   3.295
 2112W        W74438  27.615   5.222   3.249
 2113W        W74439  26.120   9.289  14.348
 2114W        W74440  23.212  17.791   0.299
 2115W        W74441  18.122  18.295  14.505
 2116W        W74442  21.613  39.984  14.427
 2117W        W74443  18.735  15.227   4.346
 2118W        W74444   7.218  23.549  14.484
 2119W        W74445   5.391  18.668  13.461
 2120W        W74446  24.197   2.735  12.086
 2121W        W74447  28.967   0.340   1.921
 2122W        W74448  18.698  30.101   2.810
 2123W        W74449  24.175  36.529  10.969
 2124W        W74450  26.554   5.279  14.960
 2125W        W74451  21.643   7.355   1.283
 2126W        W74452   8.242  37.503   2.766
 2127W        W74453  35.586  24.100  13.995
 2128W        W74454  30.075  18.687   1.267
 2129W        W74455  12.763  40.481  11.932
 2130W        W74456  11.626  25.026   3.317
 2131W        W74457  36.990  10.302   2.698
 2132W        W74458  27.558   7.781   3.667
 2133W        W74459  10.779  36.980   4.192
 2134W        W74460   1.865  39.475  11.434
 2135W        W74461  13.340  15.673  13.941
 2136W        W74462  11.313   1.792   0.793
 2137W        W74463  20.257   4.756  10.547
 2138W        W74464  17.650  17.666  14.478
 2139W        W74465  10.687   9.722   1.756
 2140W        W74466   3.237   0.818  11.905
 2141W        W74467  19.228  21.104   0.804
 2142W        W74468  27.530  18.642   1.748
 2143W        W74469   2.880  31.558  14.933
 2144W        W74470  40.912   8.682   0.904
 2145W        W74471  37.040   1.891   3.748
 2146W        W74472  28.017  41.392  12.390
 2147W        W74473  10.753   9.768  11.567
 2148W        W74474   4.731  35.534  11.972
 2149W        W74475  23.715   5.376  14.404
 2150W        W74476   6.865  18.549  10.953
 2151W        W74477  25.485  17.299   5.133
 2152W        W74478  11.314   7.416  11.940
 2153W        W74479  17.140  39.550  12.478
 2154W        W74480  19.089   2.750  11.886
 2155W        W74481   4.937  23.143   2.786
 2156W        W74482  13.623  21.226  11.545
 2157W        W74483  35.581  14.680   2.671
 2158W        W74484  25.076  12.317   4.277
 2159W        W74485  31.140   7.414  11.453
 2160W        W74486  31.495  17.093  13.848
 2161W        W74487  24.161  11.804   2.782
 2162W        W74488  29.458  26.521   1.834
 2163W        W74489   8.210  42.778   3.771
 2164W        W74490  29.587  11.202   2.340
 2165W        W74491   2.353  29.946  10.891
 2166W        W74492  19.765  33.983  11.077
 2167W        W74493   3.831   2.359   0.483
 2168W        W74494  26.165   2.354   0.400
 2169W        W74495   9.692  39.879   2.755
 2170W        W74496   6.726  42.482  14.025
 2171W        W74497  16.690  24.653   3.687
 2172W        W74498  15.809  32.610   1.291
 2173W        W74499  26.128  29.498  13.916
 2174W        W74500  25.534  28.583  10.422
 2175W        W74501  10.783  22.239  14.995
 2176W        W74502  33.500   9.751  12.973
 2177W        W74503  37.567  32.582   0.403
 2178W        W74504  41.026   8.281  11.862
 2179W        W74505   2.798  34.412   3.690
 2180W        W74506  34.591   9.737  14.485
 2181W        W74507   0.811  22.041  13.452
 2182W        W74508  10.186   6.910   0.303
 2183W        W74509  35.936  28.962   0.445
 2184W        W74510  34.884  40.894  14.007
 2185W        W74511  29.008  30.588   1.238
 2186W        W74512   7.282  14.634  10.964
 2187W        W74513  35.965  10.793  14.905
 2188W        W74514  25.207   0.778   4.659
 2189W        W74515  18.181  27.087   3.819
 2190W        W74516  24.114  16.771   0.954
 2191W        W74517   8.768  24.524  10.964
 2192W        W74518  38.018  23.098  12.990
 2193W        W74519  20.127  19.241   4.732
 2194W        W74520  43.847   9.689  13.976
 2195W        W74521  20.674  42.790   3.656
 2196W        W74522   3.268  25.624   5.160
 2197W        W74523  35.519  30.566   2.209
 2198W        W74524  34.460   0.907  12.917
 2199W        W74525  40.032  15.787   2.192
 2200W        W74526  35.069   1.347  14.394
 2201W        W74527   8.846  28.465   1.240
 2202W        W74528  22.184  22.071  12.901
 2203W        W74529  39.994  11.196  10.616
 2204W        W74530  12.763  30.418  13.441
 2205W        W74531   3.815   4.728   1.851
 2206W        W74532  21.711   3.418  10.417
 2207W        W74533  26.544  24.160  13.483
 2208W        W74534  43.820  12.324  10.446
 2209W        W74535  20.130  22.045   2.874
 2210W        W74536  40.954  10.327  14.502
 2211W        W74537  15.114  18.562   2.677
 2212W        W74538  43.374  12.282   3.352
 2213W        W74539  33.104  26.624  12.031
 2214W        W74540  19.165  32.891  12.058
 2215W        W74541   2.454   4.272  10.976
 2216W        W74542  15.777  37.388   3.764
 2217W        W74543   7.695   8.755   4.341
 2218W        W74544  33.564  33.544  14.824
 2219W        W74545  32.430   3.842   4.175
 2220W        W74546  12.655   0.986   2.673
 2221W        W74547  33.022   5.391   0.307
 2222W        W74548   3.324  24.096   4.345
 2223W        W74549   4.319   4.726  14.786
 2224W        W74550  33.480  44.500  13.864
 2225W        W74551  25.993  15.087   3.321
 2226W        W74552  39.903  44.858   4.712
 2227W        W74553  24.029  26.546   0.291
 2228W        W74554   6.764  23.225  12.825
 2229W        W74555  23.179  20.187  14.429
 2230W        W74556  25.033  10.329  10.996
 2231W        W74557  12.691  33.484  13.010
 2232W        W74558  44.359  10.236  12.459
 2233W        W74559   5.693  13.187   2.799
 2234W        W74560   5.899   6.197  12.968
 2235W        W74561   6.693   8.672  12.076
 2236W        W74562   8.361   7.390  11.377
 2237W        W74563  37.488  20.715  14.917
 2238W        W74564  30.123  42.918  11.610
 2239W        W74565   1.753   6.213   2.211
 2240W        W74566  21.234  10.383  14.479
 2241W        W74567  32.615   1.256   0.389
 2242W        W74568  41.483   5.337   3.325
 2243W        W74569  41.894   3.783   3.671
 2244W        W74570  11.223  37.506   3.692
 2245W        W74571  30.125  23.682   2.332
 2246W        W74572  38.478  29.498  14.945
 2247W        W74573   9.652  26.178  10.995
 2248W        W74574  12.675  15.632  12.452
 2249W        W74575  40.937  22.094  13.492
 2250W        W74576  18.692  37.483   0.334
 2251W        W74577  37.073  22.029  11.879
 2252W        W74578  37.496   1.825   4.117
 2253W        W74579  26.592  31.021   0.960
 2254W        W74580   9.715  34.004   2.414
 2255W        W74581   6.715  33.062  14.347
 2256W        W74582   4.319   9.352  12.340
 2257W        W74583  17.268   1.251  10.960
 2258W        W74584  32.111   1.798   4.204
 2259W        W74585  35.915  19.224   4.780
 2260W        W74586  19.564   4.930  12.069
 2261W        W74587  32.397  30.088   4.144
 2262W        W74588  32.578  40.439  14.947
 2263W        W74589  27.056  27.637   3.709
 2264W        W74590  42.482  30.567   2.747
 2265W        W74591  32.451  14.302   4.123
 2266W        W74592   6.290  21.571   3.718
 2267W        W74593  19.211   1.776  13.978
 2268W        W74594  24.492  34.442   0.437
 2269W        W74595  34.928  11.623   2.860
 2270W        W74596  39.829  11.659  11.868
 2271W        W74597  11.823  35.890   3.166
 2272W        W74598  30.558   8.284   1.839
 2273W        W74599  39.066  36.557   1.843
 2274W        W74600  26.148   1.834   0.822
 2275W        W74601  29.556  32.490  13.344
 2276W        W74602   0.337  31.034   3.653
 2277W        W74603  29.564   9.844  14.952
 2278W        W74604   3.942  32.064   2.895
 2279W        W74605   2.339   4.854   1.333
 2280W        W74606  32.433   7.245   0.401
 2281W        W74607  28.185  13.269   4.239
 2282W        W74608   9.836  21.078  13.538
 2283W        W74609  39.875  21.173  14.312
 2284W        W74610  27.960  27.668   5.191
 2285W        W74611  33.932  18.111   3.659
 2286W        W74612  19.634  37.843   4.212
 2287W        W74613  17.229  43.944   4.237
 2288W        W74614  31.050  42.353  12.087
 2289W        W74615   3.895  35.360  14.430
 2290W        W74616  21.214  18.758   4.659
 2291W        W74617  36.986  43.907  10.416
 2292W        W74618  19.215  22.718   2.312
 2293W        W74619   9.394  16.202   4.297
 2294W        W74620  22.586  37.900  12.077
 2295W        W74621  31.522  27.008   0.410
 2296W        W74622   7.686  11.282  14.013
 2297W        W74623  22.742  29.993   2.224
 2298W        W74624  38.431  36.481  11.126
 2299W        W74625  43.832  20.217   2.730
 2300W        W74626  22.206  37.578  12.363
 2301W        W74627  15.773  23.711   3.286
 2302W        W74628  34.415   0.456  11.483
 2303W        W74629  42.417  22.095   1.399
 2304W        W74630  15.258  43.505  12.006
 2305W        W74631   0.797  38.978   3.854
 2306W        W74632  25.498  31.985   2.685
 2307W        W74633   4.304  11.738   4.220
 2308W        W74634   8.370  31.124  13.362
 2309W        W74635  16.159  44.918  13.534
 2310W        W74636   0.920  28.939  10.057
 2311W        W74637  43.409  43.298   3.204
 2312W        W74638  39.834  25.569  11.008
 2313W        W74639  42.417  20.714   3.334
 2314W        W74640  30.617   5.916  11.904
 2315W        W74641  24.982   1.291  12.042
 2316W        W74642  11.838  21.089   2.291
 2317W        W74643  35.081  21.071  11.454
 2318W        W74644  12.770  26.068   3.850
 2319W        W74645  44.366  33.577  14.473
 2320W        W74646  42.814  40.309   3.706
 2321W        W74647   3.741  37.387   0.868
 2322W        W74648  42.316   4.397   3.864
 2323W        W74649   8.737  19.709  10.123
 2324W        W74650  34.606  25.640  12.880
 2325W        W74651  21.034  14.671  12.480
 2326W        W74652  28.663  41.359   1.437
 2327W        W74653  33.960  43.314  10.528
 2328W        W74654  22.155  27.640   0.427
 2329W        W74655  44.393  44.893   3.382
 2330W        W74656  32.914  24.525   0.470
 2331W        W74657  41.938  24.045  13.365
 2332W        W74658  22.517  11.229   0.827
 2333W        W74659   6.822  23.100  10.547
 2334W        W74660  23.731  37.569  12.359
 2335W        W74661   5.893  41.438   1.357
 2336W        W74662   9.373  17.133  11.023
 2337W        W74663  21.559  34.084   4.786
 2338W        W74664  41.796  20.036   2.704
 2339W        W74665  44.863  28.661   2.720
 2340W        W74666  21.512  26.629  10.988
 2341W        W74667  26.514   1.257  11.568
 2342W        W74668  30.441   0.291   4.599
 2343W        W74669   2.919  36.073   4.674
 2344W        W74670  13.791  39.958   0.400
 2345W        W74671  11.655  39.008  10.158
 2346W        W74672  21.653  17.762  13.000
 2347W        W74673  26.204  30.021  14.340
 2348W        W74674  32.586  20.261  12.855
 2349W        W74675   3.391   2.758  12.865
 2350W        W74676  12.648  21.710   0.897
 2351W        W74677   1.305  33.415   1.211
 2352W        W74678  15.177  23.227   3.321
 2353W        W74679  37.381  35.537  11.857
 2354W        W74680  11.841   4.425   0.926
 2355W        W74681   7.901  23.184   1.877
 2356W        W74682  39.059  13.744  11.972
 2357W        W74683  40.475  26.621  11.888
 2358W        W74684   2.794  24.512   2.184
 2359W        W74685  25.076  17.588   4.759
 2360W        W74686  37.046  31.602   0.278
 2361W        W74687  11.217  32.947  14.480
 2362W        W74688   0.774  15.633   4.704
 2363W        W74689   7.346  37.083   4.612
 2364W        W74690  32.984  17.641  12.410
 2365W        W74691  13.799   2.926  13.981
 2366W        W74692   7.387  13.690  12.417
 2367W        W74693  37.856  21.259   0.432
 2368W        W74694  39.468  19.646  12.472
 2369W        W74695   7.272   3.758  13.882
 2370W        W74696  19.757  25.499  13.921
 2371W        W74697  38.061  38.569  13.455
 2372W        W74698  35.011  42.849   0.390
 2373W        W74699   7.215  33.950  12.089
 2374W        W74700  25.572   6.741  10.554
 2375W        W74701   6.241   5.749  12.417
 2376W        W74702  24.595  23.507  13.812
 2377W        W74703   2.816  14.834   1.225
 2378W        W74704  14.319  43.382   1.787
 2379W        W74705  44.379  41.934  14.777
 2380W        W74706  42.844  22.240   4.697
 2381W        W74707  18.090  39.516   1.898
 2382W        W74708  21.556  19.687  12.534
 2383W        W74709  33.478  39.922   0.960
 2384W        W74710  29.043  23.506  11.073
 2385W        W74711  29.965   9.721  12.855
 2386W        W74712  30.112   9.790  11.865
 2387W        W74713   3.794  32.137  13.390
 2388W        W74714  31.494   2.744   0.889
 2389W        W74715  22.691   4.811  12.920
 2390W        W74716   2.250   8.821   0.803
 2391W        W74717  23.543   6.904   0.844
 2392W        W74718   6.726  43.393   3.344
 2393W        W74719  39.938  33.883  13.025
 2394W        W74720  15.807  19.607  13.402
 2395W        W74721  20.693   9.797   2.828
 2396W        W74722  31.921  32.390   4.763
 2397W        W74723  22.612  33.452  13.331
 2398W        W74724  36.484   8.848  13.540
 2399W        W74725  23.633  18.289   2.717
 2400W        W74726   8.716  19.054  13.493
 2401W        W74727   7.791   5.395  10.995
 2402W        W74728  19.664  19.539  14.987
 2403W        W74729   2.227  20.620   2.773
 2404W        W74730  10.171  17.282   0.365
 2405W        W74731  33.890  18.705   3.732
 2406W        W74732  37.577  44.372   0.369
 2407W        W74733   7.710  26.092  13.388
 2408W        W74734  40.848  40.451  12.468
 2409W        W74735   9.340   3.814  13.020
 2410W        W74736  31.003  27.050   4.762
 2411W        W74737   9.328  35.547   0.961
 2412W        W74738  30.090   9.695   2.693
 2413W        W74739   3.443   4.211   2.851
 2414W        W74740  27.648  32.540  10.924
 2415W        W74741  17.666  21.576  13.359
 2416W        W74742  12.792   2.465  13.448
 2417W        W74743  24.019  25.042   0.771
 2418W        W74744  44.835  19.699   3.261
 2419W        W74745   3.265  28.451   1.345
 2420W        W74746   5.355  25.704   4.613
 2421W        W74747  25.010  10.813   4.714
 2422W        W74748  14.811  18.151  13.397
 2423W        W74749  23.203  42.328  12.541
 2424W        W74750  15.274  28.538  11.986
 2425W        W74751  30.996   2.839   2.894
 2426W        W74752  43.777   4.916  12.969
 2427W        W74753  21.695  28.552   3.731
 2428W        W74754   1.415  12.763  12.578
 2429W        W74755  38.426   5.887  14.289
 2430W        W74756   8.311   8.843  13.874
 2431W        W74757   9.193  24.600  10.460
 2432W        W74758   4.751  18.084  12.858
 2433W        W74759  34.893  16.738   4.631
 2434W        W74760  18.177  44.378   4.175
 2435W        W74761  24.640   3.835   0.380
 2436W        W74762  32.556  40.891   2.391
 2437W        W74763  33.403  22.588   4.666
 2438W        W74764  10.736   3.755   0.454
 2439W        W74765  31.974   2.378   1.370
 2440W        W74766   5.837   6.419  10.915
 2441W        W74767   9.326  42.399  13.911
 2442W        W74768  44.938  10.216   4.734
 2443W        W74769  43.364  21.206   3.310
 2444W        W74770  43.288  39.457   2.698
 2445W        W74771  24.557  11.339   1.317
 2446W        W74772  35.403  34.415  13.840
 2447W        W74773  29.455  40.935   2.900
 2448W        W74774  23.206  14.116  14.506
 2449W        W74775  17.076  27.030   0.296
 2450W        W74776   8.725  15.751  14.412
 2451W        W74777  13.612  14.204   1.227
 2452W        W74778  10.368   6.756  11.500
 2453W        W74779  23.002  15.222   0.437
 2454W        W74780  30.069  36.087   3.713
 2455W        W74781  28.466  42.509  13.353
 2456W        W74782  32.135  41.491   4.293
 2457W        W74783  42.451  27.516   2.867
 2458W        W74784   6.293  27.981   3.156
 2459W        W74785   3.802  25.471  10.471
 2460W        W74786   5.827  40.034   0.458
 2461W        W74787   1.902  43.329   3.837
 2462W        W74788   4.822   6.877   3.288
 2463W        W74789   7.785  41.481  11.469
 2464W        W74790   6.240  23.051   1.770
 2465W        W74791  24.062   7.878  13.457
 2466W        W74792  44.980  26.570  12.918
 2467W        W74793  17.263  30.542   0.931
 2468W        W74794  19.167  38.404  14.935
 2469W        W74795  37.913  41.965   0.792
 2470W        W74796  12.165   5.270   3.186
 2471W        W74797  28.023   4.366   2.894
 2472W        W74798  31.148   4.321   4.215
 2473W        W74799   8.346  35.089  13.359
 2474W        W74800   8.898   5.203  14.968
 2475W        W74801  20.629  36.959   2.703
 2476W        W74802   0.773  27.039  14.396
 2477W        W74803  38.976  12.694   3.740
 2478W        W74804  23.057  16.758   3.651
 2479W        W74805  39.518   5.777  13.474
 2480W        W74806  22.094  11.326  14.863
 2481W        W74807  13.806   0.486   3.385
 2482W        W74808  15.120  20.601   1.438
 2483W        W74809  40.510  43.960  11.039
 2484W        W74810  33.033  17.801  12.999
 2485W        W74811  32.460  33.974  12.093
 2486W        W74812  18.704  10.380   1.285
 2487W        W74813  21.661  18.573  12.958
 2488W        W74814  23.730   4.884  13.892
 2489W        W74815  24.637   5.238   2.189
 2490W        W74816  17.725  33.069   2.383
 2491W        W74817  26.185   9.804  11.388
 2492W        W74818   0.850   1.281  13.401
 2493W        W74819  12.781  25.139  11.936
 2494W        W74820  22.697  34.045  11.018
 2495W        W74821  21.180   3.710   1.410
 2496W        W74822  23.112  35.535   2.320
 2497W        W74823  38.051  44.430  13.852
 2498W        W74824  13.766  12.775   2.737
 2499W        W74825  35.596  43.411  14.857
 2500W        W74826  25.001  12.306   1.782
 2501W        W74827  36.568  32.424  14.422
 2502W        W74828   6.415   9.348  12.845
 2503W        W74829   0.348  31.966  11.087
 2504W        W74830   7.367  13.119  12.835
 2505W        W74831  22.155  33.885  11.053
 2506W        W74832   9.176  34.970  11.437
 2507W        W74833  36.542  38.963   4.835
 2508W        W74834   7.674   5.816  13.420
 2509W        W74835  28.118   5.861  14.290
 2510W        W74836   7.772  37.404  10.092
 2511W        W74837   8.674  37.434  12.353
 2512W        W74838  23.111  22.735   1.744
 2513W        W74839  17.691   8.251  14.853
 2514W        W74840  29.923   8.396   4.310
 2515W        W74841  18.702  32.551   1.365
 2516W        W74842  11.629  25.979   4.165
 2517W        W74843  41.344  33.460  14.899
 2518W        W74844  12.308  33.583   3.740
 2519W        W74845  14.705   4.769  13.407
 2520W        W74846  26.499  39.996   4.676
 2521W        W74847   0.373   6.281   1.220
 2522W        W74848  13.253  39.380   1.921
 2523W        W74849  39.939  43.949   0.299
 2524W        W74850  26.100  17.685  11.037
 2525W        W74851  41.419  21.174  12.053
 2526W        W74852  38.963   2.750   4.275
 2527W        W74853  40.906  36.947  14.423
 2528W        W74854  33.463  19.661   3.845
 2529W        W74855  26.656  20.106  11.404
 2530W        W74856  24.068  39.951   1.815
 2531W        W74857  13.806  27.661  14.349
 2532W        W74858  18.166   3.344  11.028
 2533W        W74859  30.091  39.896  12.461
 2534W        W74860  17.181  32.114   3.228
 2535W        W74861  28.133  43.870   0.814
 2536W        W74862  18.555  44.772   3.673
 2537W        W74863  39.495  27.522  14.846
 2538W        W74864  14.297  30.599  13.460
 2539W        W74865  38.493  16.111  11.984
 2540W        W74866  41.894   2.368  13.830
 2541W        W74867  31.079  42.498  10.564
 2542W        W74868   3.454  28.064  11.100
 2543W        W74869   5.227  44.381  10.550
 2544W        W74870  30.447  26.155   1.367
 2545W        W74871  33.951  29.484  14.831
 2546W        W74872  43.479  41.962   0.271
 2547W        W74873   5.271  24.531  14.948
 2548W        W74874   9.337  35.359   4.615
 2549W        W74875  27.623  10.371  13.858
 2550W        W74876  29.053  29.142   2.816
 2551W        W74877   5.274  43.809   3.802
 2552W        W74878  27.499  12.306   4.815
 2553W        W74879   5.236  20.638  12.910
 2554W        W74880  43.296  35.962  11.375
 2555W        W74881   7.245  36.373   4.773
 2556W        W74882  36.903  33.537  12.380
 2557W        W74883  21.574  19.190   2.717
 2558W        W74884  35.542   1.336   0.439
 2559W        W74885  32.112   7.806   2.359
 2560W        W74886  21.674   0.424  14.772
 2561W        W74887  15.724  26.665  11.958
 2562W        W74888  27.977  27.110  11.127
 2563W        W74889   4.924  36.557  11.098
 2564W        W74890   5.730  36.533   3.220
 2565W        W74891  23.666  23.623  12.581
 2566W        W74892  12.856  11.336   4.327
 2567W        W74893  23.128  16.710   4.326
 2568W        W74894   5.349  13.715  11.118
 2569W        W74895  26.080   5.388  13.991
 2570W        W74896   0.892   0.477   1.761
 2571W        W74897  29.575  30.083   3.234
 2572W        W74898  30.612  18.239   0.446
 2573W        W74899   2.465  36.380  14.356
 2574W        W74900  19.246  38.567  12.395
 2575W        W74901  37.988  41.308   0.811
 2576W        W74902  19.652  10.336   3.708
 2577W        W74903  32.100  19.239  13.430
 2578W        W74904  38.946  20.083  13.962
 2579W        W74905  28.614   0.808  13.497
 2580W        W74906  34.494  15.794   2.727
 2581W        W74907  17.569  17.207  10.518
 2582W        W74908  35.453  27.567   1.292
 2583W        W74909   3.416   7.233   0.923
 2584W        W74910  17.686  43.296  13.397
 2585W        W74911   6.790  21.023   1.349
 2586W        W74912   0.787  10.704   3.384
 2587W        W74913  19.102  26.036  11.599
 2588W        W74914  33.950  13.243  12.565
 2589W        W74915  42.282   5.903   4.332
 2590W        W74916  27.169  40.541   4.306
 2591W        W74917  35.567  16.237   3.222
 2592W        W74918  36.421  39.559   4.777
 2593W        W74919  41.964  15.646  10.056
 2594W        W74920  14.658  16.795  14.024
 2595W        W74921  41.893  17.783  13.922
 2596W        W74922  10.334  19.207  14.490
 2597W        W74923  44.982  44.277  13.922
 2598W        W74924  17.178  18.204  10.462
 2599W        W74925  20.066   0.838  11.449
 2600W        W74926  23.682  10.701  11.991
 2601W        W74927  18.216  27.503  12.414
 2602W        W74928   3.406  34.588   1.694
 2603W        W74929  36.995  17.265   0.326
 2604W        W74930  34.597   6.248   4.268
 2605W        W74931   5.317   9.673  13.040
 2606W        W74932   6.326   7.268   4.728
 2607W        W74933   3.797  40.809   2.812
 2608W        W74934  44.382  18.584  10.095
 2609W        W74935  39.331  13.346   3.193
 2610W        W74936  35.536  37.336  10.570
 2611W        W74937  42.485   4.704  12.500
 2612W        W74938  39.981  43.957   3.813
 2613W        W74939  41.815  32.911  14.374
 2614W        W74940  27.030  18.561   4.328
 2615W        W74941  30.030  37.032  13.995
 2616W        W74942  44.500  21.190   2.263
 2617W        W74943   5.355  27.011  10.989
 2618W        W74944  33.613  26.011   1.732
 2619W        W74945  44.453  37.009   4.727
 2620W        W74946  43.916  43.379   2.663
 2621W        W74947  42.445   2.333   4.672
 2622W        W74948  43.454  13.662   2.379
 2623W        W74949  24.521  17.565  12.021
 2624W        W74950  12.856  23.022   2.200
 2625W        W74951  43.309  12.734  13.971
 2626W        W74952  33.469  31.043  11.578
 2627W        W74953  37.035  14.764  14.861
 2628W        W74954  40.455  23.033  12.506
 2629W        W74955  34.927  26.044   4.243
 2630W        W74956  43.920  14.170  12.387
 2631W        W74957  31.430  31.558  13.052
 2632W        W74958  19.240  38.933  10.903
 2633W        W74959   1.844  39.918  12.489
 2634W        W74960  15.742  37.055   0.297
 2635W        W74961  17.705  30.585  10.439
 2636W        W74962  19.039  36.493   1.446
 2637W        W74963  17.752  40.421  12.040
 2638W        W74964  44.791  22.130  11.981
 2639W        W74965  37.992  23.198   0.944
 2640W        W74966  17.255  34.895  14.015
 2641W        W74967  27.973  38.945   3.834
 2642W        W74968  43.836   6.750   0.425
 2643W        W74969  20.159  37.062   3.692
 2644W        W74970  22.541  23.130   1.414
 2645W        W74971  32.052  16.621   2.181
 2646W        W74972  43.364  11.157  10.568
 2647W        W74973  11.167  38.042   1.424
 2648W        W74974  17.226  16.620  14.341
 2649W        W74975   7.328  43.408  13.038
 2650W        W74976  38.484  21.092  14.952
 2651W        W74977   4.723  12.710   3.216
 2652W        W74978   2.848  41.903  12.010
 2653W        W74979  39.515  12.722  11.010
 2654W        W74980  19.240  12.248   1.803
 2655W        W74981  37.965   1.954  12.966
 2656W        W74982  35.593  22.562   3.266
 2657W        W74983  34.033  34.960   4.829
 2658W        W74984   1.251  39.345  13.816
 2659W        W74985  28.070  42.455  13.434
 2660W        W74986  33.406  15.755  13.426
 2661W        W74987  24.073  10.843  14.343
 2662W        W74988   1.433   8.324  11.570
 2663W        W74989  28.552  24.016  14.874
 2664W        W74990  41.940  26.133  14.965
 2665W        W74991  27.588  42.444   0.436
 2666W        W74992   2.932  22.143   4.265
 2667W        W74993  36.864   5.764  12.037
 2668W        W74994  22.533  35.998  14.769
 2669W        W74995  40.383  17.659   0.376
 2670W        W74996  42.952  10.831  11.992
 2671W        W74997   5.704  14.690  11.468
 2672W        W74998  24.620  29.519  13.460
 2673W        W74999  41.343  13.609  12.559
 2674W        W75000  32.102  37.033   1.803
 2675W        W75001  14.151  32.917  14.493
 2676W        W75002  32.460  14.199  14.486
 2677W        W75003  35.994  42.957  13.423
 2678W        W75004  16.094  24.005  12.368
 2679W        W75005   6.378  10.328   4.262
 2680W        W75006  11.698   7.298  12.568
 2681W        W75007  12.653  26.097   5.148
 2682W        W75008  33.068  19.734  13.352
 2683W        W75009  36.006  10.304  11.934
 2684W        W75010  33.922  23.653   4.150
 2685W        W75011  23.560  29.626   3.264
 2686W        W75012   8.274  42.500  10.999
 2687W        W75013  25.997  28.480   4.157
 2688W        W75014  13.607   1.445  14.286
 2689W        W75015  14.605   7.375   0.901
 2690W        W75016  31.149  21.155   3.650
 2691W        W75017   1.400  41.012  13.992
 2692W        W75018  35.948  19.273   3.787
 2693W        W75019  22.505  10.310  11.027
 2694W        W75020  28.985  15.697  10.555
 2695W        W75021  19.711  10.671  14.872
 2696W        W75022  42.030   3.923   1.700
 2697W        W75023  15.811  22.071  10.563
 2698W        W75024  39.993  43.794  14.947
 2699W        W75025   6.352   7.696   2.744
 2700W        W75026  31.457  29.447  14.796
 2701W        W75027  11.631  30.925  12.842
 2702W        W75028  29.648   1.257  13.028
 2703W        W75029   1.831  27.007  13.366
 2704W        W75030  21.696  12.205   3.355
 2705W        W75031  42.476  22.153   3.817
 2706W        W75032  29.577  42.816   3.263
 2707W        W75033  34.066  25.699   3.844
 2708W        W75034  35.441  11.238   0.278
 2709W        W75035   2.355  26.668  13.501
 2710W        W75036  29.006  26.609  14.469
 2711W        W75037   4.294  43.485   4.652
 2712W        W75038   9.680  36.011   2.265
 2713W        W75039  13.760  10.640   3.685
 2714W        W75040  14.654  36.082  12.017
 2715W        W75041  41.866  28.162  11.084
 2716W        W75042  30.535   2.414  13.992
 2717W        W75043  33.917  20.740  14.423
 2718W        W75044  13.726  42.390  14.935
 2719W        W75045   7.365   9.763  12.403
 2720W        W75046  28.163  27.650  11.602
 2721W        W75047   4.340  43.902   3.304
 2722W        W75048  11.811   6.351   4.232
 2723W        W75049  22.504  12.282  14.833
 2724W        W75050   4.317  29.147  13.428
 2725W        W75051   7.269  14.330   1.212
 2726W        W75052  23.991  34.507   0.381
 2727W        W75053  31.080   7.294   2.310
 2728W        W75054  22.065  13.233   4.281
 2729W        W75055   3.749  44.858  14.824
 2730W        W75056  23.710  42.849  14.950
 2731W        W75057  18.572  31.571   2.763
 2732W        W75058  34.895   7.828   1.696
 2733W        W75059  35.576  44.320   3.775
 2734W        W75060  13.345  10.146  12.381
 2735W        W75061   1.973  27.452   1.363
 2736W        W75062   4.386  15.093   2.181
 2737W        W75063   5.783  22.116   1.786
 2738W        W75064  20.696  33.892  14.827
 2739W        W75065  12.625  30.656  10.589
 2740W        W75066  13.645  11.151  13.062
 2741W        W75067   3.916  30.045   0.840
 2742W        W75068   4.864  44.911   2.799
 2743W        W75069  41.872  30.460   0.286
 2744W        W75070   8.271  10.660  11.375
 2745W        W75071  17.756  12.713  10.559
 2746W        W75072   8.823  21.081   1.725
 2747W        W75073  24.630  17.275  13.976
 2748W        W75074  22.225  44.989  13.975
 2749W        W75075  15.774  20.622   3.844
 2750W        W75076  39.326  32.996  11.601
 2751W        W75077  29.653  43.791   1.371
 2752W        W75078  21.580  29.523  10.634
 2753W        W75079  33.446  31.521   5.280
 2754W        W75080   0.749  11.288   1.718
 2755W        W75081  11.623  40.309  13.030
 2756W        W75082  20.064  33.886   2.375
 2757W        W75083  32.027  18.127  10.512
 2758W        W75084  37.343  24.624  14.350
 2759W        W75085   7.400  42.374  11.982
 2760W        W75086   6.382  15.777  14.839
 2761W        W75087  24.584  41.789   1.301
 2762W        W75088  15.291  33.489  13.946
 2763W        W75089  12.662  36.572   1.872
 2764W        W75090   7.392  19.609   0.418
 2765W        W75091  22.248  11.338   1.883
 2766W        W75092   7.808  20.609  10.486
 2767W        W75093   4.908  31.464   4.265
 2768W        W75094  19.186  23.669   2.842
 2769W        W75095  40.307  15.641   5.181
 2770W        W75096  41.522  26.969   3.377
 2771W        W75097  32.898  31.548  14.432
 2772W        W75098  26.645   8.396  14.367
 2773W        W75099  35.070  19.171  10.488
 2774W        W75100  17.567  44.882  10.526
 2775W        W75101  44.906  38.428  10.427
 2776W        W75102  31.100  33.990  12.896
 2777W        W75103  13.326  36.934  11.026
 2778W        W75104   1.409   4.325   3.861
 2779W        W75105  24.140   4.942  13.852
 2780W        W75106  30.442   3.902  12.435
 2781W        W75107  39.808  33.484   0.885
 2782W        W75108  11.359  19.718   0.354
 2783W        W75109  11.175  27.587  10.913
 2784W        W75110  37.429  28.999  14.822
 2785W        W75111   6.424  32.475   4.719
 2786W        W75112  35.407  42.375  11.075
 2787W        W75113   2.813  28.088  10.930
 2788W        W75114  40.947   8.832   3.631
 2789W        W75115  16.668  35.425   3.667
 2790W        W75116  18.098  33.004  10.486
 2791W        W75117  27.010  42.408  12.411
 2792W        W75118  24.140   7.736   4.626
 2793W        W75119  35.447  26.634  11.115
 2794W        W75120  21.236  44.354  12.544
 2795W        W75121  10.277  36.478  12.446
 2796W        W75122  37.449  29.041  13.327
 2797W        W75123   8.401  35.541  12.971
 2798W        W75124  13.759  35.413  11.522
 2799W        W75125   0.758  36.377   4.173
 2800W        W75126  37.408  11.150  11.022
 2801W        W75127  16.580   7.340  12.381
 2802W        W75128  36.907  10.288  11.510
 2803W        W75129  30.033  40.810  14.470
 2804W        W75130  15.601  27.197  10.465
 2805W        W75131  38.009  21.178  11.083
 2806W        W75132  42.893  25.984  10.997
 2807W        W75133   3.370  44.792  10.471
 2808W        W75134  32.628  37.989  14.320
 2809W        W75135  12.662  12.745   1.893
 2810W        W75136  42.431  19.711  10.409
 2811W        W75137  28.090  28.563  13.448
 2812W        W75138  30.571  16.736   0.730
 2813W        W75139  18.124  34.399   3.231
 2814W        W75140  11.778  42.892  14.488
 2815W        W75141  27.082   1.296  13.990
 2816W        W75142  35.990  42.836   3.382
 2817W        W75143  25.526  34.906  13.853
 2818W        W75144  38.031  19.276  11.467
 2819W        W75145  21.200  28.622   2.211
 2820W        W75146  34.394  36.944  14.390
 2821W        W75147  29.089  26.149  12.946
 2822W        W75148  39.391  20.178   4.621
 2823W        W75149  20.569  35.073  12.972
 2824W        W75150  32.965   7.405   2.360
 2825W        W75151  40.859  36.411  13.520
 2826W        W75152  19.158   5.389  13.455
 2827W        W75153   1.765   2.280  13.924
 2828W        W75154  41.985   0.346  14.789
 2829W        W75155  11.271  26.062  11.962
 2830W        W75156  22.697   2.721   0.389
 2831W        W75157   0.477  21.193   4.290
 2832W        W75158   3.216  23.524   0.292
 2833W        W75159  13.729  15.228  13.913
 2834W        W75160  10.740  32.914  13.799
 2835W        W75161   6.779  10.266   1.269
 2836W        W75162  41.313  26.060   3.164
 2837W        W75163   0.318  24.100   1.907
 2838W        W75164  24.994  24.725  10.503
 2839W        W75165  15.760  40.380   3.357
 2840W        W75166   1.327   4.426  14.284
 2841W        W75167   2.734  23.653  10.160
 2842W        W75168  26.016  21.521   3.855
 2843W        W75169  25.020  38.525   0.883
 2844W        W75170  30.159  19.282  11.021
 2845W        W75171  40.897  28.104  13.858
 2846W        W75172  18.101   4.778  11.573
 2847W        W75173  25.090   0.830  14.946
 2848W        W75174  35.992   6.361   0.750
 2849W        W75175  32.966  17.129   2.405
 2850W        W75176   3.332   2.263   2.375
 2851W        W75177  18.276  24.198  14.356
 2852W        W75178   1.393  42.287  11.869
 2853W        W75179  16.700  28.546   4.114
 2854W        W75180  35.594  42.473   4.751
 2855W        W75181  36.487  16.751  10.120
 2856W        W75182   3.313  10.316   2.789
 2857W        W75183  22.104  10.333   2.272
 2858W        W75184  44.970   7.190   5.088
 2859W        W75185  42.027  42.943  12.550
 2860W        W75186   4.756   9.735  11.921
 2861W        W75187  26.105  18.082  14.016
 2862W        W75188  44.793  17.629  13.881
 2863W        W75189  23.625  16.722   0.797
 2864W        W75190  35.437  32.416  14.916
 2865W        W75191  38.492  12.744  11.387
 2866W        W75192  21.620   1.824  14.898
 2867W        W75193  16.211  36.994  10.956
 2868W        W75194  35.067  33.380   1.743
 2869W        W75195   3.458   6.376  14.385
 2870W        W75196  44.918   8.859  11.105
 2871W        W75197  30.153  18.764   2.848
 2872W        W75198  15.666  14.100   4.696
 2873W        W75199   3.388   0.988   0.323
 2874W        W75200  14.664  22.133  11.125
 2875W        W75201  23.496  15.811   5.262
 2876W        W75202  27.181   6.777  12.369
 2877W        W75203  29.599  43.014   4.606
 2878W        W75204  23.068  31.577  14.396
 2879W        W75205  11.721  42.438   1.246
 2880W        W75206  33.417  20.125  14.510
 2881W        W75207  26.534  33.624  10.427
 2882W        W75208  24.177  18.628  13.908
 2883W        W75209   5.397   4.220  11.984
 2884W        W75210   6.841  17.229   1.919
 2885W        W75211   5.767  18.121  12.900
 2886W        W75212   7.385  15.639   2.873
 2887W        W75213  44.407  29.919   2.711
 2888W        W75214  30.414  37.850  14.902
 2889W        W75215  35.384  34.544   3.352
 2890W        W75216   5.300  17.295   4.217
 2891W        W75217   3.807  40.327   4.344
 2892W        W75218  43.996  15.089  11.897
 2893W        W75219  29.501  29.449  13.328
 2894W        W75220  41.003  10.742   1.894
 2895W        W75221  41.839  38.998   4.658
 2896W        W75222  12.767  40.014  10.963
 2897W        W75223  37.915  20.180  10.497
 2898W        W75224  39.919  21.033   4.768
 2899W        W75225  23.159  32.525   4.306
 2900W        W75226  25.512  22.659  10.456
 2901W        W75227  19.113  25.583  13.045
 2902W        W75228  19.185  16.220   2.679
 2903W        W75229  33.024   3.311   2.181
 2904W        W75230  34.523   3.824  13.531
 2905W        W75231  20.168  39.899   2.724
 2906W        W75232  23.507   9.867  11.406
 2907W        W75233  26.547  14.791   0.404
 2908W        W75234  15.253  39.011  13.803
 2909W        W75235  20.225   5.700  14.763
 2910W        W75236  30.969  36.087   0.890
 2911W        W75237  42.917   9.343  14.320
 2912W        W75238  29.450  42.356  14.028
 2913W        W75239  20.203  40.840   2.367
 2914W        W75240  26.493  32.930   3.733
 2915W        W75241  33.573  11.281   1.844
 2916W        W75242  37.978   2.786   4.115
 2917W        W75243  36.078   7.817  11.999
 2918W        W75244   2.339  24.664   2.765
 2919W        W75245   7.230  29.081  11.878
 2920W        W75246  11.665   3.733  14.010
 2921W        W75247  18.135   4.699  13.030
 2922W        W75248   8.199   7.298   4.693
 2923W        W75249   9.178  42.339  10.585
 2924W        W75250  15.586  15.220   1.846
 2925W        W75251   0.887  13.120   4.758
 2926W        W75252  28.576   0.275  13.792
 2927W        W75253   0.351  12.169  11.561
 2928W        W75254   8.284  17.750  13.538
 2929W        W75255  44.896  24.511  13.868
 2930W        W75256   3.729   3.756  14.374
 2931W        W75257   3.955  11.169   1.234
 2932W        W75258  20.048  44.328   4.133
 2933W        W75259  42.441  26.147  14.801
 2934W        W75260  13.800   6.247   4.770
 2935W        W75261  40.844  24.090   2.185
 2936W        W75262  29.635  27.654  13.525
 2937W        W75263   5.847  11.804   1.252
 2938W        W75264   3.732  22.716   4.738
 2939W        W75265  25.616  24.598  11.095
 2940W        W75266   3.269  17.126   0.267
 2941W        W75267   5.912  24.690   1.815
 2942W        W75268  17.073  37.844  14.465
 2943W        W75269  32.935  26.071  11.908
 2944W        W75270  44.932  20.709  14.868
 2945W        W75271  26.505  31.112  11.568
 2946W        W75272  35.977   3.223  11.526
 2947W        W75273  26.977  12.259   4.599
 2948W        W75274   0.484   2.816   2.406
 2949W        W75275  33.591  34.951  12.517
 2950W        W75276  30.096   2.259  14.356
 2951W        W75277   9.708  16.129   2.250
 2952W        W75278  22.053  36.995  12.524
 2953W        W75279  11.816  29.086  14.934
 2954W        W75280  26.542   9.710   1.347
 2955W        W75281  40.831  39.971  11.432
 2956W        W75282  29.133  33.448  13.337
 2957W        W75283  24.176  43.372   3.816
 2958W        W75284   1.944  43.342   1.823
 2959W        W75285   9.790  33.601   0.885
 2960W        W75286  29.443  19.164  11.497
 2961W        W75287   5.393  19.285   0.903
 2962W        W75288  16.289  37.898   0.935
 2963W        W75289   2.738   8.812   2.194
 2964W        W75290  34.032   1.390   2.781
 2965W        W75291  35.388   5.354   2.282
 2966W        W75292  32.028   2.359  14.479
 2967W        W75293   4.256  32.025  14.476
 2968W        W75294   6.184  35.568  12.416
 2969W        W75295   2.787  16.784  13.400
 2970W        W75296  25.576  40.386   0.958
 2971W        W75297  17.614  11.710  14.883
 2972W        W75298  24.685  24.648  13.310
 2973W        W75299  11.734  42.836  14.871
 2974W        W75300   4.738  35.072   0.425
 2975W        W75301  18.180  33.129   1.848
 2976W        W75302  31.475  35.371  10.931
 2977W        W75303  40.377  43.996  12.028
 2978W        W75304  40.981   8.718  12.512
 2979W        W75305  38.827  33.088  11.467
 2980W        W75306  11.321  25.008   9.985
 2981W        W75307  41.018  15.595   4.735
 2982W        W75308   2.275  35.565   0.454
 2983W        W75309  41.009  43.005  13.487
 2984W        W75310   4.277   0.363   3.784
 2985W        W75311  12.268   7.705  13.979
 2986W        W75312  37.033  15.213   3.164
 2987W        W75313   2.406  15.253   2.330
 2988W        W75314   9.670   6.401   1.247
 2989W        W75315  32.522  28.565   2.371
 2990W        W75316  27.011  12.849   4.825
 2991W        W75317  39.375  34.074  14.496
 2992W        W75318  14.188   8.880  14.803
 2993W        W75319   3.727   5.804  10.890
 2994W        W75320   4.875  19.252  12.408
 2995W        W75321  42.341   7.889  11.029
 2996W        W75322  21.656  36.347   4.177
 2997W        W75323  32.097  27.636   1.932
 2998W        W75324  30.456  16.180  12.024
 2999W        W75325  36.946   0.396   0.298
 3000W        W75326  29.962  23.586   4.193
 3001W        W75327  41.932   2.263  12.074
 3002W        W75328  29.616  22.617  13.894
 3003W        W75329  44.426   6.228   3.680
 3004W        W75330  12.189   9.245  12.499
 3005W        W75331  37.375   4.934   1.782
 3006W        W75332   7.225  21.022   2.853
 3007W        W75333  16.689   9.261   4.810
 3008W        W75334  24.089  10.293   9.978
 3009W        W75335  10.840  19.230   3.303
 3010W        W75336  15.729  35.875   3.844
 3011W        W75337  43.805   6.816  14.877
 3012W        W75338  40.041  18.113   0.867
 3013W        W75339  17.733  44.351  13.320
 3014W        W75340   8.783   6.733  10.965
 3015W        W75341  12.844  32.016  11.977
 3016W        W75342  19.642  18.293   0.905
 3017W        W75343  16.797  18.610   4.138
 3018W        W75344  20.142  14.253   3.371
 3019W        W75345  31.984  44.922  14.954
 3020W        W75346   3.954  34.532  13.035
 3021W        W75347  39.040  32.096  13.501
 3022W        W75348  11.185   6.836  12.506
 3023W        W75349  30.624  38.073  11.910
 3024W        W75350  15.815  16.787   2.890
 3025W        W75351  36.382   6.761   2.765
 3026W        W75352  32.625   3.337   1.719
 3027W        W75353  21.570  29.977   0.894
 3028W        W75354  21.546  19.121  14.885
 3029W        W75355  26.065   5.799  10.420
 3030W        W75356  38.507  18.781   0.872
 3031W        W75357  10.199  32.553  14.954
 3032W        W75358  42.894  32.103   3.659
 3033W        W75359   2.235   2.920  12.939
 3034W        W75360  19.535  35.869  12.840
 3035W        W75361  23.595  25.643  12.941
 3036W        W75362  36.378  32.890  11.892
 3037W        W75363   1.249  37.858   4.714
 3038W        W75364  32.039  39.355   4.681
 3039W        W75365  26.979   0.321  14.338
 3040W        W75366  40.945  20.186  12.883
 3041W        W75367  40.468  18.091  10.587
 3042W        W75368  14.654  27.019   0.852
 3043W        W75369  29.153  26.601   1.902
 3044W        W75370   8.325  36.927   2.774
 3045W        W75371  11.672  33.494   0.244
 3046W        W75372  23.984  15.115   0.787
 3047W        W75373  26.195  14.168   1.739
 3048W        W75374   5.370  37.481  12.057
 3049W        W75375  21.139   2.270  14.997
 3050W        W75376  40.342   4.275   4.664
 3051W        W75377  31.038  12.844   1.386
 3052W        W75378  44.799  23.495   0.742
 3053W        W75379  14.306  37.353  10.532
 3054W        W75380   6.762  27.114   0.804
 3055W        W75381  15.110  33.453   3.649
 3056W        W75382  33.409  13.284   0.780
 3057W        W75383  27.144   8.867  14.371
 3058W        W75384   1.317  25.204   1.283
 3059W        W75385   1.402  23.499   4.162
 3060W        W75386   2.813  20.093   3.767
 3061W        W75387   4.238   6.378  11.926
 3062W        W75388  10.256  23.568  11.908
 3063W        W75389   5.381  29.123  10.451
 3064W        W75390  42.495  19.540   2.750
 3065W        W75391   4.763  31.086   4.340
 3066W        W75392  28.106   4.323   4.627
 3067W        W75393  24.663  21.240   2.271
 3068W        W75394  22.686  44.765   1.246
 3069W        W75395  21.218  39.525  10.964
 3070W        W75396   5.851  13.139  13.971
 3071W        W75397  12.632  32.402  13.844
 3072W        W75398   3.304  33.946  12.038
 3073W        W75399  16.111  32.394   4.783
 3074W        W75400  14.206  33.431   2.334
 3075W        W75401  23.151  33.513   4.117
 3076W        W75402   1.854  38.336   3.829
 3077W        W75403  15.668   2.462  11.414
 3078W        W75404  41.789  31.070  14.961
 3079W        W75405   8.691  14.223   1.377
 3080W        W75406  27.488   7.199   3.760
 3081W        W75407  18.189   8.851   2.351
 3082W        W75408   2.415  26.026  11.494
 3083W        W75409   6.230  22.103   2.249
 3084W        W75410  14.274  14.693  14.923
 3085W        W75411   9.667  29.489  12.556
 3086W        W75412  43.971   4.858   0.372
 3087W        W75413  34.052   0.358  13.063
 3088W        W75414  10.774   4.882   1.428
 3089W        W75415  11.193  33.545  11.460
 3090W        W75416   3.306  34.555   1.312
 3091W        W75417   9.295  22.097   4.779
 3092W        W75418  14.752  42.480  11.571
 3093W        W75419  26.523  36.428   2.884
 3094W        W75420  11.315  11.246  11.553
 3095W        W75421  18.689  28.677  11.882
 3096W        W75422  42.322  12.273   3.790
 3097W        W75423   4.262  36.040  11.558
 3098W        W75424  17.582  34.406  13.383
 3099W        W75425  30.116  29.544  12.870
 3100W        W75426   2.778  14.163  14.370
 3101W        W75427  26.565  43.486   2.900
 3102W        W75428  42.422  29.461   4.694
 3103W        W75429  10.254  24.156   0.274
 3104W        W75430  29.057  41.892   4.629
 3105W        W75431  39.834  13.120  13.959
 3106W        W75432  22.646  11.743  12.473
 3107W        W75433  21.088  34.370  13.309
 3108W        W75434  11.704  27.059   5.306
 3109W        W75435  43.301  13.225   2.287
 3110W        W75436  29.075  31.451   4.154
 3111W        W75437  23.057  15.616  13.847
 3112W        W75438  27.991   0.803  14.442
 3113W        W75439  11.245  34.551  12.551
 3114W        W75440  36.909  26.988   4.339
 3115W        W75441   8.854  21.517  10.608
 3116W        W75442   9.815  37.859  10.977
 3117W        W75443   3.374  32.068  11.545
 3118W        W75444  27.481  20.128   3.229
 3119W        W75445  14.140   3.332  12.993
 3120W        W75446  12.839  29.628  14.292
 3121W        W75447  35.441  37.525  12.031
 3122W        W75448  33.542  18.268   2.805
 3123W        W75449  11.769  23.671   3.305
 3124W        W75450  10.810  22.058   0.810
 3125W        W75451  12.169   1.299  12.853
 3126W        W75452  31.965  28.662   3.326
 3127W        W75453  36.858   2.725  14.443
 3128W        W75454  15.205  34.413   2.284
 3129W        W75455  16.296  22.227  11.035
 3130W        W75456  14.805   3.251  11.888
 3131W        W75457   4.245   9.221  11.576
 3132W        W75458  15.682  36.573  12.458
 3133W        W75459  42.294  24.708  11.887
 3134W        W75460  18.190  34.475   1.422
 3135W        W75461  16.643  35.947  14.342
 3136W        W75462  35.558  35.881   1.307
 3137W        W75463  38.820  12.627   2.899
 3138W        W75464  30.990  38.531   4.162
 3139W        W75465  11.739  41.866   2.866
 3140W        W75466  16.190  15.691  12.510
 3141W        W75467  29.562  12.796   2.822
 3142W        W75468  11.865  25.208  11.119
 3143W        W75469  10.685  42.301  10.456
 3144W        W75470  28.546  15.756   4.811
 3145W        W75471  36.426  26.144   3.306
 3146W        W75472  27.482  32.533   0.380
 3147W        W75473  28.441  43.987   3.305
 3148W        W75474   8.654  26.543   0.273
 3149W        W75475   3.883  21.686   4.818
 3150W        W75476   4.728  11.713  11.509
 3151W        W75477  17.307  24.156  11.448
 3152W        W75478  33.427   8.226   3.157
 3153W        W75479  35.405  36.856  12.962
 3154W        W75480  28.471  22.203   1.804
 3155W        W75481  32.913  22.731   3.261
 3156W        W75482  16.785  38.363  12.022
 3157W        W75483  38.372  13.617  11.525
 3158W        W75484  15.603  16.296   0.874
 3159W        W75485   0.473  28.501  13.474
 3160W        W75486  34.031   0.856   4.738
 3161W        W75487  38.523  44.447  13.874
 3162W        W75488  32.512  21.660   1.925
 3163W        W75489  37.561  19.770  13.455
 3164W        W75490   2.437  44.799   4.703
 3165W        W75491  40.407  32.052   3.357
 3166W        W75492  15.613  20.584  12.495
 3167W        W75493  22.684   4.768  11.554
 3168W        W75494  41.431   0.379  14.850
 3169W        W75495  11.817  38.994  14.843
 3170W        W75496   2.820   4.762   1.237
 3171W        W75497   7.831  15.739  11.982
 3172W        W75498   9.711   1.361  13.548
 3173W        W75499  18.191  24.719  13.945
 3174W        W75500  42.341  10.638   0.385
 3175W        W75501  42.871  11.643  11.033
 3176W        W75502  43.386  20.565   1.343
 3177W        W75503   6.233  19.173   2.186
 3178W        W75504  34.998  31.998   3.223
 3179W        W75505  40.962  26.583   3.683
 3180W        W75506   5.275  13.701   2.732
 3181W        W75507   2.436   0.921  10.572
 3182W        W75508  21.517  17.738   2.888
 3183W        W75509  20.593   5.366  13.513
 3184W        W75510  43.907  33.911  12.551
 3185W        W75511  31.642  37.386   1.835
 3186W        W75512  24.221  41.011  11.063
 3187W        W75513  18.216  12.829  12.452
 3188W        W75514   5.842  27.942  13.951
 3189W        W75515  21.202   6.361   2.359
 3190W        W75516  12.670  35.598  12.525
 3191W        W75517   7.359  20.763   3.169
 3192W        W75518  15.323  21.112  11.048
 3193W        W75519  20.724  23.081   1.898
 3194W        W75520  41.951  16.567  14.031
 3195W        W75521  37.971  37.080  10.966
 3196W        W75522  20.747  37.909   2.886
 3197W        W75523  38.058  14.589   2.762
 3198W        W75524   0.812  15.274   0.368
 3199W        W75525  22.723  40.334   4.627
 3200W        W75526  15.134  33.902   2.799
 3201W        W75527  41.454  14.325   5.194
 3202W        W75528  44.924  16.194  11.025
 3203W        W75529  25.172  39.356   9.674
 3204W        W75530  21.232  14.119   2.282
 3205W        W75531  29.047  26.667  11.481
 3206W        W75532   3.809   3.377   5.112
 3207W        W75533  23.194  32.965   1.724
 3208W        W75534  39.420  12.208   5.589
 3209W        W75535   8.840  32.888  10.987
 3210W        W75536  15.248  12.120  14.844
 3211W        W75537  15.617  43.917   1.707
 3212W        W75538   6.848  19.109   3.222
 3213W        W75539  40.947   1.301  10.510
 3214W        W75540  39.341  31.638  10.497
 3215W        W75541  34.424  10.731  10.437
 3216W        W75542  27.995   0.858  12.380
 3217W        W75543  10.287  23.139   2.794
 3218W        W75544   5.323  24.045   2.804
 3219W        W75545  35.079  22.747  12.039
 3220W        W75546  15.697  10.138  11.889
 3221W        W75547  13.719  13.159  14.334
 3222W        W75548  41.436  42.464   4.161
 3223W        W75549  29.484  27.464  10.451
 3224W        W75550  39.504  41.813  11.081
 3225W        W75551  44.846   6.696   1.247
 3226W        W75552  20.191  36.060   0.368
 3227W        W75553  34.885  31.535  13.395
 3228W        W75554  15.262  41.362  14.398
 3229W        W75555  18.135  27.606  14.913
 3230W        W75556  27.550  25.708   9.996
 3231W        W75557   9.836  29.640  13.885
 3232W        W75558  17.613  29.961  11.911
 3233W        W75559  36.029  42.420  13.975
 3234W        W75560  30.590   6.232  12.994
 3235W        W75561  17.128  20.177  10.967
 3236W        W75562  41.808  33.983  14.410
 3237W        W75563  20.087  24.203  14.896
 3238W        W75564  15.602  36.065  13.499
 3239W        W75565  31.508  12.292   2.277
 3240W        W75566  24.061   2.743   3.344
 3241W        W75567   2.965  10.370   2.349
 3242W        W75568  42.369  15.586   9.921
 3243W        W75569  42.786  43.975  10.944
 3244W        W75570  19.121  13.673  14.896
 3245W        W75571  10.726   3.944   0.739
 3246W        W75572   9.699  37.005  11.071
 3247W        W75573   3.214  19.707   3.777
 3248W        W75574   8.250  42.988  14.828
 3249W        W75575  14.139  28.014   1.828
 3250W        W75576  44.432  19.176   1.719
 3251W        W75577   0.764  42.399  13.059
 3252W        W75578  42.429  20.552   4.679
 3253W        W75579  30.081  39.452  13.925
 3254W        W75580  20.746  44.818  13.951
 3255W        W75581  38.911  10.818   5.746
 3256W        W75582  40.399  31.471  10.919
 3257W        W75583   5.197  41.039   3.730
 3258W        W75584  35.050  26.647  10.567
 3259W        W75585   0.886   7.365   3.386
 3260W        W75586  30.534  42.338   4.141
 3261W        W75587  13.796   4.268  14.851
 3262W        W75588   7.699  32.928   4.717
 3263W        W75589   0.396  39.958   4.719
 3264W        W75590   3.795  37.467  12.514
 3265W        W75591  26.671  35.083  13.455
 3266W        W75592  32.591  20.548   3.318
 3267W        W75593  25.573  28.014  14.325
 3268W        W75594   1.454  33.595  13.532
 3269W        W75595  22.638   8.799   1.707
 3270W        W75596  16.637   9.721   4.654
 3271W        W75597  16.587  34.105  11.521
 3272W        W75598  28.456  17.251  13.539
 3273W        W75599  34.398  32.535   1.402
 3274W        W75600  13.762  19.127   0.321
 3275W        W75601  40.872   3.871  13.026
 3276W        W75602   1.466   6.685   2.699
 3277W        W75603  44.258   8.687   2.332
 3278W        W75604  31.105   0.482  10.538
 3279W        W75605   0.955  24.555  11.097
 3280W        W75606  20.572  24.568  12.952
 3281W        W75607  30.525   5.799  13.374
 3282W        W75608  30.026  41.410  10.928
 3283W        W75609  30.450   2.757   4.259
 3284W        W75610  30.634  28.064  14.376
 3285W        W75611  18.702  13.237  13.483
 3286W        W75612  36.896   8.691  14.516
 3287W        W75613   9.207  40.871  13.933
 3288W        W75614  40.851  26.531  14.923
 3289W        W75615  31.414  27.577   4.280
 3290W        W75616   8.365  43.972   3.696
 3291W        W75617   2.230  24.687   4.736
 3292W        W75618  35.513   3.936   1.839
 3293W        W75619  17.089  35.533   0.330
 3294W        W75620  11.687  31.602   1.784
 3295W        W75621  10.180  13.642   1.390
 3296W        W75622  35.505  14.125  10.469
 3297W        W75623  26.068  36.402   2.298
 3298W        W75624  44.876  35.439   3.832
 3299W        W75625  13.314  42.939   3.813
 3300W        W75626  28.095  22.616   0.738
 3301W        W75627  10.737  27.449   1.931
 3302W        W75628  10.295  21.701   1.214
 3303W        W75629  37.976  37.398   5.225
 3304W        W75630  36.492   8.665   9.954
 3305W        W75631   5.908  39.968   2.415
 3306W        W75632  34.542  16.662   3.183
 3307W        W75633   2.851  44.470  14.476
 3308W        W75634  26.569  44.291  11.994
 3309W        W75635  42.307  26.475   0.248
 3310W        W75636  21.518  18.081  14.954
 3311W        W75637   8.228  31.022  11.430
 3312W        W75638  44.880  33.102   3.274
 3313W        W75639  23.561  39.873  13.423
 3314W        W75640  28.128  30.421  13.974
 3315W        W75641  41.795  19.103  10.581
 3316W        W75642   0.388  11.789  11.953
 3317W        W75643   7.213  14.261  12.062
 3318W        W75644  20.656  35.406   2.312
 3319W        W75645   7.210  20.626  11.402
 3320W        W75646  11.801  21.607  12.472
 3321W        W75647  22.193  10.348  12.345
 3322W        W75648  31.136   3.273  14.881
 3323W        W75649   2.336   9.880   1.315
 3324W        W75650  42.308  24.023   0.272
 3325W        W75651  38.332  17.289   2.252
 3326W        W75652   7.849  27.554   4.247
 3327W        W75653  30.005  16.606   2.768
 3328W        W75654  11.152  23.045  12.404
 3329W        W75655  42.926  17.087  10.973
 3330W        W75656  26.583   2.736  13.805
 3331W        W75657  41.809  33.987  12.924
 3332W        W75658  24.602  29.163   2.237
 3333W        W75659  12.223  35.500  14.406
 3334W        W75660  43.996  40.884  12.410
 3335W        W75661  21.153  12.135   3.845
 3336W        W75662  22.178  30.438  11.944
 3337W        W75663   0.410  15.239  11.516
 3338W        W75664  38.495  18.748   2.223
 3339W        W75665  35.406   7.299  12.070
 3340W        W75666  41.348   7.324   4.730
 3341W        W75667  21.639  18.182   2.696
 3342W        W75668   3.889  41.796   2.765
 3343W        W75669  28.579   7.226  13.944
 3344W        W75670  27.466   8.656   1.740
 3345W        W75671   0.831  32.440  12.976
 3346W        W75672  15.664   2.279   2.894
 3347W        W75673  17.270  43.947  12.051
 3348W        W75674  16.709  40.996  10.627
 3349W        W75675  18.247  22.675   1.712
 3350W        W75676  11.654  37.428  12.509
 3351W        W75677  38.957  14.340   1.401
 3352W        W75678  34.401  36.908   0.456
 3353W        W75679  30.413   2.299  13.423
 3354W        W75680   1.446  36.985   3.736
 3355W        W75681  11.672   5.708   3.817
 3356W        W75682  22.681  35.385  14.851
 3357W        W75683  17.734  16.625  11.110
 3358W        W75684  42.855  21.058  12.501
 3359W        W75685  37.459  30.118   4.248
 3360W        W75686  38.985  26.172   0.822
 3361W        W75687  35.983  35.867  13.529
 3362W        W75688   2.388  30.111  14.870
 3363W        W75689  11.234  26.020   2.416
 3364W        W75690  37.548  37.005  13.046
 3365W        W75691   5.246  21.581   3.172
 3366W        W75692  27.484   6.195  13.535
 3367W        W75693   4.364   1.932   5.180
 3368W        W75694  17.283  29.432   0.735
 3369W        W75695  21.691   8.799   2.664
 3370W        W75696   1.403  27.597   0.768
 3371W        W75697  11.251  21.719  10.526
 3372W        W75698   1.875  16.284   4.179
 3373W        W75699  38.492  16.624   2.800
 3374W        W75700  20.548   9.741  10.923
 3375W        W75701  44.465   9.221  12.556
 3376W        W75702  43.405   4.818  14.322
 3377W        W75703  33.574  21.703   1.421
 3378W        W75704  10.701  29.560   3.209
 3379W        W75705  11.814  20.207  11.414
 3380W        W75706  31.610  29.072  13.009
 3381W        W75707   8.749  21.123   4.612
 3382W        W75708  32.085   8.200   0.837
 3383W        W75709  44.371  29.056  14.800
 3384W        W75710  10.237  15.292   1.240
 3385W        W75711  12.837   4.450   2.765
 3386W        W75712  22.087  31.040   0.760
 3387W        W75713  42.419  24.209   4.124
 3388W        W75714  30.918  20.071   4.713
 3389W        W75715  26.959   5.735  14.368
 3390W        W75716  28.519  11.193   0.341
 3391W        W75717   6.400  44.280   3.706
 3392W        W75718   8.839  15.686   4.158
 3393W        W75719   8.377   5.270   3.732
 3394W        W75720   7.718  42.366   3.775
 3395W        W75721  40.500   3.295  14.324
 3396W        W75722  35.471  22.717   1.899
 3397W        W75723  34.053  16.229  11.110
 3398W        W75724  10.802   3.748   3.791
 3399W        W75725  35.065   5.317   0.443
 3400W        W75726  19.135  15.093   2.826
 3401W        W75727  17.722  43.382  13.812
 3402W        W75728  32.053  11.223  10.453
 3403W        W75729  19.641  10.864   2.710
 3404W        W75730  44.833   1.323  12.430
 3405W        W75731  18.171   5.284  12.926
 3406W        W75732   7.718  11.694   3.243
 3407W        W75733  15.117  42.817   1.380
 3408W        W75734  35.417   9.175  13.842
 3409W        W75735  38.359   8.730   3.735
 3410W        W75736   2.810  32.994  14.995
 3411W        W75737  32.001  20.130  12.422
 3412W        W75738  29.585  36.527   2.306
 3413W        W75739   6.892  32.574  13.847
 3414W        W75740   7.826   0.963   4.178
 3415W        W75741  43.327  27.128  14.974
 3416W        W75742  15.225  23.185   3.758
 3417W        W75743   6.343  42.026  13.387
 3418W        W75744   1.260  34.948  14.789
 3419W        W75745  13.249  32.541  14.496
 3420W        W75746  38.966  11.145   2.397
 3421W        W75747  15.204  18.225  10.468
 3422W        W75748  34.953   0.316   0.921
 3423W        W75749  36.932  41.868   0.788
 3424W        W75750  34.982  39.407   3.757
 3425W        W75751  16.085   2.848  11.097
 3426W        W75752  39.495   6.921   0.730
 3427W        W75753  21.617  15.738  12.039
 3428W        W75754  38.891  30.058  12.501
 3429W        W75755  11.625  42.988   1.931
 3430W        W75756  18.682  33.019  10.986
 3431W        W75757  12.610  15.783   1.448
 3432W        W75758  33.966  31.606  10.564
 3433W        W75759   7.828  18.638   0.394
 3434W        W75760  22.665  16.707   3.236
 3435W        W75761  43.472  12.349  14.877
 3436W        W75762  37.034  13.155   1.891
 3437W        W75763   0.857  25.151   0.846
 3438W        W75764   1.743  44.389  14.512
 3439W        W75765  12.265  13.684   4.273
 3440W        W75766   0.918  13.840  11.530
 3441W        W75767  43.970   8.405  14.302
 3442W        W75768   3.360  13.112  13.510
 3443W        W75769  40.406  25.165   4.611
 3444W        W75770  40.389   3.937   0.453
 3445W        W75771  15.669   9.267   4.167
 3446W        W75772   3.229  23.708  12.868
 3447W        W75773  19.751  23.090  11.013
 3448W        W75774  29.638  13.667  12.996
 3449W        W75775  25.158  18.162   3.216
 3450W        W75776  20.706  16.793  11.036
 3451W        W75777  31.575  31.572   0.829
 3452W        W75778  37.510  36.356   5.283
 3453W        W75779  16.611  43.994   0.265
 3454W        W75780  33.988  26.951   4.728
 3455W        W75781   3.299   4.860   0.398
 3456W        W75782  39.026  12.783   4.275
 3457W        W75783  12.638   1.397   0.469
 3458W        W75784  37.542   4.399   2.839
 3459W        W75785  21.676  23.002   3.265
 3460W        W75786  43.467  10.790  10.607
 3461W        W75787  29.485  12.832   1.784
 3462W        W75788   2.258  20.119  13.870
 3463W        W75789   3.709  22.200   2.381
 3464W        W75790   6.899   0.456   0.373
 3465W        W75791  44.464  20.663  10.903
 3466W        W75792   3.790   8.394  12.078
 3467W        W75793   0.912  27.469  14.974
 3468W        W75794  36.482  19.599  13.837
 3469W        W75795  30.977  15.280   1.319
 3470W        W75796  44.500  19.060  11.384
 3471W        W75797  42.993  25.480   5.236
 3472W        W75798  36.021  40.851   3.320
 3473W        W75799  44.788  31.555   4.797
 3474W        W75800  41.966   6.869  13.019
 3475W        W75801  23.105  38.343   3.236
 3476W        W75802   9.154  32.581  14.855
 3477W        W75803   4.366  13.625  13.539
 3478W        W75804  35.559  15.271  14.492
 3479W        W75805  21.124   8.197   1.241
 3480W        W75806  39.869  14.806  11.936
 3481W        W75807  30.092  30.451  10.894
 3482W        W75808   3.325  19.152   0.750
 3483W        W75809  27.092   4.305  14.455
 3484W        W75810  17.597  31.545  14.836
 3485W        W75811  25.064  30.574   2.320
 3486W        W75812  18.754  41.479  10.540
 3487W        W75813  42.792  25.505   2.206
 3488W        W75814  15.700  44.814  11.518
 3489W        W75815  40.389  40.920   0.750
 3490W        W75816  37.915  18.658   2.302
 3491W        W75817  32.059  42.441   4.619
 3492W        W75818  10.854  41.801   0.361
 3493W        W75819   9.802  11.286   4.185
 3494W        W75820  12.280  20.763  13.331
 3495W        W75821  33.431  16.312  13.872
 3496W        W75822  38.488  15.100   2.414
 3497W        W75823  18.581  39.320   0.444
 3498W        W75824  36.020   1.916  11.102
 3499W        W75825  20.151  21.701  13.527
 3500W        W75826  18.704  41.947   2.734
 3501W        W75827  18.065   7.832  12.453
 3502W        W75828  25.090  43.345  13.845
 3503W        W75829  42.484  44.274   0.950
 3504W        W75830   5.696   1.895  13.984
 3505W        W75831  11.757  31.139  11.428
 3506W        W75832  37.410  39.811  10.009
 3507W        W75833  18.757   4.325   2.703
 3508W        W75834   6.212  11.675   1.297
 3509W        W75835  31.460  14.095   4.637
 3510W        W75836  34.986  19.763   0.449
 3511W        W75837   1.920   3.422   0.752
 3512W        W75838  40.305   9.277   3.353
 3513W        W75839  29.984   2.358   0.896
 3514W        W75840  15.169  35.024  14.979
 3515W        W75841  26.616  36.450  13.499
 3516W        W75842  11.314  34.922  13.807
 3517W        W75843  35.997  11.845   4.259
 3518W        W75844  29.046   9.331  11.399
 3519W        W75845  31.483   2.964  14.984
 3520W        W75846  22.576  39.475  10.005
 3521W        W75847  28.937  20.659  12.511
 3522W        W75848  10.652  39.844  12.428
 3523W        W75849  34.373  20.191   0.945
 3524W        W75850  23.080  28.123   4.143
 3525W        W75851  16.114  35.075   1.821
 3526W        W75852  40.021  31.968  11.413
 3527W        W75853  42.849  19.545   3.737
 3528W        W75854  24.009  30.658   4.770
 3529W        W75855  21.091   5.292   2.782
 3530W        W75856  41.799  35.944  10.016
 3531W        W75857  16.607  35.051  14.511
 3532W        W75858  26.654  32.964   1.764
 3533W        W75859   6.687   1.956  10.964
 3534W        W75860  25.009  19.654  14.912
 3535W        W75861  17.116  22.156  13.516
 3536W        W75862  29.572   7.336   3.684
 3537W        W75863   3.941   4.276  14.477
 3538W        W75864  43.366  38.906   4.339
 3539W        W75865  21.153  12.153  12.067
 3540W        W75866  33.414  20.205   4.731
 3541W        W75867  39.550  29.926  11.119
 3542W        W75868   9.265  12.181  12.942
 3543W        W75869  36.354  43.293   4.805
 3544W        W75870  28.530   2.727   2.278
 3545W        W75871  11.651  19.559  14.450
 3546W        W75872  19.219  42.457  13.817
 3547W        W75873  15.693  11.676   2.376
 3548W        W75874  14.616  37.929   1.244
 3549W        W75875  40.925  26.613  14.489
 3550W        W75876  42.475   2.913  14.470
 3551W        W75877  36.962  42.027  13.367
 3552W        W75878  19.588   7.755   4.822
 3553W        W75879  37.917  23.034   3.283
 3554W        W75880  24.048  14.736   9.660
 3555W        W75881  26.959  13.611   1.302
 3556W        W75882   2.426  42.366  11.550
 3557W        W75883  22.237  41.969   3.267
 3558W        W75884  38.445  35.438  13.919
 3559W        W75885   0.775  31.068  11.925
 3560W        W75886  38.938  27.061   2.819
 3561W        W75887  38.076  14.119   5.296
 3562W        W75888  34.013  41.797   1.726
 3563W        W75889   8.856   7.281   3.177
 3564W        W75890  41.529   5.308  14.809
 3565W        W75891  11.690   2.442   5.315
 3566W        W75892  29.488  32.591  11.521
 3567W        W75893   8.305  39.343  10.541
 3568W        W75894  14.705   6.748  11.965
 3569W        W75895  44.278  43.001   4.115
 3570W        W75896   8.816   6.881   0.260
 3571W        W75897  11.857  43.447   1.871
 3572W        W75898  37.563  31.121   2.739
 3573W        W75899   1.837  42.478   2.687
 3574W        W75900  23.140  18.200   0.473
 3575W        W75901  18.559  29.471   1.746
 3576W        W75902  35.497  14.724   1.388
 3577W        W75903  11.137  17.153   0.939
 3578W        W75904  17.124   6.404  14.799
 3579W        W75905  39.886  32.028   2.697
 3580W        W75906  43.494  17.610   0.797
 3581W        W75907   2.891  10.867   4.166
 3582W        W75908  21.703  29.507  13.928
 3583W        W75909  21.736   6.919  14.803
 3584W        W75910  34.975  14.154   1.901
 3585W        W75911  29.057  19.533  14.795
 3586W        W75912  28.626  38.055   3.726
 3587W        W75913  41.335  18.078   2.763
 3588W        W75914  36.088  44.937  13.820
 3589W        W75915  39.335   5.838  11.508
 3590W        W75916   3.777  12.200   4.164
 3591W        W75917  37.377  23.549   0.349
 3592W        W75918  35.392  29.656  13.064
 3593W        W75919  16.214  33.959   2.828
 3594W        W75920  20.100  25.990   4.824
 3595W        W75921  19.177  28.095   1.802
 3596W        W75922  24.507   1.414   4.660
 3597W        W75923  14.264  27.956   2.320
 3598W        W75924  25.682  38.367  14.925
 3599W        W75925   8.821  25.016  11.470
 3600W        W75926  24.491  33.053   3.673
 3601W        W75927  23.034  42.922  11.886
 3602W        W75928  34.973  32.598  11.127
 3603W        W75929  44.307  39.538   2.388
 3604W        W75930   4.388  14.789  12.348
 3605W        W75931  34.056  19.109   2.662
 3606W        W75932  11.637   8.805   0.962
 3607W        W75933  17.163  19.149  10.897
 3608W        W75934  38.891  16.082  14.322
 3609W        W75935  24.073   3.249   1.726
 3610W        W75936   1.968   6.905  11.966
 3611W        W75937  32.615   2.380   4.283
 3612W        W75938  16.072  42.333  12.851
 3613W        W75939  17.139   2.296   1.792
 3614W        W75940   5.433   1.862  14.937
 3615W        W75941  39.845  40.373  12.543
 3616W        W75942  14.304  18.783  13.381
 3617W        W75943  39.986  34.881  12.966
 3618W        W75944  21.674  13.257   4.183
 3619W        W75945   1.785  27.488   3.347
 3620W        W75946   1.923  16.286  10.977
 3621W        W75947  32.621  18.580  12.380
 3622W        W75948  44.979  22.029   1.434
 3623W        W75949  41.873   1.240  11.097
 3624W        W75950  34.971  17.238   3.725
 3625W        W75951  36.382  27.137  12.510
 3626W        W75952  44.818  15.276   0.843
 3627W        W75953  35.923  11.182  11.450
 3628W        W75954  37.376  28.022  10.981
 3629W        W75955  26.151  39.040   1.778
 3630W        W75956  42.913  31.973   2.802
 3631W        W75957  38.069  40.538  11.547
 3632W        W75958  22.104  13.773  13.996
 3633W        W75959  38.465  35.882  13.951
 3634W        W75960  27.076  18.224   0.814
 3635W        W75961  44.331   9.684   3.307
 3636W        W75962  13.235  34.555  11.523
 3637W        W75963  15.629  31.550   1.408
 3638W        W75964  14.804  33.875  14.948
 3639W        W75965  12.191  39.459  12.906
 3640W        W75966  43.324  25.090  13.426
 3641W        W75967  43.962   5.920  10.473
 3642W        W75968  30.058  38.840  11.534
 3643W        W75969   3.340   7.366  12.061
 3644W        W75970  30.444  27.539   4.335
 3645W        W75971  38.989   7.314   3.148
 3646W        W75972  11.770  27.481  12.958
 3647W        W75973  25.627  15.256  12.428
 3648W        W75974  40.539  13.824   0.767
 3649W        W75975  42.346   4.286   4.137
 3650W        W75976  21.169   9.176  14.464
 3651W        W75977   8.802  38.030  14.361
 3652W        W75978   8.229  44.335   2.239
 3653W        W75979  10.254  42.960   3.170
 3654W        W75980  18.732   7.410   3.781
 3655W        W75981  39.891  42.873   1.729
 3656W        W75982  33.919  15.142  14.794
 3657W        W75983  14.116  25.204  13.983
 3658W        W75984  37.872  38.826  11.410
 3659W        W75985  43.467  19.256   2.347
 3660W        W75986  31.966  17.567   4.708
 3661W        W75987  10.211  33.999   3.685
 3662W        W75988  14.113  22.517   3.353
 3663W        W75989  11.650  42.810   4.315
 3664W        W75990  13.827   9.273   2.341
 3665W        W75991  31.132  13.291   2.713
 3666W        W75992  24.983  12.811   0.480
 3667W        W75993  30.062  42.920  12.368
 3668W        W75994  31.438   9.252  12.538
 3669W        W75995   6.226   0.369  13.410
 3670W        W75996  26.198  38.513  10.551
 3671W        W75997  19.613  27.968  13.051
 3672W        W75998   4.899  11.276   2.340
 3673W        W75999  42.811  12.631   3.662
 3674W        W76000  30.603  20.211   0.818
 3675W        W76001  21.519  35.401  13.423
 3676W        W76002   1.943   7.882   1.302
 3677W        W76003   4.855  40.383  12.834
 3678W        W76004  11.755   2.443   2.770
 3679W        W76005  13.810  22.670  11.065
 3680W        W76006  27.469  37.985   0.901
 3681W        W76007  16.225  15.112   2.865
 3682W        W76008   6.318  37.523   3.641
 3683W        W76009  36.457  44.983   4.169
 3684W        W76010   7.853  14.787  14.760
 3685W        W76011  41.438  14.300   2.252
 3686W        W76012  11.633  43.330   4.300
 3687W        W76013  35.507   3.871  14.406
 3688W        W76014  16.743   6.211  11.995
 3689W        W76015   7.364   0.966  10.948
 3690W        W76016   5.381  17.240  10.416
 3691W        W76017  37.515  37.845   4.828
 3692W        W76018  42.811  25.619   1.756
 3693W        W76019   8.271  33.026   1.883
 3694W        W76020   4.892  18.565   5.294
 3695W        W76021   5.366  23.012   4.805
 3696W        W76022  35.989  37.852   4.120
 3697W        W76023  32.553  23.489   2.283
 3698W        W76024  34.599  22.229   0.408
 3699W        W76025   6.835   8.278  11.393
 3700W        W76026  23.529  14.257   0.248
 3701W        W76027  30.063  22.563   1.222
 3702W        W76028  14.299  39.475   0.396
 3703W        W76029  43.418  41.299  10.467
 3704W        W76030   0.819   5.344  14.371
 3705W        W76031  13.791  37.504  12.475
 3706W        W76032  12.230   3.815   2.233
 3707W        W76033   7.391  10.639   4.799
 3708W        W76034  14.815  11.656  11.428
 3709W        W76035  32.964   9.728  14.929
 3710W        W76036  34.600  21.552  12.440
 3711W        W76037  26.488   2.873  12.499
 3712W        W76038  23.644  17.186   0.840
 3713W        W76039  15.760  18.722  14.512
 3714W        W76040  28.440   5.245   2.252
 3715W        W76041  32.419  44.473   1.283
 3716W        W76042  44.367  34.934  10.410
 3717W        W76043   5.872  18.651   4.683
 3718W        W76044  22.238  29.125  12.416
 3719W        W76045  17.711   1.365  11.512
 3720W        W76046  43.842   0.362  14.512
 3721W        W76047  10.638  29.463   3.756
 3722W        W76048  19.093  42.299  10.453
 3723W        W76049  28.938  14.816  11.542
 3724W        W76050  31.628  44.810   3.824
 3725W        W76051  43.277  23.612  13.826
 3726W        W76052  31.562  38.391   3.306
 3727W        W76053  19.090  41.910   4.621
 3728W        W76054   1.309  32.466   2.403
 3729W        W76055  20.626  23.036  10.503
 3730W        W76056  22.537  41.880   3.788
 3731W        W76057  12.127  39.045  14.767
 3732W        W76058  19.072   5.269  12.832
 3733W        W76059  19.165  27.488   0.421
 3734W        W76060  14.629   7.859   3.733
 3735W        W76061  34.374  38.040  11.066
 3736W        W76062  40.437  13.293   3.721
 3737W        W76063  12.637  17.559   1.375
 3738W        W76064  11.786  10.683   1.212
 3739W        W76065  25.991  29.158  11.473
 3740W        W76066   5.884  20.238  14.918
 3741W        W76067  37.859  37.953   1.817
 3742W        W76068   5.233  31.140   2.188
 3743W        W76069  15.694  37.875   0.956
 3744W        W76070  43.002   7.257  10.978
 3745W        W76071  38.046  14.280  14.991
 3746W        W76072  20.101   5.803  12.988
 3747W        W76073  17.131  10.767   4.150
 3748W        W76074  15.211  25.491   4.218
 3749W        W76075   4.703  41.393   4.803
 3750W        W76076  43.478  17.578  12.942
 3751W        W76077   8.895   9.828   4.300
 3752W        W76078  23.068   7.809   4.747
 3753W        W76079  15.202  10.321   4.795
 3754W        W76080   8.364  43.870   1.333
 3755W        W76081   2.882   5.308   2.740
 3756W        W76082  43.270  35.916   4.299
 3757W        W76083  27.018  23.642  14.327
 3758W        W76084  41.964  38.394  11.577
 3759W        W76085  14.698  26.572   5.316
 3760W        W76086  31.053  27.008   1.905
 3761W        W76087   1.440  29.137   0.805
 3762W        W76088  22.018  14.790  14.387
 3763W        W76089  27.631  29.667   3.228
 3764W        W76090  15.270   5.390   1.235
 3765W        W76091   4.744  29.011  13.534
 3766W        W76092   6.400   3.356   5.321
 3767W        W76093  39.910   9.298  13.328
 3768W        W76094  30.924  39.938  13.436
 3769W        W76095   0.838  22.647   1.251
 3770W        W76096   5.750  19.747  13.415
 3771W        W76097  34.596  42.935   2.666
 3772W        W76098  21.553  39.964  10.052
 3773W        W76099  31.514  39.551   1.304
 3774W        W76100  42.825  39.463  12.979
 3775W        W76101  17.119  16.568   0.849
 3776W        W76102  36.372   0.890   5.177
 3777W        W76103  28.016  43.486   1.917
 3778W        W76104  13.845  11.813  10.495
 3779W        W76105  41.431   4.269  11.611
 3780W        W76106  25.062  13.750   4.713
 3781W        W76107  10.751  30.103   1.750
 3782W        W76108  12.267  26.062   1.888
 3783W        W76109  16.294  28.992   0.462
 3784W        W76110  40.535  20.550   2.726
 3785W        W76111   2.860  25.151   2.710
 3786W        W76112  23.542  20.095   0.270
 3787W        W76113  34.560  27.468   4.765
 3788W        W76114  27.033  20.131  10.468
 3789W        W76115  39.902  22.039  13.430
 3790W        W76116  33.592   4.327  12.349
 3791W        W76117  36.031  39.536   2.750
 3792W        W76118   5.745  25.165  12.998
 3793W        W76119  12.850  28.561  10.480
 3794W        W76120  12.741  11.738  14.279
 3795W        W76121  44.797  21.237  10.898
 3796W        W76122  25.013  20.062  10.926
 3797W        W76123  23.180  40.417  12.475
 3798W        W76124  28.534  35.420   1.851
 3799W        W76125  37.352   8.308  13.852
 3800W        W76126  33.488   3.437   2.389
 3801W        W76127  34.439   4.260   1.318
 3802W        W76128   0.970  32.921   2.738
 3803W        W76129  19.180  34.911   4.172
 3804W        W76130  44.322  17.249  13.995
 3805W        W76131  38.428  23.489   4.181
 3806W        W76132  28.099  17.689  10.489
 3807W        W76133  24.712  17.577   2.874
 3808W        W76134  11.150   9.305   4.144
 3809W        W76135  13.605   4.332   2.202
 3810W        W76136  28.584  32.988  10.443
 3811W        W76137  14.702  26.110   0.762
 3812W        W76138   2.800  16.303   0.391
 3813W        W76139  19.089   6.213  12.442
 3814W        W76140  36.423  27.999  13.823
 3815W        W76141  40.370  32.531  13.509
 3816W        W76142   6.871  20.685   2.304
 3817W        W76143  30.970   6.223   1.733
 3818W        W76144  31.481  34.466  10.599
 3819W        W76145  36.589  40.391  11.975
 3820W        W76146  12.750  20.704  10.449
 3821W        W76147   4.304  14.679   1.393
 3822W        W76148  17.616  32.934   3.352
 3823W        W76149   5.430  11.804  13.985
 3824W        W76150  36.861  22.197   2.854
 3825W        W76151  23.215  33.502  13.806
 3826W        W76152  39.492   0.779   2.319
 3827W        W76153  40.403  15.632   2.796
 3828W        W76154  33.491  36.563  10.946
 3829W        W76155  16.119   6.414   0.372
 3830W        W76156   0.945  39.863   0.769
 3831W        W76157  11.832  11.177  10.629
 3832W        W76158  32.992   5.343   0.951
 3833W        W76159  14.201  32.630  14.989
 3834W        W76160  17.611  36.854   2.388
 3835W        W76161  24.580   6.871   2.729
 3836W        W76162  28.666  16.186   4.801
 3837W        W76163  20.272  41.986   0.824
 3838W        W76164  26.203  23.604  13.826
 3839W        W76165  19.285  35.358   1.410
 3840W        W76166   8.835   4.912   3.788
 3841W        W76167   7.306  28.006   2.310
 3842W        W76168  39.467  30.013  11.599
 3843W        W76169  38.550  36.887   1.404
 3844W        W76170  13.747  43.858   1.883
 3845W        W76171  35.064  22.715  13.053
 3846W        W76172  36.492  16.677  13.940
 3847W        W76173  25.124  11.773  13.438
 3848W        W76174  11.804  23.545  11.103
 3849W        W76175  16.114  10.157   2.214
 3850W        W76176   3.810   6.358  13.424
 3851W        W76177   7.294  37.438   0.259
 3852W        W76178  38.367  24.536   3.279
 3853W        W76179  23.209   9.382   3.754
 3854W        W76180  29.480   4.376   1.786
 3855W        W76181  11.165  33.927   3.241
 3856W        W76182   1.874  21.569  13.814
 3857W        W76183  12.194   6.721   3.731
 3858W        W76184   0.395  31.515  13.986
 3859W        W76185  21.716   9.374   2.405
 3860W        W76186  40.321  43.989  12.517
 3861W        W76187  11.264  32.575   4.791
 3862W        W76188   0.853  19.098   4.234
 3863W        W76189  28.165   1.851   1.866
 3864W        W76190  22.648  28.605  14.023
 3865W        W76191  15.784   5.211  13.325
 3866W        W76192  27.125  33.412   2.697
 3867W        W76193  25.130  11.623   0.413
 3868W        W76194  44.280  16.732  14.904
 3869W        W76195  38.454  17.189   4.744
 3870W        W76196  24.530  42.356   2.793
 3871W        W76197  18.168  16.734  13.805
 3872W        W76198  34.561  10.309  13.925
 3873W        W76199  39.005   0.431  14.875
 3874W        W76200  10.377  31.932  10.574
 3875W        W76201  31.004  21.668   0.953
 3876W        W76202   2.810  14.598  11.386
 3877W        W76203  28.453   7.207  11.572
 3878W        W76204  43.962  42.520  13.801
 3879W        W76205  16.220   6.336  12.357
 3880W        W76206  27.957  11.707  10.406
 3881W        W76207  41.333  40.949   4.817
 3882W        W76208  23.564  39.424  11.856
 3883W        W76209  41.438  30.073   1.298
 3884W        W76210  35.986  22.555   2.224
 3885W        W76211  42.874  43.013   4.313
 3886W        W76212  21.205  16.804  13.064
 3887W        W76213  30.966  15.114   4.706
 3888W        W76214  39.549  13.309   3.694
 3889W        W76215  25.087  11.682  10.899
 3890W        W76216   8.813  18.098   3.220
 3891W        W76217  42.782  15.196  13.834
 3892W        W76218  23.107  28.996  12.069
 3893W        W76219   4.339  20.659  12.521
 3894W        W76220  25.057  20.197  13.027
 3895W        W76221  31.999  37.007   0.854
 3896W        W76222  37.514  33.912  11.083
 3897W        W76223  38.516  11.737  11.043
 3898W        W76224  38.388  42.959  11.072
 3899W        W76225  40.053  41.036  11.551
 3900W        W76226  27.510  12.741  11.863
 3901W        W76227   7.373  21.536  14.800
 3902W        W76228   4.401  30.527   3.146
 3903W        W76229  11.642  31.992   0.889
 3904W        W76230  22.248   6.255  14.885
 3905W        W76231  43.417   4.303   3.720
 3906W        W76232  37.340   3.931   1.853
 3907W        W76233  23.734  31.908  10.579
 3908W        W76234  16.231   3.315  14.791
 3909W        W76235  44.850   1.894  13.898
 3910W        W76236   8.321  19.753   3.334
 3911W        W76237   0.335   9.657  12.869
 3912W        W76238  39.489  40.459  10.070
 3913W        W76239  33.901  26.647   2.345
 3914W        W76240  17.154  27.519   4.740
 3915W        W76241   2.743  30.975  13.365
 3916W        W76242  13.198  29.529  14.979
 3917W        W76243  27.985  23.100  12.064
 3918W        W76244  23.146  11.210  11.907
 3919W        W76245  19.228  13.139   2.682
 3920W        W76246   8.869   1.782  13.321
 3921W        W76247  41.831  17.136  11.431
 3922W        W76248  15.661  35.924  10.089
 3923W        W76249  31.482   1.770  13.038
 3924W        W76250   5.212  15.624   3.705
 3925W        W76251  28.462  20.614   1.218
 3926W        W76252   4.823  24.019   5.170
 3927W        W76253  42.460  29.459   2.795
 3928W        W76254   2.326  30.938   4.320
 3929W        W76255  19.718  43.399   1.700
 3930W        W76256  29.966  33.513   4.288
 3931W        W76257  12.665  29.464  14.001
 3932W        W76258   6.371  40.323   0.921
 3933W        W76259   1.289   7.689  13.954
 3934W        W76260   2.454   5.349  10.481
 3935W        W76261   6.417  13.741   0.945
 3936W        W76262  35.518  26.483   1.836
 3937W        W76263   3.375  33.520   3.296
 3938W        W76264  26.512  11.845  10.567
 3939W        W76265  43.769  42.918  11.460
 3940W        W76266  26.011   9.776  10.496
 3941W        W76267  15.740  29.566   0.874
 3942W        W76268  43.492   4.237  14.355
 3943W        W76269  10.856  17.064  14.776
 3944W        W76270  37.000  27.484   3.334
 3945W        W76271   5.848  18.210   3.820
 3946W        W76272  43.446  20.216  12.355
 3947W        W76273  38.994  10.850   3.867
 3948W        W76274  29.491  27.591   0.332
 3949W        W76275  26.646  17.799  14.767
 3950W        W76276  23.986  19.713   1.425
 3951W        W76277  28.170  36.098  11.929
 3952W        W76278  13.107   9.291  13.847
 3953W        W76279  20.150  37.938  13.888
 3954W        W76280   9.741  38.894   4.172
 3955W        W76281   0.372  10.662  12.407
 3956W        W76282  39.848  32.024  13.038
 3957W        W76283  10.241  12.160   0.753
 3958W        W76284  22.608   0.292   3.734
 3959W        W76285   8.168  20.090  14.940
 3960W        W76286  35.575  31.966  12.571
 3961W        W76287  36.357  20.088   0.373
 3962W        W76288   0.981  14.678  13.442
 3963W        W76289  30.909  11.665  11.069
 3964W        W76290   9.660  41.319  12.991
 3965W        W76291   3.805  19.632  10.617
 3966W        W76292   6.900   3.454   2.886
 3967W        W76293  16.207   8.221   3.371
 3968W        W76294  10.750  26.484   0.750
 3969W        W76295  16.740  21.562   0.307
 3970W        W76296  17.112  15.133   1.802
 3971W        W76297  31.065  12.143  14.369
 3972W        W76298  26.988  44.973   2.662
 3973W        W76299  42.924  31.975  14.822
 3974W        W76300  23.036  23.531   0.875
 3975W        W76301  18.780  25.696  11.435
 3976W        W76302  28.997  15.771  14.016
 3977W        W76303   1.900  29.044   2.229
 3978W        W76304  11.776  17.157   2.261
 3979W        W76305   1.809  24.205   1.347
 3980W        W76306  42.901  43.988  12.928
 3981W        W76307  24.117  36.990   3.844
 3982W        W76308   3.374  39.026   3.659
 3983W        W76309  26.680  26.024   3.160
 3984W        W76310   0.916  17.707  13.541
 3985W        W76311  39.041  28.668  13.381
 3986W        W76312  33.901  30.152  12.842
 3987W        W76313  13.685  41.918   0.253
 3988W        W76314  35.488  27.175   4.753
 3989W        W76315  11.721  23.236  14.898
 3990W        W76316  24.708   1.462   4.244
 3991W        W76317  41.029  31.146   1.342
 3992W        W76318  21.102   5.828  10.482
 3993W        W76319  23.097  22.008   4.135
 3994W        W76320  26.044  10.728  13.433
 3995W        W76321  44.860   6.858   0.884
 3996W        W76322  24.187   7.720  14.781
 3997W        W76323  23.007  33.079   0.750
 3998W        W76324  34.569  16.301   0.293
 3999W        W76325   4.813   3.405   1.304
 4000W        W76326  24.697  20.204  13.842
 4001W        W76327  40.927   2.466  11.574
 4002W        W76328   7.254   4.778  10.934
 4003W        W76329  22.570  33.442  10.439
 4004W        W76330  32.984   4.807  13.893
 4005W        W76331  32.054  14.602  10.533
 4006W        W76332  31.523  11.343   2.683
 4007W        W76333   6.738  33.449  14.436
 4008W        W76334  44.929  25.531   0.389
 4009W        W76335  27.690   0.316  11.502
 4010W        W76336  42.493  14.177  13.048
 4011W        W76337  28.445  24.977   1.714
 4012W        W76338  23.508  17.227  12.464
 4013W        W76339  36.926  37.577  12.578
 4014W        W76340  43.839  24.179   0.406
 4015W        W76341  41.461  27.684  11.963
 4016W        W76342  10.702   7.282   2.216
 4017W        W76343  14.711  38.037  14.361
 4018W        W76344  24.042   0.891   1.726
 4019W        W76345  25.144  40.939   2.692
 4020W        W76346  13.675  27.186  12.528
 4021W        W76347  17.298  23.491   3.808
 4022W        W76348  18.773  27.498  11.504
 4023W        W76349  41.363   7.806  13.003
 4024W        W76350  35.591  19.622   1.304
 4025W        W76351   5.229  34.421  12.892
 4026W        W76352  32.066  38.327  14.891
 4027W        W76353  21.140   2.926  11.889
 4028W        W76354  37.990  35.477   4.776
 4029W        W76355  32.055  34.563   3.724
 4030W        W76356  15.684   2.357  12.874
 4031W        W76357  38.989  40.451  10.515
 4032W        W76358  22.043  29.601  12.891
 4033W        W76359   6.762  23.731  12.971
 4034W        W76360  11.356  39.969   2.325
 4035W        W76361  28.665  23.136  11.501
 4036W        W76362   5.858   8.765  14.427
 4037W        W76363   7.380   0.290   0.730
 4038W        W76364   8.313   5.762   2.234
 4039W        W76365   4.859  10.259   2.768
 4040W        W76366  29.449  11.332  14.361
 4041W        W76367  11.680  33.429  10.621
 4042W        W76368  18.179  20.051  12.510
 4043W        W76369   3.416  11.652   4.329
 4044W        W76370   4.914  22.602  14.002
 4045W        W76371  44.946  28.987   1.796
 4046W        W76372  19.575  16.161  11.533
 4047W        W76373   1.879  39.041   4.821
 4048W        W76374  36.926  12.738  10.926
 4049W        W76375  19.225   0.457   0.269
 4050W        W76376   2.423   5.927  12.964
 4051W        W76377  22.616  34.433  11.861
 4052W        W76378  36.489  19.749  10.030
 4053W        W76379  42.996  38.860  13.835
 4054W        W76380  40.865  17.607   4.257
 4055W        W76381  30.953  25.098  11.914
 4056W        W76382  43.271  30.613   0.323
 4057W        W76383  31.478  39.889  10.631
 4058W        W76384   3.917  21.134  14.979
 4059W        W76385  24.205  16.087   0.311
 4060W        W76386  15.631  21.254   2.865
 4061W        W76387  13.251   8.738   4.351
 4062W        W76388  20.618  22.162  10.437
 4063W        W76389  18.637  30.152  13.447
 4064W        W76390   4.771  25.638   2.309
 4065W        W76391  38.520  29.593   0.257
 4066W        W76392   3.793  40.959  14.382
 4067W        W76393  42.825  16.769  14.780
 4068W        W76394   5.414  14.668  13.966
 4069W        W76395  13.725  34.878  14.930
 4070W        W76396  16.172  22.597   3.301
 4071W        W76397  22.238   0.400   1.408
 4072W        W76398  24.700  13.170  13.494
 4073W        W76399  41.488  43.817  12.419
 4074W        W76400  18.591   0.775  10.082
 4075W        W76401  17.656  32.523   0.314
 4076W        W76402  32.999   8.309  12.419
 4077W        W76403  21.078  16.156  13.492
 4078W        W76404   2.832   4.865  12.030
 4079W        W76405  22.023  39.377  11.934
 4080W        W76406   6.793  14.324   2.774
 4081W        W76407   2.904  24.027  11.932
 4082W        W76408  34.113   6.395   1.751
 4083W        W76409  19.229  12.808   4.228
 4084W        W76410  28.159  25.153   0.332
 4085W        W76411  10.691  36.023  14.772
 4086W        W76412   4.867   0.973   1.855
 4087W        W76413  26.610  27.482   4.721
 4088W        W76414  17.115  40.035  14.345
 4089W        W76415   4.882  14.222   4.143
 4090W        W76416   0.302  25.511   0.442
 4091W        W76417  20.720  33.992  11.965
 4092W        W76418   2.764  29.918   4.637
 4093W        W76419  43.502  11.866  10.458
 4094W        W76420  31.545   1.384  13.359
 4095W        W76421  43.771  25.649  10.612
 4096W        W76422  39.360  28.532  13.819
 4097W        W76423  31.948   3.459   3.176
 4098W        W76424  37.579  38.454  10.952
 4099W        W76425  24.590  31.047   3.285
 4100W        W76426   7.832  19.211  13.462
 4101W        W76427  18.561  36.570   4.304
 4102W        W76428  14.802   9.838   1.862
 4103W        W76429  30.472  11.709  14.811
 4104W        W76430  31.459  26.176  11.978
 4105W        W76431  35.093   3.423   1.246
 4106W        W76432   6.782  44.339   2.801
 4107W        W76433  39.919  41.925  13.928
 4108W        W76434  14.599  39.051  11.494
 4109W        W76435  40.924  13.678  14.364
 4110W        W76436   5.297   6.734  13.537
 4111W        W76437  13.110  27.486  12.516
 4112W        W76438  10.334  25.472   1.376
 4113W        W76439  23.572  36.528   3.323
 4114W        W76440  37.581  19.743  14.888
 4115W        W76441  19.771  31.918  14.327
 4116W        W76442  14.177   9.668  13.509
 4117W        W76443  36.451  33.622   4.297
 4118W        W76444  25.971  15.620   4.273
 4119W        W76445  13.204  14.607  10.982
 4120W        W76446  38.396  11.156   0.741
 4121W        W76447  17.175  12.759   2.687
 4122W        W76448   0.483  22.718   1.431
 4123W        W76449   0.375   1.246  14.797
 4124W        W76450  41.414   4.934   1.824
 4125W        W76451   3.443  31.127   3.250
 4126W        W76452  11.757  22.653   4.717
 4127W        W76453  16.309   2.822  10.645
 4128W        W76454   8.667  16.284   0.799
 4129W        W76455  31.478  33.960  10.598
 4130W        W76456   3.792   0.471  10.434
 4131W        W76457  25.015  36.087  11.907
 4132W        W76458  10.173  42.789  11.454
 4133W        W76459   5.227  11.216   0.293
 4134W        W76460  42.988  13.669   4.814
 4135W        W76461  43.474   0.807   2.244
 4136W        W76462   5.864  41.825   1.770
 4137W        W76463  28.484  24.697  11.087
 4138W        W76464  30.063  26.081  12.045
 4139W        W76465  39.321  31.482  14.288
 4140W        W76466  37.492  38.947  11.509
 4141W        W76467  35.405  19.778   3.659
 4142W        W76468  34.876  11.246   1.885
 4143W        W76469  40.394   9.285   1.828
 4144W        W76470  39.316  40.488   3.825
 4145W        W76471   0.969   0.892   2.360
 4146W        W76472   0.981  44.905  12.975
 4147W        W76473  26.132  33.383   4.226
 4148W        W76474  40.364   8.780  13.315
 4149W        W76475  40.895  27.446   0.426
 4150W        W76476  17.594  40.915  11.898
 4151W        W76477  37.393   4.703   1.374
 4152W        W76478  17.669  16.072  11.590
 4153W        W76479  23.578  32.998  10.586
 4154W        W76480  13.292   7.333  10.431
 4155W        W76481  14.708  30.545  11.032
 4156W        W76482  14.642  21.610   2.281
 4157W        W76483  36.542   6.419  13.865
 4158W        W76484  31.494   6.352   0.822
 4159W        W76485  25.592  27.080  10.479
 4160W        W76486  27.044  33.436  12.362
 4161W        W76487  32.969  12.319   4.206
 4162W        W76488  36.980   0.832   3.226
 4163W        W76489  36.562   9.239   3.868
 4164W        W76490  16.300  21.249  14.845
 4165W        W76491  35.577  17.067  14.487
 4166W        W76492  14.680  20.121  13.968
 4167W        W76493  28.642  22.522  10.895
 4168W        W76494  33.426  11.328   0.883
 4169W        W76495  26.179  37.500  12.515
 4170W        W76496  20.160  34.024  14.835
 4171W        W76497   0.311   0.800   4.650
 4172W        W76498  15.802  36.493   1.852
 4173W        W76499  25.062  14.720  11.526
 4174W        W76500  21.518  13.739  11.473
 4175W        W76501  23.995   2.940   3.759
 4176W        W76502  26.018  33.622   0.782
 4177W        W76503  44.354  11.862  12.024
 4178W        W76504   0.264  26.639  11.892
 4179W        W76505  21.065   1.445  13.031
 4180W        W76506  13.654  25.042   0.410
 4181W        W76507  42.888  31.629   2.827
 4182W        W76508   9.776  34.887   0.816
 4183W        W76509  20.209  27.066  13.912
 4184W        W76510  21.029  37.937   3.630
 4185W        W76511  26.022  37.380  13.902
 4186W        W76512  20.214  35.927   4.149
 4187W        W76513   1.858  43.344   1.416
 4188W        W76514   0.405  38.894   4.729
 4189W        W76515  35.978   7.805   4.706
 4190W        W76516  10.224  21.641   2.687
 4191W        W76517  12.630  20.055   0.316
 4192W        W76518  37.967   4.803   1.729
 4193W        W76519   9.321  14.133   1.345
 4194W        W76520  37.415  43.942  10.579
 4195W        W76521   0.455  35.977  12.407
 4196W        W76522  32.057  10.185   3.682
 4197W        W76523   4.935  38.339  10.514
 4198W        W76524   5.379  23.598  13.060
 4199W        W76525  41.303  25.616  11.514
 4200W        W76526  26.695  36.500  13.821
 4201W        W76527   8.741  23.588  11.895
 4202W        W76528  38.504   5.811   4.646
 4203W        W76529  11.719  25.587  13.943
 4204W        W76530   4.803  28.047  13.888
 4205W        W76531  27.160   9.664   3.155
 4206W        W76532   8.772  39.905   3.221
 4207W        W76533  19.764   5.226   2.686
 4208W        W76534  24.591  37.938   0.364
 4209W        W76535  32.938  24.640  14.810
 4210W        W76536  10.695  13.794   0.250
 4211W        W76537  11.644  20.593   2.700
 4212W        W76538  35.094  17.693   2.219
 4213W        W76539  38.424  44.945  14.787
 4214W        W76540  22.213  30.943  11.382
 4215W        W76541  43.419  18.617   2.805
 4216W        W76542   3.451  15.098   3.750
 4217W        W76543  20.100   9.328  13.348
 4218W        W76544  32.139   1.965   1.395
 4219W        W76545  37.044  32.889   0.408
 4220W        W76546  28.445   7.284  12.858
 4221W        W76547  22.136  30.029   4.678
 4222W        W76548  39.453  14.629   1.419
 4223W        W76549  23.503  32.141   2.201
 4224W        W76550  18.670  20.540   1.366
 4225W        W76551  10.155  38.480  12.433
 4226W        W76552  27.537  26.526   1.261
 4227W        W76553  29.481  27.980  12.916
 4228W        W76554   0.989  40.519  10.900
 4229W        W76555   0.806  12.754   2.271
 4230W        W76556  34.457  17.285  13.388
 4231W        W76557  43.766   2.471   0.962
 4232W        W76558  13.203  34.422  11.007
 4233W        W76559  13.623  23.625   4.299
 4234W        W76560   9.751  14.813   3.663
 4235W        W76561  18.229  21.247   0.459
 4236W        W76562  33.497  13.305   3.241
 4237W        W76563  28.167  17.115  14.797
 4238W        W76564  40.018  35.067   0.255
 4239W        W76565  39.859  31.095  12.423
 4240W        W76566  31.149  27.949   0.908
 4241W        W76567  34.542  16.758  13.808
 4242W        W76568  37.413  38.872   2.718
 4243W        W76569   6.786  40.511   4.288
 4244W        W76570  12.677  26.701   2.774
 4245W        W76571  37.039  43.838   2.803
 4246W        W76572  22.121  12.336   1.887
 4247W        W76573  38.909  43.295  12.435
 4248W        W76574  28.062  25.552  10.961
 4249W        W76575   7.415  29.460   4.293
 4250W        W76576  13.245  42.364   0.852
 4251W        W76577  13.719   7.380   3.846
 4252W        W76578  11.788   5.785   4.233
 4253W        W76579  34.028  14.798  12.966
 4254W        W76580  13.308  20.086   0.409
 4255W        W76581   8.406  11.822  11.421
 4256W        W76582  10.379  32.926  13.487
 4257W        W76583  16.315  18.068  12.981
 4258W        W76584   0.323  15.758   1.372
 4259W        W76585  22.123  17.289   1.735
 4260W        W76586  44.353  28.445   3.219
 4261W        W76587   9.664  16.114  12.366
 4262W        W76588   8.719   7.829   4.170
 4263W        W76589  30.427  42.815  14.932
 4264W        W76590  35.088  13.304   1.379
 4265W        W76591  19.593  29.595  13.856
 4266W        W76592   7.896  16.593   4.814
 4267W        W76593   4.335  37.859  12.029
 4268W        W76594  40.919  33.068  11.855
 4269W        W76595  26.560   4.914  14.012
 4270W        W76596  30.462   6.338  14.767
 4271W        W76597  23.528  29.980  11.938
 4272W        W76598  13.294  38.941   2.366
 4273W        W76599  44.927  39.811   4.639
 4274W        W76600  38.970  33.082  14.031
 4275W        W76601  32.537  14.240   5.181
 4276W        W76602  14.813  20.173   0.423
 4277W        W76603  35.530  37.482   3.278
 4278W        W76604  35.475  43.805  11.473
 4279W        W76605   9.883  21.644  12.875
 4280W        W76606  13.740  14.602  12.988
 4281W        W76607  36.897  13.799  14.823
 4282W        W76608   5.243  12.789   3.231
 4283W        W76609  31.621  13.112  11.041
 4284W        W76610   7.898   9.157  13.905
 4285W        W76611  22.180  11.166  14.464
 4286W        W76612  16.716  40.402  11.438
 4287W        W76613  38.412  10.318  11.124
 4288W        W76614  19.097  18.647   1.221
 4289W        W76615  33.883  14.140  14.347
 4290W        W76616  37.486  10.836   2.807
 4291W        W76617  39.046  30.459   3.374
 4292W        W76618  23.727  42.956  13.328
 4293W        W76619  42.784  37.872   4.604
 4294W        W76620   0.824  40.416  11.555
 4295W        W76621  13.774  29.950   1.387
 4296W        W76622  15.792  40.415  10.956
 4297W        W76623  11.714  16.593   0.755
 4298W        W76624   2.428  20.175  14.338
 4299W        W76625  11.680   9.738   0.935
 4300W        W76626  41.902   9.217   1.780
 4301W        W76627   8.366  24.057   4.722
 4302W        W76628  26.995  41.866   3.226
 4303W        W76629  40.936  26.183   3.754
 4304W        W76630   4.319  40.846  13.008
 4305W        W76631  30.570   0.431  10.888
 4306W        W76632  21.607  11.669   2.358
 4307W        W76633  43.001   8.815  10.975
 4308W        W76634  15.821  29.163   1.713
 4309W        W76635  28.026  10.856  14.870
 4310W        W76636  41.924   4.730  10.892
 4311W        W76637  31.054  40.900  13.048
 4312W        W76638   0.458  29.020   1.394
 4313W        W76639  21.557   5.803   4.167
 4314W        W76640   8.192  35.001   2.825
 4315W        W76641  35.011  31.975   1.218
 4316W        W76642   5.426  42.972   0.254
 4317W        W76643  38.399  10.816  10.945
 4318W        W76644  24.693  27.187   3.697
 4319W        W76645  25.703   7.367   4.785
 4320W        W76646   2.305   9.753   0.838
 4321W        W76647  16.717  38.962   2.836
 4322W        W76648   1.302   4.905  12.404
 4323W        W76649   7.713   8.868  11.538
 4324W        W76650  42.915   9.851  10.934
 4325W        W76651  34.459  34.415  13.453
 4326W        W76652  25.997  36.409   3.295
 4327W        W76653  16.810   1.929   0.360
 4328W        W76654  17.728  21.605   0.855
 4329W        W76655  28.511  29.532   4.767
 4330W        W76656  38.073   0.398  14.011
 4331W        W76657  19.054  36.844   1.427
 4332W        W76658  41.887  16.139  14.776
 4333W        W76659  34.572  34.602   3.801
 4334W        W76660  15.229   4.905  14.942
 4335W        W76661  41.804  38.984  10.540
 4336W        W76662  43.323  19.716  14.996
 4337W        W76663  32.109  34.377   2.229
 4338W        W76664  14.784  32.584   2.356
 4339W        W76665  33.951  30.643   1.353
 4340W        W76666   2.794   2.425   5.155
 4341W        W76667  37.501  36.391  13.882
 4342W        W76668  43.381   5.410   2.273
 4343W        W76669  23.173  38.882   0.798
 4344W        W76670  31.516   9.338   1.216
 4345W        W76671  43.826  32.096   1.913
 4346W        W76672  32.460  43.457   2.255
 4347W        W76673  17.184  43.926  11.005
 4348W        W76674  33.455  16.218   0.755
 4349W        W76675  42.848  44.471   4.348
 4350W        W76676  33.464  30.436   5.194
 4351W        W76677  37.046  20.690  13.509
 4352W        W76678  34.965  30.931  13.813
 4353W        W76679  34.117   0.802   0.316
 4354W        W76680  24.127   0.441  13.002
 4355W        W76681  38.854  26.156   3.189
 4356W        W76682   1.766   4.704  13.026
 4357W        W76683  40.885   5.746  11.413
 4358W        W76684  34.067  30.974   3.684
 4359W        W76685  15.806  38.931   0.283
 4360W        W76686   4.823  41.506  11.521
 4361W        W76687   1.732  14.318  10.998
 4362W        W76688  29.090  17.107  11.092
 4363W        W76689  22.081   6.327  10.995
 4364W        W76690   2.321  18.605   0.472
 4365W        W76691  42.411  20.139  11.056
 4366W        W76692  11.145  40.798   3.350
 4367W        W76693  18.626  18.628   3.360
 4368W        W76694   5.892  35.534  10.539
 4369W        W76695  30.003  25.539   3.273
 4370W        W76696  32.432  26.061   0.764
 4371W        W76697  38.475  19.568  12.860
 4372W        W76698   2.280  26.516   9.963
 4373W        W76699  33.986  24.999  12.483
 4374W        W76700  19.117  17.729  10.896
 4375W        W76701  12.144  29.425   0.470
 4376W        W76702  12.339   8.859  13.906
 4377W        W76703  13.117   2.813  12.514
 4378W        W76704  35.447  15.209   0.324
 4379W        W76705  26.191  28.040   0.962
 4380W        W76706   4.857   4.803   0.892
 4381W        W76707  41.907  35.600   4.351
 4382W        W76708  44.907  34.423  10.574
 4383W        W76709   5.718  44.325   3.663
 4384W        W76710  28.457  37.456   1.774
 4385W        W76711   6.188   9.751  14.867
 4386W        W76712  30.492  29.961   4.178
 4387W        W76713   1.359  22.662   4.712
 4388W        W76714   6.304  38.074   4.260
 4389W        W76715  21.613  17.655  10.643
 4390W        W76716  35.067  13.272   3.657
 4391W        W76717  24.184  13.771  12.553
 4392W        W76718   2.853  17.677  12.060
 4393W        W76719  41.806  12.779   4.263
 4394W        W76720  18.581  39.419   0.741
 4395W        W76721  44.944  26.096   0.464
 4396W        W76722  40.344  26.112  14.425
 4397W        W76723  20.148   0.984  10.433
 4398W        W76724   4.412  30.145  11.088
 4399W        W76725  19.039  41.939   1.423
 4400W        W76726  35.381  44.863  11.513
 4401W        W76727  37.422  10.330  12.478
 4402W        W76728  40.879  31.973   3.164
 4403W        W76729   0.983  21.541   1.300
 4404W        W76730  28.585   3.845   0.435
 4405W        W76731  15.605  32.633  13.063
 4406W        W76732   7.401  44.787   1.915
 4407W        W76733  36.469   7.677   2.893
 4408W        W76734  38.937  22.600   1.899
 4409W        W76735  42.813  19.169   2.206
 4410W        W76736  25.153  13.299   0.944
 4411W        W76737  37.542  32.990  11.068
 4412W        W76738  32.425  25.594  13.924
 4413W        W76739  35.430  40.809   0.779
 4414W        W76740   2.438   1.784  10.622
 4415W        W76741  15.154   2.449  10.620
 4416W        W76742  11.153  28.057   0.870
 4417W        W76743   6.354  10.290  10.081
 4418W        W76744   7.805  15.116  10.424
 4419W        W76745  34.073  40.435   1.847
 4420W        W76746  26.997  16.264   0.388
 4421W        W76747  33.113  40.334  13.349
 4422W        W76748   4.882  19.653   5.299
 4423W        W76749  30.558  30.572  13.844
 4424W        W76750   3.941  10.865   5.149
 4425W        W76751  28.958   8.311   2.666
 4426W        W76752   4.747   3.814   1.242
 4427W        W76753  35.360  27.655   4.780
 4428W        W76754   2.303  41.430   3.377
 4429W        W76755  13.246   2.413   3.232
 4430W        W76756  40.435  35.978   1.852
 4431W        W76757  23.121   1.402   4.254
 4432W        W76758  32.952  33.030   2.828
 4433W        W76759  31.490  42.449   1.782
 4434W        W76760   6.884   6.831  11.936
 4435W        W76761  15.713  18.570  11.455
 4436W        W76762  35.075   3.865   4.713
 4437W        W76763   9.385  13.617   1.851
 4438W        W76764  30.611  33.481  11.406
 4439W        W76765  38.054   7.865   1.817
 4440W        W76766  26.963  18.124   4.666
 4441W        W76767  31.430  23.497  14.932
 4442W        W76768   3.291  19.190  13.847
 4443W        W76769  34.052  25.993  13.510
 4444W        W76770  13.171  44.366  13.855
 4445W        W76771   1.436  27.451  10.423
 4446W        W76772  37.974  35.426   4.262
 4447W        W76773   0.815  15.604  11.457
 4448W        W76774  22.742   6.760   3.677
 4449W        W76775   0.881  24.561   3.650
 4450W        W76776  27.126  14.199  11.109
 4451W        W76777   1.839  35.958   4.275
 4452W        W76778  25.544  29.987   0.315
 4453W        W76779  23.678   9.376   4.746
 4454W        W76780  28.133  26.019  12.888
 4455W        W76781  38.487  41.397  14.808
 4456W        W76782  22.096  26.524  13.460
 4457W        W76783  21.542  42.522  14.936
 4458W        W76784  20.617  35.432   0.438
 4459W        W76785  28.994  32.401   0.941
 4460W        W76786  17.678  33.124  13.932
 4461W        W76787  40.444  29.034  12.383
 4462W        W76788  35.526   1.250   3.358
 4463W        W76789   9.659   1.878   1.862
 4464W        W76790   2.428  27.544   4.307
 4465W        W76791  43.828   2.913   0.324
 4466W        W76792   4.839  17.751  14.939
 4467W        W76793  42.891   1.400  10.574
 4468W        W76794  37.538   5.262  14.947
 4469W        W76795  24.590  36.360  14.452
 4470W        W76796   0.824  16.580   1.694
 4471W        W76797  40.015  44.398   0.824
 4472W        W76798  34.003   5.338   3.194
 4473W        W76799  14.234  11.266  12.522
 4474W        W76800   2.340   0.267   0.426
 4475W        W76801  38.073  19.563   0.351
 4476W        W76802  23.658  19.235   0.346
 4477W        W76803   7.802   7.751   2.369
 4478W        W76804  26.595  31.992   4.728
 4479W        W76805  23.034  18.293   3.689
 4480W        W76806  34.489  32.609  13.378
 4481W        W76807  43.872   2.966  13.435
 4482W        W76808  10.679  22.605   3.708
 4483W        W76809   5.768  16.211   1.855
 4484W        W76810  42.501  43.309   2.355
 4485W        W76811  32.619  27.059  12.905
 4486W        W76812  31.407  38.400  12.342
 4487W        W76813   8.363   6.788   3.704
 4488W        W76814   5.200  21.683  12.071
 4489W        W76815  28.984  25.976   2.217
 4490W        W76816  40.462  27.589   2.209
 4491W        W76817  38.480  15.155  11.482
 4492W        W76818  10.816   9.821   1.213
 4493W        W76819  31.900  16.294  11.954
 4494W        W76820   1.917  14.203   1.755
 4495W        W76821   7.833   2.722  13.456
 4496W        W76822  23.036  20.573   3.371
 4497W        W76823  36.886  42.506   0.922
 4498W        W76824  11.737   6.718   0.911
 4499W        W76825  44.453  24.482  10.929
 4500W        W76826  40.386  26.500  14.808
 4501W        W76827  30.133  12.167   2.244
 4502W        W76828  30.601   1.877  10.611
 4503W        W76829  38.430  19.670  10.925
 4504W        W76830  29.589  32.904  10.607
 4505W        W76831   6.769  15.124  12.975
 4506W        W76832  32.061  37.420  10.928
 4507W        W76833  27.011  16.219  12.524
 4508W        W76834  39.333  23.227   3.188
 4509W        W76835  38.840  15.259  13.013
 4510W        W76836  43.919  31.484  14.764
 4511W        W76837  23.119  12.359  12.519
 4512W        W76838  31.510  40.395  12.878
 4513W        W76839  44.480   5.891  13.816
 4514W        W76840  39.860  25.469   0.909
 4515W        W76841  18.198   8.221  10.560
 4516W        W76842  25.968  25.620   4.258
 4517W        W76843  18.081  16.193   1.211
 4518W        W76844  41.950  33.583  11.561
 4519W        W76845  42.410  37.971   3.629
 4520W        W76846   5.761  35.921  14.302
 4521W        W76847   9.683  24.541   3.187
 4522W        W76848   7.397   8.664  13.797
 4523W        W76849  19.570  18.168   2.377
 4524W        W76850   5.842   4.919  10.504
 4525W        W76851  20.037   8.169   2.287
 4526W        W76852  12.613  13.805   3.691
 4527W        W76853  40.930   9.349  14.950
 4528W        W76854   1.801  38.396   0.432
 4529W        W76855  20.653   8.180  11.595
 4530W        W76856   4.398  14.815   1.783
 4531W        W76857  12.759   7.893  14.922
 4532W        W76858  29.051  39.324   3.744
 4533W        W76859  10.383   3.398  14.855
 4534W        W76860  13.171  21.060   0.340
 4535W        W76861  23.008  34.538   3.369
 4536W        W76862   0.488  12.837  10.492
 4537W        W76863  18.749  30.514  14.323
 4538W        W76864  31.552  14.699   0.927
 4539W        W76865   6.882  41.978   2.858
 4540W        W76866  26.096  23.511   1.911
 4541W        W76867   5.704  31.588   4.257
 4542W        W76868  34.019  32.543  10.988
 4543W        W76869  36.522  30.988  14.290
 4544W        W76870  33.529  29.572   2.190
 4545W        W76871  17.574  21.034  11.121
 4546W        W76872  36.089  28.114  12.852
 4547W        W76873  24.148  25.043   4.734
 4548W        W76874  23.559  19.574   4.288
 4549W        W76875  14.610   9.775  10.484
 4550W        W76876   9.214  11.667   2.826
 4551W        W76877  32.963  20.030  14.862
 4552W        W76878  33.952   2.743  14.364
 4553W        W76879   0.434  29.527  12.085
 4554W        W76880  29.558  39.861   4.278
 4555W        W76881  28.975  20.549   3.319
 4556W        W76882  32.400  27.009  13.539
 4557W        W76883  25.518  30.518   4.782
 4558W        W76884  18.252  41.897   2.179
 4559W        W76885  16.575   2.448   2.345
 4560W        W76886  41.508  41.488   4.155
 4561W        W76887   8.654  37.974  11.409
 4562W        W76888   0.948   6.329   0.274
 4563W        W76889  32.514  24.063   3.645
 4564W        W76890   2.911  10.232   1.842
 4565W        W76891  41.338  31.022   4.336
 4566W        W76892  23.721  41.358   1.784
 4567W        W76893  39.525  44.307  10.580
 4568W        W76894  27.058  10.274  12.470
 4569W        W76895  33.905   3.750  12.994
 4570W        W76896  43.808  14.159   0.947
 4571W        W76897   8.307  25.488   4.125
 4572W        W76898  32.104  26.510   5.276
 4573W        W76899  15.097  22.062  14.793
 4574W        W76900  35.453  37.056  14.901
 4575W        W76901  15.301  16.245  14.288
 4576W        W76902   4.208   0.889   3.861
 4577W        W76903  11.282   1.862  13.943
 4578W        W76904  12.850  19.062   4.666
 4579W        W76905  18.261  36.904   0.259
 4580W        W76906  23.092   6.221   1.224
 4581W        W76907  34.951  33.436   4.272
 4582W        W76908   8.774  31.046   2.345
 4583W        W76909   5.745  18.257   0.786
 4584W        W76910   5.217  41.382   5.227
 4585W        W76911   3.305   7.293   4.203
 4586W        W76912  38.854  42.409  14.405
 4587W        W76913  33.618   4.439  11.507
 4588W        W76914  29.966  16.225   3.257
 4589W        W76915   9.358  10.303  12.451
 4590W        W76916  29.068  44.985  10.451
 4591W        W76917  10.816  21.100   4.337
 4592W        W76918  32.622  25.001   5.158
 4593W        W76919  38.036  23.995   0.248
 4594W        W76920   2.957  21.152   9.929
 4595W        W76921  34.021   9.673   3.248
 4596W        W76922  42.946  38.042   1.217
 4597W        W76923  27.689  26.479   2.736
 4598W        W76924  20.669  28.042   3.315
 4599W        W76925   9.314  20.089   3.219
 4600W        W76926   0.266   0.255   2.277
 4601W        W76927   1.239  30.510   4.700
 4602W        W76928  11.144  29.478  11.088
 4603W        W76929  19.200   4.883   3.633
 4604W        W76930   0.345  20.208  10.592
 4605W        W76931  40.500  22.168  13.325
 4606W        W76932  10.346  27.691  10.960
 4607W        W76933  40.351  23.562  12.890
 4608W        W76934  39.912  41.338  11.396
 4609W        W76935  38.392  19.650  12.391
 4610W        W76936  15.114  27.576   2.302
 4611W        W76937  37.037  26.979   2.260
 4612W        W76938  17.658  12.813  13.796
 4613W        W76939  39.856  29.498  14.836
 4614W        W76940  31.131  28.083  13.926
 4615W        W76941   7.860  33.904   1.823
 4616W        W76942  27.972  32.056  13.355
 4617W        W76943  15.772  15.608   5.321
 4618W        W76944  29.604   1.904  13.502
 4619W        W76945  38.511  20.590  10.506
 4620W        W76946  14.768   7.752  12.971
 4621W        W76947  31.605  28.676  12.895
 4622W        W76948  16.661  13.770   0.749
 4623W        W76949   7.700  15.795  14.339
 4624W        W76950  17.143   3.855   1.877
 4625W        W76951  37.387  15.270  14.898
 4626W        W76952  28.681  12.237  14.009
 4627W        W76953  29.001  31.996   2.332
 4628W        W76954   3.751  38.563   4.331
 4629W        W76955  24.672   4.896   1.410
 4630W        W76956  26.953  43.301   1.901
 4631W        W76957  40.359  30.588  12.997
 4632W        W76958  12.702   6.811   0.321
 4633W        W76959  36.532  17.801   1.891
 4634W        W76960  31.634  19.672  11.949
 4635W        W76961  26.041   9.832  13.519
 4636W        W76962  15.159   2.340  12.066
 4637W        W76963  23.611   2.895   2.208
 4638W        W76964  16.567  37.468   0.889
 4639W        W76965  11.827  10.862   4.668
 4640W        W76966  31.139  43.804   0.279
 4641W        W76967   0.827  15.798  13.510
 4642W        W76968  20.718  44.974   3.158
 4643W        W76969  38.926  25.510  10.611
 4644W        W76970  27.561  44.262   2.838
 4645W        W76971  31.049  29.953  11.524
 4646W        W76972  41.444  13.334  11.495
 4647W        W76973   7.247  38.907  10.555
 4648W        W76974  34.962   8.670  14.299
 4649W        W76975  39.531  10.776  13.387
 4650W        W76976  36.035  12.733  10.910
 4651W        W76977  14.714  42.875   4.141
 4652W        W76978  22.619  30.587   0.429
 4653W        W76979  11.251   0.777  14.863
 4654W        W76980  26.645   8.300   3.812
 4655W        W76981  42.843  42.524  10.522
 4656W        W76982  22.717  38.834  13.920
 4657W        W76983  13.680  34.050   2.702
 4658W        W76984  30.912  22.594  11.409
 4659W        W76985  24.629  10.343  13.954
 4660W        W76986  27.643  31.588   2.796
 4661W        W76987  20.711  27.013   2.208
 4662W        W76988  34.478  13.179  11.388
 4663W        W76989  10.692  15.590  14.323
 4664W        W76990   5.280  13.641  13.542
 4665W        W76991  30.115   4.919   0.916
 4666W        W76992  20.558   9.393   4.654
 4667W        W76993  31.008   8.189   2.849
 4668W        W76994  23.690  12.313  13.497
 4669W        W76995  38.056  13.825  13.011
 4670W        W76996  30.975  17.651   1.362
 4671W        W76997   1.311  39.978  12.544
 4672W        W76998  42.524  27.091  12.877
 4673W        W76999  26.009  11.131  11.423
 4674W        W77000   3.915  40.352  14.830
 4675W        W77001  27.667   7.906  14.936
 4676W        W77002  21.094   7.198  10.604
 4677W        W77003   0.817  35.535  13.038
 4678W        W77004  13.347  23.033  10.523
 4679W        W77005  11.833  26.177  12.510
 4680W        W77006  28.639  40.932   3.254
 4681W        W77007  32.403  22.597  11.111
 4682W        W77008  40.416  41.926  14.848
 4683W        W77009  13.832  39.043  12.848
 4684W        W77010  21.153  40.332  14.439
 4685W        W77011   6.870  41.000   3.836
 4686W        W77012   2.748  17.642  11.008
 4687W        W77013   7.769   4.316   4.202
 4688W        W77014  43.898  10.321   0.421
 4689W        W77015  30.970  44.320  10.512
 4690W        W77016  32.596  41.345   1.850
 4691W        W77017  31.517  17.587  13.855
 4692W        W77018  32.599  24.662  13.368
 4693W        W77019  18.669   3.871  14.863
 4694W        W77020  27.574  42.792   0.415
 4695W        W77021   3.941  22.237   5.160
 4696W        W77022  34.023  37.909  10.486
 4697W        W77023   1.830  17.186  11.458
 4698W        W77024  22.533  14.827   4.825
 4699W        W77025  40.858  24.645  14.503
 4700W        W77026  13.715  17.735  11.424
 4701W        W77027   7.265  39.388  11.052
 4702W        W77028   1.763  36.004  14.906
 4703W        W77029  25.580  18.280   3.313
 4704W        W77030  38.826  28.044   0.954
 4705W        W77031  34.527  24.113  13.307
 4706W        W77032  42.877   7.694   5.137
 4707W        W77033   6.840  27.060   1.339
 4708W        W77034  10.263  34.067   2.866
 4709W        W77035  31.420  28.136   3.231
 4710W        W77036   3.844  31.953  13.917
 4711W        W77037  24.677  25.492   0.321
 4712W        W77038  24.179  32.427  12.557
 4713W        W77039  36.558  26.609   0.816
 4714W        W77040  30.444  16.599   1.710
 4715W        W77041  25.659   6.258   2.878
 4716W        W77042  40.413  38.545   2.244
 4717W        W77043  14.232  42.884   2.212
 4718W        W77044   6.289  38.509   0.252
 4719W        W77045  13.776  34.877  12.447
 4720W        W77046  16.136  23.159  11.869
 4721W        W77047  43.888   7.226   2.880
 4722W        W77048  12.655  12.334  10.410
 4723W        W77049  44.821   2.465   2.748
 4724W        W77050  12.220   3.920   3.346
 4725W        W77051   6.887   7.790   0.728
 4726W        W77052   6.778  17.694  11.869
 4727W        W77053  42.451  40.004  11.574
 4728W        W77054  44.318  34.507   3.750
 4729W        W77055  26.208  17.725   0.915
 4730W        W77056  31.965   8.798  11.120
 4731W        W77057  33.566  17.688  12.944
 4732W        W77058  20.764  24.029   2.861
 4733W        W77059  32.115   4.738   4.338
 4734W        W77060  31.099  28.494   0.870
 4735W        W77061  42.011  43.966   4.261
 4736W        W77062  13.783  33.896   1.304
 4737W        W77063  15.751  39.332  12.468
 4738W        W77064  23.086   4.807  11.906
 4739W        W77065  41.954  19.182   4.724
 4740W        W77066   2.763   1.940   5.148
 4741W        W77067   8.696  34.583  12.880
 4742W        W77068  38.496  38.048   1.907
 4743W        W77069  10.836  31.538   2.850
 4744W        W77070  25.648  42.916  12.487
 4745W        W77071  23.080   3.914  13.018
 4746W        W77072  39.890  25.186  14.294
 4747W        W77073   7.305  24.587   1.723
 4748W        W77074   6.789   0.885   3.645
 4749W        W77075  40.963  13.152   2.317
 4750W        W77076  34.584  25.175  14.428
 4751W        W77077  35.549  10.771   0.331
 4752W        W77078  34.421  40.436  13.404
 4753W        W77079  14.273  24.155   2.274
 4754W        W77080  41.860  18.086   1.878
 4755W        W77081  26.677  22.109  14.939
 4756W        W77082  39.556  42.392   0.874
 4757W        W77083  25.675   7.814  13.865
 4758W        W77084  34.411   4.358  13.042
 4759W        W77085  31.145  43.864   1.357
 4760W        W77086  44.883  27.947  13.482
 4761W        W77087  39.965  43.983  11.074
 4762W        W77088   7.395  11.732  14.964
 4763W        W77089  35.525  29.585  13.308
 4764W        W77090   2.788  42.392   0.406
 4765W        W77091  25.703  40.955   4.687
 4766W        W77092  14.102  39.560  13.839
 4767W        W77093  12.741   5.754   2.228
 4768W        W77094   6.913  37.382  10.570
 4769W        W77095   7.330  34.032   1.717
 4770W        W77096   9.719  10.774  11.450
 4771W        W77097  11.635  17.212  10.533
 4772W        W77098  12.748   1.425   1.398
 4773W        W77099   5.229  34.877  14.954
 4774W        W77100  42.295  14.625   2.781
 4775W        W77101   4.300  22.219  14.496
 4776W        W77102  11.704  31.551   4.764
 4777W        W77103  13.129  16.233  11.873
 4778W        W77104  26.618  23.189  14.400
 4779W        W77105  20.235   5.306   0.385
 4780W        W77106  42.894   2.410   2.183
 4781W        W77107   5.312  36.434  12.981
 4782W        W77108  18.117  23.554   4.709
 4783W        W77109  21.736  38.822  14.389
 4784W        W77110  11.164  21.702  11.864
 4785W        W77111   8.211   4.295  14.931
 4786W        W77112  23.003  44.441  14.379
 4787W        W77113  19.722   3.904   1.840
 4788W        W77114   0.305   7.328   4.606
 4789W        W77115   1.313  39.413  11.393
 4790W        W77116  11.194  12.763  11.442
 4791W        W77117  18.746  32.530   4.138
 4792W        W77118  12.763   9.884   1.444
 4793W        W77119  16.712  35.078   0.246
 4794W        W77120  43.311  27.041   0.917
 4795W        W77121  14.305  36.887   4.691
 4796W        W77122   8.304  25.660  14.282
 4797W        W77123  43.911  22.698   3.367
 4798W        W77124  37.897  12.693  12.882
 4799W        W77125   0.259  28.174   0.437
 4800W        W77126  15.106   9.659   3.753
 4801W        W77127  22.638  39.342   1.422
 4802W        W77128   6.773  21.562  12.854
 4803W        W77129  33.457  32.072   0.302
 4804W        W77130  11.195  41.523  12.951
 4805W        W77131  22.664  41.384  11.970
 4806W        W77132  25.650  15.794  12.543
 4807W        W77133  43.373  36.559  11.386
 4808W        W77134  34.467  42.451   2.227
 4809W        W77135  18.746  30.592  10.506
 4810W        W77136  17.168  43.466   3.773
 4811W        W77137   6.885  14.162  14.827
 4812W        W77138  38.481  21.695  10.635
 4813W        W77139  30.050  16.189  11.592
 4814W        W77140  28.941  38.896  10.498
 4815W        W77141  27.078  19.689  13.917
 4816W        W77142   9.669  31.585  13.482
 4817W        W77143  37.556  37.433   5.202
 4818W        W77144  25.536  35.522  13.957
 4819W        W77145  17.199  19.265   1.392
 4820W        W77146  35.469  16.706   4.643
 4821W        W77147  39.998  16.772   0.887
 4822W        W77148  24.580  15.199  11.998
 4823W        W77149  17.198  25.063  10.506
 4824W        W77150  21.212  13.815  12.894
 4825W        W77151   7.875  25.604   1.793
 4826W        W77152  44.264  22.216   0.858
 4827W        W77153  33.587  35.533  11.072
 4828W        W77154  37.382  43.907   2.698
 4829W        W77155   5.393  40.509  11.938
 4830W        W77156   4.394   7.765   4.196
 4831W        W77157  38.339  24.069   4.704
 4832W        W77158  38.328  26.197   3.360
 4833W        W77159   6.694  40.356  14.997
 4834W        W77160   9.198   0.909   9.967
 4835W        W77161   6.398  11.792  10.489
 4836W        W77162  39.327   6.852   2.204
 4837W        W77163   3.740  27.467   2.248
 4838W        W77164  23.998  24.038   4.280
 4839W        W77165   3.264  40.309   1.706
 4840W        W77166  12.258  35.485   1.745
 4841W        W77167   5.314   3.249  14.895
 4842W        W77168  14.260  22.627  12.041
 4843W        W77169   1.756  12.716  14.834
 4844W        W77170  25.995  32.936   0.926
 4845W        W77171  33.506  28.644  12.566
 4846W        W77172  11.150  40.876   4.654
 4847W        W77173  42.507  19.276  10.533
 4848W        W77174  41.415  43.776   3.190
 4849W        W77175  28.069   3.315  10.141
 4850W        W77176  11.689  30.109  12.473
 4851W        W77177   0.399  38.360   2.238
 4852W        W77178  24.038   0.372   1.381
 4853W        W77179  35.994  34.977  14.497
 4854W        W77180  38.402  18.130  14.828
 4855W        W77181  18.665   6.389  10.461
 4856W        W77182  24.103  31.592  11.859
 4857W        W77183  27.946  25.617   4.674
 4858W        W77184  22.018  17.703   2.346
 4859W        W77185   0.412  31.498  13.426
 4860W        W77186  40.422  39.036  14.316
 4861W        W77187  11.341  34.604   3.708
 4862W        W77188  18.686  14.229   0.468
 4863W        W77189  13.664  18.677   3.652
 4864W        W77190  14.657  27.186  14.986
 4865W        W77191  20.117  33.620  13.989
 4866W        W77192  37.472  23.154  12.995
 4867W        W77193  10.875  26.148   0.739
 4868W        W77194  28.955  32.118  14.423
 4869W        W77195  24.118  10.670   1.714
 4870W        W77196  38.426  23.048   2.833
 4871W        W77197   9.383  19.648   1.887
 4872W        W77198   9.376  35.431   0.282
 4873W        W77199   9.708  25.178   1.777
 4874W        W77200  34.504  18.574  11.121
 4875W        W77201  19.715  10.246   4.801
 4876W        W77202   8.781  24.496  10.503
 4877W        W77203  26.161  34.419   4.621
 4878W        W77204   1.294  19.614   0.931
 4879W        W77205  37.995  11.638   4.746
 4880W        W77206   2.267  37.034   4.303
 4881W        W77207   3.375  27.446  12.347
 4882W        W77208   2.259  41.824  11.450
 4883W        W77209   8.691   7.370  11.976
 4884W        W77210  16.581  28.663   2.861
 4885W        W77211  35.917  33.931   4.681
 4886W        W77212  18.634   1.858   3.378
 4887W        W77213  30.580  29.490   4.600
 4888W        W77214  11.370  14.324  12.459
 4889W        W77215  19.219  26.012   4.823
 4890W        W77216  43.315  25.539   0.393
 4891W        W77217   5.722  20.058  12.838
 4892W        W77218  23.680  28.042   2.190
 4893W        W77219  44.302   8.275  13.372
 4894W        W77220  41.363  27.527   4.646
 4895W        W77221  31.904  32.894   3.870
 4896W        W77222  31.409  37.990   3.725
 4897W        W77223  33.015  29.085  12.016
 4898W        W77224  43.416  27.648   1.825
 4899W        W77225  27.521  42.337  12.395
 4900W        W77226  38.009  32.088   2.302
 4901W        W77227   1.741   0.343  12.403
 4902W        W77228   8.867   4.213   1.441
 4903W        W77229  28.119   6.184  13.387
 4904W        W77230   2.798  19.620   0.380
 4905W        W77231  31.468  13.636   4.827
 4906W        W77232  22.591  38.350  11.052
 4907W        W77233   0.461  40.862  11.027
 4908W        W77234   5.379  44.893   0.804
 4909W        W77235   7.906   1.412   0.332
 4910W        W77236   3.927  34.910  11.513
 4911W        W77237  25.199  16.234  10.927
 4912W        W77238  44.453   2.932   3.152
 4913W        W77239  14.616  37.415  14.298
 4914W        W77240   9.802   8.869  10.414
 4915W        W77241   2.277   1.843   5.152
 4916W        W77242   1.968  42.891   1.285
 4917W        W77243  29.940  22.229  13.904
 4918W        W77244   9.359  22.117  12.884
 4919W        W77245  11.684  31.527  13.312
 4920W        W77246  14.148   0.893   0.397
 4921W        W77247   3.280  21.705   0.911
 4922W        W77248   4.723   4.716  13.879
 4923W        W77249  27.578  11.851  10.435
 4924W        W77250  15.258  34.952   9.659
 4925W        W77251  24.028  24.714  12.963
 4926W        W77252  42.318  25.628   2.222
 4927W        W77253  12.284  39.536  10.638
 4928W        W77254  40.000  29.509   4.766
 4929W        W77255   5.860  36.973   2.201
 4930W        W77256  34.462  32.540   2.743
 4931W        W77257  42.362  43.471  10.506
 4932W        W77258  15.578  20.124   4.257
 4933W        W77259  24.173  31.086   3.330
 4934W        W77260  36.006  31.441  14.939
 4935W        W77261  44.309  43.324  10.896
 4936W        W77262  41.332  28.444   0.959
 4937W        W77263  37.896  17.121  14.805
 4938W        W77264  34.019  26.670   4.150
 4939W        W77265  38.014  34.892   1.326
 4940W        W77266  25.488  17.653   5.602
 4941W        W77267   4.380  43.497   0.320
 4942W        W77268  41.404  16.176   1.268
 4943W        W77269  18.074  13.824   3.283
 4944W        W77270  27.520  37.416   2.285
 4945W        W77271  29.986   3.806   4.304
 4946W        W77272  43.885  28.100  14.514
 4947W        W77273  19.683   4.742   3.764
 4948W        W77274  15.134  36.388   4.623
 4949W        W77275  13.339  23.515   3.863
 4950W        W77276  37.398  25.563  14.791
 4951W        W77277  29.558  42.873  10.980
 4952W        W77278  30.526   9.652   3.272
 4953W        W77279   9.181  36.433  14.366
 4954W        W77280  36.523  19.255  11.486
 4955W        W77281   3.880   3.798  14.996
 4956W        W77282  27.459  36.508   3.807
 4957W        W77283   2.262  19.627   2.391
 4958W        W77284  33.004  42.952  14.360
 4959W        W77285   4.404  26.960   3.787
 4960W        W77286  22.169  21.231   4.176
 4961W        W77287  41.826   5.780   1.711
 4962W        W77288  18.589   3.928  11.489
 4963W        W77289  36.977  41.328   2.809
 4964W        W77290  29.570  22.557   1.894
 4965W        W77291  23.156  14.680   2.751
 4966W        W77292  36.382  12.322  14.448
 4967W        W77293  32.460  29.479  13.821
 4968W        W77294  13.727  19.258   4.279
 4969W        W77295  43.784  35.987   0.434
 4970W        W77296   9.269  22.685  12.873
 4971W        W77297   2.436  25.490  11.903
 4972W        W77298   8.818  14.645   2.216
 4973W        W77299   1.334  37.536   5.194
 4974W        W77300  30.020  12.357  12.363
 4975W        W77301   8.349  30.610  13.389
 4976W        W77302  42.474  33.113   2.200
 4977W        W77303  37.928   4.379  13.371
 4978W        W77304  41.347   4.758  12.352
 4979W        W77305  17.233   1.852   0.909
 4980W        W77306  40.534  22.617   2.243
 4981W        W77307   3.443  34.387   3.758
 4982W        W77308  16.145  38.959  14.386
 4983W        W77309  41.857  18.091   0.798
 4984W        W77310   3.368   3.388  14.949
 4985W        W77311  29.490  26.995   3.685
 4986W        W77312   9.678  21.624   3.728
 4987W        W77313  10.875  32.102  13.002
 4988W        W77314  14.334  25.617  12.361
 4989W        W77315   5.293  10.301  13.912
 4990W        W77316  16.793   2.324  14.817
 4991W        W77317   0.774  14.790   1.717
 4992W        W77318  26.650  13.735   4.256
 4993W        W77319  30.638  23.725   4.158
 4994W        W77320  26.992  36.965   1.713
 4995W        W77321  38.959  29.437   1.247
 4996W        W77322  16.739  23.205   4.191
 4997W        W77323  16.219  14.185   0.853
 4998W        W77324  40.950   8.258   2.419
 4999W        W77325  33.481  44.967  12.978
 5000W        W77326  32.111  39.010   0.817
 5001W        W77327  36.447   8.390  11.856
 5002W        W77328  20.629  17.075  12.535
 5003W        W77329  23.591   6.264  11.549
 5004W        W77330   4.762  11.153  10.407
 5005W        W77331  19.096  14.596   4.756
 5006W        W77332  28.532  32.637   4.648
 5007W        W77333  10.741   9.330   1.711
 5008W        W77334  35.102  27.059  12.995
 5009W        W77335  28.982  28.525  12.988
 5010W        W77336  10.142  22.599  13.954
 5011W        W77337  32.541  44.933   0.729
 5012W        W77338  22.227  21.652   3.783
 5013W        W77339  42.379  22.021  10.924
 5014W        W77340  28.021  15.624   4.227
 5015W        W77341  43.410  19.146  11.538
 5016W        W77342  34.898  42.003  10.576
 5017W        W77343  19.155   3.329   2.311
 5018W        W77344  32.121  39.049   4.768
 5019W        W77345  28.472  20.641   1.748
 5020W        W77346  34.558  18.731   1.364
 5021W        W77347  28.579   2.385   2.868
 5022W        W77348  41.001  36.505  11.922
 5023W        W77349  11.256  31.899   4.320
 5024W        W77350  16.192  28.949   0.772
 5025W        W77351  12.638  23.159   1.699
 5026W        W77352  38.552  22.241  13.414
 5027W        W77353  10.194  39.480   0.248
 5028W        W77354   4.851  28.592  12.523
 5029W        W77355  23.527  22.137  14.823
 5030W        W77356  32.082   2.865  11.446
 5031W        W77357   9.736  16.189  10.584
 5032W        W77358  44.402  33.541  10.603
 5033W        W77359  26.540  41.987   3.312
 5034W        W77360  19.118   5.752  13.014
 5035W        W77361  11.754   8.201  11.382
 5036W        W77362  42.438   6.352  11.588
 5037W        W77363  15.200  41.297  14.999
 5038W        W77364  17.688  26.117   0.311
 5039W        W77365  37.011  44.266   0.451
 5040W        W77366   7.234  41.024  10.455
 5041W        W77367   5.293   3.369   0.957
 5042W        W77368  24.611   8.333  11.499
 5043W        W77369  15.710   7.320   0.923
 5044W        W77370  21.257  12.170  11.091
 5045W        W77371   2.356  29.498  13.994
 5046W        W77372  28.610  37.378   2.390
 5047W        W77373  44.466  27.125  10.975
 5048W        W77374  21.065  27.157   3.218
 5049W        W77375  10.333  33.529  13.940
 5050W        W77376   7.274   4.742   0.753
 5051W        W77377   2.298  18.238  10.516
 5052W        W77378  27.621   0.394   1.300
 5053W        W77379  12.689  12.138   4.326
 5054W        W77380  31.478  38.547  11.912
 5055W        W77381   1.470  24.190  13.979
 5056W        W77382  31.000  41.915   1.752
 5057W        W77383  23.668  30.543   0.887
 5058W        W77384  37.401   9.216  14.787
 5059W        W77385   4.336  42.355   2.325
 5060W        W77386  26.039  20.116   4.302
 5061W        W77387   4.826  14.617   1.399
 5062W        W77388  19.234  36.904  13.836
 5063W        W77389  42.973  30.066   1.903
 5064W        W77390  34.538  28.094  10.608
 5065W        W77391  20.591  12.356  14.459
 5066W        W77392  13.603   2.321   4.259
 5067W        W77393   4.436   6.226  13.474
 5068W        W77394  17.098  44.899  14.008
 5069W        W77395  22.740  40.331  14.028
 5070W        W77396  34.491   9.173   2.387
 5071W        W77397  24.556  23.992  10.493
 5072W        W77398  26.506   6.392  11.116
 5073W        W77399   9.766  31.043   2.699
 5074W        W77400  14.724   3.275   2.290
 5075W        W77401   3.778  10.359  10.899
 5076W        W77402  37.050  19.706   1.275
 5077W        W77403  18.552  10.287   5.090
 5078W        W77404  11.336  35.375   1.800
 5079W        W77405  39.326  41.870   3.339
 5080W        W77406   0.862  43.483  10.898
 5081W        W77407  31.981  19.269   2.662
 5082W        W77408  39.361  28.512   0.355
 5083W        W77409  33.584  15.583   0.772
 5084W        W77410  17.771  27.544  11.975
 5085W        W77411   9.862  39.894  14.953
 5086W        W77412  16.569   3.911   2.210
 5087W        W77413  22.067   9.311   3.385
 5088W        W77414  33.078  41.793   2.250
 5089W        W77415   7.304   3.744   4.680
 5090W        W77416   5.748  38.425   4.165
 5091W        W77417  12.355   9.344   3.860
 5092W        W77418  20.611  10.660   1.263
 5093W        W77419   7.743  44.293   4.169
 5094W        W77420   6.405  31.429  11.509
 5095W        W77421  30.589  38.396  12.556
 5096W        W77422   9.864  16.725   0.376
 5097W        W77423  26.682   1.892   3.385
 5098W        W77424  31.642  36.993  12.455
 5099W        W77425  33.112  23.726   4.136
 5100W        W77426  19.696  21.200  10.917
 5101W        W77427  41.388   7.765  14.786
 5102W        W77428  43.422  25.162   4.315
 5103W        W77429  24.530   7.906   1.341
 5104W        W77430  40.868  35.515  12.388
 5105W        W77431  22.713  41.909  11.041
 5106W        W77432  28.555  32.437   4.136
 5107W        W77433   3.321  26.501   1.915
 5108W        W77434  19.701   3.433   3.306
 5109W        W77435  36.029   6.376   4.817
 5110W        W77436  40.954  43.301  11.974
 5111W        W77437  15.189   5.702  13.883
 5112W        W77438  43.828  19.616  11.021
 5113W        W77439  11.346  44.901  12.854
 5114W        W77440  27.196   8.714   4.745
 5115W        W77441   7.875  39.063  10.503
 5116W        W77442  37.371  17.222  10.585
 5117W        W77443  41.327   0.941  14.392
 5118W        W77444  18.150  22.717   3.646
 5119W        W77445  37.555  42.290  14.019
 5120W        W77446  24.673  26.182  13.446
 5121W        W77447  22.554  34.019   2.285
 5122W        W77448  21.648  16.225  14.817
 5123W        W77449  10.738   1.292  10.895
 5124W        W77450  10.151   1.480   4.318
 5125W        W77451   2.795  11.853   4.162
 5126W        W77452   7.689  43.463   2.708
 5127W        W77453  37.437  31.979  12.889
 5128W        W77454  22.631  13.685  14.423
 5129W        W77455   0.357  20.053   4.270
 5130W        W77456  14.592  40.484   2.696
 5131W        W77457  18.639  29.014   1.781
 5132W        W77458  14.817  10.815   0.290
 5133W        W77459  17.679   8.389  12.030
 5134W        W77460   7.300  40.935  12.053
 5135W        W77461  31.084  12.712   0.730
 5136W        W77462  32.002   5.246  12.533
 5137W        W77463  38.927  16.263   2.792
 5138W        W77464   6.185   6.865  13.823
 5139W        W77465  43.387   2.317  12.852
 5140W        W77466   6.205   4.789  12.494
 5141W        W77467  37.451  15.177  12.949
 5142W        W77468  24.034  38.418   2.252
 5143W        W77469  34.410   8.673   3.324
 5144W        W77470  15.129   3.740   4.240
 5145W        W77471  28.606  18.623   1.364
 5146W        W77472   0.789  23.661  11.097
 5147W        W77473   1.785   4.817  12.033
 5148W        W77474  14.703  25.040  10.029
 5149W        W77475  44.821  37.573   2.772
 5150W        W77476   0.303   6.909   3.303
 5151W        W77477  13.654  42.372  13.870
 5152W        W77478   1.402  25.142  13.043
 5153W        W77479  39.391   2.897  11.434
 5154W        W77480  27.082   2.956  13.337
 5155W        W77481   0.770  12.316   0.384
 5156W        W77482  33.081   0.745  10.978
 5157W        W77483  32.913  37.453  12.525
 5158W        W77484  23.137  22.712  14.921
 5159W        W77485  27.505  24.548  14.957
 5160W        W77486  29.159  39.512  10.972
 5161W        W77487  30.604  43.342   5.199
 5162W        W77488  25.125   8.293   2.198
 5163W        W77489   2.426  11.258  12.044
 5164W        W77490   4.820  42.985   0.463
 5165W        W77491  29.934   6.899   2.863
 5166W        W77492  25.092   5.364   1.293
 5167W        W77493  11.822  21.128  13.861
 5168W        W77494   6.814  29.150   0.416
 5169W        W77495  14.821  40.336   0.442
 5170W        W77496  39.438  34.876   4.798
 5171W        W77497  21.251  33.033   3.277
 5172W        W77498  34.103  19.192   0.891
 5173W        W77499  23.182  40.817   2.293
 5174W        W77500  35.600  28.578  10.585
 5175W        W77501   7.687  14.826   0.885
 5176W        W77502  10.703  36.548   3.380
 5177W        W77503  16.169  44.824   3.680
 5178W        W77504  43.897  24.565  12.437
 5179W        W77505  18.620  16.307  13.977
 5180W        W77506  29.161  29.475   4.687
 5181W        W77507  24.711   2.367   4.155
 5182W        W77508  16.311  22.530  10.067
 5183W        W77509   4.437  18.153   3.714
 5184W        W77510  12.786  39.557  12.421
 5185W        W77511   2.855  11.652   5.314
 5186W        W77512  38.444  25.135  10.900
 5187W        W77513  30.494  15.227  11.540
 5188W        W77514   0.459   1.810   3.283
 5189W        W77515  12.219  26.188  14.029
 5190W        W77516  15.286   6.253  13.006
 5191W        W77517  15.610   7.788  13.961
 5192W        W77518  14.136  25.161   2.410
 5193W        W77519  42.997  10.226  11.394
 5194W        W77520  26.693  31.111  10.431
 5195W        W77521   3.832  36.474  12.898
 5196W        W77522  18.071  37.994  10.506
 5197W        W77523   5.871   3.783   1.309
 5198W        W77524  22.582  25.081   4.645
 5199W        W77525  33.090  24.680  13.496
 5200W        W77526  34.074  41.492   3.795
 5201W        W77527  31.982  34.598   0.765
 5202W        W77528   1.815  20.590  12.469
 5203W        W77529  43.874  19.763  13.384
 5204W        W77530  14.618  31.042   4.677
 5205W        W77531  35.491  16.578   3.201
 5206W        W77532   0.822   0.350  13.351
 5207W        W77533  19.552  15.114  14.309
 5208W        W77534  41.905   9.218   3.682
 5209W        W77535  25.160  18.283   0.870
 5210W        W77536  14.193  20.082   0.269
 5211W        W77537  36.914  43.485   4.663
 5212W        W77538  23.037  28.101   3.837
 5213W        W77539   5.747   6.834  12.081
 5214W        W77540  20.616  14.701  14.393
 5215W        W77541   2.324  28.143   5.147
 5216W        W77542   4.401   6.916   4.275
 5217W        W77543  18.736  11.642   0.864
 5218W        W77544  42.527  13.738   0.821
 5219W        W77545  36.013  22.211   1.918
 5220W        W77546  39.547  20.640  11.937
 5221W        W77547  21.682  18.785   0.467
 5222W        W77548  11.853  18.256   3.290
 5223W        W77549   1.912  30.428  11.478
 5224W        W77550   8.850   7.871  12.970
 5225W        W77551  30.544   3.424   2.251
 5226W        W77552  26.016  44.461  14.961
 5227W        W77553  24.486  26.474   2.246
 5228W        W77554  31.138   8.258   4.597
 5229W        W77555  32.921  24.974  12.877
 5230W        W77556  18.184   3.270   3.185
 5231W        W77557  41.875  18.700  11.415
 5232W        W77558  24.598   1.474   2.803
 5233W        W77559  21.566   3.259  13.946
 5234W        W77560  30.939  11.675  11.902
 5235W        W77561   4.301  18.077  14.032
 5236W        W77562  12.239  34.431   0.440
 5237W        W77563  15.267  40.005  13.940
 5238W        W77564  41.532   3.410  11.454
 5239W        W77565  14.131   3.229  11.034
 5240W        W77566  17.705  16.683  10.474
 5241W        W77567   2.854  24.154   4.638
 5242W        W77568  42.945  28.522   3.295
 5243W        W77569  33.997   2.828  10.537
 5244W        W77570  32.612  18.081   3.307
 5245W        W77571  27.137  37.065  14.775
 5246W        W77572  43.355  27.160   2.669
 5247W        W77573  40.990   4.749   2.717
 5248W        W77574   0.931  42.398   1.694
 5249W        W77575  36.395  29.006   4.657
 5250W        W77576   3.807  37.517  13.417
 5251W        W77577   3.286   2.744  12.005
 5252W        W77578  32.955   5.778   3.855
 5253W        W77579  13.709  27.674   1.345
 5254W        W77580  43.009  36.552  13.499
 5255W        W77581  24.583  16.153  12.561
 5256W        W77582  10.693  39.349   2.305
 5257W        W77583  43.873   2.849  12.503
 5258W        W77584   2.303  28.086  12.005
 5259W        W77585  30.046   0.352   2.259
 5260W        W77586  31.913  38.076   1.701
 5261W        W77587  17.674   5.775  13.839
 5262W        W77588  22.012  30.575  13.383
 5263W        W77589   4.392  30.523   1.244
 5264W        W77590   5.915  23.716  11.610
 5265W        W77591   0.921  30.120  13.545
 5266W        W77592  15.812   9.149  14.935
 5267W        W77593  11.835  25.971  13.037
 5268W        W77594   3.358  44.331   4.258
 5269W        W77595   9.184   1.460  13.039
 5270W        W77596   8.796  14.617  12.430
 5271W        W77597  13.184   6.401   3.653
 5272W        W77598   3.889  23.662   1.254
 5273W        W77599   2.733  15.216  12.050
 5274W        W77600   4.813  30.519   2.346
 5275W        W77601  12.638  33.071  10.967
 5276W        W77602  43.969  34.488   0.395
 5277W        W77603  35.424  18.768  11.016
 5278W        W77604  39.359  11.809  12.380
 5279W        W77605  19.133  34.968   3.236
 5280W        W77606  34.578  39.982   2.249
 5281W        W77607  30.471   1.868   2.808
 5282W        W77608  14.130  18.597   0.941
 5283W        W77609  10.328  26.113   0.903
 5284W        W77610   4.917  31.118   0.807
 5285W        W77611  14.309   2.234   2.715
 5286W        W77612   3.903  10.306  12.972
 5287W        W77613  30.013  34.884   4.243
 5288W        W77614  38.075   3.831  10.517
 5289W        W77615   2.257  12.317  13.342
 5290W        W77616   4.254  37.933   0.807
 5291W        W77617  28.126   2.301  12.957
 5292W        W77618  23.574  42.468   1.232
 5293W        W77619  28.090  17.089  14.503
 5294W        W77620  12.687   5.409   0.423
 5295W        W77621  19.219  25.975  14.786
 5296W        W77622  37.473  38.435  11.518
 5297W        W77623  24.487  12.611   4.246
 5298W        W77624   0.744  38.050   4.688
 5299W        W77625  26.085   3.282  13.822
 5300W        W77626  21.548  41.313  11.092
 5301W        W77627  24.116  28.665   4.782
 5302W        W77628  24.654  40.402   4.183
 5303W        W77629   8.837  20.522   4.243
 5304W        W77630  32.031  42.363   3.728
 5305W        W77631  15.091  35.066   4.167
 5306W        W77632   8.787  22.019  10.028
 5307W        W77633  37.971   7.832  10.556
 5308W        W77634  26.131  38.557  13.367
 5309W        W77635  22.086   9.725   2.854
 5310W        W77636  27.160  40.455  12.946
 5311W        W77637   4.315  39.832  11.018
 5312W        W77638   2.763  18.229   1.211
 5313W        W77639  34.597  41.008   0.826
 5314W        W77640   9.834  41.933  12.058
 5315W        W77641   5.286  16.742   2.305
 5316W        W77642  40.939  22.109   0.909
 5317W        W77643  30.044   1.771   0.429
 5318W        W77644   9.268  43.302   0.785
 5319W        W77645   5.894  14.780  13.524
 5320W        W77646  41.488   6.403   4.278
 5321W        W77647  29.072   7.677  13.918
 5322W        W77648  14.618  35.969  14.764
 5323W        W77649  30.587   6.734  10.604
 5324W        W77650  37.969  33.495  12.369
 5325W        W77651   3.941  26.637   3.233
 5326W        W77652  38.064  36.385  13.879
 5327W        W77653  11.332  24.684   5.131
 5328W        W77654  27.502  28.074   5.609
 5329W        W77655  28.009   9.851  11.011
 5330W        W77656  22.705   2.791   4.281
 5331W        W77657  38.974  37.045   2.287
 5332W        W77658  27.114  21.695  14.286
 5333W        W77659  43.464   2.353   4.141
 5334W        W77660  41.869  19.645   4.719
 5335W        W77661  43.870  44.971   4.745
 5336W        W77662  20.242  40.432  14.300
 5337W        W77663  32.499   8.361   0.901
 5338W        W77664   9.235  15.166   4.660
 5339W        W77665  10.805  36.925  14.763
 5340W        W77666  37.363  33.963   0.255
 5341W        W77667   6.315  39.936   4.247
 5342W        W77668  21.656  42.890  14.352
 5343W        W77669  43.351  12.654  10.423
 5344W        W77670  21.141   8.685  13.368
 5345W        W77671   9.864   9.320   1.446
 5346W        W77672  23.135  30.987   1.733
 5347W        W77673   1.281  20.730  12.443
 5348W        W77674   0.862  38.414   3.202
 5349W        W77675  35.094  34.885  14.912
 5350W        W77676   5.855   4.253   3.316
 5351W        W77677  31.092  13.210  14.888
 5352W        W77678   2.271  36.841  12.053
 5353W        W77679  25.630   4.769  13.850
 5354W        W77680  34.059  30.489   0.938
 5355W        W77681  34.503  31.906  12.016
 5356W        W77682  26.463  43.808  11.396
 5357W        W77683   9.795  19.564   0.925
 5358W        W77684  23.993  24.028   2.352
 5359W        W77685  38.059  38.504   4.115
 5360W        W77686  32.478  24.620   3.192
 5361W        W77687  34.012  33.454   4.672
 5362W        W77688  24.040  35.907  14.477
 5363W        W77689  41.043  24.994  13.985
 5364W        W77690  16.666  39.047   0.846
 5365W        W77691  32.033  14.116  14.907
 5366W        W77692   0.403   6.870  11.996
 5367W        W77693  11.661  36.379   1.913
 5368W        W77694  27.655   2.306   3.158
 5369W        W77695  40.929  17.072   1.872
 5370W        W77696  26.487   3.324   2.335
 5371W        W77697  24.096  40.542   1.846
 5372W        W77698  40.547   7.670  10.449
 5373W        W77699  31.498  44.865  12.540
 5374W        W77700  38.354  12.753   3.189
 5375W        W77701  36.574   1.969  12.562
 5376W        W77702  10.691  44.358   3.356
 5377W        W77703   8.169  21.136   1.379
 5378W        W77704  36.897  43.929  13.960
 5379W        W77705   4.214  36.877  14.912
 5380W        W77706  24.213   1.846  14.338
 5381W        W77707  24.627  18.600   2.830
 5382W        W77708  32.897   5.854  13.361
 5383W        W77709  40.499  25.003  10.016
 5384W        W77710  22.660  21.071  14.432
 5385W        W77711  11.673   2.369   4.672
 5386W        W77712  37.983  32.069  10.426
 5387W        W77713  21.177   1.258   4.242
 5388W        W77714  14.646  23.225  12.985
 5389W        W77715  32.455  31.980  14.996
 5390W        W77716  24.094  13.692  14.913
 5391W        W77717  37.486  31.959   3.370
 5392W        W77718  15.117  32.414   4.610
 5393W        W77719  40.839  18.065  11.900
 5394W        W77720   2.284  27.626   4.628
 5395W        W77721  28.065  31.076  13.043
 5396W        W77722  38.513  15.093   2.886
 5397W        W77723   0.775  33.565   4.216
 5398W        W77724  43.942  44.009  12.476
 5399W        W77725  36.029  38.059  13.817
 5400W        W77726  27.473  40.306   3.320
 5401W        W77727  40.527  38.492  12.083
 5402W        W77728  15.702  19.680   4.315
 5403W        W77729  15.583  19.699  11.488
 5404W        W77730   1.923  26.057  13.345
 5405W        W77731  14.213  40.838   3.762
 5406W        W77732  17.066  34.917   1.290
 5407W        W77733  24.118   4.267   4.642
 5408W        W77734  42.014  30.457  14.392
 5409W        W77735  15.800  36.924   1.392
 5410W        W77736  21.135   5.760   4.680
 5411W        W77737  21.564   0.799   4.293
 5412W        W77738   1.372  35.567   3.740
 5413W        W77739  35.937  14.318   4.296
 5414W        W77740  24.593  27.581   0.732
 5415W        W77741   2.818   6.424  14.775
 5416W        W77742  38.989  28.602   0.392
 5417W        W77743  28.577  10.652   2.346
 5418W        W77744  10.173  38.395   1.733
 5419W        W77745  14.759  23.047  11.595
 5420W        W77746  37.485  17.676   4.644
 5421W        W77747  11.840  26.505  12.085
 5422W        W77748  44.860  23.696  14.296
 5423W        W77749  40.499  37.884   2.345
 5424W        W77750  15.802   0.430   1.783
 5425W        W77751   1.917   5.256  11.522
 5426W        W77752  37.367   8.698   3.844
 5427W        W77753  37.016  11.726   3.324
 5428W        W77754  43.290   1.962   0.726
 5429W        W77755  33.039  32.043   1.930
 5430W        W77756  15.674  20.153   3.766
 5431W        W77757  31.618  10.229   4.352
 5432W        W77758  41.961  25.165  13.926
 5433W        W77759  18.141  31.535   3.789
 5434W        W77760   4.422   5.388   0.379
 5435W        W77761   4.808  26.578  13.031
 5436W        W77762   4.740  20.268   2.727
 5437W        W77763  39.022   3.918   2.786
 5438W        W77764  15.645   8.665   1.706
 5439W        W77765  22.723  42.478  14.814
 5440W        W77766  24.635  40.050  12.887
 5441W        W77767  44.816   9.811  14.847
 5442W        W77768  18.624  29.480   3.151
 5443W        W77769  17.630  41.430   1.871
 5444W        W77770  25.026  14.708   3.282
 5445W        W77771  22.064  29.028   0.737
 5446W        W77772  21.244   6.779   1.913
 5447W        W77773  40.543  12.704   0.759
 5448W        W77774  11.734  11.159   2.194
 5449W        W77775  33.551   2.729  10.900
 5450W        W77776  14.305  29.053  13.869
 5451W        W77777  20.106  31.403  13.044
 5452W        W77778  40.384  38.990  13.853
 5453W        W77779   3.871   9.217   4.271
 5454W        W77780   0.308  17.615  10.615
 5455W        W77781  36.979  39.021   4.780
 5456W        W77782  44.440  25.100   0.876
 5457W        W77783  22.528  42.947  10.446
 5458W        W77784   3.368  12.224   0.876
 5459W        W77785   0.417  40.874  14.021
 5460W        W77786   8.330  32.579   4.831
 5461W        W77787   8.393   2.926  10.417
 5462W        W77788  28.031  37.948   2.319
 5463W        W77789  12.759  32.015   1.344
 5464W        W77790  23.501  43.974   0.347
 5465W        W77791  17.159   9.187  11.434
 5466W        W77792  10.674  44.911   3.803
 5467W        W77793  29.937  34.993   0.343
 5468W        W77794  21.141  10.833  14.467
 5469W        W77795  32.444  43.824   2.715
 5470W        W77796  40.980  27.622   3.372
 5471W        W77797  26.183   6.389  10.591
 5472W        W77798  32.891   8.318  12.059
 5473W        W77799  38.857  36.982  10.619
 5474W        W77800   3.415  28.058  14.318
 5475W        W77801  41.352  10.725   0.766
 5476W        W77802  21.681  27.950  13.386
 5477W        W77803   2.281  38.474  11.905
 5478W        W77804   0.863  17.763  10.098
 5479W        W77805  34.610   4.843   0.844
 5480W        W77806   6.305   1.319   4.764
 5481W        W77807  44.906  38.911   0.392
 5482W        W77808  37.446  13.749   0.859
 5483W        W77809  12.856  16.568   1.308
 5484W        W77810   7.348  22.047   1.819
 5485W        W77811  43.827  43.905  12.829
 5486W        W77812  22.517  37.017   1.831
 5487W        W77813   1.482  33.422  12.565
 5488W        W77814  15.770  20.114   1.406
 5489W        W77815   7.210   1.771   3.737
 5490W        W77816  14.764   3.867  10.988
 5491W        W77817   0.978  12.203  14.931
 5492W        W77818   9.758  28.675  10.990
 5493W        W77819  14.690  24.123   3.702
 5494W        W77820  34.043  39.411   4.324
 5495W        W77821  22.054  44.406   1.318
 5496W        W77822  33.953  20.141  12.545
 5497W        W77823  35.902   3.921   4.636
 5498W        W77824  22.225   5.421  14.993
 5499W        W77825  38.390  29.134  11.381
 5500W        W77826  28.078  31.501  13.507
 5501W        W77827  16.689  17.577  14.001
 5502W        W77828  44.879  16.275  13.357
 5503W        W77829  40.545  11.183  10.408
 5504W        W77830  39.047  31.002  13.456
 5505W        W77831   7.193  32.459  14.871
 5506W        W77832  25.676   4.251   4.134
 5507W        W77833  21.211   6.342   3.685
 5508W        W77834  32.948  28.497   4.748
 5509W        W77835   6.682  22.182  12.047
 5510W        W77836   9.256   5.770   3.246
 5511W        W77837  30.468  22.113  13.002
 5512W        W77838  21.031  10.150  11.423
 5513W        W77839  36.900  18.236   0.432
 5514W        W77840  31.094  20.594  12.950
 5515W        W77841  44.876  40.877   4.782
 5516W        W77842  23.063  11.292  10.945
 5517W        W77843   6.196   6.860   2.193
 5518W        W77844  26.968  28.082  14.449
 5519W        W77845  16.667  29.514   4.597
 5520W        W77846  29.967  19.246   0.737
 5521W        W77847  16.103  34.910  12.022
 5522W        W77848   0.882  10.871   1.394
 5523W        W77849  27.603  14.672  13.486
 5524W        W77850  19.604  19.199  11.974
 5525W        W77851  21.663  21.228   0.892
 5526W        W77852  12.811  11.694   1.761
 5527W        W77853  24.029   6.415  14.417
 5528W        W77854  11.300  42.824  10.968
 5529W        W77855  16.608  19.569  10.553
 5530W        W77856  25.636   5.888  14.929
 5531W        W77857  35.526   7.363   1.837
 5532W        W77858  18.696  30.104  14.401
 5533W        W77859  12.245  15.101  12.453
 5534W        W77860  25.606  43.822   3.302
 5535W        W77861  23.528   8.382   0.807
 5536W        W77862  36.051  12.852  12.947
 5537W        W77863  43.808  20.076  11.605
 5538W        W77864  36.397   9.321  13.835
 5539W        W77865   4.336  41.907   2.279
 5540W        W77866  41.526  10.773  13.535
 5541W        W77867  12.180  31.122   0.292
 5542W        W77868  43.828  36.098  12.055
 5543W        W77869   8.245  37.836  13.042
 5544W        W77870  42.501  12.298   0.251
 5545W        W77871  16.080  34.062   1.717
 5546W        W77872  14.179  27.043   3.823
 5547W        W77873  33.120  19.084   1.885
 5548W        W77874  25.182  14.745  13.503
 5549W        W77875  23.570  41.814  10.894
 5550W        W77876   6.352  23.004  13.908
 5551W        W77877   9.795  36.528  14.832
 5552W        W77878  15.807  33.590   3.870
 5553W        W77879   7.823  39.938   2.317
 5554W        W77880  33.449   2.810   0.250
 5555W        W77881  27.163  34.455   3.865
 5556W        W77882  12.751   3.834  11.374
 5557W        W77883   1.274  41.441  12.911
 5558W        W77884  22.200  25.067  14.322
 5559W        W77885  33.547  24.709   4.121
 5560W        W77886  14.199  37.038  10.429
 5561W        W77887  34.427  43.888  13.032
 5562W        W77888  35.081  15.209  10.887
 5563W        W77889  31.505  20.747   0.927
 5564W        W77890  39.916  16.318   1.713
 5565W        W77891  10.647  35.408  12.032
 5566W        W77892  44.882   3.942   0.450
 5567W        W77893   3.303  25.981  10.987
 5568W        W77894  18.295   3.459   1.756
 5569W        W77895  31.082  36.373   4.258
 5570W        W77896   6.202  31.612   0.940
 5571W        W77897  22.554  18.154   2.323
 5572W        W77898  20.544  13.750  10.587
 5573W        W77899  21.547   9.175  11.958
 5574W        W77900  23.729  31.013  13.952
 5575W        W77901  21.583  42.986   5.271
 5576W        W77902  22.068   9.276  12.550
 5577W        W77903  31.498  44.765   0.365
 5578W        W77904  39.871   3.910   2.740
 5579W        W77905  11.249   3.742   2.364
 5580W        W77906  14.195   1.466   4.797
 5581W        W77907   7.183   0.849   1.839
 5582W        W77908  38.917  33.900  10.448
 5583W        W77909   3.805  16.688  10.428
 5584W        W77910  11.803   5.328   3.678
 5585W        W77911  37.855  27.196   1.288
 5586W        W77912  39.337   1.753   1.248
 5587W        W77913  12.693  38.340   4.325
 5588W        W77914  14.631  42.901  14.880
 5589W        W77915   8.894  20.559  14.275
 5590W        W77916  15.704  38.955   4.824
 5591W        W77917  12.794  22.571   1.358
 5592W        W77918   0.389   6.682   1.386
 5593W        W77919  33.624  14.766   1.348
 5594W        W77920  29.095  31.522   1.923
 5595W        W77921   8.664  39.936  14.301
 5596W        W77922  17.639  26.593  14.288
 5597W        W77923   3.372   1.254   1.314
 5598W        W77924   5.203  25.042   3.844
 5599W        W77925  28.152  24.661  10.447
 5600W        W77926  23.118  38.514  11.111
 5601W        W77927  21.204  26.025   4.708
 5602W        W77928  38.430  40.812   3.213
 5603W        W77929   2.833  37.044   1.718
 5604W        W77930  36.584   1.350  14.916
 5605W        W77931  15.196   7.304   0.367
 5606W        W77932   3.347  39.910   1.857
 5607W        W77933   6.273  39.432  14.778
 5608W        W77934   0.899  38.419  13.806
 5609W        W77935  33.070  31.073   3.281
 5610W        W77936  22.724  34.374  10.517
 5611W        W77937  20.573  34.603  11.093
 5612W        W77938  44.276  12.779   2.311
 5613W        W77939  32.596   7.272  10.980
 5614W        W77940  32.457  41.499  11.876
 5615W        W77941  39.826  34.386   0.296
 5616W        W77942   4.738  44.933  13.923
 5617W        W77943  27.632  29.175  14.294
 5618W        W77944  13.243  39.419  13.926
 5619W        W77945  22.651   1.435   3.327
 5620W        W77946  37.451  43.426   1.857
 5621W        W77947  26.562  12.155   4.292
 5622W        W77948  24.642   8.857   4.285
 5623W        W77949  35.600  21.710   0.746
 5624W        W77950  42.835   5.923   1.920
 5625W        W77951  33.490  21.124  11.108
 5626W        W77952  27.028  35.049  13.965
 5627W        W77953  14.696  44.835   4.821
 5628W        W77954  34.401  25.484   0.795
 5629W        W77955  44.937  25.173  14.338
 5630W        W77956  11.799   7.875   9.988
 5631W        W77957   4.422  28.577   2.879
 5632W        W77958  11.759  28.671  12.001
 5633W        W77959  25.136  31.424   4.798
 5634W        W77960  10.874  11.702   2.182
 5635W        W77961  21.726  42.480   2.246
 5636W        W77962  40.515  35.380  12.462
 5637W        W77963   8.227  32.435  12.854
 5638W        W77964   2.268  22.198   3.673
 5639W        W77965  39.019   1.242   4.666
 5640W        W77966  19.078  38.900   3.654
 5641W        W77967  32.596  43.373   2.767
 5642W        W77968  44.900   8.678   0.854
 5643W        W77969  31.506   6.257   0.310
 5644W        W77970  34.963  26.170  11.948
 5645W        W77971   2.788  33.981   4.162
 5646W        W77972  25.604  44.794   4.752
 5647W        W77973  37.453  15.111  13.377
 5648W        W77974   9.190   0.379  10.593
 5649W        W77975  42.287  19.714  12.853
 5650W        W77976  18.686  15.246  10.539
 5651W        W77977  27.461  24.572  10.532
 5652W        W77978  38.857  13.741  10.580
 5653W        W77979  11.645  39.446   2.193
 5654W        W77980  44.352  37.503   9.931
 5655W        W77981  33.552  33.972  13.516
 5656W        W77982  36.917  35.897  13.392
 5657W        W77983  10.254  20.099  14.423
 5658W        W77984  18.728  11.330   3.247
 5659W        W77985   6.261   1.469  13.389
 5660W        W77986  27.569  22.598  11.456
 5661W        W77987  43.940  29.160  12.556
 5662W        W77988  27.983  33.061   0.945
 5663W        W77989   1.418   3.456  11.959
 5664W        W77990  14.152  22.103   3.630
 5665W        W77991  36.873   7.767  12.531
 5666W        W77992   7.317   3.710  11.379
 5667W        W77993  37.451  18.616  10.447
 5668W        W77994  35.958  41.989  14.366
 5669W        W77995  30.136  25.188   1.330
 5670W        W77996  16.662   5.373  12.916
 5671W        W77997  23.639   7.361   0.373
 5672W        W77998  21.221  29.517  14.991
 5673W        W77999  31.948   5.256   1.417
 5674W        W78000  38.364  32.897  12.902
 5675W        W78001  21.213   1.457   3.368
 5676W        W78002  29.105  26.079   3.152
 5677W        W78003  20.167  18.610  13.836
 5678W        W78004  24.711  31.918  11.999
 5679W        W78005  12.662  20.074   2.855
 5680W        W78006  31.601  13.350   1.858
 5681W        W78007  41.854  15.179  14.319
 5682W        W78008  26.618  42.862  10.960
 5683W        W78009  18.679   8.694  13.430
 5684W        W78010   3.241  28.439  14.475
 5685W        W78011  12.355  41.982  14.910
 5686W        W78012  26.520   6.729   4.803
 5687W        W78013   7.857  18.085   2.897
 5688W        W78014  19.285  28.129  13.957
 5689W        W78015  36.537   5.360   4.272
 5690W        W78016  15.194  24.045   0.751
 5691W        W78017  14.254   2.942   0.347
 5692W        W78018  22.569  20.734  10.457
 5693W        W78019  29.050  25.974  10.925
 5694W        W78020  41.830   0.453   4.347
 5695W        W78021  17.698  13.653   3.827
 5696W        W78022  34.084  21.707  13.897
 5697W        W78023  32.611   9.325   2.418
 5698W        W78024   0.770  34.478   1.340
 5699W        W78025  37.513  31.052  12.951
 5700W        W78026  17.756  19.283  12.405
 5701W        W78027  24.071  34.054   0.750
 5702W        W78028   0.952  21.051   0.288
 5703W        W78029  30.565  14.774   1.744
 5704W        W78030  24.079  21.539   4.796
 5705W        W78031  39.531  41.421   0.775
 5706W        W78032  31.037  28.488   4.652
 5707W        W78033  43.954  11.169  14.007
 5708W        W78034  11.169   3.236   1.266
 5709W        W78035  20.736  22.552  14.338
 5710W        W78036  21.160  13.259   0.747
 5711W        W78037  26.634   9.704  10.602
 5712W        W78038  24.503  23.098   4.229
 5713W        W78039   0.871   7.285  13.403
 5714W        W78040  12.685  10.687  14.440
 5715W        W78041  39.407  28.959  11.915
 5716W        W78042  11.713  11.352  11.996
 5717W        W78043  15.791  31.619   0.858
 5718W        W78044  26.076  17.107   0.778
 5719W        W78045  27.575  29.590  12.841
 5720W        W78046  28.645  31.586   4.703
 5721W        W78047  32.393  12.273  12.866
 5722W        W78048  32.562   3.248   3.381
 5723W        W78049   7.319  18.610  11.428
 5724W        W78050   1.972   9.678   4.260
 5725W        W78051  38.911   3.295   1.880
 5726W        W78052  13.112   9.864   3.631
 5727W        W78053  44.281  42.334  11.425
 5728W        W78054   7.231  18.734  12.833
 5729W        W78055   3.939  34.432  14.874
 5730W        W78056  11.729  27.130  14.304
 5731W        W78057  36.016   0.839   0.400
 5732W        W78058   8.292  16.232  13.965
 5733W        W78059  17.684  42.484  14.951
 5734W        W78060  33.953  36.502  12.568
 5735W        W78061  26.011  41.949   2.835
 5736W        W78062  12.170   9.685  12.558
 5737W        W78063  41.400  32.889   1.700
 5738W        W78064  21.520   0.851  11.947
 5739W        W78065   8.660  19.609  12.024
 5740W        W78066  21.685  13.844   1.869
 5741W        W78067  17.734  24.107   4.741
 5742W        W78068   6.856   0.493  13.867
 5743W        W78069  14.652  24.127  11.113
 5744W        W78070  44.913  29.426   4.150
 5745W        W78071  29.637  40.028   0.468
 5746W        W78072   7.214   2.887   4.598
 5747W        W78073  38.546  23.732  14.858
 5748W        W78074   9.829   8.853   2.197
 5749W        W78075  11.290  26.143   1.847
 5750W        W78076  11.319  22.517  14.476
 5751W        W78077  19.690  24.712   4.607
 5752W        W78078   7.795  33.578  10.568
 5753W        W78079   1.958  21.031   5.785
 5754W        W78080  23.996  36.415  14.000
 5755W        W78081  13.134  31.456  13.793
 5756W        W78082  27.072   0.377   2.311
 5757W        W78083  40.347  37.448   0.391
 5758W        W78084  33.616   4.236  14.813
 5759W        W78085  30.142  41.425  10.533
 5760W        W78086   0.316  28.044   2.817
 5761W        W78087   5.777  39.004  13.428
 5762W        W78088  29.052   1.340  14.341
 5763W        W78089  24.709  16.182   9.996
 5764W        W78090  30.647  20.108  14.897
 5765W        W78091  44.272   9.388  13.028
 5766W        W78092  26.558  14.735  11.043
 5767W        W78093  11.633  30.457  11.124
 5768W        W78094  43.858  34.450   2.670
 5769W        W78095   4.938  41.970   2.773
 5770W        W78096  42.430  38.887   2.849
 5771W        W78097  30.063  20.058   4.274
 5772W        W78098   0.774   7.207   2.858
 5773W        W78099   7.796  25.160   9.956
 5774W        W78100  29.598  37.464   1.211
 5775W        W78101   1.913  25.182  13.992
 5776W        W78102  35.469  27.145   3.654
 5777W        W78103   4.925  36.488  14.967
 5778W        W78104  33.098   1.345   1.834
 5779W        W78105   5.752  39.860   2.709
 5780W        W78106  41.505  14.328   0.787
 5781W        W78107  41.402  16.584  11.494
 5782W        W78108  37.555  16.792   2.334
 5783W        W78109   5.194  19.596   3.725
 5784W        W78110  22.040  24.708   0.347
 5785W        W78111  28.962  21.723  13.876
 5786W        W78112  26.975  41.847  11.495
 5787W        W78113  23.206  44.386   1.713
 5788W        W78114  42.803  26.654   1.709
 5789W        W78115  44.478  25.105  13.020
 5790W        W78116   3.338  42.966  10.898
 5791W        W78117  36.500  15.292  13.369
 5792W        W78118  18.629  31.556   0.384
 5793W        W78119  13.837  20.729  12.834
 5794W        W78120  43.375   2.924   3.743
 5795W        W78121  27.625   7.333   1.398
 5796W        W78122  16.197  37.952   4.730
 5797W        W78123  26.182  31.427   4.281
 5798W        W78124  39.014  34.940   2.808
 5799W        W78125   3.351  38.491   2.791
 5800W        W78126   2.284  43.849   0.728
 5801W        W78127  15.126   2.832   0.888
 5802W        W78128  28.481  39.546  13.038
 5803W        W78129  41.937  24.663  13.533
 5804W        W78130   5.234  18.252  13.991
 5805W        W78131  10.849   6.330   1.866
 5806W        W78132   2.872  23.003  13.343
 5807W        W78133   8.263  42.988   4.642
 5808W        W78134   8.773  35.089   0.828
 5809W        W78135  43.983   7.374  14.783
 5810W        W78136  25.594  34.011  10.592
 5811W        W78137   2.764  26.499   0.891
 5812W        W78138  40.889   2.429  14.443
 5813W        W78139   4.808  15.279   0.904
 5814W        W78140   9.683  18.643  12.428
 5815W        W78141  32.523  28.494   4.763
 5816W        W78142   9.797  40.535   4.235
 5817W        W78143  18.685  25.085   0.945
 5818W        W78144  39.812  23.177   2.205
 5819W        W78145   4.748   6.896  11.128
 5820W        W78146  15.667   1.379  12.087
 5821W        W78147  20.267  31.149   1.363
 5822W        W78148  12.198  10.695  13.384
 5823W        W78149  32.069  11.631   5.265
 5824W        W78150  32.400  37.070   0.952
 5825W        W78151  42.499  38.943  10.993
 5826W        W78152  32.574  34.114   1.251
 5827W        W78153  42.957  22.052   3.378
 5828W        W78154  25.973  44.792   0.782
 5829W        W78155  35.569  34.934   4.835
 5830W        W78156  24.569  20.258   4.334
 5831W        W78157  20.544  10.358  13.308
 5832W        W78158  27.613  26.670   3.248
 5833W        W78159  16.090  14.271  12.344
 5834W        W78160  36.488  38.444   2.863
 5835W        W78161   3.944   3.852   5.783
 5836W        W78162  22.552   9.803   3.782
 5837W        W78163  15.646  13.771   4.323
 5838W        W78164  20.110  27.155  10.993
 5839W        W78165  16.812  18.192  13.895
 5840W        W78166  44.912  31.447   2.848
 5841W        W78167   4.434  10.807   4.734
 5842W        W78168  38.027   4.808   0.950
 5843W        W78169  23.509  22.139  11.978
 5844W        W78170   7.203  30.599   0.814
 5845W        W78171  40.897  12.138   0.373
 5846W        W78172  35.547   9.269  10.524
 5847W        W78173  18.253  41.937  11.554
 5848W        W78174   7.180  23.036   0.876
 5849W        W78175  34.476  10.641  11.578
 5850W        W78176   6.702  19.564   2.828
 5851W        W78177  35.383   5.931  14.016
 5852W        W78178  27.456  43.770  10.560
 5853W        W78179  17.207  10.139   5.295
 5854W        W78180   4.247  37.984  13.503
 5855W        W78181   1.344  34.612   1.357
 5856W        W78182  43.289   8.703  11.605
 5857W        W78183  23.553  38.067  14.282
 5858W        W78184  12.644   2.439  12.427
 5859W        W78185   3.802  34.514   0.949
 5860W        W78186  36.420  30.021   2.835
 5861W        W78187   3.278  41.341  12.561
 5862W        W78188  32.578  42.307  12.876
 5863W        W78189  28.604  30.109  11.452
 5864W        W78190  32.464   5.905   0.749
 5865W        W78191   1.327   0.248  13.016
 5866W        W78192  25.505  32.895  14.381
 5867W        W78193  29.963  32.627  14.981
 5868W        W78194  38.923  18.664   3.871
 5869W        W78195  19.091   9.864   0.790
 5870W        W78196  20.173  28.646   0.444
 5871W        W78197   6.243  13.225   4.233
 5872W        W78198  35.455  42.984   0.437
 5873W        W78199   1.314  12.301   1.906
 5874W        W78200  44.440  36.860   0.905
 5875W        W78201   7.264  39.414   4.748
 5876W        W78202  25.631   4.928   1.415
 5877W        W78203   6.316  29.115   2.385
 5878W        W78204  22.210  26.532   2.803
 5879W        W78205  21.527   2.845  11.894
 5880W        W78206  10.691  39.969   2.296
 5881W        W78207   5.236  20.115  13.822
 5882W        W78208   2.862  39.997   0.854
 5883W        W78209  41.323  16.600   0.474
 5884W        W78210  37.561  22.531  13.943
 5885W        W78211  15.801   9.761  13.977
 5886W        W78212  40.346  22.050   2.394
 5887W        W78213   0.903  12.248  14.291
 5888W        W78214  44.409  11.159  14.337
 5889W        W78215  37.527  36.015  12.843
 5890W        W78216  26.128   3.296  14.864
 5891W        W78217  12.288  40.896   3.165
 5892W        W78218   7.887  38.473   1.765
 5893W        W78219   5.260   4.213  11.073
 5894W        W78220  44.000  43.850  14.878
 5895W        W78221  44.272   4.910  11.956
 5896W        W78222  10.705  40.307  13.982
 5897W        W78223  44.969   2.945  14.974
 5898W        W78224  25.176  14.106   0.959
 5899W        W78225  38.528  28.544   2.252
 5900W        W78226  14.608   9.159  11.431
 5901W        W78227  37.579  15.671   1.340
 5902W        W78228  41.339   3.759  11.070
 5903W        W78229  37.405  29.506   1.813
 5904W        W78230  13.794  18.160  10.437
 5905W        W78231  13.350  42.446  14.920
 5906W        W78232   8.804  26.968   3.212
 5907W        W78233  10.209  14.103   3.205
 5908W        W78234  26.004  32.562  10.630
 5909W        W78235  29.962  44.812   0.433
 5910W        W78236  34.380  33.040   1.887
 5911W        W78237  41.885   6.739  14.326
 5912W        W78238  28.572   6.716  13.853
 5913W        W78239  21.120  22.063   1.863
 5914W        W78240   3.432  17.768   3.770
 5915W        W78241   3.330  18.728   4.722
 5916W        W78242  44.758  33.446  11.931
 5917W        W78243  14.646  26.510   2.894
 5918W        W78244  36.561  27.449  11.039
 5919W        W78245  38.051   6.404   0.264
 5920W        W78246   8.348  21.160  12.559
 5921W        W78247   1.337   9.730  14.901
 5922W        W78248  13.345  36.922   9.966
 5923W        W78249  36.573   0.905  10.615
 5924W        W78250  12.763  19.592  12.024
 5925W        W78251  32.572  17.789   1.368
 5926W        W78252  26.472  27.169   9.502
 5927W        W78253   2.273  25.562   1.916
 5928W        W78254  23.142  36.380   4.296
 5929W        W78255   1.405   6.720   0.257
 5930W        W78256  42.804  40.903   3.253
 5931W        W78257  37.875   4.858  10.511
 5932W        W78258   5.847  12.194  10.415
 5933W        W78259  20.677   2.413  11.968
 5934W        W78260  32.015   8.382  13.019
 5935W        W78261   1.370  29.540   3.386
 5936W        W78262   3.408  35.987   2.709
 5937W        W78263  28.454  36.072   2.874
 5938W        W78264  11.784  28.087  14.810
 5939W        W78265  11.208  35.046   2.859
 5940W        W78266  31.444  16.114  14.284
 5941W        W78267  41.824  26.528   2.318
 5942W        W78268  22.656  22.599   3.247
 5943W        W78269  43.937  23.573  13.953
 5944W        W78270   7.716  44.436   2.360
 5945W        W78271  32.579  42.968  11.449
 5946W        W78272  12.827  27.650   3.272
 5947W        W78273  44.309  14.093  11.073
 5948W        W78274  21.600   8.793   3.330
 5949W        W78275  39.922  35.420   4.694
 5950W        W78276   9.311   9.692  12.004
 5951W        W78277  24.611  43.943   0.889
 5952W        W78278  30.930   7.829   2.196
 5953W        W78279  25.167  43.974  13.480
 5954W        W78280  20.252   3.248  14.397
 5955W        W78281   8.865  10.700  13.393
 5956W        W78282  14.821   0.355   1.444
 5957W        W78283  13.749  25.500  10.922
 5958W        W78284  38.987   8.361  13.310
 5959W        W78285  26.053  19.219   1.318
 5960W        W78286  10.178  33.948  12.095
 5961W        W78287  19.757   9.377   1.217
 5962W        W78288  10.707  36.575  11.424
 5963W        W78289  39.994  20.086  12.512
 5964W        W78290  44.942  10.804  11.494
 5965W        W78291  25.996  12.751   1.442
 5966W        W78292  29.482  24.670  12.007
 5967W        W78293  22.675  26.971   4.224
 5968W        W78294  44.980  40.958   3.283
 5969W        W78295  12.226  16.801   2.183
 5970W        W78296  11.148  10.329   3.258
 5971W        W78297   7.760  29.485  12.936
 5972W        W78298  13.661   2.742   1.909
 5973W        W78299  44.002  20.052  13.487
 5974W        W78300  39.064  38.367  13.524
 5975W        W78301  33.070   1.751   1.241
 5976W        W78302  29.061  10.728   1.296
 5977W        W78303   9.189  29.669   4.785
 5978W        W78304  39.533  26.067  12.940
 5979W        W78305   1.265   6.215  14.892
 5980W        W78306  29.448  24.684  13.816
 5981W        W78307  28.162   4.874   2.674
 5982W        W78308  24.519  12.261  14.822
 5983W        W78309  17.247  26.158   4.233
 5984W        W78310  33.075  28.184   3.710
 5985W        W78311  22.229  33.003  13.523
 5986W        W78312   4.758   8.256  13.028
 5987W        W78313   9.775  14.187  11.396
 5988W        W78314  23.113  20.166   4.308
 5989W        W78315  25.071  18.092   4.606
 5990W        W78316   5.897  12.202   4.273
 5991W        W78317  43.340  38.433   1.379
 5992W        W78318   9.336   4.230  13.463
 5993W        W78319  21.747  18.108   3.195
 5994W        W78320   6.812   8.855   4.714
 5995W        W78321  43.992  19.672   3.658
 5996W        W78322  27.166  23.187   4.752
 5997W        W78323  17.785  15.656   4.672
 5998W        W78324  22.624  32.415   3.155
 5999W        W78325  28.086  13.750  14.966
 6000W        W78326  38.889  35.947   0.378
 6001W        W78327  30.035  21.544  11.039
 6002W        W78328  33.461  13.150   1.429
 6003W        W78329  15.276  36.079  10.141
 6004W        W78330  15.153  37.419   0.450
 6005W        W78331  44.433   5.782   2.341
 6006W        W78332   6.909  24.702  11.437
 6007W        W78333   7.269  15.765  13.954
 6008W        W78334  13.748  15.299   4.156
 6009W        W78335  39.962  26.985  13.542
 6010W        W78336  12.244   3.900  10.565
 6011W        W78337  44.002  22.704  14.902
 6012W        W78338  43.381  23.066  14.938
 6013W        W78339  11.632  11.225   0.807
 6014W        W78340  34.980   2.821   4.694
 6015W        W78341  33.128  22.638  11.516
 6016W        W78342  10.678  21.517   3.153
 6017W        W78343  23.057  30.116   1.848
 6018W        W78344  41.005  26.608  12.012
 6019W        W78345   4.819  24.508   3.840
 6020W        W78346  21.097  26.037   0.483
 6021W        W78347  10.335  12.334  12.884
 6022W        W78348  22.996   4.206   0.838
 6023W        W78349   3.727  10.208   1.335
 6024W        W78350  44.848  26.206  11.568
 6025W        W78351  29.588  15.813  10.477
 6026W        W78352  44.401  26.134   3.345
 6027W        W78353  36.881  39.812  10.579
 6028W        W78354   8.322  36.353  11.939
 6029W        W78355  24.012  21.033  10.907
 6030W        W78356  29.921   0.434  13.505
 6031W        W78357   0.357  37.845  10.439
 6032W        W78358   7.210  37.580  11.884
 6033W        W78359  11.639  25.618  13.353
 6034W        W78360  10.234  40.538   1.852
 6035W        W78361  20.153  29.108  11.034
 6036W        W78362  26.174  30.161   4.620
 6037W        W78363   7.225  14.316   0.958
 6038W        W78364   9.200   4.707  10.451
 6039W        W78365  20.074  13.641  12.887
 6040W        W78366  21.691  11.169   2.192
 6041W        W78367   5.396   7.266   2.729
 6042W        W78368  38.954  23.233   1.302
 6043W        W78369  39.329  20.608  14.390
 6044W        W78370  12.857  40.047  14.876
 6045W        W78371  31.482  28.658   0.799
 6046W        W78372  11.853  18.678   1.837
 6047W        W78373  34.466  26.614  14.463
 6048W        W78374  23.689  40.943   3.867
 6049W        W78375  12.289  23.101   3.732
 6050W        W78376  13.600   1.804   4.341
 6051W        W78377  37.076  13.787   3.631
 6052W        W78378  22.653  31.983  11.417
 6053W        W78379  30.656  38.902  10.960
 6054W        W78380  33.404  35.538  14.484
 6055W        W78381  37.972   2.748   1.376
 6056W        W78382  40.978  40.330   2.347
 6057W        W78383  18.280  25.024   4.117
 6058W        W78384  14.111  36.441   1.702
 6059W        W78385  42.383  26.678  13.009
 6060W        W78386   1.885  14.298  13.308
 6061W        W78387   1.950  25.482  12.490
 6062W        W78388  27.574   4.335  14.842
 6063W        W78389  11.160  35.039   2.364
 6064W        W78390   1.356  16.723  14.827
 6065W        W78391  24.577  17.088  14.475
 6066W        W78392  33.882  30.440   3.189
 6067W        W78393  40.490  16.165   0.835
 6068W        W78394  20.031   1.366  14.368
 6069W        W78395  20.167  16.624   0.450
 6070W        W78396   9.214   6.770   4.279
 6071W        W78397  40.811  18.622   2.713
 6072W        W78398  39.493  20.584   2.328
 6073W        W78399  30.534   6.888  14.874
 6074W        W78400  12.210   4.942  14.777
 6075W        W78401   7.353   8.844   4.202
 6076W        W78402  26.540   2.787   3.739
 6077W        W78403  32.410  12.853  13.517
 6078W        W78404  22.745   3.711   0.940
 6079W        W78405  27.058   5.375  13.036
 6080W        W78406  16.612  36.930   4.761
 6081W        W78407  36.033  23.050  10.929
 6082W        W78408  16.777  38.497  10.555
 6083W        W78409  16.794  12.713  11.124
 6084W        W78410  15.227  12.317   1.314
 6085W        W78411   0.798  29.663   3.159
 6086W        W78412   0.408  18.075   0.462
 6087W        W78413   7.773  11.237   2.825
 6088W        W78414  22.598   3.370   4.297
 6089W        W78415  19.773  27.039   2.835
 6090W        W78416   4.898   9.844  13.873
 6091W        W78417  31.010  31.147  14.455
 6092W        W78418   1.745  37.460   0.284
 6093W        W78419  23.669  37.972   4.213
 6094W        W78420  43.980  19.779  12.413
 6095W        W78421  22.130  21.557   1.729
 6096W        W78422  10.187   9.284  13.854
 6097W        W78423  11.356   1.458  14.450
 6098W        W78424  19.252  28.528  12.955
 6099W        W78425  15.585   5.689  10.153
 6100W        W78426  23.048  39.962   2.217
 6101W        W78427  29.028  33.453  11.405
 6102W        W78428   7.195  27.993  10.901
 6103W        W78429  19.257   8.763  12.824
 6104W        W78430  14.694   3.800  14.281
 6105W        W78431   0.972   0.961  12.030
 6106W        W78432  36.584  31.904  10.440
 6107W        W78433  35.908  23.052  13.873
 6108W        W78434   0.778  29.637  11.932
 6109W        W78435  14.163  24.716   9.519
 6110W        W78436  30.922  24.071  10.965
 6111W        W78437   0.311  13.280   3.794
 6112W        W78438  28.573  25.655   0.797
 6113W        W78439  29.067   1.849   1.338
 6114W        W78440   0.404  30.650  14.808
 6115W        W78441  13.277  42.407  11.613
 6116W        W78442  38.046  14.301   2.270
 6117W        W78443  44.902  12.741  13.038
 6118W        W78444  13.234  30.474  10.928
 6119W        W78445   7.183  22.588   0.266
 6120W        W78446  25.084  25.208  14.933
 6121W        W78447  16.145   6.893  14.469
 6122W        W78448  11.788  42.342   2.298
 6123W        W78449  34.557  41.006   0.363
 6124W        W78450  30.909  22.630   0.347
 6125W        W78451   3.788   9.886   0.934
 6126W        W78452  15.182  17.574  13.339
 6127W        W78453   1.472   7.402   3.184
 6128W        W78454  26.159   2.945  14.778
 6129W        W78455  35.541  40.333   2.680
 6130W        W78456   2.291  17.142  10.023
 6131W        W78457   0.750  40.892  11.126
 6132W        W78458   3.440  20.249   0.458
 6133W        W78459  36.008  41.899   0.819
 6134W        W78460  28.988  24.521  12.988
 6135W        W78461   3.885  19.111  10.546
 6136W        W78462  24.215   6.733   0.277
 6137W        W78463  41.815  28.650   0.271
 6138W        W78464   6.365  31.556   3.200
 6139W        W78465  35.456  27.529  14.006
 6140W        W78466  15.724  10.164  14.427
 6141W        W78467  15.675  32.548   2.805
 6142W        W78468  28.113   1.814  11.040
 6143W        W78469  22.211  13.168   1.729
 6144W        W78470   2.259  44.464   4.244
 6145W        W78471  21.149  24.479   2.384
 6146W        W78472   1.377  13.189   0.926
 6147W        W78473   8.883  19.183   4.321
 6148W        W78474   7.832  10.183  11.999
 6149W        W78475   0.462  44.874  14.802
 6150W        W78476  21.751  40.541   3.277
 6151W        W78477  28.094  19.185   4.146
 6152W        W78478  43.475  14.293   0.801
 6153W        W78479  28.122   4.322  12.966
 6154W        W78480  33.070  10.306   0.455
 6155W        W78481  24.997   7.333  13.865
 6156W        W78482  33.542   4.878  13.024
 6157W        W78483  18.062   4.413   1.708
 6158W        W78484  27.952  28.119  14.415
 6159W        W78485  34.404  36.939  12.514
 6160W        W78486  10.187   6.327   4.291
 6161W        W78487  35.014  41.864   1.735
 6162W        W78488  18.213  30.549   0.765
 6163W        W78489   5.791  30.980  13.903
 6164W        W78490  35.950  16.272  13.961
 6165W        W78491  33.408  13.721  12.364
 6166W        W78492  28.180  20.132  12.498
 6167W        W78493  34.918  27.126  13.428
 6168W        W78494  12.829  18.679  11.376
 6169W        W78495  13.715  20.055   3.247
 6170W        W78496   4.417  40.548   4.838
 6171W        W78497   0.488  22.624  12.368
 6172W        W78498  18.053   5.905   1.295
 6173W        W78499  18.174  37.947   2.885
 6174W        W78500   9.668  24.047  14.902
 6175W        W78501  44.285  20.202  11.084
 6176W        W78502   2.829   6.893   1.284
 6177W        W78503  26.665  22.519   4.817
 6178W        W78504  20.737  14.785   1.810
 6179W        W78505   8.268  36.950  11.919
 6180W        W78506  29.635  13.303   0.951
 6181W        W78507  22.996  23.197   1.776
 6182W        W78508  25.514  42.321  14.479
 6183W        W78509  17.617  14.648   1.335
 6184W        W78510  10.720  31.929  11.980
 6185W        W78511  36.533  14.323   4.711
 6186W        W78512  17.605  18.630  14.403
 6187W        W78513  19.074  15.251   2.271
 6188W        W78514  29.089  32.012  10.624
 6189W        W78515  25.187  37.496  13.429
 6190W        W78516  39.508  40.404  14.319
 6191W        W78517  20.138  31.617   3.316
 6192W        W78518  14.735  44.273   4.825
 6193W        W78519  42.924  38.983  12.457
 6194W        W78520  42.915   4.310  12.940
 6195W        W78521  36.975  40.427  10.607
 6196W        W78522   2.751  24.676  11.974
 6197W        W78523  17.145  13.320  14.305
 6198W        W78524  26.691  31.964  12.056
 6199W        W78525  15.118  32.501  14.970
 6200W        W78526   3.254  41.948  13.357
 6201W        W78527  27.468  34.013  11.004
 6202W        W78528  40.513  29.563   0.787
 6203W        W78529  26.170  23.721  10.489
 6204W        W78530  19.559  39.060  10.898
 6205W        W78531  17.209   8.891  10.135
 6206W        W78532  29.123  25.568   3.298
 6207W        W78533  11.660  31.430   1.249
 6208W        W78534  31.047   4.944   1.798
 6209W        W78535  32.978  18.569  12.568
 6210W        W78536   3.332  30.048  12.525
 6211W        W78537  12.632  36.963   5.245
 6212W        W78538   6.235  11.774  13.897
 6213W        W78539  17.135   4.749  10.486
 6214W        W78540  24.104  25.520   4.643
 6215W        W78541  27.651  18.150   1.820
 6216W        W78542   7.237  10.819   1.221
 6217W        W78543  16.750  35.084   1.307
 6218W        W78544   0.367  23.127  12.875
 6219W        W78545  15.722  14.816  14.886
 6220W        W78546  12.657   5.690   3.660
 6221W        W78547  37.484   0.394   2.796
 6222W        W78548  26.558  16.579   9.981
 6223W        W78549  23.017  37.464   5.319
 6224W        W78550  33.045  36.063  13.349
 6225W        W78551  19.171  22.629  12.369
 6226W        W78552  19.697  40.411   5.306
 6227W        W78553  24.098  31.907   3.725
 6228W        W78554   9.176  23.180  11.446
 6229W        W78555  19.715  16.625   1.346
 6230W        W78556  34.573   3.436  14.297
 6231W        W78557   1.257  23.080   2.375
 6232W        W78558  32.571  39.915   2.712
 6233W        W78559  19.701  17.282   0.339
 6234W        W78560   3.238  25.212   4.824
 6235W        W78561  39.897  34.492  12.406
 6236W        W78562  22.028  42.433  11.432
 6237W        W78563  21.040   5.810   4.229
 6238W        W78564  32.480  32.430   2.737
 6239W        W78565  29.518   0.867   4.149
 6240W        W78566  27.473  32.121   3.205
 6241W        W78567  10.776  44.407   1.705
 6242W        W78568  39.876   0.305   4.310
 6243W        W78569  43.502   8.683   0.353
 6244W        W78570   5.922  32.398   2.890
 6245W        W78571  20.586   8.283   3.347
 6246W        W78572  25.599  13.836  12.826
 6247W        W78573  25.510  43.491   1.305
 6248W        W78574   7.247  43.315   3.295
 6249W        W78575  23.123  22.024   2.347
 6250W        W78576  37.356  10.682   3.779
 6251W        W78577  18.757   2.844   1.260
 6252W        W78578  22.246  34.406  12.010
 6253W        W78579  34.374  17.726  14.919
 6254W        W78580  25.069   0.771  13.032
 6255W        W78581  38.392  36.496   0.948
 6256W        W78582  28.002  21.515  11.435
 6257W        W78583  36.917  29.028  13.384
 6258W        W78584   1.238  19.551  14.977
 6259W        W78585  19.079  21.034  10.987
 6260W        W78586  25.486  31.056   1.873
 6261W        W78587  40.032  21.542  13.943
 6262W        W78588  17.632  18.572   2.789
 6263W        W78589   3.891  27.461   0.837
 6264W        W78590  12.212  23.991  13.973
 6265W        W78591  40.836  20.114   0.946
 6266W        W78592  33.488  37.426   4.244
 6267W        W78593  28.134   7.903   1.745
 6268W        W78594  13.732  33.391   4.818
 6269W        W78595  24.506  34.863   3.186
 6270W        W78596  25.058  18.596   0.374
 6271W        W78597  16.660   9.743   0.752
 6272W        W78598  38.363  39.850   4.692
 6273W        W78599  19.671  31.077  12.521
 6274W        W78600  11.645   5.749  11.004
 6275W        W78601  12.249  14.333   2.419
 6276W        W78602  19.730  37.445  13.329
 6277W        W78603  29.990  16.611  13.957
 6278W        W78604   1.448  28.676  11.024
 6279W        W78605   6.762  38.375   1.333
 6280W        W78606  21.210  12.619  10.630
 6281W        W78607  29.585  11.810   5.218
 6282W        W78608   3.375  20.249   2.666
 6283W        W78609  14.811  19.685   3.808
 6284W        W78610  31.642  19.770   4.689
 6285W        W78611   0.249   8.210   1.271
 6286W        W78612   7.295   5.399  12.887
 6287W        W78613  19.068  39.860   1.363
 6288W        W78614  16.686  18.172  13.535
 6289W        W78615  42.781  39.413   4.221
 6290W        W78616  27.042  14.115   1.897
 6291W        W78617   9.368  43.837   4.640
 6292W        W78618  41.415  43.441   1.745
 6293W        W78619  27.008  44.267  11.386
 6294W        W78620  19.691  15.307   2.883
 6295W        W78621  29.464  12.630  13.897
 6296W        W78622  26.499  41.497  13.533
 6297W        W78623  11.281  21.621  12.874
 6298W        W78624  21.703  19.613  13.487
 6299W        W78625  11.188  27.507  11.560
 6300W        W78626  10.869  16.678   4.680
 6301W        W78627  20.185  29.024  14.893
 6302W        W78628  37.409  35.940   3.832
 6303W        W78629  24.588   9.870   2.819
 6304W        W78630  36.474  39.539   3.866
 6305W        W78631   2.276  37.388  12.458
 6306W        W78632  34.076   1.958   0.848
 6307W        W78633  24.162  14.680  12.879
 6308W        W78634  24.174  38.938  11.548
 6309W        W78635  22.237  27.630   1.311
 6310W        W78636  24.655  10.383   0.432
 6311W        W78637   4.772  43.339  14.342
 6312W        W78638   9.812  23.592   1.378
 6313W        W78639  17.586  18.709  10.542
 6314W        W78640   7.874  39.050   4.637
 6315W        W78641   1.292  22.687   2.687
 6316W        W78642  31.525   8.734   3.636
 6317W        W78643  11.348  20.036   4.837
 6318W        W78644  21.698  12.836  14.348
 6319W        W78645  34.492  33.076  10.121
 6320W        W78646  14.255   4.834   4.810
 6321W        W78647  27.965  40.436  14.923
 6322W        W78648   5.745  17.148   4.347
 6323W        W78649  44.426  25.095   1.822
 6324W        W78650  32.083  44.384  14.493
 6325W        W78651  39.325  19.638  11.608
 6326W        W78652  44.329  15.670   4.725
 6327W        W78653  43.828  36.902   3.172
 6328W        W78654  32.629  25.538  10.495
 6329W        W78655  38.390  15.649   0.882
 6330W        W78656  36.412  42.014  14.836
 6331W        W78657  41.308  36.532  10.644
 6332W        W78658  17.567  21.514   3.332
 6333W        W78659  16.667  13.835  12.564
 6334W        W78660  40.485   1.800  10.140
 6335W        W78661  32.512   7.386   3.670
 6336W        W78662   0.796  30.003   3.665
 6337W        W78663   9.777  35.859   3.707
 6338W        W78664  27.138  39.847  10.597
 6339W        W78665  33.593   4.726  14.310
 6340W        W78666  37.524  26.498  10.488
 6341W        W78667  33.004  38.503   0.440
 6342W        W78668  12.223  27.011  11.509
 6343W        W78669  43.298  39.402  11.082
 6344W        W78670  25.084  16.777  14.496
 6345W        W78671  11.332  19.550  11.418
 6346W        W78672   1.319  20.151  13.428
 6347W        W78673  19.626  12.786   4.205
 6348W        W78674  27.019  44.424   4.696
 6349W        W78675  25.045  15.760  10.568
 6350W        W78676   3.218  16.293   2.219
 6351W        W78677  23.030  24.210   4.778
 6352W        W78678  21.056  43.814   9.982
 6353W        W78679  31.421  16.626  13.047
 6354W        W78680  17.181   2.266   4.741
 6355W        W78681  36.962  34.966   1.248
 6356W        W78682  42.469  25.706   0.944
 6357W        W78683  10.147   3.286  14.460
 6358W        W78684  18.111  10.160  14.372
 6359W        W78685  16.267  36.364   1.723
 6360W        W78686  19.126  36.004   1.443
 6361W        W78687   6.855  37.077   2.699
 6362W        W78688   7.819  31.916  13.908
 6363W        W78689  24.641  41.792   3.759
 6364W        W78690   2.435  26.204  14.306
 6365W        W78691  28.052  18.772   3.219
 6366W        W78692  44.000   9.150   4.136
 6367W        W78693  31.907  27.157   2.389
 6368W        W78694  41.477  36.023  12.486
 6369W        W78695  25.072  39.412  14.770
 6370W        W78696   6.872   1.768   2.706
 6371W        W78697  19.224  10.689  12.889
 6372W        W78698  17.571   7.228  10.405
 6373W        W78699  18.680  17.688   1.399
 6374W        W78700   2.334  35.067   3.311
 6375W        W78701  41.016   0.297   1.301
 6376W        W78702  41.922  34.595  10.977
 6377W        W78703  36.361  43.506   1.366
 6378W        W78704  19.762  42.930   0.790
 6379W        W78705  14.721  27.545   1.250
 6380W        W78706  17.759  15.135  11.578
 6381W        W78707  12.359  38.367  13.935
 6382W        W78708   8.172  14.673   1.429
 6383W        W78709  29.584  22.558   1.438
 6384W        W78710  42.342  14.224   2.885
 6385W        W78711  18.712   8.232  13.933
 6386W        W78712  42.028  15.754   4.690
 6387W        W78713  32.016  37.993  11.922
 6388W        W78714   2.313  19.739  13.882
 6389W        W78715   3.908  44.475  13.512
 6390W        W78716  25.112  44.378   1.730
 6391W        W78717  22.211   0.762   0.405
 6392W        W78718   1.241  39.465  10.941
 6393W        W78719  24.517  37.939   2.789
 6394W        W78720  27.974  12.210   1.703
 6395W        W78721  39.903   7.323  13.911
 6396W        W78722  42.281  36.920   4.598
 6397W        W78723   0.351  29.992   2.392
 6398W        W78724  36.465  36.986  10.602
 6399W        W78725  27.596  15.222   4.353
 6400W        W78726  28.991   2.809  14.513
 6401W        W78727  19.582  21.172   4.270
 6402W        W78728  34.610  44.809   4.199
 6403W        W78729  14.594  20.042   1.252
 6404W        W78730  20.751   8.865  11.084
 6405W        W78731  12.247  42.986   1.720
 6406W        W78732  10.874  32.621   4.661
 6407W        W78733  35.881  34.542  14.508
 6408W        W78734  40.845  24.638  12.854
 6409W        W78735  37.411  33.988   3.841
 6410W        W78736   4.934   3.893  10.616
 6411W        W78737   7.379   3.450  12.928
 6412W        W78738  27.502  30.478   0.431
 6413W        W78739  20.582   3.721   0.374
 6414W        W78740  34.554  21.711  10.580
 6415W        W78741  43.496  33.126   4.681
 6416W        W78742  36.406  15.265   2.738
 6417W        W78743   1.736  44.372   4.144
 6418W        W78744  12.257  35.054  11.377
 6419W        W78745  26.578  13.187   0.916
 6420W        W78746   7.827   3.955   3.215
 6421W        W78747  27.535   2.425  11.892
 6422W        W78748   7.174  31.541  12.493
 6423W        W78749  26.048  27.548   9.975
 6424W        W78750  34.953  27.512   1.933
 6425W        W78751  17.215   7.321  13.809
 6426W        W78752  37.420  19.735   1.801
 6427W        W78753  29.495  42.387  12.935
 6428W        W78754  19.579  37.515  13.011
 6429W        W78755   9.720  21.124   2.323
 6430W        W78756  20.645  19.160  14.895
 6431W        W78757  35.904  18.568  10.571
 6432W        W78758  32.613  35.477  14.399
 6433W        W78759  32.399  26.565   2.275
 6434W        W78760  12.690  38.820   0.824
 6435W        W78761   8.265  44.941  13.794
 6436W        W78762   9.783  28.156   1.405
 6437W        W78763  43.437  35.086   0.910
 6438W        W78764  11.648  19.119  14.827
 6439W        W78765   2.773  13.695  11.871
 6440W        W78766  32.945  24.575   3.824
 6441W        W78767  16.085  21.677  11.492
 6442W        W78768  42.296   1.881  13.887
 6443W        W78769  40.362  14.621   2.282
 6444W        W78770  12.752  25.175   0.361
 6445W        W78771  27.583  35.553   3.231
 6446W        W78772  14.811   9.777  12.044
 6447W        W78773  19.547   3.953  14.845
 6448W        W78774  41.806   0.248  11.078
 6449W        W78775  35.434  29.953  10.514
 6450W        W78776  19.157  25.571   3.158
 6451W        W78777  37.893  11.660   3.352
 6452W        W78778  29.980  23.621   2.759
 6453W        W78779   7.666   0.456   0.852
 6454W        W78780  34.598  18.280  13.365
 6455W        W78781  21.695  13.124   0.329
 6456W        W78782  25.556  39.539  11.106
 6457W        W78783  11.691   8.292   3.359
 6458W        W78784  32.086  15.269  12.891
 6459W        W78785  14.782  15.291   1.317
 6460W        W78786  42.854  34.488   4.800
 6461W        W78787  17.678  33.897  12.379
 6462W        W78788  12.159   1.829   1.309
 6463W        W78789  17.694  28.593  10.510
 6464W        W78790  26.588   5.906   4.295
 6465W        W78791  36.497   6.911  14.840
 6466W        W78792  31.112  34.910   2.343
 6467W        W78793  15.139  10.767   3.382
 6468W        W78794  12.323  29.008   2.821
 6469W        W78795  13.683  10.704   2.321
 6470W        W78796  35.521  12.837   3.250
 6471W        W78797  44.272  40.421   3.779
 6472W        W78798   8.211  27.652   4.296
 6473W        W78799  24.517  28.092  13.341
 6474W        W78800   4.877   5.265  11.461
 6475W        W78801  24.160  35.917  14.924
 6476W        W78802  36.513  31.595  14.299
 6477W        W78803  13.162  36.847   3.173
 6478W        W78804  25.106   9.153  14.360
 6479W        W78805   3.418  33.932   3.814
 6480W        W78806  17.276  33.901  13.816
 6481W        W78807  19.268  22.691   3.359
 6482W        W78808   0.747  43.904  13.998
 6483W        W78809   0.385  38.011  13.992
 6484W        W78810  41.833  23.073   1.899
 6485W        W78811  37.348  27.598  13.930
 6486W        W78812  37.994  26.085   4.117
 6487W        W78813  34.911  41.011   1.348
 6488W        W78814  19.552   2.843   4.299
 6489W        W78815  28.031  20.708  10.032
 6490W        W78816  38.509  38.483  12.923
 6491W        W78817   4.317  19.576   1.269
 6492W        W78818   3.368  19.678  13.974
 6493W        W78819  36.366  14.790  12.865
 6494W        W78820  27.454  34.489  11.565
 6495W        W78821   8.164  22.999  13.857
 6496W        W78822   5.435  17.585  14.313
 6497W        W78823  33.954  11.186   4.719
 6498W        W78824  20.556  17.684   1.854
 6499W        W78825  13.128  17.087   3.846
 6500W        W78826  17.103   0.843  13.527
 6501W        W78827   5.851   8.864   2.408
 6502W        W78828  39.912  12.731  13.012
 6503W        W78829  18.575  44.008  14.887
 6504W        W78830  29.968  23.165   1.214
 6505W        W78831  20.534   9.243  10.902
 6506W        W78832  38.559  30.049   3.653
 6507W        W78833  22.029   3.322  10.449
 6508W        W78834  18.643  18.727  13.477
 6509W        W78835  42.848  33.445  12.875
 6510W        W78836  30.416  37.060   4.292
 6511W        W78837  14.138  31.972   5.096
 6512W        W78838  44.881  21.094   3.351
 6513W        W78839   4.376  34.507   3.214
 6514W        W78840  13.727  21.176  11.123
 6515W        W78841  40.467  18.264   2.725
 6516W        W78842  10.182  42.821  12.575
 6517W        W78843  31.104  14.304  12.029
 6518W        W78844   8.397  27.994   3.807
 6519W        W78845  11.301  43.991  14.370
 6520W        W78846  30.984  40.490  14.435
 6521W        W78847  24.636  23.121   2.370
 6522W        W78848  26.468  32.441   0.966
 6523W        W78849   5.913  32.019  11.498
 6524W        W78850  15.706   8.279   1.853
 6525W        W78851   2.306  31.080  11.121
 6526W        W78852  22.506   2.845   0.771
 6527W        W78853   8.276  44.852   3.170
 6528W        W78854  24.537  20.046  14.488
 6529W        W78855  19.683  43.780  11.407
 6530W        W78856  20.678  43.485  12.523
 6531W        W78857  15.724   4.205  14.278
 6532W        W78858  18.578   0.397  11.539
 6533W        W78859  14.237   9.784  12.377
 6534W        W78860  27.128   4.265   0.287
 6535W        W78861  38.333  11.650   3.793
 6536W        W78862   8.666   1.946  10.997
 6537W        W78863  24.154  39.558  12.445
 6538W        W78864  12.644   7.203  14.767
 6539W        W78865  15.127  15.777  13.392
 6540W        W78866  29.614  41.519   2.202
 6541W        W78867  39.038  33.520  13.455
 6542W        W78868  13.292  25.526  11.088
 6543W        W78869  16.083  18.096  12.090
 6544W        W78870   2.373  16.567  14.489
 6545W        W78871  24.578  14.271  10.528
 6546W        W78872  15.708  26.125   3.211
 6547W        W78873  31.112  22.592   1.349
 6548W        W78874  42.896  22.665  10.507
 6549W        W78875   7.868   5.899  10.602
 6550W        W78876  37.087  26.015   2.681
 6551W        W78877  30.638  34.970   0.270
 6552W        W78878   9.291  31.429  13.513
 6553W        W78879  35.915  41.843   2.716
 6554W        W78880  18.617   7.665  14.292
 6555W        W78881  27.523  40.824  14.429
 6556W        W78882   1.858  31.556  10.936
 6557W        W78883   0.774   4.318   4.181
 6558W        W78884  35.429  36.059   1.897
 6559W        W78885  29.574  33.540   3.256
 6560W        W78886  14.622  25.569  14.825
 6561W        W78887  41.446  40.881  10.526
 6562W        W78888   3.947  29.431   0.822
 6563W        W78889  30.497  43.309  12.387
 6564W        W78890   1.327  24.091  10.621
 6565W        W78891  26.994  27.074  11.882
 6566W        W78892  10.635  10.872  14.892
 6567W        W78893  12.249   7.377  13.857
 6568W        W78894   0.259   7.865  12.865
 6569W        W78895  29.517  33.551  13.353
 6570W        W78896  44.400  10.199  13.038
 6571W        W78897   6.857  39.410  12.913
 6572W        W78898  10.661  16.679  13.325
 6573W        W78899  19.167   2.794  14.934
 6574W        W78900   6.278   7.301   0.407
 6575W        W78901  18.760  14.809  13.877
 6576W        W78902  17.193   4.221  12.010
 6577W        W78903  43.783   6.898   3.325
 6578W        W78904   7.811  33.967  11.026
 6579W        W78905   5.752  35.923   1.277
 6580W        W78906  15.145  35.519  10.452
 6581W        W78907   0.426  15.125   1.402
 6582W        W78908  32.480   0.867  12.014
 6583W        W78909  41.300  18.267  10.928
 6584W        W78910  44.848  14.794  12.553
 6585W        W78911  35.954  28.071  13.958
 6586W        W78912  37.482   5.811   3.823
 6587W        W78913  16.670   6.885  11.398
 6588W        W78914  11.148  29.004   0.821
 6589W        W78915  17.188  22.518   4.765
 6590W        W78916  28.488   6.885   4.264
 6591W        W78917  41.473  43.910  14.785
 6592W        W78918  34.369   0.785  13.987
 6593W        W78919  39.423  19.084   1.254
 6594W        W78920  18.061  11.760  13.995
 6595W        W78921  27.055  26.002   2.392
 6596W        W78922  36.892  24.173   4.753
 6597W        W78923  21.145  17.156  11.001
 6598W        W78924  25.074  10.682  12.553
 6599W        W78925  43.344  43.812   2.268
 6600W        W78926  15.138  16.099   1.369
 6601W        W78927  43.507  17.305   1.225
 6602W        W78928  15.149  36.444   0.294
 6603W        W78929  17.222  12.289   3.755
 6604W        W78930  13.113  41.975  13.046
 6605W        W78931  19.646   3.946  10.484
 6606W        W78932  35.072  27.610   1.316
 6607W        W78933  21.121  36.092  14.464
 6608W        W78934  35.576  31.136   4.627
 6609W        W78935  12.231  26.653  12.430
 6610W        W78936  13.606  12.311   4.157
 6611W        W78937  10.316   7.695   2.201
 6612W        W78938  19.585   9.377   0.954
 6613W        W78939  26.043   2.282   3.698
 6614W        W78940  20.536  29.603   3.810
 6615W        W78941   7.195  14.781  14.992
 6616W        W78942  34.074  42.512  13.399
 6617W        W78943  19.577   3.933   1.431
 6618W        W78944  21.119  20.031  11.107
 6619W        W78945  41.362  13.237  10.894
 6620W        W78946  26.050  36.516   4.221
 6621W        W78947   2.791   0.775  12.466
 6622W        W78948  44.358  20.708  11.412
 6623W        W78949   6.903   4.941  13.981
 6624W        W78950   8.334   8.177  13.326
 6625W        W78951  30.591  32.055   2.406
 6626W        W78952  25.634  43.453  12.878
 6627W        W78953   0.764  17.254  14.344
 6628W        W78954  44.883  39.410   3.654
 6629W        W78955  11.831  35.076  13.841
 6630W        W78956  25.522   0.951   2.240
 6631W        W78957  13.141  18.609  10.966
 6632W        W78958  36.950  37.078  14.380
 6633W        W78959   5.844  33.566  14.468
 6634W        W78960  16.150  10.680   4.678
 6635W        W78961  40.856  44.968  12.427
 6636W        W78962  14.813  31.962  12.923
 6637W        W78963  18.229   1.875   0.299
 6638W        W78964  34.607  24.674   1.846
 6639W        W78965  38.034  15.588   3.304
 6640W        W78966   7.717  27.481   1.768
 6641W        W78967  20.254   1.784  11.047
 6642W        W78968  43.895   0.335  13.331
 6643W        W78969  39.953  37.581  14.283
 6644W        W78970  17.757   8.883  13.433
 6645W        W78971  20.745  27.085   3.861
 6646W        W78972   9.152  14.604  10.620
 6647W        W78973  15.267  28.624  12.517
 6648W        W78974  34.455  19.276   1.398
 6649W        W78975  30.913  42.305   0.459
 6650W        W78976  23.665   9.308  10.539
 6651W        W78977  25.501  25.161   3.815
 6652W        W78978  31.408   3.836  11.117
 6653W        W78979  16.763  28.510  12.832
 6654W        W78980   5.351   1.895  14.001
 6655W        W78981  20.748  16.782   3.307
 6656W        W78982  24.123  18.683  12.009
 6657W        W78983  11.152   0.884  11.932
 6658W        W78984   8.223  36.488  12.874
 6659W        W78985  36.885   3.895   0.397
 6660W        W78986   9.697  25.077  11.609
 6661W        W78987  32.470  42.416   3.185
 6662W        W78988  43.322  33.569   3.650
 6663W        W78989  19.193  39.499   2.220
 6664W        W78990  13.286   4.847   0.727
 6665W        W78991  44.375  26.495  13.501
 6666W        W78992  36.580  27.602   3.758
 6667W        W78993  10.233   1.929   1.304
 6668W        W78994  39.451   2.877   4.824
 6669W        W78995  44.273  23.139   0.927
 6670W        W78996  22.179   3.955  13.406
 6671W        W78997  41.398  12.343   1.830
 6672W        W78998  33.391  31.136   4.693
 6673W        W78999   7.788   5.203   1.713
 6674W        W79000  21.186  30.637  11.960
 6675W        W79001  37.471  26.472   3.866
 6676W        W79002  40.344   8.384   1.926
 6677W        W79003  38.011  39.981  13.887
 6678W        W79004  28.533   6.891  13.053
 6679W        W79005  41.462  10.640   1.714
 6680W        W79006  28.979  20.120   2.407
 6681W        W79007  41.487  18.080  11.457
 6682W        W79008  37.424  16.152   3.744
 6683W        W79009  13.215  33.417   9.460
 6684W        W79010  30.123  19.564   4.241
 6685W        W79011   4.775  24.606   2.673
 6686W        W79012  43.012  20.186   0.813
 6687W        W79013   7.272   8.842  10.900
 6688W        W79014  21.151  38.361  11.473
 6689W        W79015  16.757  20.192   3.246
 6690W        W79016  15.297  33.968  14.818
 6691W        W79017   1.814  10.301  13.329
 6692W        W79018   7.788  16.808  13.843
 6693W        W79019  19.761  44.392  12.407
 6694W        W79020  32.520  21.141  11.456
 6695W        W79021  11.792  35.911   0.338
 6696W        W79022   1.759  10.738  11.470
 6697W        W79023  28.487  17.707   1.302
 6698W        W79024  29.633  19.761  12.951
 6699W        W79025  25.655  21.538  10.910
 6700W        W79026  20.632  26.122   2.793
 6701W        W79027  26.492   2.429  14.801
 6702W        W79028  27.514  39.939   2.662
 6703W        W79029   4.285  20.152   1.714
 6704W        W79030  32.047  42.025  14.887
 6705W        W79031  20.539  25.624   0.776
 6706W        W79032  34.938   6.688   3.707
 6707W        W79033  35.437   2.349  11.524
 6708W        W79034  36.516   5.788  12.031
 6709W        W79035  22.608  20.159   3.147
 6710W        W79036  42.903  15.714  14.024
 6711W        W79037  18.607  42.865   2.664
 6712W        W79038  12.805  19.648  13.409
 6713W        W79039  11.173  19.260  13.332
 6714W        W79040  40.827   3.442  11.969
 6715W        W79041  35.056  34.555   1.423
 6716W        W79042  15.774  10.362   2.688
 6717W        W79043  40.918   1.776   4.748
 6718W        W79044  35.533   6.226  12.070
 6719W        W79045  18.636  38.490  12.047
 6720W        W79046   1.931   4.424   2.717
 6721W        W79047   8.350  40.492   4.177
 6722W        W79048  26.513   3.892  14.368
 6723W        W79049   2.889  20.531  14.971
 6724W        W79050  28.554  34.893  14.427
 6725W        W79051  43.318  14.599  14.944
 6726W        W79052  31.621  30.121  11.094
 6727W        W79053  43.355  10.705  11.446
 6728W        W79054  43.432  14.771  13.861
 6729W        W79055  24.615  18.753   0.781
 6730W        W79056   4.439   0.985   4.262
 6731W        W79057   4.758   2.390   4.771
 6732W        W79058  15.599   1.482   0.745
 6733W        W79059   4.809  12.205  14.915
 6734W        W79060  16.072  29.160  11.088
 6735W        W79061  31.048  28.029   4.739
 6736W        W79062  35.980  10.346  12.905
 6737W        W79063   0.283  29.022  12.906
 6738W        W79064  12.611  12.328  14.287
 6739W        W79065   2.875  21.166  10.427
 6740W        W79066  32.404   1.321   2.264
 6741W        W79067  12.258  27.104  11.062
 6742W        W79068  29.141  15.288   1.795
 6743W        W79069  37.945  13.773   3.292
 6744W        W79070  33.032  12.249   2.395
 6745W        W79071  21.572   2.440   0.849
 6746W        W79072  40.802  19.243   3.828
 6747W        W79073  41.389  35.856   4.354
 6748W        W79074   3.238   9.365  12.997
 6749W        W79075   6.763  26.140  13.517
 6750W        W79076  42.370  39.405  10.954
 6751W        W79077  20.587   3.454   3.834
 6752W        W79078  23.565  41.500   0.798
 6753W        W79079  38.856  40.425   4.653
 6754W        W79080  11.808  43.418  12.523
 6755W        W79081  32.420  17.686  11.072
 6756W        W79082  20.045  43.513  12.389
 6757W        W79083  32.393  33.076  13.505
 6758W        W79084  26.521  34.495   3.850
 6759W        W79085  15.264  20.140  13.435
 6760W        W79086  30.040  31.588  12.540
 6761W        W79087  35.016  19.193   0.789
 6762W        W79088  33.535  30.941   1.368
 6763W        W79089   6.720  37.357  12.998
 6764W        W79090  22.183  19.763  13.806
 6765W        W79091  31.578  15.144  10.425
 6766W        W79092   3.869   8.689  12.404
 6767W        W79093   8.356   1.438  13.452
 6768W        W79094  33.392  40.901   2.675
 6769W        W79095   6.304  32.479   0.897
 6770W        W79096   9.279  15.799   0.965
 6771W        W79097  30.442  20.611  13.946
 6772W        W79098   3.762   2.368   5.575
 6773W        W79099   9.231  10.872  14.292
 6774W        W79100  22.704  37.497   2.669
 6775W        W79101  38.416  39.816   4.318
 6776W        W79102  33.926  38.560   0.252
 6777W        W79103  42.026  41.460  12.011
 6778W        W79104  17.658  33.531  13.406
 6779W        W79105   6.788  32.944  12.475
 6780W        W79106  15.261  11.193   2.405
 6781W        W79107  41.334  34.399   3.679
 6782W        W79108   2.751  20.088  10.987
 6783W        W79109  14.619   3.940   2.801
 6784W        W79110  27.454  42.011   0.440
 6785W        W79111   7.224   1.376  14.319
 6786W        W79112  25.642   5.353  14.381
 6787W        W79113  35.859  29.473  12.041
 6788W        W79114  38.829  27.952  12.949
 6789W        W79115  13.723  10.164   1.817
 6790W        W79116  23.139  25.690   2.374
 6791W        W79117  39.917  13.807   2.292
 6792W        W79118   7.398   7.899  11.606
 6793W        W79119  34.497  24.209  10.998
 6794W        W79120  24.646  32.980  14.381
 6795W        W79121  37.530  44.917   3.779
 6796W        W79122   3.797  26.528   4.801
 6797W        W79123   9.294  38.977  13.509
 6798W        W79124  12.811  16.084  11.873
 6799W        W79125  16.181  27.514  12.955
 6800W        W79126   7.793  37.451   3.731
 6801W        W79127   6.793  12.633   2.377
 6802W        W79128  24.209  39.524   0.864
 6803W        W79129  26.525  35.073   1.871
 6804W        W79130  39.517  23.147   2.900
 6805W        W79131  16.172  33.980   0.262
 6806W        W79132  42.992   4.848   1.878
 6807W        W79133  26.024  26.496   2.806
 6808W        W79134   6.832  37.992   4.820
 6809W        W79135   8.675   6.256  12.887
 6810W        W79136  42.505  34.473  11.938
 6811W        W79137  40.494  32.998  12.887
 6812W        W79138  43.306  27.670  13.455
 6813W        W79139  19.641  23.145   0.832
 6814W        W79140  15.139  10.671   1.315
 6815W        W79141  34.066   3.321  12.421
 6816W        W79142  34.588  22.231  11.079
 6817W        W79143  34.405  20.672   1.214
 6818W        W79144  41.944  42.464   4.657
 6819W        W79145  42.001  35.447  10.589
 6820W        W79146  32.484  33.450   1.302
 6821W        W79147  20.186  11.685   1.811
 6822W        W79148  26.694  39.838  13.907
 6823W        W79149  37.046   1.753  10.537
 6824W        W79150   6.345  42.013   4.832
 6825W        W79151   2.307  21.171   3.212
 6826W        W79152   3.879  36.038   0.418
 6827W        W79153  12.180  36.539  13.402
 6828W        W79154  37.994  42.829  10.984
 6829W        W79155   1.451  32.604   1.697
 6830W        W79156  31.030  10.255  10.473
 6831W        W79157  15.672   6.811   3.252
 6832W        W79158   6.302  25.591   4.253
 6833W        W79159   7.219  39.352  11.498
 6834W        W79160  30.592  25.516  11.919
 6835W        W79161  44.772  34.514   2.324
 6836W        W79162  29.110   6.297   4.221
 6837W        W79163  38.925   3.379  11.956
 6838W        W79164  21.062   8.768  14.504
 6839W        W79165  12.157   0.470   4.632
 6840W        W79166   9.881  16.226  12.896
 6841W        W79167   6.330   4.907   1.725
 6842W        W79168   6.678  11.338  11.122
 6843W        W79169  15.818  23.225   1.794
 6844W        W79170   3.347  23.642  11.866
 6845W        W79171  22.502   7.719  10.431
 6846W        W79172  10.777  43.881  10.583
 6847W        W79173  13.290  31.495   3.696
 6848W        W79174   1.943  32.989   0.354
 6849W        W79175  42.416  41.371  11.086
 6850W        W79176  17.188  14.132   4.135
 6851W        W79177  13.824  14.329  12.847
 6852W        W79178  31.016  10.680   4.243
 6853W        W79179   7.667   2.388   1.305
 6854W        W79180   9.851  41.518  13.954
 6855W        W79181  15.590  35.502   3.314
 6856W        W79182  18.108   3.300  13.897
 6857W        W79183  28.117  20.122  12.853
 6858W        W79184  41.462  29.048   2.743
 6859W        W79185  38.499  24.479   1.817
 6860W        W79186  37.464   0.779   3.377
 6861W        W79187  13.345  25.190   1.280
 6862W        W79188  42.887  43.819  13.356
 6863W        W79189  29.106   1.270  12.511
 6864W        W79190  43.905  10.867  14.984
 6865W        W79191   2.259  22.590   0.944
 6866W        W79192  40.905   4.408   1.329
 6867W        W79193  44.903  25.544  14.365
 6868W        W79194  31.423  17.075  12.040
 6869W        W79195  30.493  26.073   3.266
 6870W        W79196   4.286  15.769  11.005
 6871W        W79197  33.920  26.173   1.715
 6872W        W79198  18.582  27.940   2.667
 6873W        W79199  44.399   1.391   2.858
 6874W        W79200  21.137  29.575   0.270
 6875W        W79201  25.620  34.498   1.874
 6876W        W79202  41.511   7.716   3.771
 6877W        W79203   7.671   0.332   4.292
 6878W        W79204  39.405   5.293   0.947
 6879W        W79205   2.907  10.751  13.002
 6880W        W79206  20.726  20.619  10.582
 6881W        W79207  25.563  34.891   4.116
 6882W        W79208  24.074  22.652  10.618
 6883W        W79209  30.453   8.812  10.623
 6884W        W79210  31.454  11.338  13.028
 6885W        W79211  20.681  43.457   4.210
 6886W        W79212  34.001  19.560   3.750
 6887W        W79213  35.887  10.293   0.291
 6888W        W79214  21.099  12.127  12.856
 6889W        W79215  43.304  25.575   2.757
 6890W        W79216  32.631  11.786   0.249
 6891W        W79217   3.279  27.992   3.266
 6892W        W79218  28.127  23.988   2.248
 6893W        W79219  26.958  20.529   0.727
 6894W        W79220  30.488  44.964   4.710
 6895W        W79221  20.584  44.330   0.371
 6896W        W79222  31.627  26.618  10.575
 6897W        W79223  29.027  24.086  12.426
 6898W        W79224  29.573  27.192   1.315
 6899W        W79225  18.659  40.975  14.908
 6900W        W79226  28.463  15.302  10.994
 6901W        W79227  22.175  11.144   2.406
 6902W        W79228  20.196   6.422  14.420
 6903W        W79229  44.865  41.483  11.990
 6904W        W79230  24.130  43.387  12.532
 6905W        W79231  25.701   9.666  11.377
 6906W        W79232   4.239  22.029  10.420
 6907W        W79233  23.571   5.906   3.792
 6908W        W79234   5.930  43.441   2.772
 6909W        W79235  38.501  34.429  11.050
 6910W        W79236  32.535  19.054   4.140
 6911W        W79237  29.549  31.030  14.958
 6912W        W79238  39.345  13.157   2.180
 6913W        W79239  16.264   1.859  14.877
 6914W        W79240  36.551   1.244  13.535
 6915W        W79241   4.436  11.164   3.154
 6916W        W79242  28.000  24.974   0.809
 6917W        W79243   8.299  27.940   0.441
 6918W        W79244  17.638   5.841   2.791
 6919W        W79245  16.763  29.923  14.818
 6920W        W79246  44.888  28.639   1.847
 6921W        W79247  36.349  42.336  13.977
 6922W        W79248  31.069  44.336   4.202
 6923W        W79249  22.570   0.829   1.237
 6924W        W79250   5.230  15.779   2.798
 6925W        W79251  13.143  38.424   4.174
 6926W        W79252   9.663  34.011   0.946
 6927W        W79253   0.307  23.662   0.764
 6928W        W79254  39.892  29.943   2.838
 6929W        W79255  19.686  39.888  10.531
 6930W        W79256  42.887  34.886   2.411
 6931W        W79257  12.336  38.956  11.466
 6932W        W79258  10.836   6.713  10.999
 6933W        W79259   9.369  11.850   4.202
 6934W        W79260  38.444  20.077  14.484
 6935W        W79261  33.954  27.673   4.757
 6936W        W79262   9.163   4.769   1.892
 6937W        W79263  18.232  43.891   2.680
 6938W        W79264  40.050  31.542   2.727
 6939W        W79265  13.242  20.062   0.897
 6940W        W79266   7.186  10.301   1.383
 6941W        W79267  33.523  12.189  11.032
 6942W        W79268  27.122  34.908   0.243
 6943W        W79269  27.978  28.515  13.965
 6944W        W79270  31.433  12.250   3.377
 6945W        W79271  14.283  34.115  12.430
 6946W        W79272  38.952   1.289   2.752
 6947W        W79273  36.573  34.114   0.924
 6948W        W79274  17.644   6.766   4.838
 6949W        W79275   4.336   1.809   9.967
 6950W        W79276   5.338  14.750  13.512
 6951W        W79277  13.244   9.280   1.276
 6952W        W79278  39.037  41.419  11.951
 6953W        W79279   6.270  13.314   5.261
 6954W        W79280  32.102  17.303   3.303
 6955W        W79281  28.496   0.878  11.463
 6956W        W79282  38.327  24.715  11.994
 6957W        W79283  26.526  33.982   2.885
 6958W        W79284  38.823  19.117  13.014
 6959W        W79285  38.527  25.055   0.777
 6960W        W79286   5.381  44.950  11.917
 6961W        W79287  44.951  31.914   0.923
 6962W        W79288  26.073  17.102   3.755
 6963W        W79289  10.154  35.895   1.417
 6964W        W79290  15.684  36.490  10.455
 6965W        W79291  13.342  32.532   1.444
 6966W        W79292  25.136   0.309  11.091
 6967W        W79293  42.024   5.739  12.364
 6968W        W79294  37.469   6.189   1.877
 6969W        W79295   5.774  15.128   4.796
 6970W        W79296  20.656  11.679   1.880
 6971W        W79297  43.476   9.280   3.744
 6972W        W79298  23.215  14.333   4.754
 6973W        W79299  19.170  37.072   3.342
 6974W        W79300   5.406  26.487  11.892
 6975W        W79301  35.895  13.329  14.498
 6976W        W79302  35.853  33.452  12.345
 6977W        W79303  44.904  34.480   3.202
 6978W        W79304  41.455  11.763  14.779
 6979W        W79305  44.924  23.155  10.495
 6980W        W79306  15.770  43.498  13.014
 6981W        W79307  43.827  43.355  13.334
 6982W        W79308  30.146   8.214  14.946
 6983W        W79309   6.901  44.493  10.422
 6984W        W79310   2.371   8.250  13.878
 6985W        W79311  33.474   8.739   4.773
 6986W        W79312   0.452  30.584   1.929
 6987W        W79313  40.942  19.593  10.591
 6988W        W79314  31.065   1.921   0.942
 6989W        W79315  28.089   1.402  11.607
 6990W        W79316  40.459  32.441   1.221
 6991W        W79317  19.580  36.585  14.394
 6992W        W79318  29.975  36.009  13.532
 6993W        W79319  26.044  32.990  14.315
 6994W        W79320  35.418  43.981  13.505
 6995W        W79321  27.164  19.750  14.412
 6996W        W79322   3.807   4.789   5.212
 6997W        W79323  34.489  38.063  12.045
 6998W        W79324  16.570  33.987  14.509
 6999W        W79325  23.682  24.053  11.887
 7000W        W79326  16.175  42.299  11.478
 7001W        W79327   5.419  32.957  14.973
 7002W        W79328  27.608  43.473   1.329
 7003W        W79329  44.414  34.059   4.121
 7004W        W79330   6.744   5.771   0.857
 7005W        W79331   5.830  26.196   4.203
 7006W        W79332  25.600  36.406   0.914
 7007W        W79333  20.614  44.945  14.953
 7008W        W79334  12.329  17.721  13.403
 7009W        W79335   1.385  25.192   2.404
 7010W        W79336  22.671  34.578  13.984
 7011W        W79337  28.584  25.988  12.474
 7012W        W79338  33.948  38.832   1.828
 7013W        W79339  35.472  19.647  12.570
 7014W        W79340  14.261  13.823  11.560
 7015W        W79341  14.186  28.072   4.262
 7016W        W79342  21.058  27.174  11.546
 7017W        W79343  13.639  29.603  14.908
 7018W        W79344   4.298   4.236  14.787
 7019W        W79345  14.323  37.470   4.763
 7020W        W79346  35.883  34.984   2.234
 7021W        W79347  10.809  24.141  12.546
 7022W        W79348  23.178  42.439   3.671
 7023W        W79349  44.294   8.816   5.315
 7024W        W79350  27.174  27.153   3.211
 7025W        W79351   4.705  12.304   3.386
 7026W        W79352  22.155  32.889  14.869
 7027W        W79353   9.150  29.991  12.435
 7028W        W79354  15.632  43.293   1.352
 7029W        W79355  38.418  32.032  12.535
 7030W        W79356  32.531  40.887  13.352
 7031W        W79357  35.476  40.813  10.963
 7032W        W79358  20.764  23.498   1.895
 7033W        W79359  15.126  22.054   1.361
 7034W        W79360   0.849  18.729   1.882
 7035W        W79361   7.706  25.508  11.414
 7036W        W79362   5.868  33.092   3.820
 7037W        W79363  17.268   6.363   4.260
 7038W        W79364  37.009  41.426   1.931
 7039W        W79365  33.882  28.514   0.465
 7040W        W79366  40.396  14.615   3.649
 7041W        W79367  19.631   8.798   1.727
 7042W        W79368   5.375  24.977  10.410
 7043W        W79369  12.801  35.967  14.018
 7044W        W79370  27.971  40.362   2.784
 7045W        W79371  18.087  30.033   4.133
 7046W        W79372  25.579   1.894   5.311
 7047W        W79373  22.689  19.676   2.705
 7048W        W79374  27.587  42.372   4.155
 7049W        W79375  27.477  27.038   2.376
 7050W        W79376   5.924  31.092  12.038
 7051W        W79377  26.075   8.672  12.943
 7052W        W79378  35.965  13.695  13.468
 7053W        W79379  26.026  40.312   3.653
 7054W        W79380  37.429  20.115   2.310
 7055W        W79381  33.457  29.450   2.778
 7056W        W79382  35.941  37.929   2.382
 7057W        W79383  15.212   3.801  12.933
 7058W        W79384  12.700  32.422  11.444
 7059W        W79385   6.339   0.307   0.349
 7060W        W79386  31.565  25.643  12.841
 7061W        W79387  31.631  24.602  13.538
 7062W        W79388  26.475  21.732  14.508
 7063W        W79389  32.077  10.670  10.911
 7064W        W79390  21.661  11.674   2.716
 7065W        W79391  31.075   0.803   4.186
 7066W        W79392  29.051  28.032   0.368
 7067W        W79393   2.919   8.203   1.828
 7068W        W79394  35.971  26.519  11.992
 7069W        W79395  24.997  33.966  11.568
 7070W        W79396   1.478  16.302  12.379
 7071W        W79397  32.114  18.628  12.529
 7072W        W79398  42.361  35.101   0.839
 7073W        W79399   8.728  22.728  13.941
 7074W        W79400  27.487  18.068  13.937
 7075W        W79401  25.027  43.858   2.402
 7076W        W79402  38.068  14.638  13.024
 7077W        W79403  42.874  34.086   2.256
 7078W        W79404  14.723  11.228  10.991
 7079W        W79405  38.885  36.489  11.861
 7080W        W79406  28.661   6.782  10.623
 7081W        W79407  14.301  33.885   1.804
 7082W        W79408  35.067  33.592  12.435
 7083W        W79409  24.621  21.590  11.524
 7084W        W79410  13.838  36.070  13.538
 7085W        W79411   4.221  31.056  11.906
 7086W        W79412  12.652  30.435  12.478
 7087W        W79413   3.329  35.410  11.994
 7088W        W79414   0.792  12.296  11.427
 7089W        W79415  34.459  41.450  10.410
 7090W        W79416  19.716  15.635   2.352
 7091W        W79417  27.039  19.576   4.149
 7092W        W79418  34.928   4.412  13.880
 7093W        W79419  14.166   9.380  13.427
 7094W        W79420  23.222  27.180  12.395
 7095W        W79421  25.164  35.012   4.278
 7096W        W79422  26.566  30.542  12.383
 7097W        W79423  26.524  31.992  14.942
 7098W        W79424  43.774  33.898  14.961
 7099W        W79425  36.539  21.241  12.472
 7100W        W79426  17.136  25.119   4.341
 7101W        W79427   2.342  27.529  13.810
 7102W        W79428  36.485  32.534   0.814
 7103W        W79429  34.868  44.411   4.701
 7104W        W79430  15.784  29.017   0.412
 7105W        W79431  29.557  41.369   4.268
 7106W        W79432  13.336  44.961  10.411
 7107W        W79433  13.657  39.419   2.783
 7108W        W79434   3.830  13.161   0.886
 7109W        W79435  37.387   4.928  11.014
 7110W        W79436  35.539  36.481   3.324
 7111W        W79437  24.623  32.119  13.511
 7112W        W79438   3.359   6.377  14.892
 7113W        W79439  12.647   0.285  13.815
 7114W        W79440  31.497   5.777   3.679
 7115W        W79441  34.461  19.679  12.410
 7116W        W79442   9.304  35.099   4.129
 7117W        W79443  32.932   7.771  14.341
 7118W        W79444  42.487  32.566  12.487
 7119W        W79445  16.802  33.063   4.261
 7120W        W79446  28.119   1.377  14.385
 7121W        W79447   9.264   1.971   2.682
 7122W        W79448   9.786   9.883  14.420
 7123W        W79449   9.249  43.825   4.184
 7124W        W79450  22.093  38.499   4.816
 7125W        W79451  19.147  39.552  14.806
 7126W        W79452  11.276  26.525  12.446
 7127W        W79453  23.001  21.532   4.293
 7128W        W79454  42.511  32.997   0.921
 7129W        W79455  31.960  32.918  11.039
 7130W        W79456  35.890  12.837  10.573
 7131W        W79457   4.780   7.733   3.268
 7132W        W79458  21.590  23.539  13.802
 7133W        W79459  17.653   2.385  13.985
 7134W        W79460  44.940  24.213  13.027
 7135W        W79461  22.699  31.114   0.920
 7136W        W79462  42.899  32.093   1.364
 7137W        W79463  15.162  44.268   4.306
 7138W        W79464  26.562   9.768   9.999
 7139W        W79465  31.137  36.531  13.521
 7140W        W79466  30.601  21.203   3.734
 7141W        W79467   6.744  41.986  10.454
 7142W        W79468  37.582  21.224  13.359
 7143W        W79469  26.640  14.605  11.999
 7144W        W79470   1.837  29.558  12.984
 7145W        W79471  30.096   2.302   4.320
 7146W        W79472  39.920  39.403   3.823
 7147W        W79473  26.546  35.861   4.679
 7148W        W79474  20.044  44.974  14.325
 7149W        W79475  35.859   0.914   1.855
 7150W        W79476   2.780  31.145   1.854
 7151W        W79477  32.603  35.067   2.770
 7152W        W79478   8.691   8.848   3.334
 7153W        W79479   6.682  29.126  12.836
 7154W        W79480  19.559  33.585  13.439
 7155W        W79481  18.061  34.427  10.889
 7156W        W79482   3.719   9.301  10.596
 7157W        W79483  14.808   8.400  13.481
 7158W        W79484  18.642   3.258   3.833
 7159W        W79485  16.583  10.878  11.404
 7160W        W79486  11.231  25.505  13.316
 7161W        W79487  10.779  34.979   4.835
 7162W        W79488  14.707  19.713  13.825
 7163W        W79489  16.300  33.592   2.753
 7164W        W79490  10.641  11.868   3.250
 7165W        W79491  14.614   1.327  12.500
 7166W        W79492  36.998  23.212   1.444
 7167W        W79493   4.299  32.960   1.868
 7168W        W79494  41.474  14.201  11.031
 7169W        W79495  23.705  36.868   1.821
 7170W        W79496  20.601   7.789   0.915
 7171W        W79497  20.222  16.743   1.885
 7172W        W79498  43.284  26.095   0.400
 7173W        W79499  29.652  35.424   0.382
 7174W        W79500  14.200  39.817  11.105
 7175W        W79501  44.817  29.503   0.441
 7176W        W79502  37.987  41.497   2.332
 7177W        W79503   0.266  12.210  10.508
 7178W        W79504  29.941  13.618   1.801
 7179W        W79505   5.274  31.552  13.540
 7180W        W79506  23.677  40.953  12.554
 7181W        W79507  18.270  18.643   1.822
 7182W        W79508  18.708  42.027   2.391
 7183W        W79509  24.559  36.047   4.652
 7184W        W79510   5.376  40.474  10.466
 7185W        W79511  13.663  41.446   4.228
 7186W        W79512   7.386  41.914  12.342
 7187W        W79513  39.926  13.754  14.907
 7188W        W79514   3.840   8.197  14.855
 7189W        W79515   8.884  28.178   1.287
 7190W        W79516   4.771  13.639   1.344
 7191W        W79517  41.502  33.995  13.496
 7192W        W79518   4.438  34.960   4.163
 7193W        W79519  39.387  20.701  10.416
 7194W        W79520  16.739  22.094  12.441
 7195W        W79521   5.249  42.813   1.773
 7196W        W79522  35.546  27.185   4.322
 7197W        W79523  21.092  16.293   1.274
 7198W        W79524  29.104  40.801  14.808
 7199W        W79525  33.535   5.853   1.929
 7200W        W79526  19.188   6.219  14.451
 7201W        W79527  26.145  26.502   2.291
 7202W        W79528   0.472  28.031   3.675
 7203W        W79529  21.601   6.303  13.408
 7204W        W79530  30.531  16.671  11.898
 7205W        W79531  39.065  38.565   4.717
 7206W        W79532  30.637   6.355   2.874
 7207W        W79533   3.356  34.614  14.300
 7208W        W79534  28.603  26.613   1.850
 7209W        W79535  25.695  37.380   0.312
 7210W        W79536   4.918   4.354   4.185
 7211W        W79537  44.453   1.411   3.702
 7212W        W79538  33.984  21.755   3.704
 7213W        W79539  35.996  28.642   2.210
 7214W        W79540   3.354  29.978   1.825
 7215W        W79541   2.886  30.422   1.763
 7216W        W79542   7.901   8.815   4.695
 7217W        W79543  39.496  30.973  12.405
 7218W        W79544  34.482  14.820   1.347
 7219W        W79545   9.865  25.976   4.669
 7220W        W79546  16.687   2.438  13.858
 7221W        W79547  38.459   0.324  11.579
 7222W        W79548  11.260  41.314   0.932
 7223W        W79549  29.038  33.940   0.362
 7224W        W79550   5.312  43.332   1.418
 7225W        W79551  33.057  12.656  11.599
 7226W        W79552   1.435  42.986  10.545
 7227W        W79553  12.716   4.936   1.824
 7228W        W79554   3.713  26.679   3.792
 7229W        W79555  26.153   9.772   4.794
 7230W        W79556  33.113  21.074  13.937
 7231W        W79557  20.708  34.428   0.327
 7232W        W79558  16.604   6.386   0.732
 7233W        W79559  11.345  29.643  11.953
 7234W        W79560   6.312  40.522  13.922
 7235W        W79561  39.482   1.752  10.587
 7236W        W79562  31.402  14.300   0.480
 7237W        W79563  38.550  13.826   3.288
 7238W        W79564  32.622  13.160  13.056
 7239W        W79565   3.344  12.184  14.793
 7240W        W79566   0.863   8.834  11.585
 7241W        W79567  32.101  27.527   2.842
 7242W        W79568  40.978  41.862  10.507
 7243W        W79569  34.492  13.844   0.895
 7244W        W79570  37.849  30.915   2.256
 7245W        W79571  17.597  16.760   2.835
 7246W        W79572  37.026   4.828   3.849
 7247W        W79573  10.648  44.394   0.358
 7248W        W79574  38.372  17.289   3.729
 7249W        W79575  33.536   6.336   2.381
 7250W        W79576  23.986  42.991   5.135
 7251W        W79577  30.957  20.120   1.376
 7252W        W79578  33.058   5.251  11.413
 7253W        W79579   7.867  40.333   1.327
 7254W        W79580  29.973   9.677   4.162
 7255W        W79581  39.495  44.385   2.389
 7256W        W79582  25.631  33.050   3.823
 7257W        W79583  19.666  20.545  14.303
 7258W        W79584   5.845  32.987   2.678
 7259W        W79585  17.572  22.019   2.400
 7260W        W79586  28.542  34.064   2.755
 7261W        W79587  16.219  35.942  11.902
 7262W        W79588   0.296   1.363  13.037
 7263W        W79589  37.523  16.725  10.987
 7264W        W79590  30.923  38.979  13.507
 7265W        W79591   6.892  11.853  11.050
 7266W        W79592  29.094  35.048  11.484
 7267W        W79593  20.634  24.640   3.221
 7268W        W79594  21.179  44.980   3.807
 7269W        W79595  26.650  40.331  13.921
 7270W        W79596  39.960  10.341   2.293
 7271W        W79597   4.268  34.380   1.327
 7272W        W79598  18.061  18.182  10.451
 7273W        W79599  19.052   4.301   0.274
 7274W        W79600  43.956   0.323   1.703
 7275W        W79601  42.854  44.834   3.356
 7276W        W79602  24.097  42.958   0.732
 7277W        W79603   0.359  17.595  13.379
 7278W        W79604  40.489   5.273   1.755
 7279W        W79605  27.092  12.355   3.166
 7280W        W79606  42.505  38.443   3.851
 7281W        W79607  35.072  26.462  14.354
 7282W        W79608  30.597   1.800  13.880
 7283W        W79609  39.437  13.317  11.483
 7284W        W79610  44.408  31.646  14.765
 7285W        W79611   8.247   4.833  14.771
 7286W        W79612  40.799  14.109  10.529
 7287W        W79613  25.668  21.729  13.357
 7288W        W79614  33.533  20.219   0.435
 7289W        W79615  17.569  18.274   4.719
 7290W        W79616  12.243  38.875  13.433
 7291W        W79617   0.753  25.153   3.815
 7292W        W79618  22.501  19.627  14.322
 7293W        W79619  21.741   5.693  11.415
 7294W        W79620  17.123  33.602  14.799
 7295W        W79621  22.007   1.815  13.310
 7296W        W79622  23.117  21.028   2.247
 7297W        W79623  18.555  22.651  12.885
 7298W        W79624   8.865  41.887   2.691
 7299W        W79625  39.985   5.303   4.213
 7300W        W79626  17.766  15.794   1.285
 7301W        W79627  10.308   5.257  12.096
 7302W        W79628  26.157  18.070   0.844
 7303W        W79629   2.721  43.799  11.550
 7304W        W79630  21.668  27.544  11.113
 7305W        W79631  20.133  42.404  10.493
 7306W        W79632  12.856  39.015  12.957
 7307W        W79633  20.189   8.378  11.025
 7308W        W79634  37.086  42.818   3.349
 7309W        W79635  11.821  30.068  10.443
 7310W        W79636  35.920   9.171   2.261
 7311W        W79637  37.051  23.171  12.463
 7312W        W79638  15.786  26.042   3.680
 7313W        W79639   4.313  44.479   1.742
 7314W        W79640  13.302   3.418  11.066
 7315W        W79641   5.310  12.314   0.305
 7316W        W79642  12.156  32.579  12.404
 7317W        W79643  10.668   2.893   0.766
 7318W        W79644  13.128  23.539  10.127
 7319W        W79645  36.480  13.151   1.446
 7320W        W79646  32.061  44.810  12.405
 7321W        W79647   4.852  35.429  10.634
 7322W        W79648   6.195  36.580   1.898
 7323W        W79649  37.995  44.442   4.796
 7324W        W79650  41.525  23.532   4.289
 7325W        W79651  14.643  28.533  13.464
 7326W        W79652   8.684  35.564   4.750
 7327W        W79653  44.774  40.846   0.408
 7328W        W79654  43.942  28.045  11.546
 7329W        W79655   1.256  12.748   4.240
 7330W        W79656  25.049  44.771  10.530
 7331W        W79657   8.215   4.225  12.530
 7332W        W79658   7.729  28.136  12.342
 7333W        W79659  27.083  43.018  11.978
 7334W        W79660   9.265  25.578   3.778
 7335W        W79661  21.706   1.855  13.033
 7336W        W79662  27.555  29.529  13.429
 7337W        W79663  14.668  18.639  12.964
 7338W        W79664  29.530  10.651  11.893
 7339W        W79665  37.535   8.264  10.892
 7340W        W79666  23.515   8.872  13.481
 7341W        W79667   4.442  32.041   4.342
 7342W        W79668   4.273  36.871   0.304
 7343W        W79669  23.498  38.860   0.769
 7344W        W79670  31.610   0.778  10.508
 7345W        W79671  19.575  42.302   4.294
 7346W        W79672  28.617   2.297  13.900
 7347W        W79673  33.496   6.745   9.978
 7348W        W79674  33.972   0.389   3.859
 7349W        W79675  39.944  36.093  12.034
 7350W        W79676  31.990  44.855   3.261
 7351W        W79677  36.941   6.922   1.857
 7352W        W79678  14.196  19.117  12.965
 7353W        W79679   1.890  16.207  13.062
 7354W        W79680  31.070  25.160   3.285
 7355W        W79681  35.520  39.013   4.165
 7356W        W79682  39.314   9.832  11.874
 7357W        W79683   4.926   6.808  12.422
 7358W        W79684  18.783   1.783   2.730
 7359W        W79685  13.641  43.955   3.721
 7360W        W79686  19.273   2.938   1.344
 7361W        W79687  24.583  42.445  12.953
 7362W        W79688  41.536  34.540   2.829
 7363W        W79689  30.610  10.339   4.201
 7364W        W79690  15.138  35.361  13.536
 7365W        W79691  18.622  24.224   2.767
 7366W        W79692   8.401  19.616   1.264
 7367W        W79693   6.371  35.892   2.346
 7368W        W79694  36.085  37.840  10.463
 7369W        W79695  12.841  14.657  12.838
 7370W        W79696  33.969  12.804   3.723
 7371W        W79697  28.119   7.800  14.024
 7372W        W79698   2.881  17.670  14.823
 7373W        W79699   9.773  13.115   3.245
 7374W        W79700  44.338  16.699  12.835
 7375W        W79701  23.626  12.787   4.246
 7376W        W79702  18.164  31.906  11.871
 7377W        W79703  11.763  16.737  14.441
 7378W        W79704  38.074  42.843   1.264
 7379W        W79705  14.211  41.993   4.627
 7380W        W79706  40.033  37.879  13.823
 7381W        W79707  13.201  29.137  11.004
 7382W        W79708  22.034  21.667   2.703
 7383W        W79709   9.253   1.331   1.239
 7384W        W79710   6.287  41.400   3.778
 7385W        W79711   5.782   5.200   0.776
 7386W        W79712  38.919  26.997  10.041
 7387W        W79713   3.778  39.051   1.925
 7388W        W79714   7.740   4.779  13.961
 7389W        W79715  26.671   3.926   0.807
 7390W        W79716  29.953  31.446   2.845
 7391W        W79717  18.193  27.082  14.389
 7392W        W79718   0.843  37.518   0.752
 7393W        W79719   5.897  27.483   2.801
 7394W        W79720  35.558  13.827  14.423
 7395W        W79721  33.997   3.268  11.018
 7396W        W79722  26.181   2.758   2.329
 7397W        W79723  18.620  32.905   0.448
 7398W        W79724  35.863  44.378   3.827
 7399W        W79725  26.628  40.823   4.718
 7400W        W79726  22.253  40.435  11.081
 7401W        W79727  32.520   7.305   3.246
 7402W        W79728   9.334  25.589   4.616
 7403W        W79729  24.008  15.735  13.464
 7404W        W79730  30.144  34.917  11.932
 7405W        W79731  16.792  28.958  14.903
 7406W        W79732  23.595   1.800   2.698
 7407W        W79733  40.956  28.962   2.378
 7408W        W79734  29.433  36.489   4.643
 7409W        W79735  11.705  31.008  10.566
 7410W        W79736   1.302  30.540  11.959
 7411W        W79737   6.905  24.163  12.859
 7412W        W79738  44.963  25.662   4.264
 7413W        W79739   0.346   6.744  12.836
 7414W        W79740  19.146  22.215   3.367
 7415W        W79741  34.402  36.366  11.944
 7416W        W79742  30.583  16.689   3.347
 7417W        W79743  43.402  44.981  13.396
 7418W        W79744  37.842   9.836  11.125
 7419W        W79745  36.441  28.944   3.651
 7420W        W79746  10.240  38.946   0.272
 7421W        W79747  27.100  18.566  12.024
 7422W        W79748   7.823  36.440   1.334
 7423W        W79749  26.523  31.035   1.890
 7424W        W79750  44.362  42.351   1.413
 7425W        W79751  26.456  31.552   0.416
 7426W        W79752  38.056  33.915   1.233
 7427W        W79753  26.205   3.413   1.234
 7428W        W79754  33.617  43.480   2.733
 7429W        W79755  33.540  32.034   0.916
 7430W        W79756   3.283  33.511   1.919
 7431W        W79757  38.333  10.778  10.520
 7432W        W79758  36.908   7.685  13.946
 7433W        W79759  33.104  33.024   3.847
 7434W        W79760  18.181   4.735  10.966
 7435W        W79761  11.841  43.005  12.560
 7436W        W79762  30.474  28.961   3.216
 7437W        W79763  28.642  38.939   1.320
 7438W        W79764  19.169  37.556   0.915
 7439W        W79765  27.123  11.198   2.677
 7440W        W79766  44.979  35.919   1.389
 7441W        W79767  32.395  16.201   0.910
 7442W        W79768  22.536  26.148  12.429
 7443W        W79769  10.755  20.534  13.012
 7444W        W79770  27.949  18.286  12.884
 7445W        W79771  34.504   6.201  13.514
 7446W        W79772  15.132   0.790  11.878
 7447W        W79773  35.100  12.784   4.194
 7448W        W79774  32.594  23.731   0.417
 7449W        W79775  14.162  14.793   3.691
 7450W        W79776   8.313  36.003   4.740
 7451W        W79777  43.940   2.838  12.987
 7452W        W79778  38.428  42.470   1.910
 7453W        W79779  31.101  12.670  12.843
 7454W        W79780  10.768  43.793   3.684
 7455W        W79781  38.976   8.261   2.280
 7456W        W79782  12.616  30.018   4.129
 7457W        W79783  38.407  35.924  10.530
 7458W        W79784  30.084   8.371  12.926
 7459W        W79785  42.510  41.488  14.930
 7460W        W79786   2.950  27.589  14.382
 7461W        W79787  25.660  16.122  12.976
 7462W        W79788  37.943  31.586   0.879
 7463W        W79789  44.502  19.283   4.303
 7464W        W79790  34.570  14.678  14.772
 7465W        W79791  43.976  39.426   4.672
 7466W        W79792  16.721  14.194   1.301
 7467W        W79793  25.655  16.264   2.714
 7468W        W79794  22.164  43.501   1.735
 7469W        W79795   6.842  26.166  12.093
 7470W        W79796  36.942  29.590  14.370
 7471W        W79797   5.361  10.196   1.377
 7472W        W79798  28.095  29.042   1.904
 7473W        W79799  32.047  37.400  11.413
 7474W        W79800  26.130  26.078  12.570
 7475W        W79801  33.516  17.072  11.937
 7476W        W79802  20.112  25.048  12.576
 7477W        W79803  30.462  39.836  14.359
 7478W        W79804  44.451  37.030   1.213
 7479W        W79805  11.737   5.827   2.833
 7480W        W79806  18.179  38.332  14.942
 7481W        W79807  12.346   8.165  13.885
 7482W        W79808  10.652  30.066  11.464
 7483W        W79809  38.076  42.320   1.393
 7484W        W79810  37.846  32.475   1.733
 7485W        W79811   3.848  27.656  12.423
 7486W        W79812  35.467   3.360  11.919
 7487W        W79813  27.471   6.373   1.402
 7488W        W79814   8.257  42.852  14.457
 7489W        W79815  14.638  27.664  12.897
 7490W        W79816  44.422   2.347   1.268
 7491W        W79817  42.964  44.323  12.479
 7492W        W79818  14.156  10.313  10.423
 7493W        W79819  35.067  20.051   4.609
 7494W        W79820  26.686  40.964   0.930
 7495W        W79821   4.935  27.150  11.982
 7496W        W79822   3.402  40.307  10.511
 7497W        W79823  21.737   9.690   4.308
 7498W        W79824  15.635  42.400  13.519
 7499W        W79825  15.125  15.687   0.946
 7500W        W79826  13.751  14.158   1.864
 7501W        W79827  13.236   6.802   0.959
 7502W        W79828  43.431  22.106   2.793
 7503W        W79829   4.279   2.427   2.891
 7504W        W79830   2.928   3.307   4.276
 7505W        W79831  24.508  37.370   3.179
 7506W        W79832  12.723  37.838   1.812
 7507W        W79833  16.248  30.503   3.354
 7508W        W79834  37.930  13.720  13.426
 7509W        W79835   8.756  44.969  13.868
 7510W        W79836  10.791  10.382   1.255
 7511W        W79837  14.732  38.944  10.155
 7512W        W79838   6.906  11.127  12.940
 7513W        W79839   0.838  19.764   3.842
 7514W        W79840   5.216  33.620   4.765
 7515W        W79841  24.980  25.167  11.115
 7516W        W79842  12.818  19.648   2.316
 7517W        W79843  22.732  16.102  13.537
 7518W        W79844   3.730  19.682   4.684
 7519W        W79845   8.395  22.671   3.746
 7520W        W79846  21.657  26.467  14.282
 7521W        W79847  12.760  32.456   0.245
 7522W        W79848  15.251   0.383  13.000
 7523W        W79849  41.893  15.205   2.368
 7524W        W79850  13.711  38.509   0.849
 7525W        W79851  38.016  40.339  13.913
 7526W        W79852  25.467  14.319   1.293
 7527W        W79853   8.704  43.964   4.300
 7528W        W79854  30.477  17.061  12.403
 7529W        W79855  39.036  10.808  10.151
 7530W        W79856  14.275  35.045   4.138
 7531W        W79857  18.183  25.633   3.717
 7532W        W79858   2.903  14.255  10.515
 7533W        W79859   3.277  41.923   4.223
 7534W        W79860  36.008  42.350  11.894
 7535W        W79861  21.050  19.095  13.346
 7536W        W79862  44.923  21.032   1.781
 7537W        W79863  40.895  28.681  11.610
 7538W        W79864  31.054  33.393  13.363
 7539W        W79865  19.092  25.156  10.998
 7540W        W79866  24.036   7.904  12.551
 7541W        W79867  20.581  38.405   0.922
 7542W        W79868  29.929  18.681  13.359
 7543W        W79869   4.234  23.025   5.615
 7544W        W79870  10.160  29.490   3.674
 7545W        W79871  28.462  23.126  10.557
 7546W        W79872  23.633  16.590   3.684
 7547W        W79873  37.486  34.063   1.443
 7548W        W79874   1.866  19.166  12.023
 7549W        W79875  34.610   1.786   1.705
 7550W        W79876  11.696  36.035   4.147
 7551W        W79877  12.788  30.095  10.608
 7552W        W79878  36.432  26.577  12.976
 7553W        W79879  26.161  10.186   1.896
 7554W        W79880   5.220  15.208  10.435
 7555W        W79881   1.316   6.267  12.497
 7556W        W79882  42.521   9.805   1.405
 7557W        W79883  29.563  40.881   3.274
 7558W        W79884  44.900  19.170   1.931
 7559W        W79885   2.425   3.396   4.199
 7560W        W79886  13.666  13.813   3.146
 7561W        W79887  44.300   9.799  13.058
 7562W        W79888  10.383  20.661  14.444
 7563W        W79889  39.866  32.476   4.709
 7564W        W79890  28.146   8.883   0.805
 7565W        W79891   3.449  27.619   0.369
 7566W        W79892  40.481  33.473   4.646
 7567W        W79893   5.859  37.043   3.355
 7568W        W79894   8.858  17.293   0.849
 7569W        W79895   3.245   7.871  14.501
 7570W        W79896   9.262   4.248  11.577
 7571W        W79897  25.081   3.900  11.451
 7572W        W79898  14.615  26.611   2.187
 7573W        W79899  32.914  29.962   4.212
 7574W        W79900  11.681  20.228   4.251
 7575W        W79901  20.161   4.875   3.383
 7576W        W79902  11.826  39.913   0.905
 7577W        W79903   6.838   7.761   0.402
 7578W        W79904  41.903   5.749  10.491
 7579W        W79905  19.750   2.856   3.214
 7580W        W79906  31.048   5.359  11.435
 7581W        W79907  39.426   6.376   0.401
 7582W        W79908   6.729  11.743   3.183
 7583W        W79909  23.187  22.079  11.095
 7584W        W79910   3.269  11.669  12.087
 7585W        W79911   4.784   8.843   1.822
 7586W        W79912  17.209   9.693  13.514
 7587W        W79913   8.864  13.163   2.666
 7588W        W79914  23.218  15.220  12.035
 7589W        W79915  31.013  18.196   2.210
 7590W        W79916  39.456   4.325   2.311
 7591W        W79917  27.993  44.007  14.389
 7592W        W79918  19.272  29.456  10.988
 7593W        W79919  38.061  40.507  10.449
 7594W        W79920  23.558  15.628  14.288
 7595W        W79921   1.977  17.673  11.982
 7596W        W79922  10.780  40.379   2.286
 7597W        W79923   4.834  27.072  12.558
 7598W        W79924  44.306  42.920  11.088
 7599W        W79925  21.607  15.741   0.324
 7600W        W79926  42.323  44.309   3.650
 7601W        W79927  17.234  26.702  10.578
 7602W        W79928  22.547  33.973   4.351
 7603W        W79929  27.166  40.928   1.349
 7604W        W79930  31.461   4.396  12.037
 7605W        W79931  41.479   2.778  11.969
 7606W        W79932  28.961  43.389   3.635
 7607W        W79933  36.054  29.642   3.310
 7608W        W79934  27.115  41.486  10.154
 7609W        W79935   8.322   3.405  13.885
 7610W        W79936  22.067  32.027   0.286
 7611W        W79937  10.141  21.053  14.412
 7612W        W79938  11.346  26.486   9.971
 7613W        W79939  15.607  16.245   2.878
 7614W        W79940  14.712  28.054  13.880
 7615W        W79941  43.875   7.205   1.902
 7616W        W79942   2.846  34.926  12.883
 7617W        W79943  10.329  19.234  10.552
 7618W        W79944  21.160  19.066  10.944
 7619W        W79945  31.536  31.129  12.961
 7620W        W79946  11.334  17.100   2.809
 7621W        W79947  43.382  32.067   4.320
 7622W        W79948  24.010   8.850   1.272
 7623W        W79949  24.976  28.959   1.410
 7624W        W79950  28.948  42.858  12.065
 7625W        W79951   2.928  42.404  10.445
 7626W        W79952  38.526  43.002   2.668
 7627W        W79953  15.122   8.853   1.231
 7628W        W79954  35.380  32.086  13.811
 7629W        W79955  17.196   2.322  11.022
 7630W        W79956  10.684  32.063  11.523
 7631W        W79957  44.309  16.229  13.873
 7632W        W79958  29.470  36.565   1.327
 7633W        W79959  42.350   6.205   1.710
 7634W        W79960   6.852  13.750   4.629
 7635W        W79961  43.913  28.146   1.839
 7636W        W79962  40.520  41.818   1.883
 7637W        W79963  20.134   6.813   0.357
 7638W        W79964  26.153  34.548   3.691
 7639W        W79965   8.251  24.481  13.347
 7640W        W79966  29.938  24.496  12.403
 7641W        W79967  33.616  16.166   1.716
 7642W        W79968  14.183  38.504   3.787
 7643W        W79969  43.890  20.204  14.859
 7644W        W79970  17.585  39.949  13.058
 7645W        W79971  12.759  14.778   1.727
 7646W        W79972  34.875   9.389   3.779
 7647W        W79973  13.815   0.907   4.614
 7648W        W79974   1.776  23.151   1.716
 7649W        W79975  27.188  32.559   2.412
 7650W        W79976  32.556  22.997  14.372
 7651W        W79977  20.599  13.203   2.781
 7652W        W79978  19.162  32.438  11.590
 7653W        W79979  17.633  43.909  13.904
 7654W        W79980  26.166  22.182   2.718
 7655W        W79981  22.719  25.659   2.894
 7656W        W79982  22.101  24.585  11.460
 7657W        W79983  12.145  25.676   3.341
 7658W        W79984  25.044  16.679  14.809
 7659W        W79985  31.589  36.978   0.326
 7660W        W79986  23.597   6.679  10.619
 7661W        W79987  42.506  44.006   2.746
 7662W        W79988   3.794  13.106  12.568
 7663W        W79989   9.300  29.623   3.860
 7664W        W79990  26.622  25.628   2.232
 7665W        W79991  19.680  29.544  11.455
 7666W        W79992  31.955  10.194   4.319
 7667W        W79993  21.686  40.010   2.748
 7668W        W79994   7.350  27.625   3.793
 7669W        W79995  35.975  13.243  13.431
 7670W        W79996  35.509  16.678  10.427
 7671W        W79997  27.501  29.947   0.260
 7672W        W79998   4.716  40.811   1.822
 7673W        W79999  39.429  14.300   4.675
 7674W        W80000  42.919  23.152   3.275
 7675W        W80001  43.867  39.446  11.514
 7676W        W80002  18.549  40.849  12.993
 7677W        W80003  20.037  15.723   2.833
 7678W        W80004  29.635  35.476   2.243
 7679W        W80005  23.990   8.792   5.286
 7680W        W80006  27.067   4.304  13.026
 7681W        W80007  27.573   8.252   4.195
 7682W        W80008  38.401  43.352   3.649
 7683W        W80009  44.493  41.430   0.331
 7684W        W80010  31.469  40.323  10.971
 7685W        W80011   6.862  16.303  14.300
 7686W        W80012  19.571   3.383  10.451
 7687W        W80013  38.900  25.106   0.762
 7688W        W80014  41.460  18.768   2.343
 7689W        W80015  29.653  13.810   4.336
 7690W        W80016  40.545  36.402   1.729
 7691W        W80017   3.890   9.657   2.835
 7692W        W80018  18.654  30.634   4.226
 7693W        W80019  41.869   5.765   1.430
 7694W        W80020  26.042  25.610  12.377
 7695W        W80021  14.305  38.942  11.936
 7696W        W80022  40.357   7.265   1.727
 7697W        W80023  11.704  31.130  10.129
 7698W        W80024   8.214  25.621  10.946
 7699W        W80025   6.319   1.241   1.783
 7700W        W80026  39.994  13.193   1.890
 7701W        W80027  25.663   9.271   1.291
 7702W        W80028  10.856  23.591   1.289
 7703W        W80029  25.115  17.299  10.050
 7704W        W80030   0.786  30.941   2.803
 7705W        W80031  16.605  23.194  12.067
 7706W        W80032  15.682  21.515   4.220
 7707W        W80033  10.758  25.503   5.134
 7708W        W80034  24.533  25.102  11.601
 7709W        W80035  13.716  23.013   2.866
 7710W        W80036  36.486   2.730   4.718
 7711W        W80037  27.151  18.604  13.863
 7712W        W80038   5.383  38.501  14.787
 7713W        W80039  16.713  10.236  10.941
 7714W        W80040  27.991  19.255  14.507
 7715W        W80041   2.828  12.809  14.333
 7716W        W80042   3.819  41.856   1.387
 7717W        W80043  44.875  12.237   3.766
 7718W        W80044  31.910  31.067  11.426
 7719W        W80045  40.004  43.358  12.841
 7720W        W80046   2.790   9.696   3.314
 7721W        W80047  11.845  13.807   2.276
 7722W        W80048   2.457  18.135   0.263
 7723W        W80049  23.086  44.815  14.300
 7724W        W80050  28.618  34.411   3.166
 7725W        W80051  12.231   4.860   0.927
 7726W        W80052  36.960  25.050   2.256
 7727W        W80053  17.215  14.715   0.829
 7728W        W80054   7.669  12.630   3.269
 7729W        W80055   5.258  11.182  11.075
 7730W        W80056  40.530  42.413   2.706
 7731W        W80057  11.355   4.310   1.695
 7732W        W80058  42.357  27.184  13.939
 7733W        W80059  27.551  26.532   2.183
 7734W        W80060  23.688   6.727  13.543
 7735W        W80061   0.757   4.784   1.724
 7736W        W80062  36.348  40.413   1.745
 7737W        W80063   9.369  44.927  14.396
 7738W        W80064   5.780   4.232   4.818
 7739W        W80065  39.326  20.123  10.981
 7740W        W80066  13.814  13.215  13.892
 7741W        W80067  10.868   8.358   1.323
 7742W        W80068  25.082  33.116  14.917
 7743W        W80069  14.176   2.963  13.307
 7744W        W80070   8.844  17.645   2.766
 7745W        W80071  44.360  22.179  11.112
 7746W        W80072  33.445   8.885   2.195
 7747W        W80073  26.675  25.497   4.239
 7748W        W80074   1.307   9.714   3.630
 7749W        W80075  39.008  15.125   1.271
 7750W        W80076  39.059   4.856  12.453
 7751W        W80077  39.443  26.659  13.529
 7752W        W80078   9.841  39.901   3.269
 7753W        W80079   0.747  40.315   4.265
 7754W        W80080  29.644  24.062  14.513
 7755W        W80081  19.758  21.574  13.881
 7756W        W80082   5.728   3.396  12.012
 7757W        W80083  16.628  22.500   3.843
 7758W        W80084  39.816  32.079   4.161
 7759W        W80085   0.986   6.863   2.779
 7760W        W80086  41.887  22.081   3.377
 7761W        W80087  31.901  29.059  12.896
 7762W        W80088   2.270  14.607  11.478
 7763W        W80089  36.986  26.088   1.935
 7764W        W80090  19.695  24.143  11.419
 7765W        W80091   6.686  14.247  12.473
 7766W        W80092   8.660  31.565  11.959
 7767W        W80093   6.357   9.790   0.791
 7768W        W80094  29.596  43.790   3.362
 7769W        W80095  29.623   8.771  10.142
 7770W        W80096   9.771  20.557  10.594
 7771W        W80097  16.146  36.896   3.713
 7772W        W80098   0.825  14.809  10.511
 7773W        W80099  25.116  21.673   3.161
 7774W        W80100  44.789  17.218   3.258
 7775W        W80101  29.088  43.510   1.410
 7776W        W80102   4.261  11.172   1.340
 7777W        W80103  17.208  31.544   0.868
 7778W        W80104  20.131  25.610   1.718
 7779W        W80105  29.516  29.476  11.429
 7780W        W80106  42.338  44.785  10.570
 7781W        W80107  38.373  16.805  11.382
 7782W        W80108   1.305  39.537   0.469
 7783W        W80109   4.757  35.951   3.217
 7784W        W80110  14.307   5.859   1.775
 7785W        W80111   4.230  12.177   5.223
 7786W        W80112  26.657  35.976   3.311
 7787W        W80113  11.776  38.548  10.509
 7788W        W80114  21.061   1.333  14.878
 7789W        W80115  38.549  26.953  11.071
 7790W        W80116  21.169   2.302  11.053
 7791W        W80117  10.187  39.552  10.540
 7792W        W80118  27.984  29.155   3.810
 7793W        W80119  34.867   1.882   2.244
 7794W        W80120   0.754  40.041   0.254
 7795W        W80121  23.006   4.348  13.045
 7796W        W80122  36.974   0.985   3.805
 7797W        W80123  31.926  20.697   2.669
 7798W        W80124  27.646  22.087   2.689
 7799W        W80125   9.267   5.350  13.327
 7800W        W80126   0.900  12.354  12.511
 7801W        W80127  34.420  39.905  12.511
 7802W        W80128  42.452  24.607  13.533
 7803W        W80129  29.449   4.824  12.394
 7804W        W80130  16.762  44.284   1.292
 7805W        W80131  33.094  44.276   3.187
 7806W        W80132   8.320  11.794  13.373
 7807W        W80133  11.333  30.434   1.763
 7808W        W80134   9.793  37.831  14.422
 7809W        W80135  16.781  41.537   0.351
 7810W        W80136  22.016  31.985   1.763
 7811W        W80137  39.507  33.088  14.293
 7812W        W80138  20.698  31.144  14.956
 7813W        W80139  12.140  16.242   0.264
 7814W        W80140  41.970  19.635  12.494
 7815W        W80141   1.427  34.953   2.312
 7816W        W80142  12.157   4.265   3.775
 7817W        W80143  12.641   9.347   4.178
 7818W        W80144  34.084  25.146  13.343
 7819W        W80145  20.108   0.323  14.853
 7820W        W80146  24.659   9.257  13.460
 7821W        W80147   8.817  10.343   1.442
 7822W        W80148   9.823  24.557  10.600
 7823W        W80149  34.587  19.696  12.982
 7824W        W80150  26.500   5.255  12.370
 7825W        W80151   7.863  34.112  14.997
 7826W        W80152  43.355   6.309  10.518
 7827W        W80153  16.113  29.438  11.442
 7828W        W80154  16.620  33.952  10.608
 7829W        W80155  31.114  37.430  10.942
 7830W        W80156  22.686  39.034  11.052
 7831W        W80157  20.660  40.346  12.464
 7832W        W80158   0.466   2.897   2.725
 7833W        W80159  27.648  18.268  12.855
 7834W        W80160  43.990   6.877   0.792
 7835W        W80161  31.418  38.893  10.535
 7836W        W80162  33.427  40.043   3.285
 7837W        W80163  36.446   5.903   4.788
 7838W        W80164   0.772  37.838   1.719
 7839W        W80165  14.741   0.366  11.388
 7840W        W80166   0.407  19.144   0.393
 7841W        W80167  24.600   2.411   0.761
 7842W        W80168   0.799  41.470  14.432
 7843W        W80169  31.500  29.954   4.296
 7844W        W80170  21.060  10.360   4.343
 7845W        W80171  43.771  29.647  14.308
 7846W        W80172  17.724  23.202   0.462
 7847W        W80173  12.297  31.564   0.826
 7848W        W80174  15.647  21.619   2.679
 7849W        W80175  20.183   5.771   3.336
 7850W        W80176  14.635  34.993   3.320
 7851W        W80177  29.573  37.478   3.693
 7852W        W80178  10.214  32.578  12.053
 7853W        W80179   2.247  18.242   3.201
 7854W        W80180   1.946  31.405   0.470
 7855W        W80181  38.993   3.288   2.384
 7856W        W80182  25.650  44.360   4.792
 7857W        W80183   2.818  12.655   4.114
 7858W        W80184   6.727  14.254   1.775
 7859W        W80185   9.683   6.814  11.051
 7860W        W80186  35.467  41.516  11.375
 7861W        W80187  41.031  31.128  13.001
 7862W        W80188  28.626   2.243   0.850
 7863W        W80189   8.290  16.577   4.125
 7864W        W80190  44.890  32.014   1.385
 7865W        W80191  39.834   9.220  12.506
 7866W        W80192  14.154  24.016   3.797
 7867W        W80193  24.486  14.139  11.611
 7868W        W80194  11.209  18.134   3.643
 7869W        W80195  26.521  37.428   3.266
 7870W        W80196  25.065  20.184   1.393
 7871W        W80197  37.959  16.729   1.390
 7872W        W80198  43.017   0.860  11.012
 7873W        W80199  28.015  41.335   1.694
 7874W        W80200  18.114  21.746   2.372
 7875W        W80201  40.392  27.452  10.642
 7876W        W80202  17.188   0.437  12.879
 7877W        W80203   8.262  19.229  10.975
 7878W        W80204  31.025   6.269  11.516
 7879W        W80205  25.202   6.685  11.086
 7880W        W80206   2.759  37.051   3.385
 7881W        W80207  37.385   3.833  10.620
 7882W        W80208  18.747  13.650   0.404
 7883W        W80209  21.043  41.813   0.409
 7884W        W80210  11.810  31.974  10.008
 7885W        W80211  41.336   6.210   2.832
 7886W        W80212  14.630  43.794   0.460
 7887W        W80213   0.376  18.790   0.835
 7888W        W80214  23.191  16.116  10.622
 7889W        W80215   6.735  39.358   3.189
 7890W        W80216   7.269   6.194   3.312
 7891W        W80217  24.486  35.914  12.860
 7892W        W80218  17.215   3.222   0.289
 7893W        W80219  24.095  17.258   1.775
 7894W        W80220  42.873  23.124   4.230
 7895W        W80221  13.142  23.050   0.351
 7896W        W80222  21.529  39.020   2.789
 7897W        W80223  21.176  32.409   4.263
 7898W        W80224   9.215  28.103  11.500
 7899W        W80225   7.175   4.720  13.416
 7900W        W80226  19.166  14.111   2.391
 7901W        W80227  43.464  27.578   0.887
 7902W        W80228  30.927  12.687  10.556
 7903W        W80229  17.145  16.263  13.487
 7904W        W80230  38.479   6.798   4.314
 7905W        W80231  13.637   4.278  13.523
 7906W        W80232  24.183  14.110  10.934
 7907W        W80233   8.380   9.296   0.955
 7908W        W80234  36.994  16.128   2.826
 7909W        W80235   8.680   7.404   4.297
 7910W        W80236  42.502  29.035  12.046
 7911W        W80237  13.653  12.676  10.458
 7912W        W80238  17.170   3.376  11.527
 7913W        W80239   8.696  10.867  11.439
 7914W        W80240  41.882  44.382   1.362
 7915W        W80241  24.586  44.870  11.606
 7916W        W80242   7.732  40.992  13.928
 7917W        W80243  36.062  20.694  10.502
 7918W        W80244  13.687  10.206  10.520
 7919W        W80245  21.131  20.657   3.151
 7920W        W80246  31.513  28.092  13.027
 7921W        W80247  32.929   6.853   1.322
 7922W        W80248  21.153  10.155  13.939
 7923W        W80249   0.415  38.822   2.363
 7924W        W80250  17.098  37.937  13.807
 7925W        W80251  30.469  21.224  11.606
 7926W        W80252  30.582  31.433  10.430
 7927W        W80253  31.937  21.615   0.774
 7928W        W80254  29.545  19.534   1.699
 7929W        W80255   8.790  39.498  14.967
 7930W        W80256  10.722  38.022   3.274
 7931W        W80257  36.045  20.144  13.323
 7932W        W80258  21.093  26.479   4.278
 7933W        W80259   4.337  44.339  12.850
 7934W        W80260  22.039  19.560   1.394
 7935W        W80261  10.225  12.165  14.886
 7936W        W80262  32.898  24.708   2.756
 7937W        W80263   0.361  12.256  11.876
 7938W        W80264  36.917  34.386   1.265
 7939W        W80265  38.023   8.658   2.309
 7940W        W80266   8.213  36.458   0.886
 7941W        W80267   7.413  20.123   1.713
 7942W        W80268   1.452  13.136  10.945
 7943W        W80269  12.349   7.234   2.295
 7944W        W80270  41.361  24.636  12.957
 7945W        W80271  32.538  40.377   4.353
 7946W        W80272  32.499  13.301   0.811
 7947W        W80273  39.047  24.213  12.385
 7948W        W80274  31.133  23.985   1.425
 7949W        W80275  22.203  11.137   1.397
 7950W        W80276  18.725   7.404   2.752
 7951W        W80277  29.544  40.818   2.385
 7952W        W80278   9.149  41.891  13.992
 7953W        W80279  11.775  14.152  14.932
 7954W        W80280  44.008  40.439   0.462
 7955W        W80281   3.258  31.500   0.799
 7956W        W80282  23.015  15.672  12.550
 7957W        W80283  35.974  12.622  12.494
 7958W        W80284  20.250  33.940   2.820
 7959W        W80285  20.612  11.338   4.647
 7960W        W80286  19.693   3.411  14.792
 7961W        W80287  12.273  15.306  14.855
 7962W        W80288  26.552   0.822  14.876
 7963W        W80289  25.990   3.751   4.249
 7964W        W80290  32.044  25.538   0.323
 7965W        W80291   2.412   5.816  11.045
 7966W        W80292   3.942  25.207  13.854
 7967W        W80293  26.189  16.143   9.437
 7968W        W80294   6.700  38.045   1.325
 7969W        W80295   1.398  10.785   2.787
 7970W        W80296  24.209  40.388   3.365
 7971W        W80297  33.936  28.467  13.920
 7972W        W80298  15.285  12.800  11.409
 7973W        W80299   5.243  21.116   2.268
 7974W        W80300  16.707  22.710  10.468
 7975W        W80301  44.496   0.445  10.490
 7976W        W80302  26.992  40.894  10.591
 7977W        W80303  26.137  35.944   3.376
 7978W        W80304  26.065  40.818  13.827
 7979W        W80305  24.118  12.143   4.166
 7980W        W80306  31.984   9.309  12.521
 7981W        W80307  22.192  34.047  13.971
 7982W        W80308  22.504  30.549   1.252
 7983W        W80309  15.742  16.802  12.847
 7984W        W80310  18.709  28.520   3.178
 7985W        W80311  39.964   8.820   2.763
 7986W        W80312  36.020  37.495   4.147
 7987W        W80313   9.715  23.577   0.292
 7988W        W80314  14.291  28.448  13.312
 7989W        W80315  31.586  10.145  11.475
 7990W        W80316  13.757  31.579   4.821
 7991W        W80317   3.335  15.644  10.564
 7992W        W80318  28.067   1.391  11.045
 7993W        W80319  23.159   8.398   3.861
 7994W        W80320   9.296  21.522  11.373
 7995W        W80321  34.610  29.500  12.013
 7996W        W80322  24.032  35.855   2.207
 7997W        W80323  12.330   6.739   4.320
 7998W        W80324  26.566  32.133  13.405
 7999W        W80325  28.609  24.654  12.557
 8000W        W80326  36.904  27.592   2.825
 8001W        W80327  43.424  28.613  14.826
 8002W        W80328  19.043  24.164  12.003
 8003W        W80329  36.910  22.575  14.484
 8004W        W80330  33.396  16.752  10.907
 8005W        W80331  36.470   2.897   3.289
 8006W        W80332   7.224  44.831  14.008
 8007W        W80333  11.739  11.347   4.652
 8008W        W80334  44.793  17.120  12.344
 8009W        W80335  32.605  40.346   1.750
 8010W        W80336  17.637   7.686   2.417
 8011W        W80337  26.160   3.376  13.478
 8012W        W80338  43.346   1.356  10.992
 8013W        W80339  23.086  29.922   4.174
 8014W        W80340   6.699  25.040  14.798
 8015W        W80341  11.640  37.472   0.442
 8016W        W80342  16.743  11.155  11.951
 8017W        W80343   4.823  23.520  12.953
 8018W        W80344   3.409  24.147  14.019
 8019W        W80345   9.790  18.618   1.761
 8020W        W80346  28.986  43.296  12.993
 8021W        W80347   9.232  40.505  12.908
 8022W        W80348   2.824  29.589  11.591
 8023W        W80349  42.985   5.254   2.317
 8024W        W80350  44.797  20.648   3.648
 8025W        W80351  38.394  30.117   0.908
 8026W        W80352   6.765  43.275   1.935
 8027W        W80353  31.098  27.527   4.233
 8028W        W80354  33.946   3.450  14.452
 8029W        W80355  23.070   9.201   0.279
 8030W        W80356  37.448  41.843  14.964
 8031W        W80357  32.955  24.068  11.953
 8032W        W80358   0.971  35.585   0.822
 8033W        W80359  21.556  36.986  14.494
 8034W        W80360   6.372  17.145   4.318
 8035W        W80361  18.761  10.855   4.673
 8036W        W80362   1.977  11.363   0.892
 8037W        W80363  34.539  22.604   2.245
 8038W        W80364  23.498   4.787  14.769
 8039W        W80365  40.026  11.635  14.435
 8040W        W80366  34.482  35.910  12.847
 8041W        W80367  28.679  24.641   3.854
 8042W        W80368   4.440  25.074  10.421
 8043W        W80369  17.693   4.876  11.968
 8044W        W80370  44.912  41.417  12.439
 8045W        W80371   3.837  42.281   3.629
 8046W        W80372  31.142   8.721  11.940
 8047W        W80373  24.603  10.796  13.845
 8048W        W80374  33.556  20.739   4.336
 8049W        W80375  35.539  13.246  13.400
 8050W        W80376   2.296  33.878   3.306
 8051W        W80377  22.107  36.370  14.446
 8052W        W80378   9.764   8.376   0.358
 8053W        W80379  34.486  18.596   4.247
 8054W        W80380  18.232  40.461   1.931
 8055W        W80381  26.669   9.722  12.967
 8056W        W80382   9.800  36.933  14.292
 8057W        W80383  24.481  38.877  10.630
 8058W        W80384  42.310  12.325   3.242
 8059W        W80385   7.253  23.125   4.291
 8060W        W80386   8.763   0.465   1.731
 8061W        W80387  26.127  17.302  13.357
 8062W        W80388   7.857   6.753  13.993
 8063W        W80389  18.134  15.230   2.368
 8064W        W80390  18.087  33.073  11.087
 8065W        W80391  37.934   3.946   2.736
 8066W        W80392  10.373  20.739   3.869
 8067W        W80393   2.839   2.337  14.434
 8068W        W80394  41.432  21.043   5.244
 8069W        W80395  15.210  38.472  12.900
 8070W        W80396  13.330  15.747   1.881
 8071W        W80397  19.220  18.108  13.338
 8072W        W80398  27.567  43.470  13.512
 8073W        W80399  26.207  19.260   0.243
 8074W        W80400  23.680  20.050   3.862
 8075W        W80401  35.065  39.473  12.059
 8076W        W80402   2.762  23.735   3.651
 8077W        W80403  43.816  43.943  10.621
 8078W        W80404   8.221   8.796   3.693
 8079W        W80405  14.715  30.500   2.222
 8080W        W80406  31.422  37.388   1.216
 8081W        W80407   5.394  15.128  13.472
 8082W        W80408  29.446  42.885  12.061
 8083W        W80409  33.123  24.720   0.870
 8084W        W80410  35.423  32.568   3.630
 8085W        W80411  29.050  44.863   0.861
 8086W        W80412  37.406  19.775  12.991
 8087W        W80413  31.015   5.773  10.586
 8088W        W80414  40.465   7.307  11.565
 8089W        W80415   6.706  37.416   0.440
 8090W        W80416  33.528  22.690   2.277
 8091W        W80417  25.048   5.308   0.942
 8092W        W80418   7.393   3.231   1.264
 8093W        W80419  16.809   1.367  14.889
 8094W        W80420  16.093  43.989  14.840
 8095W        W80421  42.938  23.159   1.388
 8096W        W80422  28.436   0.914   3.362
 8097W        W80423  34.377  36.466  11.550
 8098W        W80424   4.797   9.782   0.812
 8099W        W80425  17.566  28.541  12.888
 8100W        W80426   3.284  28.440   0.736
 8101W        W80427  27.978  26.077  11.057
 8102W        W80428  35.465  30.081   2.854
 8103W        W80429   6.377  36.888   3.158
 8104W        W80430  21.559  18.759   1.733
 8105W        W80431  18.545  29.062  14.947
 8106W        W80432  21.248   2.447   1.787
 8107W        W80433   0.374  15.653  13.338
 8108W        W80434  11.299  35.006   5.635
 8109W        W80435   3.892  28.998  13.930
 8110W        W80436  43.838  12.651   3.703
 8111W        W80437  29.965  22.735   0.377
 8112W        W80438   7.836  22.161  12.852
 8113W        W80439  44.769  12.147  13.476
 8114W        W80440  12.678  21.742   5.187
 8115W        W80441   1.364   8.744   0.835
 8116W        W80442  42.031  18.263   0.289
 8117W        W80443   3.719   3.394   4.345
 8118W        W80444  44.303  39.942  14.828
 8119W        W80445   7.384  35.015  14.907
 8120W        W80446  29.439  40.531   0.753
 8121W        W80447   2.310  29.645   3.777
 8122W        W80448   1.802  26.959  13.888
 8123W        W80449  12.279  44.948   1.804
 8124W        W80450  40.437   8.835   4.169
 8125W        W80451  34.087  31.523   3.382
 8126W        W80452  43.844  30.545  11.048
 8127W        W80453  26.689  26.112   1.444
 8128W        W80454  41.968  20.540  11.410
 8129W        W80455  22.097  39.033   0.841
 8130W        W80456  15.809  34.986   3.812
 8131W        W80457  25.621  33.919   4.794
 8132W        W80458  14.656  13.758   2.683
 8133W        W80459  42.434  11.649  12.526
 8134W        W80460  37.452  38.562   3.709
 8135W        W80461  44.260  26.565  13.035
 8136W        W80462  37.446  26.702   2.339
 8137W        W80463  24.515  17.703   1.242
 8138W        W80464  19.230  24.062  13.456
 8139W        W80465  35.422  42.380  13.966
 8140W        W80466  38.434  15.807  11.379
 8141W        W80467  34.391  16.690   4.191
 8142W        W80468   6.287  36.470   5.256
 8143W        W80469  16.216  29.964  13.382
 8144W        W80470  40.532  44.994   2.726
 8145W        W80471  28.602  17.214   2.701
 8146W        W80472  29.633  32.074   1.344
 8147W        W80473  41.989  14.294   5.315
 8148W        W80474   0.778  35.528   2.697
 8149W        W80475   8.262  40.050   4.262
 8150W        W80476  15.644  28.982   0.894
 8151W        W80477  25.001  40.544  14.822
 8152W        W80478  43.454  15.686  14.417
 8153W        W80479  41.526  16.618   3.841
 8154W        W80480   2.908  39.991   4.243
 8155W        W80481  35.423  33.015  13.912
 8156W        W80482  25.519   6.772   4.228
 8157W        W80483  11.240  26.000   4.175
 8158W        W80484   2.335  11.175   4.777
 8159W        W80485   8.893   5.822  12.490
 8160W        W80486  28.494  24.173   2.693
 8161W        W80487  41.406  26.111   2.793
 8162W        W80488   4.778  28.160  11.583
 8163W        W80489  29.611  34.595  12.536
 8164W        W80490  42.796  20.674   1.355
 8165W        W80491  35.911  41.870   3.782
 8166W        W80492   3.820  24.489  11.488
 8167W        W80493   0.955  40.321   4.833
 8168W        W80494  41.327  39.417   1.926
 8169W        W80495  25.161  29.456   2.260
 8170W        W80496  23.020  26.090  10.918
 8171W        W80497  27.139  12.116   0.247
 8172W        W80498  18.226  38.444   1.259
 8173W        W80499   2.333  14.250  14.924
 8174W        W80500  11.189  14.723  13.939
 8175W        W80501  23.501  11.741   2.322
 8176W        W80502   4.231  18.204   4.628
 8177W        W80503  18.201   8.223   2.286
 8178W        W80504   7.719   0.444  11.935
 8179W        W80505  42.291  34.903   4.637
 8180W        W80506  44.853  39.060  14.923
 8181W        W80507  30.609  22.604   0.797
 8182W        W80508   4.373   4.748   0.941
 8183W        W80509   1.923  19.247  10.907
 8184W        W80510  36.997  14.613  14.288
 8185W        W80511  44.304  16.756   3.337
 8186W        W80512  33.877   1.410  10.455
 8187W        W80513  15.823  37.359   2.773
 8188W        W80514  10.820  43.779  10.946
 8189W        W80515  38.827  33.907   5.315
 8190W        W80516  23.506  42.870  13.891
 8191W        W80517  11.699   1.356  14.765
 8192W        W80518  40.988  35.853  14.769
 8193W        W80519  14.146  16.130   4.154
 8194W        W80520   4.355   6.286  12.485
 8195W        W80521  37.340  43.472   2.823
 8196W        W80522  29.632  41.853   1.793
 8197W        W80523  37.551  28.989  11.387
 8198W        W80524   2.270  44.335  12.378
 8199W        W80525   5.727  23.220  14.512
 8200W        W80526  22.634  19.159  13.861
 8201W        W80527  35.958  26.531   0.822
 8202W        W80528  13.841  36.410   0.893
 8203W        W80529   9.789  22.200   0.481
 8204W        W80530  31.640   6.391  10.550
 8205W        W80531  17.671  44.279   2.359
 8206W        W80532  42.285  32.606   2.266
 8207W        W80533  13.175  29.051   3.256
 8208W        W80534  22.513  41.790  12.848
 8209W        W80535  43.382  44.487  12.909
 8210W        W80536   5.330  35.866   2.899
 8211W        W80537  28.515  25.614  10.092
 8212W        W80538   6.235  11.794   1.750
 8213W        W80539   5.771   1.336  10.503
 8214W        W80540  34.901  27.668  11.477
 8215W        W80541  22.618   0.350   2.901
 8216W        W80542  10.756   4.401   2.768
 8217W        W80543  38.880   0.951  14.313
 8218W        W80544   0.856  33.030   0.464
 8219W        W80545  21.211  36.572  12.082
 8220W        W80546  14.723   4.299   0.908
 8221W        W80547  20.654   7.240  13.434
 8222W        W80548  31.027  18.676  13.993
 8223W        W80549   5.802   7.262  10.893
 8224W        W80550  28.063  32.896  10.413
 8225W        W80551  14.595  11.732  10.422
 8226W        W80552  39.385  28.541  12.865
 8227W        W80553  37.471  17.161  12.014
 8228W        W80554  36.502  10.372   4.328
 8229W        W80555  33.535   1.852  13.383
 8230W        W80556  14.194  27.151  14.365
 8231W        W80557   6.784  20.189   0.247
 8232W        W80558  20.550  10.660  13.021
 8233W        W80559  15.702  37.498  10.455
 8234W        W80560  10.728  24.643   2.829
 8235W        W80561  39.945   6.704   4.770
 8236W        W80562  12.208  25.086  13.917
 8237W        W80563  41.945  27.629  12.363
 8238W        W80564   0.756   4.907  10.121
 8239W        W80565  18.589  26.537   9.936
 8240W        W80566  16.253  38.480  14.357
 8241W        W80567  39.369   0.493   2.884
 8242W        W80568  27.647  36.873   0.344
 8243W        W80569  38.008   9.829  13.496
 8244W        W80570  28.603  33.407   2.828
 8245W        W80571  36.510  27.093   3.189
 8246W        W80572  40.018   2.388   2.254
 8247W        W80573  22.117  11.664   0.924
 8248W        W80574  14.695   4.840  10.889
 8249W        W80575  15.229  31.486  11.508
 8250W        W80576  26.698  30.503  13.835
 8251W        W80577  27.090  29.576  10.557
 8252W        W80578  17.141  14.746   4.349
 8253W        W80579  41.444  18.291   4.665
 8254W        W80580   7.737  11.843   0.247
 8255W        W80581  25.979   3.381   5.095
 8256W        W80582  11.307  24.651  13.517
 8257W        W80583  33.615  36.946   2.190
 8258W        W80584  29.518  37.032  11.475
 8259W        W80585   2.313  18.663  14.823
 8260W        W80586  39.928  10.668  12.837
 8261W        W80587   1.421   1.947   2.844
 8262W        W80588  36.969   3.353   3.634
 8263W        W80589  16.793  35.515  13.890
 8264W        W80590   4.236   4.824  10.511
 8265W        W80591   9.661  32.025   3.362
 8266W        W80592  37.831  18.672  13.435
 8267W        W80593  34.012  40.320  12.005
 8268W        W80594  30.510  44.904   3.773
 8269W        W80595  15.301   5.368  10.516
 8270W        W80596  11.256  25.470   3.349
 8271W        W80597  27.125   9.858   0.953
 8272W        W80598  33.018  43.406   0.427
 8273W        W80599   7.847  26.117   0.250
 8274W        W80600  44.373  35.884   0.389
 8275W        W80601   0.468  42.309  12.909
 8276W        W80602  35.091  12.760   0.801
 8277W        W80603  10.647  19.258   0.388
 8278W        W80604  34.403  34.407  13.969
 8279W        W80605  19.572  24.503  10.608
 8280W        W80606  35.993  16.287  12.538
 8281W        W80607  10.827  20.603  10.446
 8282W        W80608   5.824  12.320  12.037
 8283W        W80609  44.993  12.139  13.023
 8284W        W80610  16.309  19.690   5.255
 8285W        W80611  15.131   4.710  10.463
 8286W        W80612  33.007   6.758  13.474
 8287W        W80613  16.783  16.153   4.124
 8288W        W80614   4.744  39.382  14.980
 8289W        W80615  22.681  15.756  12.831
 8290W        W80616  20.127  15.817  14.809
 8291W        W80617  10.726  15.207   1.790
 8292W        W80618  14.248  24.700   2.708
 8293W        W80619   7.821  42.785   3.273
 8294W        W80620  29.069  41.432   1.310
 8295W        W80621  37.920  22.564  11.484
 8296W        W80622   8.820  44.858   4.324
 8297W        W80623  11.674  38.955   0.958
 8298W        W80624  15.723  35.997   2.773
 8299W        W80625  27.536   7.351   4.278
 8300W        W80626   4.305  37.501  11.977
 8301W        W80627  26.612  12.267  14.493
 8302W        W80628   1.791  16.747  13.992
 8303W        W80629  25.171  39.006   0.736
 8304W        W80630   2.435   9.761  11.544
 8305W        W80631  15.584  16.287   2.289
 8306W        W80632   1.787  37.980  10.975
 8307W        W80633  32.010  16.259  14.310
 8308W        W80634  34.894  28.625   4.115
 8309W        W80635  36.017  33.887  14.826
 8310W        W80636  20.704  38.484   1.326
 8311W        W80637   4.422  32.620   1.895
 8312W        W80638  41.302  33.469   0.325
 8313W        W80639  16.237  12.756   4.122
 8314W        W80640  32.890  34.487   5.613
 8315W        W80641  36.508   9.836   0.449
 8316W        W80642  26.195  12.773  11.916
 8317W        W80643  40.858  40.363   4.165
 8318W        W80644  37.833  44.452   2.374
 8319W        W80645  13.340  10.301  14.832
 8320W        W80646  25.044   9.273  12.473
 8321W        W80647  32.945  26.952  13.418
 8322W        W80648  21.092  39.064   2.782
 8323W        W80649  20.653   4.229  11.111
 8324W        W80650  25.109  24.046   0.836
 8325W        W80651  15.322  36.370   3.828
 8326W        W80652  35.468   7.911  14.836
 8327W        W80653   4.389  13.146   0.822
 8328W        W80654   5.918  39.866   4.292
 8329W        W80655  25.014  30.048   2.196
 8330W        W80656  17.578  34.546   4.189
 8331W        W80657   2.959  36.436  12.089
 8332W        W80658  26.492  39.894  12.917
 8333W        W80659   8.768  33.015   2.255
 8334W        W80660  35.501   8.402  13.996
 8335W        W80661   2.261  43.329  13.029
 8336W        W80662  36.074  24.565   1.700
 8337W        W80663  33.004   2.834  14.862
 8338W        W80664  25.117  29.136  10.960
 8339W        W80665  20.159  19.717   3.371
 8340W        W80666  31.041  36.923   2.890
 8341W        W80667  39.052  14.693   0.330
 8342W        W80668  28.139  39.342   5.245
 8343W        W80669   9.190  15.193   4.192
 8344W        W80670  29.552  34.863   2.299
 8345W        W80671  26.105   4.300   2.359
 8346W        W80672  40.950   5.222   3.330
 8347W        W80673  27.193  14.126   2.231
 8348W        W80674   4.241  35.089   1.848
 8349W        W80675  11.718   4.769  13.886
 8350W        W80676   0.788  43.411  12.080
 8351W        W80677   4.251   9.821  12.359
 8352W        W80678  43.013  11.365   2.665
 8353W        W80679   1.921   0.907   4.725
 8354W        W80680   4.824  19.604  10.041
 8355W        W80681  30.554   2.468   4.135
 8356W        W80682  35.419  41.946  11.080
 8357W        W80683  36.532  34.561  12.388
 8358W        W80684  18.252  41.411   1.849
 8359W        W80685  25.016  37.523   2.675
 8360W        W80686   1.951  35.515  12.370
 8361W        W80687  16.646  29.666   0.921
 8362W        W80688  14.682  17.209  10.924
 8363W        W80689  43.507  41.371  10.943
 8364W        W80690  44.978  43.470   1.880
 8365W        W80691  13.269   2.815  12.079
 8366W        W80692  31.466   8.354  11.442
 8367W        W80693  26.011   4.280   1.248
 8368W        W80694   3.889   5.366  12.071
 8369W        W80695  34.951  38.491  14.371
 8370W        W80696  20.629  34.575  12.514
 8371W        W80697  25.706  10.655   3.263
 8372W        W80698  17.110   2.327   0.312
 8373W        W80699  22.617  13.166   2.790
 8374W        W80700   7.261   4.270   4.758
 8375W        W80701  22.700   6.802  13.811
 8376W        W80702   3.711  32.939  11.570
 8377W        W80703  12.143   9.882   2.716
 8378W        W80704  11.199  19.174  12.571
 8379W        W80705   6.201  36.939   3.636
 8380W        W80706   3.352  32.606   0.832
 8381W        W80707   8.318  30.112   2.701
 8382W        W80708  12.790  23.526   3.796
 8383W        W80709  43.855  20.679   3.374
 8384W        W80710  24.723   9.778  12.547
 8385W        W80711   3.950  27.103   1.873
 8386W        W80712  36.498  43.305   2.392
 8387W        W80713  36.920  14.664   1.904
 8388W        W80714  39.921  11.293   2.202
 8389W        W80715   7.667   0.494   0.366
 8390W        W80716  22.708  12.708  14.018
 8391W        W80717  17.266  35.967   2.753
 8392W        W80718  33.089  37.915  10.419
 8393W        W80719  12.698   9.300  11.496
 8394W        W80720  15.181  32.960  11.386
 8395W        W80721  40.501  26.557  13.023
 8396W        W80722  20.142  27.062  10.449
 8397W        W80723  26.984  12.789   1.387
 8398W        W80724  21.091  37.895   3.213
 8399W        W80725  22.591   8.327  12.545
 8400W        W80726  21.201  11.138   2.222
 8401W        W80727  14.772  32.468  10.921
 8402W        W80728   2.916  43.936   0.460
 8403W        W80729   2.732  13.688  13.007
 8404W        W80730  40.427  14.283  12.444
 8405W        W80731  23.166  28.446  12.503
 8406W        W80732  14.225   6.184   1.386
 8407W        W80733  31.926  39.425  10.639
 8408W        W80734  18.234  27.491   3.171
 8409W        W80735  44.427  43.293   4.114
 8410W        W80736  26.143  38.360   2.216
 8411W        W80737  27.629  44.441  11.939
 8412W        W80738  43.494   7.201   2.274
 8413W        W80739  42.939  44.355   0.415
 8414W        W80740   0.490  24.524  13.926
 8415W        W80741  43.291  32.583  10.908
 8416W        W80742   6.874  21.671   4.146
 8417W        W80743  22.070  19.563  12.922
 8418W        W80744  15.822  28.098   0.941
 8419W        W80745  42.464  12.646  10.412
 8420W        W80746   6.305   0.292   1.906
 8421W        W80747  32.584  22.127   0.254
 8422W        W80748  34.371  22.544   3.715
 8423W        W80749  38.004  36.910   0.890
 8424W        W80750  10.343  40.988   4.252
 8425W        W80751  20.172  34.935   4.757
 8426W        W80752  28.503  31.146  12.950
 8427W        W80753  16.220  42.975  11.974
 8428W        W80754  12.126  41.495   4.335
 8429W        W80755   2.823   6.821  11.114
 8430W        W80756  31.621  23.708  11.062
 8431W        W80757  34.868  23.105  11.605
 8432W        W80758  13.191  27.161  11.976
 8433W        W80759  34.020   6.845  11.437
 8434W        W80760   9.264  29.930  10.585
 8435W        W80761  38.909  32.503  13.036
 8436W        W80762  22.646  12.781   1.802
 8437W        W80763  21.666  19.176   3.656
 8438W        W80764  20.115  30.505  12.090
 8439W        W80765  10.311  42.375   4.788
 8440W        W80766   0.812   8.882   4.219
 8441W        W80767  28.170  14.136   4.787
 8442W        W80768   8.737  26.469  10.104
 8443W        W80769   6.761  32.626  13.039
 8444W        W80770   8.274   4.355   3.329
 8445W        W80771  20.563  12.280  12.544
 8446W        W80772  38.419  14.635  14.911
 8447W        W80773  44.467  29.066   2.394
 8448W        W80774  27.123  25.130  10.891
 8449W        W80775  24.030  36.462  10.566
 8450W        W80776  26.036  25.521  10.954
 8451W        W80777  42.435   2.257  14.866
 8452W        W80778  17.141   6.687   1.374
 8453W        W80779   6.256  18.583   4.152
 8454W        W80780  18.762  33.474   5.186
 8455W        W80781   0.470   0.486  12.074
 8456W        W80782   8.200  36.348   4.333
 8457W        W80783  10.176  18.098  10.999
 8458W        W80784  15.640  20.136  13.054
 8459W        W80785  15.137   4.221   1.271
 8460W        W80786  27.048  41.861   0.914
 8461W        W80787  42.461  39.416  11.501
 8462W        W80788  12.196  38.535  13.415
 8463W        W80789  36.579   7.268   4.757
 8464W        W80790  39.387  22.636  12.381
 8465W        W80791   9.688  21.743  10.448
 8466W        W80792  14.801   7.693  12.409
 8467W        W80793  16.088  41.381   4.781
 8468W        W80794   3.370   5.344  11.421
 8469W        W80795  43.429  27.045   3.769
 8470W        W80796  30.504  25.187   4.627
 8471W        W80797  16.697  11.266  13.993
 8472W        W80798   9.288   7.268   2.761
 8473W        W80799  14.319  23.230  10.590
 8474W        W80800  38.017  15.601   2.318
 8475W        W80801   1.768  19.582   3.269
 8476W        W80802  28.973  32.997   0.798
 8477W        W80803  43.343   0.487   3.755
 8478W        W80804  40.987   1.880   2.377
 8479W        W80805  44.932  29.036  14.459
 8480W        W80806  10.188  12.821  11.967
 8481W        W80807  12.282  38.429   4.808
 8482W        W80808  21.026  42.956   2.815
 8483W        W80809  12.764  26.083  13.544
 8484W        W80810  44.946  18.763   1.865
 8485W        W80811  25.514  27.532   2.307
 8486W        W80812  19.185  10.656  12.480
 8487W        W80813  23.609  41.524  13.401
 8488W        W80814  18.236  16.135   4.126
 8489W        W80815  27.474  36.428   2.344
 8490W        W80816  10.137  40.961  13.354
 8491W        W80817  35.566  21.225   0.378
 8492W        W80818  30.144   3.908  11.071
 8493W        W80819   5.198   3.449  12.386
 8494W        W80820  26.627  12.653  10.086
 8495W        W80821  32.010   0.895   2.325
 8496W        W80822  11.714   3.812   2.675
 8497W        W80823   7.855  43.008  12.948
 8498W        W80824  43.947  29.965   2.812
 8499W        W80825  39.005  22.581  12.404
 8500W        W80826  18.757  42.314  10.950
 8501W        W80827   2.940  31.913   4.636
 8502W        W80828   9.218  39.818   2.180
 8503W        W80829  24.118   0.310  14.510
 8504W        W80830  34.031   4.204  13.976
 8505W        W80831  23.062   7.808  13.830
 8506W        W80832   1.922  16.237  13.352
 8507W        W80833  22.515  18.666  14.334
 8508W        W80834  37.487  28.656  12.947
 8509W        W80835  25.997  18.583  11.927
 8510W        W80836  26.551   5.928  10.474
 8511W        W80837  10.162   8.852  10.426
 8512W        W80838  28.174  29.629  14.319
 8513W        W80839   2.783  36.926   0.309
 8514W        W80840  26.142   1.766   1.892
 8515W        W80841  43.279  10.828   3.778
 8516W        W80842  17.610  21.722  14.909
 8517W        W80843  26.694  16.619  14.978
 8518W        W80844  37.483  22.630  12.072
 8519W        W80845  27.152   4.388  13.987
 8520W        W80846  32.916  43.788  14.806
 8521W        W80847  28.546  17.246   2.255
 8522W        W80848  34.026  28.658   3.695
 8523W        W80849  31.609  17.066   3.198
 8524W        W80850  33.514  43.809  11.552
 8525W        W80851   7.817  33.387   4.277
 8526W        W80852  23.020  28.662   3.250
 8527W        W80853  17.593  20.736  14.318
 8528W        W80854  29.090   6.785  12.963
 8529W        W80855  40.309  12.620  11.493
 8530W        W80856  18.686  30.981  13.799
 8531W        W80857  13.339  37.010   2.820
 8532W        W80858  41.523   4.336  12.564
 8533W        W80859  14.109  40.356   2.832
 8534W        W80860   0.481  37.940  11.062
 8535W        W80861   1.386  15.714   0.812
 8536W        W80862  37.547   8.182   4.187
 8537W        W80863  15.800  15.175   0.935
 8538W        W80864  24.017  41.293  13.409
 8539W        W80865  27.688  34.528  12.974
 8540W        W80866  31.129   1.345   0.804
 8541W        W80867  25.162  12.208  11.883
 8542W        W80868  18.163   8.320  14.466
 8543W        W80869  43.832  37.920  14.442
 8544W        W80870  26.057  18.668  14.844
 8545W        W80871  36.915   2.371   2.417
 8546W        W80872  17.578  41.323  12.017
 8547W        W80873  27.447  32.604   4.315
 8548W        W80874   3.256  19.147  12.520
 8549W        W80875   1.260  41.489   0.805
 8550W        W80876  30.933   2.331  12.900
 8551W        W80877   3.231  14.183   4.178
 8552W        W80878  36.955   5.934   1.696
 8553W        W80879   8.330  16.282  11.096
 8554W        W80880  44.265  21.713  10.571
 8555W        W80881  44.421  22.668   3.287
 8556W        W80882  44.919  25.977  14.893
 8557W        W80883  42.410   4.231  13.466
 8558W        W80884   4.357  13.167   2.369
 8559W        W80885  34.399   0.842  11.868
 8560W        W80886   9.672  18.674   1.371
 8561W        W80887  19.615  31.001   1.236
 8562W        W80888  16.726  39.845   4.626
 8563W        W80889  42.409  28.055  12.010
 8564W        W80890  26.189  17.193   5.206
 8565W        W80891  13.819  12.617   3.152
 8566W        W80892   3.401   7.837  14.956
 8567W        W80893  14.649   8.344   4.665
 8568W        W80894  37.924  24.079  13.320
 8569W        W80895  16.782  29.958  12.081
 8570W        W80896  15.630  10.191   4.294
 8571W        W80897  40.531   9.742   4.309
 8572W        W80898  10.157  22.100   2.685
 8573W        W80899  40.895  40.528  10.636
 8574W        W80900  41.535  23.040   1.863
 8575W        W80901  19.054   4.418   1.304
 8576W        W80902   6.396  11.859  13.441
 8577W        W80903   1.764  11.664  11.120
 8578W        W80904  28.025  40.352   2.242
 8579W        W80905  13.773  28.098   4.354
 8580W        W80906  24.670   3.319   0.939
 8581W        W80907  39.541  44.792   1.408
 8582W        W80908  27.608  25.478  14.009
 8583W        W80909  32.011  10.180  12.350
 8584W        W80910  11.828  42.779   1.311
 8585W        W80911   1.774  31.423   1.835
 8586W        W80912  33.935  10.839  10.936
 8587W        W80913  38.876  13.266  13.039
 8588W        W80914  42.927  34.081  11.876
 8589W        W80915  10.670  40.529   4.784
 8590W        W80916  28.095   8.715   3.677
 8591W        W80917   5.212  37.879   1.322
 8592W        W80918  40.840  25.483  12.027
 8593W        W80919  35.949  33.504  12.941
 8594W        W80920  36.931  10.340   5.128
 8595W        W80921  23.595   5.858  13.869
 8596W        W80922  21.689  36.911  11.508
 8597W        W80923  24.036  36.856   2.677
 8598W        W80924   7.728   5.214   1.314
 8599W        W80925  10.730  43.819  13.019
 8600W        W80926  22.144  30.645   4.216
 8601W        W80927  33.954  34.076   3.374
 8602W        W80928  30.656   4.788   9.979
 8603W        W80929  36.480   9.847   4.264
 8604W        W80930  39.914  17.781   3.352
 8605W        W80931  17.286  19.268  13.513
 8606W        W80932  23.663  40.816  13.334
 8607W        W80933  34.423  36.030   3.258
 8608W        W80934  32.982  26.167   2.865
 8609W        W80935  35.440  26.625  13.373
 8610W        W80936  30.974  35.905  11.026
 8611W        W80937  26.558  42.463  13.054
 8612W        W80938  39.322  26.698  14.877
 8613W        W80939  33.124  12.238   3.359
 8614W        W80940  10.796  16.108  14.328
 8615W        W80941  29.108  36.951  14.477
 8616W        W80942   9.701  10.254  14.443
 8617W        W80943  20.681  32.506  13.901
 8618W        W80944  37.871  16.612   3.763
 8619W        W80945   9.804  30.103   1.772
 8620W        W80946  39.483  31.404  13.400
 8621W        W80947  27.949  10.223   4.767
 8622W        W80948  33.508   3.853   4.179
 8623W        W80949  25.695  42.420  10.417
 8624W        W80950   2.802   5.414   9.661
 8625W        W80951   6.285  19.190  12.024
 8626W        W80952  42.340  42.522   2.670
 8627W        W80953  33.412   4.710   5.272
 8628W        W80954  43.506  10.382  12.850
 8629W        W80955  10.659   9.722  14.388
 8630W        W80956  43.985  36.072   3.226
 8631W        W80957  14.177  10.181   5.245
 8632W        W80958  26.485  13.265  13.000
 8633W        W80959  29.616  37.361   0.879
 8634W        W80960  29.426  35.522  13.377
 8635W        W80961  16.668  44.386   3.153
 8636W        W80962  15.768  17.755  14.914
 8637W        W80963  31.482   6.815   3.814
 8638W        W80964  37.028  34.459  14.840
 8639W        W80965   1.346  22.722  12.471
 8640W        W80966  17.219  38.417  13.340
 8641W        W80967  13.668  25.526  10.551
 8642W        W80968  43.782  32.939   0.829
 8643W        W80969  26.985   4.353   3.708
 8644W        W80970   4.221  11.321   4.622
 8645W        W80971  44.780  28.647  14.504
 8646W        W80972  25.023  30.436  10.592
 8647W        W80973  15.092  36.442  10.628
 8648W        W80974   7.296   5.918   2.861
 8649W        W80975  16.086  10.805  11.525
 8650W        W80976  31.424  30.623  14.926
 8651W        W80977  28.182   6.366  13.806
 8652W        W80978  14.749  27.018   9.500
 8653W        W80979   7.186   8.787  14.398
 8654W        W80980  25.597   1.440   1.696
 8655W        W80981  25.076   8.313   4.720
 8656W        W80982  21.067  25.476  14.513
 8657W        W80983  11.700  35.864  13.924
 8658W        W80984  13.197  42.794  13.309
 8659W        W80985   1.861  23.627  12.465
 8660W        W80986   8.715   6.913   2.738
 8661W        W80987  31.051  36.892  12.372
 8662W        W80988  44.341  12.673  11.573
 8663W        W80989   8.215  17.180   1.835
 8664W        W80990  40.435  13.233  11.389
 8665W        W80991  21.512  24.539   0.854
 8666W        W80992  39.017  24.607   2.669
 8667W        W80993  34.984  11.148  14.830
 8668W        W80994  33.557  39.889  12.959
 8669W        W80995   6.194  12.177  11.581
 8670W        W80996  17.738   2.268  10.457
 8671W        W80997  35.888  25.103  10.604
 8672W        W80998  29.953  38.007  14.014
 8673W        W80999   0.278  13.759  14.026
 8674W        W81000  29.002  26.188   0.439
 8675W        W81001  26.018  44.814  14.976
 8676W        W81002  16.246  13.634   3.164
 8677W        W81003  14.274   9.243   2.326
 8678W        W81004  18.165  32.442  12.415
 8679W        W81005  17.179  20.541  11.507
 8680W        W81006  34.036  38.060   1.239
 8681W        W81007  15.103   0.784   4.739
 8682W        W81008   1.322  23.136   0.854
 8683W        W81009   7.725   1.260   4.129
 8684W        W81010  18.119  42.977  12.043
 8685W        W81011  11.284  17.083  14.911
 8686W        W81012  14.822  32.000  14.870
 8687W        W81013   2.307  42.289   3.677
 8688W        W81014   6.805  44.933  10.532
 8689W        W81015   7.776   8.285   4.336
 8690W        W81016  33.038  17.235   4.676
 8691W        W81017  44.475  12.705  10.136
 8692W        W81018  31.494  17.775  14.882
 8693W        W81019  34.043  28.156  12.002
 8694W        W81020   2.331  30.615  11.601
 8695W        W81021  13.133  17.715   3.631
 8696W        W81022  39.824   5.918   2.845
 8697W        W81023  41.029  23.664   1.835
 8698W        W81024  24.719  11.132  13.396
 8699W        W81025  18.788  38.416  10.521
 8700W        W81026  15.721  16.126  11.416
 8701W        W81027  42.290  28.605   0.899
 8702W        W81028  24.192   4.417   1.807
 8703W        W81029  43.397  40.943  10.566
 8704W        W81030  38.366  13.763  10.430
 8705W        W81031  24.175   5.377  11.086
 8706W        W81032  20.570  36.009   2.232
 8707W        W81033   9.268  24.559  13.383
 8708W        W81034  24.009   0.863   1.403
 8709W        W81035  22.653  26.549   3.287
 8710W        W81036  20.053  19.682  11.510
 8711W        W81037  43.344   6.202  12.499
 8712W        W81038  31.061   7.819   4.160
 8713W        W81039  24.624  39.314  13.324
 8714W        W81040  22.024  43.513  11.464
 8715W        W81041  12.272  27.052   4.795
 8716W        W81042  44.501   6.415   4.288
 8717W        W81043  30.985  42.905   4.270
 8718W        W81044  15.667  26.532  13.462
 8719W        W81045  44.467   1.282  11.464
 8720W        W81046   7.902   0.364  10.625
 8721W        W81047  30.637  23.555  13.974
 8722W        W81048  38.453  29.021   3.866
 8723W        W81049  28.964  35.450   2.896
 8724W        W81050  11.330   2.447   3.165
 8725W        W81051  29.019  25.644  10.942
 8726W        W81052   3.861   0.810   4.268
 8727W        W81053  43.015  11.680  11.597
 8728W        W81054   0.923  18.240  10.001
 8729W        W81055  15.586  12.168   3.725
 8730W        W81056  30.480  15.286   2.293
 8731W        W81057  16.805  11.285  14.279
 8732W        W81058  10.310  28.440   4.193
 8733W        W81059  37.481  40.804  14.881
 8734W        W81060   7.371   6.744   3.750
 8735W        W81061  25.554  43.299   2.398
 8736W        W81062  44.908  41.428  13.001
 8737W        W81063   0.985  10.252   1.268
 8738W        W81064  28.090  22.023  12.034
 8739W        W81065   9.170  35.406   4.230
 8740W        W81066  31.402  13.643   1.720
 8741W        W81067  27.473  28.174  13.895
 8742W        W81068  37.494  30.986  10.976
 8743W        W81069  12.738   3.271   0.473
 8744W        W81070  16.079  40.946  12.556
 8745W        W81071  44.915  41.835  11.608
 8746W        W81072  23.073  24.021  14.321
 8747W        W81073  23.530   0.361   4.664
 8748W        W81074  14.686   8.228  10.490
 8749W        W81075  12.748   6.771  10.550
 8750W        W81076  13.713   3.716  13.804
 8751W        W81077  12.252  18.070  10.621
 8752W        W81078  28.533   6.723   4.832
 8753W        W81079  19.592  42.397   0.394
 8754W        W81080  41.922  19.659   1.758
 8755W        W81081   8.171  26.001   0.924
 8756W        W81082   2.347   7.728  10.991
 8757W        W81083  40.006  23.045   4.186
 8758W        W81084  41.017  39.004  12.959
 8759W        W81085  20.743  37.490   4.288
 8760W        W81086  32.433  41.015   3.759
 8761W        W81087  44.980  25.581  10.535
 8762W        W81088   1.910   2.793  13.053
 8763W        W81089  41.027  10.148   3.386
 8764W        W81090   7.825  37.466   0.265
 8765W        W81091  34.572   9.734  12.933
 8766W        W81092  26.495  27.602  14.759
 8767W        W81093   2.790  32.553   0.950
 8768W        W81094  36.938  26.539  10.451
 8769W        W81095  20.665   6.788   0.420
 8770W        W81096  31.965   0.793   5.094
 8771W        W81097  34.388  13.689   3.715
 8772W        W81098  21.198   2.791   4.719
 8773W        W81099  26.130  28.600  10.408
 8774W        W81100   2.375   8.238  13.042
 8775W        W81101  29.101   2.813   2.337
 8776W        W81102   6.848  34.089   3.197
 8777W        W81103  42.829  39.817  13.422
 8778W        W81104  36.978  17.158  13.846
 8779W        W81105  38.333  11.824  11.516
 8780W        W81106  20.066  31.121  11.588
 8781W        W81107  32.500  44.905  13.017
 8782W        W81108  22.029  37.456  14.968
 8783W        W81109  42.802  17.706   2.744
 8784W        W81110  33.529  43.963   4.694
 8785W        W81111   4.858  42.779   2.757
 8786W        W81112  39.913  35.022   0.808
 8787W        W81113  17.104  31.487   4.287
 8788W        W81114  21.563   8.223  14.439
 8789W        W81115  22.237  23.144  13.448
 8790W        W81116  20.607  12.635  12.366
 8791W        W81117   0.905  30.477   4.207
 8792W        W81118  32.433  23.633   0.748
 8793W        W81119  24.015  34.504   4.703
 8794W        W81120  40.467  36.434   3.316
 8795W        W81121  13.296   5.888  14.763
 8796W        W81122  23.196  31.944   2.766
 8797W        W81123  25.067  15.278   9.465
 8798W        W81124   5.378  20.055  14.299
 8799W        W81125  24.628  28.506   3.688
 8800W        W81126   5.705   6.280  13.525
 8801W        W81127  16.577  30.914   4.285
 8802W        W81128  13.281   8.222  12.826
 8803W        W81129  34.002  14.652   2.850
 8804W        W81130  39.458  13.829  11.020
 8805W        W81131  28.058  22.647  10.155
 8806W        W81132   1.901  32.066  11.435
 8807W        W81133  37.081  18.121  11.056
 8808W        W81134  26.200   6.324   0.748
 8809W        W81135  43.823  15.798  11.075
 8810W        W81136  38.483  26.627  13.966
 8811W        W81137   2.357  11.329   3.237
 8812W        W81138  35.856  18.551  11.378
 8813W        W81139  31.525  42.386   2.732
 8814W        W81140  37.565   1.315   1.326
 8815W        W81141  27.042  38.024   0.869
 8816W        W81142  33.422  44.343  14.359
 8817W        W81143   6.867  23.666   2.842
 8818W        W81144  10.813  37.003  14.426
 8819W        W81145  38.446   1.284  13.308
 8820W        W81146  18.241  39.396   3.759
 8821W        W81147  31.610  36.354  13.512
 8822W        W81148   5.904   7.796  12.829
 8823W        W81149  35.464  27.690   2.741
 8824W        W81150   1.764   5.795  12.088
 8825W        W81151  41.995  23.674   4.319
 8826W        W81152  31.102   2.770  11.088
 8827W        W81153  21.590  28.533   1.450
 8828W        W81154  21.239   6.866   2.411
 8829W        W81155  36.925   7.369   4.660
 8830W        W81156  12.731  19.202  10.589
 8831W        W81157  14.127  32.908   3.831
 8832W        W81158  36.973  23.067   0.890
 8833W        W81159  38.990  25.637   4.752
 8834W        W81160  27.159  24.519   0.767
 8835W        W81161  20.648  38.502   5.268
 8836W        W81162  22.656  18.726   1.313
 8837W        W81163  15.227   0.353  11.889
 8838W        W81164  36.843  42.908   0.316
 8839W        W81165  10.862   8.212  12.454
 8840W        W81166  12.163   3.356   2.670
 8841W        W81167  35.398  14.636  12.953
 8842W        W81168  42.316  15.263  11.011
 8843W        W81169  22.116  22.591   4.766
 8844W        W81170  35.895  10.338   4.346
 8845W        W81171  25.687  12.152   0.910
 8846W        W81172  20.751   2.728  13.844
 8847W        W81173  37.387  36.525  13.477
 8848W        W81174  28.115  36.426  10.567
 8849W        W81175  22.027  14.304   0.789
 8850W        W81176   0.269  17.173  12.046
 8851W        W81177   1.418  27.983   3.226
 8852W        W81178  25.132  12.618  11.115
 8853W        W81179   2.958  38.890   2.222
 8854W        W81180  18.123  19.602  10.465
 8855W        W81181  43.949  30.007   1.895
 8856W        W81182  30.023  23.521   3.202
 8857W        W81183  10.296  13.132  11.574
 8858W        W81184  38.386  23.695   2.732
 8859W        W81185  12.241  32.550  12.884
 8860W        W81186   5.775  35.883   1.699
 8861W        W81187  10.699  17.180   1.392
 8862W        W81188   4.275  14.723  13.449
 8863W        W81189  40.431  37.065   3.631
 8864W        W81190   0.485  43.490  13.384
 8865W        W81191  38.007  30.659   2.748
 8866W        W81192  34.513  30.604   3.715
 8867W        W81193  16.745  27.467   3.205
 8868W        W81194  19.717  44.780  12.849
 8869W        W81195  18.221  33.521   4.293
 8870W        W81196  10.225  16.610  10.922
 8871W        W81197  22.179  19.066   3.850
 8872W        W81198  42.948  36.043   4.623
 8873W        W81199  37.994  43.896   0.363
 8874W        W81200  19.184  38.449   3.149
 8875W        W81201  27.570  31.423   4.293
 8876W        W81202   8.679  37.440   4.732
 8877W        W81203   2.890   4.367  13.932
 8878W        W81204  38.995  32.626   3.381
 8879W        W81205  12.803  12.800  13.833
 8880W        W81206  25.052  33.074   0.379
 8881W        W81207  24.135   4.918  13.036
 8882W        W81208  13.845  32.925   4.823
 8883W        W81209   2.284  23.119  10.428
 8884W        W81210  18.666  19.582   5.167
 8885W        W81211  27.982  42.834   4.796
 8886W        W81212  42.799  20.691   2.834
 8887W        W81213   7.674  31.030  13.056
 8888W        W81214   3.271  26.643   3.226
 8889W        W81215   4.918  15.803   5.171
 8890W        W81216  19.625  38.947   0.924
 8891W        W81217  25.127   5.228  12.375
 8892W        W81218  34.409  42.500  11.430
 8893W        W81219  34.944   0.263  11.877
 8894W        W81220   6.715  35.885   4.338
 8895W        W81221  22.525   5.365   3.249
 8896W        W81222  29.092  44.463   2.737
 8897W        W81223  22.739   3.749   1.900
 8898W        W81224  28.468  14.788   3.811
 8899W        W81225  37.536  34.569   3.682
 8900W        W81226  34.018  22.161   0.444
 8901W        W81227  11.132  24.495   4.238
 8902W        W81228  34.875   9.292  12.468
 8903W        W81229  41.843  35.052   2.330
 8904W        W81230  22.173  44.790   4.795
 8905W        W81231   3.381   6.352   3.287
 8906W        W81232  16.662  10.647  11.092
 8907W        W81233  12.756   7.836  11.991
 8908W        W81234   4.216  34.566   0.356
 8909W        W81235  44.808  29.609  11.123
 8910W        W81236  43.855   8.796   2.880
 8911W        W81237  11.275  31.120   4.654
 8912W        W81238  11.265  36.518  12.468
 8913W        W81239   9.393  20.097  10.636
 8914W        W81240   3.915   9.358  12.524
 8915W        W81241  36.055  43.275   4.738
 8916W        W81242  29.007  21.037   0.868
 8917W        W81243  25.608  40.026  13.330
 8918W        W81244   0.848   7.290   4.252
 8919W        W81245   1.250   4.796  10.473
 8920W        W81246   2.894  23.149   4.779
 8921W        W81247  14.601  25.687   4.269
 8922W        W81248  27.078  36.581  13.800
 8923W        W81249   9.193   3.433  11.070
 8924W        W81250   3.864  35.487  10.902
 8925W        W81251   9.305  22.058   0.397
 8926W        W81252  10.633  34.422   2.398
 8927W        W81253  39.959   2.423  13.364
 8928W        W81254  34.584  43.784  14.506
 8929W        W81255  34.568  13.319  14.406
 8930W        W81256  31.098  41.351  12.361
 8931W        W81257   0.938   4.270   3.750
 8932W        W81258  44.973  41.799  12.067
 8933W        W81259  41.455   1.406  10.545
 8934W        W81260   7.829  36.404  14.857
 8935W        W81261  28.555  38.880  14.761
 8936W        W81262  33.901  41.305   2.346
 8937W        W81263  23.985   5.304   0.765
 8938W        W81264   5.716  38.490  10.424
 8939W        W81265  40.421  20.539   0.742
 8940W        W81266  36.388  29.047   2.376
 8941W        W81267  37.517  42.879  12.372
 8942W        W81268  41.342   6.284  13.015
 8943W        W81269  13.837  35.941   4.838
 8944W        W81270  10.178  20.677   4.175
 8945W        W81271   8.839  44.828  10.455
 8946W        W81272  43.373   2.247  14.026
 8947W        W81273  18.643  39.811  11.379
 8948W        W81274   4.406  24.091  10.483
 8949W        W81275  40.408  30.609  13.813
 8950W        W81276  15.318   2.780   2.388
 8951W        W81277  29.577  13.632   1.411
 8952W        W81278   0.971   0.472   3.237
 8953W        W81279  25.963  13.160   1.923
 8954W        W81280  42.949   4.754   2.867
 8955W        W81281   7.379  41.370   2.327
 8956W        W81282  37.066  25.577  12.064
 8957W        W81283  44.373  16.771  11.458
 8958W        W81284  29.116  28.552   2.821
 8959W        W81285   4.267  26.549   4.276
 8960W        W81286  30.436  20.626   2.291
 8961W        W81287   5.724  17.719  14.449
 8962W        W81288  11.214  26.565   4.616
 8963W        W81289   6.196   3.924   0.741
 8964W        W81290   4.747  31.136   4.824
 8965W        W81291  36.392  22.656  12.833
 8966W        W81292  34.964   6.738   2.869
 8967W        W81293  27.100  20.641  11.012
 8968W        W81294  33.456  10.283  12.454
 8969W        W81295  13.838  40.043   3.234
 8970W        W81296  30.953   7.393  14.979
 8971W        W81297  19.637  30.119  12.055
 8972W        W81298  34.947  29.440  11.432
 8973W        W81299   2.768  17.184   1.714
 8974W        W81300  42.999   0.967  10.475
 8975W        W81301   7.372  18.620  13.840
 8976W        W81302  44.911  22.192   0.312
 8977W        W81303   0.784   1.795  10.601
 8978W        W81304  14.595   6.367  13.896
 8979W        W81305  23.012  24.983  14.424
 8980W        W81306   5.803  44.314  14.877
 8981W        W81307  32.958  43.821  14.290
 8982W        W81308   7.187   0.801   2.323
 8983W        W81309   3.370  21.218   3.672
 8984W        W81310  31.402  26.694   3.324
 8985W        W81311  39.506  24.992  10.500
 8986W        W81312  18.570  35.876  12.955
 8987W        W81313   4.224   4.772   1.780
 8988W        W81314  26.146  23.618  11.867
 8989W        W81315  19.633  22.599  13.001
 8990W        W81316  11.321  10.838   3.659
 8991W        W81317  41.833   4.744   1.250
 8992W        W81318  24.656   0.762   1.410
 8993W        W81319   4.310  37.990  13.987
 8994W        W81320   6.240  27.157  13.926
 8995W        W81321  14.164  43.797   0.339
 8996W        W81322   5.694  31.606  14.789
 8997W        W81323  25.533  23.663   1.248
 8998W        W81324  18.763   3.833   2.230
 8999W        W81325  44.319  41.511  11.912
 9000W        W81326  16.231  17.620  14.399
 9001W        W81327  39.552  11.684  13.835
 9002W        W81328   4.435  38.024   1.234
 9003W        W81329  40.977   7.372  11.399
 9004W        W81330  16.680   4.445   0.245
 9005W        W81331  32.414  16.680   2.227
 9006W        W81332  30.007   1.239  14.366
 9007W        W81333  33.619  32.949   1.836
 9008W        W81334  15.256  43.875   0.868
 9009W        W81335  34.903   5.313  12.449
 9010W        W81336  44.355   6.799  12.962
 9011W        W81337   1.271  25.685   3.167
 9012W        W81338   7.723  21.193   2.393
 9013W        W81339  42.444  37.996  13.808
 9014W        W81340  30.643  23.080   3.705
 9015W        W81341  41.801  38.359   0.727
 9016W        W81342   7.903  20.194  12.069
 9017W        W81343  13.256  41.827   2.672
 9018W        W81344  25.697   6.182   3.180
 9019W        W81345  13.275  30.096  11.935
 9020W        W81346  31.937  22.514   2.380
 9021W        W81347  38.832  25.590  14.489
 9022W        W81348  42.453  32.969  12.939
 9023W        W81349  41.324  35.542  14.477
 9024W        W81350  20.143  25.057  13.997
 9025W        W81351  36.975   6.849  14.423
 9026W        W81352  27.630  15.775   0.336
 9027W        W81353  28.065   1.365  11.910
 9028W        W81354  44.463  20.048   3.797
 9029W        W81355   4.744  16.239   4.164
 9030W        W81356   0.808   2.734   9.935
 9031W        W81357  41.305  25.585   3.823
 9032W        W81358   3.810  33.938  11.944
 9033W        W81359  18.111  24.209   4.644
 9034W        W81360  30.920  39.341  14.301
 9035W        W81361   9.313   5.833   2.817
 9036W        W81362  14.769  12.732  12.872
 9037W        W81363  15.635  16.643   3.182
 9038W        W81364   1.941  40.377   1.887
 9039W        W81365   7.745  15.206  10.977
 9040W        W81366   8.877  31.610  10.598
 9041W        W81367  43.945  21.609  13.860
 9042W        W81368  31.974  15.166  11.857
 9043W        W81369  26.545   1.248  10.893
 9044W        W81370   7.901  33.435  10.913
 9045W        W81371  38.867  16.199   4.168
 9046W        W81372  25.502   8.263   4.654
 9047W        W81373  40.313  29.927   0.326
 9048W        W81374  30.027   8.689   0.397
 9049W        W81375  25.579  35.428   4.661
 9050W        W81376  30.983  33.080   4.121
 9051W        W81377  29.496   5.906   3.826
 9052W        W81378  37.509  23.637  10.904
 9053W        W81379  43.815   3.787   2.729
 9054W        W81380  30.658  36.873  12.002
 9055W        W81381  32.432   6.194  11.577
 9056W        W81382  33.485   8.349  12.966
 9057W        W81383   2.260   1.430   0.947
 9058W        W81384  26.582  36.067  11.068
 9059W        W81385   3.784  21.740  10.610
 9060W        W81386  16.674  42.847   3.737
 9061W        W81387  34.057  32.466   1.751
 9062W        W81388  27.025   4.733  13.030
 9063W        W81389   2.389  41.497   1.384
 9064W        W81390  25.057  40.874  12.510
 9065W        W81391  27.598  20.533   2.734
 9066W        W81392   5.914  21.090  14.340
 9067W        W81393   0.377   7.856   2.685
 9068W        W81394   7.683  30.542   2.391
 9069W        W81395  11.623  33.383   2.405
 9070W        W81396  20.679   1.365  14.997
 9071W        W81397   8.671  22.684  14.791
 9072W        W81398  17.250  16.260   1.706
 9073W        W81399   1.839  31.583  11.467
 9074W        W81400  44.371  18.123  12.478
 9075W        W81401  30.621  43.832  14.409
 9076W        W81402  42.454  23.067   3.325
 9077W        W81403  18.614   9.731  10.497
 9078W        W81404  26.154  30.534  13.927
 9079W        W81405  19.253  23.561  13.844
 9080W        W81406   2.233  44.004   4.137
 9081W        W81407  39.976  18.077  14.491
 9082W        W81408  34.596  43.948  12.360
 9083W        W81409  11.696  30.589   2.813
 9084W        W81410  42.013   7.895  14.018
 9085W        W81411  24.169  28.034   3.225
 9086W        W81412  24.516  11.373   4.828
 9087W        W81413  10.637  25.190   2.289
 9088W        W81414  19.566   7.880   3.661
 9089W        W81415  32.468  32.544  11.499
 9090W        W81416   3.800   8.397  12.825
 9091W        W81417  20.534  19.054  11.043
 9092W        W81418  35.048  23.085  14.379
 9093W        W81419  22.572  33.055  14.398
 9094W        W81420  40.428  11.803  13.017
 9095W        W81421  34.010  25.145   2.224
 9096W        W81422  28.569  10.642   4.684
 9097W        W81423  21.747  20.227  14.875
 9098W        W81424  17.238  35.420   2.786
 9099W        W81425  32.393  30.945   2.695
 9100W        W81426  39.893  21.705  13.520
 9101W        W81427  19.210  13.144  11.981
 9102W        W81428  25.521  11.736   3.867
 9103W        W81429  37.045  35.601  12.882
 9104W        W81430  32.939  20.088  11.512
 9105W        W81431  26.994  44.993   0.855
 9106W        W81432  12.656   5.229   0.737
 9107W        W81433   8.183  24.182   1.840
 9108W        W81434   1.354  28.998   4.289
 9109W        W81435   7.374  32.624  10.941
 9110W        W81436  15.281   5.374   3.724
 9111W        W81437   2.411  34.015   1.726
 9112W        W81438  39.011  41.404   1.433
 9113W        W81439  16.240  23.234  13.058
 9114W        W81440  39.370  31.578  14.762
 9115W        W81441  12.727  33.924   3.656
 9116W        W81442  18.105   0.908  10.403
 9117W        W81443  18.605  12.644   3.240
 9118W        W81444  10.759  29.489  14.766
 9119W        W81445  29.634  43.923  11.984
 9120W        W81446  36.446  41.969  12.431
 9121W        W81447  42.836  19.598   1.874
 9122W        W81448  10.861  30.473   3.370
 9123W        W81449  32.887  14.623  13.044
 9124W        W81450  23.233  11.856   2.901
 9125W        W81451  13.258  16.804  14.924
 9126W        W81452  31.945  27.195  11.892
 9127W        W81453  30.969   3.945   0.860
 9128W        W81454  16.683  13.714  14.465
 9129W        W81455   8.268  11.310  11.091
 9130W        W81456  33.519  30.055  11.049
 9131W        W81457  25.549  42.333   4.154
 9132W        W81458  39.554  37.381  14.376
 9133W        W81459   8.861  39.950  12.516
 9134W        W81460  43.390  19.274   0.783
 9135W        W81461   7.898  32.025  11.544
 9136W        W81462  37.530   0.758  13.876
 9137W        W81463  32.941  23.504  12.375
 9138W        W81464   7.728  24.540   4.694
 9139W        W81465  37.962  22.116  14.957
 9140W        W81466   6.864   0.344   2.281
 9141W        W81467   9.760  32.124  14.402
 9142W        W81468  36.900  36.097   2.856
 9143W        W81469  38.515  37.435   3.152
 9144W        W81470  35.570  16.587   0.463
 9145W        W81471  20.049  34.982  10.517
 9146W        W81472   2.931   1.355   9.629
 9147W        W81473   9.823   1.945   3.251
 9148W        W81474  38.362  10.804   1.785
 9149W        W81475  29.149  38.535   2.233
 9150W        W81476   6.229   0.278  12.458
 9151W        W81477   8.772  24.565   1.337
 9152W        W81478   4.328  27.539   1.423
 9153W        W81479  19.205  33.407  14.990
 9154W        W81480  42.893  34.097  13.892
 9155W        W81481  26.699  20.620  12.504
 9156W        W81482  19.253  16.630   1.432
 9157W        W81483  26.615   9.323  11.112
 9158W        W81484  23.989  30.126   2.386
 9159W        W81485  33.515  25.981  13.031
 9160W        W81486  19.657  32.122  14.931
 9161W        W81487  18.582   9.840  12.472
 9162W        W81488  30.011  25.468  10.575
 9163W        W81489  10.171   5.283   4.754
 9164W        W81490  34.418  44.451   1.879
 9165W        W81491  27.044   1.330  14.317
 9166W        W81492   5.900  22.158  13.944
 9167W        W81493  17.276  19.738   1.293
 9168W        W81494  40.986  27.011  11.557
 9169W        W81495  39.534   3.251  13.908
 9170W        W81496  25.147  41.337  12.048
 9171W        W81497  22.192  28.554  11.602
 9172W        W81498  18.116  11.638   0.384
 9173W        W81499  38.906  36.590   5.253
 9174W        W81500  34.526  18.781   2.243
 9175W        W81501  40.326  21.545  14.315
 9176W        W81502  35.454  33.380   2.244
 9177W        W81503  16.593  35.518   4.680
 9178W        W81504  42.429  19.632  13.419
 9179W        W81505   0.908  44.279   0.732
 9180W        W81506   8.203  19.678   1.762
 9181W        W81507  22.056  32.091   9.925
 9182W        W81508  10.819   7.410   0.317
 9183W        W81509   0.424  27.055   3.371
 9184W        W81510  15.249  30.140   1.388
 9185W        W81511  37.933  12.754  10.492
 9186W        W81512  31.638  40.953   2.694
 9187W        W81513   1.773  41.430  12.488
 9188W        W81514  31.057  37.546  13.448
 9189W        W81515  31.591  24.991  14.364
 9190W        W81516   8.763  18.054  12.499
 9191W        W81517  25.608  26.179   3.377
 9192W        W81518   4.450  33.576  12.551
 9193W        W81519  23.546   5.363  11.064
 9194W        W81520   9.859  21.211   9.931
 9195W        W81521  42.497  37.448  12.918
 9196W        W81522  14.181   1.479   1.744
 9197W        W81523  16.622  29.655  10.987
 9198W        W81524   4.891  35.895   2.862
 9199W        W81525  31.150  22.029  12.426
 9200W        W81526  33.433  44.990  14.369
 9201W        W81527  17.751  24.582   0.881
 9202W        W81528  29.028   3.943   4.300
 9203W        W81529  16.253  28.583  12.826
 9204W        W81530  26.576   7.849  11.525
 9205W        W81531  42.926   7.314  10.491
 9206W        W81532  33.064  15.271   4.333
 9207W        W81533  22.605  29.045  14.921
 9208W        W81534  43.819  31.991   3.660
 9209W        W81535  13.151  42.808  14.893
 9210W        W81536   7.809  14.187   4.301
 9211W        W81537  29.496   9.152   1.342
 9212W        W81538  37.346   4.900  14.896
 9213W        W81539  34.432  17.775   0.956
 9214W        W81540  40.854   3.848  11.931
 9215W        W81541  39.320  40.534  13.986
 9216W        W81542  38.534   6.731   3.213
 9217W        W81543  23.210  39.037   2.784
 9218W        W81544   8.192  20.142  10.515
 9219W        W81545  34.979  42.500   1.791
 9220W        W81546  33.568  28.987   4.801
 9221W        W81547  31.613  28.464  14.883
 9222W        W81548  26.060  13.166   0.259
 9223W        W81549  17.680  43.278   1.425
 9224W        W81550  44.803  40.021  13.846
 9225W        W81551  10.221  39.411  12.532
 9226W        W81552  18.713  37.830   0.268
 9227W        W81553   4.385  17.584   0.813
 9228W        W81554  33.900  27.033  11.127
 9229W        W81555  15.710   1.919  11.857
 9230W        W81556   4.815   6.426  12.854
 9231W        W81557  26.652  43.010   3.224
 9232W        W81558  23.569  10.685   0.306
 9233W        W81559  12.753  30.620   4.210
 9234W        W81560  27.467  35.458   2.679
 9235W        W81561   1.456  33.495  14.004
 9236W        W81562   4.338  11.293  12.863
 9237W        W81563  22.692   0.273   0.284
 9238W        W81564  18.656  43.372  11.121
 9239W        W81565  34.546  20.545   0.819
 9240W        W81566  11.141  36.005   2.826
 9241W        W81567  28.507  23.089   2.693
 9242W        W81568  24.138  36.588  12.576
 9243W        W81569   3.297  29.107  10.422
 9244W        W81570  43.482   4.772  10.024
 9245W        W81571  29.146  29.123  14.509
 9246W        W81572  10.876  38.845   4.164
 9247W        W81573  18.245   6.361  11.522
 9248W        W81574  35.976  31.642  13.025
 9249W        W81575  44.831   2.443  11.598
 9250W        W81576  33.488  35.476   3.811
 9251W        W81577   2.352  27.114  13.961
 9252W        W81578  31.448  12.845   0.285
 9253W        W81579  26.644   2.354  14.366
 9254W        W81580  29.670  15.641  11.382
 9255W        W81581  40.544  25.630  11.946
 9256W        W81582  43.438  35.447   1.907
 9257W        W81583  22.675  17.719  10.077
 9258W        W81584  18.159   5.332   1.302
 9259W        W81585   0.831  11.253  14.000
 9260W        W81586   4.881  29.442  11.077
 9261W        W81587  29.493   8.763   4.836
 9262W        W81588  26.463  12.165  13.381
 9263W        W81589  44.799  42.295   2.408
 9264W        W81590  24.612  11.160  11.861
 9265W        W81591  12.346  22.190  12.485
 9266W        W81592  11.341   7.229  13.916
 9267W        W81593  37.531  15.086   1.851
 9268W        W81594  34.407  37.052   3.368
 9269W        W81595  10.220   7.183  10.642
 9270W        W81596  33.421   2.952   2.374
 9271W        W81597  22.158  44.804   3.816
 9272W        W81598  44.788  32.397  14.906
 9273W        W81599  40.948   3.823   3.379
 9274W        W81600  28.637  20.544  11.066
 9275W        W81601   6.315  39.006   3.189
 9276W        W81602   6.326  24.230   2.768
 9277W        W81603  28.596  42.880  12.377
 9278W        W81604  25.517  21.027   4.630
 9279W        W81605  31.461  19.742   0.298
 9280W        W81606  36.485  18.119   4.124
 9281W        W81607   9.856  23.138  13.872
 9282W        W81608  14.302  30.604  10.972
 9283W        W81609  35.499  42.001   3.350
 9284W        W81610  29.629   7.410  13.941
 9285W        W81611   1.257   0.408   0.940
 9286W        W81612  39.427   7.266  10.503
 9287W        W81613  21.176   2.876   0.389
 9288W        W81614  27.135  27.053   1.921
 9289W        W81615   8.320  31.616  11.421
 9290W        W81616  23.148  31.585   1.248
 9291W        W81617  15.667  44.837   3.283
 9292W        W81618   8.655  28.131  13.062
 9293W        W81619  27.590   9.197  13.532
 9294W        W81620   5.730   5.432  12.458
 9295W        W81621   1.470  20.533  10.438
 9296W        W81622  42.449  42.494   4.762
 9297W        W81623   9.386  22.203  12.358
 9298W        W81624  35.938  25.980   2.748
 9299W        W81625   1.856  35.573  10.910
 9300W        W81626  27.116   1.783  10.473
 9301W        W81627   4.860   0.864  11.128
 9302W        W81628   9.179  18.789   1.297
 9303W        W81629  13.207   2.962   1.758
 9304W        W81630  10.269  31.425  11.493
 9305W        W81631  11.233  23.237  13.500
 9306W        W81632   4.798  38.532  14.944
 9307W        W81633  31.016  30.013   3.790
 9308W        W81634  20.237   3.382   4.779
 9309W        W81635  27.575  21.724  14.928
 9310W        W81636  20.533  36.884   0.743
 9311W        W81637  14.165   5.351   1.709
 9312W        W81638  20.057  22.657   3.235
 9313W        W81639  24.078  38.949   0.472
 9314W        W81640  13.619  41.815   0.905
 9315W        W81641  29.003  36.537  13.419
 9316W        W81642  32.948  40.410  13.031
 9317W        W81643  10.693  39.454  13.855
 9318W        W81644   2.447  28.182  12.857
 9319W        W81645   6.272  28.940  13.819
 9320W        W81646   0.396  27.660   0.947
 9321W        W81647  40.997  41.346  14.011
 9322W        W81648  35.377  35.409   3.154
 9323W        W81649  43.841  20.247  13.994
 9324W        W81650  19.555  26.096  14.783
 9325W        W81651  23.503  28.045   0.458
 9326W        W81652  21.615  19.756  13.965
 9327W        W81653  11.149   5.785   0.755
 9328W        W81654  42.867   1.369  11.091
 9329W        W81655  27.151  12.728   2.715
 9330W        W81656   3.848  16.634   1.447
 9331W        W81657  40.997   2.940   1.415
 9332W        W81658  20.749   3.444   4.830
 9333W        W81659  35.884  42.858   0.948
 9334W        W81660  25.156  41.804   2.902
 9335W        W81661   2.772  29.561  14.823
 9336W        W81662  30.466  43.771   2.833
 9337W        W81663  11.196  43.937  13.015
 9338W        W81664  43.815  18.084  10.624
 9339W        W81665  18.228  28.139   4.761
 9340W        W81666  32.013  32.497  14.808
 9341W        W81667  10.645   6.381  14.019
 9342W        W81668  30.041  24.650  13.368
 9343W        W81669  10.303  10.235  14.914
 9344W        W81670  31.644   1.881   0.868
 9345W        W81671   6.223  33.439  12.857
 9346W        W81672   7.782   2.370  10.443
 9347W        W81673  11.777  22.625   1.861
 9348W        W81674   9.389   8.897   3.212
 9349W        W81675  42.827   5.213  14.010
 9350W        W81676  43.303  38.345   1.827
 9351W        W81677  15.686  37.373  13.346
 9352W        W81678  20.188   6.765  11.494
 9353W        W81679  33.034  24.145  12.350
 9354W        W81680   8.324  40.923   2.714
 9355W        W81681  31.609  16.259  13.390
 9356W        W81682  42.375  40.363  12.368
 9357W        W81683  20.580  20.607   3.785
 9358W        W81684  18.698  37.369   1.353
 9359W        W81685  36.991   4.300  12.044
 9360W        W81686  25.127  26.953   3.329
 9361W        W81687  13.239   4.408   4.291
 9362W        W81688  18.139   0.412  13.791
 9363W        W81689  19.194   8.733   0.855
 9364W        W81690  29.166  37.047  13.351
 9365W        W81691  19.205  20.274  11.918
 9366W        W81692  30.110   9.204   1.838
 9367W        W81693  27.453  15.194  10.928
 9368W        W81694  31.584  28.452  11.088
 9369W        W81695  27.614  40.335   4.665
 9370W        W81696  30.455  10.790  14.458
 9371W        W81697  23.214  37.961  11.993
 9372W        W81698   6.740  27.634   2.356
 9373W        W81699  25.185   1.887  11.011
 9374W        W81700   0.264  28.116  14.332
 9375W        W81701   0.395  36.038  14.443
 9376W        W81702  17.283  13.821   3.842
 9377W        W81703  40.368  38.062  13.911
 9378W        W81704  35.007   9.342  10.465
 9379W        W81705  13.778  14.284   0.896
 9380W        W81706  36.478  11.268   5.261
 9381W        W81707  27.030   6.816  10.585
 9382W        W81708  29.022  20.087   1.384
 9383W        W81709  17.610  18.096  14.967
 9384W        W81710  29.614  26.488   1.359
 9385W        W81711  33.956   7.742   3.779
 9386W        W81712  11.139   0.966   2.203
 9387W        W81713  34.871   1.905   5.206
 9388W        W81714  29.606  34.009   0.422
 9389W        W81715  33.045  43.901   1.321
 9390W        W81716  37.892  16.696  12.561
 9391W        W81717  23.184   6.285   0.941
 9392W        W81718  44.985   4.895   3.178
 9393W        W81719  16.221  21.219   4.166
 9394W        W81720  37.347  28.183  12.976
 9395W        W81721  13.670  44.923   3.312
 9396W        W81722  25.045  41.336   1.450
 9397W        W81723   4.825  24.165  12.892
 9398W        W81724  27.502  22.042   4.150
 9399W        W81725  29.149   9.757   4.632
 9400W        W81726  30.490  22.508  13.381
 9401W        W81727  41.835  24.014   3.699
 9402W        W81728   7.357  38.912  11.983
 9403W        W81729  33.561  25.980   0.764
 9404W        W81730  37.433  38.492   1.731
 9405W        W81731  14.656  34.917   0.425
 9406W        W81732   0.880   2.431   3.224
 9407W        W81733  23.642   1.384   2.824
 9408W        W81734   3.758  18.194  14.315
 9409W        W81735   3.284  40.471  14.820
 9410W        W81736  12.257  15.647   0.429
 9411W        W81737  42.906   8.268   2.300
 9412W        W81738  32.056  32.026  13.011
 9413W        W81739  31.427  44.890   4.670
 9414W        W81740   2.465  44.272   2.792
 9415W        W81741   4.864  17.266   2.269
 9416W        W81742  21.749  17.156   4.169
 9417W        W81743   0.876  42.335  12.540
 9418W        W81744  10.333  29.924   0.442
 9419W        W81745  21.237   3.277   2.673
 9420W        W81746  44.755   8.316  10.897
 9421W        W81747  39.912  30.914   1.753
 9422W        W81748  27.622  11.192   1.935
 9423W        W81749  30.644  20.031  13.363
 9424W        W81750  27.584  21.229  14.297
 9425W        W81751  10.755  11.348   2.721
 9426W        W81752  11.350  29.542   4.238
 9427W        W81753  10.834  44.810   2.670
 9428W        W81754  35.553   9.879   4.312
 9429W        W81755  20.176  35.863  13.308
 9430W        W81756  17.770  37.563   1.809
 9431W        W81757  11.196  39.487   2.281
 9432W        W81758  21.740  39.975   4.718
 9433W        W81759  26.120  35.090   1.266
 9434W        W81760  25.018   4.864   4.627
 9435W        W81761  25.117  32.931  12.001
 9436W        W81762  22.115   8.804   3.861
 9437W        W81763  12.119  43.459  12.070
 9438W        W81764  44.832   3.353   3.714
 9439W        W81765   1.867  10.668  13.405
 9440W        W81766   8.896  39.441  12.826
 9441W        W81767  42.284  12.822   0.902
 9442W        W81768  11.686  18.636   2.342
 9443W        W81769  44.288  27.043  11.993
 9444W        W81770  25.712  34.411   2.381
 9445W        W81771  32.529  23.562   3.862
 9446W        W81772  23.041  26.509  12.465
 9447W        W81773  32.956  10.818   0.481
 9448W        W81774  43.766  27.098   3.345
 9449W        W81775  34.433  41.869   1.925
 9450W        W81776  16.674   6.217  11.407
 9451W        W81777  25.518   7.869  11.406
 9452W        W81778  37.341  19.774   1.397
 9453W        W81779  10.289  28.059  12.073
 9454W        W81780  19.160  44.911   4.252
 9455W        W81781  26.584   2.769   1.790
 9456W        W81782  34.019  44.447  12.938
 9457W        W81783   3.236  39.549  12.488
 9458W        W81784  40.984  25.051   2.384
 9459W        W81785  41.529  40.330  14.848
 9460W        W81786   0.969  36.435   1.364
 9461W        W81787  31.073  40.415  10.933
 9462W        W81788  34.041  12.840  12.000
 9463W        W81789   7.854  17.682  14.360
 9464W        W81790  29.571   3.800  13.846
 9465W        W81791  11.194  32.530  11.568
 9466W        W81792   2.912  42.338  11.988
 9467W        W81793  32.599  14.308  13.830
 9468W        W81794  41.538   5.737   3.184
 9469W        W81795  21.119  27.625   2.865
 9470W        W81796  16.084  23.675   3.665
 9471W        W81797  18.113  33.904  11.411
 9472W        W81798  28.513  30.004   3.843
 9473W        W81799  35.554  31.008  14.912
 9474W        W81800  44.328   7.675  10.554
 9475W        W81801  37.466  44.479   4.161
 9476W        W81802  15.637   8.252   4.763
 9477W        W81803  34.876  22.164   3.828
 9478W        W81804  23.605  22.128   1.784
 9479W        W81805   3.226  43.440  11.587
 9480W        W81806   3.298  42.946  14.014
 9481W        W81807  11.337  14.188  12.008
 9482W        W81808  43.463  10.810  13.490
 9483W        W81809   2.801   7.749   4.747
 9484W        W81810  26.151  10.318   2.737
 9485W        W81811  38.847   5.208   0.290
 9486W        W81812  33.590  24.524  12.087
 9487W        W81813  22.593  18.098  10.516
 9488W        W81814  44.992  10.733   0.361
 9489W        W81815  38.049   7.714   4.809
 9490W        W81816  36.855  43.993   4.289
 9491W        W81817   3.420  11.330   3.814
 9492W        W81818  15.794  31.023   1.253
 9493W        W81819  37.518  43.458  11.539
 9494W        W81820  17.594  25.671   1.318
 9495W        W81821  30.909  35.382  14.413
 9496W        W81822  43.792  42.974  12.019
 9497W        W81823  22.596  14.683  13.458
 9498W        W81824  13.277  10.696  11.995
 9499W        W81825  38.902  21.694  14.790
 9500W        W81826   4.768  31.644  12.835
 9501W        W81827  24.226  30.928   2.289
 9502W        W81828   0.464  12.126   0.812
 9503W        W81829  26.568  19.173  12.092
 9504W        W81830  42.974  41.866  14.315
 9505W        W81831   6.724   6.409   0.786
 9506W        W81832  35.417  14.336   0.388
 9507W        W81833  23.048  36.880   5.204
 9508W        W81834  10.674  24.130   0.958
 9509W        W81835  24.143  44.474   0.464
 9510W        W81836  12.224  12.834   3.227
 9511W        W81837   1.837  23.213   0.292
 9512W        W81838  28.517  33.129   4.341
 9513W        W81839   0.388  16.698   1.779
 9514W        W81840  44.964  12.301  11.425
 9515W        W81841  11.271   3.714  13.464
 9516W        W81842   3.302   2.403  10.522
 9517W        W81843   2.892  17.783   1.217
 9518W        W81844   0.330  19.276   1.214
 9519W        W81845  12.800  43.969  11.906
 9520W        W81846   1.358  22.205  11.505
 9521W        W81847  26.154  29.008  13.842
 9522W        W81848  44.314  12.734   4.136
 9523W        W81849  13.687  15.181  11.110
 9524W        W81850  41.370   1.733  12.565
 9525W        W81851  27.980   1.389   0.956
 9526W        W81852   2.394  10.330   2.874
 9527W        W81853  37.479   9.327   0.429
 9528W        W81854   2.308  18.121  10.005
 9529W        W81855  42.961  38.001  11.960
 9530W        W81856   0.858  29.536   1.725
 9531W        W81857  28.528  18.769   3.842
 9532W        W81858   9.232  14.312  12.827
 9533W        W81859  28.031  41.472  11.580
 9534W        W81860  29.044  42.825  10.610
 9535W        W81861  41.878  21.533  14.807
 9536W        W81862   9.271   3.857   1.901
 9537W        W81863  13.183  31.929  10.124
 9538W        W81864  25.538   3.722  12.059
 9539W        W81865   7.826   8.843   1.328
 9540W        W81866  16.219  24.973   4.213
 9541W        W81867  30.986  10.377  11.433
 9542W        W81868  35.934  36.963   0.383
 9543W        W81869  23.520  26.538  11.989
 9544W        W81870  34.004  23.715   4.809
 9545W        W81871  36.854  26.596  12.992
 9546W        W81872   8.741  38.040   0.775
 9547W        W81873  15.285   0.326  13.966
 9548W        W81874   4.873  30.979   3.307
 9549W        W81875  38.462  21.197  10.903
 9550W        W81876  23.606  13.123   2.291
 9551W        W81877   9.823   1.797  12.464
 9552W        W81878  44.488  16.214  11.062
 9553W        W81879  29.572  14.099  11.120
 9554W        W81880   0.817  41.859  10.459
 9555W        W81881  16.081  13.719   4.341
 9556W        W81882  41.380  35.522  12.966
 9557W        W81883  26.520  26.656  11.469
 9558W        W81884  13.834   8.724   3.184
 9559W        W81885   9.698   0.385   1.290
 9560W        W81886  27.191   9.715   2.410
 9561W        W81887   4.725   0.871   4.640
 9562W        W81888  15.641  35.546  13.849
 9563W        W81889  13.139  37.412   4.797
 9564W        W81890  39.430  33.508   0.746
 9565W        W81891  22.222  29.557   4.772
 9566W        W81892  24.042  19.146  14.295
 9567W        W81893  27.473  15.772   4.674
 9568W        W81894  35.358  43.936   3.814
 9569W        W81895  14.627  23.155  14.021
 9570W        W81896  34.550  30.041  14.425
 9571W        W81897  31.532  32.957  12.565
 9572W        W81898   7.773  10.152   9.951
 9573W        W81899  21.027   9.731  11.425
 9574W        W81900  20.235  40.866   1.853
 9575W        W81901  10.842  28.112   1.422
 9576W        W81902  13.184  39.408  10.488
 9577W        W81903   9.274  15.640   1.399
 9578W        W81904  20.592  23.005   4.305
 9579W        W81905  25.065  19.237   3.273
 9580W        W81906  44.399  20.222   0.376
 9581W        W81907  27.149  37.993  11.395
 9582W        W81908   5.289  10.836  11.072
 9583W        W81909   9.307  43.816  13.913
 9584W        W81910  18.235   7.667   4.141
 9585W        W81911  41.789  20.601  10.451
 9586W        W81912  36.867  35.563   5.773
 9587W        W81913  10.284  21.721   3.308
 9588W        W81914  34.439   8.186  11.880
 9589W        W81915  38.485  33.927   0.300
 9590W        W81916  19.710  15.600   3.286
 9591W        W81917  32.417  10.264  10.973
 9592W        W81918  27.554  20.147  14.882
 9593W        W81919  31.552  18.148   1.695
 9594W        W81920   5.212   5.899  11.991
 9595W        W81921  38.857  35.495  11.104
 9596W        W81922  10.812  44.904  11.554
 9597W        W81923  41.947  32.986  11.410
 9598W        W81924  31.592   4.885   0.422
 9599W        W81925  41.988   6.428   9.924
 9600W        W81926  35.406  42.829   2.795
 9601W        W81927  32.900   0.845   1.403
 9602W        W81928  38.505  10.326  12.856
 9603W        W81929  43.370  30.441   1.251
 9604W        W81930  25.536  14.658   4.839
 9605W        W81931  18.081  36.562  11.395
 9606W        W81932  20.729  15.588  11.889
 9607W        W81933  42.958  27.190  12.071
 9608W        W81934  42.828  17.590   0.824
 9609W        W81935  28.568  27.100   0.457
 9610W        W81936  22.018  39.837  11.415
 9611W        W81937  19.758  40.915  14.772
 9612W        W81938  39.536  13.196  14.382
 9613W        W81939   0.467  40.427  10.636
 9614W        W81940  39.843   6.287   2.826
 9615W        W81941  40.435  44.367  10.424
 9616W        W81942  16.144  34.387   3.661
 9617W        W81943   8.363  28.583  14.783
 9618W        W81944  12.322  41.297  13.390
 9619W        W81945  19.599  18.647  14.009
 9620W        W81946  21.554  24.056   1.837
 9621W        W81947  11.184  44.893   0.785
 9622W        W81948   8.314  14.162  13.319
 9623W        W81949  22.127  27.652   1.696
 9624W        W81950  35.554  20.697   4.266
 9625W        W81951   3.779  36.093   2.299
 9626W        W81952  32.923  11.222   1.295
 9627W        W81953   6.379   6.413  14.368
 9628W        W81954   8.879  34.509  10.983
 9629W        W81955   6.424  17.757   1.355
 9630W        W81956  13.832  30.085   4.721
 9631W        W81957  32.986  17.137   1.417
 9632W        W81958  40.874   0.388   0.332
 9633W        W81959   0.309  18.602  11.481
 9634W        W81960   4.862   3.781   4.677
 9635W        W81961  13.268  18.060   0.256
 9636W        W81962   9.340   8.743   2.811
 9637W        W81963   2.830  28.128   3.349
 9638W        W81964  18.562  31.517  13.908
 9639W        W81965   7.802  28.124   2.778
 9640W        W81966  34.950   7.695   4.191
 9641W        W81967  44.420  22.723  14.456
 9642W        W81968   7.282  22.211  12.564
 9643W        W81969   7.806   1.251  11.069
 9644W        W81970  16.174  31.544  10.405
 9645W        W81971  33.069  15.320  12.546
 9646W        W81972  37.433  23.148  13.465
 9647W        W81973   8.328   5.241  11.102
 9648W        W81974  37.032  42.816   4.257
 9649W        W81975  35.859  40.375  10.437
 9650W        W81976   7.866  44.816  12.065
 9651W        W81977  30.934  27.964  12.876
 9652W        W81978  11.197   3.749   2.740
 9653W        W81979   4.792  13.250   3.221
 9654W        W81980  34.559  39.827   1.397
 9655W        W81981   7.188  16.685   1.270
 9656W        W81982  37.075  23.630   0.376
 9657W        W81983  44.889  13.712   4.178
 9658W        W81984  37.038  23.011   3.826
 9659W        W81985  42.922  39.043   2.417
 9660W        W81986   4.699  20.143  14.818
 9661W        W81987   1.471  19.266   3.203
 9662W        W81988  41.841  21.160   1.278
 9663W        W81989  11.328  40.384  14.847
 9664W        W81990  24.601   3.431   4.127
 9665W        W81991  28.550  34.591   4.811
 9666W        W81992   8.875  38.856  14.922
 9667W        W81993   7.733  27.684  11.597
 9668W        W81994  15.264  27.466  13.910
 9669W        W81995  29.006   9.350   4.745
 9670W        W81996  23.661  44.473   2.379
 9671W        W81997  32.899   1.243  13.337
 9672W        W81998  40.471  31.443   0.419
 9673W        W81999  33.117  43.403   3.205
 9674W        W82000  35.458  29.104   4.778
 9675W        W82001  30.112  16.720   1.407
 9676W        W82002  19.084   5.282   4.806
 9677W        W82003  20.697  11.299   1.821
 9678W        W82004   5.874   5.325  14.362
 9679W        W82005  26.096  27.166   2.326
 9680W        W82006  40.349  23.122   0.404
 9681W        W82007  26.573  19.622  10.909
 9682W        W82008   8.252   1.253  12.427
 9683W        W82009   0.358  24.576  11.490
 9684W        W82010   9.651  31.948  12.579
 9685W        W82011  23.600  21.071   1.839
 9686W        W82012  31.419  10.772   3.796
 9687W        W82013  43.435  22.093   4.804
 9688W        W82014  19.154  29.961  12.512
 9689W        W82015  28.675  19.708   4.120
 9690W        W82016  17.228   4.345   2.669
 9691W        W82017  18.578  19.121  12.395
 9692W        W82018   0.312  19.092  11.584
 9693W        W82019  19.610  13.818  14.316
 9694W        W82020  15.712  34.899   2.791
 9695W        W82021   6.787  31.555   4.139
 9696W        W82022  33.988  25.607  11.987
 9697W        W82023  35.436  14.312   1.852
 9698W        W82024  34.580  28.037  12.564
 9699W        W82025  36.893  10.878   1.271
 9700W        W82026   2.245  35.515  13.448
 9701W        W82027   0.368  21.658   2.338
 9702W        W82028  44.288  28.967   0.828
 9703W        W82029  21.059   6.380   2.700
 9704W        W82030  10.637  19.763  11.008
 9705W        W82031  11.803   3.245  11.585
 9706W        W82032  40.004  42.501  14.490
 9707W        W82033   3.774  30.105   1.914
 9708W        W82034  23.569  28.122   0.731
 9709W        W82035  35.513  14.108   2.794
 9710W        W82036   0.877   0.485   4.151
 9711W        W82037  15.586   9.667   4.350
 9712W        W82038  37.954  20.534  12.038
 9713W        W82039  33.007   4.852   3.287
 9714W        W82040  10.224  15.635   1.294
 9715W        W82041  28.975  44.863   0.404
 9716W        W82042  40.832  30.545   0.915
 9717W        W82043  12.248  42.344   2.231
 9718W        W82044  28.157  41.519  14.311
 9719W        W82045  21.724  32.578   0.865
 9720W        W82046  15.732  32.435   4.293
 9721W        W82047   8.393  33.120   1.240
 9722W        W82048   1.446  10.804   5.161
 9723W        W82049  30.163  25.698   0.287
 9724W        W82050  20.136  25.053  11.978
 9725W        W82051  43.910  17.772  10.562
 9726W        W82052  43.410  33.617   2.748
 9727W        W82053   6.905  20.733   3.369
 9728W        W82054  31.042  28.527  14.888
 9729W        W82055  29.959  24.695   2.313
 9730W        W82056  39.032  25.476  11.584
 9731W        W82057   5.391  32.493   4.737
 9732W        W82058  12.266   9.843   0.447
 9733W        W82059  11.741  34.513  10.914
 9734W        W82060  44.807  26.139   3.382
 9735W        W82061  29.528  37.885  12.025
 9736W        W82062  20.698  24.665   0.880
 9737W        W82063  27.525  28.071   9.633
 9738W        W82064   9.296  17.575   2.755
 9739W        W82065  10.259  15.710   3.182
 9740W        W82066   9.354  26.138   3.165
 9741W        W82067   9.708  39.488   1.875
 9742W        W82068   9.340  14.329  13.490
 9743W        W82069  37.984  39.462  11.983
 9744W        W82070   6.786  35.933  12.880
 9745W        W82071  20.614  42.921  14.800
 9746W        W82072  31.997  41.413   1.406
 9747W        W82073  37.370   1.391   2.663
 9748W        W82074  38.496   7.785   3.216
 9749W        W82075  22.708   8.766  10.003
 9750W        W82076   6.855  39.994  10.629
 9751W        W82077   9.153  33.934   0.729
 9752W        W82078  32.479   9.846   2.713
 9753W        W82079  17.287  13.649   1.840
 9754W        W82080  12.268   4.919   0.355
 9755W        W82081  10.328  26.613   0.302
 9756W        W82082  27.635   8.352  11.915
 9757W        W82083   4.762   6.258   2.879
 9758W        W82084   7.702  20.594  11.882
 9759W        W82085  14.644  20.164  14.456
 9760W        W82086  28.555  28.071  10.538
 9761W        W82087  12.228  26.000  10.057
 9762W        W82088  28.976  27.538   3.850
 9763W        W82089  11.746  39.826   0.365
 9764W        W82090   9.683   9.794   1.891
 9765W        W82091   4.417  17.622   1.263
 9766W        W82092  40.874  34.946  12.477
 9767W        W82093  23.679  35.861  11.593
 9768W        W82094  26.064  33.092   1.429
 9769W        W82095  27.525   5.285  12.534
 9770W        W82096  22.699  35.852   1.855
 9771W        W82097   5.321  30.424   1.371
 9772W        W82098  23.066  30.007  14.494
 9773W        W82099  44.859   3.798   0.771
 9774W        W82100  20.043  25.649  13.813
 9775W        W82101  10.304   6.298   0.807
 9776W        W82102  37.873  23.514  11.060
 9777W        W82103  11.645   1.795  11.391
 9778W        W82104  11.126  15.162   3.677
 9779W        W82105  44.947  40.304   1.721
 9780W        W82106  36.514  28.031  11.110
 9781W        W82107  44.767  24.006   0.897
 9782W        W82108  11.758  17.187   5.268
 9783W        W82109  25.575   1.417   0.866
 9784W        W82110  13.215  36.881  12.884
 9785W        W82111  42.801  31.042  12.072
 9786W        W82112   3.885  16.202  11.074
 9787W        W82113  28.554  39.834  12.077
 9788W        W82114  27.150  19.620  12.917
 9789W        W82115  13.300  15.139   0.836
 9790W        W82116  43.836  19.652   1.261
 9791W        W82117   7.241  23.606  14.860
 9792W        W82118  28.943   7.200  12.965
 9793W        W82119  40.034   0.441   1.243
 9794W        W82120  40.540  23.528  11.467
 9795W        W82121  33.913  24.695   3.285
 9796W        W82122  22.542   2.729  14.886
 9797W        W82123  37.570  17.626   1.423
 9798W        W82124  43.385  19.599   4.732
 9799W        W82125  36.934  27.031  13.451
 9800W        W82126  26.617  11.659   0.355
 9801W        W82127  17.590  14.591  10.480
 9802W        W82128  20.707  21.632  13.990
 9803W        W82129   5.698  24.221   2.259
 9804W        W82130   2.228  34.434   0.455
 9805W        W82131  24.642  15.634   2.684
 9806W        W82132  39.326  31.612   4.316
 9807W        W82133  16.262  18.083   2.377
 9808W        W82134  12.782   6.270   1.898
 9809W        W82135  20.066  21.581   0.422
 9810W        W82136   8.868  11.649  12.837
 9811W        W82137   1.832   4.883  10.155
 9812W        W82138   5.854  23.156   0.354
 9813W        W82139  30.944  35.517  13.005
 9814W        W82140  19.150  44.848   0.888
 9815W        W82141  25.184  15.153  13.974
 9816W        W82142  12.652  24.576   3.304
 9817W        W82143  20.235  17.265  14.027
 9818W        W82144  25.498  40.524   1.391
 9819W        W82145  40.830  27.532  11.374
 9820W        W82146   6.189  38.497   1.443
 9821W        W82147  25.697  19.662   5.147
 9822W        W82148  31.939  10.152  13.003
 9823W        W82149  37.970  40.902   2.254
 9824W        W82150  42.487  13.797   1.746
 9825W        W82151  34.564  12.697   1.730
 9826W        W82152  26.036  29.502  13.503
 9827W        W82153  25.081  27.480  14.987
 9828W        W82154  37.086  43.947  12.910
 9829W        W82155   0.385  19.233  10.454
 9830W        W82156   4.246   6.820  12.919
 9831W        W82157  35.022  17.146   0.334
 9832W        W82158  19.679  14.707   0.817
 9833W        W82159  17.784  41.825   1.716
 9834W        W82160   8.860  19.229  11.930
 9835W        W82161  19.072  19.653  14.913
 9836W        W82162  27.638  40.378  13.911
 9837W        W82163   1.953   0.800  12.056
 9838W        W82164  13.234   2.940  13.954
 9839W        W82165  22.688  31.917  12.505
 9840W        W82166   6.825  36.995  12.020
 9841W        W82167   3.867  30.422   3.753
 9842W        W82168  21.070  22.096  11.567
 9843W        W82169  37.002  14.103   1.440
 9844W        W82170   0.859  12.828  11.439
 9845W        W82171  25.632  35.474  14.334
 9846W        W82172  28.138  37.861   1.874
 9847W        W82173  14.598   1.305  13.958
 9848W        W82174  23.133  25.041  12.396
 9849W        W82175  43.363  15.582  13.386
 9850W        W82176  26.575  27.981  10.992
 9851W        W82177   3.286   0.836  14.924
 9852W        W82178  35.933  34.943  13.489
 9853W        W82179  35.453  36.455  10.998
 9854W        W82180   2.767  12.667   2.827
 9855W        W82181  17.090  27.016   0.882
 9856W        W82182  26.545  25.020  10.632
 9857W        W82183  13.779  13.743  12.023
 9858W        W82184  31.005  41.510  12.930
 9859W        W82185   2.440  19.600  14.366
 9860W        W82186  38.395  21.159   3.263
 9861W        W82187  22.714   0.470  10.106
 9862W        W82188  19.616  35.036  12.996
 9863W        W82189  39.476  37.083  10.463
 9864W        W82190  44.998  26.459   2.209
 9865W        W82191  26.054  16.654   4.734
 9866W        W82192  34.030  28.156  10.047
 9867W        W82193   3.394   7.787  11.502
 9868W        W82194  19.565  25.681   3.164
 9869W        W82195  33.057  25.095   2.746
 9870W        W82196  13.164  27.486  14.980
 9871W        W82197   5.312  19.578  14.298
 9872W        W82198  11.361  21.183   4.718
 9873W        W82199  13.727  44.297   2.328
 9874W        W82200   5.760  35.003  12.071
 9875W        W82201  27.569  25.985  13.863
 9876W        W82202  12.299  15.776   3.829
 9877W        W82203  44.982  38.374   2.682
 9878W        W82204  22.185  36.962  13.497
 9879W        W82205  25.002  18.602   2.327
 9880W        W82206  32.460  39.333  14.807
 9881W        W82207  38.383  21.757  13.437
 9882W        W82208   1.951  39.038   1.406
 9883W        W82209  25.117  16.192   1.860
 9884W        W82210   2.281  20.165   2.271
 9885W        W82211  12.630  16.613  13.813
 9886W        W82212  37.422  25.183   0.410
 9887W        W82213  19.682  28.106  10.456
 9888W        W82214  20.686   5.300   0.738
 9889W        W82215   4.842  16.745  12.029
 9890W        W82216  15.751  16.211  10.536
 9891W        W82217  37.943  27.664   4.641
 9892W        W82218  40.895  36.084   1.809
 9893W        W82219  35.567   7.300  13.321
 9894W        W82220  31.983  35.446   4.644
 9895W        W82221  23.062  40.420   4.650
 9896W        W82222  31.506  17.219   1.763
 9897W        W82223  27.122  14.158  12.466
 9898W        W82224  34.484  11.168   1.915
 9899W        W82225  30.993  22.246   1.260
 9900W        W82226   9.741  17.150  14.515
 9901W        W82227  21.712  20.619   3.738
 9902W        W82228   5.878  38.010   3.776
 9903W        W82229   7.707  41.853   1.315
 9904W        W82230   4.892  39.859   1.752
 9905W        W82231   8.371  36.052   4.348
 9906W        W82232  43.855  21.736  14.863
 9907W        W82233   2.860  27.546   1.363
 9908W        W82234   7.398  39.875  11.455
 9909W        W82235   0.260  40.031   1.374
 9910W        W82236  15.684   1.334   2.288
 9911W        W82237  44.966  43.866   0.796
 9912W        W82238  17.595  25.494  11.517
 9913W        W82239   0.330  10.274  12.858
 9914W        W82240  20.206   1.318  12.349
 9915W        W82241  19.204   9.274  14.513
 9916W        W82242  10.800  23.164  10.456
 9917W        W82243  22.028   7.314   4.221
 9918W        W82244  29.645  27.122   0.855
 9919W        W82245  18.287  36.499  13.036
 9920W        W82246  14.341  11.823  14.506
 9921W        W82247   7.233  24.587   0.964
 9922W        W82248  24.613   5.860  12.536
 9923W        W82249  32.070  29.432   0.788
 9924W        W82250  35.534   4.356   1.328
 9925W        W82251  29.624   3.784   1.325
 9926W        W82252  23.115  10.777   0.451
 9927W        W82253   1.788   7.860  13.869
 9928W        W82254  14.652  25.189  11.613
 9929W        W82255   2.863  39.060  12.580
 9930W        W82256   6.816   8.311   2.210
 9931W        W82257  10.866   9.350  11.579
 9932W        W82258  20.077  16.240   3.765
 9933W        W82259  32.512  15.597  12.411
 9934W        W82260   3.251  14.604  14.785
 9935W        W82261  20.628   2.452   4.216
 9936W        W82262  40.015  29.502   1.287
 9937W        W82263  17.625  36.467  11.496
 9938W        W82264  19.750  44.914  10.525
 9939W        W82265  37.903  27.646   2.833
 9940W        W82266   6.247   5.872   4.192
 9941W        W82267  26.494  33.943  12.086
 9942W        W82268  30.431  22.247   1.345
 9943W        W82269  40.855  11.166   0.334
 9944W        W82270   4.260   7.763   0.382
 9945W        W82271  10.644  11.219  10.580
 9946W        W82272  15.606  40.007  10.473
 9947W        W82273  27.170   7.892   0.952
 9948W        W82274  17.692  22.127   4.257
 9949W        W82275  20.244   2.949   4.831
 9950W        W82276  37.037  14.162  11.091
 9951W        W82277  33.921  36.392   1.745
 9952W        W82278  42.485  42.396  14.354
 9953W        W82279   0.367  19.233  14.428
 9954W        W82280  32.590  26.528   3.871
 9955W        W82281  36.845  23.679   3.714
 9956W        W82282  14.614  14.705  13.062
 9957W        W82283   7.344  36.592  14.781
 9958W        W82284  24.135  10.645  10.434
 9959W        W82285  28.040  43.274   2.673
 9960W        W82286   7.668  26.016  11.476
 9961W        W82287  44.766   7.296   3.815
 9962W        W82288  11.701  35.554   4.290
 9963W        W82289  39.502  21.600  11.856
 9964W        W82290  20.250  37.514  13.384
 9965W        W82291   7.790   2.881  14.320
 9966W        W82292  41.397  44.446  14.301
 9967W        W82293  26.689  37.410   0.952
 9968W        W82294  15.126   9.802   0.787
 9969W        W82295  19.539  15.274   0.435
 9970W        W82296  15.714  28.633  14.300
 9971W        W82297   4.406  23.073   3.293
 9972W        W82298  19.144  31.131  14.958
 9973W        W82299  37.958  22.124   4.711
 9974W        W82300  34.539   7.677  11.449
 9975W        W82301  17.144  23.596  11.875
 9976W        W82302  40.006  43.337   2.850
 9977W        W82303  23.560  24.681  12.389
 9978W        W82304  21.128  35.537   3.839
 9979W        W82305  10.807  39.923  11.862
 9980W        W82306  30.561   4.941  13.404
 9981W        W82307  13.657  22.091  12.929
 9982W        W82308  25.137  14.731   4.668
 9983W        W82309  11.268   8.185   1.359
 9984W        W82310  41.897  25.618  13.980
 9985W        W82311  22.704  25.983   2.390
 9986W        W82312  16.614  38.823  14.281
 9987W        W82313   3.831  27.539  14.824
 9988W        W82314  29.500  30.982   3.763
 9989W        W82315  14.745  30.631  11.975
 9990W        W82316   3.346  16.714  14.487
 9991W        W82317  18.591  44.868   1.720
 9992W        W82318  14.789   8.665  12.533
 9993W        W82319  29.440  24.221  11.112
 9994W        W82320  38.915  20.119  12.831
 9995W        W82321  39.335  38.855   1.777
 9996W        W82322  37.040  44.791  12.874
 9997W        W82323  32.457  26.160  12.850
 9998W        W82324  27.463  41.421   4.826
 9999W        W82325  44.759  44.362  11.512
10000W        W82326  18.212  27.943   2.824
10001W        W82327  14.152   8.805   2.878
10002W        W82328  14.212  30.957  10.932
10003W        W82329   3.904   3.855  12.986
10004W        W82330   0.935  26.090   1.927
10005W        W82331  12.221   0.882  10.546
10006W        W82332  29.456  25.001  13.952
10007W        W82333  11.746  20.726  13.390
10008W        W82334  14.100  26.526   5.586
10009W        W82335  40.476   2.361  13.999
10010W        W82336  28.626  44.811   3.700
10011W        W82337   7.240  21.721   0.813
10012W        W82338  10.225  40.009  13.009
10013W        W82339  10.157   3.270   0.946
10014W        W82340   4.273  24.552  11.601
10015W        W82341   8.260   9.392   1.401
10016W        W82342  30.928  29.600   5.136
10017W        W82343  13.202  39.009  10.959
10018W        W82344  27.197  16.617   4.246
10019W        W82345  24.629  11.131  13.037
10020W        W82346  24.096   8.234   3.200
10021W        W82347  32.886  38.554  14.501
10022W        W82348  12.841   9.323   1.262
10023W        W82349  28.527  40.888   2.259
10024W        W82350  18.139   5.873   4.744
10025W        W82351  25.973  37.913  12.415
10026W        W82352   8.740  24.630   1.888
10027W        W82353   8.662   8.733   4.609
10028W        W82354  19.075  12.177   0.398
10029W        W82355  36.032  20.080   4.601
10030W        W82356  23.681  31.616  13.017
10031W        W82357  35.603  18.215  11.887
10032W        W82358   5.354  31.008   0.281
10033W        W82359  13.315  35.365  13.922
10034W        W82360   0.346  25.666   2.767
10035W        W82361  37.461  16.097  12.073
10036W        W82362  44.360  25.484  14.986
10037W        W82363  14.726   1.818   0.365
10038W        W82364  16.603  42.505  10.640
10039W        W82365  30.503  12.222   2.194
10040W        W82366  22.232  12.158  11.082
10041W        W82367   1.335   4.943  12.083
10042W        W82368  24.711  39.018   1.791
10043W        W82369   8.304   8.399  12.544
10044W        W82370  34.576  28.660  14.847
10045W        W82371  30.048  38.446  12.044
10046W        W82372  36.525  41.408   3.825
10047W        W82373  17.149  42.999  13.890
10048W        W82374  29.431  37.347  11.569
10049W        W82375  13.192  25.175   2.255
10050W        W82376   5.861   1.483  14.402
10051W        W82377  13.149  40.336  13.005
10052W        W82378  43.356  44.407   4.146
10053W        W82379  19.133  17.196   3.228
10054W        W82380  24.563  19.135  12.514
10055W        W82381  18.249  42.972  14.358
10056W        W82382   2.956  28.086   1.722
10057W        W82383  24.070   5.888  13.990
10058W        W82384   7.789   7.726  11.928
10059W        W82385  35.054  12.786   1.378
10060W        W82386  43.021  10.323   0.246
10061W        W82387  41.430  13.183   2.799
10062W        W82388  38.859  29.131  10.953
10063W        W82389  25.134  38.326   4.641
10064W        W82390  19.039  11.191   1.874
10065W        W82391  16.155   6.807  13.334
10066W        W82392   4.767  25.182  12.074
10067W        W82393  42.903  29.430   0.905
10068W        W82394   4.735  17.236   4.199
10069W        W82395   1.274   6.345   0.784
10070W        W82396  32.888  25.093   1.393
10071W        W82397  35.505  15.756  14.796
10072W        W82398  26.546  26.608  10.980
10073W        W82399   1.244  40.374  10.469
10074W        W82400  21.083  42.509  12.026
10075W        W82401   7.256  11.652   1.253
10076W        W82402  20.112  36.568   1.432
10077W        W82403  35.055  34.978   3.284
10078W        W82404  30.964  36.559  13.993
10079W        W82405  38.037  31.478  12.836
10080W        W82406  18.660  42.373  13.955
10081W        W82407  11.270  28.955   4.346
10082W        W82408   4.222  32.994  13.944
10083W        W82409   0.910  27.094   3.202
10084W        W82410   3.893  39.878   2.387
10085W        W82411  39.860  41.987  13.500
10086W        W82412  24.213  17.164  13.366
10087W        W82413  19.576  18.748  14.969
10088W        W82414  15.226   8.383  12.886
10089W        W82415  31.590  26.089   1.782
10090W        W82416  32.048  31.603   2.372
10091W        W82417  11.333  40.898  14.322
10092W        W82418   7.287  42.817   2.394
10093W        W82419  10.374   4.354  14.932
10094W        W82420  38.008   7.754  11.506
10095W        W82421  17.175  12.819   0.931
10096W        W82422  20.570  27.947  11.541
10097W        W82423  20.640  29.450  14.496
10098W        W82424   2.775  23.654   1.346
10099W        W82425  34.078  24.690   4.727
10100W        W82426  20.046  36.424   4.722
10101W        W82427  16.175  18.587   3.253
10102W        W82428   3.887  28.088   0.754
10103W        W82429   0.779   0.977  14.356
10104W        W82430  22.564  12.761   9.953
10105W        W82431  43.414  14.634   1.353
10106W        W82432  19.572  21.708  12.088
10107W        W82433  26.545  39.478  11.397
10108W        W82434  24.996   5.328  12.909
10109W        W82435   6.207  30.648  12.421
10110W        W82436  20.029   0.975  12.993
10111W        W82437   4.889   1.443   2.835
10112W        W82438  34.916   6.284  14.330
10113W        W82439  41.797   8.776   3.852
10114W        W82440  33.101  22.744   4.838
10115W        W82441  40.007   7.872   2.863
10116W        W82442   6.417  37.536  12.041
10117W        W82443  41.369  29.545   4.675
10118W        W82444  33.427  37.570   3.789
10119W        W82445  13.720  35.483   0.868
10120W        W82446  20.227  18.657  14.344
10121W        W82447  36.945  27.493  14.319
10122W        W82448  30.522  18.595   2.749
10123W        W82449  27.672  10.265  11.892
10124W        W82450  10.172  34.983   5.140
10125W        W82451   4.930  37.347  12.998
10126W        W82452  32.052  13.262  10.492
10127W        W82453  34.007  41.908   2.330
10128W        W82454   2.312  27.986   4.768
10129W        W82455   1.244  25.178  13.810
10130W        W82456  23.100  15.822   3.842
10131W        W82457  24.056  32.980  11.942
10132W        W82458  41.349   9.253   3.344
10133W        W82459  26.535  21.130  11.542
10134W        W82460  44.946   7.251   4.262
10135W        W82461  26.559  15.598  13.456
10136W        W82462  37.388  29.603   2.324
10137W        W82463  26.132   2.924   4.600
10138W        W82464  23.721  35.461   1.778
10139W        W82465  38.559  36.971   2.257
10140W        W82466   9.661  33.032  10.448
10141W        W82467  20.574  39.918   2.395
10142W        W82468  14.190  41.841  11.474
10143W        W82469  15.661  42.881  14.380
10144W        W82470   8.725  34.426   2.374
10145W        W82471  30.027  41.460   4.642
10146W        W82472  11.325  21.625  13.383
10147W        W82473  25.590  12.290   1.930
10148W        W82474  14.690   3.860  13.318
10149W        W82475   9.761  35.389  12.024
10150W        W82476  44.366  38.334   0.305
10151W        W82477  23.198  27.636  10.462
10152W        W82478   3.713   2.841  14.815
10153W        W82479  25.551  39.927   1.885
10154W        W82480  27.084  28.594   3.768
10155W        W82481  10.323  32.493  10.975
10156W        W82482  39.987  25.185   1.929
10157W        W82483  23.012   4.348   3.356
10158W        W82484  39.415  10.647   4.352
10159W        W82485  29.555  17.094  11.961
10160W        W82486  17.725  34.436  13.906
10161W        W82487  16.157  30.562   4.323
10162W        W82488   9.680  41.514   2.827
10163W        W82489   3.309  33.033  11.570
10164W        W82490  26.062  12.295  13.467
10165W        W82491  29.576  30.642   2.400
10166W        W82492   2.317  14.215   0.827
10167W        W82493  36.468  33.091  14.313
10168W        W82494  44.349  43.476   4.779
10169W        W82495  44.935  22.233  12.831
10170W        W82496  12.747  27.945   1.774
10171W        W82497   5.717  41.329   3.686
10172W        W82498  34.105  30.159   1.724
10173W        W82499  21.606  28.451   4.197
10174W        W82500  38.536  40.429   1.446
10175W        W82501  31.107   9.702  14.019
10176W        W82502  28.165  12.826  13.439
10177W        W82503  24.478  42.944   4.796
10178W        W82504  19.171  41.372   4.223
10179W        W82505  16.106  20.165  11.945
10180W        W82506  13.153  35.595  13.364
10181W        W82507   8.811  39.862  10.515
10182W        W82508  33.931  31.053   3.275
10183W        W82509  38.380   9.374   0.939
10184W        W82510   9.866  34.038  11.944
10185W        W82511  27.943  35.880   2.871
10186W        W82512   4.713  12.323   1.279
10187W        W82513  25.687   5.282   4.200
10188W        W82514  18.145  23.718  12.037
10189W        W82515  17.273  39.320   2.896
10190W        W82516  16.727   0.290   4.619
10191W        W82517   6.902  29.479  12.495
10192W        W82518  23.560  12.269   1.730
10193W        W82519  41.489   4.234  11.967
10194W        W82520   5.205  41.800  12.533
10195W        W82521  42.305  11.838   3.848
10196W        W82522  44.460  17.739  13.530
10197W        W82523  32.474  22.216  11.594
10198W        W82524  30.470  18.740  10.540
10199W        W82525  16.126  39.943  13.016
10200W        W82526  39.829  17.290   0.325
10201W        W82527  40.999  11.621  12.519
10202W        W82528  35.004  13.766   0.379
10203W        W82529  44.302  13.704   2.689
10204W        W82530  10.193  26.619   4.606
10205W        W82531  23.602  34.551   3.750
10206W        W82532  35.925  31.413   1.780
10207W        W82533  20.684  21.055   2.875
10208W        W82534  29.476  38.054   3.295
10209W        W82535  42.401  18.567  11.591
10210W        W82536  29.576  36.488  10.944
10211W        W82537  32.499  20.088  12.573
10212W        W82538  41.907   5.916  13.902
10213W        W82539  28.600  36.468  13.942
10214W        W82540  12.326  16.800  13.351
10215W        W82541   6.906  16.239   4.305
10216W        W82542  28.481  34.969   2.303
10217W        W82543   1.426  24.061   1.913
10218W        W82544  10.839  26.641  12.561
10219W        W82545  19.130  14.719  13.981
10220W        W82546   4.327  17.100   2.762
10221W        W82547  16.735  35.873   3.312
10222W        W82548  39.391  37.543   9.963
10223W        W82549  16.308   8.821   0.863
10224W        W82550  43.945  44.314  13.368
10225W        W82551   0.940  30.056   0.285
10226W        W82552  36.476  32.496   2.213
10227W        W82553  16.798   3.888   0.273
10228W        W82554  18.262  33.621  12.954
10229W        W82555  30.078  25.470  12.443
10230W        W82556  18.630   3.766   4.347
10231W        W82557  14.159   6.906   3.189
10232W        W82558  38.854   1.366   5.211
10233W        W82559  29.153  12.770   4.605
10234W        W82560  29.656  22.043   0.810
10235W        W82561  38.459   6.412  13.361
10236W        W82562  18.083  44.863  10.972
10237W        W82563   7.246   3.440   2.397
10238W        W82564  25.209  43.818   3.314
10239W        W82565  26.039  23.009  12.019
10240W        W82566  42.820  10.636   2.845
10241W        W82567   7.760  32.425   3.722
10242W        W82568  39.938   8.346   2.795
10243W        W82569  43.332  25.530  12.990
10244W        W82570  32.947  23.601  11.071
10245W        W82571  36.571   6.404  10.609
10246W        W82572  25.046   0.451  11.394
10247W        W82573  26.538  20.091   2.822
10248W        W82574  12.701  21.149  10.029
10249W        W82575  34.522  10.320  12.426
10250W        W82576  26.669  34.009  12.565
10251W        W82577   9.177   0.404  13.888
10252W        W82578   6.221  32.923  12.927
10253W        W82579   7.299  13.752  11.041
10254W        W82580  37.032  14.791  12.054
10255W        W82581   9.369  23.113   1.911
10256W        W82582  15.148  19.557   4.802
10257W        W82583  14.624   0.425   3.356
10258W        W82584  13.783  20.146  10.625
10259W        W82585  10.672  18.292  12.569
10260W        W82586  21.664   4.805   1.711
10261W        W82587  21.105   3.862  14.493
10262W        W82588  13.350  43.360  14.394
10263W        W82589   5.253  24.068   2.187
10264W        W82590  27.628  42.492  14.904
10265W        W82591  23.187  35.378   0.348
10266W        W82592   1.927  28.566   2.367
10267W        W82593  16.193  21.661   1.274
10268W        W82594  40.419  24.622   4.293
10269W        W82595   5.775  19.077   1.871
10270W        W82596  25.026   7.884   0.767
10271W        W82597  21.100  35.453  14.493
10272W        W82598  10.381  37.422   3.658
10273W        W82599  11.191   3.719   0.753
10274W        W82600  18.284  19.209  13.431
10275W        W82601  43.871   4.699  14.334
10276W        W82602   1.863  32.044  11.994
10277W        W82603  30.571   7.739   2.685
10278W        W82604  27.123   2.356  10.467
10279W        W82605  23.198  12.202  14.367
10280W        W82606  29.618   6.878  14.466
10281W        W82607  44.323  36.575  12.878
10282W        W82608  41.355  42.432   1.233
10283W        W82609  15.109  28.644  14.012
10284W        W82610  14.180  19.583  12.885
10285W        W82611  12.128  14.340   1.228
10286W        W82612  26.671  17.107  13.913
10287W        W82613  17.125  33.989   1.282
10288W        W82614  26.029  37.838   2.801
10289W        W82615  23.510   0.303  12.528
10290W        W82616  30.458  11.250  12.562
10291W        W82617  18.125  29.465  14.935
10292W        W82618   7.726   5.223   0.376
10293W        W82619  10.722  29.966   4.298
10294W        W82620  23.728   6.694   0.479
10295W        W82621   4.317  41.445  13.417
10296W        W82622  17.611   0.454  11.015
10297W        W82623   9.646  43.275   0.763
10298W        W82624  19.624  37.339  12.574
10299W        W82625  31.104   0.747   0.336
10300W        W82626   1.940  33.874  12.880
10301W        W82627  10.245   5.227  12.949
10302W        W82628  38.360  22.548  14.786
10303W        W82629  23.011  25.473  12.485
10304W        W82630  11.803  18.225  11.475
10305W        W82631  14.288  41.450  13.051
10306W        W82632  32.914  28.044  12.471
10307W        W82633  23.539  31.087   3.813
10308W        W82634  20.053  31.052   1.775
10309W        W82635   6.346  36.468   4.253
10310W        W82636  44.903  20.711  12.378
10311W        W82637  42.933   9.815  12.899
10312W        W82638  37.574   2.786  14.836
10313W        W82639  36.003  39.031   0.786
10314W        W82640   9.716  19.151   3.718
10315W        W82641   2.270  37.542   1.857
10316W        W82642  41.986   3.378  11.073
10317W        W82643  23.591  23.028  11.948
10318W        W82644  27.590  40.893   4.721
10319W        W82645  43.497  12.658   3.796
10320W        W82646   3.908  16.100   3.760
10321W        W82647   3.900  26.986   3.760
10322W        W82648  12.271  25.146   5.101
10323W        W82649  36.091   7.204   4.818
10324W        W82650  42.922  38.462  12.021
10325W        W82651  36.876  10.173  12.452
10326W        W82652   2.435  31.474  12.907
10327W        W82653  13.708  24.586   5.607
10328W        W82654  31.031  22.199  14.369
10329W        W82655  44.337  15.643   1.333
10330W        W82656  38.046  10.346   3.774
10331W        W82657   5.259  17.287  11.585
10332W        W82658   9.354  40.540   0.820
10333W        W82659  36.910  42.873   2.210
10334W        W82660   9.169  12.832   1.703
10335W        W82661  30.548   3.325   4.751
10336W        W82662  17.106  23.029  13.931
10337W        W82663  29.569   7.667   5.272
10338W        W82664  30.534  24.629  12.879
10339W        W82665  13.724  29.519  10.534
10340W        W82666  17.258  36.096  10.615
10341W        W82667  20.560   6.369  12.576
10342W        W82668   2.460  29.935  11.559
10343W        W82669  11.725  11.638  14.805
10344W        W82670  33.616  23.004   2.767
10345W        W82671  26.595  35.875  10.161
10346W        W82672  26.171  33.446   1.256
10347W        W82673   0.478  32.554   4.641
10348W        W82674   5.718  31.994   2.312
10349W        W82675  10.298  41.534  10.048
10350W        W82676  41.799   5.262   2.330
10351W        W82677  34.498  18.165  10.892
10352W        W82678   2.321  16.263   0.296
10353W        W82679  12.286  26.057   3.309
10354W        W82680  23.729  11.195  11.095
10355W        W82681   5.823  32.418  13.509
10356W        W82682  34.073  38.962   2.731
10357W        W82683   3.415   0.460   0.826
10358W        W82684  27.455   0.826   1.828
10359W        W82685  24.229  44.804  11.958
10360W        W82686  38.068  32.464  10.563
10361W        W82687  44.485  15.240  13.064
10362W        W82688  19.120  31.109   3.336
10363W        W82689   1.467  20.764   3.791
10364W        W82690  41.877   6.307  12.984
10365W        W82691  41.538  25.081   4.741
10366W        W82692  24.690  23.055   3.658
10367W        W82693  36.078  35.853  14.949
10368W        W82694  22.012   2.346   3.356
10369W        W82695   3.717   8.834   4.800
10370W        W82696  18.055  35.045  12.376
10371W        W82697  12.231   2.263  12.524
10372W        W82698  33.383  38.458  13.473
10373W        W82699  19.585   6.396  11.100
10374W        W82700  19.193  20.171   0.800
10375W        W82701  25.701  11.258  12.948
10376W        W82702  12.212   1.825  10.954
10377W        W82703   1.441  15.169  13.904
10378W        W82704  21.616  37.550   1.242
10379W        W82705  15.614  26.579   1.281
10380W        W82706  26.650  35.094   4.205
10381W        W82707   7.415   6.380  12.899
10382W        W82708  23.182  33.468   4.700
10383W        W82709  22.581  15.655   5.585
10384W        W82710  27.588  42.810  10.099
10385W        W82711  38.029  43.364   1.270
10386W        W82712  29.443  42.962   5.274
10387W        W82713  28.564  38.382  14.839
10388W        W82714  40.389  38.073  10.579
10389W        W82715  33.119  20.746  12.927
10390W        W82716  22.045  43.469  11.054
10391W        W82717  25.586  23.683   0.443
10392W        W82718  16.692  10.656  14.372
10393W        W82719  43.861   2.346  14.839
10394W        W82720  34.383   2.384  14.985
10395W        W82721  26.680  22.593  14.447
10396W        W82722  41.886  39.823  12.361
10397W        W82723   3.861  14.696   3.157
10398W        W82724  26.638  19.082   5.094
10399W        W82725  21.757  33.106   1.873
10400W        W82726  27.023  39.328  12.572
10401W        W82727  22.031  13.128  13.924
10402W        W82728  34.973  42.450   2.371
10403W        W82729  38.363   4.895  12.955
10404W        W82730  24.548  37.460   2.408
10405W        W82731  11.727  12.119  14.440
10406W        W82732   7.815   6.274   4.338
10407W        W82733  31.011  26.573  14.438
10408W        W82734  11.140  34.975   1.438
10409W        W82735   5.730   1.257  13.509
10410W        W82736  27.567  36.986   1.443
10411W        W82737  25.207  21.159  14.893
10412W        W82738  21.589  27.490  11.974
10413W        W82739  36.407  39.851   4.680
10414W        W82740  17.244  11.231  13.959
10415W        W82741  38.865   0.762   4.674
10416W        W82742  18.651  35.588   1.320
10417W        W82743  29.098   0.913  10.605
10418W        W82744  12.722  17.069   2.398
10419W        W82745  28.542   8.313   1.700
10420W        W82746  22.634  36.001   5.237
10421W        W82747  38.819  21.259   2.869
10422W        W82748  34.383   4.704  14.877
10423W        W82749  28.555  39.919  13.414
10424W        W82750  25.013  39.974   4.808
10425W        W82751   3.832  12.841   3.817
10426W        W82752  15.703  13.162   0.947
10427W        W82753  23.694  39.394   0.358
10428W        W82754   2.439  10.308   1.862
10429W        W82755   3.857  14.706   2.330
10430W        W82756  22.060  17.784  12.859
10431W        W82757  29.040  27.505  12.953
10432W        W82758  43.816  38.411   1.859
10433W        W82759   8.779  26.559   1.320
10434W        W82760  26.660   7.898  13.548
10435W        W82761   9.183  13.821   4.718
10436W        W82762  28.516  38.324  13.933
10437W        W82763  36.438  29.488  12.050
10438W        W82764  43.821  31.039   1.731
10439W        W82765  37.027  21.701   4.347
10440W        W82766   2.458  25.507   1.355
10441W        W82767  14.095  43.365   3.696
10442W        W82768   1.308  42.812  14.834
10443W        W82769  17.166  14.289   0.860
10444W        W82770  43.882   9.388   0.308
10445W        W82771  23.001   1.338  14.788
10446W        W82772  31.557   2.733  11.564
10447W        W82773  41.929  17.079   4.137
10448W        W82774  34.888  25.649   0.482
10449W        W82775  13.745   7.396   4.247
10450W        W82776  24.630   1.245   1.434
10451W        W82777  36.069  29.972   1.211
10452W        W82778  17.145  32.633   1.227
10453W        W82779  15.814  26.093  13.446
10454W        W82780   2.894   4.837  13.876
10455W        W82781  23.705  14.274  11.950
10456W        W82782  17.581  43.786  12.016
10457W        W82783  26.114  14.724  13.420
10458W        W82784  35.952  38.532   0.755
10459W        W82785   3.324  36.489   1.825
10460W        W82786   7.725  18.733   4.741
10461W        W82787   2.261  16.258  12.529
10462W        W82788  39.377  43.428  13.840
10463W        W82789   4.864  36.029  12.420
10464W        W82790  10.375  30.539   0.470
10465W        W82791   5.761  43.350   3.358
10466W        W82792  23.657  28.453  14.972
10467W        W82793  19.585   0.975   1.844
10468W        W82794  13.229   3.335   4.770
10469W        W82795  15.687  14.146   0.882
10470W        W82796   7.722  26.101   3.245
10471W        W82797  32.127  13.605   1.356
10472W        W82798  33.884  30.460   2.711
10473W        W82799   1.390  13.755   3.785
10474W        W82800  27.962  39.409   3.238
10475W        W82801   1.867  22.130   1.244
10476W        W82802  43.897  34.391   2.341
10477W        W82803  41.318  22.526  13.829
10478W        W82804  24.586   3.802   0.916
10479W        W82805  14.595  16.578  11.461
10480W        W82806  21.036  35.954  11.396
10481W        W82807  34.484  44.267  10.082
10482W        W82808   0.347  35.515   4.811
10483W        W82809  31.064  16.626   2.673
10484W        W82810   6.349  28.663   1.291
10485W        W82811  43.008   6.906  11.996
10486W        W82812  19.039  43.430   1.412
10487W        W82813  43.439  17.232   9.959
10488W        W82814  18.206  40.964  13.438
10489W        W82815  41.976   6.207   1.381
10490W        W82816  12.182  39.060   0.770
10491W        W82817  24.126  42.021  10.571
10492W        W82818  30.061  16.624  11.904
10493W        W82819   8.184  16.642   3.754
10494W        W82820   8.831  25.518  10.922
10495W        W82821  44.453  40.477  13.324
10496W        W82822  44.303   9.872   0.786
10497W        W82823  31.645   3.320   4.270
10498W        W82824  36.048  16.657   2.901
10499W        W82825  33.031  34.970   9.951
10500W        W82826  40.312  29.083   0.750
10501W        W82827  11.357  20.581   4.639
10502W        W82828  14.616  32.942  12.400
10503W        W82829  40.465  32.134  11.923
10504W        W82830  11.223  40.808   2.352
10505W        W82831  39.437  41.422  12.897
10506W        W82832   9.792  25.217  13.430
10507W        W82833  12.651  22.687  12.474
10508W        W82834  40.816  20.651   2.726
10509W        W82835  35.092  13.316  12.563
10510W        W82836  40.474   9.884   2.341
10511W        W82837  10.786  34.436   4.616
10512W        W82838  13.222  28.669   0.909
10513W        W82839   5.879  21.090   3.215
10514W        W82840  11.362  40.939  11.513
10515W        W82841  13.178  42.974  12.475
10516W        W82842  19.126  18.137  12.505
10517W        W82843  40.033   8.195   4.242
10518W        W82844  30.558  40.051   0.321
10519W        W82845  25.193  16.294   5.266
10520W        W82846   3.768  11.200  11.454
10521W        W82847  11.317  40.478   0.370
10522W        W82848  32.996   2.933  14.394
10523W        W82849  44.947   7.252   3.312
10524W        W82850  22.151  24.028  11.942
10525W        W82851   7.773  33.106  13.792
10526W        W82852   4.347  34.038   2.851
10527W        W82853   1.963  44.376  12.858
10528W        W82854  16.630  40.392   3.666
10529W        W82855  14.272  31.476   4.603
10530W        W82856   4.371  44.271  14.953
10531W        W82857   1.438   0.805   1.750
10532W        W82858   6.292  10.829  13.483
10533W        W82859  26.046   4.304  11.940
10534W        W82860  20.272   8.375  12.075
10535W        W82861  39.350   7.378   0.815
10536W        W82862  28.447   5.886  11.097
10537W        W82863  14.618  34.100   3.685
10538W        W82864  22.598  16.580  14.935
10539W        W82865  27.464   4.308  14.379
10540W        W82866   0.864  18.666  14.883
10541W        W82867  37.951  25.683  14.338
10542W        W82868   2.804  25.185   3.284
10543W        W82869  22.097  13.679   0.250
10544W        W82870  20.705   4.900  11.415
10545W        W82871  34.002  26.569  10.942
10546W        W82872  12.853  38.568  10.925
10547W        W82873  16.624  40.022  10.635
10548W        W82874  11.272  17.562  10.634
10549W        W82875   9.848  20.208   0.912
10550W        W82876   0.890  21.663  12.514
10551W        W82877  30.567   0.372   3.270
10552W        W82878  40.410  33.609  11.610
10553W        W82879  42.883   5.339  12.922
10554W        W82880   3.360  22.731   1.828
10555W        W82881  35.933   1.870   1.745
10556W        W82882  21.732  44.347  11.498
10557W        W82883  33.565  44.335   3.207
10558W        W82884  13.249   0.974   3.677
10559W        W82885  28.164  10.185  12.491
10560W        W82886  36.583  23.002   1.842
10561W        W82887  32.496  43.477   3.675
10562W        W82888  40.798  14.735  12.828
10563W        W82889   2.411  27.486   2.356
10564W        W82890  31.490  18.597   3.714
10565W        W82891  24.000  14.673  13.354
10566W        W82892  14.600  42.355  14.355
10567W        W82893  27.672   2.922  13.509
10568W        W82894  31.634  22.236   2.812
10569W        W82895   8.697  43.345  10.529
10570W        W82896  12.305  11.265   3.823
10571W        W82897  18.709  15.682   3.779
10572W        W82898  40.008  36.406   4.164
10573W        W82899  14.614  33.543  11.503
10574W        W82900  10.272  44.762  14.391
10575W        W82901  22.504  16.092   2.882
10576W        W82902  12.338   7.384  11.903
10577W        W82903  40.459  14.735  14.942
10578W        W82904  35.060  10.673   1.810
10579W        W82905  28.563  15.688  11.070
10580W        W82906  35.583  19.233   4.237
10581W        W82907  13.160   1.750  14.484
10582W        W82908  33.493  20.044   2.213
10583W        W82909  12.832   0.369   0.957
10584W        W82910  23.186   1.964  13.945
10585W        W82911  39.347  35.594   1.421
10586W        W82912  39.436  21.608   3.693
10587W        W82913   2.228  33.033   3.814
10588W        W82914  24.591  29.981  12.446
10589W        W82915  35.428   9.159   1.286
10590W        W82916  30.601   9.873   2.321
10591W        W82917  41.374  36.902   1.320
10592W        W82918  28.678  33.466  13.830
10593W        W82919  22.691   2.799  12.998
10594W        W82920  24.624  26.651  12.342
10595W        W82921  22.142  40.023   3.147
10596W        W82922  28.581  30.542  11.956
10597W        W82923  40.318  22.085  10.543
10598W        W82924  34.534   4.708   3.308
10599W        W82925  10.693   4.291  13.836
10600W        W82926  33.447  10.745   1.818
10601W        W82927  39.317  38.467  12.347
10602W        W82928   1.951   6.701   1.247
10603W        W82929  20.032  31.940  10.625
10604W        W82930  39.849  27.089   1.309
10605W        W82931  39.354  40.039   3.233
10606W        W82932  39.048  14.242  13.545
10607W        W82933  23.158  29.976  10.473
10608W        W82934   2.764  32.090   3.630
10609W        W82935   1.247  39.834  14.898
10610W        W82936  23.054  42.444  12.835
10611W        W82937  36.486  38.445  14.018
10612W        W82938  37.367   8.236   2.748
10613W        W82939  44.336  30.952  14.443
10614W        W82940  19.175  14.806   2.180
10615W        W82941  22.681  30.517   1.733
10616W        W82942  27.141  35.028  11.507
10617W        W82943   6.254  32.609   3.801
10618W        W82944  13.169   5.322  10.626
10619W        W82945  10.677  10.257   4.617
10620W        W82946  29.089  24.568   4.642
10621W        W82947  30.558   1.322  12.467
10622W        W82948  39.883  34.517   1.443
10623W        W82949  16.704  27.034  14.894
10624W        W82950  12.175   1.469   2.230
10625W        W82951  38.959  12.670  10.537
10626W        W82952   0.869  32.633  12.348
10627W        W82953   8.325   1.371  10.547
10628W        W82954  34.439  30.981   2.856
10629W        W82955  43.774  34.112   4.308
10630W        W82956  10.712  13.272   1.893
10631W        W82957  21.258  32.034  12.365
10632W        W82958  23.216  11.199   2.387
10633W        W82959   3.253  26.186   4.653
10634W        W82960  14.683  13.298   4.629
10635W        W82961  28.528  44.411  11.021
10636W        W82962  28.118   7.794  12.428
10637W        W82963  10.645  20.178  13.814
10638W        W82964  36.024   4.766   3.256
10639W        W82965  16.095  41.912   3.673
10640W        W82966  43.427  37.364   4.723
10641W        W82967  29.434  11.204  14.859
10642W        W82968  36.947   1.890   2.273
10643W        W82969  34.021  14.825  14.001
10644W        W82970  40.841  16.762   0.335
10645W        W82971  20.220  28.435   2.877
10646W        W82972  35.928  13.772   1.407
10647W        W82973  11.202  25.207   5.104
10648W        W82974  17.555  28.059   1.818
10649W        W82975   4.204  12.333   4.648
10650W        W82976  23.585   7.293   1.425
10651W        W82977   0.828  27.107  10.551
10652W        W82978  14.767   9.299   3.646
10653W        W82979  35.453  15.272   3.755
10654W        W82980  33.115  41.429  10.496
10655W        W82981  34.065  23.677  12.946
10656W        W82982  28.600  19.647  12.854
10657W        W82983  31.960   8.779   3.770
10658W        W82984   4.920  12.757  10.411
10659W        W82985  13.151   7.718  13.889
10660W        W82986  19.073  25.009   0.323
10661W        W82987  29.534  29.090  11.934
10662W        W82988  31.934  22.559   1.750
10663W        W82989  20.732  20.043  12.981
10664W        W82990  37.917   3.435   4.139
10665W        W82991  10.816  27.182   4.338
10666W        W82992  18.568   1.381   3.852
10667W        W82993  23.067  19.067  11.099
10668W        W82994  25.057  44.876   3.292
10669W        W82995  33.091  14.766   2.276
10670W        W82996  13.241   2.411  14.389
10671W        W82997  33.992   5.695  13.034
10672W        W82998   2.372  20.115  10.634
10673W        W82999  32.569   0.838  14.825
10674W        W83000  14.763  26.027   3.835
10675W        W83001  36.925  37.021  12.969
10676W        W83002  30.492  10.276   9.925
10677W        W83003   8.713  41.302  13.862
10678W        W83004  38.559   9.747  14.370
10679W        W83005  43.411  29.500   4.341
10680W        W83006  32.941   9.304   2.836
10681W        W83007   3.874  18.709  11.375
10682W        W83008  38.927  37.501   4.309
10683W        W83009  16.665  23.523   1.429
10684W        W83010  24.136  23.620  13.501
10685W        W83011  13.664  43.789   4.780
10686W        W83012  21.084  37.382   0.772
10687W        W83013   6.197  32.616   3.329
10688W        W83014   3.231  41.475   4.260
10689W        W83015  41.035  38.538   3.360
10690W        W83016  21.580  35.428   0.423
10691W        W83017  29.530  31.019   3.385
10692W        W83018  27.620  38.833   2.349
10693W        W83019   1.345   6.399   3.252
10694W        W83020  15.644  38.502   2.858
10695W        W83021  18.604  35.894   2.864
10696W        W83022   8.240  39.918   2.903
10697W        W83023  10.380  21.703   1.891
10698W        W83024  36.464  39.376   4.326
10699W        W83025   3.368  39.512  11.884
10700W        W83026  26.638  26.560   2.864
10701W        W83027   3.217   3.450   1.224
10702W        W83028  32.394  12.139  14.505
10703W        W83029  41.313  37.841  10.909
10704W        W83030  26.187  43.486  13.797
10705W        W83031  38.438  36.853  13.973
10706W        W83032   3.757  26.187   4.756
10707W        W83033  40.961  29.997  11.868
10708W        W83034  23.081  28.150   0.791
10709W        W83035  22.684   8.169   0.400
10710W        W83036  13.284   8.815   2.811
10711W        W83037  28.481  10.816   1.387
10712W        W83038   8.816  31.517   3.175
10713W        W83039  33.440  27.107  14.804
10714W        W83040  15.737  29.436   2.278
10715W        W83041  24.552  39.336  11.530
10716W        W83042  40.435  26.148  11.029
10717W        W83043  22.701  15.280  14.294
10718W        W83044   3.777  16.685  14.378
10719W        W83045   5.733  11.302  13.956
10720W        W83046  14.596  38.906  13.345
10721W        W83047  35.424  24.546  14.818
10722W        W83048  18.620  34.939  13.870
10723W        W83049  20.249  36.878  14.799
10724W        W83050  22.732  24.072   1.397
10725W        W83051  28.936  10.358   4.280
10726W        W83052  34.397   6.326   2.854
10727W        W83053   5.203  13.192   2.810
10728W        W83054   4.804  12.219  13.855
10729W        W83055  29.615   0.260  11.936
10730W        W83056   7.668  10.238  12.577
10731W        W83057  40.496   0.747   0.833
10732W        W83058  10.647  23.516  10.422
10733W        W83059  38.070  32.557  13.932
10734W        W83060  41.001  11.851   4.262
10735W        W83061  10.347  39.952   4.175
10736W        W83062  15.180  26.651   3.804
10737W        W83063   2.386   5.720  11.917
10738W        W83064   9.890  19.751   1.227
10739W        W83065   3.243   4.369  14.279
10740W        W83066  40.457  16.635   0.825
10741W        W83067   4.900  33.916  13.929
10742W        W83068  22.173   1.875  11.861
10743W        W83069   1.758  26.100   3.386
10744W        W83070   8.787  18.091  12.039
10745W        W83071  29.107  14.106   1.734
10746W        W83072   1.470  29.563   0.251
10747W        W83073  11.177  24.624  12.569
10748W        W83074  32.913  39.543  11.904
10749W        W83075  24.216  23.522  10.462
10750W        W83076  41.894  21.737   3.668
10751W        W83077  32.935   2.280  14.963
10752W        W83078  16.076  35.431   4.251
10753W        W83079  31.454   1.408   1.930
10754W        W83080  43.486   4.338  13.044
10755W        W83081  35.461  41.418   4.679
10756W        W83082  19.283  37.001  14.930
10757W        W83083   8.749  10.672  13.836
10758W        W83084   8.838  40.017   3.662
10759W        W83085   7.734   4.350   2.180
10760W        W83086  24.036  15.651   2.783
10761W        W83087   6.404  32.944  11.089
10762W        W83088  20.189  18.182  14.291
10763W        W83089  19.546  43.367   4.323
10764W        W83090  31.102  17.087  13.531
10765W        W83091  40.503  25.593  14.780
10766W        W83092  12.245  40.003  13.989
10767W        W83093  25.201   6.192  13.035
10768W        W83094  17.184  31.112   1.424
10769W        W83095  23.555   6.837   2.784
10770W        W83096  18.726  36.494   3.257
10771W        W83097  26.584   8.162   1.266
10772W        W83098  22.637  22.205   0.747
10773W        W83099  19.220   9.166  12.546
10774W        W83100  25.649  15.822   4.646
10775W        W83101  29.551  37.466  12.420
10776W        W83102   9.772  33.908   1.320
10777W        W83103  22.618  30.137  11.400
10778W        W83104  15.125  37.058   4.242
10779W        W83105  15.596  36.053  13.005
10780W        W83106  13.738  17.590  14.308
10781W        W83107  43.288   7.875  13.895
10782W        W83108  11.204  38.861  13.530
10783W        W83109  10.827  10.348   0.255
10784W        W83110  30.133  36.408  14.013
10785W        W83111  10.642   0.423  11.391
10786W        W83112  13.721  43.883  13.994
10787W        W83113  19.261  37.398  13.458
10788W        W83114  19.746   2.753   0.863
10789W        W83115   9.869  27.013  11.029
10790W        W83116   7.760  13.722   2.830
10791W        W83117  27.516  40.327   2.388
10792W        W83118  17.286  21.154  12.853
10793W        W83119  39.913  10.271  13.839
10794W        W83120  10.660  15.169  11.438
10795W        W83121  42.831  33.041  12.834
10796W        W83122  38.053  41.892  14.919
10797W        W83123  14.330  21.234  11.894
10798W        W83124  34.006  18.229   2.878
10799W        W83125  33.606  40.805   1.755
10800W        W83126  10.722  28.677   2.708
10801W        W83127  16.589   5.200   4.327
10802W        W83128  18.727  33.574   0.776
10803W        W83129  23.236   3.773   1.924
10804W        W83130   9.836  26.466   1.399
10805W        W83131  20.126  35.988  10.102
10806W        W83132  14.287  11.858  13.956
10807W        W83133  33.005  10.341  12.866
10808W        W83134  11.689  35.386  10.489
10809W        W83135  23.221   4.803   4.602
10810W        W83136  38.062  35.514   1.305
10811W        W83137   8.179  16.710   3.316
10812W        W83138  26.695  24.552   3.690
10813W        W83139  44.329  31.150   1.433
10814W        W83140  30.625  19.594   2.700
10815W        W83141   9.823  30.452   0.856
10816W        W83142  12.688  28.964   4.654
10817W        W83143   5.790   3.298   4.837
10818W        W83144  38.852  29.489   2.309
10819W        W83145   3.823   5.316  11.500
10820W        W83146  40.877  39.905   4.266
10821W        W83147  13.289  18.274  11.938
10822W        W83148  24.224  34.864   3.167
10823W        W83149  20.541   3.744  14.377
10824W        W83150  22.557  27.948   1.388
10825W        W83151  36.592   7.809   3.261
10826W        W83152  32.615  29.028  12.831
10827W        W83153  40.320  26.495  11.515
10828W        W83154  12.662  44.353  10.590
10829W        W83155  33.539  18.577  10.580
10830W        W83156  13.615  24.623  13.443
10831W        W83157  17.711  42.507   2.365
10832W        W83158  44.902  35.911  13.328
10833W        W83159  16.132  16.612  13.831
10834W        W83160  44.821  18.089   2.239
10835W        W83161   0.326  34.556  10.558
10836W        W83162  36.929  30.140  12.027
10837W        W83163  42.872  13.210   2.397
10838W        W83164  39.870  11.373   1.793
10839W        W83165  32.496   0.832   4.221
10840W        W83166  31.632   0.899   0.941
10841W        W83167  11.297  19.629   0.794
10842W        W83168  30.455  36.438   3.811
10843W        W83169  15.818  13.768   0.480
10844W        W83170  26.535  44.783   4.741
10845W        W83171   2.779  13.237  10.147
10846W        W83172  43.395  22.072   3.691
10847W        W83173  32.571  44.869  10.591
10848W        W83174   7.874   1.943   4.130
10849W        W83175  10.770  10.702   4.308
10850W        W83176  39.492  18.661  13.852
10851W        W83177  32.976  35.375   5.643
10852W        W83178  21.567  33.009  14.884
10853W        W83179  43.004  33.952   4.283
10854W        W83180  32.009  30.956   1.917
10855W        W83181   8.744  15.793  14.984
10856W        W83182  31.519  27.567   3.297
10857W        W83183  15.785   2.317  10.898
10858W        W83184  39.820   7.383   2.233
10859W        W83185  31.898  21.653  12.982
10860W        W83186  12.216  10.281  13.459
10861W        W83187  13.191  40.968  12.037
10862W        W83188  25.052  14.608  12.361
10863W        W83189  37.518  36.976  11.382
10864W        W83190  38.947   6.385   0.426
10865W        W83191  27.656  26.141   2.372
10866W        W83192  18.759   4.801   4.244
10867W        W83193  33.022  41.833  12.073
10868W        W83194   5.873   1.415  12.495
10869W        W83195  44.468   0.328  12.841
10870W        W83196  24.117  26.675  11.930
10871W        W83197   7.391  11.743   2.321
10872W        W83198   6.686  12.843   3.228
10873W        W83199  44.363  36.569  11.456
10874W        W83200  13.601  11.828   2.663
10875W        W83201  31.506  25.557   0.949
10876W        W83202  21.068  28.955  11.071
10877W        W83203  44.838  15.243  10.912
10878W        W83204  42.335  28.504  14.957
10879W        W83205  36.566   9.742  10.460
10880W        W83206  25.568  17.708  13.312
10881W        W83207  27.951   3.326  13.452
10882W        W83208  21.053  27.485  13.916
10883W        W83209   9.244  24.161   4.724
10884W        W83210  43.285  39.510  11.500
10885W        W83211  10.674  25.124  13.816
10886W        W83212  24.682  21.653  10.976
10887W        W83213  29.551  17.099   0.936
10888W        W83214   8.773  23.173   2.273
10889W        W83215  24.662   3.877   1.317
10890W        W83216  20.132  14.168   3.656
10891W        W83217  20.554  14.789   4.769
10892W        W83218  34.484   2.388  14.020
10893W        W83219  22.544  32.894  10.146
10894W        W83220  16.624  21.569   4.325
10895W        W83221   3.344  36.417  13.441
10896W        W83222  24.621  35.863   3.253
10897W        W83223  19.156  43.953  10.640
10898W        W83224  19.161  31.107   2.344
10899W        W83225  31.425  43.301  11.123
10900W        W83226   0.948  44.445  14.310
10901W        W83227  30.126  39.910  11.474
10902W        W83228   1.839  35.017   3.714
10903W        W83229   4.249  42.798  13.450
10904W        W83230  42.367  25.475   4.264
10905W        W83231  23.006  30.643   0.270
10906W        W83232  30.939  44.923  11.548
10907W        W83233  33.973  44.791  10.479
10908W        W83234  28.143   3.866   2.764
10909W        W83235  43.458   0.451  11.034
10910W        W83236  32.950  39.003   0.802
10911W        W83237  22.644  24.152  12.474
10912W        W83238  43.948   2.378  13.451
10913W        W83239  14.687  35.489   4.705
10914W        W83240  31.135  13.733   3.175
10915W        W83241  18.141  21.538   0.437
10916W        W83242   0.257  28.640   1.317
10917W        W83243  27.681  29.433  10.537
10918W        W83244  31.029  28.179   0.389
10919W        W83245  32.137  26.149   2.740
10920W        W83246  11.148  22.591   4.170
10921W        W83247   1.346  36.536   0.308
10922W        W83248  26.499   7.243   1.715
10923W        W83249  11.657  43.456  14.435
10924W        W83250  39.417  18.242  13.848
10925W        W83251  20.637  35.912   4.645
10926W        W83252  25.975  38.843   2.317
10927W        W83253   8.263  10.827   0.440
10928W        W83254  30.614  18.222   4.288
10929W        W83255  21.578  16.805  12.396
10930W        W83256  34.562  15.170   0.963
10931W        W83257   0.312  33.948   2.852
10932W        W83258   5.244  23.653  10.428
10933W        W83259  19.095  21.209   1.806
10934W        W83260   1.778  19.152   0.355
10935W        W83261  33.573  41.320  10.141
10936W        W83262  37.451  29.568   4.306
10937W        W83263   8.884  43.348  12.969
10938W        W83264   7.839  28.153  11.588
10939W        W83265  44.305  25.523   3.264
10940W        W83266  40.023  14.802   0.906
10941W        W83267   5.781   8.387  13.873
10942W        W83268  40.814  16.576   2.799
10943W        W83269  37.086  12.830  14.932
10944W        W83270  17.254   5.795   4.315
10945W        W83271  12.153  44.460   3.664
10946W        W83272  23.516  31.995  13.030
10947W        W83273   4.224  40.952   2.711
10948W        W83274  10.337  25.552   3.758
10949W        W83275  23.671  39.859  11.441
10950W        W83276   4.833  44.372   3.215
10951W        W83277   8.214  17.268  13.041
10952W        W83278  22.240  41.354   0.297
10953W        W83279  42.908   2.459  13.309
10954W        W83280   0.290  44.804   0.871
10955W        W83281  40.481  30.084  12.907
10956W        W83282  18.195  29.955   0.749
10957W        W83283  13.747  34.953   3.350
10958W        W83284   2.319  41.436   0.409
10959W        W83285  23.614  40.863  14.762
10960W        W83286  28.443  23.578  14.391
10961W        W83287  24.091  44.315  14.404
10962W        W83288  32.896  27.566   0.958
10963W        W83289  11.679  32.517   2.375
10964W        W83290  35.984   5.911   2.417
10965W        W83291  31.120   5.418  11.050
10966W        W83292  12.682  44.855  14.000
10967W        W83293   8.400   3.840  12.376
10968W        W83294  31.003  22.588  10.131
10969W        W83295  33.962  40.882  13.876
10970W        W83296   8.732  34.580  11.533
10971W        W83297  38.550  14.697  10.994
10972W        W83298  19.256  15.790   4.120
10973W        W83299  39.433  20.064   3.312
10974W        W83300  36.462  22.549  10.492
10975W        W83301  19.140  15.647  13.843
10976W        W83302  41.964  30.644   1.883
10977W        W83303   5.895  32.889  13.484
10978W        W83304   5.296   3.825   0.876
10979W        W83305  28.602  17.113   4.753
10980W        W83306  26.630  28.125  12.898
10981W        W83307  12.344  17.666   1.258
10982W        W83308  41.524   2.396   2.400
10983W        W83309  21.516  34.446  14.282
10984W        W83310  27.647  25.116  10.998
10985W        W83311  32.055  42.858   5.123
10986W        W83312  12.168  17.283   3.638
10987W        W83313   5.247  14.681   2.302
10988W        W83314  44.830  28.581   0.778
10989W        W83315   7.305  41.354  10.959
10990W        W83316  26.542  10.306  14.842
10991W        W83317  44.291   7.311  13.502
10992W        W83318  25.637  26.506  11.098
10993W        W83319  41.535  29.451   0.249
10994W        W83320   1.765  41.294   4.217
10995W        W83321  27.670  16.639   2.689
10996W        W83322  37.837  34.105  10.889
10997W        W83323  42.459  21.200   0.333
10998W        W83324  25.025  24.030  14.464
10999W        W83325  22.544  32.512   0.310
11000W        W83326  13.228  16.680  11.576
11001W        W83327  19.189   2.447   1.828
11002W        W83328  34.599  11.278  13.327
11003W        W83329   9.391  25.095  12.941
11004W        W83330  10.675   1.326  13.009
11005W        W83331  24.072  30.598   3.152
11006W        W83332   5.373  23.572   4.351
11007W        W83333   0.463  25.588   3.781
11008W        W83334   5.313  35.006   2.827
11009W        W83335  12.271  40.010   3.791
11010W        W83336   0.384  17.747   2.897
11011W        W83337  31.476   8.676   4.662
11012W        W83338   5.871  42.929   3.373
11013W        W83339  43.979  11.148   0.795
11014W        W83340  12.323   8.752  10.921
11015W        W83341  26.964   9.696   1.445
11016W        W83342  31.926  33.025  14.409
11017W        W83343  38.890  15.763   2.300
11018W        W83344   1.279  43.954   1.445
11019W        W83345   2.436  18.622  11.481
11020W        W83346  33.533  11.238  10.472
11021W        W83347   0.758   7.876  10.935
11022W        W83348   5.782  31.584  13.462
11023W        W83349  37.903  43.777   4.836
11024W        W83350  34.421  42.852  11.109
11025W        W83351   0.887  29.078   0.317
11026W        W83352  13.674  11.829   2.193
11027W        W83353  20.192  25.194   0.442
11028W        W83354  18.633  13.624  10.487
11029W        W83355   8.830  12.179   1.917
11030W        W83356  31.435   8.304   4.742
11031W        W83357  21.222  28.047   4.181
11032W        W83358   3.750  33.487   3.719
11033W        W83359  25.681  13.135  11.114
11034W        W83360  39.832  21.246   4.151
11035W        W83361  21.113  29.055   2.216
11036W        W83362   5.724  22.027  12.382
11037W        W83363  16.104   2.369   1.317
11038W        W83364  37.081   9.260  11.391
11039W        W83365   5.395  38.530   1.271
11040W        W83366  31.538   5.855   4.258
11041W        W83367  28.536  20.193  12.406
11042W        W83368  26.990  38.417  13.010
11043W        W83369  34.037  25.507   4.725
11044W        W83370  40.054   4.754   1.373
11045W        W83371   0.788  31.459   1.836
11046W        W83372   7.264  43.849  12.975
11047W        W83373  10.374  36.493  11.499
11048W        W83374  11.348  41.985  14.283
11049W        W83375  36.905  19.126   1.397
11050W        W83376  13.281  23.201   3.657
11051W        W83377  33.565  31.083   0.293
11052W        W83378  34.384   3.904  14.920
11053W        W83379  32.030  36.092   3.658
11054W        W83380   7.802   9.179  11.605
11055W        W83381  21.720  43.472   4.158
11056W        W83382   0.747  33.949   4.283
11057W        W83383  40.388  11.699   4.193
11058W        W83384  25.655  30.002  14.449
11059W        W83385  16.762  35.599  14.883
11060W        W83386  31.056  26.207  11.944
11061W        W83387  11.234  39.909   0.888
11062W        W83388   7.722  11.151  12.370
11063W        W83389  42.886  42.438  14.296
11064W        W83390  37.553   8.189   0.364
11065W        W83391  15.254   9.722  11.554
11066W        W83392   5.241  23.653   3.739
11067W        W83393  43.429  20.686   2.278
11068W        W83394  41.375  39.896   2.859
11069W        W83395  36.414  10.238   1.353
11070W        W83396  28.016   8.358  13.920
11071W        W83397   2.897   6.728  13.308
11072W        W83398  27.177  27.979  14.822
11073W        W83399   5.710  40.494  13.890
11074W        W83400  39.509  24.517  13.372
11075W        W83401  32.052   7.321   4.195
11076W        W83402  27.073   3.715   0.315
11077W        W83403  13.782  23.708  12.919
11078W        W83404  37.481  42.472   3.363
11079W        W83405  21.190  13.844   1.386
11080W        W83406  30.633  30.950   2.725
11081W        W83407  20.150  20.052   0.953
11082W        W83408  12.843   5.901  14.866
11083W        W83409   2.960  22.726   3.315
11084W        W83410   7.714  25.711  13.395
11085W        W83411  32.594  38.028  12.577
11086W        W83412   0.935  32.612   3.664
11087W        W83413  20.271   2.301  11.900
11088W        W83414  21.208  18.085   0.918
11089W        W83415  26.637   5.264   3.337
11090W        W83416  30.458  13.661  13.427
11091W        W83417   8.751  41.419  14.311
11092W        W83418  16.793   5.707  12.896
11093W        W83419  22.577  26.986   4.605
11094W        W83420   1.834   4.877  13.508
11095W        W83421  16.652  33.988  10.954
11096W        W83422  14.123  26.683  14.475
11097W        W83423  37.085  15.276  13.449
11098W        W83424  26.195  27.527   4.785
11099W        W83425   5.383  10.751   3.768
11100W        W83426   3.915  35.432   2.789
11101W        W83427  41.337   0.807   2.848
11102W        W83428   5.354  12.255  10.456
11103W        W83429  25.050  23.647   4.679
11104W        W83430  10.210  24.670  14.988
11105W        W83431  35.037   2.439   2.874
11106W        W83432  22.513   8.837  10.472
11107W        W83433  15.740  27.110   4.152
11108W        W83434  24.636  13.691   0.913
11109W        W83435  18.169  35.865   2.797
11110W        W83436  11.225   9.233   2.836
11111W        W83437  35.023   3.345   0.410
11112W        W83438  21.172  36.087  10.592
11113W        W83439  41.500  22.590   2.191
11114W        W83440  40.371  15.650  10.548
11115W        W83441  34.022  28.984  12.485
11116W        W83442  41.930  31.648  11.576
11117W        W83443  38.021  29.094   3.866
11118W        W83444  41.366  15.816   1.920
11119W        W83445  22.609  20.628  12.055
11120W        W83446  24.693  40.517  12.502
11121W        W83447   0.267  20.061  12.558
11122W        W83448  13.697  36.561  10.626
11123W        W83449  22.019  16.290   4.737
11124W        W83450  18.628  11.685   2.903
11125W        W83451   5.261  18.272  10.412
11126W        W83452   5.893  17.194  10.970
11127W        W83453  10.280  18.781   4.233
11128W        W83454  19.282  41.354  14.500
11129W        W83455   0.274  29.942  13.381
11130W        W83456   7.254   2.454  12.958
11131W        W83457  34.431  39.342   4.263
11132W        W83458  13.708  41.891   2.853
11133W        W83459   3.810  22.161   4.208
11134W        W83460  30.634  41.811  11.045
11135W        W83461  26.652  20.636  11.048
11136W        W83462   5.367  18.760   1.241
11137W        W83463  13.178   7.801  11.413
11138W        W83464  34.578  33.129   2.391
11139W        W83465   4.776  11.176  11.496
11140W        W83466  21.543  39.030   0.455
11141W        W83467  41.838  39.504  13.493
11142W        W83468  41.451  36.909   3.234
11143W        W83469   7.769  26.201   4.810
11144W        W83470  21.540  26.516   0.411
11145W        W83471  15.252  15.117   4.782
11146W        W83472   5.696  37.465  10.923
11147W        W83473  40.308  31.489  11.481
11148W        W83474  16.604   4.306   4.115
11149W        W83475  21.594  12.237  11.420
11150W        W83476  17.236  37.461   3.365
11151W        W83477  13.637   3.414   3.241
11152W        W83478   6.690  23.170   2.736
11153W        W83479  22.606   0.902   4.333
11154W        W83480   5.812  42.999   2.229
11155W        W83481   7.204   4.805  14.970
11156W        W83482  35.881  37.570   1.356
11157W        W83483  27.514  11.285   4.776
11158W        W83484   8.163  41.386  13.914
11159W        W83485   8.284  39.427   3.672
11160W        W83486  39.415  18.216  11.955
11161W        W83487  36.392  15.776   4.217
11162W        W83488  43.972   1.750  11.074
11163W        W83489  20.044  16.657  12.515
11164W        W83490  45.000  31.980   0.422
11165W        W83491  34.030  37.383  12.404
11166W        W83492  32.053  22.212   3.187
11167W        W83493  30.484  12.825   4.805
11168W        W83494  25.523  40.532  11.008
11169W        W83495  21.537   5.817   0.351
11170W        W83496  29.018  36.069  11.522
11171W        W83497  24.226  19.764   3.635
11172W        W83498  12.172  32.508  11.555
11173W        W83499  30.586  32.625   4.637
11174W        W83500  32.525  22.674   4.676
11175W        W83501  37.451  10.322   4.749
11176W        W83502  16.139  27.962  13.866
11177W        W83503  42.882  32.008  13.834
11178W        W83504  40.028   6.852   1.298
11179W        W83505  17.191  36.524  11.404
11180W        W83506  27.448  12.801   3.307
11181W        W83507  31.617  21.597   3.632
11182W        W83508  34.042  28.035  12.523
11183W        W83509  27.974  23.544   4.206
11184W        W83510  25.021  40.502   2.865
11185W        W83511   0.816  36.984   3.367
11186W        W83512  11.633  10.768  11.910
11187W        W83513   2.279  17.106  13.356
11188W        W83514   0.766  33.952   0.451
11189W        W83515  17.641  42.960   2.332
11190W        W83516  26.628  41.888   1.902
11191W        W83517  32.479  41.386   4.655
11192W        W83518  41.984  34.024  11.070
11193W        W83519  13.325  38.872   4.739
11194W        W83520   9.696  37.961  14.003
11195W        W83521  29.577  13.812  10.431
11196W        W83522  11.850   9.684  10.944
11197W        W83523  42.889   4.943   3.313
11198W        W83524   5.393  43.310  14.864
11199W        W83525  22.032  23.518   1.228
11200W        W83526  12.611  39.935   3.162
11201W        W83527  44.344  39.342  11.880
11202W        W83528  33.108  18.768   2.281
11203W        W83529   3.841   5.758  11.565
11204W        W83530  31.994   6.680  12.060
11205W        W83531  26.022   5.394   3.215
11206W        W83532  22.650   7.748  10.074
11207W        W83533  17.267   4.442   4.237
11208W        W83534  36.985  28.459  12.552
11209W        W83535   7.313  30.127   2.902
11210W        W83536  10.351  20.247  13.923
11211W        W83537  12.255  15.784   4.268
11212W        W83538  41.945  14.711  11.476
11213W        W83539  44.934  36.044  14.797
11214W        W83540  19.124   9.148   4.350
11215W        W83541  33.435  36.894   4.286
11216W        W83542  18.562   0.974  12.995
11217W        W83543  30.988  31.106  12.409
11218W        W83544  29.647   5.321   2.701
11219W        W83545   5.835  14.236  13.933
11220W        W83546  29.160  10.874   3.739
11221W        W83547  20.608  15.679   2.833
11222W        W83548  32.469  18.707  14.514
11223W        W83549  43.882  27.524   3.652
11224W        W83550  25.029  33.443   2.776
11225W        W83551  31.414   8.202   3.203
11226W        W83552  34.069  10.788  14.435
11227W        W83553   0.915  18.551   0.927
11228W        W83554  17.648   0.340  13.528
11229W        W83555  23.139  16.089  11.530
11230W        W83556  40.498   5.816  13.859
11231W        W83557  15.686   6.751  11.128
11232W        W83558  41.292  43.332  11.435
11233W        W83559  44.969  17.174   2.667
11234W        W83560  38.862  14.749   0.756
11235W        W83561   7.251  29.945  14.392
11236W        W83562  11.357  14.206  13.801
11237W        W83563   9.165  38.857  14.813
11238W        W83564   2.278  39.478  13.334
11239W        W83565  19.159  25.615  11.377
11240W        W83566  31.017  26.672   4.630
11241W        W83567  12.184  23.574   2.665
11242W        W83568   4.766  33.535   3.795
11243W        W83569   1.450  37.862   1.784
11244W        W83570   1.455   5.895   0.359
11245W        W83571  21.723  30.464  14.318
11246W        W83572  31.512  40.947   4.194
11247W        W83573  30.423  19.541  13.357
11248W        W83574  12.260  23.051   0.821
11249W        W83575  15.164  34.902  10.513
11250W        W83576  25.022  32.432  13.442
11251W        W83577  15.691  16.713   1.281
11252W        W83578  14.205  28.534   3.278
11253W        W83579  25.500  30.430   3.327
11254W        W83580   3.355  39.338  11.048
11255W        W83581  37.887  42.873   3.262
11256W        W83582  44.801  41.027   2.192
11257W        W83583   5.251   7.392   3.690
11258W        W83584  10.680  18.576  10.612
11259W        W83585  35.514  31.431   0.457
11260W        W83586  20.159  25.071   4.743
11261W        W83587  37.058  17.191   2.788
11262W        W83588  10.255  14.620   2.348
11263W        W83589  24.169   5.808   3.797
11264W        W83590  25.480  35.371  14.833
11265W        W83591  43.409  23.068  11.064
11266W        W83592  22.669  31.904  13.012
11267W        W83593  41.981  12.262   3.794
11268W        W83594  34.881  33.905   2.763
11269W        W83595  12.322  17.092   2.676
11270W        W83596  21.707   2.863   1.840
11271W        W83597  23.085  38.379   0.244
11272W        W83598  30.927  31.647   4.234
11273W        W83599   5.307  34.007  13.528
11274W        W83600  33.967  21.059   2.282
11275W        W83601  41.821  44.781  13.505
11276W        W83602  37.577  26.495  14.790
11277W        W83603  13.633  42.282   3.811
11278W        W83604  39.037  24.154  13.500
11279W        W83605  37.546  41.423   0.898
11280W        W83606   4.746  19.723   3.727
11281W        W83607   0.277  21.074   1.845
11282W        W83608  10.203  41.958  14.934
11283W        W83609  41.363  41.532  11.961
11284W        W83610  34.019   2.322  13.833
11285W        W83611  37.987  31.123  11.609
11286W        W83612  41.484   8.298   4.202
11287W        W83613  39.364  10.863   9.572
11288W        W83614  30.431  24.651   0.417
11289W        W83615  12.164  43.303  11.511
11290W        W83616  24.133  10.825   4.653
11291W        W83617  36.549  39.979   3.357
11292W        W83618   1.353  38.433  11.950
11293W        W83619  14.253  18.075   3.206
11294W        W83620  36.372  22.070   2.793
11295W        W83621   2.742   4.388   3.729
11296W        W83622   7.756  42.313   2.825
11297W        W83623  22.146  12.677   3.187
11298W        W83624  18.664  18.614  11.895
11299W        W83625  20.254  19.552   4.754
11300W        W83626  15.679  40.037   1.759
11301W        W83627  22.595  39.949   0.242
11302W        W83628  22.213  27.617   4.706
11303W        W83629  25.046  10.762  11.063
11304W        W83630   4.291  21.575  12.528
11305W        W83631   0.492  38.522  12.009
11306W        W83632  41.903  26.473  12.974
11307W        W83633   2.893  22.560   1.334
11308W        W83634   0.248   7.909   0.411
11309W        W83635  26.974  20.260  11.554
11310W        W83636   7.872  23.104   4.768
11311W        W83637  35.966  36.856   2.845
11312W        W83638   3.271  15.241   0.412
11313W        W83639  19.174   8.220  11.498
11314W        W83640  44.811  44.898   3.671
11315W        W83641  34.577  28.599   2.188
11316W        W83642  16.276  25.539  11.575
11317W        W83643  39.488   9.668  14.784
11318W        W83644   5.693  11.748   3.800
11319W        W83645   0.888  27.151   2.188
11320W        W83646  20.621  24.561   4.828
11321W        W83647   1.349   6.219   1.812
11322W        W83648  25.470   4.746  14.912
11323W        W83649  34.867  19.710   2.871
11324W        W83650  29.973   3.925  12.897
11325W        W83651  44.408  11.189   1.289
11326W        W83652  43.322   3.251  12.457
11327W        W83653  14.320  39.362   4.632
11328W        W83654  19.158  15.206   4.673
11329W        W83655   4.228   1.238   3.317
11330W        W83656  44.784  32.073  12.040
11331W        W83657  17.293   3.896   0.362
11332W        W83658   1.867  34.370  13.017
11333W        W83659   5.931  10.270   0.955
11334W        W83660  43.857  28.076  11.863
11335W        W83661  34.088  24.574   2.900
11336W        W83662   9.373  12.328  11.479
11337W        W83663  29.099  43.354   3.370
11338W        W83664  41.866   6.802  13.442
11339W        W83665  17.275  15.137   3.742
11340W        W83666  32.464  13.730   2.286
11341W        W83667   4.379  11.262   2.798
11342W        W83668  44.441   7.194  11.999
11343W        W83669  31.421   0.491  11.601
11344W        W83670  41.486  14.197  11.518
11345W        W83671  12.761  28.567  14.028
11346W        W83672  39.482  15.230  11.560
11347W        W83673  27.954  40.426  10.517
11348W        W83674   0.360  39.065  10.949
11349W        W83675  26.957  39.393  14.415
11350W        W83676  28.145  38.547  14.917
11351W        W83677  11.368  44.969   2.802
11352W        W83678  26.521  33.898   0.751
11353W        W83679  43.983  15.798  13.911
11354W        W83680  19.725   5.856  13.938
11355W        W83681   0.344  20.561  14.408
11356W        W83682   9.655  37.544   2.858
11357W        W83683  44.496  28.514   4.826
11358W        W83684   8.793  10.309  12.011
11359W        W83685  41.846  44.397   4.188
11360W        W83686  27.951  31.462  11.401
11361W        W83687  30.925  24.193   4.241
11362W        W83688  27.603  20.651   4.758
11363W        W83689  35.382  28.632   3.821
11364W        W83690  30.115   6.277   0.804
11365W        W83691  19.272  42.344   0.400
11366W        W83692  18.245  19.618  12.858
11367W        W83693  44.356  42.902   1.876
11368W        W83694  44.840  25.649   2.263
11369W        W83695  16.631  32.400  13.379
11370W        W83696  26.179  26.509  13.933
11371W        W83697  11.190   0.897  13.029
11372W        W83698   1.883  24.677  14.835
11373W        W83699  25.086   3.276   1.837
11374W        W83700   2.868  18.139   4.712
11375W        W83701  29.138  24.201  11.960
11376W        W83702  12.297  27.531   9.443
11377W        W83703   6.710  33.113  14.934
11378W        W83704   7.871  42.458   4.330
11379W        W83705  43.775  11.371  10.445
11380W        W83706  21.049  10.253   0.380
11381W        W83707  13.766  41.803   4.642
11382W        W83708  22.006  11.272  13.972
11383W        W83709  19.749  30.445   2.323
11384W        W83710  36.989  12.275  10.956
11385W        W83711  14.822  22.113  10.513
11386W        W83712  29.653  35.092   3.641
11387W        W83713  16.251  29.107  10.452
11388W        W83714  17.167   8.778  11.591
11389W        W83715  19.063  39.810  13.020
11390W        W83716  33.902  13.834   3.267
11391W        W83717  11.223   1.361   1.249
11392W        W83718  31.566   9.261  11.406
11393W        W83719  27.675  36.064   2.319
11394W        W83720  32.042  10.376  14.022
11395W        W83721  29.549   0.491  12.850
11396W        W83722  24.610   2.763  12.987
11397W        W83723  20.721   4.911   0.407
11398W        W83724  34.968  11.349   2.267
11399W        W83725  13.271  16.714  12.834
11400W        W83726  16.102  33.615  11.995
11401W        W83727  17.626   8.283  13.499
11402W        W83728  28.063  31.560   1.866
11403W        W83729  38.846   1.885  13.842
11404W        W83730  29.665  18.284  13.039
11405W        W83731  33.596  42.304   4.188
11406W        W83732  35.867  20.149  12.875
11407W        W83733   8.244   6.352   3.790
11408W        W83734   8.362  43.271  13.345
11409W        W83735  10.684  14.707  12.074
11410W        W83736  29.001  31.567   2.752
11411W        W83737  39.441  11.856  14.918
11412W        W83738  25.547   2.254   3.754
11413W        W83739  35.999  40.844  13.383
11414W        W83740  10.759   8.748   3.345
11415W        W83741  31.001   8.674   0.952
11416W        W83742  29.647   7.394  13.018
11417W        W83743  41.879  18.190  12.458
11418W        W83744  43.415   0.988   1.300
11419W        W83745  23.116   1.885  14.814
11420W        W83746  37.441  12.324   5.299
11421W        W83747  37.565  39.552   3.287
11422W        W83748  26.660  17.152  13.049
11423W        W83749  40.837  21.534   3.675
11424W        W83750   8.834  41.343   1.403
11425W        W83751  21.701  28.517   1.708
11426W        W83752  27.593  44.483   4.291
11427W        W83753  14.655   3.845   4.351
11428W        W83754  42.822  44.755   2.290
11429W        W83755  22.997  32.918   1.319
11430W        W83756   5.797  39.017   3.151
11431W        W83757  15.099  40.898   0.348
11432W        W83758  34.086  24.190   0.946
11433W        W83759  19.621  21.172  10.548
11434W        W83760  21.629   3.930  14.858
11435W        W83761  30.648  32.950   3.172
11436W        W83762  17.646  29.504   0.279
11437W        W83763  23.530  17.212   2.204
11438W        W83764  32.032  38.942  11.070
11439W        W83765  21.102   4.266  11.394
11440W        W83766  28.566  27.996  11.073
11441W        W83767  36.506  41.452   1.932
11442W        W83768  40.927  17.195  12.095
11443W        W83769  22.247  10.190  14.924
11444W        W83770  21.698  12.171  12.422
11445W        W83771  41.346   7.890   0.895
11446W        W83772  38.458  12.225  10.958
11447W        W83773  15.192  27.457   3.320
11448W        W83774  35.049  22.662   1.785
11449W        W83775  19.719  41.855  11.004
11450W        W83776   4.703  26.964  13.907
11451W        W83777  17.709  40.934  13.024
11452W        W83778  26.631  38.046   1.410
11453W        W83779  13.108  21.183   1.265
11454W        W83780  15.775  37.422   1.701
11455W        W83781  10.693  26.697   1.881
11456W        W83782  39.027  28.665  10.640
11457W        W83783  30.452  34.391  13.979
11458W        W83784  16.236  10.650   4.151
11459W        W83785  28.469  18.556  12.842
11460W        W83786  33.535  28.612   1.732
11461W        W83787  25.151  35.006   2.361
11462W        W83788  31.109  24.012   3.845
11463W        W83789  16.162   1.359  12.843
11464W        W83790  23.200  22.143   3.744
11465W        W83791  24.166   5.395  10.594
11466W        W83792  17.676  36.456   2.861
11467W        W83793   7.726  23.010  13.489
11468W        W83794  29.123  11.359   2.820
11469W        W83795  27.002  24.160   4.139
11470W        W83796  25.528   3.815   1.267
11471W        W83797   7.388  35.438   0.845
11472W        W83798  37.944   0.475  10.516
11473W        W83799   9.767  27.678   1.900
11474W        W83800   8.224  38.392   3.202
11475W        W83801  31.558   4.905  14.857
11476W        W83802   7.383  23.715  12.843
11477W        W83803  15.140  23.587   2.832
11478W        W83804   2.264  18.740  14.390
11479W        W83805   7.738   3.848   4.172
11480W        W83806  18.161  22.189   1.780
11481W        W83807  26.589   7.302   3.173
11482W        W83808  28.090  40.410   1.345
11483W        W83809  37.561  14.219   2.799
11484W        W83810  34.078  33.606   2.813
11485W        W83811  10.260  11.202  12.051
11486W        W83812  33.523  15.122   4.198
11487W        W83813   4.411  44.354  10.519
11488W        W83814   5.231  18.139   2.398
11489W        W83815  43.403   7.833   4.825
11490W        W83816   6.896  22.052  13.932
11491W        W83817  33.591  11.331  10.972
11492W        W83818  12.136   0.885  14.294
11493W        W83819  28.183   9.840   2.286
11494W        W83820  24.602  30.646   2.804
11495W        W83821  33.043  25.642  14.325
11496W        W83822   8.741  37.520  14.879
11497W        W83823  41.817  12.806   4.628
11498W        W83824  18.761  35.086   3.158
11499W        W83825   5.363   3.951  14.795
11500W        W83826  21.706  22.576  12.478
11501W        W83827  36.511  31.099   0.399
11502W        W83828   5.843  32.431   0.873
11503W        W83829  42.925  13.347  11.443
11504W        W83830  26.039  25.962  14.351
11505W        W83831  17.714   4.319   1.818
11506W        W83832  19.752  14.292  12.483
11507W        W83833  10.252  42.419   2.895
11508W        W83834  36.433  18.674  10.616
11509W        W83835  12.632  31.125   2.665
11510W        W83836  36.465   0.380   3.263
11511W        W83837  30.590  11.162   4.671
11512W        W83838   2.251  13.304  14.347
11513W        W83839  28.961  31.496   4.825
11514W        W83840  39.544   1.256  11.440
11515W        W83841  30.571  32.910   3.652
11516W        W83842  35.914  27.514  12.030
11517W        W83843   6.218  20.249   2.225
11518W        W83844  21.738  17.726  11.062
11519W        W83845   8.793  43.408   4.800
11520W        W83846  36.519  25.060   3.354
11521W        W83847   9.297   9.339  13.008
11522W        W83848  18.164  33.457   1.279
11523W        W83849  12.266  13.107   0.802
11524W        W83850  38.009  11.825   0.759
11525W        W83851  25.198  21.537   4.296
11526W        W83852   1.783  19.627   0.344
11527W        W83853  22.125  17.105   5.108
11528W        W83854  32.941  37.499  10.574
11529W        W83855  20.202   4.835  14.840
11530W        W83856  16.097  32.996  11.572
11531W        W83857   4.792  12.669   2.283
11532W        W83858  22.233  23.543   4.334
11533W        W83859   9.239  30.097   0.318
11534W        W83860  41.038  15.193  13.890
11535W        W83861  40.835   4.275  13.011
11536W        W83862  40.047   2.410   4.792
11537W        W83863  29.549  36.900  13.464
11538W        W83864  36.954  44.295   4.763
11539W        W83865  34.588  35.987   0.744
11540W        W83866  36.574  34.452   5.215
11541W        W83867  37.438  31.965  14.451
11542W        W83868  35.913  31.646   2.360
11543W        W83869  16.233  15.297  12.418
11544W        W83870  36.538  24.041  12.516
11545W        W83871  31.072  43.823  11.494
11546W        W83872  31.914  42.399  11.412
11547W        W83873  30.907   5.720  12.934
11548W        W83874  10.206  18.211  11.468
11549W        W83875   0.948  39.478   4.255
11550W        W83876  20.767  18.566   1.277
11551W        W83877   7.374  13.626  14.000
11552W        W83878  27.185  18.172  13.542
11553W        W83879  41.979  29.993   4.353
11554W        W83880   0.838  36.549  12.852
11555W        W83881  44.413   3.342   4.281
11556W        W83882  38.404  32.626  13.484
11557W        W83883   3.944  38.548   1.754
11558W        W83884   0.288  23.517  14.858
11559W        W83885  19.619  25.589   0.311
11560W        W83886  33.570  36.008  11.874
11561W        W83887  39.400   0.362   0.729
11562W        W83888  36.920  32.579   3.791
11563W        W83889   5.292  35.580  11.896
11564W        W83890   4.885   3.775  12.444
11565W        W83891  44.910   9.679  13.038
11566W        W83892  34.444   3.731   1.896
11567W        W83893  22.208  40.807  13.046
11568W        W83894  18.565   3.297   2.713
11569W        W83895  36.421  33.574  14.284
11570W        W83896  38.012   2.841   0.782
11571W        W83897  31.012  31.575  14.507
11572W        W83898   0.300   5.844  13.389
11573W        W83899  37.876  19.682  14.469
11574W        W83900   3.264  14.732   4.678
11575W        W83901  34.498  12.683  13.865
11576W        W83902   4.354  40.476  11.058
11577W        W83903  13.690  40.392   2.362
11578W        W83904  14.831  26.196  12.946
11579W        W83905   1.280  38.067  13.863
11580W        W83906  26.170  10.665   1.754
11581W        W83907  42.785  13.182   5.238
11582W        W83908  24.101  22.008   3.234
11583W        W83909  17.306   0.387  10.022
11584W        W83910  24.598   2.324  10.898
11585W        W83911   0.835  25.006   2.247
11586W        W83912  15.717  30.608  11.089
11587W        W83913  20.239  11.836  13.447
11588W        W83914  33.523  20.110  13.402
11589W        W83915  18.697  12.648   0.947
11590W        W83916   3.386   1.367   4.211
11591W        W83917   6.803  29.456   4.732
11592W        W83918  39.019  31.596   0.401
11593W        W83919  31.586  29.636  11.980
11594W        W83920  17.611  33.428   4.237
11595W        W83921  37.523   6.712  11.468
11596W        W83922  36.031  34.474   0.311
11597W        W83923  15.599  31.532   3.301
11598W        W83924   5.399  23.034  14.763
11599W        W83925  18.105  15.816   3.296
11600W        W83926  20.696  28.959   1.872
11601W        W83927  29.623  14.647   0.266
11602W        W83928  33.474   0.926  12.042
11603W        W83929  32.937  37.370   4.675
11604W        W83930  26.175  37.555  12.903
11605W        W83931  27.069  41.326  14.893
11606W        W83932  39.844  37.915   3.263
11607W        W83933  37.390  31.010  12.578
11608W        W83934  26.006   8.873  14.010
11609W        W83935   6.291  10.141   4.645
11610W        W83936  19.778  29.172  14.466
11611W        W83937   1.368   8.694   0.440
11612W        W83938  18.108  15.786  12.423
11613W        W83939  22.108  32.140  13.532
11614W        W83940  30.049  25.188  13.997
11615W        W83941   0.466  42.857  11.978
11616W        W83942  21.234  13.748   2.304
11617W        W83943  44.966  16.237   1.858
11618W        W83944  24.721  26.146   0.785
11619W        W83945  10.208  16.734   2.264
11620W        W83946  17.557  10.705  13.468
11621W        W83947  38.366  14.833   2.661
11622W        W83948   3.275   6.313  10.412
11623W        W83949  17.259  39.383   4.263
11624W        W83950  33.438  11.227  12.375
11625W        W83951  13.812   0.365   1.837
11626W        W83952   9.322   4.344   2.249
11627W        W83953  44.946  20.748   4.765
11628W        W83954  41.958  26.095   3.381
11629W        W83955  26.698  11.861   4.316
11630W        W83956  39.329  33.473  14.898
11631W        W83957  40.393   5.885   4.233
11632W        W83958  28.620  36.923   3.639
11633W        W83959  15.110  27.139   1.883
11634W        W83960   9.338   8.345  11.584
11635W        W83961  34.924  10.824  11.440
11636W        W83962  17.716  23.694   3.691
11637W        W83963  25.058   9.855   2.764
11638W        W83964  12.230  25.119  13.335
11639W        W83965  23.089   9.727  13.934
11640W        W83966  20.700  42.313  13.990
11641W        W83967  21.237   3.826  11.066
11642W        W83968  12.644  27.157   9.475
11643W        W83969  40.822   7.307   4.163
11644W        W83970  17.063  20.075  14.476
11645W        W83971  27.577   5.303   2.804
11646W        W83972  33.468  37.456   0.462
11647W        W83973  20.056  19.574  12.987
11648W        W83974   7.772  34.420   1.211
11649W        W83975  36.912  25.989  11.967
11650W        W83976  23.128  37.367  10.407
11651W        W83977   8.764  11.348  14.315
11652W        W83978  18.600   1.972   5.133
11653W        W83979  25.472  40.809   4.158
11654W        W83980  41.823  22.710   3.359
11655W        W83981  14.220  12.153  11.428
11656W        W83982  39.875   7.770  14.885
11657W        W83983  23.635  32.555  10.482
11658W        W83984  21.202  16.296   3.814
11659W        W83985  25.116  41.818   0.923
11660W        W83986  35.995  37.071  13.456
11661W        W83987  22.197  26.615  10.604
11662W        W83988  27.150  38.524  13.488
11663W        W83989  20.663  17.091  12.908
11664W        W83990  41.908  38.570  11.916
11665W        W83991  41.324  27.136   4.651
11666W        W83992   3.224  43.996  13.811
11667W        W83993  14.720  21.264   0.287
11668W        W83994  18.585  11.641  10.437
11669W        W83995  33.965  31.944   1.253
11670W        W83996  21.574  37.966   9.954
11671W        W83997  40.897   1.344  14.967
11672W        W83998   1.425  23.998   0.834
11673W        W83999  12.790  15.312   2.285
11674W        W84000  41.337  31.007  14.000
11675W        W84001  25.617  12.757   5.235
11676W        W84002  33.527  28.164  13.866
11677W        W84003  38.339  11.843  14.451
11678W        W84004  23.099  15.650   2.408
11679W        W84005  17.150   5.816  14.766
11680W        W84006   9.845  26.607   3.773
11681W        W84007  18.719  17.093  11.426
11682W        W84008   7.666  28.952   0.442
11683W        W84009  43.342  37.082   3.371
11684W        W84010  12.305  29.591   3.734
11685W        W84011  28.676  24.034  13.426
11686W        W84012   9.339  30.136   4.737
11687W        W84013  26.525  25.072  11.983
11688W        W84014   9.705   0.264   2.245
11689W        W84015   5.232   0.422   2.244
11690W        W84016  26.077  23.109  13.857
11691W        W84017  43.492  24.517  13.971
11692W        W84018  31.558  18.655   1.716
11693W        W84019  37.915  44.821   1.899
11694W        W84020   2.936  39.908  12.991
11695W        W84021  40.860  11.205  13.808
11696W        W84022  37.557  42.421  11.448
11697W        W84023  21.567  39.064  11.533
11698W        W84024  29.940  11.768  11.479
11699W        W84025  23.213  18.138  13.495
11700W        W84026  22.006  31.516   2.710
11701W        W84027  15.198  24.006  14.824
11702W        W84028  40.038  30.480  12.470
11703W        W84029  11.707   1.260   1.910
11704W        W84030  41.345   2.819  14.337
11705W        W84031  15.734  12.312  14.443
11706W        W84032  39.903  31.975  10.518
11707W        W84033   8.161  44.484   1.399
11708W        W84034   3.264   8.776   4.272
11709W        W84035  37.495  17.593   2.345
11710W        W84036  20.067  24.573   2.853
11711W        W84037  27.049  38.475  11.413
11712W        W84038  32.602  36.079   3.805
11713W        W84039  44.933  37.040   1.264
11714W        W84040  11.679  20.708  12.042
11715W        W84041  14.160  11.371  14.983
11716W        W84042   5.396  43.493  10.966
11717W        W84043  42.446   0.404   3.703
11718W        W84044   1.777  41.300   4.770
11719W        W84045  25.128   7.853   5.277
11720W        W84046   0.843  16.193  14.455
11721W        W84047   9.733   2.290  11.889
11722W        W84048  35.868  22.626  12.996
11723W        W84049  41.430   8.753  11.057
11724W        W84050  18.788  21.738  12.870
11725W        W84051  12.757  37.410   2.330
11726W        W84052  11.777  28.959  11.449
11727W        W84053   6.744  28.064  14.792
11728W        W84054  36.981  19.561  14.020
11729W        W84055   1.409  10.283   0.839
11730W        W84056   6.401  16.691   2.679
11731W        W84057   6.859  14.267   0.744
11732W        W84058  14.161  42.478  13.384
11733W        W84059  28.013  29.102  13.045
11734W        W84060  35.913   3.357  13.436
11735W        W84061  43.409  41.873  14.887
11736W        W84062  12.714   5.304  12.454
11737W        W84063  27.079  37.874   3.275
11738W        W84064  38.960  37.032  13.974
11739W        W84065  12.841   1.420   2.893
11740W        W84066  21.701  28.441  11.035
11741W        W84067  17.194  24.546   4.203
11742W        W84068  36.431  23.088   3.713
11743W        W84069  41.027   0.814   1.777
11744W        W84070  23.539   2.837   0.753
11745W        W84071   6.307  44.368   1.773
11746W        W84072  33.603   3.292  12.962
11747W        W84073  31.148  11.301   0.874
11748W        W84074  37.061  24.720  14.448
11749W        W84075  35.109  29.173   9.943
11750W        W84076   6.683   7.790  12.404
11751W        W84077  19.173  38.530   0.466
11752W        W84078  11.859  42.428  11.000
11753W        W84079  13.714  36.398   0.373
11754W        W84080  21.023  38.409  10.450
11755W        W84081  43.021  10.869   1.785
11756W        W84082  18.228  15.677  14.951
11757W        W84083   1.886  28.449   0.335
11758W        W84084  10.329   2.833  11.500
11759W        W84085  27.032  28.073   5.199
11760W        W84086  18.736  36.035   5.180
11761W        W84087  43.334  23.555  12.891
11762W        W84088  18.667  28.043  13.529
11763W        W84089  17.063   1.455  10.572
11764W        W84090  18.060  27.596   2.321
11765W        W84091   2.739  32.930   0.900
11766W        W84092   8.312  41.970  10.609
11767W        W84093  11.744   2.309   1.757
11768W        W84094   3.872  19.047   1.368
11769W        W84095   1.388   2.801   1.296
11770W        W84096  29.639  44.010  14.375
11771W        W84097  13.666  30.093   3.818
11772W        W84098  15.588  37.535  14.854
11773W        W84099  31.922  40.365   1.344
11774W        W84100   3.415   7.835   3.206
11775W        W84101  24.664  33.967  12.372
11776W        W84102  19.250  21.518  11.412
11777W        W84103  41.293  33.464  12.043
11778W        W84104   6.360  10.770   0.967
11779W        W84105  17.154  14.724  12.866
11780W        W84106  35.095  14.235   2.735
11781W        W84107  40.812  36.507   1.934
11782W        W84108  41.033  13.760  12.451
11783W        W84109  29.425  36.845  10.630
11784W        W84110  23.708   9.195  13.418
11785W        W84111  18.750  42.898   3.864
11786W        W84112  31.639  32.929  14.956
11787W        W84113  13.318  26.559   3.832
11788W        W84114   5.811  44.301   0.428
11789W        W84115  35.003  32.406  11.906
11790W        W84116   9.651  26.057  11.529
11791W        W84117  37.020  15.153  11.426
11792W        W84118  28.635  15.617  14.944
11793W        W84119  30.654  17.689   0.331
11794W        W84120  35.389  10.787  11.465
11795W        W84121  20.114  17.729   0.792
11796W        W84122  37.465  15.322  11.452
11797W        W84123  31.536  22.101   2.382
11798W        W84124  14.713  35.909  11.466
11799W        W84125  44.979  12.260  12.060
11800W        W84126   5.205  41.482  14.380
11801W        W84127  33.530  20.077   3.646
11802W        W84128  14.594  44.965   0.844
11803W        W84129  33.972  43.810   0.904
11804W        W84130   2.295  23.990   3.287
11805W        W84131   3.917  30.085  12.475
11806W        W84132  28.662  32.488   1.706
11807W        W84133  11.253   9.755   2.663
11808W        W84134  28.466   3.297   0.848
11809W        W84135  13.334  22.247   4.324
11810W        W84136   7.720   4.235   1.886
11811W        W84137  21.062  27.008  12.885
11812W        W84138  35.880  23.547   3.713
11813W        W84139  36.426  28.102   0.480
11814W        W84140  12.301  30.956  10.960
11815W        W84141  33.052  19.638   1.315
11816W        W84142  27.493  14.748   0.826
11817W        W84143  28.998  12.856  11.927
11818W        W84144  21.068  18.149  12.575
11819W        W84145   8.673  10.715  13.063
11820W        W84146  42.796  35.986   3.804
11821W        W84147  26.506  32.140   1.440
11822W        W84148  25.141   8.164   3.825
11823W        W84149   9.882  29.522   4.788
11824W        W84150  21.553  15.245  10.626
11825W        W84151   8.203  30.054   0.411
11826W        W84152   1.321   4.729   2.221
11827W        W84153  14.304  37.541   1.287
11828W        W84154   2.247  12.654  10.614
11829W        W84155  30.500  39.332   4.746
11830W        W84156  39.417  12.203   1.746
11831W        W84157   3.924   4.823  14.805
11832W        W84158  30.138  38.022   0.757
11833W        W84159   0.287   0.453  13.832
11834W        W84160  13.643  30.586   4.137
11835W        W84161  40.841  28.027   2.860
11836W        W84162  10.210  42.775  10.598
11837W        W84163   8.378   9.852  12.852
11838W        W84164   6.713  40.303   1.845
11839W        W84165  13.686  41.962   3.258
11840W        W84166   2.882  25.637  10.482
11841W        W84167  42.890  40.806   0.434
11842W        W84168   2.317  40.521  14.337
11843W        W84169  37.014  30.640   0.443
11844W        W84170   5.827   7.180   0.323
11845W        W84171  38.999  36.034  12.853
11846W        W84172  27.013  37.030  12.846
11847W        W84173  11.228  29.128   1.760
11848W        W84174  31.984   8.176  14.967
11849W        W84175  10.273  34.426  14.394
11850W        W84176  15.640  12.765   1.241
11851W        W84177  18.752   6.857  11.381
11852W        W84178  44.404   5.205  12.848
11853W        W84179  31.036   8.171   3.708
11854W        W84180  31.905  13.663   2.782
11855W        W84181  19.766  14.303  13.813
11856W        W84182  35.362   7.307  12.386
11857W        W84183  37.520  20.620   0.287
11858W        W84184  31.589   8.713  10.968
11859W        W84185   5.803   7.340  14.832
11860W        W84186  29.064   1.760  11.524
11861W        W84187  16.806  21.152   1.802
11862W        W84188   9.846  29.934   4.671
11863W        W84189  22.108   7.869  12.942
11864W        W84190  37.933  23.124   4.815
11865W        W84191  32.945  30.522  11.562
11866W        W84192  27.055  33.503   3.650
11867W        W84193   9.724  12.617   4.679
11868W        W84194  28.519   8.699  13.402
11869W        W84195  13.336   6.261  13.832
11870W        W84196  43.470  43.461   3.719
11871W        W84197  11.179  22.248  12.835
11872W        W84198  28.644  33.507  11.591
11873W        W84199  28.932  21.088  13.368
11874W        W84200  28.061  44.302  13.463
11875W        W84201   6.863  20.175   3.292
11876W        W84202  31.922  29.174  14.488
11877W        W84203   4.924  13.704  11.573
11878W        W84204  10.768  41.536   4.770
11879W        W84205  40.861  32.002  13.505
11880W        W84206  23.520  30.614   4.297
11881W        W84207  13.667  27.994  12.368
11882W        W84208  36.025  27.003   1.774
11883W        W84209  44.942   2.782   3.169
11884W        W84210   9.781   9.209  14.928
11885W        W84211  37.977  13.118   0.823
11886W        W84212  35.977  23.605   4.301
11887W        W84213  32.057  33.978  14.302
11888W        W84214  30.922  23.023   4.164
11889W        W84215   0.966   7.374  11.115
11890W        W84216  31.623  33.107  14.290
11891W        W84217  36.454  30.552   4.253
11892W        W84218  36.853  20.110  11.528
11893W        W84219  43.460   2.333  10.944
11894W        W84220  21.554  21.725   0.456
11895W        W84221  43.295  29.930   4.678
11896W        W84222  16.594  24.164   1.853
11897W        W84223  37.444  22.239  12.883
11898W        W84224  17.200   6.811   2.759
11899W        W84225  14.738  10.169  11.893
11900W        W84226  16.679  12.719  14.968
11901W        W84227  21.580  41.008  13.003
11902W        W84228  18.210  14.299   4.666
11903W        W84229  36.844  28.559  14.487
11904W        W84230  23.644  32.594  11.102
11905W        W84231   9.882  40.315  13.323
11906W        W84232  23.683   8.318   2.240
11907W        W84233  37.576  20.148   3.164
11908W        W84234  43.772  39.533   1.303
11909W        W84235  17.067   0.759   2.219
11910W        W84236  12.190  44.420  11.501
11911W        W84237  42.485  10.864  12.456
11912W        W84238  23.607   2.402   2.267
11913W        W84239  10.198  19.126  11.454
11914W        W84240   7.845  40.860   1.704
11915W        W84241   1.949  42.775  11.586
11916W        W84242  44.917  29.655  11.879
11917W        W84243  36.407  23.631   4.304
11918W        W84244  16.622   5.204  14.897
11919W        W84245  14.144   6.322  13.846
11920W        W84246   5.235  24.175   3.279
11921W        W84247  25.585   0.870   9.988
11922W        W84248  25.531  16.781  13.392
11923W        W84249  21.602  27.659   2.699
11924W        W84250   7.185  24.640  12.095
11925W        W84251  21.541  39.909   4.313
11926W        W84252   2.309   4.400  13.947
11927W        W84253  43.438  22.177   1.904
11928W        W84254  16.125   7.354   2.767
11929W        W84255  21.546  11.373  13.466
11930W        W84256   0.262  10.696   0.383
11931W        W84257  39.869  11.262   3.380
11932W        W84258   0.839   2.404  14.940
11933W        W84259   6.346  15.309  13.848
11934W        W84260  42.871   0.800  14.353
11935W        W84261   1.760  12.740   1.374
11936W        W84262  28.947   4.899   4.621
11937W        W84263  37.522  37.450  10.068
11938W        W84264  19.110  23.704   4.293
11939W        W84265  30.031  35.485  13.440
11940W        W84266  29.060  14.802   2.374
11941W        W84267  40.930  14.831   4.194
11942W        W84268  31.151  25.585  14.368
11943W        W84269  31.055   2.891  14.403
11944W        W84270   0.768  43.964   2.313
11945W        W84271  11.797  22.657  13.869
11946W        W84272   7.850  10.245   0.782
11947W        W84273  40.545  35.438   0.275
11948W        W84274  20.686  32.546   2.763
11949W        W84275  10.680  33.514  11.088
11950W        W84276  15.308  37.880   3.202
11951W        W84277  36.909  11.207  12.350
11952W        W84278  18.273  42.495  14.786
11953W        W84279  23.208  15.674  12.858
11954W        W84280  26.632  34.427   4.241
11955W        W84281  41.988   7.304  10.540
11956W        W84282  27.523  20.693   0.443
11957W        W84283   9.686  30.501  12.912
11958W        W84284  42.292  42.933   3.179
11959W        W84285  35.558  16.239   2.838
11960W        W84286  40.961  20.666   4.265
11961W        W84287   8.729   8.257  14.479
11962W        W84288  22.715  27.447  11.557
11963W        W84289  11.867  43.432   1.380
11964W        W84290  15.634  32.578  10.580
11965W        W84291  42.801  19.727   0.950
11966W        W84292  25.170   1.427   2.669
11967W        W84293  36.919   0.332  11.987
11968W        W84294  42.512   1.429  14.931
11969W        W84295  17.254   5.277  12.057
11970W        W84296  29.524   1.417   0.908
11971W        W84297   2.811  15.625   2.690
11972W        W84298  10.779  33.489  13.379
11973W        W84299  27.147  38.068  13.506
11974W        W84300  34.964   6.186  12.072
11975W        W84301  37.031  26.992   1.816
11976W        W84302  16.655  16.660  10.928
11977W        W84303  12.635  21.230  11.860
11978W        W84304  18.119   9.710  12.988
11979W        W84305   4.887  31.641   0.858
11980W        W84306  19.715  14.700  13.978
11981W        W84307  14.141  43.438   0.901
11982W        W84308  34.006   3.764  10.483
11983W        W84309  28.529  27.504   0.907
11984W        W84310  33.018  31.040   3.756
11985W        W84311   6.252  38.328  12.851
11986W        W84312  35.436  17.647   0.439
11987W        W84313  14.614  41.461  13.450
11988W        W84314  16.102   0.456   3.209
11989W        W84315  12.732  19.272   0.484
11990W        W84316  34.517   6.694   4.729
11991W        W84317   3.915  11.218   4.168
11992W        W84318   1.417  42.995   3.160
11993W        W84319   4.848  30.619  11.953
11994W        W84320   3.432  39.889  10.586
11995W        W84321  33.387   8.225  12.347
11996W        W84322  28.140  37.046  14.352
11997W        W84323   7.731  36.914   0.781
11998W        W84324   9.306  20.036  14.443
11999W        W84325  19.056  38.558   2.300
12000W        W84326  20.702   6.871   1.297
12001W        W84327  24.138   2.434   1.858
12002W        W84328  14.699  34.908   4.190
12003W        W84329  37.844  17.675  11.500
12004W        W84330  28.157  10.269   1.826
12005W        W84331   1.766  44.489   4.816
12006W        W84332  27.107  37.494   1.774
12007W        W84333  18.554  17.154   1.738
12008W        W84334  14.613  39.349   1.265
12009W        W84335  17.602   1.355   3.785
12010W        W84336  41.872  44.762   4.344
12011W        W84337  26.682  26.095   2.182
12012W        W84338  39.406  31.456   3.339
12013W        W84339  18.668  39.495  11.106
12014W        W84340  42.993   0.449  11.538
12015W        W84341  20.557   5.889   4.837
12016W        W84342  35.499   9.158  12.977
12017W        W84343  20.272  15.222  14.963
12018W        W84344  33.428  43.008   4.766
12019W        W84345  23.984  22.185  11.958
12020W        W84346  17.702  30.543  11.078
12021W        W84347  34.461  15.721  11.003
12022W        W84348   1.966  44.966   4.721
12023W        W84349  26.108  28.460   4.700
12024W        W84350  25.655  22.115  13.396
12025W        W84351  33.092   3.903   0.805
12026W        W84352  26.546   6.811   1.323
12027W        W84353  25.115  39.043   2.857
12028W        W84354  30.084  40.353   4.695
12029W        W84355  38.487  38.050   2.403
12030W        W84356   9.851  30.508  14.921
12031W        W84357  13.140  42.322  13.902
12032W        W84358  28.027  44.330  12.920
12033W        W84359  27.570  20.136  13.517
12034W        W84360   3.773  41.331  11.944
12035W        W84361   1.474  26.058   2.762
12036W        W84362   2.953  13.302  12.476
12037W        W84363  43.300  10.200   0.339
12038W        W84364  25.057   7.796  12.356
12039W        W84365  39.512  29.070   2.780
12040W        W84366  14.142  32.941  11.545
12041W        W84367  39.050   5.289   2.863
12042W        W84368   1.783   8.337  14.831
12043W        W84369  10.238  19.566   1.928
12044W        W84370  36.911  41.333   4.339
12045W        W84371  29.049   8.188   1.805
12046W        W84372  15.650  21.150   1.212
12047W        W84373  24.102  43.342  10.622
12048W        W84374  34.550   2.778  11.976
12049W        W84375  30.950  30.998   0.747
12050W        W84376  19.571   9.797   4.635
12051W        W84377  26.032  12.342  14.311
12052W        W84378  40.917  38.943  13.988
12053W        W84379  14.182  21.212   2.250
12054W        W84380   6.837  16.634  13.791
12055W        W84381  17.276  41.457   1.392
12056W        W84382  44.314  15.788  10.617
12057W        W84383   3.420  15.104  11.989
12058W        W84384  30.055  24.598  11.996
12059W        W84385  42.830  23.150   3.849
12060W        W84386   8.841   1.826  14.355
12061W        W84387  25.588  35.890   0.862
12062W        W84388  17.717  38.337  11.917
12063W        W84389  23.713  14.108  11.480
12064W        W84390  24.171  23.024  13.922
12065W        W84391  36.523  23.608  14.493
12066W        W84392  40.343  20.194  12.446
12067W        W84393   3.417   6.826  13.408
12068W        W84394  21.703  36.484  14.969
12069W        W84395  27.160  15.279  12.032
12070W        W84396  41.508  37.433  13.510
12071W        W84397  23.043  44.977   2.776
12072W        W84398  35.495  33.583   1.751
12073W        W84399  29.942  31.559   2.253
12074W        W84400  43.460  44.849  10.436
12075W        W84401   9.347  28.013  11.976
12076W        W84402  44.779   3.456  11.056
12077W        W84403   4.883  19.119  14.785
12078W        W84404   2.749  27.143   0.297
12079W        W84405  26.159   7.802  10.596
12080W        W84406  40.852  12.153   3.662
12081W        W84407   0.436   7.733  13.318
12082W        W84408   8.190  41.484   4.203
12083W        W84409  41.500  13.245   3.752
12084W        W84410  41.468  25.658   5.159
12085W        W84411  23.043  36.476  10.605
12086W        W84412   9.850  27.087  10.531
12087W        W84413  16.170  34.947  10.508
12088W        W84414  21.579  33.118  10.448
12089W        W84415  16.783  40.444  14.394
12090W        W84416  14.113  13.608  12.517
12091W        W84417  31.580   0.930   4.627
12092W        W84418  33.985   5.750   1.808
12093W        W84419  10.152  22.101   4.685
12094W        W84420  44.492  33.895  11.921
12095W        W84421   1.360  16.213  14.981
12096W        W84422  17.627  36.063   0.288
12097W        W84423  34.390  32.582   3.296
12098W        W84424   1.944  38.020  11.413
12099W        W84425  33.061  34.014   5.096
12100W        W84426  28.116  15.241  13.001
12101W        W84427  18.202  40.892  11.404
12102W        W84428   4.267  14.793   4.329
12103W        W84429  35.053  16.679  12.994
12104W        W84430   2.274  11.348  12.500
12105W        W84431   3.298  25.214  14.289
12106W        W84432  17.750  30.587  12.346
12107W        W84433   5.211   1.454  14.826
12108W        W84434  18.746  19.193   4.255
12109W        W84435   1.439  27.942  14.342
12110W        W84436  13.781   8.744  12.512
12111W        W84437  36.851  30.574   4.680
12112W        W84438  22.512  43.007  11.582
12113W        W84439   4.743   0.431   2.818
12114W        W84440   6.234   2.444  10.585
12115W        W84441   8.277  29.574  11.927
12116W        W84442  19.562  19.614  12.864
12117W        W84443  22.141  21.635   0.438
12118W        W84444  28.066  30.918  14.994
12119W        W84445  30.552  44.915  10.506
12120W        W84446  36.366  18.283   0.799
12121W        W84447   8.210  19.278  12.507
12122W        W84448  18.084   3.441  12.476
12123W        W84449   7.708  16.104  13.051
12124W        W84450  26.468   0.300  13.927
12125W        W84451  31.120   9.346  14.324
12126W        W84452  31.071  31.013   4.677
12127W        W84453  23.015  13.631   4.151
12128W        W84454   7.296  35.394  13.968
12129W        W84455  11.671   7.690   5.315
12130W        W84456  43.768   5.304  14.304
12131W        W84457  24.078  25.963  12.391
12132W        W84458  43.848  39.846   2.261
12133W        W84459   4.253  20.182   4.211
12134W        W84460   2.289  19.737   0.334
12135W        W84461  14.340   5.329   2.332
12136W        W84462  39.325   3.303  11.468
12137W        W84463  41.500  32.916   3.703
12138W        W84464  39.847  23.670   1.750
12139W        W84465   5.308  26.461  12.958
12140W        W84466  38.329  24.496   2.731
12141W        W84467  38.846  10.694  13.359
12142W        W84468  20.214  27.959  11.594
12143W        W84469  15.302  10.180  12.035
12144W        W84470  26.655  29.426   3.225
12145W        W84471   7.843  12.787  11.939
12146W        W84472  32.120  43.864  13.822
12147W        W84473  41.008  32.591  12.498
12148W        W84474  30.048  31.495  14.463
12149W        W84475  20.112  41.960   3.819
12150W        W84476   4.874  42.817  14.815
12151W        W84477  26.529   8.657   0.786
12152W        W84478  10.213  28.934  12.503
12153W        W84479   8.393  27.492   0.772
12154W        W84480  17.568   3.867  13.343
12155W        W84481   4.328   7.773   1.223
12156W        W84482   3.255   0.749   1.376
12157W        W84483  12.268  40.889  13.957
12158W        W84484  13.669   5.874  14.337
12159W        W84485  30.448  18.565  13.470
12160W        W84486  30.492  13.313   0.863
12161W        W84487  37.975  12.126  10.432
12162W        W84488  15.614   8.700  11.122
12163W        W84489   4.827  27.976   4.172
12164W        W84490   3.434  12.649   4.227
12165W        W84491  19.173  16.672  14.336
12166W        W84492  38.453   8.694   4.276
12167W        W84493  37.067  42.906  14.306
12168W        W84494  22.573   1.962  12.479
12169W        W84495   2.771  21.541  11.049
12170W        W84496  35.088  12.304  10.437
12171W        W84497  24.144   6.329   0.283
12172W        W84498  41.842  19.718  12.089
12173W        W84499   8.223  23.647  13.868
12174W        W84500  24.004  39.343   3.160
12175W        W84501  44.449   4.886   2.280
12176W        W84502  15.729  42.331   3.724
12177W        W84503  17.619  39.034  11.533
12178W        W84504  35.928  12.757   0.960
12179W        W84505  36.583  11.848   3.657
12180W        W84506  25.639  23.144   0.770
12181W        W84507  41.957  15.816   4.121
12182W        W84508  14.120  17.755  10.464
12183W        W84509  34.876  40.881   4.293
12184W        W84510  25.027  18.106  11.421
12185W        W84511   1.323  28.958  14.315
12186W        W84512  15.209  35.580   3.268
12187W        W84513  41.537  44.005  13.980
12188W        W84514  27.576  16.614  10.415
12189W        W84515   0.377  40.476  13.927
12190W        W84516  34.975   1.297   3.818
12191W        W84517   5.208   2.890  12.988
12192W        W84518  21.583  19.591   0.737
12193W        W84519   7.268  20.144   2.225
12194W        W84520  33.015   0.971   1.913
12195W        W84521  42.463  25.618  10.490
12196W        W84522  39.886   9.162   3.727
12197W        W84523   1.311  13.781  13.477
12198W        W84524  39.833  41.438  11.124
12199W        W84525  16.704  20.194  14.986
12200W        W84526  36.018  43.002   1.354
12201W        W84527  19.176  30.163   1.895
12202W        W84528  24.062  30.019  12.452
12203W        W84529  22.054  40.385  12.009
12204W        W84530  29.094  24.134   4.813
12205W        W84531  24.588  37.363  14.428
12206W        W84532  11.282  14.326   4.764
12207W        W84533  37.536  28.987  12.013
12208W        W84534   0.934  15.649  12.088
12209W        W84535  31.471  42.844  14.277
12210W        W84536  14.100  20.617  13.529
12211W        W84537  34.923  33.521   9.656
12212W        W84538  18.645  44.486  10.155
12213W        W84539   5.873  37.043   3.714
12214W        W84540  41.436  15.174   3.147
12215W        W84541  43.774   2.331  10.434
12216W        W84542  13.717   1.774  14.000
12217W        W84543  34.449   7.296  12.004
12218W        W84544  20.618  32.584   2.316
12219W        W84545   9.200  31.648   4.246
12220W        W84546  26.688  10.174   0.913
12221W        W84547   3.819  28.488   3.332
12222W        W84548  21.026  28.563  14.429
12223W        W84549  36.038  16.185  13.364
12224W        W84550  36.922  11.623   1.917
12225W        W84551  10.372  40.335   3.272
12226W        W84552  37.977  30.070   1.447
12227W        W84553   6.716  40.798   1.324
12228W        W84554  24.071  27.178   3.810
12229W        W84555  30.566  19.622  14.357
12230W        W84556  32.075  19.731   0.937
12231W        W84557  31.019   4.806   3.763
12232W        W84558  36.400  42.291  11.109
12233W        W84559   3.914  36.969   4.685
12234W        W84560  37.483  27.166   2.892
12235W        W84561  43.006   6.216  13.826
12236W        W84562  44.838  22.503   0.746
12237W        W84563  44.320  27.633   0.471
12238W        W84564   4.397  41.028  10.611
12239W        W84565  24.221  39.953  12.032
12240W        W84566   9.154  19.734  13.344
12241W        W84567  18.599   2.791   0.261
12242W        W84568  16.772  32.406   4.616
12243W        W84569  17.729  39.313  13.340
12244W        W84570  31.623  23.580  10.623
12245W        W84571  25.557  11.824  12.446
12246W        W84572   5.304  17.576   0.462
12247W        W84573  38.533  11.193  10.060
12248W        W84574  11.648  44.879  14.793
12249W        W84575   8.216  35.579   0.843
12250W        W84576  13.752   9.858   1.328
12251W        W84577  20.569  20.760  14.891
12252W        W84578  19.701  12.695  14.305
12253W        W84579  40.302  26.147   1.869
12254W        W84580  29.942  43.905  12.517
12255W        W84581  32.554  21.593  10.537
12256W        W84582   2.816  27.143  13.323
12257W        W84583  22.545  43.776  14.438
12258W        W84584  16.747  11.299  10.417
12259W        W84585  11.790  36.027   2.757
12260W        W84586  21.642  26.475   2.273
12261W        W84587  22.187  32.483  10.453
12262W        W84588  18.699  39.383   2.204
12263W        W84589  26.523   3.264   4.657
12264W        W84590   3.893  11.639   2.864
12265W        W84591   5.848  41.391  14.834
12266W        W84592  10.738  19.685   2.184
12267W        W84593  24.630  20.631  11.972
12268W        W84594  43.293  27.971   4.283
12269W        W84595   3.431  10.285   0.359
12270W        W84596  29.554  33.091   3.386
12271W        W84597   2.839  21.231  11.024
12272W        W84598  20.159  39.441   3.344
12273W        W84599  14.728   2.293  11.936
12274W        W84600   6.765  15.275  11.972
12275W        W84601  16.682  31.525  10.999
12276W        W84602  21.151  28.620  13.925
12277W        W84603  33.616  25.219   1.428
12278W        W84604   9.862   6.877   0.445
12279W        W84605  37.561  39.056  11.907
12280W        W84606  44.282  35.467  11.928
12281W        W84607  31.912   1.276  10.610
12282W        W84608  32.395  12.163   4.744
12283W        W84609  35.482  18.106   1.799
12284W        W84610   0.336  36.415  13.372
12285W        W84611  26.615  29.522   2.296
12286W        W84612   8.201  28.056  12.362
12287W        W84613   5.401  42.379   2.223
12288W        W84614  17.767  21.745   3.636
12289W        W84615   1.875  33.541  11.519
12290W        W84616   1.357   7.239   4.648
12291W        W84617  43.497   8.836   2.208
12292W        W84618   5.843   7.399   0.881
12293W        W84619  23.580  29.567   1.771
12294W        W84620  11.838  28.566   1.323
12295W        W84621  42.344   0.319   2.854
12296W        W84622  29.161  26.627   4.765
12297W        W84623  11.158  26.997   3.378
12298W        W84624  38.393  10.763   9.510
12299W        W84625   3.460   2.277   3.238
12300W        W84626   2.952  32.988   2.865
12301W        W84627  14.720  33.454   9.991
12302W        W84628  21.052  36.591  13.943
12303W        W84629  25.615  35.952   2.256
12304W        W84630  26.981  11.307  13.524
12305W        W84631  17.702  39.512  10.965
12306W        W84632  40.821   8.654  11.529
12307W        W84633  15.616  32.537  11.025
12308W        W84634   6.385  42.935  13.378
12309W        W84635   8.200  23.513  12.825
12310W        W84636  39.895  24.114  11.927
12311W        W84637   7.798  44.481   3.159
12312W        W84638  23.043  40.337   3.696
12313W        W84639  10.318   8.198   2.404
12314W        W84640  36.890  25.978  14.914
12315W        W84641  38.562  27.651  14.834
12316W        W84642  12.349  28.592   4.159
12317W        W84643  20.139  26.457  14.328
12318W        W84644  32.586  27.512   4.198
12319W        W84645  37.071  33.440  14.971
12320W        W84646  12.677  26.606  10.586
12321W        W84647  36.904  41.796  11.459
12322W        W84648  19.768  30.042  12.399
12323W        W84649  39.452  32.606   4.602
12324W        W84650  40.824  40.416   0.741
12325W        W84651  42.934  36.555   1.816
12326W        W84652  20.230  11.288   1.840
12327W        W84653  15.583  13.127   4.286
12328W        W84654  34.955  34.471   4.813
12329W        W84655  31.927  14.201   4.182
12330W        W84656   7.852  15.663   4.337
12331W        W84657  13.270  10.710   3.830
12332W        W84658  38.040  17.228   1.810
12333W        W84659  44.890  27.666   0.837
12334W        W84660  19.067  18.250   4.227
12335W        W84661   7.804  24.002   3.229
12336W        W84662  23.608  29.001  11.587
12337W        W84663  40.305  35.033  13.375
12338W        W84664   2.803  11.868   3.693
12339W        W84665  36.900   4.776   2.332
12340W        W84666  12.277  27.004  11.857
12341W        W84667  32.464  24.995  13.484
12342W        W84668  44.386  27.046   1.337
12343W        W84669  16.257  12.274   1.284
12344W        W84670  40.964  10.781  11.570
12345W        W84671   9.287  38.967   4.261
12346W        W84672  28.047  33.908  14.772
12347W        W84673   0.828  16.606   0.892
12348W        W84674  17.680  39.050   4.715
12349W        W84675  39.838  10.190  14.511
12350W        W84676  35.392  29.499   3.384
12351W        W84677  16.574   9.876  11.445
12352W        W84678  21.650  42.412  10.925
12353W        W84679  17.274  23.167  14.874
12354W        W84680  11.817   2.734   0.801
12355W        W84681   3.419  12.346   0.263
12356W        W84682  30.933  10.865   2.843
12357W        W84683  44.264   0.966  10.464
12358W        W84684  19.549  21.661   1.358
12359W        W84685  15.130  35.594  13.890
12360W        W84686   8.712   3.912  13.340
12361W        W84687  23.231  39.417   9.979
12362W        W84688  18.068   5.913  14.767
12363W        W84689  20.536  39.890  11.610
12364W        W84690  43.396  41.437   1.703
12365W        W84691  17.277  19.186  12.977
12366W        W84692  41.355  32.627   3.341
12367W        W84693  30.555  42.486  12.479
12368W        W84694  14.124  16.175  13.007
12369W        W84695  15.772  41.898   0.301
12370W        W84696  20.716   5.848  12.859
12371W        W84697  23.099  36.562   2.724
12372W        W84698   8.705  28.464   2.786
12373W        W84699   8.247  33.405   0.459
12374W        W84700   7.843  18.643   3.240
12375W        W84701  33.022   1.383   3.323
12376W        W84702  24.102  29.079   5.081
12377W        W84703  24.975  25.041   4.288
12378W        W84704  29.155  37.909  11.047
12379W        W84705  39.874  27.550   4.750
12380W        W84706  37.419   1.239   2.234
12381W        W84707   1.781   0.766   3.328
12382W        W84708  43.987   1.465  13.341
12383W        W84709  17.591   7.177   2.229
12384W        W84710  19.271  44.919   2.225
12385W        W84711  31.977  16.176  12.465
12386W        W84712  18.773  31.001  13.463
12387W        W84713  13.262  35.860  14.443
12388W        W84714   6.348  39.340  10.518
12389W        W84715  35.010  19.084   1.433
12390W        W84716   6.418  38.903   2.330
12391W        W84717  24.079  29.588  10.604
12392W        W84718  17.646  28.629  13.414
12393W        W84719  24.547   7.887  13.914
12394W        W84720   1.278  19.218   0.812
12395W        W84721  30.533  34.583  10.956
12396W        W84722  18.783  41.466  10.095
12397W        W84723  28.113  10.658  13.457
12398W        W84724  41.005   4.430   4.322
12399W        W84725  32.468  19.775  14.979
12400W        W84726   2.369  19.542   3.662
12401W        W84727  26.041  31.922  14.306
12402W        W84728  30.468  34.410  10.587
12403W        W84729  19.709   5.245  12.891
12404W        W84730  15.781  30.947   4.750
12405W        W84731   8.370  30.447  11.473
12406W        W84732  19.222  14.312   4.119
12407W        W84733  11.292   7.411  12.531
12408W        W84734   0.377  43.298  12.913
12409W        W84735  32.535  13.139  14.009
12410W        W84736  12.677  35.017   2.898
12411W        W84737  29.667  34.453   9.971
12412W        W84738   6.425  14.828  11.420
12413W        W84739  41.837  23.999  14.312
12414W        W84740   0.376  41.517   1.777
12415W        W84741  26.970   0.256  12.533
12416W        W84742  41.972   5.904   3.229
12417W        W84743  16.803  19.263  13.325
12418W        W84744  15.085  44.276  13.442
12419W        W84745  20.550   7.314   0.787
12420W        W84746  24.645  16.165   4.720
12421W        W84747   4.372  43.375   1.737
12422W        W84748  26.573  19.282  12.876
12423W        W84749  36.923  39.338   2.739
12424W        W84750  42.305  13.324   4.134
12425W        W84751  16.810   4.234   3.285
12426W        W84752   5.873  12.633   0.827
12427W        W84753  43.340  33.105   1.861
12428W        W84754  28.066   9.794   3.770
12429W        W84755  34.429   3.816  10.607
12430W        W84756  23.550  28.134   1.331
12431W        W84757  24.165  31.523  13.019
12432W        W84758  30.014  17.692  11.376
12433W        W84759   9.354  28.112  13.324
12434W        W84760  20.108  10.662  13.940
12435W        W84761   1.780  18.139  14.304
12436W        W84762  39.454  22.193  11.020
12437W        W84763   4.340  44.841  14.796
12438W        W84764  10.235  37.540  12.851
12439W        W84765  33.544  23.191  10.040
12440W        W84766  31.135  32.930   3.238
12441W        W84767   3.824  20.686   0.318
12442W        W84768  24.039  13.327   2.380
12443W        W84769  42.026  29.515  14.461
12444W        W84770  33.428  41.353  14.002
12445W        W84771   1.346  29.638  11.457
12446W        W84772  37.931  16.686  13.432
12447W        W84773  29.655  29.962  11.053
12448W        W84774   6.317  24.696  13.333
12449W        W84775  32.005  16.281   1.742
12450W        W84776  36.935   7.274  13.993
12451W        W84777  16.129  34.948   4.315
12452W        W84778   6.847  21.075   3.659
12453W        W84779   3.461   9.234  12.415
12454W        W84780  42.932  15.103   2.224
12455W        W84781  33.495  22.095  14.015
12456W        W84782   6.695  30.056   0.255
12457W        W84783  17.179  24.136  11.121
12458W        W84784  22.590  24.157   4.615
12459W        W84785  36.859  25.492   3.864
12460W        W84786   7.830  37.904  12.050
12461W        W84787  15.651  41.955   2.356
12462W        W84788  10.154  26.516  14.494
12463W        W84789  40.041  30.959  14.833
12464W        W84790   3.871  30.656   3.296
12465W        W84791  19.641  24.684  14.919
12466W        W84792  10.218  11.795   4.218
12467W        W84793  33.486  13.174   5.221
12468W        W84794   3.450  20.083  14.443
12469W        W84795  35.896  35.378   0.281
12470W        W84796  27.515   4.762   3.205
12471W        W84797   7.780  36.365  11.410
12472W        W84798  38.960  20.641  14.438
12473W        W84799  19.543  37.852  13.983
12474W        W84800  27.944   6.258   4.328
12475W        W84801  28.656  30.612   4.165
12476W        W84802  13.332  25.971  14.346
12477W        W84803  37.451  22.601  12.994
12478W        W84804   8.310  43.337  10.981
12479W        W84805  43.915  29.108  12.073
12480W        W84806  11.671   6.733   1.722
12481W        W84807  39.935   6.838   0.469
12482W        W84808  43.457  23.678  14.436
12483W        W84809   0.353  28.985   2.246
12484W        W84810   4.286   3.335   0.409
12485W        W84811  24.193   2.873  11.533
12486W        W84812  26.093  31.641   3.708
12487W        W84813  20.567   4.430   3.658
12488W        W84814  33.012   6.400  12.074
12489W        W84815  12.723  34.962  12.375
12490W        W84816  41.916  25.521  11.051
12491W        W84817  14.210  19.180  14.372
12492W        W84818  14.191   3.892  14.912
12493W        W84819  28.484  22.681   3.366
12494W        W84820  35.105  41.883   3.334
12495W        W84821  22.610  29.545  11.101
12496W        W84822  24.075  16.249   1.300
12497W        W84823  38.950  14.783  10.911
12498W        W84824  15.581  24.071  10.001
12499W        W84825  30.995   6.281  11.874
12500W        W84826   8.661  37.900  10.963
12501W        W84827   6.738  44.304   0.779
12502W        W84828  21.560  36.947  13.850
12503W        W84829  32.009  28.608  12.481
12504W        W84830  29.617   8.794   0.326
12505W        W84831   4.865   1.333  14.916
12506W        W84832  36.500   7.842   0.309
12507W        W84833  25.038  33.031  12.933
12508W        W84834  44.501   5.312  13.390
12509W        W84835  19.632  12.657   0.767
12510W        W84836  13.760  24.169   2.733
12511W        W84837  32.628  12.837   3.675
12512W        W84838  28.068  31.606  12.017
12513W        W84839  13.624   2.318   2.789
12514W        W84840   0.333  32.474   3.825
12515W        W84841   4.710  10.345   0.886
12516W        W84842  17.235  43.509  13.001
12517W        W84843  44.370   8.749  14.431
12518W        W84844  34.091  28.530  11.859
12519W        W84845   1.406  38.883  12.578
12520W        W84846   8.189  39.871  12.986
12521W        W84847  30.557   8.195   3.156
12522W        W84848  26.072   3.942   4.768
12523W        W84849  28.021  23.018  11.530
12524W        W84850  19.127  18.654   3.330
12525W        W84851   3.350  41.920   4.747
12526W        W84852  16.151   3.765  12.824
12527W        W84853   2.814  37.527   1.407
12528W        W84854  33.062  17.172   3.692
12529W        W84855  36.374  22.163   3.710
12530W        W84856  37.835  32.058  14.329
12531W        W84857   7.273  31.973   3.819
12532W        W84858  38.998  39.467  13.541
12533W        W84859   9.646  38.010  11.528
12534W        W84860  40.320   2.311  11.079
12535W        W84861  33.397   9.737  14.901
12536W        W84862  15.135  17.612  10.495
12537W        W84863  25.508  24.061   1.917
12538W        W84864  32.453  41.466   2.831
12539W        W84865  37.564  18.643  12.566
12540W        W84866  43.780  28.659   1.425
12541W        W84867   1.757  29.495  11.474
12542W        W84868   0.949  17.660   1.211
12543W        W84869  35.559  35.585  11.112
12544W        W84870  43.352  39.817  10.894
12545W        W84871  28.012   0.296  10.626
12546W        W84872   7.292  26.124   1.931
12547W        W84873  33.402   1.328  12.899
12548W        W84874  35.855  18.225  14.020
12549W        W84875  19.745  32.952   4.752
12550W        W84876  34.934  35.036  13.432
12551W        W84877  11.791  26.689   1.919
12552W        W84878  12.642   6.870  13.811
12553W        W84879  13.207  22.647   1.792
12554W        W84880   4.376  10.636  14.963
12555W        W84881  17.257  18.695   1.380
12556W        W84882  25.138  26.001   1.831
12557W        W84883  31.079  20.035  14.854
12558W        W84884  24.716   8.875  11.039
12559W        W84885   1.825   0.952  10.953
12560W        W84886  30.011  28.050  14.935
12561W        W84887  26.533  42.958  12.421
12562W        W84888   7.702  42.908  13.825
12563W        W84889   6.730  11.701  10.443
12564W        W84890  30.643  24.718  11.864
12565W        W84891  17.231  26.701   4.137
12566W        W84892   2.900   5.380   5.757
12567W        W84893  21.253  42.385  14.766
12568W        W84894  12.310  13.772  12.918
12569W        W84895  17.778  21.123   2.789
12570W        W84896  19.263  42.976   0.265
12571W        W84897  33.917  13.135  13.025
12572W        W84898  19.570  32.917  10.967
12573W        W84899   2.231  39.056   4.784
12574W        W84900   2.299  24.604  14.904
12575W        W84901  43.971  25.991   4.217
12576W        W84902  16.259   8.201   0.380
12577W        W84903  11.157  25.112   0.756
12578W        W84904  28.464  28.554   9.660
12579W        W84905   1.262  36.986  12.434
12580W        W84906  40.897  15.762   1.795
12581W        W84907   9.190  40.888  13.355
12582W        W84908   0.881  22.701   0.417
12583W        W84909  29.954   4.756  11.509
12584W        W84910  41.499  23.210   3.804
12585W        W84911  28.587  14.306   3.696
12586W        W84912  35.380  29.996  12.341
12587W        W84913  25.080  15.123  13.412
12588W        W84914  30.999  33.056  12.898
12589W        W84915   6.267  42.521   0.837
12590W        W84916   3.411  44.479  14.884
12591W        W84917   1.857  33.076   3.172
12592W        W84918   0.459  43.014  11.426
12593W        W84919  27.024  14.201  13.870
12594W        W84920  28.119  44.457   0.391
12595W        W84921  19.720   3.225   4.354
12596W        W84922  25.490  33.910  11.598
12597W        W84923  20.052  34.879   1.299
12598W        W84924  26.195   8.714   0.447
12599W        W84925   5.302  29.479   2.702
12600W        W84926   7.790  13.227  12.530
12601W        W84927  43.825  44.807   0.744
12602W        W84928  30.045  27.448  14.438
12603W        W84929  21.676  34.099  10.451
12604W        W84930  39.820  17.725   1.450
12605W        W84931   5.324  44.817  11.491
12606W        W84932   2.316  14.324   1.886
12607W        W84933  35.453  13.348  10.525
12608W        W84934  11.866  34.598   1.233
12609W        W84935   1.909  25.155   2.723
12610W        W84936  39.365   1.434   2.795
12611W        W84937   9.266  29.150  10.480
12612W        W84938  34.043  19.262  13.871
12613W        W84939  37.917  10.667   2.880
12614W        W84940  16.243  42.293  13.419
12615W        W84941  24.037  37.409   3.696
12616W        W84942   0.921  18.683   4.720
12617W        W84943  24.520   0.350   0.830
12618W        W84944  14.772  25.507   0.280
12619W        W84945  12.263   9.841  14.809
12620W        W84946  27.106  41.797   3.814
12621W        W84947  22.649  11.832  13.417
12622W        W84948   7.203   0.345   2.309
12623W        W84949  18.219  15.265   3.341
12624W        W84950  32.051  42.866   3.279
12625W        W84951  25.998   7.403   2.325
12626W        W84952  14.776  23.637  11.456
12627W        W84953  20.254  43.511  11.864
12628W        W84954   3.282  21.149   0.894
12629W        W84955  17.705  29.052   1.225
12630W        W84956  43.927  26.999  11.064
12631W        W84957  13.791   0.874  14.333
12632W        W84958   1.937  21.722  12.518
12633W        W84959  30.428   5.249  14.781
12634W        W84960  15.671  22.186  10.122
12635W        W84961  41.933  22.700   3.732
12636W        W84962  11.202  16.236  10.555
12637W        W84963  20.669  30.477  13.062
12638W        W84964   3.405  25.560   1.747
12639W        W84965  12.299  13.752   3.265
12640W        W84966  16.622  16.196   1.714
12641W        W84967  13.744  41.482  14.863
12642W        W84968  34.990  11.748   3.816
12643W        W84969   5.287   2.763  13.983
12644W        W84970   9.747  38.985   0.313
12645W        W84971  37.473   2.900   1.277
12646W        W84972   3.898   1.741  13.043
12647W        W84973  41.438  20.135   3.667
12648W        W84974  22.069  20.649   4.252
12649W        W84975  26.567  15.201  12.043
12650W        W84976   0.292  33.915   0.786
12651W        W84977  26.491   7.298   0.366
12652W        W84978  33.517   5.431   4.600
12653W        W84979  15.134  30.622   0.774
12654W        W84980   0.891  32.913  13.985
12655W        W84981  25.568  19.638   4.210
12656W        W84982   7.859   8.684  14.977
12657W        W84983  13.188  41.033  12.432
12658W        W84984  43.407  40.338  10.575
12659W        W84985  41.869   4.905   5.124
12660W        W84986   2.903  20.186   1.881
12661W        W84987  13.775   2.464   0.426
12662W        W84988  27.531  11.138   2.182
12663W        W84989  29.102  44.858  13.451
12664W        W84990  36.414  35.883   2.406
12665W        W84991   0.897   1.759   1.256
12666W        W84992  17.798  25.157   3.741
12667W        W84993   6.809  22.026   0.395
12668W        W84994  21.656  10.244  10.431
12669W        W84995  24.034  27.131  13.883
12670W        W84996  40.482  27.567  13.514
12671W        W84997  13.758  24.571  14.980
12672W        W84998  26.114  29.041  11.864
12673W        W84999   2.945   0.276   1.294
12674W        W85000  17.788  31.599  11.435
12675W        W85001   1.826  40.809  12.484
12676W        W85002  23.720   5.877  13.426
12677W        W85003  43.469  32.003  11.983
12678W        W85004  34.373  28.091  12.981
12679W        W85005  28.930   6.312  14.343
12680W        W85006  18.619  33.496  13.474
12681W        W85007  29.068  38.000   0.793
12682W        W85008  30.113   2.240  14.022
12683W        W85009   5.404  31.984   5.089
12684W        W85010  44.471   3.460   2.268
12685W        W85011   2.275  33.030   0.261
12686W        W85012  34.075  10.699   3.152
12687W        W85013  37.004  29.659   0.966
12688W        W85014  17.799   9.323  14.939
12689W        W85015  23.637  10.303   2.303
12690W        W85016  37.518  30.565  14.288
12691W        W85017  36.497  17.295   1.379
12692W        W85018  14.199  40.893  12.055
12693W        W85019  20.028   8.663   4.184
12694W        W85020   8.727  42.777   1.745
12695W        W85021  39.840  37.053  14.855
12696W        W85022  44.005  37.513  10.488
12697W        W85023  24.484  11.700   1.429
12698W        W85024   1.352  30.591   3.808
12699W        W85025  36.046  32.066  13.385
12700W        W85026  20.596  21.030  14.899
12701W        W85027  23.141  27.136  13.043
12702W        W85028  43.935   4.448  14.283
12703W        W85029  40.507  25.211   0.373
12704W        W85030  40.801  44.457   0.434
12705W        W85031  19.076  43.409  10.946
12706W        W85032  41.797  43.810   1.412
12707W        W85033   0.832  38.904   0.802
12708W        W85034  29.089  17.170   0.395
12709W        W85035  14.314  41.322  13.309
12710W        W85036   9.287  16.810  12.422
12711W        W85037  43.501  29.445  13.061
12712W        W85038  15.303  11.769  14.825
12713W        W85039  31.112  16.095   2.319
12714W        W85040   9.679  17.292  11.544
12715W        W85041   4.872  28.060  12.970
12716W        W85042  27.175  40.519  14.471
12717W        W85043  13.779  14.667   0.330
12718W        W85044   2.463  14.273   4.615
12719W        W85045  44.450  40.306  13.940
12720W        W85046  23.565  21.567   1.258
12721W        W85047  17.581   8.710   3.660
12722W        W85048   8.216  15.644   9.978
12723W        W85049  19.720  43.824  12.520
12724W        W85050  17.140  39.917   2.298
12725W        W85051  11.648   0.270  11.444
12726W        W85052  39.553  18.219  14.899
12727W        W85053  16.789   0.392   2.748
12728W        W85054   4.449  26.952  13.308
12729W        W85055  11.636  37.861   1.771
12730W        W85056  12.780  26.034  11.589
12731W        W85057   0.315  17.677  11.990
12732W        W85058  38.399   5.747  13.920
12733W        W85059  23.237  36.084  12.578
12734W        W85060   0.489  13.135   1.876
12735W        W85061  27.063  30.968   0.419
12736W        W85062  20.709  44.311  13.968
12737W        W85063  26.063  44.265  11.120
12738W        W85064  40.006  23.605  12.846
12739W        W85065   3.277   3.884   4.816
12740W        W85066   1.252  17.261  13.483
12741W        W85067  41.408   7.213   4.255
12742W        W85068   8.196  18.553   2.335
12743W        W85069  22.218   0.481  11.410
12744W        W85070   1.977   4.342   9.925
12745W        W85071  12.164   8.801  12.425
12746W        W85072  23.012  44.888  11.405
12747W        W85073  41.293  39.547   0.325
12748W        W85074  38.427   8.189   1.253
12749W        W85075  18.053  35.593   0.736
12750W        W85076  29.546   4.409   0.310
12751W        W85077   3.868  24.543  12.471
12752W        W85078  40.460  25.658   1.795
12753W        W85079  41.973  37.059   2.675
12754W        W85080  13.166  24.630  11.427
12755W        W85081  42.342   8.376  12.070
12756W        W85082  26.609   0.485   1.868
12757W        W85083   5.717  44.420  11.022
12758W        W85084  32.450  25.000  12.503
12759W        W85085  41.482  28.566  13.880
12760W        W85086  39.440  15.669  11.920
12761W        W85087  13.160   1.907   4.283
12762W        W85088  23.224   6.713  13.938
12763W        W85089  19.127  21.655   3.376
12764W        W85090  19.190   6.681  14.461
12765W        W85091   7.684  12.152  12.981
12766W        W85092  28.036   8.245  11.918
12767W        W85093  18.637  27.103   1.237
12768W        W85094  43.887  34.484   1.891
12769W        W85095  33.537  38.945  11.070
12770W        W85096  41.926  34.579  13.961
12771W        W85097   2.774   7.698   2.727
12772W        W85098  11.681  33.492  12.406
12773W        W85099  36.438  30.006   0.772
12774W        W85100  44.441  40.515  12.481
12775W        W85101  14.744  43.436   4.209
12776W        W85102   2.347  14.151  10.144
12777W        W85103  41.523  16.166  11.006
12778W        W85104  40.867  43.790  12.984
12779W        W85105  38.425  21.024   4.704
12780W        W85106  40.850  11.669   4.712
12781W        W85107  10.357   1.790   4.258
12782W        W85108   9.297  29.645   4.238
12783W        W85109  44.795  30.084   2.732
12784W        W85110  19.671  37.897   2.184
12785W        W85111  26.076  38.040   0.865
12786W        W85112  31.446  13.651   2.736
12787W        W85113  34.879   7.314  12.520
12788W        W85114  26.542  27.632   5.236
12789W        W85115  20.539   2.784  11.118
12790W        W85116   6.749   7.373  12.880
12791W        W85117  35.932   1.252   4.172
12792W        W85118  12.132   4.871  13.955
12793W        W85119   4.733   3.743  14.926
12794W        W85120  14.765  13.111   4.281
12795W        W85121  20.075   5.340  13.936
12796W        W85122  17.230  34.986  11.526
12797W        W85123   4.368  40.492   1.265
12798W        W85124   1.930  19.711  11.406
12799W        W85125  24.599  20.639  11.452
12800W        W85126  22.633   7.366   0.806
12801W        W85127  33.383  30.071   1.770
12802W        W85128   9.242  18.062   2.370
12803W        W85129  27.549  19.734   3.280
12804W        W85130   1.478  38.972   1.742
12805W        W85131  30.922  15.621   3.782
12806W        W85132  37.061   4.932  10.951
12807W        W85133  33.090  37.371   0.422
12808W        W85134  22.219  42.450   4.227
12809W        W85135  15.641  36.553   3.758
12810W        W85136   4.301   7.221  11.992
12811W        W85137  43.283  24.053   0.387
12812W        W85138  22.690  21.677   2.750
12813W        W85139   2.466  11.364   1.413
12814W        W85140  26.459   2.434   0.745
12815W        W85141  13.622  38.898   1.237
12816W        W85142   5.215  17.673  10.443
12817W        W85143  14.100  36.585   3.680
12818W        W85144  44.344   1.395  10.047
12819W        W85145   3.776   1.343   2.741
12820W        W85146  14.809  41.825   2.376
12821W        W85147  33.118  20.238   3.230
12822W        W85148  38.871  44.867  10.103
12823W        W85149   0.958  37.576   3.373
12824W        W85150  24.129  21.520   0.314
12825W        W85151  16.796   0.258   2.385
12826W        W85152  34.407  23.096   2.193
12827W        W85153   5.244  11.682   2.709
12828W        W85154  37.867  16.621   4.769
12829W        W85155  38.464   2.439   2.359
12830W        W85156  31.907   7.845  11.921
12831W        W85157  19.662  40.854  12.547
12832W        W85158   6.274  17.090   5.135
12833W        W85159  22.568  33.070   0.958
12834W        W85160  33.445  21.162   4.660
12835W        W85161  26.015  35.411   0.335
12836W        W85162   0.477  20.113   1.282
12837W        W85163  11.311   3.908   0.424
12838W        W85164  18.591  20.734  13.454
12839W        W85165  17.182  21.100   0.909
12840W        W85166  34.896  40.545  10.499
12841W        W85167  32.429  39.538   2.355
12842W        W85168  19.704  23.549  12.440
12843W        W85169  40.006   4.830   3.327
12844W        W85170  23.092  19.691  14.938
12845W        W85171  19.579   3.872   0.466
12846W        W85172  40.939   9.330   4.253
12847W        W85173   5.858  44.291  12.092
12848W        W85174   7.276  24.094  11.534
12849W        W85175  36.855  28.000   3.831
12850W        W85176  34.899  43.923  13.479
12851W        W85177  33.395  29.950  13.034
12852W        W85178  13.169  38.853   1.824
12853W        W85179  17.702   7.682  14.323
12854W        W85180  41.887  20.057   0.312
12855W        W85181  38.066  26.076   0.401
12856W        W85182  23.502   0.355   0.908
12857W        W85183  33.515  10.226   1.765
12858W        W85184  10.260  32.111   4.117
12859W        W85185  39.880  36.071   1.868
12860W        W85186   3.951  44.313  10.061
12861W        W85187  14.294  32.515  12.385
12862W        W85188  34.070  44.760  13.479
12863W        W85189  31.515  25.471  12.451
12864W        W85190  15.194  42.884  11.415
12865W        W85191   1.819  32.088  10.992
12866W        W85192  29.986  14.274  11.597
12867W        W85193  27.172   8.273   1.234
12868W        W85194  33.954  12.730  14.999
12869W        W85195  16.695  12.763   0.862
12870W        W85196  16.664  41.443  13.020
12871W        W85197  14.591   1.323   0.934
12872W        W85198  20.133  24.552   1.349
12873W        W85199  35.013  12.716   2.826
12874W        W85200  31.018   2.412  10.512
12875W        W85201  10.782  19.740   4.170
12876W        W85202  41.505  22.231   0.409
12877W        W85203  28.166  14.283   4.170
12878W        W85204   4.436  25.702   0.364
12879W        W85205  27.178  20.602   3.258
12880W        W85206  39.369  28.560  14.279
12881W        W85207   0.852  19.584   4.336
12882W        W85208  42.425   7.386   4.611
12883W        W85209   6.224  33.447   1.833
12884W        W85210  33.560  22.687   3.197
12885W        W85211  13.149   8.663  12.420
12886W        W85212  16.234  21.077   2.865
12887W        W85213  29.162  14.676  12.382
12888W        W85214  34.102   7.895   2.218
12889W        W85215  12.829  39.021  10.986
12890W        W85216  13.309  36.947   5.806
12891W        W85217  37.074  31.095   0.411
12892W        W85218  44.863  28.955  11.590
12893W        W85219  23.032  13.336  10.577
12894W        W85220  42.416  36.365   0.419
12895W        W85221  20.562  34.495  13.813
12896W        W85222  43.904   1.404  14.008
12897W        W85223  24.011  32.007  10.523
12898W        W85224   7.414  32.889  11.609
12899W        W85225  43.880  15.740   0.307
12900W        W85226   1.241  41.790   0.747
12901W        W85227  21.186   9.808  10.604
12902W        W85228   3.263  41.836   0.264
12903W        W85229  21.592  10.340   1.422
12904W        W85230  37.369  23.240  11.101
12905W        W85231  17.171  32.395  11.418
12906W        W85232  34.572   0.465  10.417
12907W        W85233  15.239  25.517   2.380
12908W        W85234  41.839   5.384   3.349
12909W        W85235   2.887  31.488  11.434
12910W        W85236  16.684   4.333   4.616
12911W        W85237  32.407  13.719  14.789
12912W        W85238   8.699  16.730  14.346
12913W        W85239  37.058  27.445   1.353
12914W        W85240  27.976  38.562  10.900
12915W        W85241  32.977  16.610  14.361
12916W        W85242  31.010  18.166  12.343
12917W        W85243   2.840  30.482   2.852
12918W        W85244  10.316  25.147   4.217
12919W        W85245  12.620  32.403  12.433
12920W        W85246  41.519  23.116  14.426
12921W        W85247  44.419  25.167  14.913
12922W        W85248  16.648  25.173   2.359
12923W        W85249  32.608  44.855   1.808
12924W        W85250  34.019  33.094   2.244
12925W        W85251  27.532  36.564   4.150
12926W        W85252  38.467  40.428   3.373
12927W        W85253   5.404  23.520   3.153
12928W        W85254   2.750  18.223   4.133
12929W        W85255   2.462  15.720  13.396
12930W        W85256  10.381  28.523   3.743
12931W        W85257  18.237   9.826   3.753
12932W        W85258  13.686   0.829   3.845
12933W        W85259  10.201  28.071  14.297
12934W        W85260  10.284  37.998   0.851
12935W        W85261  42.393  18.234   1.268
12936W        W85262  32.059  31.152  10.989
12937W        W85263  30.551   1.848  12.948
12938W        W85264  36.861  32.404  11.429
12939W        W85265  15.658  43.383  11.488
12940W        W85266  24.229  32.480   4.604
12941W        W85267  13.329   6.763   1.699
12942W        W85268  15.149  44.811  11.465
12943W        W85269  28.007  15.784   1.759
12944W        W85270  13.231  31.635   0.862
12945W        W85271  15.300  39.985   0.855
12946W        W85272  20.154  17.707   3.183
12947W        W85273  38.534  38.480   4.757
12948W        W85274  31.560  18.081   0.942
12949W        W85275  17.593  30.535   1.241
12950W        W85276  40.882  38.552   4.354
12951W        W85277  37.941   7.718   4.306
12952W        W85278  25.497   0.410   1.770
12953W        W85279  31.151  15.290  11.480
12954W        W85280  18.557  41.892  13.890
12955W        W85281  42.805  28.561   0.263
12956W        W85282  35.969  35.555  13.062
12957W        W85283   7.774  32.021   0.865
12958W        W85284  36.506  11.783  13.936
12959W        W85285  26.467  24.978  12.979
12960W        W85286  14.686  19.716   1.750
12961W        W85287  15.644   1.850  13.945
12962W        W85288  36.944  12.790   0.876
12963W        W85289   8.690  23.174  11.547
12964W        W85290  30.959  37.015  10.541
12965W        W85291  44.386  12.220   1.376
12966W        W85292  24.001  10.159  13.901
12967W        W85293  22.699   0.896  13.915
12968W        W85294   4.718  40.314   1.388
12969W        W85295  29.477   4.249   2.384
12970W        W85296  15.304  24.210   0.342
12971W        W85297   0.380  27.687   1.438
12972W        W85298  43.800  14.172  13.444
12973W        W85299  38.456  31.133  13.468
12974W        W85300  26.494  33.990   1.275
12975W        W85301   2.333  27.047  11.521
12976W        W85302  38.838  13.332   0.801
12977W        W85303  31.901   9.335   5.201
12978W        W85304   9.787  20.272   2.693
12979W        W85305   8.286  16.770  14.504
12980W        W85306  20.767  28.618   4.278
12981W        W85307  44.339  33.496  12.839
12982W        W85308  33.076   6.252   4.172
12983W        W85309  19.750  13.621   0.734
12984W        W85310   8.826  32.623  13.845
12985W        W85311  21.566   1.873  14.392
12986W        W85312  41.378  40.969   0.809
12987W        W85313   6.802  40.547  12.494
12988W        W85314  41.959  24.098   2.840
12989W        W85315  31.568  44.351  11.016
12990W        W85316  23.196   6.756   0.453
12991W        W85317  44.780  34.614   0.393
12992W        W85318  36.401  28.057  14.345
12993W        W85319  44.465  38.993  13.912
12994W        W85320  41.322  39.977   4.262
12995W        W85321   4.754  40.519   4.728
12996W        W85322  20.136  28.479  10.607
12997W        W85323   1.377  31.511   0.336
12998W        W85324  26.684  37.390   4.155
12999W        W85325   8.895  37.922   3.746
13000W        W85326  41.856  18.077   2.757
13001W        W85327  39.551  37.048   3.152
13002W        W85328  28.440   9.363   4.763
13003W        W85329   1.442  17.666  13.988
13004W        W85330  43.899  38.032   1.796
13005W        W85331  38.821  29.952  14.833
13006W        W85332  38.052  16.697   2.762
13007W        W85333  29.640  31.517  13.925
13008W        W85334  24.226  39.507   3.836
13009W        W85335  15.328   3.847  13.417
13010W        W85336  42.966   8.844  13.889
13011W        W85337  26.644  15.277   4.797
13012W        W85338  14.774  23.994   0.390
13013W        W85339  27.978  24.187   4.716
13014W        W85340   7.247  23.167  12.422
13015W        W85341  18.097  17.569  14.417
13016W        W85342   8.307  22.541  11.961
13017W        W85343   7.218  36.888  13.814
13018W        W85344  23.552  38.926   1.837
13019W        W85345   2.396  37.484  14.448
13020W        W85346  27.164   8.215  10.491
13021W        W85347  13.204  26.969   3.262
13022W        W85348   6.363   1.778  10.000
13023W        W85349   9.348  25.207  14.971
13024W        W85350  31.946  30.129  10.615
13025W        W85351  35.488  22.723  13.329
13026W        W85352  41.401  28.027  12.054
13027W        W85353  27.010  14.640  12.961
13028W        W85354  19.188  31.943  14.396
13029W        W85355  32.599  31.074  14.974
13030W        W85356   2.740  14.764   3.683
13031W        W85357   6.744  25.480   4.714
13032W        W85358  31.012  21.707  14.009
13033W        W85359   7.839  27.527   0.728
13034W        W85360  24.097   1.276   2.743
13035W        W85361  15.624  26.085   1.213
13036W        W85362  18.235  43.337  12.941
13037W        W85363  12.697  18.178   3.156
13038W        W85364  19.072  18.750   2.322
13039W        W85365  39.856  17.250  14.908
13040W        W85366  16.260   5.868  14.329
13041W        W85367  18.172  14.823  11.864
13042W        W85368  19.603   1.874  10.934
13043W        W85369  33.479  34.456   3.826
13044W        W85370  33.945  37.368  14.342
13045W        W85371  30.520  39.857   1.367
13046W        W85372  40.426  17.064   2.816
13047W        W85373  11.862  44.447   2.407
13048W        W85374  10.278  37.005   0.314
13049W        W85375  42.970  39.471   3.189
13050W        W85376  38.004  19.152   3.679
13051W        W85377   0.302  44.285   1.802
13052W        W85378  19.779  19.217   1.808
13053W        W85379  38.467  19.657   3.869
13054W        W85380  36.417  27.980   1.317
13055W        W85381  27.493  35.073  10.613
13056W        W85382  41.314  40.048   2.292
13057W        W85383  33.131  22.576  14.400
13058W        W85384   0.924  39.905  12.354
13059W        W85385  12.291  21.120  11.078
13060W        W85386  28.016  10.832   0.356
13061W        W85387  22.640  21.693  11.085
13062W        W85388   7.856  35.093   1.281
13063W        W85389  36.551  32.937  10.130
13064W        W85390  26.678  43.491  12.411
13065W        W85391  44.929  28.553   3.781
13066W        W85392  32.967  25.987  12.982
13067W        W85393  34.924  21.043  14.424
13068W        W85394  39.418   5.429  13.466
13069W        W85395  21.207  17.160   4.687
13070W        W85396  34.911  12.318   1.379
13071W        W85397  44.760  22.709  10.004
13072W        W85398   5.272  35.926   3.746
13073W        W85399  36.887   8.345   4.138
13074W        W85400  40.970  20.229  13.371
13075W        W85401   0.866  36.418  13.909
13076W        W85402  36.422  14.264   3.290
13077W        W85403  42.396  25.517  14.869
13078W        W85404   8.347  38.547  12.091
13079W        W85405   1.264  36.880   3.313
13080W        W85406  18.682  14.133  11.413
13081W        W85407  11.147  37.530   0.354
13082W        W85408   5.803  41.443  13.389
13083W        W85409  24.700  40.308  11.570
13084W        W85410  32.082  32.597  10.507
13085W        W85411   6.736  16.129  13.536
13086W        W85412   1.844   7.770   4.114
13087W        W85413  14.186   6.684  10.473
13088W        W85414  40.819  33.438   2.359
13089W        W85415   0.981  37.934  11.908
13090W        W85416   6.822  34.564   0.357
13091W        W85417  41.827  42.802   2.262
13092W        W85418  22.150  15.131   4.669
13093W        W85419  24.146  39.346  12.005
13094W        W85420  25.155   6.277  14.934
13095W        W85421  36.539  42.292  13.335
13096W        W85422  14.209   3.835  12.830
13097W        W85423  40.485   0.414  13.802
13098W        W85424  21.610   1.242   4.755
13099W        W85425  30.488  11.666   3.296
13100W        W85426  33.457   8.249  13.872
13101W        W85427  35.604  35.057  13.967
13102W        W85428   7.838   6.361  13.818
13103W        W85429  41.304  26.114   3.629
13104W        W85430  11.231  39.897   4.339
13105W        W85431   2.250  37.840  12.349
13106W        W85432  33.018  25.119  12.478
13107W        W85433  21.093  13.158   3.838
13108W        W85434  14.632  34.009  10.940
13109W        W85435  41.899  19.158   3.185
13110W        W85436  23.033  25.629   4.633
13111W        W85437  11.323  27.132  14.326
13112W        W85438  24.031  28.455  12.017
13113W        W85439  43.516  20.528  14.342
13114W        W85440  25.621  29.513  13.433
13115W        W85441  24.593   1.272  14.398
13116W        W85442  41.423  22.095  14.493
13117W        W85443  32.893   3.332  13.807
13118W        W85444   1.975   5.339   3.869
13119W        W85445   2.243  43.963  10.625
13120W        W85446  31.028  23.664  12.963
13121W        W85447  33.923  11.264  14.992
13122W        W85448  28.652  40.931  12.830
13123W        W85449  31.027  43.933   3.832
13124W        W85450  21.651  22.196  13.942
13125W        W85451  24.126  21.171  11.501
13126W        W85452   6.306   8.283   4.318
13127W        W85453   3.326  30.448   4.822
13128W        W85454  13.266   9.714  13.524
13129W        W85455  29.988  17.712  12.064
13130W        W85456   9.762   5.199   0.731
13131W        W85457  23.675  18.104   4.607
13132W        W85458  21.597  43.300   4.808
13133W        W85459  16.591  43.809   4.181
13134W        W85460  42.858  25.108  10.123
13135W        W85461   9.803  20.170   1.932
13136W        W85462  22.153  24.130   2.211
13137W        W85463  21.681  45.000  14.377
13138W        W85464  28.672  22.106  12.514
13139W        W85465   8.696  18.626  13.791
13140W        W85466   1.342  31.031  12.364
13141W        W85467  37.959  18.784  14.279
13142W        W85468  24.047  41.999  13.445
13143W        W85469  21.701  34.022  11.456
13144W        W85470   9.866  33.564  14.461
13145W        W85471  28.116  28.076  13.349
13146W        W85472  34.910  38.520  10.935
13147W        W85473  44.383  27.171  11.408
13148W        W85474  41.876   0.762   0.411
13149W        W85475  27.946  22.667   4.766
13150W        W85476  12.319  34.528  13.462
13151W        W85477  10.831  26.959  14.474
13152W        W85478  36.444  42.006  10.432
13153W        W85479  27.657  41.483  12.888
13154W        W85480  41.454   9.256  13.981
13155W        W85481  10.693  11.674  11.552
13156W        W85482  29.578  44.763   1.451
13157W        W85483  14.674   9.299  13.944
13158W        W85484  24.040  26.634  12.517
13159W        W85485  31.037  30.015  12.935
13160W        W85486  24.125   8.283  13.525
13161W        W85487   4.861   8.884  14.024
13162W        W85488  24.217  33.475   2.761
13163W        W85489  20.237  31.556  11.098
13164W        W85490  20.660  18.676   3.169
13165W        W85491  39.937   0.925   1.917
13166W        W85492  10.282   7.362   0.377
13167W        W85493  23.711   2.275  13.438
13168W        W85494  21.695  37.911  10.603
13169W        W85495  19.189  23.589  11.901
13170W        W85496  29.172  21.066   4.334
13171W        W85497  29.952  32.497   2.313
13172W        W85498   5.928  24.009  12.972
13173W        W85499  34.867  11.677  12.033
13174W        W85500  21.133  17.307  13.904
13175W        W85501  29.613  15.737  13.956
13176W        W85502  43.972   1.476   2.712
13177W        W85503  18.264  16.230   3.851
13178W        W85504  40.952  36.034  10.575
13179W        W85505  17.307  41.865  11.447
13180W        W85506  40.489  32.514   0.424
13181W        W85507  11.749   9.242   0.304
13182W        W85508  30.576  32.979   2.283
13183W        W85509   1.852  10.757  10.629
13184W        W85510  13.190  27.446  13.008
13185W        W85511  32.542  19.281   1.354
13186W        W85512   1.386  27.183   1.838
13187W        W85513   9.339  18.583  11.371
13188W        W85514  40.469  11.850   5.241
13189W        W85515  10.140   0.402   2.409
13190W        W85516  11.373  24.223  14.379
13191W        W85517  11.310  25.153   2.818
13192W        W85518  14.677  10.290   1.442
13193W        W85519   5.901  30.436   1.249
13194W        W85520  26.089  32.014   4.798
13195W        W85521  38.532  30.567  10.481
13196W        W85522  21.542  11.701   3.358
13197W        W85523  31.574  31.908   0.924
13198W        W85524  12.768   8.171   0.427
13199W        W85525   0.249  25.621   3.175
13200W        W85526  43.013  24.986   1.924
13201W        W85527   0.457  43.356  13.977
13202W        W85528   0.931  22.120   4.720
13203W        W85529  14.163  19.213  12.427
13204W        W85530  44.391  40.825   0.928
13205W        W85531  37.848  18.143   3.212
13206W        W85532  44.470   5.413   1.389
13207W        W85533  31.977  35.404  12.016
13208W        W85534  29.506  36.403  11.919
13209W        W85535  41.968  43.456  14.949
13210W        W85536  31.118   3.904   2.821
13211W        W85537  43.791  13.652  14.911
13212W        W85538  18.143   0.872   4.170
13213W        W85539   5.410  12.324   1.309
13214W        W85540  31.118  41.304   5.184
13215W        W85541  32.914  38.842   3.769
13216W        W85542  14.702   7.270  12.391
13217W        W85543  21.081  41.997  10.642
13218W        W85544  40.862  15.092  14.339
13219W        W85545  35.929  15.255   0.788
13220W        W85546  27.594  38.891   1.227
13221W        W85547   9.680  33.935  12.866
13222W        W85548  43.355  18.779   2.409
13223W        W85549  15.133  20.180  14.006
13224W        W85550   0.814  44.479  12.842
13225W        W85551   0.322   2.276   1.907
13226W        W85552  44.424   8.699   4.236
13227W        W85553  22.252   6.713  11.941
13228W        W85554  29.084   2.839   1.741
13229W        W85555  14.763   1.909   1.931
13230W        W85556  28.100  17.190  13.321
13231W        W85557  40.955  26.003  12.922
13232W        W85558  18.149  39.025  14.424
13233W        W85559   2.235  13.213   2.767
13234W        W85560   1.253  21.731   0.469
13235W        W85561   9.234  43.870   3.289
13236W        W85562   7.358   4.332  11.585
13237W        W85563  28.011  35.064  14.319
13238W        W85564  28.947  37.548   4.831
13239W        W85565   1.266  16.168  12.051
13240W        W85566  13.741  18.218   4.291
13241W        W85567  16.646  18.091   0.931
13242W        W85568  13.700  37.894   1.363
13243W        W85569  40.023   4.211   2.385
13244W        W85570  29.118  38.464   0.811
13245W        W85571   6.728  32.448   0.430
13246W        W85572  35.038  43.912  14.921
13247W        W85573  11.774  38.843   2.712
13248W        W85574  10.861  37.978   4.683
13249W        W85575  26.020   4.719   5.141
13250W        W85576  36.890  44.484   3.262
13251W        W85577  42.022   7.734  14.357
13252W        W85578  32.512   3.938  13.416
13253W        W85579  11.161  42.427   1.910
13254W        W85580  23.200  41.840   1.339
13255W        W85581  21.639   8.714  10.475
13256W        W85582  20.193  32.442  14.298
13257W        W85583  20.076  13.333   3.749
13258W        W85584  40.952  19.282   4.715
13259W        W85585  30.495  34.589  14.886
13260W        W85586  12.279  22.583   0.468
13261W        W85587   6.326   0.287  11.084
13262W        W85588  38.829  24.593  11.868
13263W        W85589  42.423   6.402  14.357
13264W        W85590  27.050  20.643   4.333
13265W        W85591  36.359   6.390   4.698
13266W        W85592  26.164  32.088   1.900
13267W        W85593  24.217   3.328  14.885
13268W        W85594  18.228  18.270  12.866
13269W        W85595  44.894  29.520   2.323
13270W        W85596  41.441  33.448  12.455
13271W        W85597  32.117  44.956   4.134
13272W        W85598  32.562  39.866  12.895
13273W        W85599  12.830   7.246  12.564
13274W        W85600  34.004  16.279  13.485
13275W        W85601  30.949  28.512   2.290
13276W        W85602   3.415  36.911   0.926
13277W        W85603  25.972   3.271  11.418
13278W        W85604   0.489  23.135  11.098
13279W        W85605  29.975  21.719   3.323
13280W        W85606  20.676  13.739  14.458
13281W        W85607  10.662  31.936   5.206
13282W        W85608  38.478  11.653  13.508
13283W        W85609  17.780  19.172   2.827
13284W        W85610   0.769  23.617   2.184
13285W        W85611  39.865   7.755   3.758
13286W        W85612  43.324  17.229  12.541
13287W        W85613  33.463  29.078  14.470
13288W        W85614   5.277  33.531  11.915
13289W        W85615  38.553   7.765  14.952
13290W        W85616  36.548  10.728   9.939
13291W        W85617   8.212  20.054   4.785
13292W        W85618   9.228  41.448   4.182
13293W        W85619   4.439  31.974   2.816
13294W        W85620  13.114  20.712  14.430
13295W        W85621  44.768  21.587  14.774
13296W        W85622  37.480   6.728   3.306
13297W        W85623  13.714  22.578   3.200
13298W        W85624  36.857  25.082   0.461
13299W        W85625  21.650   0.960   3.805
13300W        W85626  19.240   3.854  14.864
13301W        W85627  18.181  37.508   3.676
13302W        W85628   2.345   9.882   5.234
13303W        W85629  35.574  33.381   4.624
13304W        W85630  19.083  26.701  13.333
13305W        W85631  24.090  41.970  12.417
13306W        W85632  22.665  42.325   0.437
13307W        W85633  43.272  41.937  13.041
13308W        W85634  20.744   1.826   4.315
13309W        W85635  27.458  15.681  12.090
13310W        W85636   8.219  22.194  11.126
13311W        W85637  33.446  27.045  10.897
13312W        W85638  29.502  34.451   1.337
13313W        W85639  38.382  39.371  14.869
13314W        W85640  15.732  34.069  13.396
13315W        W85641  42.890  37.336   0.256
13316W        W85642  25.473   0.481   3.778
13317W        W85643  20.245  27.046   2.243
13318W        W85644  21.707  33.413   2.728
13319W        W85645  41.317  33.463  11.108
13320W        W85646   1.346  22.536   2.225
13321W        W85647  39.555   6.747   0.273
13322W        W85648  36.025  24.508   1.372
13323W        W85649  35.366  33.611  11.860
13324W        W85650   2.322  14.141   2.843
13325W        W85651  42.464  42.789  13.056
13326W        W85652  31.102  14.766  12.886
13327W        W85653  18.094   2.333  12.900
13328W        W85654  27.587  20.560  10.946
13329W        W85655  17.687  27.118  14.842
13330W        W85656  31.411  17.083   2.868
13331W        W85657  33.947  26.659  13.887
13332W        W85658   6.353  13.342  14.939
13333W        W85659  17.180  43.446  10.920
13334W        W85660  20.754  36.593   3.736
13335W        W85661   5.757  27.647  12.899
13336W        W85662   7.341  18.780  12.372
13337W        W85663  36.404   5.790   4.175
13338W        W85664  39.512  36.878  14.023
13339W        W85665   1.348  42.815   4.117
13340W        W85666  12.295  42.794   3.859
13341W        W85667   5.307  30.989   4.672
13342W        W85668  19.594  11.681  11.496
13343W        W85669   7.746  37.366   2.794
13344W        W85670  24.675   9.722   2.365
13345W        W85671  20.202  18.056  14.960
13346W        W85672  24.525  11.340  12.503
13347W        W85673   8.710  12.792  11.875
13348W        W85674  21.258   9.259  12.852
13349W        W85675   1.333  34.103  13.442
13350W        W85676  43.334  28.527   4.174
13351W        W85677   0.786  25.594   1.411
13352W        W85678  33.093   3.947  13.451
13353W        W85679   0.863  32.134  12.475
13354W        W85680   8.773  41.341   1.763
13355W        W85681   0.909  31.601  11.433
13356W        W85682  12.698   5.225   2.181
13357W        W85683  37.083   1.874   0.794
13358W        W85684   2.316  31.115   1.339
13359W        W85685  42.980  43.489   4.785
13360W        W85686  41.462  13.206   1.309
13361W        W85687  44.767  31.621  14.820
13362W        W85688  39.929  43.902  11.918
13363W        W85689  14.691  32.129   1.854
13364W        W85690  44.796  19.640  12.004
13365W        W85691  17.673   3.398   5.236
13366W        W85692  14.160  15.624  10.892
13367W        W85693  36.370  37.463  14.351
13368W        W85694  21.729  22.654  10.020
13369W        W85695  27.460  41.322   0.396
13370W        W85696  32.397  37.941  13.053
13371W        W85697   1.474  40.320   0.300
13372W        W85698  20.115  22.613  13.385
13373W        W85699  41.309   0.324  12.840
13374W        W85700  42.469   7.683  10.540
13375W        W85701  38.436  13.627  12.024
13376W        W85702  35.534   2.386  12.855
13377W        W85703  34.063   9.284  10.900
13378W        W85704  30.104  26.099   5.709
13379W        W85705   3.916  16.152   4.733
13380W        W85706  12.785   3.379   3.190
13381W        W85707  35.028  25.159  10.949
13382W        W85708  21.103  37.399  13.489
13383W        W85709   6.897  29.656   3.304
13384W        W85710  39.048   4.396  13.991
13385W        W85711  38.854  31.974   2.362
13386W        W85712  38.064  23.005  13.547
13387W        W85713  42.839  35.079   2.714
13388W        W85714  25.600  12.253  12.966
13389W        W85715  41.954  39.401   1.220
13390W        W85716  22.009   3.931   1.834
13391W        W85717  28.490  13.603   4.693
13392W        W85718  27.457  39.025  11.052
13393W        W85719  42.322  42.974  14.503
13394W        W85720   0.839  28.606  11.028
13395W        W85721   8.245  31.546   4.785
13396W        W85722  37.035  12.820   9.527
13397W        W85723   7.246  12.758   4.139
13398W        W85724   4.243  43.791   3.647
13399W        W85725   3.299  10.253   1.769
13400W        W85726  31.478  34.042  13.881
13401W        W85727  30.134  33.457   1.830
13402W        W85728  36.358  37.414   3.244
13403W        W85729  19.182  11.276   3.712
13404W        W85730  20.136  40.912  14.932
13405W        W85731  13.760  15.647  14.443
13406W        W85732   3.721  24.501  12.999
13407W        W85733  31.103  19.187   0.916
13408W        W85734  24.525  13.127   1.447
13409W        W85735  22.705   9.185   3.367
13410W        W85736  18.272   0.875   0.297
13411W        W85737  30.152   3.808   3.800
13412W        W85738  38.444  20.190   1.723
13413W        W85739  16.653  31.510   3.695
13414W        W85740  18.681  35.465  14.387
13415W        W85741   6.194  22.017  11.999
13416W        W85742  20.224  14.828  12.829
13417W        W85743  44.417  44.999   2.667
13418W        W85744  35.376  37.436   4.161
13419W        W85745  31.643  42.340  13.534
13420W        W85746  19.059  41.365  14.763
13421W        W85747  31.934  40.522   3.326
13422W        W85748  33.428   4.851  12.345
13423W        W85749   7.755   8.820  12.924
13424W        W85750  24.501   1.875   1.239
13425W        W85751  31.608  12.166  13.533
13426W        W85752   3.314   2.886  13.443
13427W        W85753  30.488  11.695  10.503
13428W        W85754  15.740  37.858   2.839
13429W        W85755  34.569  39.390  13.410
13430W        W85756   9.780  14.821  14.339
13431W        W85757  35.989  18.137  12.909
13432W        W85758   7.808  26.015   1.306
13433W        W85759  15.681  13.619   3.164
13434W        W85760  33.130  17.709  13.495
13435W        W85761  32.602   9.739   2.403
13436W        W85762  31.631  34.525  13.512
13437W        W85763   4.219  40.516  11.405
13438W        W85764  27.161  38.990   0.846
13439W        W85765  34.871  20.575  12.916
13440W        W85766  34.114  37.865   3.333
13441W        W85767   3.461   6.695   3.814
13442W        W85768  12.234  35.461   4.274
13443W        W85769  37.507  29.537  11.568
13444W        W85770  34.436   9.848   1.377
13445W        W85771  32.514  19.163  10.894
13446W        W85772  20.149  12.798   3.795
13447W        W85773  44.790  27.640  11.128
13448W        W85774  37.429  10.725   1.704
13449W        W85775  17.788  22.683   1.787
13450W        W85776  36.851  16.655  14.962
13451W        W85777  36.900  17.118   4.733
13452W        W85778   3.762  12.188   2.229
13453W        W85779  17.766  33.027  11.055
13454W        W85780   7.885   0.777   2.896
13455W        W85781  14.272  30.030  13.457
13456W        W85782  12.839   2.720  14.352
13457W        W85783  40.808  16.158  10.622
13458W        W85784   4.804   8.269   0.798
13459W        W85785  13.319  32.583   0.319
13460W        W85786  17.718   7.691  10.915
13461W        W85787  26.487   5.749  13.513
13462W        W85788  16.803  10.197  11.474
13463W        W85789  37.471   6.895  11.108
13464W        W85790  15.193  25.651  14.406
13465W        W85791  24.551  42.911  11.531
13466W        W85792  32.426   5.798  13.951
13467W        W85793  13.208  42.966   5.094
13468W        W85794  17.682  13.192   1.300
13469W        W85795  16.092  21.592   2.816
13470W        W85796  37.838  24.720  14.823
13471W        W85797  37.047  23.070  13.361
13472W        W85798  29.014  34.420   3.345
13473W        W85799  23.687  37.545   5.318
13474W        W85800  34.486  41.378   1.431
13475W        W85801  16.580  25.662  10.887
13476W        W85802  12.261  21.100  12.575
13477W        W85803  20.571  28.554  14.432
13478W        W85804  43.015   3.859  12.876
13479W        W85805  38.434  36.520   2.865
13480W        W85806  21.231  31.095  12.507
13481W        W85807  43.821  11.639  11.560
13482W        W85808  16.634  41.042   0.926
13483W        W85809  33.023  27.634  11.415
13484W        W85810  28.465   8.384   2.243
13485W        W85811  24.555  33.999   0.859
13486W        W85812  12.280   1.365  10.581
13487W        W85813  30.545  19.538  11.563
13488W        W85814   1.851  11.763  14.764
13489W        W85815  43.407   9.878   4.626
13490W        W85816  15.584  42.860   0.444
13491W        W85817  20.107  12.186   2.218
13492W        W85818  27.555   0.895   0.250
13493W        W85819  18.584  20.224   2.377
13494W        W85820   5.804   7.777  11.546
13495W        W85821   1.245   7.774  12.882
13496W        W85822  14.309  42.991  13.002
13497W        W85823  44.269  24.677   0.782
13498W        W85824  35.554  20.652   2.352
13499W        W85825  31.518   1.937   0.301
13500W        W85826   8.655  38.988  10.606
13501W        W85827  11.766  17.127  14.874
13502W        W85828  30.448  18.051   2.799
13503W        W85829  44.407  44.963  14.425
13504W        W85830  38.066  22.736  13.363
13505W        W85831  43.804  12.768   4.166
13506W        W85832   0.946   4.939   3.318
13507W        W85833  23.070   1.864   2.740
13508W        W85834  13.310   3.398   0.779
13509W        W85835  39.840  22.628   2.842
13510W        W85836  35.468  25.468   3.304
13511W        W85837  37.551   4.215  13.514
13512W        W85838  29.543  18.766  10.416
13513W        W85839   8.345  21.626  11.948
13514W        W85840   1.467  19.265  14.371
13515W        W85841  29.992  43.465  12.426
13516W        W85842  44.883   1.813   4.316
13517W        W85843  40.871  40.471   3.667
13518W        W85844  31.127  42.814   0.323
13519W        W85845   4.441  33.573  11.540
13520W        W85846  31.942  15.738   2.222
13521W        W85847   2.919   5.399   0.246
13522W        W85848  38.378  26.587  12.528
13523W        W85849  17.717  29.934   1.357
13524W        W85850  10.743   3.384   1.754
13525W        W85851  14.326  41.997  14.881
13526W        W85852  38.919   9.882  10.581
13527W        W85853  40.984  34.547   3.855
13528W        W85854  29.108   4.811  11.568
13529W        W85855  10.830  28.032   4.656
13530W        W85856  37.386   9.343  11.388
13531W        W85857  31.605  10.811   1.902
13532W        W85858  21.233  30.996  14.797
13533W        W85859  34.889  27.099   4.139
13534W        W85860   2.237   9.869  11.877
13535W        W85861  27.190  15.096  10.612
13536W        W85862  43.335  24.542   3.777
13537W        W85863   0.922  24.696  10.628
13538W        W85864  16.115  19.065   0.404
13539W        W85865  13.281  21.672   0.828
13540W        W85866   7.805  37.488   2.183
13541W        W85867  41.909  14.334  12.839
13542W        W85868   0.479  12.833  10.946
13543W        W85869  25.165   5.723   0.296
13544W        W85870  14.657  14.252   3.206
13545W        W85871  18.085  41.033  12.521
13546W        W85872  44.405   1.869  10.463
13547W        W85873  30.619  20.077  10.507
13548W        W85874   0.472  19.772   3.728
13549W        W85875  34.522  33.954   4.248
13550W        W85876  25.616  39.979  14.400
13551W        W85877   3.276   6.818   2.379
13552W        W85878  18.628  39.384   2.747
13553W        W85879  20.627   3.311   0.299
13554W        W85880  14.729  19.247   4.673
13555W        W85881  23.687  21.222   2.413
13556W        W85882  28.616  34.568  10.464
13557W        W85883  14.128   9.852  14.452
13558W        W85884  29.919  12.285  14.019
13559W        W85885   8.744  24.653   2.413
13560W        W85886  28.521   6.738   0.476
13561W        W85887  18.577  27.162  10.567
13562W        W85888  11.669  20.097   1.271
13563W        W85889  28.021  19.231   1.753
13564W        W85890   9.393  35.085  13.839
13565W        W85891  43.387  21.647  10.530
13566W        W85892  20.599  37.379   2.368
13567W        W85893  43.977   1.793  14.016
13568W        W85894  41.935   5.350  14.893
13569W        W85895  12.342  21.189   2.255
13570W        W85896  17.784  42.854   0.354
13571W        W85897  34.105  35.883   2.709
13572W        W85898  21.654   0.250   2.298
13573W        W85899  42.878   3.769   0.878
13574W        W85900  35.381  23.707   2.808
13575W        W85901  19.163  44.487   2.825
13576W        W85902  14.147  23.998  11.856
13577W        W85903  28.582  43.992  14.027
13578W        W85904  41.506  34.024  14.968
13579W        W85905   6.390  11.804   2.410
13580W        W85906   3.261  12.760   2.681
13581W        W85907   9.646  19.059  14.912
13582W        W85908  44.460  22.032   4.311
13583W        W85909  16.255  40.348   0.804
13584W        W85910  31.448  27.048   2.684
13585W        W85911  22.219  23.500   2.831
13586W        W85912  21.571  42.975  11.911
13587W        W85913  24.540  19.630   0.330
13588W        W85914  40.018  24.029   0.860
13589W        W85915  31.572  38.546  13.900
13590W        W85916  40.373  42.523  13.506
13591W        W85917  36.088  24.167  11.559
13592W        W85918  17.142  12.628  11.490
13593W        W85919  24.227  18.727  10.616
13594W        W85920   6.680  33.035  11.530
13595W        W85921  30.601  10.160   1.223
13596W        W85922   9.390  38.468   3.318
13597W        W85923  13.617  21.513   3.753
13598W        W85924  19.541   1.820  14.391
13599W        W85925  35.418  21.165   4.281
13600W        W85926  25.512  35.017  14.998
13601W        W85927  22.195  39.906  13.993
13602W        W85928  24.094  31.612  10.895
13603W        W85929  30.125  31.481  13.531
13604W        W85930   3.872  12.714   2.200
13605W        W85931  29.472  30.059   2.387
13606W        W85932  19.557  44.766   3.866
13607W        W85933  44.450  34.607  10.151
13608W        W85934   7.383  21.627  10.953
13609W        W85935   6.308  27.093  12.515
13610W        W85936  33.025  23.176  11.602
13611W        W85937  23.708   3.408   2.330
13612W        W85938   2.863   3.239   0.349
13613W        W85939  17.296  41.877  13.511
13614W        W85940  39.353   4.937  12.891
13615W        W85941  28.643  32.990  13.036
13616W        W85942   0.290   9.225  12.998
13617W        W85943  31.102  35.558  13.922
13618W        W85944  43.396   7.895   0.935
13619W        W85945  16.745  21.630  14.837
13620W        W85946  18.556  39.517  12.402
13621W        W85947  17.683   1.469  10.519
13622W        W85948   4.830  27.663  14.860
13623W        W85949  23.088  35.363  13.407
13624W        W85950  43.416  36.861  14.880
13625W        W85951  24.226  25.965   2.265
13626W        W85952  19.633  39.967   0.945
13627W        W85953  32.114  21.172   3.837
13628W        W85954  32.929  30.531   2.298
13629W        W85955  14.144  43.845   1.261
13630W        W85956   6.232   7.399   2.410
13631W        W85957  13.152  13.728   3.709
13632W        W85958  31.915  14.830   0.739
13633W        W85959  40.809  30.469  13.518
13634W        W85960  37.964  36.905  13.824
13635W        W85961  40.469  41.444   3.315
13636W        W85962  12.174  32.062   2.875
13637W        W85963  30.425  37.948   4.715
13638W        W85964  22.706  42.512   1.852
13639W        W85965  31.569  15.285  14.291
13640W        W85966   5.725  38.941  12.339
13641W        W85967  17.086  11.343  12.986
13642W        W85968  27.630  44.334  12.388
13643W        W85969  40.945  25.674   1.283
13644W        W85970  33.579  44.296  10.958
13645W        W85971  15.239   7.897   3.205
13646W        W85972   6.909  30.051   2.669
13647W        W85973  19.124  35.572  12.944
13648W        W85974  15.278   9.817  11.098
13649W        W85975  16.566  27.991   3.829
13650W        W85976  42.335   8.699  14.943
13651W        W85977  37.910  24.590   0.315
13652W        W85978  33.083  41.495   1.249
13653W        W85979  30.652  18.659   1.790
13654W        W85980  26.954  33.491  14.962
13655W        W85981  24.137  13.802  10.991
13656W        W85982   6.799   8.223   3.344
13657W        W85983  13.294  13.243  10.473
13658W        W85984   2.846  21.100   4.121
13659W        W85985  43.430  14.302   3.759
13660W        W85986  16.083  23.701   4.706
13661W        W85987  41.854  25.671  11.434
13662W        W85988  39.045  20.057   0.881
13663W        W85989  19.232  19.215   4.162
13664W        W85990  26.589  20.624   0.434
13665W        W85991  15.694  27.632  14.813
13666W        W85992  37.984  31.106   3.761
13667W        W85993  35.037  12.839   1.721
13668W        W85994  16.761  22.691  13.423
13669W        W85995  26.091  15.304  13.999
13670W        W85996  42.974  14.651  11.896
13671W        W85997   5.726  15.742  10.562
13672W        W85998  42.405  20.633  11.590
13673W        W85999  24.052  38.880  11.991
13674W        W86000   9.773   1.340   3.781
13675W        W86001  43.327  31.966  13.998
13676W        W86002  27.559  11.657   2.304
13677W        W86003  13.631   2.331   4.695
13678W        W86004  34.926  42.414  10.573
13679W        W86005  10.373  28.995  14.830
13680W        W86006  20.273  18.203  12.010
13681W        W86007  16.771   7.253  11.567
13682W        W86008  12.199  19.609   4.778
13683W        W86009  31.546   5.786  14.300
13684W        W86010  30.482  35.379   2.701
13685W        W86011  38.439  28.460   1.789
13686W        W86012   7.668  40.957   3.284
13687W        W86013  23.640  30.431  11.896
13688W        W86014  12.684   0.327  11.567
13689W        W86015  26.594  35.932  12.963
13690W        W86016   6.423  39.982   0.842
13691W        W86017  26.547  25.631   2.815
13692W        W86018  35.461  35.535   5.589
13693W        W86019   6.685  25.102   0.765
13694W        W86020   7.823  26.682  10.499
13695W        W86021   4.878   8.881  11.481
13696W        W86022   2.395   7.304   0.742
13697W        W86023   6.921  14.215  13.416
13698W        W86024  36.506   0.805  14.875
13699W        W86025  18.198  31.418   4.830
13700W        W86026  10.788  38.537  14.003
13701W        W86027  41.448  18.206  13.506
13702W        W86028  35.101  43.019  11.994
13703W        W86029  43.865  37.843   0.732
13704W        W86030  16.691  42.516   1.768
13705W        W86031  15.244   6.734   2.269
13706W        W86032  15.125  21.022  10.616
13707W        W86033  20.758  22.184  14.440
13708W        W86034  34.390   1.763  11.887
13709W        W86035  11.262   7.723  13.006
13710W        W86036  20.140  33.436  10.633
13711W        W86037   0.441   5.931   1.383
13712W        W86038  10.296   6.419  10.553
13713W        W86039  33.595   6.330  11.942
13714W        W86040  22.237  11.647   3.365
13715W        W86041  16.237  20.586   1.291
13716W        W86042  25.992  44.799   4.227
13717W        W86043   0.321   1.448   2.183
13718W        W86044  27.014  21.080  12.877
13719W        W86045  38.061  41.323   1.434
13720W        W86046  16.126   9.855  10.640
13721W        W86047  39.371  19.616   3.294
13722W        W86048   7.278   9.766  10.950
13723W        W86049  19.686   2.259  12.901
13724W        W86050   7.301  29.115   0.292
13725W        W86051  24.983  16.241   3.282
13726W        W86052  40.531  18.253  14.797
13727W        W86053  37.473   5.288   1.224
13728W        W86054  25.652  28.674   2.826
13729W        W86055  36.445   9.814   2.343
13730W        W86056   3.872   1.900   3.776
13731W        W86057  37.471  40.377  12.048
13732W        W86058   1.761  11.818   9.944
13733W        W86059  39.522  15.586  13.918
13734W        W86060   8.786  16.763   2.722
13735W        W86061  37.426  11.363   2.396
13736W        W86062   6.302  12.193  13.796
13737W        W86063   9.204   0.825  13.845
13738W        W86064  22.038  25.686   0.275
13739W        W86065  33.565  44.452  10.086
13740W        W86066  29.938  21.163  13.349
13741W        W86067  36.998  31.413   0.967
13742W        W86068  17.639  22.240  11.931
13743W        W86069  29.430   7.881   4.617
13744W        W86070  40.053   9.691  12.849
13745W        W86071   9.217   4.783   4.694
13746W        W86072  24.983  10.843  10.474
13747W        W86073  10.179  33.122   1.272
13748W        W86074  30.528  10.706   1.401
13749W        W86075  10.367  26.113   1.300
13750W        W86076  33.496  38.819   0.935
13751W        W86077  22.533  16.147   4.208
13752W        W86078   4.765  25.651  14.415
13753W        W86079  27.981   4.866   4.606
13754W        W86080  13.164  23.608  13.421
13755W        W86081  31.137  35.107  10.610
13756W        W86082  28.082  24.027  12.368
13757W        W86083  13.616   2.253  11.057
13758W        W86084   0.354  32.085  14.301
13759W        W86085  33.524  36.060   2.210
13760W        W86086  38.382  34.502   3.326
13761W        W86087  13.660  27.633   0.462
13762W        W86088  42.920   7.741   1.243
13763W        W86089  22.579  32.623  11.886
13764W        W86090   7.669   7.284  11.113
13765W        W86091  34.476  40.892  12.529
13766W        W86092  39.818  39.880  10.491
13767W        W86093  33.088  31.073  13.335
13768W        W86094  36.070  36.957   0.805
13769W        W86095  24.577   4.377   4.353
13770W        W86096  34.040  31.070   2.234
13771W        W86097  36.940   3.395   0.468
13772W        W86098  14.240  38.481   3.364
13773W        W86099  33.892  18.581   4.708
13774W        W86100  27.130  23.651   3.784
13775W        W86101  44.887  44.968   1.450
13776W        W86102  33.035  17.304  14.770
13777W        W86103  32.117  14.750   0.448
13778W        W86104  34.079  15.784  12.439
13779W        W86105  29.116   9.152  11.027
13780W        W86106  37.075   1.786  14.367
13781W        W86107  35.983   2.814   4.665
13782W        W86108  27.584  27.138  10.489
13783W        W86109   9.156   9.681  12.988
13784W        W86110  17.696  22.039  13.977
13785W        W86111   9.738  25.604   1.288
13786W        W86112  19.276  23.687   3.749
13787W        W86113  18.710  41.387  14.440
13788W        W86114  25.097  17.783   2.394
13789W        W86115  23.590  13.128  10.612
13790W        W86116  16.283   8.788   4.173
13791W        W86117  29.573  40.510  14.839
13792W        W86118  32.972  22.062   4.124
13793W        W86119   9.235  15.640   1.710
13794W        W86120   8.343  17.099  13.938
13795W        W86121  37.067  41.949  13.006
13796W        W86122  40.955  13.714  14.880
13797W        W86123  19.635  17.306  12.514
13798W        W86124   5.870  37.340   4.354
13799W        W86125  31.934  21.544  14.320
13800W        W86126  11.170  39.354   3.376
13801W        W86127  20.092  38.523  13.864
13802W        W86128  30.100  21.549  13.870
13803W        W86129   7.184   5.353   4.320
13804W        W86130  28.136   6.328  11.941
13805W        W86131  27.103  34.502   1.291
13806W        W86132  31.643  18.563   1.407
13807W        W86133   1.811  34.987   2.893
13808W        W86134   4.798  34.899  14.439
13809W        W86135  18.780  18.259  11.891
13810W        W86136  44.859  33.885  11.401
13811W        W86137  42.310   0.887   1.210
13812W        W86138  15.738  17.281   0.871
13813W        W86139  44.418   9.242   5.258
13814W        W86140   4.406   6.742  14.386
13815W        W86141   2.937  12.753   5.088
13816W        W86142  32.440  29.451   0.931
13817W        W86143  12.822  29.017  10.548
13818W        W86144  37.367  34.930   3.218
13819W        W86145   1.317  12.236   1.376
13820W        W86146   8.186  38.390  12.972
13821W        W86147  31.045  13.138   3.653
13822W        W86148  40.987  39.890  14.937
13823W        W86149  22.177  13.835   4.279
13824W        W86150  43.447  10.178  10.613
13825W        W86151  27.081   3.322  11.598
13826W        W86152  13.318  26.504   1.928
13827W        W86153   7.755   9.791  11.938
13828W        W86154  40.326   1.976   5.304
13829W        W86155  15.261   3.745  14.279
13830W        W86156  38.980  13.238  11.470
13831W        W86157  13.180  30.059  10.447
13832W        W86158   6.680  40.331   3.653
13833W        W86159  40.316  13.768  14.446
13834W        W86160  11.313  20.640   3.336
13835W        W86161  20.630  33.079   3.205
13836W        W86162  22.560  17.583   0.300
13837W        W86163  39.843  20.732   0.862
13838W        W86164  14.698  26.167   1.713
13839W        W86165  23.084  38.476   1.247
13840W        W86166  26.646  10.676   1.443
13841W        W86167   1.288  15.124  12.030
13842W        W86168   8.203  10.877  11.002
13843W        W86169  35.876  19.633  14.867
13844W        W86170   7.769  43.973  12.422
13845W        W86171  10.356  43.999   3.201
13846W        W86172  24.034   9.783   4.143
13847W        W86173  11.242   6.375  13.953
13848W        W86174  22.196  22.152   1.777
13849W        W86175  14.617  34.878  11.891
13850W        W86176  30.460  29.660  12.493
13851W        W86177  25.498  11.187  14.425
13852W        W86178  13.627  26.017  11.443
13853W        W86179  17.736  35.465  10.466
13854W        W86180  41.293  28.480   4.817
13855W        W86181  19.560   0.371   2.808
13856W        W86182  28.435  42.921  11.475
13857W        W86183  22.011  38.831   2.330
13858W        W86184   3.278   0.407  13.999
13859W        W86185  33.128  32.543  10.487
13860W        W86186   5.288  42.522   2.743
13861W        W86187  31.064  12.355   4.709
13862W        W86188  35.508  11.662   0.408
13863W        W86189  13.747  36.416   2.332
13864W        W86190  13.188  27.095   3.696
13865W        W86191  32.026  15.165   0.255
13866W        W86192  41.350  22.046  11.866
13867W        W86193  29.942   7.702   4.148
13868W        W86194  40.524   8.720   1.839
13869W        W86195  36.903  18.700   3.218
13870W        W86196   4.927   3.390  10.507
13871W        W86197   8.396  23.152  12.518
13872W        W86198  21.753  25.101  14.938
13873W        W86199  12.136   3.362   4.687
13874W        W86200  26.091   5.420   2.298
13875W        W86201   7.841  32.602  14.810
13876W        W86202  42.942  24.138  13.987
13877W        W86203  22.160  33.406   3.837
13878W        W86204  43.839  26.684   3.742
13879W        W86205  30.970  19.266   0.334
13880W        W86206   1.290  36.030   0.824
13881W        W86207  39.845  19.736  13.381
13882W        W86208   2.361  28.123  14.798
13883W        W86209  33.492  29.554  11.889
13884W        W86210  39.821   1.284  14.341
13885W        W86211  31.027  35.422  12.360
13886W        W86212  13.823  43.285   1.245
13887W        W86213  31.423   9.858  10.541
13888W        W86214  21.255   0.930   1.896
13889W        W86215  25.036  41.520   4.656
13890W        W86216   1.743  30.511   0.779
13891W        W86217   4.783  17.732  11.433
13892W        W86218  32.447  32.419   3.309
13893W        W86219  28.465  14.812  10.992
13894W        W86220  11.852   2.847  10.046
13895W        W86221   4.204  29.935   4.708
13896W        W86222  17.217  23.590   0.477
13897W        W86223  12.648  39.041  12.513
13898W        W86224   1.896  25.005  12.380
13899W        W86225  44.824  40.499   3.167
13900W        W86226  35.403  23.642   0.444
13901W        W86227  34.606  35.433   2.732
13902W        W86228  24.647  28.519  12.913
13903W        W86229  22.672  17.615   1.311
13904W        W86230  36.959  31.914  10.143
13905W        W86231  23.691  36.486   4.171
13906W        W86232   6.285  36.588  12.830
13907W        W86233  35.530  26.184   3.164
13908W        W86234   2.880  43.823   0.772
13909W        W86235  36.350  25.086   2.228
13910W        W86236  12.828   7.254   1.844
13911W        W86237  23.607   8.823   0.460
13912W        W86238   0.253  38.398  14.847
13913W        W86239  42.527   6.402   4.648
13914W        W86240  27.952   6.358  11.521
13915W        W86241  12.758   9.685   0.748
13916W        W86242  15.302  35.951  14.338
13917W        W86243  42.505  19.228   0.335
13918W        W86244  12.829  14.594  14.280
13919W        W86245  26.036  39.938   1.244
13920W        W86246   9.753  31.091  14.347
13921W        W86247   6.823  43.296   2.361
13922W        W86248  14.137   4.267   1.889
13923W        W86249  11.753  36.048  11.590
13924W        W86250  20.549  27.057   2.843
13925W        W86251  19.205  20.749   0.476
13926W        W86252  34.904   4.932   4.177
13927W        W86253  22.100  12.733   1.728
13928W        W86254   6.798  12.808  13.054
13929W        W86255  41.859  41.988  14.979
13930W        W86256  30.998  29.483  10.625
13931W        W86257   3.281  13.620   2.890
13932W        W86258  30.909   7.359  13.358
13933W        W86259  25.037  17.141   4.121
13934W        W86260  25.711  27.643  10.100
13935W        W86261  15.178  40.967   1.392
13936W        W86262  41.978  30.125  13.057
13937W        W86263   0.328  40.890   1.837
13938W        W86264  40.856  30.549   2.260
13939W        W86265  11.847  31.093  14.475
13940W        W86266  28.665  35.424   0.856
13941W        W86267  28.659  35.489  14.394
13942W        W86268  25.663  10.636   1.290
13943W        W86269   1.460  11.865  14.925
13944W        W86270  40.430  19.161  12.031
13945W        W86271  25.117  21.037   4.258
13946W        W86272  43.474  18.180   2.691
13947W        W86273  31.432  18.635   3.356
13948W        W86274  40.486  40.455   0.856
13949W        W86275  43.003   1.347   4.616
13950W        W86276   7.773   4.825   4.773
13951W        W86277   7.864  39.512  10.890
13952W        W86278  34.092  35.974   1.876
13953W        W86279  13.336   6.219  11.575
13954W        W86280   1.439  14.833  11.585
13955W        W86281   7.827   9.311   2.813
13956W        W86282   6.771  30.922  14.379
13957W        W86283  12.849  29.427  12.472
13958W        W86284  22.732  25.542   9.945
13959W        W86285  22.115  35.529  11.899
13960W        W86286   3.931  20.059  13.031
13961W        W86287   5.721  28.025  13.500
13962W        W86288  44.329   8.174  11.054
13963W        W86289   0.369  10.375  12.505
13964W        W86290  13.129  23.580  14.988
13965W        W86291  38.483   3.217   0.421
13966W        W86292  42.970   4.256  10.968
13967W        W86293  23.984  37.014  10.135
13968W        W86294  16.189  18.744   1.411
13969W        W86295  11.371  31.513  11.875
13970W        W86296  15.173  17.089   3.290
13971W        W86297  23.100  21.633  11.093
13972W        W86298  12.136   2.730  11.576
13973W        W86299  38.948   2.404   4.612
13974W        W86300  17.158  28.951  13.988
13975W        W86301  21.168  41.329   4.162
13976W        W86302  12.721  41.299  14.965
13977W        W86303  43.512  13.649   3.285
13978W        W86304  39.932   6.684  12.415
13979W        W86305   5.242  37.431  13.439
13980W        W86306  35.591  15.613   5.267
13981W        W86307  38.899  16.166  11.999
13982W        W86308   9.271  20.032  12.025
13983W        W86309  13.777  10.804  12.065
13984W        W86310  30.650  27.668  14.974
13985W        W86311  16.577  25.482  11.884
13986W        W86312   0.814   3.217  12.546
13987W        W86313  20.228  12.278  11.568
13988W        W86314  18.268   6.829  14.858
13989W        W86315  19.731   9.740  14.479
13990W        W86316   2.786  33.962   3.760
13991W        W86317  43.926  37.914  14.836
13992W        W86318   5.321  27.514  13.440
13993W        W86319  28.457  30.069   3.175
13994W        W86320  29.145  36.496  12.574
13995W        W86321   5.223  24.009  12.551
13996W        W86322  12.337  16.307   1.429
13997W        W86323   0.253  20.173  13.978
13998W        W86324  26.200  36.572   0.298
13999W        W86325   7.208  14.140  14.966
14000W        W86326   1.265  16.610  11.607
14001W        W86327   3.919  42.446  11.609
14002W        W86328  24.512  35.496   1.792
14003W        W86329  23.587  27.019   3.685
14004W        W86330  19.225  37.056   4.749
14005W        W86331  11.261  27.009   2.723
14006W        W86332   5.330  24.710  11.865
14007W        W86333   8.886  39.528   4.222
14008W        W86334   7.344  28.021   3.752
14009W        W86335   9.727   4.233  10.988
14010W        W86336  36.503  18.720  11.035
14011W        W86337  10.156  19.050   1.386
14012W        W86338  40.904  33.071  14.282
14013W        W86339  23.187   2.237   3.321
14014W        W86340  28.070  37.994  10.929
14015W        W86341  39.413  10.329   4.304
14016W        W86342  41.305  16.711   4.651
14017W        W86343   9.860  19.125  11.062
14018W        W86344  15.680  30.131  11.030
14019W        W86345  40.473  24.540   3.794
14020W        W86346  42.848  41.527   4.161
14021W        W86347  28.016  25.697   5.119
14022W        W86348  15.618  34.462   0.842
14023W        W86349   7.323  33.608  12.510
14024W        W86350  34.557  31.117   4.342
14025W        W86351  30.530  41.338   4.670
14026W        W86352  41.818  18.122   3.353
14027W        W86353   0.437  29.075   2.676
14028W        W86354   7.179  22.574  11.084
14029W        W86355  12.701  32.021   3.314
14030W        W86356  27.676  18.779   4.122
14031W        W86357  38.375  36.518   1.856
14032W        W86358   1.244   7.410  10.572
14033W        W86359  17.094  31.122   4.255
14034W        W86360  34.439  40.325   2.720
14035W        W86361  20.659  22.213   0.343
14036W        W86362  22.084  22.655   2.819
14037W        W86363   0.831  34.969   4.813
14038W        W86364  15.217  19.776   2.786
14039W        W86365   3.341  35.074   3.641
14040W        W86366  14.281  44.263   2.397
14041W        W86367  40.007  10.163  11.038
14042W        W86368   6.726  23.092  14.305
14043W        W86369  40.048  11.623   2.284
14044W        W86370   2.283  12.235   1.774
14045W        W86371  15.755  10.360  12.353
14046W        W86372   1.948  13.612   4.609
14047W        W86373   7.308  16.709  14.910
14048W        W86374  41.532  36.914  11.122
14049W        W86375   2.225  13.207   3.203
14050W        W86376  22.042  12.696  13.015
14051W        W86377   8.821  42.889   9.934
14052W        W86378  34.034  12.141  11.062
14053W        W86379  38.993  42.392   2.220
14054W        W86380  19.702   8.220   1.231
14055W        W86381  20.705   4.804   3.267
14056W        W86382  20.223  16.206   4.173
14057W        W86383  42.300  12.785  14.784
14058W        W86384  38.995   9.888   9.988
14059W        W86385  30.580  22.029   1.808
14060W        W86386  44.896  13.261  14.970
14061W        W86387  14.815  34.595  10.137
14062W        W86388  27.159  44.870  12.080
14063W        W86389  38.922  22.178  10.068
14064W        W86390   0.864   0.268  13.875
14065W        W86391   9.322  17.126   3.796
14066W        W86392  36.423  11.760   0.369
14067W        W86393   6.385  34.376  11.084
14068W        W86394   9.158  39.468  12.534
14069W        W86395  23.031  26.500  14.005
14070W        W86396  40.893   8.828   2.738
14071W        W86397  12.327  40.876   4.797
14072W        W86398  23.658  39.525   3.723
14073W        W86399   4.769  18.755  13.937
14074W        W86400  34.110  39.039  11.439
14075W        W86401  31.934  31.015   0.411
14076W        W86402  40.021  21.068  12.051
14077W        W86403  15.136  17.740   2.269
14078W        W86404  36.515  18.632   3.239
14079W        W86405  22.089  41.991   1.914
14080W        W86406  42.974  16.229  11.438
14081W        W86407  44.400   6.223   2.886
14082W        W86408  42.776  35.993   2.284
14083W        W86409  10.644  35.919   5.115
14084W        W86410   8.341  26.049  12.962
14085W        W86411  41.947  43.410   2.782
14086W        W86412  36.085   5.305   3.221
14087W        W86413  30.045   9.349  14.879
14088W        W86414  40.328  29.478   5.128
14089W        W86415  10.668  44.425  10.487
14090W        W86416  21.197  13.731   3.187
14091W        W86417  14.816  24.101  11.408
14092W        W86418  40.922  39.437  11.524
14093W        W86419  28.600  18.210  14.378
14094W        W86420  20.232  13.703   1.875
14095W        W86421  27.515  30.936  11.448
14096W        W86422  34.107  37.578   3.866
14097W        W86423  32.505  33.962  12.530
14098W        W86424  40.822  15.675   3.161
14099W        W86425   4.290  16.610  14.340
14100W        W86426  10.850   3.275  14.905
14101W        W86427  28.449  41.525  11.883
14102W        W86428  11.803  42.779   0.776
14103W        W86429  27.059  35.379  12.978
14104W        W86430  28.560  26.104   5.197
14105W        W86431  18.272  28.063   1.706
14106W        W86432  24.717  37.850  12.500
14107W        W86433  36.535  12.206   3.831
14108W        W86434  35.412   2.270  13.799
14109W        W86435   2.946  19.253   2.372
14110W        W86436  12.276  22.586  11.080
14111W        W86437  24.629   3.767  12.562
14112W        W86438  14.289   2.755  11.455
14113W        W86439  35.077  39.476   0.345
14114W        W86440  22.744  14.724  14.793
14115W        W86441   3.735  36.863   0.402
14116W        W86442   3.742  15.220  12.351
14117W        W86443   5.294  11.842  12.464
14118W        W86444  32.557  22.161   1.284
14119W        W86445  38.070  12.838  11.532
14120W        W86446  17.265   9.737  10.438
14121W        W86447  21.243  40.914   2.691
14122W        W86448   1.483  21.210   4.180
14123W        W86449   1.949  31.149   0.284
14124W        W86450  31.896  25.491   3.358
14125W        W86451  19.207  32.919  11.117
14126W        W86452   1.819  43.842   0.470
14127W        W86453  41.882   1.857   1.776
14128W        W86454   5.368  14.102   5.150
14129W        W86455  33.913   3.812   4.735
14130W        W86456  13.254  36.354  14.781
14131W        W86457  11.628  34.572   0.834
14132W        W86458   4.321  36.897   2.312
14133W        W86459   5.271   9.245   0.276
14134W        W86460  19.231   8.381   2.385
14135W        W86461  21.646  33.070  13.971
14136W        W86462  22.694  16.789  13.022
14137W        W86463  25.699   8.248   1.855
14138W        W86464  20.752  13.130  11.383
14139W        W86465   6.759   5.887   2.772
14140W        W86466   0.899  15.297   0.744
14141W        W86467  27.078  37.396   3.231
14142W        W86468   8.878  44.383  11.059
14143W        W86469  22.704  29.162  10.529
14144W        W86470  42.826  17.199   2.865
14145W        W86471  11.135   5.923   2.809
14146W        W86472  29.572  19.735  11.116
14147W        W86473  19.209  39.028  11.405
14148W        W86474  37.937  26.652   2.790
14149W        W86475  20.631  21.626   0.789
14150W        W86476  15.322  15.244  11.507
14151W        W86477  19.262  16.161   0.417
14152W        W86478  21.571   1.429  12.354
14153W        W86479  15.238  22.594  11.608
14154W        W86480  27.131  31.606  12.037
14155W        W86481  41.942   6.764  10.891
14156W        W86482  41.851   8.395  13.504
14157W        W86483  15.655  40.391   2.763
14158W        W86484  38.887   9.878   3.168
14159W        W86485  43.901  22.190  10.622
14160W        W86486  18.209   7.265   4.714
14161W        W86487  17.763   8.667   1.783
14162W        W86488  27.570  43.300  14.997
14163W        W86489  15.284  44.949   2.694
14164W        W86490  29.435  10.356  12.017
14165W        W86491  35.996   4.384  14.762
14166W        W86492   5.332   1.792   0.885
14167W        W86493  14.220  25.604  14.030
14168W        W86494  44.888  23.570   2.375
14169W        W86495  22.608  10.286  14.477
14170W        W86496  14.104   1.826   2.262
14171W        W86497   2.944   3.278  14.969
14172W        W86498  30.420  39.003  13.349
14173W        W86499  19.201  10.836   1.386
14174W        W86500  43.881  41.843  11.409
14175W        W86501   3.280  31.044   1.236
14176W        W86502  10.723  41.889   4.697
14177W        W86503  31.442  24.604  10.417
14178W        W86504  10.375   4.258  13.508
14179W        W86505  43.792   7.787   1.345
14180W        W86506  35.977  37.002   2.236
14181W        W86507  32.906  11.641  14.455
14182W        W86508   5.743  34.900  11.001
14183W        W86509  26.177  40.875   1.697
14184W        W86510  14.333  19.195   4.604
14185W        W86511   2.917  15.308   4.803
14186W        W86512   1.456  27.645   1.774
14187W        W86513   8.379  15.187   1.224
14188W        W86514  27.953  12.747   2.354
14189W        W86515  20.125   9.849   2.898
14190W        W86516  38.909  26.993  11.475
14191W        W86517  38.360  35.864  10.977
14192W        W86518   8.731  42.524   2.419
14193W        W86519  28.511   7.770  12.932
14194W        W86520  30.618   4.207  14.892
14195W        W86521   0.744   6.892  12.005
14196W        W86522  13.213   6.781  11.053
14197W        W86523  16.075   8.274   0.727
14198W        W86524  26.617  32.024  12.455
14199W        W86525  31.911   3.432   1.799
14200W        W86526  38.332  40.363  13.035
14201W        W86527  17.150   4.939   3.693
14202W        W86528  30.553  27.661   3.724
14203W        W86529   5.217  24.039   1.865
14204W        W86530  27.580  38.408   2.811
14205W        W86531  20.147  35.581   4.194
14206W        W86532   5.828  21.596  12.009
14207W        W86533  39.367  40.373   1.893
14208W        W86534  34.057  39.426  10.507
14209W        W86535   1.471   3.872  13.842
14210W        W86536   6.899  20.200   4.768
14211W        W86537  18.064  10.323  10.405
14212W        W86538  13.216   6.737   4.119
14213W        W86539   5.776  32.074  12.054
14214W        W86540  38.540  44.426  11.055
14215W        W86541  11.322  32.442  13.342
14216W        W86542  15.794  27.509   1.419
14217W        W86543  37.917  36.950  10.633
14218W        W86544  15.201  38.926   1.846
14219W        W86545  25.970   0.289   2.269
14220W        W86546  24.227  34.423  10.574
14221W        W86547  40.854  39.044   3.770
14222W        W86548  19.731  31.466   1.379
14223W        W86549  35.590  38.943   2.358
14224W        W86550  42.936   6.408   1.778
14225W        W86551   2.389  28.482  12.836
14226W        W86552  39.339  15.796   4.145
14227W        W86553  25.204  11.684  10.544
14228W        W86554  19.588  17.136   5.230
14229W        W86555  27.569   0.441  12.375
14230W        W86556  22.727  20.112   3.735
14231W        W86557  29.140  27.097  14.340
14232W        W86558  36.910   0.460   3.699
14233W        W86559  38.389  11.373  12.873
14234W        W86560   0.328  22.210  14.322
14235W        W86561  32.114  25.604  10.475
14236W        W86562  27.688  16.719   0.395
14237W        W86563  43.380  11.783  13.394
14238W        W86564  23.196   2.914  11.863
14239W        W86565   4.206  34.615   4.283
14240W        W86566  12.684  12.179   3.681
14241W        W86567  37.543  38.520  14.476
14242W        W86568   2.898  13.351   3.187
14243W        W86569  32.112  41.358  12.914
14244W        W86570  22.112  42.329   3.857
14245W        W86571  11.846  22.182   0.476
14246W        W86572  10.364   0.275   1.315
14247W        W86573   1.315   0.456   0.389
14248W        W86574  10.188  32.000  11.023
14249W        W86575  38.494  15.749  14.926
14250W        W86576  26.201   0.768   2.694
14251W        W86577   6.289  39.999   3.780
14252W        W86578  32.529  42.946  12.086
14253W        W86579  13.622  25.470  14.940
14254W        W86580  36.876   6.257  11.125
14255W        W86581   3.451  12.714  10.023
14256W        W86582  41.535  13.817   0.746
14257W        W86583  29.930  29.493  10.412
14258W        W86584  16.079  39.392  12.082
14259W        W86585  11.277  22.998   1.320
14260W        W86586  13.783  28.501   4.792
14261W        W86587  29.573  25.064  12.911
14262W        W86588  34.511   3.745  12.575
14263W        W86589  44.480  23.208  11.016
14264W        W86590   9.681   2.918   3.680
14265W        W86591  29.085  11.319   0.462
14266W        W86592  28.109  30.033   0.337
14267W        W86593  10.277  34.452  11.017
14268W        W86594  14.127  13.260  10.991
14269W        W86595  10.720  16.072   2.663
14270W        W86596   3.387  30.134  13.058
14271W        W86597  33.990  26.976  12.960
14272W        W86598   7.720  35.939   1.759
14273W        W86599  27.111  25.502   3.352
14274W        W86600  41.813  42.937   3.358
14275W        W86601  44.960  33.122   0.327
14276W        W86602  43.389  31.008   0.744
14277W        W86603  13.832  41.373   1.754
14278W        W86604  37.858   6.889   2.689
14279W        W86605  21.595  14.601   4.621
14280W        W86606  18.629  34.012  11.434
14281W        W86607  22.667  20.246  12.996
14282W        W86608  29.152   6.306  12.430
14283W        W86609   3.714  30.160  11.543
14284W        W86610  14.610   6.695   4.304
14285W        W86611   7.895   1.242   0.926
14286W        W86612   9.239   1.418   3.147
14287W        W86613  41.997   6.819  11.407
14288W        W86614  32.565  22.042   1.730
14289W        W86615   5.798   6.913  10.482
14290W        W86616  30.558  35.959   3.293
14291W        W86617   5.703  38.325   1.223
14292W        W86618  23.028  18.169   2.699
14293W        W86619  42.952   6.379  14.510
14294W        W86620   6.907  35.549  13.024
14295W        W86621  17.794  15.580   0.810
14296W        W86622  35.383  43.916   2.217
14297W        W86623  38.916  23.988   1.213
14298W        W86624  35.390   3.309   0.403
14299W        W86625  12.789   6.188  13.955
14300W        W86626  33.064  32.564  13.530
14301W        W86627  21.657  38.337  11.504
14302W        W86628  40.469  33.474   2.399
14303W        W86629  13.232  26.066   1.230
14304W        W86630  44.818  13.302   0.316
14305W        W86631  43.855  28.931   0.478
14306W        W86632  25.474   5.308  13.912
14307W        W86633  43.797   6.714  13.313
14308W        W86634  21.192  29.517   3.832
14309W        W86635  29.467  15.240  12.350
14310W        W86636  21.174  15.157  13.968
14311W        W86637  41.949  31.935  10.113
14312W        W86638  19.734  21.568   3.380
14313W        W86639  29.587  14.128   0.855
14314W        W86640   3.256  25.109  13.855
14315W        W86641   9.696  43.005   4.151
14316W        W86642  10.371   5.719  13.473
14317W        W86643   8.211  22.592   1.891
14318W        W86644  44.304   2.250  11.952
14319W        W86645  16.092  14.147  11.865
14320W        W86646   2.923  30.945   4.702
14321W        W86647   7.218   8.332  12.869
14322W        W86648  25.660  11.166  11.907
14323W        W86649   1.471  33.579  14.277
14324W        W86650  13.613  17.799  13.955
14325W        W86651  27.991  40.426   1.904
14326W        W86652   8.885  43.790   0.849
14327W        W86653  38.505  39.416   4.648
14328W        W86654  17.726  29.152  10.550
14329W        W86655   5.701  17.287  14.918
14330W        W86656  21.029  40.922  10.566
14331W        W86657  11.149  39.397  13.855
14332W        W86658  44.318  29.921   5.100
14333W        W86659   3.745   4.889   9.981
14334W        W86660  28.641  21.185  11.885
14335W        W86661  18.784   2.802  13.801
14336W        W86662  41.794  37.537   5.307
14337W        W86663  44.990   5.264  10.413
14338W        W86664  30.966  15.188   2.889
14339W        W86665  14.611  42.900  11.974
14340W        W86666  31.008  18.673   4.266
14341W        W86667   2.929   3.307   1.382
14342W        W86668   2.932  19.202  13.008
14343W        W86669  40.481   5.404   4.273
14344W        W86670  35.369  32.448   2.307
14345W        W86671   3.778  40.916   4.267
14346W        W86672  43.878   4.271   0.808
14347W        W86673   4.312  16.810   4.634
14348W        W86674   3.731   2.885  10.998
14349W        W86675  35.497  24.633  10.543
14350W        W86676   8.393  41.873  13.996
14351W        W86677   3.937  29.446  13.342
14352W        W86678  43.825  41.021   2.371
14353W        W86679   2.251  29.596  14.307
14354W        W86680  23.584  41.849  14.438
14355W        W86681   1.289   2.850  12.061
14356W        W86682  23.725  34.608   1.428
14357W        W86683  11.361   3.420  12.879
14358W        W86684  31.453  38.547   4.321
14359W        W86685   0.308  26.694   2.835
14360W        W86686   9.296  14.668  14.361
14361W        W86687  11.275  13.337  14.768
14362W        W86688   2.858  38.548  12.959
14363W        W86689  21.022   6.252  14.279
14364W        W86690  10.766   8.764   1.879
14365W        W86691  10.775  24.584  12.871
14366W        W86692  34.067  22.644  14.959
14367W        W86693  31.621  33.582  13.342
14368W        W86694  25.471  44.405   2.249
14369W        W86695  28.143  18.671  13.407
14370W        W86696  42.321  33.505  12.081
14371W        W86697  33.038  38.408  10.926
14372W        W86698   5.831  32.015   1.298
14373W        W86699   7.781  13.819  11.953
14374W        W86700  23.591   6.360  10.462
14375W        W86701  15.628  41.338   1.376
14376W        W86702   6.871  21.654  10.463
14377W        W86703  24.194   5.862  14.473
14378W        W86704  10.855  13.268  13.926
14379W        W86705  26.124   5.822  11.482
14380W        W86706  36.091  32.907  13.021
14381W        W86707  13.776  36.077  13.003
14382W        W86708   8.337  24.623  11.079
14383W        W86709  19.160  27.959   3.317
14384W        W86710   6.183  43.287   4.289
14385W        W86711   2.345  41.391  10.137
14386W        W86712  39.508  40.886  12.065
14387W        W86713  33.012  42.802  10.550
14388W        W86714  39.886   6.727   0.893
14389W        W86715   7.225  32.516   0.283
14390W        W86716  30.521   1.460  11.585
14391W        W86717  13.645  14.119  11.855
14392W        W86718  31.969  30.626  10.430
14393W        W86719  18.611  21.086   4.664
14394W        W86720   5.775  24.539  12.510
14395W        W86721  40.445  27.662   4.276
14396W        W86722  36.859  17.258   1.901
14397W        W86723  22.159  40.812   3.165
14398W        W86724   4.404   5.736   2.293
14399W        W86725  43.285  22.029  13.508
14400W        W86726  10.862  38.533  14.459
14401W        W86727  42.924  32.088  12.034
14402W        W86728   9.231  43.337  11.099
14403W        W86729   1.468   1.470   2.212
14404W        W86730   7.726  43.789   2.739
14405W        W86731  29.553  34.982   0.367
14406W        W86732  25.129  29.517   2.708
14407W        W86733  13.775  36.903  12.862
14408W        W86734   8.869  14.277   0.481
14409W        W86735  28.041  37.047   2.373
14410W        W86736  14.743  33.976   9.635
14411W        W86737  36.485  34.401  10.441
14412W        W86738  26.581   4.902   2.378
14413W        W86739  31.070  42.408  14.805
14414W        W86740  23.608  15.721  10.433
14415W        W86741   7.341  43.824   0.875
14416W        W86742  41.863  31.469  12.071
14417W        W86743  23.682  21.236  10.938
14418W        W86744  31.543  39.385  14.362
14419W        W86745  41.440  31.457   2.333
14420W        W86746  13.636  30.993  13.446
14421W        W86747  11.853  17.707  14.821
14422W        W86748  13.330  20.030   1.815
14423W        W86749   8.747  17.642   4.326
14424W        W86750   7.319  25.070   2.359
14425W        W86751  41.827  38.026  12.465
14426W        W86752  28.644  33.902   1.377
14427W        W86753  16.641   6.358  14.003
14428W        W86754  13.242  39.418  12.986
14429W        W86755   6.724  43.397  10.892
14430W        W86756   5.751  41.938   4.697
14431W        W86757  32.434  12.194  11.964
14432W        W86758  10.682  44.886   0.394
14433W        W86759  20.582   3.349  11.521
14434W        W86760   9.241   6.921  12.538
14435W        W86761   4.304  39.908   0.861
14436W        W86762  41.792  39.854   0.800
14437W        W86763  18.790  10.791  14.939
14438W        W86764  19.728  13.143   4.673
14439W        W86765  24.023  11.656   3.172
14440W        W86766   7.287  11.262   3.381
14441W        W86767  11.289  19.715  10.513
14442W        W86768  39.055  19.601  10.080
14443W        W86769  33.513  25.988   4.230
14444W        W86770  29.499  16.746   0.329
14445W        W86771  18.669  28.090   1.895
14446W        W86772   1.295  25.516   0.277
14447W        W86773  34.439  24.539  11.957
14448W        W86774  25.571  11.676  13.015
14449W        W86775  17.255  39.043   1.792
14450W        W86776  31.542  41.428  14.817
14451W        W86777  38.421   0.391  13.313
14452W        W86778  18.152  17.136  14.835
14453W        W86779  33.109   0.847   3.318
14454W        W86780  24.554  40.906  14.932
14455W        W86781   7.911  33.121   0.821
14456W        W86782  31.037  27.625  12.931
14457W        W86783   5.874  39.524   2.679
14458W        W86784  22.634  26.615  13.955
14459W        W86785  37.458  32.023  10.437
14460W        W86786   3.378  41.319   1.869
14461W        W86787  21.117  26.584  10.092
14462W        W86788  30.940   4.786   2.773
14463W        W86789  15.626  12.238   0.919
14464W        W86790  43.798   1.407   3.858
14465W        W86791   9.707  29.116  10.512
14466W        W86792  40.019  30.970   2.184
14467W        W86793  16.775  42.421  12.025
14468W        W86794  43.921  28.000  13.050
14469W        W86795  21.517  16.772   0.750
14470W        W86796  31.943   7.688   4.656
14471W        W86797  18.709  35.095   4.261
14472W        W86798   9.259  27.657  10.613
14473W        W86799  27.454  43.484   3.246
14474W        W86800  26.474  26.152   0.344
14475W        W86801  18.694  24.174  11.561
14476W        W86802  16.620  41.498  11.089
14477W        W86803   1.883  37.864   4.193
14478W        W86804  34.463  38.425  11.909
14479W        W86805  27.058  41.399  11.992
14480W        W86806   1.355  11.214   2.215
14481W        W86807   5.413  36.472   1.697
14482W        W86808  40.382  19.721   0.788
14483W        W86809  43.371  17.063  10.630
14484W        W86810  14.789  24.225   0.940
14485W        W86811  26.563  39.977   4.287
14486W        W86812  11.842  40.524  14.984
14487W        W86813  39.054   2.453  10.599
14488W        W86814  24.593  10.876   2.316
14489W        W86815   8.885  27.137   0.315
14490W        W86816   7.362  31.135   3.370
14491W        W86817   8.384  44.911  11.601
14492W        W86818  13.638  26.643   0.415
14493W        W86819  20.603  18.156   0.287
14494W        W86820  15.158   9.171   1.266
14495W        W86821  22.101  11.353   3.377
14496W        W86822  17.558  41.880  10.578
14497W        W86823  23.067   3.944   0.356
14498W        W86824  29.606  10.147   0.309
14499W        W86825  38.324  22.054  14.987
14500W        W86826  22.720  28.053   4.714
14501W        W86827   9.819  36.450  13.370
14502W        W86828  16.789   1.424  13.471
14503W        W86829  31.535  14.676   2.676
14504W        W86830  36.412  36.041   5.635
14505W        W86831   0.421  13.233  10.943
14506W        W86832  11.201  16.659   1.254
14507W        W86833  37.058  22.663  11.402
14508W        W86834  15.317  43.387  11.082
14509W        W86835   4.225   7.851   2.821
14510W        W86836  23.679  37.881  10.464
14511W        W86837   1.266  34.106   4.217
14512W        W86838  10.709  37.021  10.935
14513W        W86839  30.019  18.125  13.994
14514W        W86840  18.072  44.976  12.976
14515W        W86841   1.899  36.016   1.932
14516W        W86842   2.449  30.139   3.815
14517W        W86843  30.017   0.911  11.519
14518W        W86844  10.286  13.769   3.199
14519W        W86845  33.449  13.644   3.325
14520W        W86846  11.729  24.650  11.091
14521W        W86847  28.447  16.283  12.953
14522W        W86848  19.282  33.898   2.831
14523W        W86849   9.180  31.537  14.371
14524W        W86850  21.751  33.382   2.214
14525W        W86851   6.801  22.040   4.837
14526W        W86852  11.803  11.844  10.012
14527W        W86853   0.455  14.264  10.977
14528W        W86854  42.993   4.712   1.397
14529W        W86855  10.364   0.819   2.893
14530W        W86856   4.720  44.881  14.499
14531W        W86857  28.483  24.137  13.008
14532W        W86858   1.937   6.376   4.787
14533W        W86859  11.696  17.710  11.050
14534W        W86860   2.940  41.037  13.936
14535W        W86861   8.261  35.486  11.460
14536W        W86862  17.739  11.681  13.348
14537W        W86863  25.103  23.229   0.312
14538W        W86864  21.146   5.279  13.853
14539W        W86865  14.152  16.731  12.562
14540W        W86866  12.215  18.245  14.402
14541W        W86867  13.799  34.438  14.511
14542W        W86868   9.156  40.547  14.383
14543W        W86869   5.388  37.961   3.145
14544W        W86870   7.834  17.287   2.702
14545W        W86871  25.200   4.266   3.785
14546W        W86872  13.731  44.828   1.749
14547W        W86873  43.387  42.366   0.777
14548W        W86874   0.376  13.739   1.895
14549W        W86875  42.290   0.466  13.933
14550W        W86876   7.189  38.000   3.770
14551W        W86877  10.677   9.832  11.060
14552W        W86878  33.898  42.297   2.706
14553W        W86879  21.249  21.247  11.968
14554W        W86880  28.589  17.782   3.346
14555W        W86881   1.818  20.103   3.221
14556W        W86882  30.912  23.042  11.578
14557W        W86883   4.444   4.393   1.796
14558W        W86884  44.403  37.498  11.584
14559W        W86885  10.244   4.931   4.262
14560W        W86886  25.603  40.995  13.430
14561W        W86887   4.733   0.774  12.960
14562W        W86888  20.736  42.979   2.242
14563W        W86889  39.381  10.184  13.468
14564W        W86890   6.400  34.878   4.771
14565W        W86891   5.295  27.116   0.460
14566W        W86892  28.081  36.570  12.823
14567W        W86893  25.660  38.335   1.847
14568W        W86894  37.889  18.216  11.912
14569W        W86895  27.671  13.211   1.430
14570W        W86896  38.562  33.995  10.483
14571W        W86897  43.937  40.338   3.866
14572W        W86898  24.683  14.196  13.928
14573W        W86899  27.062   3.791  14.420
14574W        W86900  29.967  28.519  10.117
14575W        W86901   3.298  41.437   3.329
14576W        W86902  19.247  35.884   2.711
14577W        W86903   4.281  41.814  11.072
14578W        W86904  20.058  10.692  12.840
14579W        W86905   2.354  27.528  11.544
14580W        W86906  41.320  25.658  13.878
14581W        W86907  39.861   4.443  12.090
14582W        W86908   4.216  35.885   1.278
14583W        W86909  39.456  12.295   0.840
14584W        W86910  38.871  27.578  14.785
14585W        W86911   0.804  40.329  13.826
14586W        W86912  42.862  33.073  10.448
14587W        W86913   3.716   9.324   1.394
14588W        W86914   2.883  44.858  12.906
14589W        W86915  29.159   6.241  11.939
14590W        W86916  29.920  30.439  14.850
14591W        W86917  35.863   2.429   3.295
14592W        W86918  20.667   6.395   2.338
14593W        W86919  28.534  27.592   4.746
14594W        W86920  30.416  21.236   4.631
14595W        W86921  22.200  33.379  14.513
14596W        W86922   1.796  27.572   0.782
14597W        W86923  10.245   5.801  14.442
14598W        W86924  38.949  38.022  12.380
14599W        W86925  41.416  31.547  13.477
14600W        W86926  43.842  11.230  12.965
14601W        W86927  14.114  15.740   0.919
14602W        W86928  29.512  25.555  11.995
14603W        W86929  18.272  24.532   1.786
14604W        W86930  13.793  11.670  11.909
14605W        W86931  40.354  27.139   4.753
14606W        W86932  44.869   9.839   4.790
14607W        W86933   9.648  16.644   2.719
14608W        W86934   8.162  24.228   0.959
14609W        W86935  35.435  10.812  13.940
14610W        W86936  36.004  17.180  11.520
14611W        W86937  18.278  18.637  13.933
14612W        W86938  28.950  35.077   2.402
14613W        W86939  19.751  16.127   2.891
14614W        W86940  17.577  30.443   4.197
14615W        W86941   5.262  40.520  10.887
14616W        W86942  43.919   4.825  10.478
14617W        W86943   4.724  25.545  13.531
14618W        W86944   6.274  24.687  13.913
14619W        W86945   8.265  38.920   3.707
14620W        W86946  23.043  43.798   3.850
14621W        W86947   4.392   7.897   2.344
14622W        W86948  29.614  44.339  11.952
14623W        W86949  11.342  25.155   3.353
14624W        W86950   7.212  41.345  13.366
14625W        W86951  25.617  12.350  10.458
14626W        W86952  22.586   7.217  10.107
14627W        W86953   9.184   9.779   2.888
14628W        W86954  15.735   9.666  10.890
14629W        W86955  22.243  37.883   2.884
14630W        W86956  10.858  43.441   2.850
14631W        W86957  18.149   6.682  12.524
14632W        W86958  36.017  35.957   5.693
14633W        W86959  18.648   8.879  12.093
14634W        W86960  19.766   1.810   0.304
14635W        W86961  30.011  19.160  14.867
14636W        W86962  29.918  14.240   0.881
14637W        W86963  23.156  30.497   3.839
14638W        W86964  33.401  34.547   0.846
14639W        W86965  25.060  42.851   0.258
14640W        W86966  26.061   6.182  11.013
14641W        W86967  31.070  19.622  13.309
14642W        W86968  28.030  15.262   2.735
14643W        W86969   2.862  38.438   0.344
14644W        W86970  44.313  17.241  14.844
14645W        W86971  13.679  21.133  13.037
14646W        W86972  29.971  22.508  11.392
14647W        W86973  36.567  37.404   5.101
14648W        W86974  15.115  34.391   1.258
14649W        W86975  32.443  18.715   3.285
14650W        W86976  34.947  36.938  13.540
14651W        W86977  21.580  25.712   2.363
14652W        W86978  44.458  23.001   3.231
14653W        W86979  34.086   4.769   2.359
14654W        W86980  24.197  11.650  14.383
14655W        W86981  42.417  20.585  13.899
14656W        W86982  17.082  23.594   0.792
14657W        W86983  41.301  13.802  14.026
14658W        W86984  43.443  39.859  13.901
14659W        W86985  35.081  41.038   0.250
14660W        W86986  28.089  32.554   4.124
14661W        W86987  20.091  19.236   3.150
14662W        W86988  22.151  27.968   1.324
14663W        W86989  36.483  20.046  14.361
14664W        W86990  34.972  37.434   9.960
14665W        W86991  43.829   8.394  14.835
14666W        W86992  42.030  42.410   4.241
14667W        W86993  28.624  17.692  12.540
14668W        W86994   7.791  15.106   3.262
14669W        W86995  15.672  31.115   0.434
14670W        W86996   7.691  37.448  10.558
14671W        W86997   8.890  41.909  11.895
14672W        W86998  14.730  19.042  10.998
14673W        W86999   3.854  28.620  10.604
14674W        W87000  40.943  11.714  13.935
14675W        W87001  32.559  44.452   1.849
14676W        W87002  21.051   5.865  13.471
14677W        W87003  25.496  38.324   1.246
14678W        W87004  43.853  36.559  11.524
14679W        W87005  20.643  18.274  10.465
14680W        W87006  12.736   3.245  11.527
14681W        W87007  37.376  40.543   3.704
14682W        W87008   1.477  33.608  10.890
14683W        W87009  27.688   4.383   1.357
14684W        W87010  34.078  13.113  13.878
14685W        W87011  22.613  23.726  13.823
14686W        W87012  38.984  15.328  12.021
14687W        W87013  43.318  32.539  12.564
14688W        W87014   8.899  22.540   3.183
14689W        W87015  36.515   7.878  11.049
14690W        W87016  35.584  43.836  13.060
14691W        W87017  36.524  27.524  12.887
14692W        W87018  18.187  33.525  14.895
14693W        W87019  27.677  32.487  14.971
14694W        W87020  34.464   4.371   1.792
14695W        W87021  25.668  12.133  14.007
14696W        W87022  12.683  39.533   2.755
14697W        W87023  10.353  36.485   1.870
14698W        W87024  26.697   6.297  14.508
14699W        W87025   4.708  41.449   1.819
14700W        W87026  13.645  23.985  14.295
14701W        W87027  34.916  25.495   4.691
14702W        W87028  39.916  11.302  12.937
14703W        W87029  43.393  18.655  11.509
14704W        W87030  41.450  15.313   0.967
14705W        W87031  16.784  39.938  12.559
14706W        W87032  30.484  22.246  10.426
14707W        W87033  17.715  20.215   3.823
14708W        W87034  35.547   3.873   2.183
14709W        W87035  19.752  18.243   0.416
14710W        W87036   6.681  24.510   4.610
14711W        W87037  25.714  32.632  14.029
14712W        W87038  28.937  40.008  13.373
14713W        W87039  40.340   1.911  13.876
14714W        W87040   5.696  34.101   3.653
14715W        W87041  40.354  32.020   0.264
14716W        W87042  26.523  14.696  14.877
14717W        W87043  17.088  22.113  13.791
14718W        W87044  13.653  34.468  11.021
14719W        W87045  23.535   9.782  14.351
14720W        W87046  44.808  35.921   1.708
14721W        W87047  35.445  20.103  14.354
14722W        W87048  30.116  12.851  14.461
14723W        W87049   3.264  40.847   2.680
14724W        W87050  27.645  18.747  14.315
14725W        W87051   0.421  26.498   3.378
14726W        W87052  26.544  11.291  12.021
14727W        W87053  32.061  25.698   4.200
14728W        W87054  10.269   7.858  14.008
14729W        W87055  26.128  36.090  11.380
14730W        W87056  12.710  25.157   3.658
14731W        W87057  27.191  18.056   4.265
14732W        W87058  27.079   9.717  10.610
14733W        W87059  35.970  44.943   1.365
14734W        W87060  33.617  34.034  11.961
14735W        W87061  40.315  15.129   3.183
14736W        W87062  13.630  30.588   1.285
14737W        W87063  22.225  27.057  13.322
14738W        W87064  24.538  13.349  11.563
14739W        W87065  11.809  44.832  11.391
14740W        W87066  10.753  41.967  11.374
14741W        W87067  44.467  35.600  14.782
14742W        W87068  11.681  40.312  13.323
14743W        W87069  21.577  15.824  12.940
14744W        W87070  37.473  44.009  13.028
14745W        W87071  19.761   8.234   4.153
14746W        W87072  23.071  40.906  10.017
14747W        W87073  26.077  30.446   3.270
14748W        W87074  38.515  34.478  13.482
14749W        W87075  13.611  44.945  11.919
14750W        W87076  25.182   4.747   0.918
14751W        W87077  21.595  39.363  14.854
14752W        W87078  16.669   8.798  13.493
14753W        W87079  13.764  26.558   0.784
14754W        W87080  28.185  39.883  11.046
14755W        W87081  11.344  10.310  12.060
14756W        W87082  43.402   5.407  10.588
14757W        W87083  31.591   3.245   1.430
14758W        W87084  34.551  15.180   1.219
14759W        W87085  13.127  11.803   1.288
14760W        W87086  38.435  18.613  12.449
14761W        W87087  28.554   9.163   4.145
14762W        W87088   3.399   4.779  12.959
14763W        W87089   7.887  21.087  14.946
14764W        W87090   3.449  22.065   2.400
14765W        W87091  43.448   8.362  12.951
14766W        W87092  43.966   9.830   1.335
14767W        W87093  23.661  41.378   3.846
14768W        W87094  28.080  42.939  13.975
14769W        W87095  10.705  25.189   4.163
14770W        W87096  13.338   6.413   0.862
14771W        W87097  32.392   5.401   1.930
14772W        W87098  28.561   2.886  11.078
14773W        W87099  38.474  11.245  12.429
14774W        W87100  23.072   5.198   1.818
14775W        W87101  17.684   5.704   1.929
14776W        W87102  38.052   4.211  12.054
14777W        W87103  30.080  43.312   4.713
14778W        W87104   8.686  33.016   0.760
14779W        W87105  13.673  40.341  14.513
14780W        W87106   7.703  16.303   0.477
14781W        W87107  25.105  38.858   4.236
14782W        W87108  28.513   9.685  12.389
14783W        W87109  10.840  22.122  11.046
14784W        W87110  26.648  33.097  10.900
14785W        W87111  28.521   2.927  11.467
14786W        W87112  42.029   7.210  12.096
14787W        W87113  23.501  37.478   1.217
14788W        W87114  42.496  36.096   1.230
14789W        W87115  28.958  38.001  13.987
14790W        W87116  25.711  14.122  14.445
14791W        W87117  16.196   0.268   0.360
14792W        W87118  36.460  42.885   0.289
14793W        W87119  20.524  27.610   2.850
14794W        W87120  41.391  39.910  10.606
14795W        W87121  32.585  13.661   4.664
14796W        W87122   7.798  16.313  10.565
14797W        W87123   0.408  11.710  11.396
14798W        W87124  29.458  21.198   4.686
14799W        W87125  34.449  19.101  12.953
14800W        W87126  36.062  41.903   0.345
14801W        W87127  36.966   2.753   0.465
14802W        W87128  13.288  12.642   2.218
14803W        W87129  43.442  29.081   0.332
14804W        W87130  38.029  38.397   1.801
14805W        W87131  19.115   2.747   2.213
14806W        W87132  14.229  44.780   3.213
14807W        W87133  32.112  16.743  11.023
14808W        W87134  34.969  33.894   3.654
14809W        W87135   6.877  39.356   0.910
14810W        W87136  15.287  24.014   2.766
14811W        W87137  11.133  31.523   1.422
14812W        W87138   4.365  42.875   3.375
14813W        W87139  37.533   4.328  11.873
14814W        W87140  33.931   2.966   2.284
14815W        W87141  38.431  21.580   3.150
14816W        W87142  29.964  14.602   2.758
14817W        W87143  19.638  36.003   4.725
14818W        W87144  33.962   2.246   1.867
14819W        W87145  25.028  29.484  14.298
14820W        W87146  26.208   2.850  13.310
14821W        W87147  44.944  36.982  13.924
14822W        W87148  18.189  16.628   2.865
14823W        W87149  20.130  37.527   2.890
14824W        W87150  28.611  33.128   1.376
14825W        W87151   2.893  41.859   4.782
14826W        W87152  14.800  12.842  14.908
14827W        W87153  37.389  16.234  11.051
14828W        W87154   2.333  44.395   3.261
14829W        W87155  32.903  42.831  11.045
14830W        W87156  40.462  41.293  10.042
14831W        W87157  10.317   9.735   0.393
14832W        W87158   9.211  10.171  14.942
14833W        W87159  11.372  11.130   2.705
14834W        W87160  10.375   0.847   0.251
14835W        W87161  11.303  43.781  10.926
14836W        W87162  22.573   3.723  12.529
14837W        W87163   6.284  36.379   4.745
14838W        W87164  27.494  34.872  11.045
14839W        W87165  16.583  30.434  11.092
14840W        W87166  33.124  39.533  10.639
14841W        W87167  33.497   3.842   2.776
14842W        W87168   4.779   4.206   1.225
14843W        W87169  23.531  29.983   1.808
14844W        W87170  19.115  35.076   0.815
14845W        W87171  12.169  26.506  14.298
14846W        W87172  16.280  19.272  10.464
14847W        W87173  38.344  21.640  12.078
14848W        W87174  26.135   2.454   2.866
14849W        W87175  27.530   5.695   4.245
14850W        W87176  17.277  42.459   4.834
14851W        W87177  23.688  42.919  10.557
14852W        W87178  30.922  39.436   4.837
14853W        W87179  30.929  20.610  14.966
14854W        W87180   1.303  25.681  14.948
14855W        W87181  17.077  17.266   4.752
14856W        W87182  21.081  27.558   2.385
14857W        W87183   1.869   0.342   0.758
14858W        W87184   4.293   2.791  10.015
14859W        W87185   1.266   7.194  13.812
14860W        W87186  23.040  42.373   3.364
14861W        W87187   1.766   7.261   4.694
14862W        W87188  16.100  13.189   3.286
14863W        W87189  16.767  33.474  13.020
14864W        W87190  10.843  18.778   4.224
14865W        W87191  33.008   4.884   0.430
14866W        W87192  16.617  13.152  13.835
14867W        W87193  39.342  36.572  11.431
14868W        W87194  12.645  33.983   1.885
14869W        W87195  31.587  20.638   2.246
14870W        W87196  39.400   9.747  12.552
14871W        W87197   6.775  16.747  10.415
14872W        W87198   9.228  27.055   1.934
14873W        W87199   6.916  33.557   0.477
14874W        W87200  19.770  16.214   3.791
14875W        W87201  13.347  33.955   5.742
14876W        W87202  21.586  12.681  12.870
14877W        W87203  33.484  30.480   0.740
14878W        W87204  41.810  30.471  14.860
14879W        W87205  20.642  30.481  11.496
14880W        W87206  36.013  12.643  11.486
14881W        W87207  29.041   0.901  12.439
14882W        W87208  31.590   4.314   0.479
14883W        W87209   6.697   8.201  12.934
14884W        W87210  10.643  29.505  11.590
14885W        W87211  29.938  43.926  12.911
14886W        W87212  11.132  25.059   0.353
14887W        W87213  27.945   8.749  14.005
14888W        W87214  40.827  37.538   3.861
14889W        W87215  23.646  25.170  14.841
14890W        W87216  43.336  36.380  12.430
14891W        W87217  34.421  22.138   3.226
14892W        W87218  12.326  23.577  13.973
14893W        W87219   3.408  38.996  13.516
14894W        W87220  34.996  21.018  13.860
14895W        W87221  32.551  22.127  12.493
14896W        W87222  29.112  32.040   0.452
14897W        W87223   0.452  17.156  10.552
14898W        W87224  24.097  19.120  13.897
14899W        W87225  25.997   5.321   2.863
14900W        W87226  17.124   1.294   0.358
14901W        W87227   3.275  20.729   4.326
14902W        W87228  19.115  20.684   1.273
14903W        W87229   1.414   2.954   2.730
14904W        W87230  39.467  11.261   1.261
14905W        W87231   2.879  14.204  11.439
14906W        W87232  38.446  37.551  12.341
14907W        W87233  21.227   9.378  11.910
14908W        W87234  34.955  35.443  13.874
14909W        W87235  11.280  26.981  11.571
14910W        W87236  44.826  14.338  10.467
14911W        W87237  16.278  10.797   0.267
14912W        W87238   9.646  12.756  12.096
14913W        W87239   4.227  23.504  12.945
14914W        W87240  18.110  38.000  12.518
14915W        W87241   5.219  23.567  14.821
14916W        W87242  16.680  19.260  14.354
14917W        W87243  44.377  17.689  14.388
14918W        W87244   5.860  11.356   0.788
14919W        W87245  22.672  22.604  14.352
14920W        W87246  24.021   7.704   4.190
14921W        W87247  11.256   8.224   3.858
14922W        W87248  37.389  18.581  14.967
14923W        W87249  12.707  21.625  12.026
14924W        W87250  37.846  32.396   4.619
14925W        W87251   3.345  11.736   2.817
14926W        W87252  31.579  14.219   1.386
14927W        W87253  14.698  33.951   3.179
14928W        W87254  17.646  28.619  13.817
14929W        W87255   9.336   8.163   0.955
14930W        W87256  30.035  20.220   0.320
14931W        W87257  33.896  44.753  11.065
14932W        W87258  39.826   4.255  12.575
14933W        W87259  25.478   1.406  14.017
14934W        W87260   3.840  18.719  12.489
14935W        W87261  25.129  33.593  13.325
14936W        W87262  10.695  34.112  10.453
14937W        W87263   7.315  38.824   1.870
14938W        W87264  14.247   9.734   4.234
14939W        W87265  15.684  42.525  12.008
14940W        W87266   1.419  25.679   1.287
14941W        W87267  13.763  44.869   1.268
14942W        W87268  38.059   2.295   2.387
14943W        W87269   4.930  30.653   4.686
14944W        W87270  20.722   4.761   1.833
14945W        W87271   4.222   6.425   3.850
14946W        W87272  23.114   9.886  12.915
14947W        W87273  27.169  22.182  13.852
14948W        W87274   5.823  27.130   2.316
14949W        W87275   7.910   1.942   5.217
14950W        W87276   5.892  28.077   0.784
14951W        W87277   3.450   5.751   3.665
14952W        W87278  14.835  30.518   0.924
14953W        W87279  40.505  25.046  14.822
14954W        W87280   2.850  30.003  12.487
14955W        W87281  21.039  18.667   3.648
14956W        W87282  30.153  28.469   2.371
14957W        W87283   5.776  26.642   4.130
14958W        W87284  14.821  37.913   2.270
14959W        W87285   0.968  20.138  12.970
14960W        W87286  31.567  33.103   0.753
14961W        W87287  20.715  37.555  12.084
14962W        W87288   7.745  23.682  10.995
14963W        W87289   8.665   5.790  10.973
14964W        W87290  24.562  28.061  14.786
14965W        W87291   8.354  32.403   4.175
14966W        W87292  41.333   6.421   1.842
14967W        W87293  37.469  41.991  13.834
14968W        W87294  31.423   3.943  11.985
14969W        W87295   4.927   8.814   2.783
14970W        W87296  44.358  11.263   1.926
14971W        W87297  39.336  22.038  14.794
14972W        W87298  36.081  44.468   2.714
14973W        W87299  18.772  17.159  14.806
14974W        W87300  11.311  12.357  13.520
14975W        W87301  43.837  38.839   1.220
14976W        W87302  16.276  18.700   2.792
14977W        W87303  28.041  19.671   4.823
14978W        W87304  23.048  31.118   2.295
14979W        W87305  40.897  10.843   3.720
14980W        W87306  33.986  33.975   0.950
14981W        W87307  23.038  37.525   4.669
14982W        W87308  11.835   6.740  12.888
14983W        W87309   3.378  20.757  14.331
14984W        W87310  37.833  20.148  14.421
14985W        W87311   8.330   7.305   3.787
14986W        W87312   6.219  16.741   3.298
14987W        W87313  10.804  16.107  12.095
14988W        W87314  27.010  12.711   0.757
14989W        W87315   8.300  23.637  10.982
14990W        W87316  16.226   0.825  10.424
14991W        W87317  38.544  39.528  13.307
14992W        W87318  23.067   9.167   3.365
14993W        W87319  19.719  34.877  10.608
14994W        W87320  32.088   7.334  11.961
14995W        W87321  16.178  38.979  12.451
14996W        W87322  18.585  15.720  12.893
14997W        W87323   1.442  41.934  13.885
14998W        W87324   7.719   4.928  14.870
14999W        W87325  18.284   0.964   1.258
15000W        W87326  30.507  27.627   4.642
15001W        W87327  21.514  30.424   2.869
15002W        W87328  28.633  18.585   4.304
15003W        W87329  39.349  43.917  14.988
15004W        W87330  44.855  23.600  12.350
15005W        W87331  19.269   9.356  14.861
15006W        W87332   9.347  42.811  11.989
15007W        W87333   2.388   1.931   0.420
15008W        W87334  37.530  39.855   0.442
15009W        W87335   9.150  31.917   0.727
15010W        W87336  10.850  17.075  11.875
15011W        W87337  36.946  23.186   4.767
15012W        W87338  33.467  28.157  12.568
15013W        W87339   1.786  35.583  11.518
15014W        W87340   3.771  36.009   4.650
15015W        W87341   8.166  17.289  11.548
15016W        W87342  43.428  31.899  10.542
15017W        W87343  27.477  20.554  12.409
15018W        W87344   7.202   6.787  10.943
15019W        W87345  26.510  42.430  12.345
15020W        W87346  31.073  31.443  14.031
15021W        W87347  24.696  30.611   4.819
15022W        W87348   5.871  16.632  11.902
15023W        W87349  30.990  33.027  14.467
15024W        W87350  34.383  17.559   3.269
15025W        W87351  37.910   5.365  10.538
15026W        W87352   0.782  10.189  12.964
15027W        W87353  14.767  16.605  11.981
15028W        W87354  35.583   3.401  13.319
15029W        W87355  29.578   4.245   0.929
15030W        W87356  26.489   7.848  13.979
15031W        W87357   1.470  10.823  14.894
15032W        W87358  33.022  40.866  13.959
15033W        W87359  27.572  40.331   1.385
15034W        W87360  32.952  14.677  14.345
15035W        W87361   7.232  34.593  14.782
15036W        W87362  23.211  33.905   0.828
15037W        W87363  10.296  21.132  13.041
15038W        W87364   5.268  26.676  11.381
15039W        W87365  31.939  41.873   3.309
15040W        W87366  22.105  12.642   0.296
15041W        W87367  18.159  25.561  11.396
15042W        W87368  18.101  40.813  11.965
15043W        W87369  39.052  35.507   4.638
15044W        W87370   5.193  30.019   3.196
15045W        W87371   0.473  16.783   3.257
15046W        W87372  42.998  18.164   3.673
15047W        W87373  44.290  23.580  12.879
15048W        W87374  40.907  39.892   1.240
15049W        W87375  25.622  36.397   1.715
15050W        W87376  33.463  11.750   2.212
15051W        W87377  22.037  37.875  10.552
15052W        W87378  31.637  12.745  11.427
15053W        W87379  40.483  38.954  10.507
15054W        W87380  22.576   5.206  14.498
15055W        W87381  10.818   8.312  14.365
15056W        W87382  29.493  32.069   4.656
15057W        W87383   0.427  27.455   1.863
15058W        W87384  23.988  37.834   0.421
15059W        W87385  33.399  28.536  13.442
15060W        W87386  15.254   6.347   1.354
15061W        W87387  32.934  42.843  14.913
15062W        W87388  39.857  38.942   9.997
15063W        W87389  37.846  10.763  12.537
15064W        W87390  40.530   3.230  12.393
15065W        W87391  28.456  23.624  11.517
15066W        W87392   6.355  10.352   0.829
15067W        W87393  36.567   1.424   2.698
15068W        W87394   0.283  23.045   9.610
15069W        W87395  44.885   7.678   3.822
15070W        W87396  12.318  25.536  14.913
15071W        W87397   8.257  39.530  13.887
15072W        W87398   2.345  44.900   2.285
15073W        W87399  37.533   5.426  12.951
15074W        W87400  32.942  40.821  11.602
15075W        W87401  44.446  43.452  12.413
15076W        W87402   4.873  41.825   4.302
15077W        W87403   5.789  16.707   1.420
15078W        W87404   2.964  23.518   1.709
15079W        W87405  24.577   3.800  14.437
15080W        W87406  25.132  16.230  13.871
15081W        W87407   5.739  17.789   3.791
15082W        W87408  23.724  38.005   3.748
15083W        W87409  42.511   9.171  14.413
15084W        W87410  22.740   1.398   2.211
15085W        W87411  11.708  39.528   4.138
15086W        W87412  36.072  41.031  10.455
15087W        W87413  22.998  13.641  10.939
15088W        W87414  27.666  24.122  12.998
15089W        W87415  14.306  14.672  12.535
15090W        W87416  25.983  42.869   2.189
15091W        W87417  20.753  12.272  13.388
15092W        W87418  22.708   9.791   2.288
15093W        W87419  41.797  26.119  11.604
15094W        W87420  41.534  35.455   1.751
15095W        W87421  10.337  24.521   1.337
15096W        W87422  26.109   6.203   0.334
15097W        W87423  18.195  28.630   0.281
15098W        W87424  18.788   4.358   2.390
15099W        W87425  29.083   1.937   1.801
15100W        W87426  19.253  10.663  14.887
15101W        W87427   0.264  20.568  10.928
15102W        W87428  43.414   7.802   0.244
15103W        W87429  19.106  33.107  11.500
15104W        W87430  11.149  40.406  13.480
15105W        W87431   9.177  34.483   4.264
15106W        W87432  44.474  27.614   4.752
15107W        W87433  21.110   8.192  10.562
15108W        W87434  24.569  40.334   1.770
15109W        W87435  30.974  34.873   3.814
15110W        W87436  20.081  30.569   0.253
15111W        W87437  40.416  31.643   1.914
15112W        W87438  10.272  28.041  13.867
15113W        W87439  35.922  27.144  10.891
15114W        W87440   6.250  40.856   2.415
15115W        W87441  39.492  28.050   1.695
15116W        W87442  25.690  44.341  10.425
15117W        W87443  23.630  23.072   4.127
15118W        W87444  16.240  25.178  14.847
15119W        W87445  30.445  10.833   2.317
15120W        W87446  14.790  42.888   2.352
15121W        W87447   6.759  40.509  14.392
15122W        W87448  15.174  27.536   0.775
15123W        W87449  18.703   1.336  12.538
15124W        W87450  32.993  40.495   4.345
15125W        W87451   0.278  33.926  11.020
15126W        W87452  41.387   1.329  12.463
15127W        W87453  26.489   2.348  10.462
15128W        W87454  17.202  17.138  13.387
15129W        W87455  14.317  11.290   2.291
15130W        W87456  40.842  17.567  14.023
15131W        W87457  42.910  27.523  11.387
15132W        W87458   2.428  13.239  10.948
15133W        W87459  33.413  27.162  14.007
15134W        W87460  10.178  44.798   3.761
15135W        W87461  37.519  24.169  11.594
15136W        W87462   6.788  10.810   1.421
15137W        W87463   1.396  32.461  11.405
15138W        W87464   1.428   9.845   2.715
15139W        W87465  21.149  22.078  10.023
15140W        W87466  15.118  15.680  13.815
15141W        W87467  14.679  31.494  11.878
15142W        W87468  30.592  44.391   3.796
15143W        W87469  13.787   8.324   2.791
15144W        W87470  14.732   0.824   1.808
15145W        W87471  44.792  18.712  12.844
15146W        W87472   5.919  11.142  12.511
15147W        W87473  29.486   0.908  11.049
15148W        W87474  39.852  17.192   4.215
15149W        W87475  16.251  24.171  14.413
15150W        W87476  19.274  26.621   3.291
15151W        W87477  19.172  18.176  14.289
15152W        W87478  25.648  30.419  14.320
15153W        W87479  42.974  21.676   1.293
15154W        W87480   3.748   3.943  11.932
15155W        W87481  11.794  25.116  10.004
15156W        W87482   6.360  11.760   3.702
15157W        W87483  23.616  14.659   2.712
15158W        W87484  40.879  17.781   0.379
15159W        W87485  43.418  21.165   2.377
15160W        W87486  42.961  22.542   2.335
15161W        W87487   9.713  39.395   3.386
15162W        W87488  31.521   7.697  13.913
15163W        W87489   2.321   2.361  13.005
15164W        W87490  14.279   0.983   1.862
15165W        W87491  34.998   5.223  14.785
15166W        W87492  40.466  30.123   4.165
15167W        W87493   0.406  14.645   0.292
15168W        W87494   8.756  19.056  14.280
15169W        W87495  41.353  33.043  11.891
15170W        W87496  33.924  21.605   1.931
15171W        W87497  15.711  41.297   4.753
15172W        W87498   8.797   8.369   4.242
15173W        W87499  15.717  32.556   2.219
15174W        W87500  13.728  39.432  13.479
15175W        W87501  19.643   2.724   1.339
15176W        W87502  41.421  12.819   2.371
15177W        W87503  37.893  12.263  13.430
15178W        W87504  24.005  10.283  14.472
15179W        W87505   6.863  44.986   2.762
15180W        W87506  26.641  16.649   1.317
15181W        W87507  31.007   4.748   3.267
15182W        W87508  30.525  34.477   1.352
15183W        W87509  35.517  14.134  14.878
15184W        W87510  13.764  14.173   3.237
15185W        W87511  22.637   5.838  11.092
15186W        W87512  29.657  22.156   2.230
15187W        W87513   0.293  39.897  11.118
15188W        W87514   2.902  42.475  11.608
15189W        W87515  41.293  26.010  14.843
15190W        W87516  35.563  37.084  10.415
15191W        W87517  33.890  43.003  13.367
15192W        W87518  28.512   5.791   4.720
15193W        W87519  33.481  44.913   1.702
15194W        W87520  34.489  38.956  14.404
15195W        W87521  19.065  10.732  11.983
15196W        W87522  13.786  39.032  13.850
15197W        W87523  17.621  33.042  13.485
15198W        W87524  16.799  12.647  11.430
15199W        W87525  13.312  30.587   2.789
15200W        W87526  33.411   6.184   3.304
15201W        W87527  14.808  23.050   2.316
15202W        W87528  40.487  31.077  14.313
15203W        W87529  38.037  14.626  10.605
15204W        W87530   6.402  19.187   4.278
15205W        W87531  39.429  27.071   4.672
15206W        W87532  21.070   7.308  13.024
15207W        W87533  42.399   1.409   3.224
15208W        W87534  14.144  42.475   2.357
15209W        W87535  19.045  13.177  11.487
15210W        W87536  20.128  23.645   5.166
15211W        W87537  31.073   0.856  11.585
15212W        W87538  37.389  23.566  12.421
15213W        W87539  11.358  42.999  11.907
15214W        W87540  44.904  31.448  11.584
15215W        W87541  42.791  27.055  12.995
15216W        W87542  44.995  40.314   2.826
15217W        W87543  26.517  21.712  10.419
15218W        W87544  21.686  42.846  14.848
15219W        W87545  18.573  40.533  12.497
15220W        W87546  29.963  36.372   4.777
15221W        W87547   6.745  19.574  10.558
15222W        W87548   0.832  19.576  10.139
15223W        W87549  22.250  19.104   0.360
15224W        W87550  43.435  28.452   1.739
15225W        W87551   0.302  10.179   2.303
15226W        W87552  30.567  40.339  14.929
15227W        W87553  27.594  41.946  11.411
15228W        W87554  26.092  13.711  11.591
15229W        W87555  15.197  33.550  12.878
15230W        W87556  33.095  13.791  11.037
15231W        W87557   1.481   0.868   2.717
15232W        W87558  36.473   4.852   9.988
15233W        W87559  22.006   5.291   1.717
15234W        W87560  22.195   7.830   0.365
15235W        W87561   6.418   4.709   2.208
15236W        W87562  27.175  33.125  13.054
15237W        W87563   4.836   2.402  12.390
15238W        W87564  43.455  40.834  11.987
15239W        W87565  32.030  36.545   0.929
15240W        W87566  35.420   1.783  13.878
15241W        W87567   3.944  41.347  12.428
15242W        W87568  36.367  44.410  12.350
15243W        W87569  27.033  32.430  10.512
15244W        W87570  39.985   4.876  14.398
15245W        W87571   2.406  33.048  14.838
15246W        W87572  13.750  24.723   1.694
15247W        W87573  10.214  13.178  11.860
15248W        W87574  43.396  42.024  10.492
15249W        W87575  40.843  24.720   4.634
15250W        W87576   7.860  35.400  11.529
15251W        W87577  13.219  11.846  11.603
15252W        W87578  39.906  10.653   0.370
15253W        W87579  33.534  34.925  12.856
15254W        W87580  43.987  40.526   4.605
15255W        W87581  20.060  43.434  10.584
15256W        W87582  13.125  37.492   0.956
15257W        W87583  24.714   3.358   4.686
15258W        W87584  21.133  21.128   0.365
15259W        W87585  43.963   8.806   3.322
15260W        W87586   6.334   5.848  14.800
15261W        W87587  17.102  44.459  13.390
15262W        W87588   8.699  29.621  12.013
15263W        W87589  26.993  43.439  11.377
15264W        W87590   5.889  37.016  11.086
15265W        W87591  24.622  32.012   5.223
15266W        W87592  17.755  18.212   3.239
15267W        W87593  11.173   9.237  14.934
15268W        W87594  14.744   5.911  10.117
15269W        W87595  34.060  37.553  11.084
15270W        W87596   6.297  20.741   0.337
15271W        W87597  26.135  30.103   1.723
15272W        W87598  36.430  39.956  11.112
15273W        W87599  18.153   1.971  12.931
15274W        W87600  28.576  19.555   0.284
15275W        W87601  10.375  44.884   0.921
15276W        W87602  13.108  36.893  14.823
15277W        W87603   3.433  16.599  10.902
15278W        W87604  26.130   6.381  12.030
15279W        W87605  10.224  21.080  11.014
15280W        W87606  39.041  34.513  12.054
15281W        W87607  10.877  32.111   0.745
15282W        W87608  25.488  25.551  10.506
15283W        W87609   9.801  44.965  12.997
15284W        W87610  12.145   8.701   3.697
15285W        W87611  13.314  44.482   9.925
15286W        W87612  21.565  38.453   1.240
15287W        W87613  39.346  29.640   4.634
15288W        W87614  24.610  17.173  11.941
15289W        W87615  19.671  43.340  13.994
15290W        W87616  43.305  22.668   2.765
15291W        W87617  38.332  41.929   2.733
15292W        W87618  21.602  32.588   4.321
15293W        W87619  38.493  12.729   5.758
15294W        W87620   9.241  41.972  12.500
15295W        W87621  34.597  29.444  12.432
15296W        W87622  32.035  35.060   5.189
15297W        W87623  28.018   6.784  14.783
15298W        W87624  17.675   0.408   0.446
15299W        W87625  27.124  31.988   2.731
15300W        W87626  16.750  27.006   2.744
15301W        W87627   6.307   9.170   3.324
15302W        W87628   3.219  12.305   5.323
15303W        W87629  20.661  36.073  11.882
15304W        W87630  32.029   3.785   3.661
15305W        W87631  38.368  27.024   4.179
15306W        W87632  18.676  32.430   0.429
15307W        W87633   2.366  32.902  11.861
15308W        W87634  31.145  28.105   2.330
15309W        W87635  39.362  20.259  13.819
15310W        W87636   7.762  12.687  14.279
15311W        W87637  31.590  23.086  12.954
15312W        W87638  40.016   0.825  12.466
15313W        W87639  13.820  11.226   0.249
15314W        W87640   0.372  26.961  12.867
15315W        W87641  14.190   0.791   4.613
15316W        W87642  33.458   2.885   1.773
15317W        W87643   1.778   9.742  13.513
15318W        W87644   4.849  22.616   1.423
15319W        W87645  42.966  24.641  10.531
15320W        W87646  30.975  14.213   3.387
15321W        W87647  13.203   5.236  13.993
15322W        W87648  28.461  43.933  14.361
15323W        W87649  22.725  33.886   3.314
15324W        W87650  43.410  19.076  12.068
15325W        W87651  32.607  44.405  13.898
15326W        W87652  41.459   9.652  13.547
15327W        W87653  15.696  33.022   1.445
15328W        W87654   3.911   6.706  12.558
15329W        W87655  44.899  13.626   2.686
15330W        W87656  16.103  34.023  10.947
15331W        W87657  23.499  21.060  12.422
15332W        W87658  29.472  41.002  14.994
15333W        W87659  39.874  13.245   2.256
15334W        W87660  21.518  28.979  14.377
15335W        W87661  12.645  27.500  14.922
15336W        W87662  32.919  42.981   4.254
15337W        W87663  10.724  16.694   1.365
15338W        W87664  42.029   1.861   2.828
15339W        W87665  11.729  30.130  11.956
15340W        W87666  38.841  23.140   3.203
15341W        W87667   2.386  14.340   1.367
15342W        W87668  22.094  33.433   0.438
15343W        W87669   2.962  28.540   0.776
15344W        W87670   2.424  38.930  14.274
15345W        W87671  30.463  23.058  13.909
15346W        W87672   0.351  37.522  12.980
15347W        W87673  31.539  36.534   2.878
15348W        W87674  19.646  17.641   3.736
15349W        W87675  25.482  39.389   4.171
15350W        W87676   2.736   2.434   4.215
15351W        W87677  22.013   2.746   0.285
15352W        W87678  15.301   1.930   4.618
15353W        W87679  32.506  13.350   4.267
15354W        W87680  13.704   1.800  12.996
15355W        W87681  23.027  25.041   4.208
15356W        W87682  40.885  41.883  14.866
15357W        W87683  37.052  11.295  10.090
15358W        W87684  41.448  25.085   2.682
15359W        W87685  26.193  16.712  14.387
15360W        W87686  25.610  28.522  12.567
15361W        W87687  17.141  15.805  14.507
15362W        W87688   3.735  13.182   1.907
15363W        W87689  32.460  35.461  11.891
15364W        W87690  19.282  22.659  13.383
15365W        W87691   2.884  22.212   2.329
15366W        W87692  21.242  38.053   4.328
15367W        W87693  35.544  21.081  12.016
15368W        W87694  24.989  42.860  14.909
15369W        W87695  15.771  12.617   4.624
15370W        W87696   9.149  40.416   2.180
15371W        W87697  34.900   2.268   4.758
15372W        W87698  23.999  23.150   3.202
15373W        W87699  38.517  18.565   1.439
15374W        W87700   7.797  38.957   4.279
15375W        W87701   9.710  35.101  14.824
15376W        W87702  15.636   6.859   0.370
15377W        W87703  22.547   1.381  10.425
15378W        W87704  40.335  18.728   3.747
15379W        W87705  21.752  23.093  14.443
15380W        W87706  31.426  35.414   3.667
15381W        W87707   8.843  33.904  13.967
15382W        W87708  37.991   4.237   1.791
15383W        W87709   9.305  23.688  12.095
15384W        W87710  13.207  31.052   3.857
15385W        W87711   2.275  13.806  13.493
15386W        W87712  26.585  42.830   3.870
15387W        W87713  11.637   5.377   4.128
15388W        W87714  22.146  43.883  11.117
15389W        W87715  14.280  31.634   2.734
15390W        W87716  21.157  36.571   2.337
15391W        W87717  40.888  12.258   3.146
15392W        W87718  38.409  12.306   2.414
15393W        W87719  43.284  21.128  12.090
15394W        W87720   2.417  31.415   2.726
15395W        W87721   0.324  20.255  12.826
15396W        W87722  25.205  11.764  12.400
15397W        W87723  44.939  17.206  12.889
15398W        W87724  14.257  10.319   1.405
15399W        W87725  28.007  12.309  12.024
15400W        W87726  34.006  10.695   0.387
15401W        W87727  37.910   1.242   1.837
15402W        W87728  15.193   9.254  10.511
15403W        W87729  23.149   7.405  11.877
15404W        W87730  40.389  32.007  14.283
15405W        W87731   6.353  37.883   3.706
15406W        W87732  17.568  38.826  13.863
15407W        W87733  44.367  13.831   0.483
15408W        W87734  20.735  44.774  10.562
15409W        W87735  15.754   3.929  13.368
15410W        W87736  15.247  10.708   3.655
15411W        W87737   5.742  22.601  11.974
15412W        W87738  20.690  19.093   4.667
15413W        W87739  33.525   9.670   0.914
15414W        W87740  21.159  39.357  11.947
15415W        W87741  12.208   2.952   1.888
15416W        W87742  43.458   5.436   4.282
15417W        W87743   6.246   8.287   0.895
15418W        W87744   2.752  29.548   2.759
15419W        W87745  27.054  41.334   0.345
15420W        W87746  43.512  17.709   0.428
15421W        W87747  27.061   3.914   3.204
15422W        W87748  30.097   0.765  13.943
15423W        W87749  28.616  40.325  11.476
15424W        W87750  10.673   2.235   3.777
15425W        W87751  25.082  21.159  12.528
15426W        W87752  19.731   6.701  12.956
15427W        W87753  25.553  14.234   5.207
15428W        W87754  16.616  16.700   1.820
15429W        W87755  19.728  19.098  12.493
15430W        W87756  36.989  16.129  12.407
15431W        W87757  36.883   9.305  12.412
15432W        W87758  27.473  32.476   1.801
15433W        W87759   2.231  10.204   0.307
15434W        W87760  35.928  38.387  14.966
15435W        W87761  44.490  33.907   2.805
15436W        W87762   9.162  30.488  14.863
15437W        W87763  24.135  18.651   3.656
15438W        W87764   7.906  43.928  14.786
15439W        W87765  15.101  44.798   3.333
15440W        W87766  30.082  33.067  13.374
15441W        W87767  22.529  20.205  11.561
15442W        W87768  20.650  16.806  14.487
15443W        W87769   2.306   4.814  10.986
15444W        W87770   4.238   8.660   4.666
15445W        W87771  28.512  26.187   3.654
15446W        W87772   8.220   0.909  11.020
15447W        W87773  36.870  21.757   1.449
15448W        W87774  15.805  30.043   3.747
15449W        W87775  23.502   8.676   1.433
15450W        W87776  11.864  14.796  11.525
15451W        W87777  18.130  43.409   1.389
15452W        W87778  10.288  11.833  13.497
15453W        W87779  37.396   9.841   4.609
15454W        W87780  15.147  23.009  12.825
15455W        W87781  23.709  31.501   3.293
15456W        W87782   7.306   2.890   4.274
15457W        W87783  44.421   5.243   3.307
15458W        W87784  11.638   0.845  10.117
15459W        W87785   9.367  42.503  12.564
15460W        W87786  20.123  16.663  13.462
15461W        W87787   0.956  43.322  12.527
15462W        W87788  37.962   8.396  13.913
15463W        W87789  34.390  31.408   4.128
15464W        W87790   0.280  13.113  10.496
15465W        W87791  38.340   6.824  11.000
15466W        W87792  35.424   2.760  11.025
15467W        W87793   8.747  37.476   4.177
15468W        W87794  23.556  17.564  14.030
15469W        W87795   6.912   3.391  10.482
15470W        W87796  25.145   6.224   2.671
15471W        W87797   3.295  40.917   2.295
15472W        W87798  16.276  41.993  13.816
15473W        W87799  12.841  24.616   4.643
15474W        W87800  33.038  11.813   1.219
15475W        W87801  37.496   7.864   1.751
15476W        W87802  27.971  24.595  14.513
15477W        W87803   2.845  16.144   4.634
15478W        W87804   0.434  40.495   1.733
15479W        W87805  30.528  40.457   1.933
15480W        W87806  42.823  20.540  11.102
15481W        W87807  15.182  25.062  11.494
15482W        W87808  33.106  25.963   4.644
15483W        W87809  10.872   6.792   3.655
15484W        W87810  24.610  20.604  14.826
15485W        W87811   2.838  14.816   0.372
15486W        W87812   9.741   3.785  14.766
15487W        W87813  17.713  31.977   4.203
15488W        W87814  41.397  18.553  11.586
15489W        W87815  35.941  22.122  11.558
15490W        W87816  24.148  38.398   1.291
15491W        W87817  42.302  10.748   2.335
15492W        W87818  11.681  33.018  13.498
15493W        W87819  29.570  27.151   2.744
15494W        W87820   1.414  38.836   0.766
15495W        W87821  17.703  18.679  14.860
15496W        W87822  31.503  43.984  12.373
15497W        W87823  37.342  15.271  10.608
15498W        W87824  35.877  13.205   2.254
15499W        W87825  12.728  17.071  11.937
15500W        W87826  14.288  16.269   3.713
15501W        W87827  30.053  17.105  12.452
15502W        W87828   5.775  32.046   0.431
15503W        W87829  21.238  10.688  12.876
15504W        W87830  25.098  41.528  14.470
15505W        W87831  39.882   2.963   2.785
15506W        W87832  24.512  43.776   3.194
15507W        W87833  21.583  42.934   3.778
15508W        W87834  17.298  43.892   2.214
15509W        W87835   6.746  32.947   0.833
15510W        W87836  31.940  23.718   5.278
15511W        W87837  17.657  34.567  12.037
15512W        W87838   0.964  21.538   3.378
15513W        W87839  42.883  36.905  12.937
15514W        W87840  33.570  43.807   2.903
15515W        W87841   9.305   3.451   2.418
15516W        W87842   2.895   3.349  13.959
15517W        W87843  39.476  13.641  14.428
15518W        W87844  37.879  37.970   3.687
15519W        W87845  39.024   6.411  11.519
15520W        W87846  19.039  14.819   3.723
15521W        W87847  42.824  40.911   2.887
15522W        W87848  13.132  22.078  11.100
15523W        W87849   5.922  19.218  14.947
15524W        W87850  39.943   5.919  12.549
15525W        W87851  31.142   3.294   2.855
15526W        W87852  35.972   4.717   3.775
15527W        W87853  37.467  40.913  14.335
15528W        W87854  33.125  11.696   1.744
15529W        W87855  20.058   0.327   1.363
15530W        W87856  43.497  12.350   2.298
15531W        W87857  10.691  40.828  10.553
15532W        W87858  34.979  35.871  11.587
15533W        W87859  16.261   1.918  10.560
15534W        W87860  12.274  33.024   4.344
15535W        W87861  38.535   2.368   4.750
15536W        W87862  21.566   7.760   2.263
15537W        W87863   9.727  23.177   0.415
15538W        W87864  22.540   1.413  12.954
15539W        W87865  27.533   3.893   3.228
15540W        W87866  32.977  42.345  12.077
15541W        W87867  37.851  19.670  12.004
15542W        W87868  37.068  16.317  12.893
15543W        W87869  35.036  23.542  13.836
15544W        W87870   0.430  44.398  10.410
15545W        W87871   1.355  10.699   0.319
15546W        W87872   8.205  41.389  12.912
15547W        W87873  23.646  10.648  14.438
15548W        W87874  40.863  41.934   4.260
15549W        W87875   6.882  44.996   4.812
15550W        W87876  27.974  16.108  13.058
15551W        W87877  36.043  11.192   0.742
15552W        W87878   0.248  31.528   3.650
15553W        W87879  17.108  31.527   2.195
15554W        W87880  34.114  20.213   2.676
15555W        W87881  15.752   8.278   0.735
15556W        W87882  17.723  30.966  14.361
15557W        W87883  31.609  12.226   0.353
15558W        W87884   6.754  40.018   1.811
15559W        W87885   5.774  18.103  14.798
15560W        W87886  42.820  13.196   4.122
15561W        W87887  31.007  43.456   0.947
15562W        W87888  13.328  28.991   4.727
15563W        W87889  40.422  11.849   2.223
15564W        W87890  14.144  14.711  14.406
15565W        W87891  21.583  28.025  12.342
15566W        W87892  11.730  18.248  13.866
15567W        W87893   2.795   6.716   4.817
15568W        W87894   9.733  25.044   4.779
15569W        W87895  29.998  42.407  11.907
15570W        W87896  20.588   6.345   3.263
15571W        W87897  30.537  17.735  13.338
15572W        W87898   9.646  42.524  11.472
15573W        W87899   1.854  35.017   1.895
15574W        W87900  26.084  12.133   4.715
15575W        W87901  32.477   7.279   1.785
15576W        W87902   6.738  35.421  13.808
15577W        W87903  32.886  18.234   1.826
15578W        W87904  11.343  44.499   1.709
15579W        W87905   9.724  36.967   1.275
15580W        W87906  24.127  14.822  14.428
15581W        W87907  10.855  31.115  11.875
15582W        W87908  40.419   4.940   9.960
15583W        W87909   0.458  20.149  13.462
15584W        W87910   3.392  15.685  14.873
15585W        W87911  38.936   6.817  10.912
15586W        W87912  35.390  42.502  12.961
15587W        W87913  23.546  21.205   5.273
15588W        W87914  12.237  11.829  13.994
15589W        W87915  41.423  38.873   9.964
15590W        W87916  19.209  16.267  14.406
15591W        W87917   5.404   3.288   3.817
15592W        W87918  21.522  39.547  12.565
15593W        W87919  17.591  12.787  12.096
15594W        W87920   7.823  10.331  11.079
15595W        W87921  21.635  42.022   1.370
15596W        W87922  17.185   8.319   9.987
15597W        W87923  27.642  29.172   2.181
15598W        W87924  43.500  19.133  13.886
15599W        W87925   9.366  19.562   3.824
15600W        W87926   3.275  13.619   0.385
15601W        W87927  26.652  32.100   5.110
15602W        W87928  23.202  42.939   3.731
15603W        W87929  33.459  10.161  14.957
15604W        W87930   8.796  16.258   4.124
15605W        W87931   9.662  34.379   4.342
15606W        W87932  29.074  20.623   2.316
15607W        W87933  42.390  31.931  12.938
15608W        W87934   7.265  16.783  10.448
15609W        W87935  18.670   6.281   3.844
15610W        W87936   6.379  36.578   0.291
15611W        W87937  44.441  43.795   1.253
15612W        W87938  37.337  22.567  10.560
15613W        W87939  35.600  42.963   4.801
15614W        W87940  36.016  22.616   3.303
15615W        W87941  42.417  27.969   3.731
15616W        W87942  16.623  23.652   3.263
15617W        W87943  22.741  22.233  12.983
15618W        W87944  35.868  14.758  14.484
15619W        W87945  41.435  41.495   2.282
15620W        W87946  33.973  35.448  14.436
15621W        W87947   6.753  35.945   0.253
15622W        W87948  26.528  19.190  10.534
15623W        W87949  21.550  32.129  14.412
15624W        W87950  11.259   6.804   3.800
15625W        W87951  37.372  40.911  13.357
15626W        W87952  34.948  35.494  11.044
15627W        W87953  20.224  14.664  12.522
15628W        W87954  30.978   5.243   1.298
15629W        W87955  34.593  41.532  14.347
15630W        W87956  20.028  27.457   2.760
15631W        W87957   0.984  28.491   1.407
15632W        W87958  41.024  25.219   4.742
15633W        W87959  12.645  23.491   3.247
15634W        W87960   7.385  34.091   4.733
15635W        W87961  15.797   4.714   4.145
15636W        W87962   5.881  24.136  14.013
15637W        W87963  42.907  31.994  11.033
15638W        W87964  13.128   8.290   4.750
15639W        W87965   2.329   1.742   1.412
15640W        W87966  12.194  23.664  11.871
15641W        W87967  11.344  43.977   0.378
15642W        W87968   2.375   9.664   0.415
15643W        W87969   8.358  17.100   1.263
15644W        W87970  31.896  18.629  11.029
15645W        W87971   0.276   9.656  14.784
15646W        W87972  17.235  24.112   1.340
15647W        W87973  43.454  26.042  12.087
15648W        W87974  11.290  16.658  12.854
15649W        W87975  10.146  22.034   3.790
15650W        W87976  42.958  37.579   1.717
15651W        W87977  14.147  36.866   1.902
15652W        W87978  22.616  18.567   0.823
15653W        W87979  25.071  27.053   3.757
15654W        W87980  41.859  35.915   4.172
15655W        W87981  26.958  26.011  11.863
15656W        W87982   3.347   8.883   0.909
15657W        W87983  29.548   6.263  13.460
15658W        W87984  27.165   9.323   0.858
15659W        W87985  12.791  24.570   3.742
15660W        W87986   3.729  21.202  13.023
15661W        W87987   3.791   6.359  14.820
15662W        W87988  33.595  35.452  10.138
15663W        W87989  44.950  10.743   1.386
15664W        W87990  32.084  16.763   1.837
15665W        W87991   6.293  16.138  13.028
15666W        W87992   6.706  19.705  13.332
15667W        W87993  25.648  16.083  13.916
15668W        W87994  44.929  24.553   1.780
15669W        W87995  34.437  42.522  13.985
15670W        W87996  24.007  10.228   1.216
15671W        W87997  39.046  14.219  14.858
15672W        W87998   3.227  38.498  13.425
15673W        W87999  13.799  44.319  12.549
15674W        W88000  38.074  14.619   1.308
15675W        W88001   1.909  23.598  11.081
15676W        W88002   2.237  22.686  14.003
15677W        W88003  11.831   2.238  13.062
15678W        W88004  41.035  32.040   2.788
15679W        W88005  31.108  18.165   3.696
15680W        W88006   8.862  21.110   2.280
15681W        W88007  14.732  12.779   1.419
15682W        W88008  17.799  27.970  14.274
15683W        W88009   3.227  31.026   0.348
15684W        W88010  18.765  24.980   3.716
15685W        W88011  14.771  26.470  13.380
15686W        W88012  12.703  37.919   2.322
15687W        W88013  38.565  17.270   0.421
15688W        W88014  17.166  44.800  12.509
15689W        W88015  32.447  17.172   4.604
15690W        W88016  24.627  14.620   0.958
15691W        W88017  25.693  27.042  11.459
15692W        W88018  40.052  38.439   2.903
15693W        W88019  21.050   9.677  12.958
15694W        W88020  41.832   3.266   1.770
15695W        W88021  15.187  11.624   1.761
15696W        W88022   5.308  30.069  11.881
15697W        W88023  44.778  39.399   3.193
15698W        W88024  18.226  17.694  14.776
15699W        W88025  23.135  32.104  13.475
15700W        W88026  27.952  35.579  13.899
15701W        W88027  36.588   1.744  14.925
15702W        W88028  12.292  22.678   3.867
15703W        W88029  26.495  44.450  12.870
15704W        W88030  17.257  20.548   1.763
15705W        W88031  37.970  16.167   3.174
15706W        W88032  14.637  39.317   4.274
15707W        W88033  29.131  19.189   2.377
15708W        W88034  39.892  37.527  12.090
15709W        W88035   8.877   9.290   1.448
15710W        W88036  35.553  19.725  11.516
15711W        W88037   4.228  12.171  12.504
15712W        W88038  37.079  33.995  13.999
15713W        W88039  31.469  26.612   2.397
15714W        W88040   8.330   8.176   1.327
15715W        W88041   6.274   3.841  14.816
15716W        W88042   7.795  34.045  14.315
15717W        W88043  18.646  26.991  12.394
15718W        W88044  28.082  24.093   0.376
15719W        W88045   1.394  34.385  11.864
15720W        W88046   5.260  16.721   1.358
15721W        W88047  12.220  44.288  10.139
15722W        W88048  35.108  18.570   2.243
15723W        W88049  24.512  42.800   2.368
15724W        W88050  32.453  20.082   3.269
15725W        W88051  44.845   2.756  14.501
15726W        W88052  28.072  22.097  14.372
15727W        W88053  37.477  44.304  11.065
15728W        W88054  40.467  23.994   1.787
15729W        W88055  27.150  16.749   4.721
15730W        W88056  37.050  42.353  10.487
15731W        W88057   6.201  42.373  11.450
15732W        W88058  15.127   5.215   0.469
15733W        W88059   3.777  20.269   0.269
15734W        W88060  24.700  41.830   2.272
15735W        W88061  32.425  20.632  13.462
15736W        W88062   9.334   5.260  13.960
15737W        W88063  13.261  18.602  12.093
15738W        W88064  17.081   2.258  12.048
15739W        W88065  42.414   5.775   3.687
15740W        W88066  22.567  35.942   4.685
15741W        W88067  35.900   4.755  10.919
15742W        W88068  36.999  39.872  13.949
15743W        W88069  38.848  40.389   1.233
15744W        W88070  35.518  18.720  10.467
15745W        W88071  37.959  40.879   2.831
15746W        W88072   2.841  24.575  10.978
15747W        W88073  44.343   2.869   3.861
15748W        W88074  19.702   8.767  10.892
15749W        W88075  28.567  33.937  11.486
15750W        W88076  38.936  14.273   2.364
15751W        W88077  29.483  16.714  12.413
15752W        W88078  12.310  29.517  12.827
15753W        W88079   2.427  28.174  11.042
15754W        W88080  25.521  42.395  10.953
15755W        W88081   8.282   9.366   3.260
15756W        W88082   2.408  14.141   3.348
15757W        W88083  33.452  34.985   3.646
15758W        W88084  20.274  35.067   2.410
15759W        W88085   4.270  11.739   2.793
15760W        W88086  22.239  38.910   4.697
15761W        W88087   1.403   8.395   2.836
15762W        W88088   0.333  29.114   0.731
15763W        W88089  28.967  44.800   2.862
15764W        W88090  34.944  10.687   0.793
15765W        W88091  23.629  11.690  13.370
15766W        W88092   4.785  16.637  14.484
15767W        W88093   6.326  30.061   2.398
15768W        W88094  21.190   7.309  14.422
15769W        W88095  13.274  23.986   3.178
15770W        W88096  16.122  24.008  14.869
15771W        W88097  15.784  30.579   5.129
15772W        W88098   5.762  35.987  11.542
15773W        W88099  16.182  32.108  11.995
15774W        W88100  37.069  22.565  13.547
15775W        W88101  44.278  21.240  13.972
15776W        W88102  19.630   1.448   4.351
15777W        W88103  39.940  34.427  13.330
15778W        W88104  21.724   2.339   1.793
15779W        W88105   5.373  14.708   2.867
15780W        W88106   7.792  30.998   3.829
15781W        W88107  40.842  39.833  12.945
15782W        W88108  28.488  26.032   2.329
15783W        W88109  26.112  15.792   1.323
15784W        W88110  35.544  27.565   3.228
15785W        W88111  21.755   3.367   4.198
15786W        W88112  41.965  23.100  11.893
15787W        W88113  36.916   2.892   2.275
15788W        W88114  41.794   6.379   1.910
15789W        W88115   5.861  36.548   2.837
15790W        W88116   5.731  18.731   4.237
15791W        W88117   0.744  28.605  14.378
15792W        W88118   8.210   7.257   0.729
15793W        W88119   4.892   7.417  11.417
15794W        W88120  24.974  36.349  12.982
15795W        W88121  44.880  23.695  12.833
15796W        W88122   3.433   7.810   1.409
15797W        W88123  16.294   9.388  13.940
15798W        W88124  32.611   6.339   3.706
15799W        W88125  19.688   8.798  11.953
15800W        W88126  29.451   6.706   4.206
15801W        W88127  38.571  35.891   0.915
15802W        W88128  36.550   4.819   1.444
15803W        W88129  30.051  28.002   3.352
15804W        W88130  30.127  40.479   1.853
15805W        W88131  36.893  41.953   2.385
15806W        W88132  25.505  31.433   3.728
15807W        W88133  11.344  39.925   3.639
15808W        W88134  27.453   2.966  10.560
15809W        W88135   9.317   5.737   1.882
15810W        W88136  37.925   5.222  11.471
15811W        W88137  12.253   1.833   0.323
15812W        W88138  19.758  42.838   9.993
15813W        W88139   5.314  19.242   0.353
15814W        W88140  10.694   0.447  13.795
15815W        W88141  34.609  29.614   1.732
15816W        W88142  19.666  23.154  14.408
15817W        W88143  40.894  40.373   4.758
15818W        W88144  19.540  22.107  10.504
15819W        W88145   4.905  11.867  10.559
15820W        W88146  25.663  24.026   4.154
15821W        W88147  31.004   5.751  11.100
15822W        W88148  40.933  42.775   4.603
15823W        W88149  43.928  43.318   4.319
15824W        W88150  14.595  17.161  12.897
15825W        W88151  14.145  34.946  11.581
15826W        W88152   8.689  27.951  14.863
15827W        W88153  28.133  29.448   1.397
15828W        W88154   7.855  12.331  14.421
15829W        W88155  18.686   0.408  11.879
15830W        W88156   7.705   6.309   2.701
15831W        W88157  27.519  26.114  10.522
15832W        W88158  43.827  31.004  12.885
15833W        W88159  13.788  34.090  14.996
15834W        W88160   9.277  37.446   3.766
15835W        W88161  14.117  17.746   4.722
15836W        W88162  20.082  22.522   0.383
15837W        W88163  39.885  42.894  10.553
15838W        W88164  24.088  17.653   2.838
15839W        W88165  42.862  29.573   0.309
15840W        W88166  27.601  37.918   0.308
15841W        W88167  43.979  29.949   1.221
15842W        W88168  35.087   6.779  14.289
15843W        W88169  17.138  20.125  13.490
15844W        W88170  18.105  41.363  11.559
15845W        W88171  15.234  17.224   1.851
15846W        W88172  29.933  38.985   4.745
15847W        W88173  38.861  22.152  14.479
15848W        W88174   0.390  20.209   4.674
15849W        W88175  29.430  11.154   3.818
15850W        W88176  41.293  41.425  14.305
15851W        W88177  10.300   9.252  14.307
15852W        W88178  25.657  10.156   0.334
15853W        W88179  33.087  41.408  11.422
15854W        W88180   8.276  17.775  12.416
15855W        W88181  19.268  35.474  11.940
15856W        W88182  24.721  31.019   3.631
15857W        W88183  42.992  30.658  13.941
15858W        W88184  34.434  21.199   4.120
15859W        W88185  20.758  13.176  10.980
15860W        W88186  33.034  15.623  13.820
15861W        W88187  32.061  36.996   3.292
15862W        W88188  10.642  30.595   0.928
15863W        W88189  20.174   0.792   1.323
15864W        W88190  36.898  24.538   3.174
15865W        W88191  30.473  24.480   2.410
15866W        W88192  16.204  21.729  10.584
15867W        W88193  16.214  24.527   3.379
15868W        W88194  22.655   3.419  12.901
15869W        W88195  39.358  21.113   2.245
15870W        W88196  24.000  24.170  11.045
15871W        W88197  23.525  26.642  14.786
15872W        W88198   9.809  44.434  14.770
15873W        W88199  30.649  10.141  13.913
15874W        W88200  21.148  43.307  10.966
15875W        W88201  41.505  40.039  12.404
15876W        W88202  30.121  44.390  13.980
15877W        W88203  39.860  24.011  11.406
15878W        W88204  13.625   3.425  11.473
15879W        W88205   4.743  10.703   3.277
15880W        W88206   3.227  39.550   3.156
15881W        W88207   1.885  38.994  11.934
15882W        W88208  12.161  33.382   4.604
15883W        W88209  16.292   8.215   4.171
15884W        W88210  13.150  28.629  11.110
15885W        W88211  29.670  37.865  12.451
15886W        W88212   2.932  12.613   0.843
15887W        W88213   8.368  39.035  10.444
15888W        W88214   4.285  27.978   3.381
15889W        W88215  25.219  32.028  14.415
15890W        W88216  35.916  15.711   4.346
15891W        W88217   7.198  36.879   2.358
15892W        W88218  18.264  24.686   3.767
15893W        W88219   5.306  24.220   4.823
15894W        W88220   4.748   0.473  14.467
15895W        W88221   3.727  26.116  13.061
15896W        W88222  31.549   3.246  10.897
15897W        W88223  43.852  29.551   4.760
15898W        W88224  16.279  13.708  12.895
15899W        W88225  39.065  10.847  14.879
15900W        W88226   8.679  23.161  12.947
15901W        W88227   8.766   0.867  12.084
15902W        W88228  44.801  27.660  14.373
15903W        W88229  27.645  39.834  12.386
15904W        W88230  21.143  33.979  14.496
15905W        W88231   8.781  33.881  13.519
15906W        W88232  36.514  34.971  13.914
15907W        W88233  27.989  32.990  12.384
15908W        W88234  26.065   3.798  12.890
15909W        W88235   4.209  15.294  13.330
15910W        W88236  20.071  44.472   9.951
15911W        W88237  36.973  37.546   3.313
15912W        W88238   2.277   7.413  10.407
15913W        W88239  30.485   8.239  12.965
15914W        W88240   3.257  22.101   2.844
15915W        W88241  29.616   8.356  14.305
15916W        W88242  20.104  36.089   4.791
15917W        W88243  44.870   4.271  13.847
15918W        W88244  19.720  26.501   2.823
15919W        W88245   2.937  22.022   1.716
15920W        W88246  14.726   0.269   4.637
15921W        W88247  16.737  30.968  13.894
15922W        W88248  38.985  26.175  10.899
15923W        W88249   8.731  21.731  12.442
15924W        W88250   2.313  12.782  11.524
15925W        W88251  20.649  34.469   3.869
15926W        W88252  37.358  20.623  10.581
15927W        W88253  44.504  40.941   1.373
15928W        W88254  31.063   0.331  14.416
15929W        W88255   5.839  39.033   1.370
15930W        W88256  34.381  10.749  11.070
15931W        W88257   3.797  30.422   2.296
15932W        W88258  42.913   6.819   0.482
15933W        W88259  19.626  33.894   4.141
15934W        W88260  18.168  15.201  13.868
15935W        W88261   8.345  23.986  14.942
15936W        W88262  26.543  44.285  13.404
15937W        W88263  11.322  35.441   2.217
15938W        W88264  34.975   3.896   4.122
15939W        W88265   8.192   4.341   0.378
15940W        W88266  16.198  44.485  13.446
15941W        W88267   0.402  11.622   1.724
15942W        W88268   2.237  15.325  12.530
15943W        W88269  26.208   8.223  11.516
15944W        W88270   1.381  27.687  10.949
15945W        W88271  15.673   5.691   4.237
15946W        W88272  43.516  15.767  13.795
15947W        W88273   5.329  28.967   2.417
15948W        W88274  39.834   1.364  13.331
15949W        W88275  43.874  21.552  14.401
15950W        W88276   5.414  16.086   4.697
15951W        W88277  14.271  20.209  12.847
15952W        W88278  37.836  13.663   4.661
15953W        W88279   8.290  30.464  14.906
15954W        W88280  31.102  21.196   4.670
15955W        W88281   2.351   0.389  12.854
15956W        W88282  42.389   5.394  14.434
15957W        W88283  17.742   5.895  11.062
15958W        W88284  38.006  31.453  11.125
15959W        W88285   8.278  15.723   1.237
15960W        W88286  37.888  28.626  13.861
15961W        W88287   6.824  41.811   3.661
15962W        W88288  14.178  28.119   3.869
15963W        W88289  18.228  32.510  13.876
15964W        W88290  22.117  38.418  14.824
15965W        W88291  21.141  30.479   2.347
15966W        W88292  39.902  19.592  12.431
15967W        W88293  27.610  34.590   4.651
15968W        W88294  27.645  24.577  14.403
15969W        W88295  43.463  12.691   2.679
15970W        W88296  37.036   5.367   3.285
15971W        W88297  35.465  26.532  12.527
15972W        W88298  43.812  16.279   0.329
15973W        W88299  13.142  40.879   2.379
15974W        W88300  37.904  30.945  14.963
15975W        W88301  15.634  15.116   3.181
15976W        W88302  12.652   1.959   4.216
15977W        W88303  34.402  14.309  11.033
15978W        W88304  14.244  35.877   1.304
15979W        W88305   0.869  30.418   0.923
15980W        W88306  10.301  28.450   0.795
15981W        W88307  35.360  39.395   4.827
15982W        W88308  12.799  15.225   1.345
15983W        W88309   4.363  15.244  14.861
15984W        W88310  28.121   8.341   1.445
15985W        W88311  12.615  30.481  13.947
15986W        W88312  10.835   1.936   4.207
15987W        W88313  32.575  29.006   1.263
15988W        W88314  15.124  13.672  14.371
15989W        W88315  24.205  29.004   3.333
15990W        W88316  13.308  41.856   4.206
15991W        W88317  27.949  24.665  12.467
15992W        W88318   6.677   8.654   2.723
15993W        W88319  38.942   0.459   4.195
15994W        W88320  15.682  27.533   0.791
15995W        W88321   7.709  37.846   2.676
15996W        W88322   6.746   7.868  11.947
15997W        W88323  39.828  13.240  12.493
15998W        W88324  11.748  20.221   3.264
15999W        W88325  20.091  44.469  13.944
16000W        W88326  42.406   1.291  12.421
16001W        W88327  28.437   6.291  12.837
16002W        W88328  25.067  17.067   5.639
16003W        W88329  11.360  10.380  11.059
16004W        W88330  44.768  24.586   0.752
16005W        W88331  37.883  16.126  13.843
16006W        W88332  23.659  38.999   4.325
16007W        W88333  15.614  15.218  14.493
16008W        W88334  44.366  42.004  12.846
16009W        W88335  28.442   6.898  13.403
16010W        W88336  42.918  43.922   0.937
16011W        W88337   3.343  28.651  12.489
16012W        W88338  39.527  22.075  11.374
16013W        W88339  17.214  25.133   3.360
16014W        W88340  38.836  35.423   4.325
16015W        W88341  13.795   9.182   4.341
16016W        W88342   7.213  17.129  13.379
16017W        W88343  18.629  12.853  11.875
16018W        W88344  38.860   9.225   3.711
16019W        W88345  20.743   7.752   3.801
16020W        W88346  43.929  32.445   0.821
16021W        W88347   8.297  43.978  11.065
16022W        W88348  24.667  29.494  11.431
16023W        W88349   5.195   2.275   0.380
16024W        W88350   3.244   4.365  10.604
16025W        W88351  11.712  44.409   3.853
16026W        W88352  24.493   3.255   3.654
16027W        W88353  41.443  44.310   2.698
16028W        W88354  41.020   1.387   1.827
16029W        W88355  33.034  30.978  12.407
16030W        W88356  18.129  20.075   1.416
16031W        W88357   2.426   7.355   1.730
16032W        W88358  37.354  13.674  13.950
16033W        W88359   2.923  18.574   0.796
16034W        W88360  24.228  44.836   4.762
16035W        W88361  40.363   9.280  14.451
16036W        W88362  32.021  19.739   0.302
16037W        W88363  28.537  39.530  10.601
16038W        W88364   8.197  32.947  14.953
16039W        W88365  23.525  27.654  14.775
16040W        W88366   7.805  17.260  11.961
16041W        W88367   4.739  15.302  11.970
16042W        W88368  43.941  29.135  14.943
16043W        W88369  37.947  28.143   9.945
16044W        W88370  36.485  37.521   3.847
16045W        W88371  26.179   9.324  11.872
16046W        W88372  34.459  38.924   0.475
16047W        W88373  15.805  38.325   0.752
16048W        W88374  42.484   3.418   2.702
16049W        W88375  42.877   6.901   1.773
16050W        W88376   7.669  23.112   4.287
16051W        W88377  27.500  31.545  10.926
16052W        W88378  26.518  12.334  13.047
16053W        W88379  12.788  20.029  11.560
16054W        W88380  30.920   0.385  12.050
16055W        W88381   1.842  28.648   1.855
16056W        W88382   8.398  35.927  10.638
16057W        W88383  33.112  44.466   3.791
16058W        W88384  26.967  31.939  11.517
16059W        W88385  25.622   6.230   9.983
16060W        W88386  26.535   1.293   2.282
16061W        W88387  28.076  18.637   1.711
16062W        W88388  32.022  13.244   4.256
16063W        W88389   1.283  44.901  14.785
16064W        W88390   1.779  44.318   0.740
16065W        W88391   1.239   5.216  14.344
16066W        W88392  37.464  10.303  12.999
16067W        W88393  26.954  41.019   4.775
16068W        W88394  37.862  39.446  11.124
16069W        W88395  14.722  42.445  13.412
16070W        W88396  18.160  36.940  11.108
16071W        W88397  12.756  27.640  12.923
16072W        W88398  32.401  13.193  14.507
16073W        W88399  32.116   8.864  13.404
16074W        W88400  29.071  36.571   3.230
16075W        W88401  11.839  15.673   4.222
16076W        W88402  41.959  13.646   4.827
16077W        W88403   5.277  21.131  10.046
16078W        W88404  41.422  23.647  12.547
16079W        W88405  25.089  44.774  13.509
16080W        W88406  15.673  11.723  11.962
16081W        W88407  18.116  17.191  11.506
16082W        W88408  17.132   8.875   0.471
16083W        W88409  33.467  44.009   3.698
16084W        W88410   2.919  38.984   0.312
16085W        W88411  10.819  23.630   4.775
16086W        W88412   5.359   8.205   1.891
16087W        W88413  18.116  36.080   4.132
16088W        W88414  26.197   2.409   1.926
16089W        W88415  29.516   6.284   4.183
16090W        W88416  30.973   6.224  14.433
16091W        W88417  21.186  25.553   1.354
16092W        W88418  22.060  43.397   0.739
16093W        W88419  24.195  38.990   4.190
16094W        W88420  41.371  40.840  14.481
16095W        W88421  38.407  20.240  11.039
16096W        W88422   8.231  41.883  11.026
16097W        W88423   0.289  26.700   9.937
16098W        W88424  30.971  25.180  12.974
16099W        W88425  25.706  11.239  12.574
16100W        W88426  33.484  12.772  13.331
16101W        W88427   5.777   6.687   1.402
16102W        W88428  34.995   6.322  10.967
16103W        W88429  38.480  40.540   0.312
16104W        W88430  39.860  31.090  12.855
16105W        W88431  39.471   6.870  12.540
16106W        W88432  33.433  10.863   3.719
16107W        W88433   9.267  44.994  11.535
16108W        W88434  16.147  42.512   4.191
16109W        W88435  34.052  18.136  12.406
16110W        W88436  26.998  30.511  12.578
16111W        W88437   6.861  44.870  11.887
16112W        W88438   9.380  37.026   3.701
16113W        W88439  38.511  24.006   1.890
16114W        W88440   8.857  30.092   2.226
16115W        W88441  34.529  36.551  14.893
16116W        W88442  44.930   7.322  10.565
16117W        W88443   0.430   1.397  14.280
16118W        W88444  14.780  21.137   1.260
16119W        W88445  16.232  24.168   3.301
16120W        W88446  44.484  21.100   2.806
16121W        W88447  22.714  15.248  13.352
16122W        W88448  26.965  22.036  13.328
16123W        W88449  30.913  29.116   0.779
16124W        W88450  36.367  15.147   4.647
16125W        W88451   0.805  26.628  12.488
16126W        W88452   2.456  25.219   4.166
16127W        W88453  31.974  24.621  13.904
16128W        W88454  24.123  42.796   2.376
16129W        W88455  38.543   1.351   3.284
16130W        W88456  32.915  32.032  14.823
16131W        W88457  16.734  14.266   2.224
16132W        W88458  15.147   0.903  10.473
16133W        W88459  30.580  15.231   3.190
16134W        W88460  39.847  19.220  13.542
16135W        W88461   0.468  41.948  13.980
16136W        W88462  11.146  27.038   2.297
16137W        W88463  29.952   4.267  10.890
16138W        W88464  10.841  13.654   0.759
16139W        W88465  31.601  33.565  10.947
16140W        W88466  44.864  22.531  14.923
16141W        W88467  15.711  18.214   2.876
16142W        W88468  33.560  42.420   4.642
16143W        W88469  24.218  16.144  14.335
16144W        W88470  14.264  17.105  13.918
16145W        W88471  11.314  21.256   1.332
16146W        W88472   5.775  24.011   3.659
16147W        W88473  35.948   0.838   0.776
16148W        W88474   1.365  22.162   4.199
16149W        W88475   1.460  35.505   4.650
16150W        W88476  41.361   1.974  13.063
16151W        W88477  25.006  20.579   2.276
16152W        W88478  39.492  27.122  12.357
16153W        W88479  27.571  11.240  14.315
16154W        W88480   1.396  39.894   3.713
16155W        W88481  39.331  22.555   1.741
16156W        W88482  21.591  20.627  11.930
16157W        W88483  39.513   0.265  13.854
16158W        W88484  26.572  21.594   1.274
16159W        W88485   2.353   3.946  10.940
16160W        W88486  17.753  38.976   2.417
16161W        W88487  22.564  27.651   3.737
16162W        W88488   9.347  24.606  14.782
16163W        W88489  13.328   9.158  12.562
16164W        W88490   0.346  28.646  10.612
16165W        W88491  10.315  30.154  12.368
16166W        W88492  43.894  30.513  12.418
16167W        W88493  28.559  44.808   0.906
16168W        W88494  18.775  34.388  10.631
16169W        W88495  33.527  29.991   0.416
16170W        W88496  18.630  28.176   2.375
16171W        W88497   8.781  32.549  10.916
16172W        W88498  27.162  17.061  13.408
16173W        W88499   4.272   2.762  11.589
16174W        W88500   0.318  36.527  11.020
16175W        W88501  36.993  17.139  11.607
16176W        W88502  21.156  40.984  14.767
16177W        W88503  20.535  22.676  12.045
16178W        W88504  17.062  20.169  14.996
16179W        W88505  43.446   7.868   3.361
16180W        W88506  33.514  35.095   5.187
16181W        W88507  11.816   9.323   3.363
16182W        W88508  33.427  12.849  12.002
16183W        W88509   3.776  41.969   4.810
16184W        W88510  27.006  33.532   0.270
16185W        W88511  25.985   4.852   1.323
16186W        W88512  32.471  24.652  10.584
16187W        W88513  24.098  33.948  10.509
16188W        W88514  20.725   7.890  10.643
16189W        W88515  25.102   1.459   4.262
16190W        W88516  32.023  31.619  14.411
16191W        W88517  29.538  13.163  14.344
16192W        W88518  21.147   6.689   3.184
16193W        W88519  34.946  42.527   1.332
16194W        W88520  13.688  14.768   4.278
16195W        W88521  15.654  11.864   0.917
16196W        W88522   8.707   6.698   3.753
16197W        W88523  13.777  37.364   4.266
16198W        W88524  22.069  44.382  13.014
16199W        W88525   9.689  13.729   3.750
16200W        W88526  14.284  29.123   1.373
16201W        W88527  23.715  15.777   4.709
16202W        W88528   1.369   1.779  10.040
16203W        W88529  22.195   3.814  14.886
16204W        W88530  18.248  41.914   0.890
16205W        W88531   6.691  38.565  12.472
16206W        W88532  15.113  39.909  11.906
16207W        W88533   0.388  41.955   2.295
16208W        W88534  36.069  22.007  10.997
16209W        W88535   0.258   6.388  11.577
16210W        W88536   2.866  23.658   2.785
16211W        W88537  26.462   0.928   2.198
16212W        W88538   9.776  17.607  12.350
16213W        W88539  27.095  37.379  13.336
16214W        W88540  26.992  38.876   3.212
16215W        W88541   5.236   6.792   3.673
16216W        W88542  15.101  30.019  14.873
16217W        W88543   6.787   5.280  12.957
16218W        W88544  23.542  14.183   4.787
16219W        W88545  21.119   4.760   3.704
16220W        W88546  17.784  10.217  13.881
16221W        W88547   1.438  37.489   1.930
16222W        W88548  26.596  19.262   2.275
16223W        W88549  21.199  43.956   5.219
16224W        W88550   6.349  33.423   2.352
16225W        W88551  10.273  15.314   2.244
16226W        W88552   0.886  11.185   1.288
16227W        W88553  12.725  16.251   4.217
16228W        W88554  14.608  32.512  13.500
16229W        W88555  12.737  29.623  13.043
16230W        W88556   7.275  41.941   3.668
16231W        W88557  25.515  25.032  11.530
16232W        W88558  16.298  16.089  12.842
16233W        W88559   7.689   0.470  13.833
16234W        W88560   3.743  43.979   3.813
16235W        W88561   3.390  43.403  12.006
16236W        W88562  42.496  20.752  11.916
16237W        W88563  43.964  34.492  13.969
16238W        W88564  10.383  31.933   1.369
16239W        W88565  24.997  35.565   4.297
16240W        W88566  44.796  19.734   4.690
16241W        W88567  22.645  19.079   3.172
16242W        W88568  29.140  17.774   2.768
16243W        W88569  10.692  38.454   0.262
16244W        W88570  19.194  23.164  14.419
16245W        W88571  12.342   0.801  10.971
16246W        W88572   1.378  13.731  13.064
16247W        W88573  16.268  18.598  13.475
16248W        W88574  29.080   8.810   4.349
16249W        W88575  32.921  34.976   3.753
16250W        W88576  30.008  30.142  11.080
16251W        W88577  44.429  17.285  10.579
16252W        W88578  11.171  16.160  10.966
16253W        W88579  25.159  41.899   4.682
16254W        W88580   0.754   4.311  13.991
16255W        W88581  13.265  14.286  13.944
16256W        W88582  33.533   4.811  14.885
16257W        W88583  31.635  20.223   3.209
16258W        W88584  22.667  28.475  11.550
16259W        W88585  33.479  24.160   3.228
16260W        W88586  14.787  29.616   4.664
16261W        W88587   1.255  13.629   4.150
16262W        W88588  21.031  23.128   3.337
16263W        W88589  25.076  23.023  10.514
16264W        W88590  43.782  41.864  12.870
16265W        W88591  12.230   5.223   1.343
16266W        W88592  26.555  38.393  13.990
16267W        W88593   9.313  12.322   0.360
16268W        W88594  39.002  35.594  10.126
16269W        W88595  16.245  26.696   3.717
16270W        W88596  20.587  42.028  14.965
16271W        W88597  30.441  23.996   4.277
16272W        W88598  30.918  34.956   2.832
16273W        W88599  21.256  14.204   0.769
16274W        W88600  16.293  41.881  11.427
16275W        W88601  44.353  19.066   3.349
16276W        W88602  33.474   5.707   3.371
16277W        W88603   8.276  35.441   2.708
16278W        W88604  28.966   9.683  12.946
16279W        W88605  35.865  42.510   0.338
16280W        W88606  17.627  22.198   3.331
16281W        W88607  38.517  22.712  12.831
16282W        W88608  19.581  11.776   1.270
16283W        W88609  40.414  33.498   3.310
16284W        W88610  39.817   1.947  13.020
16285W        W88611   6.395  31.998  10.435
16286W        W88612  23.559  43.447   4.616
16287W        W88613   1.917  44.372   1.926
16288W        W88614  32.512   4.922  10.630
16289W        W88615  12.625  43.882   0.839
16290W        W88616  29.002  16.142  11.391
16291W        W88617  17.774  15.171  10.900
16292W        W88618  35.070  40.861   4.785
16293W        W88619   3.834   4.210   5.771
16294W        W88620   5.842  22.737  10.500
16295W        W88621  16.132  28.454   2.744
16296W        W88622  16.215  28.087  14.423
16297W        W88623   9.318  39.963   9.925
16298W        W88624  44.281   6.382  12.952
16299W        W88625  32.060  22.162   0.773
16300W        W88626  10.315   4.450   1.292
16301W        W88627  21.661  35.094   1.216
16302W        W88628  13.735  32.537   0.804
16303W        W88629  33.551  40.375   0.761
16304W        W88630   6.199  21.676  11.393
16305W        W88631  19.082  19.596   2.896
16306W        W88632  23.655  28.055  14.513
16307W        W88633  18.097  29.143   1.713
16308W        W88634   0.432  40.995   0.390
16309W        W88635  14.612  32.558  12.042
16310W        W88636   4.748   8.362  11.386
16311W        W88637  28.975  17.178  12.418
16312W        W88638  10.307   4.718  11.495
16313W        W88639  13.741  18.700  14.843
16314W        W88640  40.304  26.512  12.367
16315W        W88641  14.734   5.835  13.819
16316W        W88642  42.490  10.380  13.941
16317W        W88643  42.804  36.025  10.457
16318W        W88644   0.441  12.757  13.974
16319W        W88645  38.337   9.855  10.161
16320W        W88646   5.910  15.155   3.636
16321W        W88647  38.964  32.578   4.144
16322W        W88648  23.121  15.181   4.838
16323W        W88649  28.968  23.217  11.973
16324W        W88650   7.190   9.673  14.963
16325W        W88651  20.051  37.481   1.418
16326W        W88652  31.449  38.920  10.991
16327W        W88653  40.334  38.866   0.932
16328W        W88654  31.502  10.813  10.576
16329W        W88655  15.765  39.364   1.776
16330W        W88656   4.405   2.735   5.596
16331W        W88657  17.220  33.024  14.385
16332W        W88658  43.873  12.703  12.416
16333W        W88659   2.947   3.854   3.747
16334W        W88660   4.804   0.296   3.656
16335W        W88661  40.417   7.395   2.880
16336W        W88662   6.420  28.999  10.109
16337W        W88663  10.260  17.761  11.612
16338W        W88664  12.256  22.071   0.764
16339W        W88665  37.511  35.934   4.718
16340W        W88666  43.314   9.803  14.423
16341W        W88667  22.122  42.799   3.727
16342W        W88668  14.153  38.347  10.620
16343W        W88669   9.740  13.815  13.005
16344W        W88670  40.985  15.297   0.355
16345W        W88671  18.592  33.557  14.850
16346W        W88672  20.602  15.752  11.113
16347W        W88673  44.428  29.085   4.207
16348W        W88674   3.252  36.878   4.249
16349W        W88675   9.815  33.893   2.693
16350W        W88676  26.151   2.740   1.790
16351W        W88677  44.893  13.820   1.883
16352W        W88678  13.117   6.317   2.236
16353W        W88679   4.356  14.182  14.977
16354W        W88680  43.949  40.936   3.329
16355W        W88681  31.428  33.510   4.133
16356W        W88682  43.458  44.888   2.742
16357W        W88683   0.288   1.977   4.128
16358W        W88684   1.948  43.006   2.201
16359W        W88685  13.763  34.578  12.929
16360W        W88686  23.996  12.762  12.857
16361W        W88687   7.390   0.450  12.377
16362W        W88688  19.231  29.025  11.552
16363W        W88689  32.019  33.599   1.265
16364W        W88690  15.756   4.388   2.880
16365W        W88691   7.874  27.050   2.720
16366W        W88692  18.784  44.779  12.844
16367W        W88693  38.377  18.125   3.152
16368W        W88694   0.869  13.319  14.824
16369W        W88695  25.589  17.589  13.822
16370W        W88696  11.291  42.011  11.416
16371W        W88697   7.248  28.543   0.925
16372W        W88698   6.718  11.234   3.641
16373W        W88699  17.698  32.126  12.856
16374W        W88700   4.248  27.474   4.296
16375W        W88701  31.119  12.728   2.672
16376W        W88702  40.421  39.003  11.544
16377W        W88703  30.480   3.732  13.806
16378W        W88704  37.910   7.341  11.994
16379W        W88705  14.797   1.788  11.378
16380W        W88706  15.223  12.668   2.802
16381W        W88707  29.472  16.734  14.298
16382W        W88708   7.391  19.776  11.530
16383W        W88709  23.059  19.699  14.412
16384W        W88710  27.446   5.247  11.095
16385W        W88711  42.440  32.513  14.466
16386W        W88712  18.147  12.338  11.125
16387W        W88713  11.205  20.583   3.768
16388W        W88714   5.201   7.881  12.573
16389W        W88715   7.896  33.117   4.295
16390W        W88716  23.628  21.185   4.647
16391W        W88717  33.097  36.349  13.863
16392W        W88718  32.626  34.470   1.886
16393W        W88719   9.779  37.528  13.803
16394W        W88720  25.535  13.768   0.965
16395W        W88721  20.034  40.447   1.221
16396W        W88722  33.419  42.981  11.480
16397W        W88723  31.069  33.583   3.823
16398W        W88724  17.705  26.593   1.422
16399W        W88725   0.836  38.900  14.365
16400W        W88726   0.272  39.334   1.855
16401W        W88727   1.286  27.162  14.773
16402W        W88728  32.434  23.512  14.302
16403W        W88729  14.672  44.408  11.553
16404W        W88730  42.883  30.012   0.317
16405W        W88731   7.776   2.400   2.880
16406W        W88732   5.330   5.439   3.250
16407W        W88733  32.587  13.130   3.347
16408W        W88734  21.133  34.597  12.980
16409W        W88735  40.020   3.291  14.980
16410W        W88736   7.776  18.074  11.064
16411W        W88737  15.299  18.121  12.563
16412W        W88738  40.811  28.485   0.275
16413W        W88739  30.436  39.057  11.585
16414W        W88740  44.446  16.161   3.784
16415W        W88741   5.231  22.617  11.374
16416W        W88742  39.497   2.423   1.727
16417W        W88743  27.522  32.952   4.602
16418W        W88744  31.077  15.580   4.641
16419W        W88745  21.087  13.108  14.025
16420W        W88746  34.954  35.409  13.028
16421W        W88747  38.551   9.351  12.880
16422W        W88748   2.915  36.973   4.714
16423W        W88749  31.006  23.577  10.946
16424W        W88750  38.998  21.571  11.101
16425W        W88751   2.737  33.051  13.843
16426W        W88752   8.695   1.269   3.195
16427W        W88753  41.346  24.044  14.453
16428W        W88754  19.105   0.331   4.252
16429W        W88755   3.253  28.005   4.779
16430W        W88756  10.213  31.109  12.354
16431W        W88757  10.220   0.445  12.345
16432W        W88758  37.417  13.332   4.793
16433W        W88759  31.010  15.164  13.825
16434W        W88760  31.618   7.799  12.037
16435W        W88761  19.664   0.315   2.300
16436W        W88762   3.898   8.346  10.616
16437W        W88763   3.747  20.595  11.903
16438W        W88764  16.176   4.411   4.807
16439W        W88765  42.434  13.183  14.843
16440W        W88766  34.376  36.019  10.098
16441W        W88767  30.446  11.815  13.361
16442W        W88768  20.561   3.400   1.763
16443W        W88769  36.062   6.251  12.846
16444W        W88770  13.148   6.187  10.571
16445W        W88771  28.560  13.689   3.326
16446W        W88772  14.665  21.253  12.993
16447W        W88773  29.660  27.528   9.997
16448W        W88774  10.213  38.044   1.732
16449W        W88775   9.883  29.976   0.848
16450W        W88776  11.816  20.154  11.940
16451W        W88777  42.420  10.158   1.910
16452W        W88778   9.871  23.147  11.011
16453W        W88779  33.954  15.592   0.272
16454W        W88780  16.658   8.785  14.854
16455W        W88781  40.833   1.846  12.848
16456W        W88782  30.142  34.979  12.907
16457W        W88783  26.083  13.217   2.289
16458W        W88784  39.834   7.406   4.634
16459W        W88785  39.414  43.875   3.841
16460W        W88786  18.649  24.149  13.367
16461W        W88787  16.599  25.977  13.030
16462W        W88788   3.443  26.966   0.780
16463W        W88789  32.120  39.418   3.330
16464W        W88790  14.333  12.302   1.383
16465W        W88791  41.876  26.527  10.042
16466W        W88792  24.596  37.889   9.574
16467W        W88793  43.420   8.374  12.526
16468W        W88794   2.382  24.601  13.492
16469W        W88795  17.724   2.413  12.554
16470W        W88796  38.472  26.965  11.394
16471W        W88797  42.330  27.027  11.009
16472W        W88798   3.315  27.039   2.699
16473W        W88799  35.558  13.200   4.669
16474W        W88800  43.492  10.329   4.758
16475W        W88801  19.120  32.439   4.777
16476W        W88802  18.779  35.559   0.769
16477W        W88803  38.924  19.178   3.652
16478W        W88804  12.743  36.090  12.384
16479W        W88805  29.930  40.402  13.384
16480W        W88806   8.816  43.799   2.319
16481W        W88807  41.938  33.895  12.474
16482W        W88808  34.983  31.005  14.498
16483W        W88809   2.429  34.404   4.760
16484W        W88810   0.969  15.629  14.942
16485W        W88811  23.534   4.380  13.464
16486W        W88812  41.397  13.649   4.805
16487W        W88813  20.249  24.048   3.869
16488W        W88814  37.522  15.239   2.417
16489W        W88815  42.777  22.662   3.814
16490W        W88816  35.976   4.371  11.487
16491W        W88817  33.119  23.117   0.286
16492W        W88818  31.566  37.358   3.830
16493W        W88819   7.761  11.676  11.560
16494W        W88820  16.769  22.653  11.526
16495W        W88821  17.252  14.243  13.886
16496W        W88822  19.707   0.287   0.896
16497W        W88823   4.391  20.233  14.299
16498W        W88824  42.466  28.489  10.464
16499W        W88825  20.692  44.778  12.825
16500W        W88826  22.139  28.056   4.728
16501W        W88827   4.843  36.490   1.694
16502W        W88828  31.604  38.869  12.872
16503W        W88829  16.600  34.564  12.921
16504W        W88830  24.064  17.213   2.704
16505W        W88831  30.138  16.105   1.744
16506W        W88832  41.819   7.904  11.087
16507W        W88833  15.773   7.710   4.209
16508W        W88834  25.111  30.559   0.324
16509W        W88835  22.094  25.107   3.808
16510W        W88836  36.890  11.677  13.499
16511W        W88837  29.001  33.129  13.843
16512W        W88838  36.088  13.827   3.273
16513W        W88839  12.757  19.774  11.474
16514W        W88840  35.514  18.062   4.319
16515W        W88841  17.125  40.507   3.326
16516W        W88842  28.114  44.940   4.728
16517W        W88843  21.725   0.306  13.015
16518W        W88844  22.248   7.196   0.332
16519W        W88845  36.060  21.037   2.240
16520W        W88846   7.373   8.328   1.732
16521W        W88847  19.757  11.249   1.906
16522W        W88848  22.084  13.661  10.623
16523W        W88849  38.013  39.379  13.527
16524W        W88850  33.484  13.175   3.861
16525W        W88851   9.319  43.481  12.015
16526W        W88852   4.796  22.216   5.275
16527W        W88853  29.935  34.924  10.445
16528W        W88854  18.282   9.797  13.958
16529W        W88855  40.917  22.715   3.217
16530W        W88856  17.176   3.731  14.993
16531W        W88857  43.805  10.175  12.917
16532W        W88858  27.601  35.891   1.785
16533W        W88859  20.045  10.836   1.863
16534W        W88860  13.324  22.066  13.003
16535W        W88861  16.649   0.859  14.015
16536W        W88862  39.831   0.434  13.503
16537W        W88863  21.216  25.557   0.308
16538W        W88864   7.803   5.206  11.377
16539W        W88865   6.302  13.177  12.485
16540W        W88866  43.482  16.310   4.811
16541W        W88867  15.652  24.488   0.320
16542W        W88868   2.957  44.987  12.062
16543W        W88869  27.514  14.160  11.013
16544W        W88870  41.914  44.945   3.766
16545W        W88871  19.625   3.315   2.353
16546W        W88872   0.800   3.299   5.212
16547W        W88873  40.813  36.950  10.909
16548W        W88874  22.689  24.071   3.292
16549W        W88875   2.830  17.770   2.218
16550W        W88876  36.462  39.537   3.381
16551W        W88877  34.063   3.874  12.006
16552W        W88878  17.675  13.344   1.909
16553W        W88879  30.656   5.906   2.244
16554W        W88880   6.893  33.934   3.651
16555W        W88881   2.899  35.074  14.814
16556W        W88882   4.846  27.585   2.218
16557W        W88883  44.286  23.112  10.526
16558W        W88884   3.841   6.731  11.492
16559W        W88885  43.489   2.904  14.419
16560W        W88886  26.624  33.501  11.883
16561W        W88887  44.819  34.431  14.967
16562W        W88888  14.761  20.241   0.825
16563W        W88889   9.168  12.630  11.504
16564W        W88890  40.989  21.681   3.353
16565W        W88891   4.754   3.338  11.487
16566W        W88892  35.045  19.584  10.983
16567W        W88893  37.533  34.525   0.311
16568W        W88894  28.609  37.847   1.836
16569W        W88895  42.779   3.429   4.819
16570W        W88896   5.240  29.639  10.034
16571W        W88897  18.765  20.235  12.418
16572W        W88898  30.083  21.622   1.226
16573W        W88899  28.510  39.893  10.513
16574W        W88900  34.081  44.853   0.455
16575W        W88901  26.505  41.430   1.233
16576W        W88902  13.110   5.326   3.209
16577W        W88903  20.534  29.111  13.529
16578W        W88904  25.589  43.837  11.430
16579W        W88905   8.354   1.367  12.088
16580W        W88906  10.710   1.253  12.047
16581W        W88907  13.715  36.424   4.191
16582W        W88908  37.396  34.522  14.785
16583W        W88909  31.054   5.331   0.901
16584W        W88910  40.009   6.194  13.454
16585W        W88911  20.620  38.435   4.124
16586W        W88912   1.789  17.733   0.290
16587W        W88913  16.575  42.030  13.011
16588W        W88914  36.353   9.213   0.882
16589W        W88915  16.124  34.014  14.340
16590W        W88916   4.380  14.202   4.246
16591W        W88917  24.101  28.062   1.276
16592W        W88918  38.357  30.021  14.027
16593W        W88919   0.294  35.523   3.195
16594W        W88920  19.194  23.036   4.747
16595W        W88921  20.737  33.882  12.990
16596W        W88922   5.927  38.538   0.804
16597W        W88923  14.706  19.078  10.501
16598W        W88924  26.700  37.912  11.418
16599W        W88925  44.985   3.759  13.872
16600W        W88926  28.508  13.604  11.989
16601W        W88927   9.695  32.066   1.832
16602W        W88928  21.175   0.773  11.049
16603W        W88929  17.103  43.878   3.318
16604W        W88930  20.755  43.386   3.354
16605W        W88931   9.235  29.027  13.056
16606W        W88932  39.988  31.596  10.576
16607W        W88933   0.383  43.001  13.999
16608W        W88934   2.461  36.943   3.339
16609W        W88935  35.404   9.177  12.471
16610W        W88936  43.414   6.792  12.867
16611W        W88937  34.580  30.465   3.191
16612W        W88938  31.909  18.604   2.876
16613W        W88939  28.982  14.818   3.678
16614W        W88940  38.010  19.211  10.415
16615W        W88941  38.847  40.324  14.018
16616W        W88942  21.701  38.410  10.108
16617W        W88943  29.655  41.451  12.497
16618W        W88944  25.578   2.860  11.877
16619W        W88945  39.540  39.860   0.476
16620W        W88946  14.679  32.102  14.474
16621W        W88947  15.796  41.029  14.374
16622W        W88948  40.432   9.833   0.255
16623W        W88949   9.343   8.753  13.031
16624W        W88950  31.147  22.214  11.005
16625W        W88951  25.616  11.623   4.789
16626W        W88952  27.046  43.327  10.430
16627W        W88953  39.345  21.130  12.522
16628W        W88954  33.418  20.087  10.525
16629W        W88955  22.111  29.137   3.206
16630W        W88956  44.427  11.296   2.273
16631W        W88957  23.006  43.835  14.404
16632W        W88958   0.911  43.468  12.883
16633W        W88959  44.967   5.819   4.832
16634W        W88960  24.066   8.314  14.290
16635W        W88961  14.701  12.134  14.005
16636W        W88962  12.311  38.520   0.378
16637W        W88963   2.785  40.536  12.510
16638W        W88964  24.670  15.242   9.570
16639W        W88965  30.069   4.225   1.230
16640W        W88966  42.502  35.527  10.896
16641W        W88967  24.667  14.656   3.203
16642W        W88968  20.651  15.712  13.034
16643W        W88969  31.083  30.535  14.761
16644W        W88970  11.229  29.983   1.815
16645W        W88971  23.628  40.540  11.882
16646W        W88972  32.068  43.815   4.164
16647W        W88973  23.122  24.087  13.354
16648W        W88974  17.762  34.602   2.191
16649W        W88975  24.518   7.744  11.042
16650W        W88976   9.396  44.276   2.336
16651W        W88977  35.904   5.734   3.346
16652W        W88978  23.044   0.463   1.746
16653W        W88979  27.559   1.409  12.381
16654W        W88980  37.863  20.561   2.769
16655W        W88981   8.691  33.971  11.870
16656W        W88982  43.423   4.720   4.123
16657W        W88983  32.587  10.835   0.748
16658W        W88984  44.798   1.742  13.039
16659W        W88985  35.054   7.350  13.532
16660W        W88986  14.207  37.019   4.249
16661W        W88987  24.540  15.315   3.222
16662W        W88988  25.565   8.738  11.510
16663W        W88989   8.743  39.412  11.470
16664W        W88990  21.609  20.686  13.377
16665W        W88991  39.512  18.150   0.831
16666W        W88992   9.287  37.867   2.316
16667W        W88993   5.895   3.901   2.869
16668W        W88994  26.194  37.940  12.886
16669W        W88995   9.666  20.644   2.250
16670W        W88996  26.579  32.111   4.246
16671W        W88997   1.278  19.575   2.762
16672W        W88998  11.170   5.339  13.920
16673W        W88999  15.282   8.791   3.642
16674W        W89000  40.508  25.186  11.083
16675W        W89001  18.690  36.569  11.459
16676W        W89002  34.094  23.016   2.312
16677W        W89003  25.977  15.297  11.024
16678W        W89004  11.319  11.356  11.920
16679W        W89005  43.298   2.422  11.454
16680W        W89006  13.128  16.087  12.978
16681W        W89007   8.258  40.440   4.775
16682W        W89008   3.223  22.136  10.623
16683W        W89009  15.642  15.778   1.806
16684W        W89010   1.377  37.386   0.732
16685W        W89011  30.550  29.538   3.726
16686W        W89012  10.304  40.904   1.296
16687W        W89013  42.297  31.959   5.280
16688W        W89014   3.844  31.124  10.557
16689W        W89015   5.280  39.983  10.482
16690W        W89016  35.929  30.488   0.243
16691W        W89017  19.616  27.122   0.894
16692W        W89018  10.155  21.179   3.305
16693W        W89019  13.642  10.206  15.000
16694W        W89020  42.920  18.148  14.770
16695W        W89021  43.277  27.544   4.175
16696W        W89022  35.000  41.897   2.709
16697W        W89023   6.379   1.924  11.089
16698W        W89024  42.428  37.402  11.613
16699W        W89025  21.064   6.280  11.424
16700W        W89026   6.705  11.861  14.386
16701W        W89027   8.779  29.975  14.318
16702W        W89028  39.874  12.271  13.914
16703W        W89029  33.051  30.487   0.262
16704W        W89030  12.840  13.714  12.521
16705W        W89031  41.334  39.839  11.605
16706W        W89032  15.249  31.621   3.660
16707W        W89033  34.874   4.861   2.792
16708W        W89034  13.210   2.430   3.858
16709W        W89035  18.607  22.515  13.817
16710W        W89036   4.280  20.528  13.540
16711W        W89037   4.704  14.696  14.946
16712W        W89038  40.033   3.808   2.183
16713W        W89039  22.686   4.852   1.880
16714W        W89040  11.857   3.288   5.112
16715W        W89041   3.748  44.454   3.657
16716W        W89042  15.781  41.395  14.389
16717W        W89043  34.586  21.117  11.876
16718W        W89044  11.149  11.289   1.440
16719W        W89045  42.308   7.211   3.333
16720W        W89046  10.335  17.639  12.075
16721W        W89047   0.252  40.401   2.362
16722W        W89048   5.733  13.734   4.290
16723W        W89049  29.927  32.030  13.003
16724W        W89050  17.574  16.177  14.282
16725W        W89051  40.305  14.282   9.962
16726W        W89052   0.759  11.634  10.645
16727W        W89053  24.037  43.838  12.951
16728W        W89054   5.356   7.258  11.948
16729W        W89055   5.293  37.058  13.915
16730W        W89056  16.734  43.008   0.258
16731W        W89057  33.497  19.695   2.227
16732W        W89058   5.689  32.096  14.886
16733W        W89059   4.394  22.161   2.277
16734W        W89060  11.188   0.940  10.597
16735W        W89061   9.241  23.102  10.888
16736W        W89062   5.320  40.862  12.857
16737W        W89063  30.468  16.644  12.844
16738W        W89064  25.666   0.903   0.953
16739W        W89065  40.350  28.453   4.829
16740W        W89066   8.160  39.545  12.380
16741W        W89067  28.010  41.913   3.337
16742W        W89068  17.122  26.969  13.005
16743W        W89069  33.903  18.074   0.863
16744W        W89070  17.581  21.020   1.343
16745W        W89071  22.638  23.144   0.730
16746W        W89072  41.514  39.926  14.274
16747W        W89073  40.950  35.877  14.371
16748W        W89074  21.258  26.487  11.484
16749W        W89075  36.921  33.469  13.359
16750W        W89076  10.746   5.923  14.313
16751W        W89077   4.776  38.966  13.018
16752W        W89078  38.890  37.574   5.084
16753W        W89079  27.159   7.383   3.337
16754W        W89080  44.765   0.253  11.379
16755W        W89081  17.711  30.040  14.989
16756W        W89082  39.873   1.965  13.543
16757W        W89083  20.568  28.044   1.707
16758W        W89084  14.099  33.091   0.468
16759W        W89085  28.552  22.672  14.290
16760W        W89086   0.365  38.344   1.309
16761W        W89087   8.290  23.731   2.273
16762W        W89088  14.239   9.320   3.655
16763W        W89089  22.140  35.892  12.498
16764W        W89090  13.635  42.414  11.566
16765W        W89091  24.139  19.184  10.924
16766W        W89092  36.433  43.888   3.244
16767W        W89093  21.689  39.054   1.356
16768W        W89094  38.433  35.602   2.183
16769W        W89095  19.773   3.711   3.866
16770W        W89096   5.811   0.255   1.245
16771W        W89097  15.752  27.097  11.085
16772W        W89098   9.363  27.691   3.773
16773W        W89099  40.907  12.284  11.891
16774W        W89100  13.203  29.971   4.265
16775W        W89101   0.464  13.690  11.416
16776W        W89102  15.178  16.281   4.184
16777W        W89103   0.875  42.877  14.353
16778W        W89104  31.927  11.151  11.427
16779W        W89105  29.628  18.594   3.268
16780W        W89106   3.349  17.071  11.585
16781W        W89107  23.150  10.643   4.746
16782W        W89108  21.175  26.186   3.832
16783W        W89109  35.428  22.147  13.333
16784W        W89110  41.303  41.951  12.543
16785W        W89111  31.558  14.604  12.087
16786W        W89112  29.989   4.859   3.864
16787W        W89113  33.128  14.188  12.448
16788W        W89114  39.048  40.355  11.918
16789W        W89115  16.758  28.603   3.152
16790W        W89116   9.731  25.038   1.395
16791W        W89117  24.010  21.172   1.314
16792W        W89118  32.060  16.133  10.624
16793W        W89119   1.799   5.757  14.921
16794W        W89120   1.768  16.297   1.811
16795W        W89121  43.465  34.507   5.088
16796W        W89122  30.602  22.610  12.502
16797W        W89123   7.211  24.030  13.523
16798W        W89124  41.888  31.460  11.066
16799W        W89125  37.373   3.383  13.465
16800W        W89126  40.896  42.443   0.408
16801W        W89127  28.667  19.133   2.764
16802W        W89128  24.570  19.240   4.129
16803W        W89129   8.746  17.204  12.983
16804W        W89130  23.237  39.401   2.386
16805W        W89131   3.231  20.060   4.693
16806W        W89132   3.365  14.697   1.868
16807W        W89133  27.052  15.290   0.801
16808W        W89134   0.755   0.925   4.606
16809W        W89135  25.611   9.196  13.524
16810W        W89136   4.386  14.203   5.219
16811W        W89137  32.995  39.876   0.248
16812W        W89138  13.163  20.658  14.030
16813W        W89139   9.222  43.338  13.532
16814W        W89140  27.555  21.689   2.389
16815W        W89141  20.637  40.491  13.313
16816W        W89142   2.230  10.744  10.642
16817W        W89143  20.095   0.893  10.968
16818W        W89144  38.522   9.643   2.861
16819W        W89145  33.094   9.248   4.626
16820W        W89146  39.052  31.061  13.909
16821W        W89147  31.946  16.709  12.999
16822W        W89148  27.546  31.446  12.370
16823W        W89149  42.395   6.790   2.322
16824W        W89150   2.268  30.929  11.390
16825W        W89151  35.978  44.938   0.941
16826W        W89152  11.765  18.689  10.572
16827W        W89153  35.485   8.741  14.409
16828W        W89154  12.728  27.034   0.915
16829W        W89155  43.359  16.174   0.434
16830W        W89156  15.176   4.844  12.340
16831W        W89157  22.053  29.954   3.343
16832W        W89158  42.811  35.931  12.029
16833W        W89159  33.106  15.099  10.431
16834W        W89160  25.680   4.753  10.942
16835W        W89161  21.138  32.889   0.361
16836W        W89162  35.498   8.203   4.122
16837W        W89163  40.909  29.530  11.106
16838W        W89164  43.984  35.946   3.715
16839W        W89165  38.376   6.877   0.875
16840W        W89166  20.060  17.735   4.159
16841W        W89167  35.475  43.363  11.001
16842W        W89168  16.705  17.620   4.724
16843W        W89169  32.628  16.265   4.829
16844W        W89170  34.933   9.160  14.012
16845W        W89171   6.783  41.302  11.454
16846W        W89172  12.321  25.008   3.632
16847W        W89173  17.258  32.891   1.925
16848W        W89174  35.962  19.670   4.796
16849W        W89175  28.958  25.965  10.532
16850W        W89176   8.761   3.872   0.303
16851W        W89177  25.068  12.268  12.438
16852W        W89178   9.344   1.843  12.445
16853W        W89179  22.623   7.798   4.270
16854W        W89180  26.532  42.004   0.249
16855W        W89181  26.697  38.993  13.378
16856W        W89182  23.625  15.295  14.934
16857W        W89183  16.192  31.982   2.833
16858W        W89184  18.178   1.236  13.837
16859W        W89185   5.828  43.791   4.202
16860W        W89186  21.040   3.459  14.460
16861W        W89187   9.316  22.567  13.384
16862W        W89188  30.561  39.955  13.437
16863W        W89189  33.018  17.093  10.507
16864W        W89190  42.024   1.422   1.855
16865W        W89191  25.017  28.182  13.865
16866W        W89192  26.536  20.178   4.117
16867W        W89193  11.212  35.474  12.351
16868W        W89194  44.471  11.836  10.916
16869W        W89195  31.413  22.597  14.975
16870W        W89196   8.872  17.084   0.475
16871W        W89197  26.092  42.862  12.862
16872W        W89198  27.469  23.152   2.396
16873W        W89199  31.483  15.722   3.350
16874W        W89200  25.557  37.022   2.743
16875W        W89201  23.679   8.388  13.942
16876W        W89202  11.168   6.388   1.312
16877W        W89203  12.843   1.277   3.668
16878W        W89204  26.552   9.857  13.919
16879W        W89205  20.115  36.359  12.840
16880W        W89206   9.773   8.660  14.409
16881W        W89207  20.052   3.267  14.760
16882W        W89208  10.634  20.702   2.412
16883W        W89209  42.776  44.418   5.087
16884W        W89210  12.731   6.349  11.084
16885W        W89211  24.583  19.636   3.658
16886W        W89212  25.007   2.914   1.414
16887W        W89213  23.013  30.639   4.710
16888W        W89214  32.990  27.973  13.529
16889W        W89215  15.733  41.953  10.927
16890W        W89216  36.570  35.512   2.246
16891W        W89217  42.857  42.384   1.376
16892W        W89218   9.778  40.998   3.288
16893W        W89219  20.238  31.086  13.463
16894W        W89220   9.271  36.586  13.034
16895W        W89221  26.182   1.934  11.002
16896W        W89222  43.791  19.718   3.378
16897W        W89223   4.700   3.823   0.807
16898W        W89224   5.429  43.330   2.358
16899W        W89225   5.240  34.560  13.373
16900W        W89226  37.961  18.073   2.326
16901W        W89227  34.433  31.443  14.359
16902W        W89228  11.788  22.658   0.763
16903W        W89229  11.802   4.854   1.931
16904W        W89230  37.978   3.868  11.057
16905W        W89231  40.414   0.364  12.471
16906W        W89232  31.567   4.855   1.825
16907W        W89233  17.570  38.342   0.307
16908W        W89234   6.800  38.410  13.452
16909W        W89235   6.314  15.309  14.819
16910W        W89236  39.870  29.044  11.523
16911W        W89237  25.542   7.367  14.769
16912W        W89238  14.643  21.242  13.917
16913W        W89239  27.029   4.700  11.379
16914W        W89240   5.815   5.865   4.211
16915W        W89241  16.285   9.824  13.436
16916W        W89242  16.636  27.688   2.411
16917W        W89243   1.942  34.432  13.793
16918W        W89244  28.082  13.263   2.763
16919W        W89245  23.556  15.151  13.330
16920W        W89246  26.605  18.084   4.691
16921W        W89247  31.129  28.664   1.410
16922W        W89248   2.297  15.754   3.712
16923W        W89249  40.352  32.613  11.469
16924W        W89250  38.978  16.722   4.260
16925W        W89251  30.609  16.732   0.309
16926W        W89252  22.550  16.241  11.550
16927W        W89253   5.417  41.499  13.400
16928W        W89254  26.471  23.602   4.749
16929W        W89255  16.809  30.016   4.147
16930W        W89256   1.257  14.324   5.183
16931W        W89257   9.149  10.328   3.719
16932W        W89258   7.849  11.149  13.339
16933W        W89259  35.035   3.375   4.162
16934W        W89260   3.436  17.235  14.008
16935W        W89261  36.949  10.708   2.203
16936W        W89262  24.610  34.954  12.432
16937W        W89263   7.313  11.660  12.368
16938W        W89264  27.988  23.059   0.833
16939W        W89265  37.374  16.647  14.292
16940W        W89266   7.324  22.687   1.768
16941W        W89267  23.727  35.108   3.365
16942W        W89268  32.547  42.871  10.443
16943W        W89269  43.354  16.609   1.823
16944W        W89270  17.773  24.090   1.363
16945W        W89271  17.215  20.062   2.691
16946W        W89272   7.706   3.228   9.955
16947W        W89273   1.881  19.564  14.946
16948W        W89274  30.512  29.139  11.944
16949W        W89275  14.739  18.724   3.763
16950W        W89276  33.938  14.190   2.202
16951W        W89277  10.361   8.388   0.753
16952W        W89278  19.208   8.202  11.128
16953W        W89279  40.944   8.701   1.375
16954W        W89280   0.795  36.038   0.266
16955W        W89281  10.285  30.927  13.341
16956W        W89282  14.589  40.425  13.388
16957W        W89283   6.811  31.465   3.653
16958W        W89284  22.252  19.049  10.448
16959W        W89285  39.825   8.848  14.306
16960W        W89286  28.942  37.544  11.489
16961W        W89287   6.302   4.776   2.679
16962W        W89288  27.671   5.386  13.042
16963W        W89289  21.115  37.831  11.599
16964W        W89290  28.022   5.736   2.880
16965W        W89291   1.469  39.426   2.272
16966W        W89292   3.262   9.776   2.406
16967W        W89293  28.655  10.820   3.663
16968W        W89294   6.308  11.702  11.973
16969W        W89295   1.250   2.271   3.855
16970W        W89296  27.125   7.241   1.352
16971W        W89297  42.348  29.491  13.339
16972W        W89298  35.958  10.729   3.249
16973W        W89299   9.862   9.685  13.933
16974W        W89300  10.674  23.496   0.913
16975W        W89301  20.625  43.271  14.503
16976W        W89302  41.831  17.198   0.433
16977W        W89303  21.725  10.138   4.213
16978W        W89304  39.405  36.002  11.013
16979W        W89305  15.655  29.578  11.389
16980W        W89306  36.086  39.444  10.430
16981W        W89307  37.022  36.094   3.176
16982W        W89308  16.694  17.663   2.897
16983W        W89309  24.722  33.577   2.735
16984W        W89310  29.149  33.097  14.327
16985W        W89311  20.608  43.889   3.770
16986W        W89312  13.231  37.435  10.143
16987W        W89313  18.068  11.372   4.813
16988W        W89314   6.715  35.395   4.331
16989W        W89315  15.774  35.462  14.480
16990W        W89316  13.654  36.946   1.845
16991W        W89317  21.736  36.957   0.811
16992W        W89318  36.504  24.113   0.864
16993W        W89319  22.665  25.985  12.914
16994W        W89320  44.816  33.002   2.372
16995W        W89321  34.117  34.615  10.992
16996W        W89322  16.197  16.708  10.994
16997W        W89323  21.744  42.395   3.799
16998W        W89324  39.058  10.359  14.474
16999W        W89325  13.299  30.516  12.570
17000W        W89326  21.606   2.250   0.319
17001W        W89327   8.666  22.507  12.858
17002W        W89328  40.816  36.095   1.424
17003W        W89329  39.381  41.430  12.388
17004W        W89330   4.791   8.877   2.397
17005W        W89331  13.183  38.378   4.665
17006W        W89332  16.617  42.940   4.164
17007W        W89333   6.363  31.646  13.863
17008W        W89334  11.684   0.285  13.808
17009W        W89335  31.916  21.263  11.086
17010W        W89336  12.657  17.200  13.546
17011W        W89337   3.764  27.540  13.968
17012W        W89338  15.189  43.431   3.301
17013W        W89339   8.732   1.248   1.257
17014W        W89340  14.591   5.211   4.690
17015W        W89341  14.322  27.198   0.303
17016W        W89342  42.848  22.505   1.415
17017W        W89343  11.851  35.985   0.880
17018W        W89344   5.327   5.914   1.809
17019W        W89345  42.490  13.661  10.460
17020W        W89346  26.073  20.593   0.829
17021W        W89347  24.550   0.977   0.310
17022W        W89348  35.944  37.891  14.422
17023W        W89349  12.786  27.646  12.512
17024W        W89350  23.678  27.517  10.914
17025W        W89351  44.481  38.981   5.272
17026W        W89352  15.714  13.115   0.283
17027W        W89353  24.225   6.377   2.251
17028W        W89354  12.709  38.530  11.921
17029W        W89355   2.371  39.435  11.546
17030W        W89356   4.297  26.600  10.570
17031W        W89357  19.078  18.551   0.470
17032W        W89358  14.804  14.105  10.464
17033W        W89359  28.640  40.965  14.876
17034W        W89360  42.289   3.369   3.202
17035W        W89361  17.795   0.413  12.893
17036W        W89362  35.536   8.845   0.953
17037W        W89363  13.130  40.391  13.900
17038W        W89364   3.902  32.020  12.430
17039W        W89365  26.119  39.044   4.626
17040W        W89366   1.836  35.598  10.435
17041W        W89367  19.579  41.460  14.786
17042W        W89368  23.082  36.861   3.290
17043W        W89369  19.689  25.598  14.448
17044W        W89370  22.174  38.326  12.552
17045W        W89371  30.512  40.019   1.756
17046W        W89372  14.596  35.041   4.620
17047W        W89373  40.397  25.673   2.321
17048W        W89374   6.287   2.852   0.388
17049W        W89375  28.976   9.693  11.390
17050W        W89376  40.970  38.450  11.396
17051W        W89377  39.402  41.824   3.738
17052W        W89378  39.390  39.003   0.959
17053W        W89379  19.757  31.607   2.736
17054W        W89380  21.739  31.547   3.645
17055W        W89381   7.689  33.538  14.915
17056W        W89382  41.438  10.697   3.650
17057W        W89383  27.185  39.911   2.737
17058W        W89384  15.633  15.206  12.029
17059W        W89385  37.444  22.568  14.412
17060W        W89386  22.215   7.834   0.933
17061W        W89387  12.625   9.677  13.450
17062W        W89388   7.334  19.138   3.341
17063W        W89389   3.448  18.740  13.978
17064W        W89390  33.905  22.111  13.794
17065W        W89391   3.408  16.703  13.479
17066W        W89392   2.939  36.363  14.921
17067W        W89393   8.756  12.734  11.463
17068W        W89394  32.891   4.838  12.990
17069W        W89395  20.032  42.478  13.011
17070W        W89396  10.194  15.743   3.791
17071W        W89397  33.465  34.464   0.349
17072W        W89398   7.902  14.224  14.783
17073W        W89399  13.335  31.924   3.648
17074W        W89400  32.134  39.925  12.048
17075W        W89401  12.611   5.203  10.409
17076W        W89402   2.245  26.954   0.270
17077W        W89403  16.711  39.473   1.839
17078W        W89404  21.114   4.290  13.535
17079W        W89405  29.017   0.407   3.292
17080W        W89406  27.581  27.946  12.840
17081W        W89407  18.668  22.152  11.050
17082W        W89408  12.168  33.067   1.291
17083W        W89409  31.648  43.948  11.085
17084W        W89410  36.066  41.974  13.888
17085W        W89411  12.815  13.196   0.392
17086W        W89412  14.712  27.146   5.753
17087W        W89413  20.686   6.715   0.807
17088W        W89414   2.878   6.192  11.894
17089W        W89415  18.288  12.236   3.181
17090W        W89416  22.553  35.103  11.907
17091W        W89417  38.076   6.419  11.437
17092W        W89418   8.319  23.682   2.724
17093W        W89419  20.099   3.903   1.830
17094W        W89420  23.087  44.941  12.012
17095W        W89421  12.172  30.037  11.527
17096W        W89422  19.271  41.453   4.814
17097W        W89423   4.937  33.942  14.274
17098W        W89424  12.629  41.997  14.945
17099W        W89425   7.724  37.492  11.611
17100W        W89426  12.295   3.458  11.935
17101W        W89427  28.128  12.288   1.319
17102W        W89428  37.018  32.045   0.899
17103W        W89429  30.984  30.453   1.872
17104W        W89430  17.745   2.303  11.081
17105W        W89431  24.698   6.771  12.944
17106W        W89432  12.823  10.289  13.876
17107W        W89433  43.393  15.691   1.884
17108W        W89434  41.433  25.090  10.964
17109W        W89435   3.902   1.413   3.763
17110W        W89436  24.608  21.073   3.856
17111W        W89437   3.372  35.081   3.327
17112W        W89438  42.307  32.420   0.262
17113W        W89439  15.817  44.010   0.795
17114W        W89440  15.600   0.865  13.886
17115W        W89441  34.591  18.615   3.345
17116W        W89442  25.119   7.743   2.294
17117W        W89443  23.502  43.390   1.914
17118W        W89444  34.390  38.457  13.856
17119W        W89445  10.779  17.756   4.815
17120W        W89446  11.660  36.546  13.843
17121W        W89447   6.405  33.971  12.342
17122W        W89448  28.508   6.337   1.358
17123W        W89449  24.230  40.409   2.668
17124W        W89450  20.162  30.508  10.958
17125W        W89451  23.210  34.879   3.760
17126W        W89452  26.019  10.278  10.628
17127W        W89453  14.821  19.720   3.283
17128W        W89454  35.591  10.765  13.510
17129W        W89455  22.626  23.628   1.391
17130W        W89456  20.551  34.488   4.197
17131W        W89457  23.506  30.635   3.712
17132W        W89458  13.336  35.465  10.055
17133W        W89459  27.018  39.843  11.893
17134W        W89460  34.421  10.182   4.733
17135W        W89461  23.632  42.015  12.381
17136W        W89462   5.692   2.837  10.403
17137W        W89463  22.065   5.410   3.817
17138W        W89464  37.856   1.849   1.251
17139W        W89465  36.063   3.382   1.753
17140W        W89466  15.230  14.774  12.920
17141W        W89467  39.044  12.157  12.954
17142W        W89468  25.702  30.032   4.132
17143W        W89469  35.357   2.725   1.246
17144W        W89470  41.902  24.139   0.385
17145W        W89471   7.373  32.981  11.033
17146W        W89472  32.631  24.666   2.219
17147W        W89473  12.759  22.519   3.364
17148W        W89474  29.556  15.745   1.889
17149W        W89475  25.166  15.243  13.006
17150W        W89476   9.729  39.987  12.857
17151W        W89477  40.834  12.631   3.782
17152W        W89478  18.186  24.674  13.368
17153W        W89479  22.712  18.140   0.430
17154W        W89480  19.775  31.077   2.752
17155W        W89481  35.457  39.811   3.291
17156W        W89482   5.254  13.151  13.828
17157W        W89483  16.312   8.719  14.876
17158W        W89484   7.814   9.307   1.413
17159W        W89485  35.903  21.048   0.963
17160W        W89486  39.374  38.550   2.380
17161W        W89487  36.932  38.885   2.333
17162W        W89488   0.760  32.561   0.392
17163W        W89489  12.209   0.921   3.182
17164W        W89490  10.188  10.281   2.302
17165W        W89491  21.552  20.154   0.901
17166W        W89492   7.674  38.466  13.348
17167W        W89493  16.103  11.634   1.338
17168W        W89494   9.249  33.497  13.355
17169W        W89495  17.297  42.313   9.944
17170W        W89496  25.043  17.266  12.347
17171W        W89497  32.051   0.269   3.234
17172W        W89498   1.897  26.208  10.423
17173W        W89499  36.513  16.625   1.381
17174W        W89500  23.500  34.550  11.984
17175W        W89501   8.783   3.244   2.666
17176W        W89502  20.616  42.475   1.813
17177W        W89503  20.687  12.719  14.303
17178W        W89504   1.912  24.709   2.298
17179W        W89505  37.880  41.367   0.465
17180W        W89506  10.343  38.036  12.389
17181W        W89507  34.428  44.440  13.867
17182W        W89508  17.625  16.790   2.256
17183W        W89509  38.874  33.418   4.202
17184W        W89510  42.430  16.135  14.504
17185W        W89511  13.806  17.643   2.863
17186W        W89512   0.420   0.286  11.019
17187W        W89513  16.254  17.152  14.943
17188W        W89514  43.306   8.252   0.771
17189W        W89515  39.954  38.841  14.944
17190W        W89516   3.798   0.925  13.025
17191W        W89517  16.603  19.643  12.976
17192W        W89518  44.810  28.484  12.825
17193W        W89519   7.695  22.245   0.349
17194W        W89520  16.318  14.635   3.215
17195W        W89521  29.633   7.201  11.442
17196W        W89522   6.276  43.444  10.988
17197W        W89523  13.266   2.927   4.814
17198W        W89524  16.780   2.951   2.365
17199W        W89525   4.769   7.805  14.302
17200W        W89526  34.088  31.562  13.360
17201W        W89527  44.791  41.924  13.353
17202W        W89528  25.218  10.236   1.235
17203W        W89529   5.350  26.063   3.334
17204W        W89530  31.525   2.385   4.617
17205W        W89531  29.538  25.592   1.323
17206W        W89532  38.553  14.810   1.431
17207W        W89533  43.880  40.377  14.859
17208W        W89534  22.211  17.274   0.881
17209W        W89535  43.931  10.187  14.505
17210W        W89536  28.020  32.488  12.455
17211W        W89537  44.270  40.987  10.610
17212W        W89538   6.206  23.569   2.301
17213W        W89539   1.410  44.841   3.291
17214W        W89540   9.323  21.070   3.174
17215W        W89541  28.966   0.254   3.736
17216W        W89542  38.822  28.118   0.467
17217W        W89543  37.376  16.803  10.560
17218W        W89544   4.727  32.022   0.300
17219W        W89545  13.841  26.547  12.491
17220W        W89546   0.942  29.922  14.919
17221W        W89547  29.459  41.791   5.129
17222W        W89548  18.061  31.042  12.043
17223W        W89549  30.971  25.021   1.347
17224W        W89550   6.902  44.944  13.438
17225W        W89551   9.759   7.394  14.925
17226W        W89552  25.666  22.739   1.225
17227W        W89553  21.751  34.584  11.082
17228W        W89554  38.019  19.117  10.974
17229W        W89555  40.852  44.754   3.730
17230W        W89556   6.246  22.504  12.039
17231W        W89557  24.013  17.660   1.818
17232W        W89558   7.820  27.945  12.937
17233W        W89559   0.954  21.181  11.871
17234W        W89560   8.374  12.342  13.923
17235W        W89561  21.710  33.465   4.174
17236W        W89562  12.670   2.302   4.151
17237W        W89563   1.480  34.586   3.844
17238W        W89564  15.274  12.619  13.516
17239W        W89565  20.174   7.176   4.794
17240W        W89566  23.012  26.152   2.253
17241W        W89567  23.611  34.111   4.756
17242W        W89568  15.733  36.461  14.853
17243W        W89569  21.736  34.001   2.208
17244W        W89570  43.012  31.110  14.011
17245W        W89571  40.933  39.519   2.310
17246W        W89572  19.579  25.161   4.598
17247W        W89573  39.522  11.677  14.343
17248W        W89574   2.897   2.247   3.726
17249W        W89575  22.208   3.409  14.479
17250W        W89576  37.941  33.444  12.024
17251W        W89577  17.254  16.249   3.852
17252W        W89578  35.388  30.496  14.944
17253W        W89579  39.316  35.926  11.418
17254W        W89580  24.110  39.944   0.367
17255W        W89581   5.264   7.338  14.966
17256W        W89582  19.566  38.539  14.964
17257W        W89583  40.974  12.637  13.918
17258W        W89584  37.453  32.104  14.027
17259W        W89585  14.751   5.688   1.350
17260W        W89586   4.851  39.405  10.541
17261W        W89587   0.850  40.874   2.865
17262W        W89588   7.872   6.219   3.847
17263W        W89589  24.699  15.741   2.212
17264W        W89590  12.701  32.053  10.589
17265W        W89591   3.930  33.504   1.334
17266W        W89592  21.065  19.643   0.808
17267W        W89593   3.902  39.459   4.714
17268W        W89594  12.817   8.696  11.016
17269W        W89595  28.058  17.065   2.817
17270W        W89596  12.769  16.727  13.482
17271W        W89597   0.749  26.507  11.503
17272W        W89598  21.137  13.183  13.011
17273W        W89599   6.746  32.093  10.578
17274W        W89600  30.644  27.669   1.782
17275W        W89601  19.672  16.302  10.565
17276W        W89602  33.911  32.409  13.364
17277W        W89603  20.098  43.297   0.908
17278W        W89604  25.626  37.339   2.387
17279W        W89605  22.575   8.730   3.298
17280W        W89606  43.425  15.607  12.487
17281W        W89607  29.503  23.165   1.770
17282W        W89608  44.337  43.824  11.041
17283W        W89609  33.082   0.977  14.403
17284W        W89610  41.521  24.639  14.905
17285W        W89611  10.680  20.744  11.541
17286W        W89612  24.096   5.258  13.332
17287W        W89613  10.670  23.126   3.637
17288W        W89614  12.695  17.731  13.962
17289W        W89615  12.292  42.952   0.307
17290W        W89616  13.303   1.333   2.287
17291W        W89617   9.395  25.554  13.432
17292W        W89618   4.710  38.014  14.377
17293W        W89619  15.270  26.041   1.793
17294W        W89620  29.957  34.870   2.244
17295W        W89621  27.002  42.934   3.208
17296W        W89622  11.295  32.907  11.874
17297W        W89623  34.034  17.614   4.301
17298W        W89624   7.368  43.970  13.959
17299W        W89625  21.232  17.695   3.186
17300W        W89626  15.595  34.577   4.795
17301W        W89627   9.741   5.373  14.410
17302W        W89628  17.250  24.586  14.480
17303W        W89629  25.101  14.607   4.273
17304W        W89630  11.631  23.100  12.411
17305W        W89631  42.973  23.063   1.694
17306W        W89632  23.072  14.209   5.282
17307W        W89633   9.186  11.296  11.044
17308W        W89634  24.071   5.896  11.441
17309W        W89635   3.952  38.966   9.946
17310W        W89636   8.721  40.537  13.872
17311W        W89637   4.275   3.427   3.741
17312W        W89638  24.214  42.365  14.823
17313W        W89639  43.352   6.292  11.885
17314W        W89640  15.213  12.636   0.475
17315W        W89641  12.743   7.668   1.384
17316W        W89642  27.500  36.376   0.873
17317W        W89643  29.014  43.982  11.053
17318W        W89644  22.536  14.139   2.817
17319W        W89645  19.723  13.114  14.899
17320W        W89646   3.394  34.552  10.976
17321W        W89647  10.363  10.320   2.721
17322W        W89648  10.667  24.582   0.765
17323W        W89649  33.899   1.926  12.077
17324W        W89650  32.962  31.559  10.488
17325W        W89651  44.471  17.158   0.481
17326W        W89652  22.616  24.655  13.353
17327W        W89653  42.778  26.953   3.852
17328W        W89654  29.153  15.181   2.321
17329W        W89655   2.902  18.281  11.061
17330W        W89656  13.732   0.971   1.339
17331W        W89657  41.368  36.452  14.978
17332W        W89658  28.081   1.825  10.536
17333W        W89659  15.102   6.755   0.350
17334W        W89660  40.804  38.455  12.425
17335W        W89661  16.690  41.488   1.296
17336W        W89662  32.068  24.527  14.911
17337W        W89663  36.434   1.859   9.967
17338W        W89664  39.440  22.105   2.362
17339W        W89665  25.076  42.527  12.039
17340W        W89666  27.171  42.355  14.454
17341W        W89667  23.071  27.545   4.154
17342W        W89668  37.550  21.080   1.246
17343W        W89669  10.824  43.416   0.804
17344W        W89670  19.665  43.788   4.200
17345W        W89671  24.701  38.994   4.301
17346W        W89672   9.289   0.765   1.850
17347W        W89673  44.412  28.128   4.278
17348W        W89674  12.632  37.858  14.357
17349W        W89675  10.251  38.416  11.542
17350W        W89676  16.613  42.981  12.997
17351W        W89677  44.329  20.578   2.210
17352W        W89678  22.241  29.112  14.917
17353W        W89679  33.625  27.985   3.699
17354W        W89680  10.253  16.232   3.328
17355W        W89681  38.837  15.711  13.525
17356W        W89682   9.734  41.020   2.318
17357W        W89683   2.760  33.619  13.839
17358W        W89684  38.439  30.010  14.831
17359W        W89685  24.208  38.966   9.958
17360W        W89686  36.964  17.194   3.309
17361W        W89687  27.181  44.394  11.962
17362W        W89688  16.752  24.001   2.793
17363W        W89689  15.312   4.878   0.280
17364W        W89690  29.161  20.729   2.799
17365W        W89691   0.305  31.062  10.520
17366W        W89692  15.329  25.140  14.340
17367W        W89693  16.139  26.683  11.547
17368W        W89694   5.277  15.228  14.017
17369W        W89695   8.251  43.405  11.444
17370W        W89696  42.394  32.460  13.447
17371W        W89697  34.497   7.877   0.938
17372W        W89698  15.321  14.337   1.721
17373W        W89699   8.809  14.627  14.854
17374W        W89700  22.148  39.358  10.568
17375W        W89701  33.984  24.535   2.354
17376W        W89702  24.535  42.452   0.829
17377W        W89703   1.311  41.411   2.310
17378W        W89704   8.737   5.867   3.802
17379W        W89705  29.150  17.634   0.898
17380W        W89706  43.509  24.997   5.202
17381W        W89707  22.694  42.029   2.339
17382W        W89708   6.244  18.052   5.096
17383W        W89709  34.576  16.233   4.233
17384W        W89710  34.984  10.266   3.232
17385W        W89711  21.548  26.677   3.676
17386W        W89712  30.119  14.694  12.049
17387W        W89713  13.807  43.875   3.333
17388W        W89714  37.844  39.811  14.945
17389W        W89715   7.306   2.244  11.103
17390W        W89716  43.767  28.598  10.465
17391W        W89717  18.237  38.551  12.555
17392W        W89718  10.810  40.448   0.841
17393W        W89719  20.113   5.292  14.777
17394W        W89720  15.237  32.980   2.239
17395W        W89721  43.974  18.114   2.263
17396W        W89722   1.967  25.621  14.398
17397W        W89723  41.517  24.188   2.790
17398W        W89724  40.547   0.892   4.711
17399W        W89725  24.549   6.249  13.818
17400W        W89726   9.672  39.435   1.327
17401W        W89727  26.042  34.589  11.888
17402W        W89728  34.967  15.720   2.360
17403W        W89729  12.283  28.994  13.414
17404W        W89730   2.410  17.092   3.151
17405W        W89731  16.105  41.340   1.911
17406W        W89732  35.054  43.845  13.891
17407W        W89733  13.349  13.798   2.190
17408W        W89734   0.412  28.492   3.856
17409W        W89735  18.127   9.332  14.873
17410W        W89736  23.033  37.476  11.097
17411W        W89737  22.550   7.196  12.485
17412W        W89738   3.256  33.029  12.939
17413W        W89739   7.821  26.691  10.117
17414W        W89740  42.984  31.599   0.357
17415W        W89741  33.476  19.145  13.919
17416W        W89742  13.626  12.695  14.947
17417W        W89743   9.155  21.124  14.450
17418W        W89744  13.840  18.552   2.398
17419W        W89745  24.113  17.774   0.253
17420W        W89746  29.012  44.975  14.936
17421W        W89747  42.351  41.477   1.298
17422W        W89748  29.107  41.876   2.324
17423W        W89749  12.738  40.544   2.342
17424W        W89750   6.222  12.737  12.015
17425W        W89751  10.746  40.950  14.996
17426W        W89752  12.227  19.228   1.368
17427W        W89753  33.617  37.446   1.779
17428W        W89754  23.093  12.311  11.947
17429W        W89755   9.819  12.799  10.539
17430W        W89756  24.545  32.487   2.902
17431W        W89757  14.785  19.277  11.600
17432W        W89758  13.112  37.377   3.319
17433W        W89759   3.302  20.113   4.330
17434W        W89760   9.768  40.892  14.395
17435W        W89761   0.822   5.294  11.480
17436W        W89762  10.289  28.670   4.649
17437W        W89763  21.089  43.381  12.011
17438W        W89764  14.280  41.399  11.571
17439W        W89765  27.049  30.414   1.767
17440W        W89766   4.205  10.192  10.982
17441W        W89767  30.985  35.097  13.999
17442W        W89768   3.269   1.399  13.531
17443W        W89769  20.239  16.218  13.874
17444W        W89770  28.115   0.884   1.731
17445W        W89771  12.767  42.900  10.940
17446W        W89772  40.017  43.897   1.699
17447W        W89773   5.251  36.591  11.539
17448W        W89774  14.311   3.304   3.839
17449W        W89775  31.619   0.421   0.758
17450W        W89776  11.339  27.945  14.797
17451W        W89777  18.590   4.324   3.280
17452W        W89778  19.242   3.441   4.713
17453W        W89779  36.547  35.031   2.754
17454W        W89780  34.872   0.955  10.572
17455W        W89781   3.749  24.136   2.395
17456W        W89782   2.389  38.326   0.886
17457W        W89783  14.592  42.421   0.481
17458W        W89784  25.131   2.836  10.461
17459W        W89785   5.216  35.549   1.724
17460W        W89786  41.835  39.342  11.058
17461W        W89787  26.152  32.033  10.516
17462W        W89788  40.457   9.367   4.332
17463W        W89789  44.789  10.222  13.320
17464W        W89790  33.476  44.268  10.611
17465W        W89791  30.014   0.266   1.783
17466W        W89792  20.262  36.541   3.251
17467W        W89793   0.443  14.614  14.810
17468W        W89794  37.512   0.815   0.345
17469W        W89795  20.523  36.003  13.843
17470W        W89796  18.784  41.462   2.347
17471W        W89797  22.016  41.971   0.893
17472W        W89798  11.760   1.319  11.040
17473W        W89799  17.629   3.770   2.761
17474W        W89800   7.863  14.645  13.541
17475W        W89801  18.080  21.261  12.996
17476W        W89802  16.258  42.977  12.920
17477W        W89803  21.628  16.232  13.932
17478W        W89804  44.311   1.968   9.978
17479W        W89805   0.308   7.841   1.451
17480W        W89806  21.193   3.939   4.699
17481W        W89807  13.307  31.054  13.865
17482W        W89808   0.296   8.825  10.439
17483W        W89809  31.053  25.480   2.689
17484W        W89810  25.545  30.937   2.243
17485W        W89811  20.752  13.328  12.354
17486W        W89812  17.754  32.091   0.776
17487W        W89813  11.678   6.757   0.331
17488W        W89814   3.377  17.643  10.534
17489W        W89815  18.673   9.835  14.916
17490W        W89816  39.547  42.348   0.464
17491W        W89817  22.156  22.567   1.415
17492W        W89818  14.815  22.746  11.078
17493W        W89819  40.911   5.344   2.749
17494W        W89820   2.944  41.944   3.843
17495W        W89821  43.808  17.185  10.968
17496W        W89822  21.727  23.524   1.358
17497W        W89823  18.621  11.151  13.483
17498W        W89824  24.674   2.415  12.010
17499W        W89825  35.866  30.927   4.165
17500W        W89826  43.465  42.942   0.456
17501W        W89827  30.522  17.655  12.986
17502W        W89828   6.284  16.795   2.194
17503W        W89829  42.414  40.918  10.961
17504W        W89830  22.079   4.301  14.400
17505W        W89831  18.268  44.874  14.895
17506W        W89832  33.396  22.570  12.995
17507W        W89833  23.572   5.804  10.410
17508W        W89834  22.522  27.687   1.331
17509W        W89835  18.205  43.379   4.611
17510W        W89836  44.420  41.899   0.801
17511W        W89837   0.773   3.279  13.806
17512W        W89838  30.599  40.488  12.342
17513W        W89839  35.059  43.808   1.826
17514W        W89840  19.177  20.194  12.955
17515W        W89841  22.675   0.306  13.797
17516W        W89842  30.115  44.438  12.083
17517W        W89843  29.607  39.852   3.785
17518W        W89844  40.847  37.456   2.829
17519W        W89845  16.212  19.125  13.372
17520W        W89846  33.970   7.350  14.323
17521W        W89847  30.122  17.292  14.981
17522W        W89848  12.612  37.554   4.731
17523W        W89849   6.905  35.483  13.427
17524W        W89850  44.477  33.415  11.445
17525W        W89851  29.608  32.097  13.813
17526W        W89852  18.731  23.168   1.254
17527W        W89853  22.056  25.075  12.946
17528W        W89854  20.589  26.157   1.763
17529W        W89855  18.076   4.284   3.265
17530W        W89856  12.699   4.699   3.281
17531W        W89857  34.556  42.830  13.443
17532W        W89858  40.418  29.537   2.744
17533W        W89859  29.558   4.353  10.932
17534W        W89860  12.778  12.654  10.566
17535W        W89861  35.866  36.433  13.961
17536W        W89862   9.784  36.987  12.502
17537W        W89863  28.568  18.647   0.465
17538W        W89864  24.106  13.207  11.074
17539W        W89865   5.253  44.009   2.763
17540W        W89866  34.587  17.561  12.379
17541W        W89867  13.167   3.233  11.388
17542W        W89868  26.121  12.141   4.167
17543W        W89869  35.048   1.765   2.698
17544W        W89870  17.759  40.928   3.770
17545W        W89871  11.359  25.521  10.628
17546W        W89872  19.725  12.356   2.381
17547W        W89873  44.857   8.816   0.313
17548W        W89874  40.894  24.524   0.375
17549W        W89875  15.750  23.621   0.784
17550W        W89876  28.045  26.635   3.738
17551W        W89877  24.191  18.129  10.529
17552W        W89878  36.523  15.758  14.277
17553W        W89879  25.094  15.721   1.813
17554W        W89880  24.680  43.454  12.971
17555W        W89881  33.040   7.910  13.355
17556W        W89882  35.573   1.951  11.981
17557W        W89883  34.395   1.381   3.635
17558W        W89884  35.483  19.206   0.308
17559W        W89885   8.296  11.191  13.548
17560W        W89886  17.607   6.740   2.781
17561W        W89887  37.831  24.594   4.612
17562W        W89888  42.339  21.109   3.280
17563W        W89889  20.204  17.721  14.394
17564W        W89890  32.465  15.250   1.865
17565W        W89891   7.794  13.683  11.506
17566W        W89892  22.581  34.954  14.853
17567W        W89893   2.878  15.125  13.840
17568W        W89894  31.940   5.311  11.111
17569W        W89895   6.206  41.855   3.223
17570W        W89896  41.040   8.778   4.157
17571W        W89897  26.537  44.364  12.558
17572W        W89898   7.791  35.491   0.839
17573W        W89899  10.845  22.567   3.285
17574W        W89900  12.312  34.069  14.388
17575W        W89901  38.413   0.874  13.006
17576W        W89902  29.041   0.283   4.820
17577W        W89903   0.485  34.887   0.874
17578W        W89904  25.632  35.524  12.349
17579W        W89905  10.258  38.841   3.224
17580W        W89906  16.582  13.627  13.497
17581W        W89907  13.258  33.507   2.334
17582W        W89908  22.505  19.255  10.506
17583W        W89909  10.871  23.989  13.879
17584W        W89910  14.613  11.305   2.700
17585W        W89911  20.129   5.358  10.976
17586W        W89912  14.834  17.289  10.498
17587W        W89913  20.677   1.366  11.456
17588W        W89914  32.923  36.039   4.773
17589W        W89915   1.240   5.841  14.453
17590W        W89916  27.159  29.482  12.849
17591W        W89917  10.831  40.478   1.891
17592W        W89918  10.737  12.164   4.738
17593W        W89919  36.411  32.427   4.823
17594W        W89920  31.994   8.215   1.247
17595W        W89921  24.180  21.167   4.256
17596W        W89922  25.181  27.128   4.283
17597W        W89923  39.000  43.987   3.199
17598W        W89924  35.001  29.996   2.202
17599W        W89925  35.486  32.578  13.942
17600W        W89926  40.928  23.226  11.099
17601W        W89927   7.379  27.162  12.514
17602W        W89928  31.951  20.615   1.765
17603W        W89929  28.496  41.792  13.981
17604W        W89930  15.613   4.776  12.352
17605W        W89931  26.551  13.687  12.919
17606W        W89932  38.442  27.673  12.054
17607W        W89933  44.865  28.659  13.490
17608W        W89934  41.488  20.588   1.402
17609W        W89935  26.016   5.865   4.178
17610W        W89936  38.828   5.818   3.150
17611W        W89937  40.901  38.990   2.419
17612W        W89938  10.199  11.786  14.893
17613W        W89939  17.156  12.337  11.554
17614W        W89940  12.185  29.560  14.000
17615W        W89941  40.495   1.410   3.177
17616W        W89942   6.207   1.913   3.247
17617W        W89943  32.591  32.042  12.093
17618W        W89944  24.143  30.117  12.952
17619W        W89945  11.710  34.050  13.928
17620W        W89946  16.103  35.541  14.306
17621W        W89947  14.663  37.949   4.215
17622W        W89948  24.212   2.285   0.401
17623W        W89949   9.824   1.793  14.934
17624W        W89950   2.852  12.707  13.000
17625W        W89951  16.189  39.344   1.932
17626W        W89952  33.463  19.155   4.120
17627W        W89953  15.304  43.380  13.415
17628W        W89954  27.526  39.391  11.004
17629W        W89955  42.851  29.532   2.362
17630W        W89956   7.903  17.634  13.499
17631W        W89957  38.515  21.226   0.845
17632W        W89958  22.607  13.127  10.533
17633W        W89959  40.315   5.429  10.987
17634W        W89960   7.308  32.424   3.154
17635W        W89961   3.313  41.011   3.202
17636W        W89962  19.071   9.871  12.930
17637W        W89963  17.721  24.979  13.378
17638W        W89964  33.491  37.087  13.794
17639W        W89965  33.116   1.824  12.092
17640W        W89966  14.648  22.692  14.912
17641W        W89967  12.148  14.103  13.870
17642W        W89968  29.069  24.687  11.443
17643W        W89969  21.043  17.618  10.925
17644W        W89970   5.703  37.448   0.817
17645W        W89971  27.594  42.990  10.988
17646W        W89972  15.203  25.596  11.974
17647W        W89973  10.199  31.576   4.628
17648W        W89974  35.525  18.746   3.634
17649W        W89975  15.768  34.559   2.662
17650W        W89976  29.429  38.958   1.865
17651W        W89977  12.134  39.324   3.258
17652W        W89978  43.823  30.630  13.460
17653W        W89979   4.329  19.539  11.595
17654W        W89980  15.800  13.219  14.017
17655W        W89981  14.763  12.807  14.024
17656W        W89982   2.254  25.994   2.696
17657W        W89983  41.323   2.728  10.603
17658W        W89984  44.834  21.613   2.374
17659W        W89985  14.677  27.000  14.319
17660W        W89986   3.407  36.395  14.804
17661W        W89987  24.682  32.399   0.456
17662W        W89988  36.094  39.009  14.823
17663W        W89989  22.662  31.936   1.256
17664W        W89990  32.633   9.710   3.269
17665W        W89991   5.367  19.184  11.477
17666W        W89992  38.419  36.861  11.397
17667W        W89993  11.291  33.028  11.576
17668W        W89994  11.219  30.053  10.972
17669W        W89995   3.350  31.643   3.787
17670W        W89996  16.590   8.773   3.241
17671W        W89997  35.512  29.616  11.514
17672W        W89998   2.777  39.001   0.920
17673W        W89999  32.467  34.933   3.756
17674W        W90000  44.968  23.492  11.998
17675W        W90001  12.734  32.429   1.884
17676W        W90002  12.292  15.661   2.210
17677W        W90003  29.940  27.483   2.687
17678W        W90004  39.019  12.850   5.263
17679W        W90005  12.713  31.498   0.879
17680W        W90006  22.677  38.409   2.267
17681W        W90007  12.280   1.467   3.288
17682W        W90008  35.410  42.787   3.226
17683W        W90009   9.775  33.050   3.183
17684W        W90010  44.290  10.809  10.102
17685W        W90011  36.086  33.079  13.311
17686W        W90012  43.858  39.497   3.703
17687W        W90013  29.089   4.941  11.031
17688W        W90014  29.522  36.922   0.385
17689W        W90015  13.329  21.171  13.938
17690W        W90016  42.527  22.207  13.471
17691W        W90017  39.343   4.850  11.913
17692W        W90018  16.238   2.296  12.453
17693W        W90019   5.906   0.974   2.896
17694W        W90020  14.334  14.708   3.166
17695W        W90021  44.904  22.719  14.486
17696W        W90022   4.246   5.830  11.569
17697W        W90023   5.203  33.517  11.040
17698W        W90024  25.707  43.007  14.351
17699W        W90025  15.588  29.967  14.337
17700W        W90026  28.999  16.637   3.155
17701W        W90027   5.223   2.357  13.445
17702W        W90028  35.041  24.556   2.331
17703W        W90029  14.603  15.742  12.915
17704W        W90030   2.875  31.936   0.251
17705W        W90031   5.893  43.434   2.311
17706W        W90032   3.838  26.543  12.559
17707W        W90033  36.973  41.458  12.348
17708W        W90034   8.689  28.033   3.848
17709W        W90035  38.425  33.459  11.891
17710W        W90036   5.758  39.550  14.387
17711W        W90037  29.104   5.197  11.039
17712W        W90038  13.677  24.596   9.669
17713W        W90039  29.052  13.637  14.300
17714W        W90040  41.423   0.948  11.875
17715W        W90041   3.433  19.265   4.717
17716W        W90042   6.254  43.003  10.955
17717W        W90043   9.722  42.428   4.168
17718W        W90044   1.914  26.102  14.396
17719W        W90045  21.209  29.652  12.988
17720W        W90046   6.819  31.900  12.904
17721W        W90047   4.905  30.922   2.683
17722W        W90048  25.599  34.535   3.675
17723W        W90049  13.840  35.509   4.172
17724W        W90050  18.176  24.192  13.324
17725W        W90051  28.975  28.582  12.504
17726W        W90052  40.391  32.572   0.945
17727W        W90053   1.279  18.137   3.768
17728W        W90054   8.760  33.068   0.274
17729W        W90055  28.017   7.275  12.938
17730W        W90056  20.610  13.208  13.528
17731W        W90057  13.684  17.652  10.548
17732W        W90058  29.160  14.666  13.848
17733W        W90059  19.074  15.598   2.679
17734W        W90060  28.953  44.413   4.776
17735W        W90061   1.918   6.826   0.457
17736W        W90062  10.168  31.615  13.522
17737W        W90063  33.103   6.734  10.594
17738W        W90064   2.851  33.035   1.776
17739W        W90065  25.046  35.411  10.612
17740W        W90066   2.781  33.527   2.185
17741W        W90067  23.560  43.416  12.063
17742W        W90068  25.989  24.521  13.340
17743W        W90069  32.568  26.473  10.908
17744W        W90070  29.512  26.629   5.657
17745W        W90071  24.538  13.326   4.601
17746W        W90072  20.163  43.444  11.125
17747W        W90073  18.631  27.681   2.390
17748W        W90074   1.339  10.824   3.813
17749W        W90075   2.764  17.606  10.642
17750W        W90076  24.112   0.483   4.304
17751W        W90077   4.406   9.239   2.665
17752W        W90078   9.857   6.681   1.395
17753W        W90079  26.194  30.528  12.521
17754W        W90080  25.161  37.931   0.874
17755W        W90081  24.702  34.073  10.466
17756W        W90082   6.881  35.581   2.667
17757W        W90083  18.175  26.089   4.178
17758W        W90084  11.155   1.908  11.948
17759W        W90085  43.911  26.037  14.446
17760W        W90086  35.597  22.688   1.247
17761W        W90087  27.974  27.002  10.034
17762W        W90088  38.429   1.832  11.375
17763W        W90089   0.294   5.249   2.336
17764W        W90090  27.657  14.287  10.505
17765W        W90091  37.555  44.422  14.817
17766W        W90092  35.437  39.813   2.186
17767W        W90093   5.363  29.104  13.524
17768W        W90094  36.858  32.631   0.362
17769W        W90095   3.239  33.528   5.204
17770W        W90096  41.967  21.528   3.299
17771W        W90097  29.083  27.648  13.429
17772W        W90098  25.613  34.382  12.006
17773W        W90099  29.423  25.535   3.261
17774W        W90100  33.876   4.323  12.364
17775W        W90101  19.723   8.829   3.160
17776W        W90102  26.587  21.573   2.249
17777W        W90103  12.820  15.577   4.620
17778W        W90104  36.462  33.553   4.615
17779W        W90105  26.585  30.001   4.210
17780W        W90106   6.778  30.069  12.525
17781W        W90107  32.615   7.280   1.227
17782W        W90108  21.129  42.801   3.840
17783W        W90109  41.373   9.173  14.443
17784W        W90110  23.026  13.113  12.453
17785W        W90111  19.119  14.642  14.467
17786W        W90112  14.789  40.341  14.793
17787W        W90113  34.421  29.150  13.800
17788W        W90114  37.924  22.662   4.752
17789W        W90115  18.134  15.234  13.321
17790W        W90116   5.933  10.861  10.896
17791W        W90117   6.852  29.984   4.765
17792W        W90118  14.641  22.723   2.900
17793W        W90119   9.713  39.481   2.215
17794W        W90120  26.957  21.151  14.477
17795W        W90121   5.310  19.620   2.205
17796W        W90122  25.539  21.523   1.269
17797W        W90123  42.386   8.361  13.802
17798W        W90124  12.688  29.518  10.914
17799W        W90125  22.041   6.685   3.707
17800W        W90126  13.209  24.684   2.359
17801W        W90127   9.879  41.338  12.346
17802W        W90128  34.603  10.359  14.509
17803W        W90129   3.872   5.822  10.442
17804W        W90130  18.554   2.834   0.791
17805W        W90131  27.129   7.824   2.335
17806W        W90132   0.263  34.979  13.924
17807W        W90133  12.256  38.059   2.753
17808W        W90134  42.977   9.237  13.494
17809W        W90135  24.668  29.493   1.856
17810W        W90136  16.129  39.469  14.506
17811W        W90137  42.432   2.283  11.999
17812W        W90138   9.856  20.177   2.374
17813W        W90139  19.206  16.096   0.837
17814W        W90140  44.911  22.129   2.327
17815W        W90141  12.152  16.170   4.629
17816W        W90142   9.293  38.885  13.864
17817W        W90143  20.198   3.219  13.400
17818W        W90144  37.418  27.962   1.311
17819W        W90145   1.827  12.155   1.352
17820W        W90146  30.049  43.402  13.389
17821W        W90147   9.761  23.226  12.860
17822W        W90148   7.681  22.020  13.433
17823W        W90149  44.361   3.825  10.483
17824W        W90150  38.439  15.110   0.948
17825W        W90151  40.486  11.760   1.230
17826W        W90152  23.659   4.289   4.295
17827W        W90153   5.300  16.704  11.425
17828W        W90154  33.892  20.546  13.935
17829W        W90155   0.432  38.968   2.787
17830W        W90156  41.799   9.216  13.005
17831W        W90157  35.517  15.088   4.652
17832W        W90158  14.715  14.697  13.390
17833W        W90159  10.207  32.391  10.486
17834W        W90160   1.290  34.546  11.115
17835W        W90161  35.941  26.067  13.937
17836W        W90162  33.900  12.178  11.451
17837W        W90163  21.587  12.850  10.993
17838W        W90164  26.511   1.306   4.704
17839W        W90165  14.199   3.307   0.913
17840W        W90166  42.377   0.279  10.625
17841W        W90167  27.627  10.235   4.242
17842W        W90168   3.909  23.564   5.678
17843W        W90169  12.840  44.927   2.209
17844W        W90170  10.821   7.343  12.825
17845W        W90171  36.502  40.047  14.956
17846W        W90172  44.420  41.381  12.974
17847W        W90173  27.489  12.719   1.822
17848W        W90174   1.430  28.951   3.347
17849W        W90175   6.796   3.427  12.383
17850W        W90176  35.537   1.300  10.622
17851W        W90177  11.746  43.366   2.301
17852W        W90178   6.347  23.504  10.556
17853W        W90179  14.694  23.593   2.761
17854W        W90180  16.300  25.177   4.812
17855W        W90181   4.726  35.053  12.044
17856W        W90182  36.442  18.216  10.964
17857W        W90183  43.457  31.456  14.424
17858W        W90184  41.378   6.855  14.284
17859W        W90185  12.837  25.173   5.210
17860W        W90186  42.021  43.839   2.820
17861W        W90187  16.151  32.971  12.015
17862W        W90188  32.018   4.803  14.360
17863W        W90189  33.918  43.488   3.214
17864W        W90190  17.684  13.741   0.747
17865W        W90191  39.943  22.251   3.864
17866W        W90192   6.690  14.748  13.463
17867W        W90193   5.840  26.587   0.841
17868W        W90194  35.011  30.564   3.857
17869W        W90195  21.148  15.704   0.403
17870W        W90196  27.001  25.664   2.184
17871W        W90197   7.768  27.041   4.215
17872W        W90198  36.428  33.892   0.405
17873W        W90199  40.401  14.278  12.976
17874W        W90200   8.834  22.554  10.610
17875W        W90201  31.005   6.732  10.976
17876W        W90202  33.112   0.939  14.761
17877W        W90203  25.013  30.102  11.124
17878W        W90204  38.338   0.354   2.275
17879W        W90205  13.615  41.480  12.525
17880W        W90206  21.566  38.892  14.763
17881W        W90207  40.415  31.924  12.881
17882W        W90208  13.214  12.769  12.520
17883W        W90209  39.380  23.238  14.917
17884W        W90210  37.969   8.401  11.956
17885W        W90211  14.717  16.675   0.862
17886W        W90212  36.418   5.420   3.327
17887W        W90213  16.684  39.022   2.243
17888W        W90214   8.287  37.009   4.631
17889W        W90215  19.749  29.919  13.408
17890W        W90216  23.118  15.799   4.318
17891W        W90217  28.069  11.330  13.906
17892W        W90218  34.007  12.328  14.350
17893W        W90219  39.468  30.465  11.483
17894W        W90220  18.270  20.614   3.729
17895W        W90221  36.357  10.248  12.829
17896W        W90222  30.063  17.256   1.764
17897W        W90223   6.914  26.482   1.413
17898W        W90224   1.297  37.994   3.799
17899W        W90225  14.672   8.803  14.450
17900W        W90226   2.393   3.787   0.332
17901W        W90227  20.619   0.270  13.970
17902W        W90228  11.831  36.558   3.683
17903W        W90229  36.465  32.540   3.775
17904W        W90230  37.944  15.218   4.616
17905W        W90231  37.478  28.474  10.911
17906W        W90232  31.939   8.174   2.730
17907W        W90233  27.477  11.332  11.063
17908W        W90234  35.053  26.462   1.702
17909W        W90235   3.281  30.099   0.830
17910W        W90236  19.659  39.535   4.722
17911W        W90237  29.606  31.549  14.418
17912W        W90238  36.375  37.830  14.327
17913W        W90239  44.324  31.073   4.261
17914W        W90240  12.160  34.428   9.926
17915W        W90241  20.184  26.143  10.536
17916W        W90242  15.229   0.411  10.979
17917W        W90243  11.759  12.713  14.767
17918W        W90244  12.295   3.758   4.159
17919W        W90245   1.376  24.979   1.841
17920W        W90246  34.923  31.057   1.734
17921W        W90247  25.564   2.308   1.707
17922W        W90248  42.511   9.798  11.972
17923W        W90249  33.421  21.642  11.588
17924W        W90250  26.502  32.405  13.336
17925W        W90251   4.738  44.885  12.824
17926W        W90252  39.968  17.202   1.704
17927W        W90253  13.342  10.784  14.445
17928W        W90254  14.123  18.647  10.934
17929W        W90255  29.607  10.836   4.178
17930W        W90256  22.249   2.471  10.539
17931W        W90257   8.859  44.357   4.792
17932W        W90258  28.184  22.015  10.154
17933W        W90259   2.964  43.318  13.913
17934W        W90260   8.790  21.682   0.781
17935W        W90261  41.465  18.094  14.027
17936W        W90262  28.474  40.802  13.920
17937W        W90263  25.565  15.134   3.187
17938W        W90264  34.994  40.472  12.917
17939W        W90265  31.508  24.705   2.336
17940W        W90266  31.605  31.477   3.835
17941W        W90267   1.756  36.885  11.571
17942W        W90268   9.780  15.143  14.767
17943W        W90269  17.582  35.086   0.393
17944W        W90270   8.343  23.135  11.484
17945W        W90271  43.943   5.775   1.334
17946W        W90272  37.367  10.235  13.992
17947W        W90273  16.808  20.760  12.547
17948W        W90274  39.547  38.471  11.431
17949W        W90275  44.914   6.684   4.818
17950W        W90276  37.512   0.892  11.973
17951W        W90277  37.887  25.157   0.855
17952W        W90278  41.295   2.893  14.998
17953W        W90279  36.419  16.136   2.774
17954W        W90280  25.111  13.718   1.820
17955W        W90281  38.334  41.038  13.463
17956W        W90282  30.601  21.064  10.889
17957W        W90283   7.716   8.298   3.692
17958W        W90284  23.646  20.244   1.924
17959W        W90285  42.438  36.900   0.431
17960W        W90286  26.124  13.257   4.804
17961W        W90287   0.772  41.928  11.547
17962W        W90288  14.764   4.428  11.564
17963W        W90289  29.441   5.897  14.026
17964W        W90290   8.660  38.513   0.285
17965W        W90291  32.945  28.974  12.366
17966W        W90292   5.748  44.291   4.129
17967W        W90293  15.113  27.527  10.554
17968W        W90294  32.937   4.213  12.469
17969W        W90295  43.801   7.291  13.474
17970W        W90296  36.549  36.945  12.826
17971W        W90297  22.668   8.795  11.911
17972W        W90298   9.240  29.096   1.838
17973W        W90299  30.582  18.266   1.380
17974W        W90300  37.556  12.636  10.021
17975W        W90301  24.489  36.436  10.939
17976W        W90302  33.398  15.682   1.339
17977W        W90303  40.446   5.718   3.636
17978W        W90304   0.812   8.340  12.406
17979W        W90305  40.336  29.450   2.305
17980W        W90306  43.891  44.850  14.342
17981W        W90307  23.048  24.132   2.741
17982W        W90308  12.782  18.279   2.259
17983W        W90309  30.975  12.746   3.160
17984W        W90310   9.387  37.007  10.595
17985W        W90311  26.983  40.826   0.250
17986W        W90312   7.363  20.062  10.527
17987W        W90313  42.424  40.525  12.078
17988W        W90314  26.195  12.765   0.940
17989W        W90315  14.725  28.103   1.787
17990W        W90316  30.096  29.991   4.216
17991W        W90317   9.318  33.536   2.866
17992W        W90318  35.581  26.572  11.999
17993W        W90319  22.034  33.886   1.837
17994W        W90320  21.574  14.256  14.473
17995W        W90321  20.217  16.260  14.483
17996W        W90322  16.258  18.573  14.922
17997W        W90323  27.022  33.971   4.206
17998W        W90324   4.704  29.439   5.234
17999W        W90325  41.456  34.898   1.903
18000W        W90326  14.215  20.173  11.494
18001W        W90327  24.717  38.382  12.486
18002W        W90328  44.826  18.253   3.282
18003W        W90329  37.456   0.481  12.550
18004W        W90330  36.445  25.631   4.613
18005W        W90331  38.986  27.021   1.783
18006W        W90332   3.842  24.091   0.921
18007W        W90333   0.751  22.554  12.897
18008W        W90334  33.110  44.754  12.346
18009W        W90335  26.509  44.318   4.763
18010W        W90336   9.165  36.971  10.964
18011W        W90337  37.011  17.070   4.348
18012W        W90338   5.828   9.375  11.868
18013W        W90339  20.169  36.406  14.874
18014W        W90340   5.300   4.385  13.496
18015W        W90341   2.416  23.576   0.861
18016W        W90342  28.483   7.762  11.098
18017W        W90343   4.212   0.952   1.888
18018W        W90344  29.553  20.739  14.505
18019W        W90345   5.878  28.943  12.856
18020W        W90346  20.647  41.945  13.352
18021W        W90347  43.497  10.711  10.925
18022W        W90348  35.419  12.855  14.353
18023W        W90349   9.378  15.741   0.323
18024W        W90350  11.815  38.432   3.639
18025W        W90351  35.436  36.063   2.352
18026W        W90352   8.189  38.033   3.747
18027W        W90353  23.654  27.186   3.231
18028W        W90354   6.710  26.607   3.636
18029W        W90355   2.386   0.304   2.889
18030W        W90356   8.280  41.321  13.352
18031W        W90357   0.983  14.180   4.177
18032W        W90358  43.502  13.307   4.186
18033W        W90359   5.395   8.315   0.475
18034W        W90360  15.802  36.095   0.876
18035W        W90361   9.190  28.569  11.609
18036W        W90362  37.984  34.913   3.864
18037W        W90363  27.953  35.438  13.539
18038W        W90364   0.441  19.261  12.349
18039W        W90365   7.400  15.799  14.389
18040W        W90366  20.664  12.621  11.004
18041W        W90367  13.124   7.823  13.315
18042W        W90368  12.635  14.740  11.017
18043W        W90369  33.468  24.644  13.308
18044W        W90370  20.744   1.355   4.785
18045W        W90371  23.165  39.949  13.825
18046W        W90372  38.333  18.201   0.964
18047W        W90373  33.522  19.160   1.744
18048W        W90374  23.689  39.533   2.372
18049W        W90375  34.048  40.472  14.337
18050W        W90376  33.990  10.206   3.745
18051W        W90377   5.815  37.900  12.013
18052W        W90378  29.124  20.627   4.806
18053W        W90379  37.057   1.966  12.543
18054W        W90380  25.062  30.137  12.489
18055W        W90381   8.257   1.321  13.889
18056W        W90382  17.794  22.203   1.709
18057W        W90383   8.406  19.284  12.899
18058W        W90384  11.800  12.259   1.733
18059W        W90385  36.012  44.383   3.343
18060W        W90386  30.627  30.488  12.389
18061W        W90387  40.988  44.357  14.420
18062W        W90388  43.365  41.507  12.340
18063W        W90389  28.954   1.767   3.853
18064W        W90390  28.111  37.550   0.279
18065W        W90391  22.126  26.059  14.348
18066W        W90392   6.730   1.464  14.018
18067W        W90393  30.915  16.693   4.187
18068W        W90394  15.286   1.862   1.850
18069W        W90395   0.747  39.870   3.297
18070W        W90396   2.295   8.185   4.152
18071W        W90397  41.462  26.019  13.015
18072W        W90398  25.636  43.800  13.822
18073W        W90399   1.878  16.135  13.961
18074W        W90400  30.480  31.057   3.350
18075W        W90401  42.785   2.785  14.897
18076W        W90402  42.513  43.507   3.846
18077W        W90403  30.930   8.888  10.506
18078W        W90404  22.136  30.966   0.428
18079W        W90405   6.791  33.961  14.013
18080W        W90406  35.057  18.238   4.282
18081W        W90407   2.249  28.638   3.343
18082W        W90408  30.641  39.040  12.854
18083W        W90409  32.037  30.909  14.313
18084W        W90410  14.728   2.324   1.914
18085W        W90411  19.044  29.670  14.511
18086W        W90412  37.985  39.347   0.337
18087W        W90413   8.169  28.930  14.501
18088W        W90414  38.997  31.986  10.008
18089W        W90415  37.506  39.060   0.282
18090W        W90416  22.164  30.432  13.886
18091W        W90417  35.587  27.952  13.810
18092W        W90418  20.160  14.802  12.006
18093W        W90419  44.316  12.259   1.745
18094W        W90420  13.683  44.917   3.691
18095W        W90421  16.150  11.681   4.827
18096W        W90422  29.639  22.125   3.716
18097W        W90423   5.199  18.626  12.947
18098W        W90424   3.741   9.777   1.823
18099W        W90425  15.811   4.719   3.656
18100W        W90426  21.744  38.493   4.662
18101W        W90427  11.708  38.441   2.251
18102W        W90428   3.742   6.702   2.235
18103W        W90429   8.780  30.528   0.802
18104W        W90430  35.853  41.515   3.178
18105W        W90431   8.245  22.085   4.247
18106W        W90432  23.670   5.335   3.374
18107W        W90433  27.118   5.226   0.455
18108W        W90434  13.109  40.407  12.015
18109W        W90435  25.003  20.748  10.919
18110W        W90436  35.463   1.376  12.489
18111W        W90437  44.957  25.584   0.842
18112W        W90438  22.625  29.035  11.419
18113W        W90439  21.056  17.707  12.908
18114W        W90440  38.846  34.611  11.471
18115W        W90441  29.041   3.228   1.844
18116W        W90442  19.056  27.069  12.861
18117W        W90443  33.929  21.115  11.974
18118W        W90444   9.248  10.279  11.034
18119W        W90445  21.082   4.837  11.960
18120W        W90446  29.933   8.228   3.223
18121W        W90447  27.120  19.078   0.406
18122W        W90448  30.604  28.479   0.291
18123W        W90449   8.770  42.341  11.564
18124W        W90450  26.974  30.613  12.033
18125W        W90451  18.127  39.969   4.244
18126W        W90452  18.578  21.138  13.877
18127W        W90453  33.418  15.131   4.734
18128W        W90454  13.619  34.903  10.942
18129W        W90455   0.842  34.484  12.085
18130W        W90456  10.342  35.376   1.291
18131W        W90457  15.632  12.669  10.587
18132W        W90458   1.797  21.070   5.260
18133W        W90459   5.769   3.803   3.813
18134W        W90460  26.001  35.110  13.398
18135W        W90461  40.366   6.294  14.343
18136W        W90462  19.254  23.494  14.292
18137W        W90463  18.121  30.513  10.468
18138W        W90464  43.500  20.743  14.808
18139W        W90465  18.120  25.533  12.969
18140W        W90466  21.197   0.928   4.609
18141W        W90467  15.259   0.792   3.186
18142W        W90468  27.045  38.998  10.491
18143W        W90469   4.212   0.353   1.702
18144W        W90470  11.860  32.551  14.811
18145W        W90471  10.146  23.735  12.941
18146W        W90472  14.318  44.324   4.668
18147W        W90473   6.799  43.799   3.352
18148W        W90474  38.997  35.108  10.492
18149W        W90475  27.019  27.590  11.021
18150W        W90476  39.937  17.609   2.241
18151W        W90477  34.891   3.724   3.362
18152W        W90478   7.263  28.518  11.571
18153W        W90479  13.634  20.029   2.417
18154W        W90480  14.819  31.432   2.722
18155W        W90481  30.983  38.535  10.994
18156W        W90482   4.226  35.895   2.336
18157W        W90483  28.677   9.763  10.428
18158W        W90484  18.279   6.267  14.971
18159W        W90485  38.909   8.857  13.488
18160W        W90486   9.803   4.911   0.277
18161W        W90487  21.535  38.941  12.936
18162W        W90488   3.930  17.089  13.905
18163W        W90489  35.922   7.257   4.322
18164W        W90490  27.048  28.980   3.253
18165W        W90491  26.461  17.264   4.242
18166W        W90492  32.394   3.769  12.347
18167W        W90493  16.780   5.439  10.473
18168W        W90494  12.275  40.360  10.961
18169W        W90495   4.812  40.885  14.877
18170W        W90496  29.528  31.021  12.072
18171W        W90497   3.392  26.008  12.974
18172W        W90498   0.433   8.370   4.268
18173W        W90499   8.656  34.493   4.156
18174W        W90500  36.430  33.538  10.052
18175W        W90501  18.257   8.398   2.872
18176W        W90502  39.506   8.728   4.646
18177W        W90503  26.700  12.852  10.978
18178W        W90504  12.811  25.597  12.547
18179W        W90505  23.126  39.425  13.943
18180W        W90506   7.301  34.945   0.333
18181W        W90507  39.493  40.931  14.975
18182W        W90508  43.961   2.772   2.414
18183W        W90509  34.922  13.334  13.808
18184W        W90510   3.805  23.048  12.044
18185W        W90511  34.883  23.610  12.429
18186W        W90512  31.119   7.399   4.739
18187W        W90513  18.245  23.521   1.245
18188W        W90514  38.040  25.520   2.213
18189W        W90515   7.275   6.247   4.786
18190W        W90516  12.288  31.145  14.893
18191W        W90517  11.201  29.045  10.414
18192W        W90518  26.012   0.926   4.137
18193W        W90519   8.831  18.178   1.786
18194W        W90520  19.556   9.868  11.609
18195W        W90521  20.551  11.716  14.463
18196W        W90522  41.888  12.667  10.154
18197W        W90523  35.025   4.706  13.012
18198W        W90524  19.151   3.863  12.855
18199W        W90525  19.634  42.371  11.071
18200W        W90526  14.295   1.282  11.875
18201W        W90527  11.235  29.469  14.441
18202W        W90528  26.962   7.827   4.691
18203W        W90529  26.013  19.256   0.950
18204W        W90530  44.314  27.462   4.123
18205W        W90531   1.807  13.245   0.372
18206W        W90532  30.495   3.440  10.445
18207W        W90533  37.046  33.431   3.174
18208W        W90534   7.771  16.661   3.773
18209W        W90535   0.310  43.787   0.867
18210W        W90536  38.006  37.496  14.402
18211W        W90537  35.928  28.615   0.930
18212W        W90538  29.647  13.842  13.974
18213W        W90539   9.320  39.922  11.924
18214W        W90540  23.515  33.458  12.865
18215W        W90541  42.432  33.429   1.258
18216W        W90542  36.921  14.340   3.737
18217W        W90543  42.881  40.388  12.984
18218W        W90544   1.360  35.923   0.420
18219W        W90545   8.302  41.486  10.457
18220W        W90546  24.709  42.953  10.455
18221W        W90547  23.543  16.103  12.080
18222W        W90548  17.618  24.636   3.763
18223W        W90549  35.459   6.753  11.057
18224W        W90550  34.534  12.795   2.247
18225W        W90551  12.829  24.071  13.016
18226W        W90552  13.694  43.502  13.957
18227W        W90553  19.195  22.135   0.964
18228W        W90554  11.309   0.374   4.232
18229W        W90555  17.239  42.430   0.902
18230W        W90556  13.180  31.123  14.868
18231W        W90557  39.478  12.692  13.540
18232W        W90558   4.768  26.068   4.662
18233W        W90559  13.256  27.532  11.925
18234W        W90560  20.583   7.752   2.903
18235W        W90561  32.061   0.875  13.445
18236W        W90562   5.400   2.241   1.792
18237W        W90563  17.233  15.234  14.380
18238W        W90564   8.718   6.896  11.960
18239W        W90565  10.176  36.347   3.830
18240W        W90566   4.343   5.687  11.996
18241W        W90567  35.928  43.377  10.597
18242W        W90568  19.596   6.287  13.919
18243W        W90569  11.363   5.731   2.268
18244W        W90570  14.190  29.498  12.997
18245W        W90571  40.529  30.936  13.854
18246W        W90572  11.682  42.338   4.219
18247W        W90573  36.058   6.772   0.357
18248W        W90574  21.629   6.919   0.906
18249W        W90575  32.445   2.751  14.459
18250W        W90576  29.931  28.640   3.222
18251W        W90577  13.712   9.708  12.028
18252W        W90578  13.822  14.745  14.004
18253W        W90579  19.653  30.433   2.669
18254W        W90580  42.526  23.043   2.406
18255W        W90581  30.470  23.662   2.417
18256W        W90582  24.074  32.015   2.839
18257W        W90583   8.901  26.575  12.527
18258W        W90584  27.476  34.921  12.385
18259W        W90585  41.490  13.688  11.454
18260W        W90586   6.365   3.778  13.508
18261W        W90587  40.905  29.025   1.768
18262W        W90588  12.268  40.484  11.952
18263W        W90589  12.646  31.126   1.302
18264W        W90590  16.639  25.014  13.934
18265W        W90591  16.258  14.593   0.369
18266W        W90592  29.646  12.306   1.935
18267W        W90593   3.357  35.926  13.440
18268W        W90594  30.586  13.107   5.132
18269W        W90595  22.040  10.195  12.854
18270W        W90596  14.773  44.866  11.092
18271W        W90597  36.881  22.624   3.290
18272W        W90598   2.465  25.667  12.402
18273W        W90599  29.037  37.438  10.583
18274W        W90600  13.634  30.047  12.971
18275W        W90601  18.757  11.764  10.055
18276W        W90602  35.374  26.544   4.196
18277W        W90603  39.361  39.943  10.519
18278W        W90604   5.265  42.012   0.766
18279W        W90605  21.262   7.804   4.805
18280W        W90606  30.646   3.918   3.708
18281W        W90607   0.448   8.860  13.391
18282W        W90608  35.097  43.357  13.854
18283W        W90609  36.573  11.650   1.865
18284W        W90610  38.888  25.120   2.387
18285W        W90611   9.165  20.533  13.029
18286W        W90612  41.949  32.056  13.948
18287W        W90613  22.608   0.291   3.302
18288W        W90614  41.801  35.365   2.389
18289W        W90615  26.007   1.976  12.089
18290W        W90616   9.819   2.724  13.057
18291W        W90617  36.034  25.073  13.449
18292W        W90618  16.213   1.763  12.933
18293W        W90619  36.375  19.685  12.535
18294W        W90620  12.844  42.031  12.885
18295W        W90621  30.924  42.322   4.672
18296W        W90622  19.710  37.081   0.952
18297W        W90623  33.905  44.842   3.655
18298W        W90624  18.613  10.772  13.510
18299W        W90625  25.705  41.800   0.912
18300W        W90626  25.596  32.136  13.397
18301W        W90627   5.763   8.285   4.326
18302W        W90628   8.675   5.694  14.347
18303W        W90629  34.554  15.809  10.427
18304W        W90630  44.336  12.828   0.333
18305W        W90631  14.118  40.317  12.990
18306W        W90632   2.392  21.612  14.926
18307W        W90633   9.234   4.236   0.789
18308W        W90634  32.075   6.799   2.255
18309W        W90635  33.553  13.698  10.637
18310W        W90636  26.161  39.828  11.610
18311W        W90637  27.579  30.577   1.730
18312W        W90638  23.552  15.814  12.836
18313W        W90639  23.597  34.953  11.589
18314W        W90640  31.428  11.344   0.902
18315W        W90641   5.400  22.153   1.867
18316W        W90642  40.317   2.374  12.351
18317W        W90643   2.798  19.766  14.936
18318W        W90644   5.396  41.292  12.858
18319W        W90645  33.079   3.431   0.403
18320W        W90646   4.331  21.115  12.878
18321W        W90647  15.240  10.201  12.912
18322W        W90648  28.105  44.878   4.267
18323W        W90649  16.156  42.318   3.838
18324W        W90650  34.036  21.223  11.120
18325W        W90651  12.303   8.250  14.764
18326W        W90652   6.415   3.921   4.695
18327W        W90653  13.167  16.289   3.673
18328W        W90654   1.329  19.695   4.240
18329W        W90655  43.976  29.446  10.464
18330W        W90656   0.403  29.072   3.629
18331W        W90657  14.174  31.966  12.557
18332W        W90658  25.481  35.008  14.392
18333W        W90659  15.641  41.831   3.854
18334W        W90660  33.052  15.292  14.951
18335W        W90661  13.770  37.543   3.356
18336W        W90662  15.254  38.987   4.195
18337W        W90663  14.186  30.010  10.991
18338W        W90664  13.206  34.394  13.521
18339W        W90665  22.507  33.978   0.326
18340W        W90666   0.785  39.504   3.664
18341W        W90667  25.005  35.928   2.299
18342W        W90668  22.132   5.899   4.835
18343W        W90669  11.209  39.382  12.914
18344W        W90670  33.951   0.375  13.992
18345W        W90671  41.404  17.163  13.471
18346W        W90672  17.148  39.453  14.387
18347W        W90673  19.675   9.187  13.452
18348W        W90674  39.500  42.817  11.965
18349W        W90675  12.256  26.469   2.362
18350W        W90676   4.898   6.907  10.633
18351W        W90677  26.092  25.518   3.260
18352W        W90678   3.314  18.764  12.081
18353W        W90679  21.632  36.402   0.928
18354W        W90680   6.689  24.645   0.369
18355W        W90681   0.831  36.355  11.092
18356W        W90682  29.102  41.838  11.076
18357W        W90683  20.086  17.734  12.824
18358W        W90684   3.352  37.365  11.928
18359W        W90685  16.215   3.760  12.075
18360W        W90686  23.621  38.874   2.302
18361W        W90687  25.524   1.891   2.361
18362W        W90688  35.469  10.227  14.960
18363W        W90689  44.474   9.786   0.413
18364W        W90690   3.907  37.060   3.811
18365W        W90691  16.657  24.089  11.591
18366W        W90692  32.610  40.862  11.010
18367W        W90693  42.031  42.789  10.604
18368W        W90694   4.934   8.791  14.786
18369W        W90695  13.779   8.304  12.578
18370W        W90696  22.158  19.095  12.406
18371W        W90697  18.669   0.270  12.940
18372W        W90698  16.631  27.623   4.748
18373W        W90699  15.141  28.169  14.009
18374W        W90700  24.720   5.838  10.575
18375W        W90701  10.792  24.044   2.705
18376W        W90702  35.893  30.029   2.869
18377W        W90703   3.253  19.249   3.152
18378W        W90704  24.184  33.006  13.443
18379W        W90705  15.610  20.242  11.964
18380W        W90706  10.329  13.304   2.741
18381W        W90707  35.396  18.789   2.380
18382W        W90708  16.176  36.390   2.829
18383W        W90709  42.402  15.579  13.368
18384W        W90710   2.459  24.621  14.363
18385W        W90711   6.777  26.652  10.559
18386W        W90712  23.179  17.298  14.886
18387W        W90713  43.305  39.922   5.122
18388W        W90714   7.668  16.129  13.504
18389W        W90715  38.044  22.059   2.893
18390W        W90716   6.401  41.428  13.794
18391W        W90717  10.237  36.952   3.277
18392W        W90718  26.689  16.625  12.082
18393W        W90719  10.354  28.978   1.822
18394W        W90720  25.998  35.892  14.774
18395W        W90721  15.593  36.883   4.307
18396W        W90722  16.596  27.084  11.502
18397W        W90723  42.507  30.600  13.369
18398W        W90724   8.859  32.449  11.527
18399W        W90725  10.658   6.356   3.188
18400W        W90726  19.099  42.470   4.808
18401W        W90727   3.757  32.412  11.856
18402W        W90728  29.092  43.795  13.827
18403W        W90729   4.719  20.081   0.368
18404W        W90730   8.288   9.335  14.399
18405W        W90731  20.233  15.764   0.481
18406W        W90732   8.398  40.456   1.892
18407W        W90733   3.285  21.226   2.693
18408W        W90734  13.294  34.396   3.793
18409W        W90735  32.478  25.201   2.759
18410W        W90736  22.694  37.025   4.246
18411W        W90737  27.198   9.194   1.806
18412W        W90738  25.518  33.547   0.254
18413W        W90739  27.978  38.974  10.532
18414W        W90740  14.760  40.384  14.281
18415W        W90741   0.385  29.154   4.817
18416W        W90742   4.236  20.187  12.904
18417W        W90743  25.078  24.058   2.691
18418W        W90744   5.367  17.073  10.146
18419W        W90745   7.273   7.755  12.444
18420W        W90746  36.407  20.038  10.560
18421W        W90747   7.898  23.537   0.383
18422W        W90748   9.774   5.797   0.320
18423W        W90749  12.252  27.068   0.935
18424W        W90750  27.639  38.346  10.405
18425W        W90751  21.192  36.908  10.638
18426W        W90752   7.347  35.978   4.337
18427W        W90753  35.914  13.133   5.084
18428W        W90754  37.401   1.961   4.745
18429W        W90755  37.394   5.863  10.415
18430W        W90756  38.013  43.359   4.297
18431W        W90757   4.356  12.336  12.906
18432W        W90758   2.286   8.201   1.789
18433W        W90759   1.939  12.185   9.453
18434W        W90760  25.073  41.485  13.006
18435W        W90761  42.904  22.021  11.563
18436W        W90762  44.979  18.749  10.617
18437W        W90763  42.352  34.612  14.992
18438W        W90764   9.752   1.764  14.402
18439W        W90765  20.666  29.978   3.177
18440W        W90766   4.727  22.517   4.286
18441W        W90767   1.439  36.451   1.788
18442W        W90768  13.776  26.048   1.317
18443W        W90769  29.647  26.541   9.920
18444W        W90770  25.481   6.245  11.893
18445W        W90771  12.709  43.865   3.696
18446W        W90772  22.007  43.853   3.176
18447W        W90773   4.331  39.447   1.774
18448W        W90774  15.231   5.807   1.899
18449W        W90775  38.559  17.142  14.854
18450W        W90776   4.446  13.645   4.282
18451W        W90777   0.782  34.901  11.926
18452W        W90778  30.540  15.791  14.782
18453W        W90779   9.164   4.742   1.354
18454W        W90780  30.426   2.786   4.721
18455W        W90781  44.328  33.018  12.833
18456W        W90782   9.274  22.592  11.530
18457W        W90783  37.048  26.569  11.555
18458W        W90784  44.350  32.461   4.339
18459W        W90785   5.819  38.389   1.755
18460W        W90786   5.816  28.108   1.738
18461W        W90787   8.337  14.308  10.454
18462W        W90788  27.526  29.988  11.503
18463W        W90789  34.946  12.118  13.896
18464W        W90790  22.529   3.391   3.822
18465W        W90791  10.754  33.929  12.076
18466W        W90792  17.190  11.625  14.788
18467W        W90793  41.855  31.501   1.698
18468W        W90794  13.239  29.460  13.335
18469W        W90795  11.335   5.438   1.820
18470W        W90796   7.217  13.239  10.551
18471W        W90797  21.628   5.738   2.263
18472W        W90798   9.674  27.500  12.573
18473W        W90799  13.322  39.847  14.508
18474W        W90800   4.850  24.089  12.463
18475W        W90801  21.174   1.941  12.848
18476W        W90802  35.995  32.534  12.006
18477W        W90803  40.883  27.466   1.763
18478W        W90804   7.202  41.515  12.448
18479W        W90805   0.482  26.046  10.527
18480W        W90806  31.091   7.665   2.784
18481W        W90807  21.076   8.196   4.166
18482W        W90808  39.442  17.573  10.627
18483W        W90809  12.834  32.132  11.103
18484W        W90810  38.052  21.569   1.318
18485W        W90811  14.338  24.181   1.851
18486W        W90812  10.654  37.041  11.541
18487W        W90813  35.412  15.581   9.995
18488W        W90814  17.595  37.455  11.458
18489W        W90815  42.492   9.819  12.542
18490W        W90816  15.085  44.498  10.439
18491W        W90817  35.429  13.334   4.325
18492W        W90818  11.289  44.435   2.852
18493W        W90819  23.230   1.254  10.472
18494W        W90820  35.984  18.659   3.184
18495W        W90821  30.627  41.846   5.151
18496W        W90822   6.720  17.289  11.977
18497W        W90823  38.064  20.098   0.372
18498W        W90824   2.307  13.293   0.387
18499W        W90825  15.779  42.862  13.857
18500W        W90826  16.641  36.949  10.467
18501W        W90827   6.819  34.494  11.017
18502W        W90828  35.487  35.013   4.266
18503W        W90829  30.945  11.657   0.903
18504W        W90830   7.835  25.709   4.762
18505W        W90831  13.633  29.504   0.785
18506W        W90832  38.549  32.952   3.822
18507W        W90833  17.788   4.841  12.547
18508W        W90834  37.523   1.482   1.798
18509W        W90835   4.727  26.105  12.898
18510W        W90836  26.615  42.454  14.463
18511W        W90837  35.893  34.531  14.016
18512W        W90838   7.896   6.386  13.534
18513W        W90839  15.284  33.433   3.241
18514W        W90840  32.112  26.187   0.324
18515W        W90841  22.600  11.835  10.901
18516W        W90842  35.399  10.163  14.388
18517W        W90843  41.950  25.635  13.347
18518W        W90844   1.252  24.520  13.540
18519W        W90845   3.286  39.499  14.364
18520W        W90846  38.557  43.322   4.598
18521W        W90847  11.824  21.063  12.967
18522W        W90848  24.179   9.233   2.748
18523W        W90849  28.996  27.035   4.726
18524W        W90850  10.771  43.932  12.555
18525W        W90851   5.812  16.268  10.510
18526W        W90852  39.532  17.218  13.336
18527W        W90853   9.384   8.806   2.350
18528W        W90854  14.735   7.279   4.282
18529W        W90855  25.966  14.834  11.091
18530W        W90856  26.511  35.393   3.305
18531W        W90857  38.827  20.733   4.609
18532W        W90858  16.615  15.649  14.784
18533W        W90859  40.912  34.373  12.050
18534W        W90860  18.054  31.035   2.727
18535W        W90861  27.021  17.772   1.279
18536W        W90862   4.749  42.842   1.233
18537W        W90863   7.861  39.315  12.032
18538W        W90864  15.768   5.208   0.456
18539W        W90865  34.578   4.391  12.429
18540W        W90866  32.018  27.602   0.261
18541W        W90867   5.378   8.737   4.216
18542W        W90868   0.883   5.712  12.826
18543W        W90869  30.631  24.131   2.195
18544W        W90870  35.545  35.987  13.311
18545W        W90871  43.997  19.283  14.354
18546W        W90872  31.924  35.516  11.498
18547W        W90873  19.138  27.570  12.051
18548W        W90874  16.121  36.507  14.463
18549W        W90875  18.761  35.025   0.356
18550W        W90876  33.047  21.235   1.900
18551W        W90877  36.469  26.997  10.975
18552W        W90878  15.089  21.028   5.286
18553W        W90879  31.064   5.775   2.387
18554W        W90880   5.712  28.133   1.321
18555W        W90881  23.081  34.896  12.382
18556W        W90882  19.590  28.084  14.372
18557W        W90883   8.277  41.496   2.267
18558W        W90884  23.092   3.743   4.273
18559W        W90885  22.073  21.625  11.579
18560W        W90886   5.903  21.649   3.293
18561W        W90887  40.905  36.590  14.913
18562W        W90888  40.431  40.954   3.665
18563W        W90889   6.898  43.790  10.602
18564W        W90890   7.190  30.034  12.072
18565W        W90891  18.209  30.474   4.703
18566W        W90892  30.940  20.213   0.787
18567W        W90893  25.212  13.117  10.580
18568W        W90894   5.741  33.120  14.980
18569W        W90895  44.997   8.846   2.209
18570W        W90896  38.044   0.368   4.117
18571W        W90897  24.136  17.567  13.358
18572W        W90898  28.532   5.389  14.992
18573W        W90899   0.827  44.938  10.625
18574W        W90900  20.590  28.563  10.513
18575W        W90901  33.953  32.564   2.389
18576W        W90902   9.395  30.939  13.464
18577W        W90903  17.283  22.600   3.870
18578W        W90904  33.109  26.170   1.422
18579W        W90905  37.034  32.636   1.717
18580W        W90906  24.644   6.714  14.800
18581W        W90907  23.995  27.131  11.978
18582W        W90908  38.410   6.734   1.788
18583W        W90909  35.065  19.102  12.357
18584W        W90910  10.755  11.254  14.324
18585W        W90911  20.522  18.731   2.403
18586W        W90912  41.904  10.315  11.482
18587W        W90913  23.524  36.403  10.973
18588W        W90914  24.492  11.827  12.884
18589W        W90915  20.686  32.054   4.675
18590W        W90916   9.303  35.366  13.345
18591W        W90917  38.978   1.446   3.281
18592W        W90918  22.054  43.317  14.456
18593W        W90919   6.312  23.609   4.206
18594W        W90920  41.508   0.414   3.705
18595W        W90921  32.526  41.945  12.570
18596W        W90922  23.057  19.616   2.734
18597W        W90923  35.059  32.629  14.914
18598W        W90924  41.530  15.599   5.302
18599W        W90925  31.540  44.383   0.895
18600W        W90926  21.241  29.146  14.791
18601W        W90927  40.407  19.585   0.435
18602W        W90928  39.463  25.125   3.797
18603W        W90929   7.857  26.991   0.301
18604W        W90930   2.847  41.038   1.784
18605W        W90931  21.740  40.820  13.444
18606W        W90932  11.664  15.179  14.476
18607W        W90933  14.775  20.720   1.899
18608W        W90934  44.999  16.592  14.775
18609W        W90935  28.991   9.171  12.883
18610W        W90936  24.989   1.438  14.472
18611W        W90937  12.719  29.670  11.912
18612W        W90938  18.182   1.749  12.400
18613W        W90939  11.676  39.040   5.155
18614W        W90940  41.926   2.809   1.838
18615W        W90941  43.804  42.456   1.290
18616W        W90942   0.817  33.882   1.782
18617W        W90943  44.399  18.723   2.180
18618W        W90944  37.912  29.430   0.282
18619W        W90945   1.864  20.042   2.287
18620W        W90946  22.091  28.645  14.858
18621W        W90947  40.401  16.710   1.893
18622W        W90948  37.956  24.041   3.184
18623W        W90949  11.258   4.412   4.169
18624W        W90950  16.258  43.345  13.406
18625W        W90951  23.107  42.315  11.923
18626W        W90952  10.236   4.727   2.770
18627W        W90953   5.243  32.401  11.935
18628W        W90954   0.405   3.363   1.714
18629W        W90955  24.614  30.085   2.771
18630W        W90956  35.867   4.416   0.864
18631W        W90957  14.329  26.017   3.645
18632W        W90958  36.041  26.672  10.051
18633W        W90959  31.150  26.100   2.788
18634W        W90960  32.561  18.652  10.120
18635W        W90961  16.306  23.238  11.384
18636W        W90962  29.657  24.563  13.535
18637W        W90963   1.936  22.673  12.888
18638W        W90964  11.268  32.482   2.705
18639W        W90965  26.550  12.305  10.951
18640W        W90966  31.630  41.305   4.236
18641W        W90967  23.593  44.767  10.618
18642W        W90968  33.008   3.907   3.646
18643W        W90969  29.625   2.313  14.466
18644W        W90970  30.536  14.170  12.458
18645W        W90971  33.426  12.703   0.446
18646W        W90972  39.903  15.649  12.927
18647W        W90973  33.493   5.321   0.390
18648W        W90974  34.917  17.103  12.483
18649W        W90975   9.862  24.175  11.492
18650W        W90976   2.912  31.135   4.155
18651W        W90977  24.069  35.395   0.939
18652W        W90978  42.956  43.420   1.237
18653W        W90979  40.515  17.607  11.506
18654W        W90980   1.897   7.255   4.218
18655W        W90981   5.372  12.824  12.945
18656W        W90982   0.885  12.767  12.475
18657W        W90983  35.934  15.149  14.809
18658W        W90984  14.298  43.803   3.729
18659W        W90985   2.258  10.343  13.839
18660W        W90986   0.943  44.799   4.625
18661W        W90987  13.313  24.706  14.313
18662W        W90988  13.756  26.073   0.953
18663W        W90989   3.385  20.632   1.370
18664W        W90990  13.195  35.446  12.376
18665W        W90991  36.852   9.711   2.296
18666W        W90992  24.022  37.846   1.737
18667W        W90993  11.723  21.165   2.868
18668W        W90994  43.876  21.692   0.835
18669W        W90995  36.559  19.548   3.214
18670W        W90996   8.740  21.689   4.210
18671W        W90997  41.888  30.935   3.321
18672W        W90998  35.555  38.446   0.398
18673W        W90999  30.050  14.640   3.326
18674W        W91000  20.546  12.648   0.813
18675W        W91001  44.846   2.754  11.882
18676W        W91002   8.277  39.024   1.708
18677W        W91003  14.280  33.568   3.364
18678W        W91004  22.693   9.300  13.913
18679W        W91005   6.339   6.324  12.837
18680W        W91006  39.505  28.664   2.321
18681W        W91007  12.235   2.726   2.718
18682W        W91008  11.271  30.439   1.250
18683W        W91009  29.631  21.696  14.463
18684W        W91010  39.389  11.742   3.720
18685W        W91011   7.393  37.021  12.084
18686W        W91012  14.744  15.227  14.417
18687W        W91013  26.077  30.423  12.035
18688W        W91014  41.885  14.595   4.765
18689W        W91015  20.619  44.377  14.284
18690W        W91016  12.182  12.720   0.861
18691W        W91017  36.984  43.788  14.969
18692W        W91018  14.327   3.790   1.902
18693W        W91019  19.721  37.397   5.136
18694W        W91020   3.432  16.813   1.298
18695W        W91021   3.860  30.635   2.872
18696W        W91022  16.287  39.001   3.866
18697W        W91023  41.488  37.383  12.046
18698W        W91024  22.716   6.864   0.747
18699W        W91025  19.075   3.427   0.254
18700W        W91026  38.468   4.399  14.502
18701W        W91027  38.488   8.354   3.741
18702W        W91028  18.113  10.266  13.961
18703W        W91029  14.259  16.808   2.817
18704W        W91030  16.607  13.112   1.731
18705W        W91031  34.956  14.719  12.436
18706W        W91032  11.693  25.680   0.890
18707W        W91033  44.769  11.633   1.841
18708W        W91034  34.067  13.299   4.145
18709W        W91035   6.196  40.315   1.783
18710W        W91036  23.712  17.282   5.205
18711W        W91037  13.675  42.397   3.220
18712W        W91038  35.028  18.731   1.215
18713W        W91039  36.431  39.531  10.515
18714W        W91040  38.946  19.277   3.296
18715W        W91041  44.790  15.725  11.427
18716W        W91042  43.307  17.173  14.920
18717W        W91043  33.624  40.026   2.397
18718W        W91044  43.310   2.413   1.420
18719W        W91045  17.276  10.152   0.967
18720W        W91046  31.943  33.605  10.437
18721W        W91047  43.366  23.218   0.864
18722W        W91048   2.926   5.803  11.586
18723W        W91049  43.990  23.643   0.789
18724W        W91050  21.548  28.568  11.922
18725W        W91051  40.437  21.202   1.820
18726W        W91052  34.613  10.381  13.520
18727W        W91053   4.831  44.268   2.872
18728W        W91054  43.430   9.204   0.965
18729W        W91055   2.758   4.260   1.933
18730W        W91056  21.031  31.967   0.870
18731W        W91057  24.119  37.555  12.404
18732W        W91058  38.348   3.811   4.600
18733W        W91059  37.392   4.351   1.780
18734W        W91060  20.663  39.043  13.388
18735W        W91061  39.877  26.585   3.638
18736W        W91062  29.435   0.414  14.999
18737W        W91063  29.526  27.048  10.030
18738W        W91064  22.647   4.369  14.951
18739W        W91065  27.462  35.523   2.343
18740W        W91066   8.742  38.566  11.097
18741W        W91067  18.266   4.311   2.245
18742W        W91068  31.612  31.974   1.697
18743W        W91069   8.203  31.420   2.361
18744W        W91070   0.989   2.303  14.283
18745W        W91071  25.130  12.784  14.954
18746W        W91072   8.840  14.117   5.221
18747W        W91073  15.630   4.719  14.807
18748W        W91074   3.762  30.045  13.348
18749W        W91075  19.740  19.269   0.483
18750W        W91076  29.516  31.544   4.276
18751W        W91077  29.995  19.701  11.978
18752W        W91078  21.682  30.572  13.542
18753W        W91079   5.810  44.401   1.893
18754W        W91080  18.150  16.179  12.494
18755W        W91081  25.468  42.826  10.619
18756W        W91082  13.838  15.674  12.353
18757W        W91083  41.906  28.042  14.018
18758W        W91084  26.620  31.482  13.874
18759W        W91085   6.341   9.872  13.049
18760W        W91086  41.406  36.056   0.459
18761W        W91087   9.722  35.869  14.442
18762W        W91088  22.741  41.477  13.871
18763W        W91089  41.441  20.571   4.181
18764W        W91090  20.737   1.885   0.965
18765W        W91091  10.715   2.741   1.342
18766W        W91092  30.602   2.332  10.410
18767W        W91093  26.172  30.988   0.396
18768W        W91094  31.931  42.413  12.949
18769W        W91095  16.740  12.278  10.545
18770W        W91096  28.937   2.377   4.697
18771W        W91097  35.021  33.880  13.876
18772W        W91098  41.384  22.707   1.282
18773W        W91099  19.274   4.316  11.528
18774W        W91100   0.441  11.680   0.436
18775W        W91101   9.284  43.849   2.342
18776W        W91102  34.082  32.906   3.310
18777W        W91103  17.227   4.938  12.365
18778W        W91104  36.030  35.970  10.945
18779W        W91105  30.967  15.668   5.159
18780W        W91106  18.559   5.817  11.536
18781W        W91107  36.586  44.984  10.930
18782W        W91108  15.783  44.912   2.697
18783W        W91109  16.292  12.824   1.322
18784W        W91110  32.129  36.543   4.598
18785W        W91111  32.621  21.730  11.023
18786W        W91112   7.358  29.006  14.372
18787W        W91113  31.975  12.192   4.632
18788W        W91114  29.005  22.160   0.243
18789W        W91115  18.667  39.875   4.303
18790W        W91116  21.072  38.006   9.945
18791W        W91117  37.040  12.252  14.898
18792W        W91118  31.515  40.013   1.855
18793W        W91119  19.145  36.961  14.298
18794W        W91120  22.650  33.959  14.010
18795W        W91121  29.928  29.124  11.372
18796W        W91122  25.691  43.876  12.880
18797W        W91123  43.991  43.901  10.914
18798W        W91124   0.308  34.069  11.994
18799W        W91125   5.307  14.201   4.815
18800W        W91126  14.225   0.877   1.228
18801W        W91127  15.678  25.581   4.324
18802W        W91128  44.334   5.325   1.702
18803W        W91129  31.462  11.748   3.283
18804W        W91130  20.251  20.701   2.824
18805W        W91131  29.171  42.801  14.493
18806W        W91132   2.342   0.253   1.227
18807W        W91133  38.461  42.471   3.790
18808W        W91134   1.741  18.664  14.412
18809W        W91135  10.171  18.213   3.240
18810W        W91136  13.214  19.675  10.010
18811W        W91137   8.796  29.503   1.403
18812W        W91138  25.525  12.764  13.968
18813W        W91139  37.344   7.222   0.433
18814W        W91140  13.268  28.041   3.325
18815W        W91141   6.683  30.937  11.093
18816W        W91142   2.948  24.527  14.860
18817W        W91143  24.086  40.861  13.451
18818W        W91144  20.718  40.943   2.750
18819W        W91145  37.051  28.185  14.823
18820W        W91146  36.030   9.295  12.370
18821W        W91147   5.794  27.034  10.971
18822W        W91148  23.078   9.170   4.159
18823W        W91149  30.047  19.666  13.398
18824W        W91150  37.872   3.426  10.080
18825W        W91151   3.315  31.560  14.292
18826W        W91152   0.334  39.057   0.861
18827W        W91153  34.878  37.875   2.787
18828W        W91154  42.826   6.776  14.444
18829W        W91155  28.076  28.448   2.699
18830W        W91156  34.503   2.932  12.879
18831W        W91157  40.042  43.006   4.224
18832W        W91158  44.486  31.907  12.074
18833W        W91159  35.404  41.913  13.056
18834W        W91160  44.413  37.045  14.946
18835W        W91161  21.587   0.934  14.975
18836W        W91162  21.252   5.850   1.414
18837W        W91163  35.407  11.184  14.515
18838W        W91164  12.794  19.561   0.863
18839W        W91165  27.029  18.122   1.269
18840W        W91166  35.892   4.339   3.162
18841W        W91167  30.432  21.254  13.407
18842W        W91168  32.059   9.703   2.738
18843W        W91169   0.304  41.511   4.611
18844W        W91170  37.381   7.678  13.546
18845W        W91171   6.833  17.671  14.367
18846W        W91172  26.533  13.259  11.991
18847W        W91173  17.639  37.564  14.412
18848W        W91174  43.985  18.700   1.905
18849W        W91175   9.715  26.506   2.341
18850W        W91176  11.809  43.778  11.498
18851W        W91177  31.147   4.213  12.887
18852W        W91178  29.120  39.880   2.295
18853W        W91179  33.997  13.727  12.361
18854W        W91180  15.290   8.795  13.514
18855W        W91181  15.668  30.622  13.394
18856W        W91182  26.014   6.347   2.208
18857W        W91183  27.940  15.628   3.340
18858W        W91184  15.815   2.845  12.024
18859W        W91185   8.400   9.178  12.386
18860W        W91186  43.830  10.326  12.528
18861W        W91187  29.564  21.095   0.423
18862W        W91188  10.316  25.699  13.034
18863W        W91189  36.016  22.520   4.235
18864W        W91190   7.867  26.611  11.856
18865W        W91191  25.546  16.765   0.390
18866W        W91192   8.283  39.037  11.120
18867W        W91193  23.567   7.722  10.991
18868W        W91194  25.175  11.798   3.182
18869W        W91195   6.415  18.134   0.766
18870W        W91196  10.260  31.440  14.818
18871W        W91197  21.106   7.300  13.478
18872W        W91198  34.544  22.713   4.753
18873W        W91199  34.402  20.126   4.261
18874W        W91200   7.178  32.418  13.404
18875W        W91201  13.224  15.291  11.413
18876W        W91202   9.736  38.838  14.771
18877W        W91203  13.110  20.135  11.572
18878W        W91204   5.848  15.814  13.990
18879W        W91205   3.392  16.619   2.239
18880W        W91206  18.621  37.981  11.046
18881W        W91207  26.529   3.800  12.386
18882W        W91208  28.570  26.165  10.950
18883W        W91209  44.917  40.492  12.483
18884W        W91210  19.102  44.485   4.713
18885W        W91211  14.591   3.795  11.920
18886W        W91212   5.896  24.661   3.209
18887W        W91213  11.324  38.507   3.299
18888W        W91214  15.104  41.312   3.840
18889W        W91215   2.770  12.227  13.484
18890W        W91216  27.484   3.850  13.479
18891W        W91217  20.689  34.410  10.411
18892W        W91218  39.929  40.361   0.820
18893W        W91219  44.997  29.491   2.712
18894W        W91220   6.840  18.729  12.992
18895W        W91221  44.412  23.629  10.890
18896W        W91222  16.231  33.397   3.680
18897W        W91223  23.018  25.999   4.314
18898W        W91224  22.689  37.943  10.596
18899W        W91225  40.849   5.814   0.339
18900W        W91226   7.853   6.763  12.577
18901W        W91227  11.681  27.568  12.417
18902W        W91228  39.327  29.047  12.980
18903W        W91229  23.634  38.357   0.247
18904W        W91230  11.348  33.433  14.976
18905W        W91231   0.395  17.195   3.355
18906W        W91232  43.318   2.812   0.764
18907W        W91233  14.606  14.234  11.940
18908W        W91234  35.448  32.522  14.407
18909W        W91235  41.502  20.564   3.711
18910W        W91236  27.129  31.941   5.106
18911W        W91237  22.095  44.928  12.435
18912W        W91238  23.606  35.548  10.416
18913W        W91239  41.012  43.976   0.404
18914W        W91240  21.256  40.480   3.780
18915W        W91241   6.818  17.721  10.590
18916W        W91242  39.423  15.246   1.405
18917W        W91243   5.312  33.537  12.551
18918W        W91244   6.753  31.477  13.548
18919W        W91245  30.947  36.922  14.381
18920W        W91246  43.284  36.886   2.314
18921W        W91247  42.380  27.958   0.844
18922W        W91248   5.337  29.165   0.463
18923W        W91249  23.525  16.774   4.690
18924W        W91250  35.029  38.968  12.397
18925W        W91251  16.208  27.509  14.287
18926W        W91252  21.653   6.243   3.228
18927W        W91253  11.681  20.736   2.244
18928W        W91254  14.770  14.595   0.869
18929W        W91255  29.546   3.249  11.375
18930W        W91256  14.149  44.394  11.875
18931W        W91257  11.153  18.197   0.329
18932W        W91258   3.719   5.334   4.240
18933W        W91259  31.518   3.835  13.411
18934W        W91260   9.354   6.757  11.972
18935W        W91261  43.958  26.511   3.215
18936W        W91262  26.661  16.154   2.868
18937W        W91263   5.428  43.486  12.914
18938W        W91264  34.869  19.282  14.917
18939W        W91265  30.050  42.889   1.370
18940W        W91266  37.436  10.298   5.321
18941W        W91267  17.570   9.831  14.457
18942W        W91268  43.364  37.413   1.816
18943W        W91269  15.801  13.799   1.737
18944W        W91270  42.412  12.677   4.208
18945W        W91271  27.946  29.035   5.289
18946W        W91272   6.739  17.716   4.159
18947W        W91273  10.292   9.659  13.053
18948W        W91274  19.209  42.425   3.255
18949W        W91275  26.015  28.006  12.406
18950W        W91276   0.424  24.072   4.343
18951W        W91277  34.894  10.789  13.324
18952W        W91278  21.534   0.759   3.366
18953W        W91279   0.286   0.956   3.652
18954W        W91280   5.231   5.284  14.306
18955W        W91281  44.436   9.174   4.769
18956W        W91282  35.955  11.836   3.695
18957W        W91283  20.223   0.856   3.780
18958W        W91284   4.780  26.980   0.801
18959W        W91285  22.502  24.624  11.436
18960W        W91286  41.894  32.637  14.453
18961W        W91287   6.918  19.615  13.849
18962W        W91288  22.053  38.881   1.759
18963W        W91289  23.055   8.714  12.896
18964W        W91290  22.500  10.282  11.542
18965W        W91291  26.130  36.523  11.932
18966W        W91292  28.186   8.323   2.679
18967W        W91293   4.352  22.119  12.412
18968W        W91294  37.971  32.472   3.705
18969W        W91295  42.398  29.042  12.976
18970W        W91296  43.311  33.588   1.923
18971W        W91297   4.240  39.479  10.960
18972W        W91298  34.007  23.522  12.052
18973W        W91299  25.559  18.207   0.906
18974W        W91300   6.751  16.287   3.742
18975W        W91301  14.756  25.119  12.060
18976W        W91302  37.503  22.647   0.861
18977W        W91303  38.911   1.290  14.951
18978W        W91304  20.265  13.675   2.221
18979W        W91305  36.352   8.253   2.768
18980W        W91306  32.440  12.237  12.488
18981W        W91307  29.959   2.264  12.020
18982W        W91308  22.219  28.437  12.432
18983W        W91309   4.255  42.965  12.056
18984W        W91310  27.162  15.152  11.088
18985W        W91311  32.996   0.743   4.780
18986W        W91312  41.533   4.212   1.245
18987W        W91313  28.465   3.409   2.789
18988W        W91314  29.119  37.046  12.870
18989W        W91315  42.471   4.773   0.948
18990W        W91316  36.543  13.799  11.505
18991W        W91317  29.019   1.801   0.797
18992W        W91318  17.758  14.200   4.821
18993W        W91319  17.679   4.811  14.773
18994W        W91320   3.368  36.351   2.882
18995W        W91321  16.132  10.339  14.759
18996W        W91322  19.267  40.544  11.481
18997W        W91323  35.914  11.269  12.548
18998W        W91324   9.227  20.146   0.296
18999W        W91325   6.827  42.891  10.501
19000W        W91326   9.267  15.816  12.545
19001W        W91327  38.439  41.910   4.753
19002W        W91328   4.864   5.397  14.823
19003W        W91329   9.321  31.037  11.561
19004W        W91330  43.978   9.786   4.631
19005W        W91331  15.676  39.954   2.287
19006W        W91332  30.930  16.293   1.787
19007W        W91333  17.106  25.104  12.442
19008W        W91334  15.666   8.393   1.335
19009W        W91335  15.298   5.358   0.797
19010W        W91336  23.190   7.383   2.400
19011W        W91337  16.281   1.303   0.356
19012W        W91338  39.481  16.706  12.546
19013W        W91339  43.408   9.223  13.796
19014W        W91340   7.381  32.522   4.654
19015W        W91341  25.662  25.993   1.323
19016W        W91342  12.828   1.966   0.294
19017W        W91343  33.004  23.108  10.467
19018W        W91344  32.119  41.521   3.341
19019W        W91345   6.806   3.232  11.959
19020W        W91346  29.570   7.774  13.979
19021W        W91347  21.574  15.133   2.745
19022W        W91348   6.195  44.371   2.792
19023W        W91349  40.799  17.587  11.952
19024W        W91350  30.585  17.100  11.048
19025W        W91351   9.780  22.063  11.421
19026W        W91352  32.519   3.792  10.493
19027W        W91353   3.741  23.653   3.862
19028W        W91354  20.048  16.700   1.318
19029W        W91355  21.748  14.151   4.795
19030W        W91356  31.587  34.019  13.446
19031W        W91357   4.429  34.997   2.348
19032W        W91358  28.654   0.438   2.860
19033W        W91359  30.444   7.280   2.329
19034W        W91360  29.120   2.887  12.549
19035W        W91361   1.871  24.660  10.977
19036W        W91362  19.215  40.480   0.333
19037W        W91363   5.425   2.899   3.770
19038W        W91364   8.805  26.492  11.105
19039W        W91365  43.866  17.663  14.787
19040W        W91366  36.935  37.401  10.136
19041W        W91367   2.853  37.400  13.034
19042W        W91368  44.005  15.291  10.926
19043W        W91369  15.115  29.958  11.454
19044W        W91370  20.664   1.365  13.415
19045W        W91371   9.675  38.907  13.395
19046W        W91372  20.058  13.760   0.456
19047W        W91373   8.665  16.781   0.811
19048W        W91374   1.298  33.602   1.806
19049W        W91375   0.286  36.593   3.216
19050W        W91376  12.209  30.010  10.521
19051W        W91377   9.231  31.997   4.678
19052W        W91378  12.809  29.501   4.349
19053W        W91379  15.179  19.735  12.407
19054W        W91380  38.024  37.058   2.685
19055W        W91381  11.266  19.695  11.072
19056W        W91382  21.038  39.827   3.838
19057W        W91383  19.746  21.194  11.573
19058W        W91384  31.640  25.151  14.837
19059W        W91385  17.285  44.366   2.402
19060W        W91386  37.961  23.189  13.887
19061W        W91387  29.577  16.252   1.271
19062W        W91388  31.491  12.688   0.814
19063W        W91389   0.376   6.390  14.487
19064W        W91390  32.910  43.378  11.093
19065W        W91391   6.846  37.472  14.395
19066W        W91392   2.861  44.967  13.412
19067W        W91393  34.080  42.822  14.827
19068W        W91394  15.285   5.889  14.480
19069W        W91395   7.285  28.153   2.879
19070W        W91396  19.098  35.898  11.395
19071W        W91397  41.518  44.775  14.853
19072W        W91398   7.219  21.248   0.269
19073W        W91399  32.099  34.466  10.537
19074W        W91400  13.125  19.724   3.749
19075W        W91401   0.361  31.549   4.763
19076W        W91402  42.853  32.940  10.115
19077W        W91403  31.421  38.409  12.938
19078W        W91404  22.096   5.910  11.030
19079W        W91405  13.694  20.128  12.889
19080W        W91406  18.123  24.044  12.509
19081W        W91407  33.508   6.183  14.351
19082W        W91408   6.879  20.747  13.995
19083W        W91409  30.107  32.634  12.353
19084W        W91410  25.031  12.730  10.596
19085W        W91411  22.574  23.647   2.877
19086W        W91412  32.454   2.407  11.387
19087W        W91413  14.757  31.597   4.342
19088W        W91414  32.620  19.200  13.022
19089W        W91415  40.534  28.572  11.865
19090W        W91416  41.928   6.866   3.731
19091W        W91417  32.907  19.574  12.096
19092W        W91418  19.609   2.346   1.715
19093W        W91419  25.495  37.527   5.213
19094W        W91420  43.876  16.713  11.558
19095W        W91421  12.707  30.623  14.965
19096W        W91422   7.843  22.685  10.628
19097W        W91423  17.674  28.145   2.685
19098W        W91424   6.401  44.414   0.777
19099W        W91425  24.612   7.338  13.795
19100W        W91426  22.642  34.390  10.979
19101W        W91427  32.033  27.195  11.455
19102W        W91428  15.154  42.516  14.499
19103W        W91429   4.406   6.269   4.766
19104W        W91430  23.040  23.700   4.739
19105W        W91431  22.079  33.397   4.602
19106W        W91432   4.264  39.003   3.216
19107W        W91433   3.334  44.952   4.253
19108W        W91434  12.188  19.608   1.931
19109W        W91435  12.615  16.162   2.200
19110W        W91436  23.019  43.362   4.664
19111W        W91437  18.071  22.507  12.381
19112W        W91438  14.289  38.886  10.548
19113W        W91439  25.603  17.178  12.385
19114W        W91440  43.818  21.228   2.846
19115W        W91441   7.222  41.995   2.287
19116W        W91442  14.298  23.144   3.209
19117W        W91443  28.127   4.935  13.522
19118W        W91444   4.858  41.968  12.973
19119W        W91445   6.343  42.436   1.426
19120W        W91446   9.376  37.928   2.719
19121W        W91447  35.591  29.667  10.592
19122W        W91448  22.669  36.842   1.390
19123W        W91449  10.790  25.564   0.256
19124W        W91450  12.307  13.723  11.014
19125W        W91451  12.747  26.676   5.678
19126W        W91452  11.142  26.999  10.043
19127W        W91453  21.735  43.834   2.821
19128W        W91454  36.418  43.815   1.450
19129W        W91455  29.520  22.674  10.061
19130W        W91456  30.620  34.426   4.254
19131W        W91457  16.217  25.007  10.445
19132W        W91458   3.293  41.864   2.778
19133W        W91459  13.121  36.435   4.202
19134W        W91460   8.723   7.743  12.361
19135W        W91461  43.983   6.411  10.546
19136W        W91462   5.366  35.363   0.953
19137W        W91463  21.084  15.655  13.029
19138W        W91464  27.123  21.018  14.760
19139W        W91465   6.324   2.938  11.917
19140W        W91466  24.091  40.400   2.211
19141W        W91467   3.794  26.672  12.070
19142W        W91468  20.685  44.314  14.920
19143W        W91469   9.718  23.612   4.801
19144W        W91470  34.100  32.011  13.429
19145W        W91471   3.882  18.264   3.761
19146W        W91472  32.454   9.663  11.950
19147W        W91473   9.653  11.171   3.797
19148W        W91474  32.423   9.294   0.274
19149W        W91475  18.257  29.646  11.985
19150W        W91476  27.587   2.917  12.967
19151W        W91477   1.481  34.598   0.937
19152W        W91478  25.968   7.356  13.019
19153W        W91479   6.410  43.269   2.326
19154W        W91480  35.953  16.186   1.354
19155W        W91481  34.077  42.908   0.282
19156W        W91482   4.797  42.018  11.490
19157W        W91483  14.108  33.496   3.787
19158W        W91484  17.718   3.774  14.017
19159W        W91485  17.731  14.694  14.872
19160W        W91486   9.673  22.552   4.729
19161W        W91487  16.199  41.538  10.983
19162W        W91488  31.898  33.523  11.517
19163W        W91489  18.774  26.015   3.258
19164W        W91490  12.816  15.689  11.971
19165W        W91491  21.184  33.514   4.280
19166W        W91492   7.384  35.050   0.898
19167W        W91493   4.303  18.559   2.234
19168W        W91494  37.361  20.030   0.774
19169W        W91495  26.629  44.863  10.503
19170W        W91496  27.122  13.697  12.910
19171W        W91497  35.472  27.131  14.027
19172W        W91498   3.852  14.595  11.072
19173W        W91499  40.876  43.953   1.903
19174W        W91500   0.310  40.932  11.501
19175W        W91501  44.805   2.391   1.801
19176W        W91502  42.797  36.040  14.435
19177W        W91503  33.590   5.706   1.263
19178W        W91504  20.049  17.099   1.745
19179W        W91505  26.021   6.368  11.408
19180W        W91506  33.551  14.228  10.637
19181W        W91507   4.741   4.904   1.426
19182W        W91508  13.803  23.526  10.583
19183W        W91509  19.667  41.952  12.038
19184W        W91510  16.201  24.987   2.333
19185W        W91511  32.960   6.282   2.875
19186W        W91512  12.313   2.957  11.859
19187W        W91513   0.939  25.180   5.274
19188W        W91514  35.936  25.209  12.569
19189W        W91515   3.768  31.602   3.345
19190W        W91516  11.773  22.657  13.360
19191W        W91517   7.332  39.820   0.731
19192W        W91518  23.231  30.041  11.989
19193W        W91519  12.242  26.618   0.938
19194W        W91520  31.939   6.333   5.129
19195W        W91521  19.676  36.584   3.378
19196W        W91522  38.971  16.627  12.981
19197W        W91523   1.778   6.916  13.898
19198W        W91524   9.669  13.248  14.897
19199W        W91525   4.323  12.280  14.941
19200W        W91526  11.246  26.196  12.423
19201W        W91527  30.908  18.204  10.961
19202W        W91528  18.662  21.620  13.386
19203W        W91529  36.912  12.765   4.735
19204W        W91530  42.000  30.099  14.025
19205W        W91531  32.534  16.181   0.356
19206W        W91532  14.250  10.845  14.310
19207W        W91533  23.148   2.277  11.005
19208W        W91534   7.327  35.905   4.730
19209W        W91535  35.410   0.322   2.697
19210W        W91536   9.830  39.014  11.072
19211W        W91537  36.456  25.062   5.285
19212W        W91538  35.940  33.416  11.424
19213W        W91539  16.098  33.062   2.869
19214W        W91540  16.629  13.628  11.977
19215W        W91541  21.196   4.293  10.970
19216W        W91542  41.806  17.168   9.944
19217W        W91543  30.124  33.469   0.827
19218W        W91544  41.380  29.519   3.855
19219W        W91545   8.342   3.888   0.275
19220W        W91546  35.083   4.803  11.914
19221W        W91547  41.535  20.199  14.420
19222W        W91548  13.717  10.662  12.571
19223W        W91549  16.284  12.291   3.164
19224W        W91550  27.640  30.006  14.953
19225W        W91551   7.361  26.520   3.648
19226W        W91552  23.509   2.945   3.236
19227W        W91553  12.845  25.577   1.907
19228W        W91554  34.541  18.247  10.532
19229W        W91555  18.749  19.283   2.857
19230W        W91556  13.236  25.528  13.870
19231W        W91557   5.696  26.030  11.963
19232W        W91558  25.503  27.685  10.628
19233W        W91559  13.305   8.225  10.445
19234W        W91560  24.221  30.105   3.744
19235W        W91561  39.945  38.962   2.204
19236W        W91562  17.597  36.843  11.610
19237W        W91563  36.049  36.005  11.392
19238W        W91564  13.105   9.251  11.558
19239W        W91565  42.491  23.225   2.742
19240W        W91566  31.909  12.194  13.838
19241W        W91567  25.577   4.249  11.107
19242W        W91568  12.174  20.102   2.378
19243W        W91569  20.175  41.928   1.376
19244W        W91570  39.056  26.467   1.931
19245W        W91571  14.752  35.454  12.507
19246W        W91572   5.396  30.100  10.956
19247W        W91573  11.149  21.640   0.467
19248W        W91574  32.948   8.374  13.976
19249W        W91575  23.020  39.539   9.588
19250W        W91576  13.124   1.451  12.920
19251W        W91577  27.967   8.852   1.214
19252W        W91578  16.589  15.204  11.469
19253W        W91579  35.087  29.613  13.900
19254W        W91580   8.390  39.022   0.375
19255W        W91581  24.669  14.179  14.780
19256W        W91582  16.739  40.994  12.842
19257W        W91583   5.757  40.482   4.233
19258W        W91584  13.769  42.976  12.045
19259W        W91585  27.995   8.806  12.531
19260W        W91586  28.611  11.370  10.489
19261W        W91587  40.546  17.239  13.358
19262W        W91588  25.577  27.140   1.241
19263W        W91589   3.454   7.317   2.179
19264W        W91590  14.286  12.736   1.892
19265W        W91591  35.476  24.687   4.258
19266W        W91592   8.838  18.192   1.340
19267W        W91593  19.218  28.118   2.876
19268W        W91594   6.899  39.963  14.869
19269W        W91595  32.028  35.992  13.000
19270W        W91596  14.178   9.713  14.813
19271W        W91597  11.240  39.522  14.435
19272W        W91598   7.358  27.682  12.986
19273W        W91599  10.307  15.691   0.471
19274W        W91600  38.510  42.831   0.866
19275W        W91601  22.576  44.795  14.313
19276W        W91602  39.412  18.124  10.952
19277W        W91603  42.471  18.661   3.764
19278W        W91604  33.608  13.656  10.024
19279W        W91605  30.581  44.365  10.524
19280W        W91606  27.639  12.770   4.831
19281W        W91607  32.523  27.966  13.977
19282W        W91608  22.129  20.146   3.714
19283W        W91609  25.080  37.463  13.965
19284W        W91610  22.198  20.118  12.067
19285W        W91611   0.792  41.855   2.867
19286W        W91612   2.416  29.540   0.845
19287W        W91613  40.348   9.701  14.915
19288W        W91614  42.968  43.981  10.623
19289W        W91615   2.469  38.854  10.151
19290W        W91616  28.954  43.925  12.365
19291W        W91617  33.008  16.173   4.654
19292W        W91618  40.523  12.357   2.806
19293W        W91619   0.743  20.122   1.721
19294W        W91620   2.956  41.498  10.929
19295W        W91621  30.156   1.288   0.385
19296W        W91622  30.570  18.668   3.300
19297W        W91623  14.217  19.752   0.804
19298W        W91624  28.014   5.768  14.845
19299W        W91625   2.377  21.576   4.701
19300W        W91626  39.038  42.952   3.721
19301W        W91627  31.512  19.671   0.759
19302W        W91628   9.662   6.408  13.862
19303W        W91629  13.166  13.168   1.905
19304W        W91630  38.501   4.826   3.672
19305W        W91631   2.319  30.553   2.245
19306W        W91632  38.931  36.382  14.023
19307W        W91633  17.785  21.651   1.427
19308W        W91634  40.835  28.047   4.818
19309W        W91635  27.588   5.864   1.444
19310W        W91636  36.950   2.731   1.428
19311W        W91637  18.130  17.778   1.920
19312W        W91638  12.783  19.195  12.387
19313W        W91639  44.265  31.101   2.335
19314W        W91640   7.793  42.854  14.466
19315W        W91641  22.136   0.868   4.607
19316W        W91642  43.794   7.795  12.510
19317W        W91643   2.924   8.182  13.540
19318W        W91644   1.474  10.657   4.196
19319W        W91645  13.659  30.043   2.262
19320W        W91646  18.198   9.160  12.896
19321W        W91647  21.607  37.555   4.338
19322W        W91648  32.613  40.421  10.024
19323W        W91649   1.317  27.048   2.897
19324W        W91650   6.284  42.008   1.285
19325W        W91651  13.797   0.778  13.375
19326W        W91652   8.223   8.836   2.799
19327W        W91653   2.875  12.711   1.334
19328W        W91654  32.464  32.427   3.655
19329W        W91655   7.235   5.698   0.930
19330W        W91656  32.501   9.195   0.833
19331W        W91657   6.832  30.130   1.904
19332W        W91658   1.751  17.229  12.550
19333W        W91659   0.793   1.263  13.793
19334W        W91660  16.255  14.126  13.050
19335W        W91661  31.133  38.962  12.393
19336W        W91662  26.696  22.527   2.705
19337W        W91663  30.024  12.216   3.847
19338W        W91664  26.609  21.721  12.934
19339W        W91665  12.825  21.700   3.173
19340W        W91666  30.943  14.104   5.243
19341W        W91667  29.491  11.655   1.294
19342W        W91668  36.572  35.484  10.161
19343W        W91669   9.710  20.062  14.032
19344W        W91670  14.723  21.219  14.817
19345W        W91671  38.071  39.935   0.739
19346W        W91672  34.374  38.345   1.784
19347W        W91673  36.520   5.199   1.774
19348W        W91674  14.709  16.781   2.754
19349W        W91675  24.042  14.254  14.354
19350W        W91676   9.327  34.118   4.624
19351W        W91677  36.357   6.316   4.260
19352W        W91678   9.226  20.085  12.548
19353W        W91679  41.866  38.379   1.741
19354W        W91680  26.202  42.287  12.833
19355W        W91681  12.233  24.141   1.755
19356W        W91682   2.896  35.439   1.759
19357W        W91683   2.945  30.150  12.842
19358W        W91684  22.537  42.459  12.415
19359W        W91685  33.919  15.167   3.306
19360W        W91686  30.150  38.929   0.818
19361W        W91687  24.512  28.934  10.544
19362W        W91688  34.524  21.712   3.230
19363W        W91689  16.181  26.175   1.758
19364W        W91690  25.061  24.057   4.818
19365W        W91691   3.779  29.637  14.473
19366W        W91692  22.611  13.276  11.980
19367W        W91693  23.183  43.310   3.376
19368W        W91694  33.928  19.147   4.221
19369W        W91695  12.203  15.630  13.421
19370W        W91696   8.775  18.120   0.787
19371W        W91697  44.925  39.462  10.504
19372W        W91698  40.349  44.420   4.781
19373W        W91699   4.747   8.397   4.317
19374W        W91700  31.001   7.407   1.694
19375W        W91701  24.995   7.181  12.362
19376W        W91702   7.854  37.967   1.887
19377W        W91703  30.000  33.512  11.927
19378W        W91704  15.789  12.310  12.450
19379W        W91705  44.948  11.233   3.201
19380W        W91706  17.303  34.472  13.447
19381W        W91707  22.041  29.052  11.477
19382W        W91708   3.773  40.486  13.912
19383W        W91709  21.605  39.341  13.813
19384W        W91710  18.068  22.689  12.034
19385W        W91711  17.607  39.353   3.147
19386W        W91712  20.619   7.669  11.515
19387W        W91713  42.469  10.696   4.186
19388W        W91714  37.966  34.105  12.067
19389W        W91715  24.035  28.466  13.433
19390W        W91716  44.266  25.170   4.164
19391W        W91717  13.225   3.332  11.963
19392W        W91718  17.287  41.304   4.785
19393W        W91719   4.446  21.652   1.704
19394W        W91720   8.857  41.017  12.919
19395W        W91721  20.627  11.171   2.862
19396W        W91722  38.553   6.282  12.857
19397W        W91723  38.982  26.146   4.208
19398W        W91724  24.705  25.675   4.601
19399W        W91725  14.764  13.246  14.351
19400W        W91726   4.846   0.846   4.306
19401W        W91727  36.066   1.238  14.492
19402W        W91728  44.863  19.697   0.934
19403W        W91729  27.075   4.308   1.432
19404W        W91730  41.871  35.091   1.884
19405W        W91731  32.414  18.623  13.455
19406W        W91732   2.952  19.071  12.044
19407W        W91733  42.301  29.134  10.459
19408W        W91734  31.616  43.443  12.485
19409W        W91735  30.513  11.662  14.352
19410W        W91736  15.304  16.134   3.163
19411W        W91737   4.314  17.203  14.932
19412W        W91738  27.079  43.829   4.791
19413W        W91739  35.108  24.085   0.882
19414W        W91740  30.532  43.941   3.802
19415W        W91741  31.957   0.417   4.296
19416W        W91742   1.891  31.043   4.250
19417W        W91743  12.173  12.730  12.088
19418W        W91744  14.118  40.396   1.908
19419W        W91745  26.692  15.139  14.011
19420W        W91746   1.847  32.510   4.727
19421W        W91747  30.621  30.072   2.192
19422W        W91748  23.123  42.005  10.412
19423W        W91749  39.331  32.973   3.152
19424W        W91750  40.898  23.011   0.409
19425W        W91751   4.786   5.882  14.412
19426W        W91752  38.524  23.240  13.952
19427W        W91753  37.396  38.981   4.677
19428W        W91754  28.014  29.012  14.414
19429W        W91755  36.944   3.434  14.460
19430W        W91756  19.555   3.376   4.693
19431W        W91757  34.881  42.002  11.601
19432W        W91758  36.468  30.582   3.801
19433W        W91759  27.998  34.033   2.769
19434W        W91760  38.993  19.747   4.773
19435W        W91761  14.804  33.475  12.490
19436W        W91762   2.858   0.788   2.667
19437W        W91763  33.993  28.528  10.606
19438W        W91764   5.307  13.701  11.505
19439W        W91765  28.952  41.810  12.580
19440W        W91766   8.304  38.461   0.381
19441W        W91767  35.100  31.593   2.854
19442W        W91768   3.846  41.014  10.921
19443W        W91769  33.068  39.857   2.695
19444W        W91770  13.714   7.783  11.531
19445W        W91771  24.642  14.237   0.852
19446W        W91772  38.032  25.200  14.787
19447W        W91773  36.987   4.384   1.780
19448W        W91774  33.417  12.709   2.721
19449W        W91775  23.216  37.892   0.446
19450W        W91776   9.241  25.538  14.480
19451W        W91777  35.988  36.450   0.340
19452W        W91778  39.817  26.490  10.937
19453W        W91779  23.544  30.437   2.762
19454W        W91780   0.815  28.657  11.940
19455W        W91781  22.523  38.872  14.428
19456W        W91782  37.011   2.462   1.276
19457W        W91783  33.962  12.703  10.957
19458W        W91784   7.684  11.204   0.904
19459W        W91785  31.524  22.127  12.541
19460W        W91786  19.647  34.077  11.520
19461W        W91787  18.238   1.292   0.332
19462W        W91788  13.309  37.859  11.930
19463W        W91789   2.924  37.938  13.348
19464W        W91790  34.510  36.465  12.896
19465W        W91791  23.033   5.279  12.920
19466W        W91792   0.398   6.189  14.956
19467W        W91793  43.842  40.305   3.321
19468W        W91794  25.673  40.827   1.284
19469W        W91795  23.693   8.779   5.238
19470W        W91796   1.403   9.660  10.535
19471W        W91797  21.103  16.614   4.826
19472W        W91798  37.053  16.776   4.708
19473W        W91799  43.994  33.494   0.890
19474W        W91800  31.991  42.022  11.081
19475W        W91801  38.050   3.725   1.247
19476W        W91802  34.546  32.916  13.901
19477W        W91803  34.476   7.270  14.423
19478W        W91804  27.644  28.989   2.686
19479W        W91805  32.088   9.798   2.312
19480W        W91806  23.036  17.079   3.638
19481W        W91807  29.987  23.238   3.168
19482W        W91808  22.693  13.156  11.090
19483W        W91809   9.237  24.688  13.807
19484W        W91810  21.560   6.812   3.640
19485W        W91811  37.516  24.580  14.028
19486W        W91812  38.041  23.986  12.849
19487W        W91813  27.001  42.484  13.863
19488W        W91814  24.637   0.879   4.645
19489W        W91815  36.551   3.457   4.226
19490W        W91816  22.115  30.600   2.398
19491W        W91817   7.290  20.138  12.076
19492W        W91818  31.515  42.822  10.531
19493W        W91819  26.657  22.669  14.917
19494W        W91820   4.388  43.393   2.232
19495W        W91821  20.107  21.653   4.752
19496W        W91822  34.048  31.082   4.765
19497W        W91823  40.855  15.168  12.928
19498W        W91824  12.678  18.262   3.845
19499W        W91825   3.359  18.678  12.946
19500W        W91826   9.682  43.788   0.290
19501W        W91827  24.666  26.523  13.016
19502W        W91828  16.212  15.160  11.910
19503W        W91829  11.714  44.766   1.750
19504W        W91830   0.860   1.288  14.817
19505W        W91831  39.337  12.272  11.593
19506W        W91832  28.549  40.396  14.498
19507W        W91833  29.036  13.622  13.809
19508W        W91834  20.039   9.340  14.853
19509W        W91835   7.882  20.222   1.801
19510W        W91836  17.641  29.545   1.355
19511W        W91837  39.538  32.896   1.341
19512W        W91838  14.775  44.396  11.966
19513W        W91839  40.888  24.991   3.232
19514W        W91840  11.628  15.599  13.881
19515W        W91841   2.764  33.068   3.810
19516W        W91842  26.038  20.136  11.118
19517W        W91843  38.898   3.712   3.795
19518W        W91844  44.264   3.451   0.396
19519W        W91845  41.903  36.489  13.452
19520W        W91846  40.449  15.674   0.253
19521W        W91847   4.309   7.857  14.852
19522W        W91848   1.364  40.426   0.910
19523W        W91849  23.604  31.466   2.754
19524W        W91850  18.058  11.705   2.897
19525W        W91851  39.401   3.449  13.462
19526W        W91852  24.678  26.628   1.395
19527W        W91853  38.402   8.241  11.929
19528W        W91854  40.834  41.921   3.200
19529W        W91855  17.154  14.161  13.000
19530W        W91856  29.936   3.442   1.718
19531W        W91857   2.833  34.001   1.353
19532W        W91858  17.067  10.868  11.919
19533W        W91859   8.326  41.840  12.437
19534W        W91860  37.921  31.549  14.790
19535W        W91861   1.878  40.408  12.883
19536W        W91862   8.324  16.185   3.709
19537W        W91863   0.899  25.489   0.906
19538W        W91864  10.782   0.946   3.831
19539W        W91865  22.229  37.466   3.337
19540W        W91866  27.182  30.914  13.841
19541W        W91867  41.475  12.794   0.276
19542W        W91868  43.440  34.569   1.847
19543W        W91869   1.928  14.738   4.698
19544W        W91870   6.805  18.733  11.413
19545W        W91871  11.254  18.693  13.403
19546W        W91872  25.583   1.872   2.834
19547W        W91873  23.673   9.835  12.905
19548W        W91874   0.752  22.733   9.937
19549W        W91875  31.026  29.975  13.922
19550W        W91876  39.381  18.566  13.485
19551W        W91877  35.528  10.874   4.636
19552W        W91878  20.768  36.521   2.191
19553W        W91879  22.533  41.411   1.724
19554W        W91880   8.283  13.110   3.194
19555W        W91881  27.072  43.954  13.967
19556W        W91882   2.395  15.185  12.072
19557W        W91883  44.892  38.367  12.456
19558W        W91884  28.651  43.458  10.443
19559W        W91885  29.524  18.575   1.362
19560W        W91886  37.883  42.319  12.432
19561W        W91887   8.874  39.393  11.074
19562W        W91888  37.488  35.370  10.967
19563W        W91889   0.259  24.121   3.746
19564W        W91890  43.349  18.559   3.816
19565W        W91891  37.953   5.429   1.373
19566W        W91892  21.512   9.832   0.757
19567W        W91893  39.006  37.075  11.562
19568W        W91894   2.815  28.151   0.900
19569W        W91895  40.879  20.693  11.466
19570W        W91896  29.071  44.401  10.538
19571W        W91897  26.011  20.111   1.921
19572W        W91898  32.429   1.781  11.939
19573W        W91899  39.981  11.361  14.781
19574W        W91900   0.867  36.886  14.842
19575W        W91901  15.707   5.695   3.768
19576W        W91902  38.555  32.030  10.890
19577W        W91903  43.391   9.276  12.907
19578W        W91904  16.168  26.956  14.446
19579W        W91905   8.834  20.150   3.678
19580W        W91906  28.186  22.590  12.959
19581W        W91907  27.682  42.010   1.737
19582W        W91908  28.975   5.207  11.506
19583W        W91909   2.437   6.264   4.128
19584W        W91910  43.015  33.037   4.663
19585W        W91911   6.843  12.682  14.003
19586W        W91912  17.246  31.422  13.008
19587W        W91913  43.508   1.252  10.643
19588W        W91914  25.200   8.848  13.793
19589W        W91915  39.048  42.382  12.385
19590W        W91916  24.185  18.080  14.505
19591W        W91917  42.347  16.229   1.251
19592W        W91918  12.618  28.186   3.849
19593W        W91919   7.233   8.661   2.733
19594W        W91920  17.116  18.675   2.272
19595W        W91921  42.787   0.322   0.949
19596W        W91922  28.043  25.092   4.219
19597W        W91923   9.849  20.688  13.060
19598W        W91924  11.174  33.593  11.929
19599W        W91925   1.276  20.716  14.764
19600W        W91926  18.113   9.289  10.954
19601W        W91927  37.915  25.641  10.536
19602W        W91928  29.151   0.853  10.935
19603W        W91929   7.403   2.247  12.043
19604W        W91930  34.095  10.258  13.899
19605W        W91931  42.329   8.182  10.463
19606W        W91932  22.999  34.615  14.850
19607W        W91933  27.005  16.200  11.439
19608W        W91934   5.407   1.348   2.886
19609W        W91935   8.837  38.924   2.784
19610W        W91936  15.777  19.585   4.785
19611W        W91937  36.346  26.057  14.003
19612W        W91938  30.971   1.378   4.256
19613W        W91939   8.875  35.087  12.376
19614W        W91940  21.068   1.961  13.977
19615W        W91941  16.779  44.967  14.017
19616W        W91942  40.988  31.048   3.290
19617W        W91943  41.333  13.145  12.044
19618W        W91944   3.347  25.610   1.293
19619W        W91945  26.464  10.201   1.374
19620W        W91946   7.700   3.255  13.513
19621W        W91947  14.809   2.266   2.823
19622W        W91948  39.045  27.004  14.887
19623W        W91949  41.044  16.119   2.877
19624W        W91950  21.052  33.995  10.603
19625W        W91951   3.942  30.082   3.632
19626W        W91952  37.000  38.547   4.166
19627W        W91953   7.810   5.929   1.351
19628W        W91954  19.201  31.500   1.425
19629W        W91955  23.095  39.849  14.498
19630W        W91956  44.939  25.028  11.115
19631W        W91957  36.377  28.634  13.926
19632W        W91958   5.900   3.328  10.435
19633W        W91959  20.222   2.381  10.959
19634W        W91960  41.323  35.080  14.913
19635W        W91961  39.552  20.580   0.777
19636W        W91962  33.486   4.856   4.831
19637W        W91963   8.853  41.365   3.708
19638W        W91964  13.618  37.394   0.872
19639W        W91965  37.359  27.675   3.663
19640W        W91966  13.656   8.733   3.768
19641W        W91967  29.158   4.240   1.450
19642W        W91968  29.501   0.257  14.489
19643W        W91969  37.342  26.489  13.021
19644W        W91970   4.300  41.448  11.922
19645W        W91971  16.316   7.708   1.759
19646W        W91972  26.953  10.696   1.827
19647W        W91973  17.122  36.008   4.612
19648W        W91974  27.454  35.379  10.628
19649W        W91975   9.262  37.997   4.762
19650W        W91976  15.799   5.706  11.492
19651W        W91977  39.031  36.396   0.362
19652W        W91978  16.167  43.808   3.254
19653W        W91979   7.674  14.779   3.356
19654W        W91980  17.663   5.208  14.899
19655W        W91981  44.890  39.335   2.204
19656W        W91982  11.200  44.836   0.312
19657W        W91983   4.426   5.425   2.260
19658W        W91984   5.915  25.475  14.784
19659W        W91985   5.693   8.199  10.421
19660W        W91986  17.170  35.006   0.460
19661W        W91987  42.305  32.056   0.313
19662W        W91988  18.161  34.993  14.805
19663W        W91989   0.846   3.298  10.502
19664W        W91990  17.167  39.475   2.329
19665W        W91991  36.376  21.657  14.927
19666W        W91992  19.091  37.976  13.535
19667W        W91993  26.633  15.821   5.193
19668W        W91994   1.977  43.988  13.501
19669W        W91995  13.806  40.030  13.899
19670W        W91996  32.142  30.955   3.257
19671W        W91997  42.446   3.871   2.894
19672W        W91998  13.233  32.520   3.230
19673W        W91999  19.278  22.715   4.825
19674W        W92000  19.147  10.319  12.921
19675W        W92001  34.017  14.818   0.318
19676W        W92002  35.011  12.157   4.660
19677W        W92003  15.327  10.727   4.718
19678W        W92004   7.393  30.964   2.352
19679W        W92005  37.885  38.505   2.723
19680W        W92006  32.589  38.429   3.657
19681W        W92007  38.482  44.870   3.767
19682W        W92008  33.567  20.626   4.802
19683W        W92009  31.927  33.026  13.508
19684W        W92010   9.778  24.211  11.960
19685W        W92011  35.855  25.143  12.892
19686W        W92012  44.421   1.876   1.225
19687W        W92013   8.895  42.491  14.481
19688W        W92014  36.431  21.628   3.166
19689W        W92015  36.384   8.706   4.730
19690W        W92016   2.333  21.195  14.845
19691W        W92017  41.374   0.924  10.956
19692W        W92018  25.142  31.631   3.184
19693W        W92019   5.207  31.468   2.740
19694W        W92020  34.067  35.104  13.050
19695W        W92021  18.660  44.932  10.932
19696W        W92022  18.157  37.920   3.665
19697W        W92023  13.845  16.309  14.287
19698W        W92024  26.023  42.981  12.094
19699W        W92025   1.812   5.845   3.364
19700W        W92026   5.407  35.067   0.456
19701W        W92027   0.460  18.640  13.966
19702W        W92028  16.244   7.355  11.572
19703W        W92029   7.293  18.113   0.905
19704W        W92030  37.437   9.744  13.870
19705W        W92031  22.638  38.437   0.274
19706W        W92032   1.903  18.714  14.025
19707W        W92033  27.082  40.394  12.083
19708W        W92034  36.969  18.554  12.435
19709W        W92035  35.041   7.315  11.381
19710W        W92036   0.978  39.002  12.507
19711W        W92037  22.663  14.266   4.794
19712W        W92038  40.949  22.603   2.717
19713W        W92039  29.441  34.483  10.413
19714W        W92040  44.286   6.418  14.419
19715W        W92041  29.025  25.667   4.751
19716W        W92042  18.180  25.487  11.903
19717W        W92043  18.107   9.752  14.771
19718W        W92044  40.024  22.564  10.508
19719W        W92045  10.689  25.151   0.906
19720W        W92046  40.945  19.074  13.382
19721W        W92047  36.847  39.525  12.462
19722W        W92048  30.094  27.125  14.844
19723W        W92049  33.936   4.362   2.864
19724W        W92050  20.727  41.991   0.770
19725W        W92051   9.244   4.752   2.861
19726W        W92052  16.576  15.748   1.228
19727W        W92053  39.954   5.806  14.284
19728W        W92054  10.858   3.246   3.361
19729W        W92055  39.057  36.940  11.128
19730W        W92056  38.898  26.146  14.767
19731W        W92057  35.405  30.623   0.355
19732W        W92058  11.703  35.552  11.039
19733W        W92059  14.150  17.209   1.815
19734W        W92060  30.459   0.845   4.808
19735W        W92061   3.857  42.986  10.625
19736W        W92062  36.058  21.535  14.009
19737W        W92063  14.790  17.157   2.871
19738W        W92064  26.090  28.976   2.382
19739W        W92065  13.676  22.209  14.779
19740W        W92066  22.629  12.138   4.237
19741W        W92067   7.186   8.681  14.874
19742W        W92068  17.295  40.445  13.918
19743W        W92069  17.299  44.817   2.753
19744W        W92070   1.839  16.316   4.762
19745W        W92071  22.548   6.362  14.865
19746W        W92072  28.055  41.869   0.376
19747W        W92073  16.215  29.436   2.282
19748W        W92074  24.083  31.543   1.776
19749W        W92075  42.870  32.069   0.728
19750W        W92076  16.260  21.544  14.474
19751W        W92077  44.897  20.524  13.896
19752W        W92078  37.896   5.355   1.896
19753W        W92079  35.422  33.907  13.423
19754W        W92080  13.664  13.751  14.306
19755W        W92081  41.479  20.265   2.760
19756W        W92082  26.536  18.722   4.650
19757W        W92083  42.958  27.114   0.255
19758W        W92084   1.462  29.584  14.031
19759W        W92085   8.853  32.403  12.451
19760W        W92086  24.177  39.852  14.785
19761W        W92087   8.263  40.534   1.390
19762W        W92088   8.878  29.949  13.359
19763W        W92089   8.304   0.863  14.376
19764W        W92090   4.894  23.234   4.239
19765W        W92091  41.984  21.701  13.457
19766W        W92092   1.973  37.573  11.009
19767W        W92093  43.432   3.461  13.045
19768W        W92094  23.561   5.720   4.624
19769W        W92095  26.579  31.598  10.927
19770W        W92096  23.126  39.517   4.238
19771W        W92097  16.279  33.913  13.004
19772W        W92098  14.658  27.546  13.365
19773W        W92099   0.425  18.239   3.345
19774W        W92100  16.264  17.302  13.471
19775W        W92101  32.989  22.728   2.870
19776W        W92102   4.904  16.575   2.324
19777W        W92103  15.695  14.233   2.681
19778W        W92104  15.783   2.397  14.430
19779W        W92105  17.669  13.293   0.931
19780W        W92106  29.100   9.161   1.289
19781W        W92107  20.268  31.528  10.568
19782W        W92108  25.514  21.611   3.195
19783W        W92109  28.133  11.738  10.894
19784W        W92110  25.632   3.405   3.855
19785W        W92111  18.187  25.109  13.940
19786W        W92112  38.499   1.264   2.238
19787W        W92113  43.920  34.914   4.184
19788W        W92114   6.706  35.945   2.703
19789W        W92115   5.421   6.862  10.410
19790W        W92116  26.148   0.796  14.511
19791W        W92117  13.767  29.159  11.008
19792W        W92118  22.016  40.951  11.961
19793W        W92119   6.864  29.626   1.758
19794W        W92120  26.997  35.998   2.890
19795W        W92121  12.684  29.627   1.407
19796W        W92122  28.523  25.642  14.975
19797W        W92123   4.828   0.859  14.988
19798W        W92124  20.226   5.883   4.727
19799W        W92125  32.913   3.399   4.728
19800W        W92126   1.932  17.249   3.354
19801W        W92127  20.176   0.417  10.582
19802W        W92128  39.816  39.450   4.193
19803W        W92129  20.531  40.855  10.969
19804W        W92130  26.004  25.967   3.194
19805W        W92131   9.815   3.834  13.854
19806W        W92132   2.915   8.736   9.938
19807W        W92133  40.387  18.108   0.478
19808W        W92134  16.609  35.465  12.555
19809W        W92135  23.233  16.646  12.420
19810W        W92136  22.141  31.079   3.759
19811W        W92137  23.152  40.344  12.976
19812W        W92138  29.162  29.175  12.995
19813W        W92139  20.043  22.624  14.291
19814W        W92140  13.634  28.986   4.209
19815W        W92141  44.307   5.697   1.276
19816W        W92142  43.442  29.104   2.312
19817W        W92143   8.337  27.583  12.379
19818W        W92144  34.577  42.486   3.281
19819W        W92145  38.336   5.744  14.789
19820W        W92146   2.323  26.462   0.474
19821W        W92147  11.209  10.363   1.836
19822W        W92148  16.213  11.632   0.902
19823W        W92149  36.985  11.696  12.507
19824W        W92150  43.880  36.455  13.871
19825W        W92151  18.716  25.077  11.986
19826W        W92152  21.166   6.200  14.904
19827W        W92153  10.855  10.272   3.208
19828W        W92154   8.375  13.820   3.151
19829W        W92155  42.850  27.615  11.879
19830W        W92156   7.748  21.176   0.950
19831W        W92157  21.087   8.878  14.968
19832W        W92158  34.023  28.010   1.236
19833W        W92159  15.651  22.501  14.865
19834W        W92160  38.989  41.999   3.266
19835W        W92161  23.235  42.819   4.113
19836W        W92162  36.845  44.287   4.154
19837W        W92163  31.554   2.847  13.483
19838W        W92164  29.994  11.368  13.034
19839W        W92165  29.027  24.724   4.323
19840W        W92166  11.742  17.135  11.535
19841W        W92167  17.174  33.092  11.487
19842W        W92168  27.500  12.284   0.774
19843W        W92169  22.655  11.183  12.424
19844W        W92170  41.814  22.661  14.510
19845W        W92171  36.433  37.953   2.900
19846W        W92172   0.429  12.792   0.424
19847W        W92173  36.915  21.709   0.404
19848W        W92174  44.920  37.962   0.745
19849W        W92175  32.497  40.474   4.707
19850W        W92176  40.393  17.237  10.439
19851W        W92177  17.133  16.748  12.490
19852W        W92178  27.192  44.878  14.963
19853W        W92179  44.440   5.838  12.391
19854W        W92180   6.402  16.113   1.380
19855W        W92181  12.146  24.586   4.830
19856W        W92182   9.315   6.824   0.909
19857W        W92183  34.994  18.627   2.667
19858W        W92184   7.309  17.094  12.917
19859W        W92185   0.862  27.528   1.359
19860W        W92186  41.938  11.679  13.989
19861W        W92187  27.036   1.735  11.429
19862W        W92188  28.992  11.328  12.907
19863W        W92189  18.551  28.157   4.257
19864W        W92190  16.306  16.112  14.990
19865W        W92191  40.040  10.364   4.144
19866W        W92192  40.522  44.345   3.677
19867W        W92193   5.908   2.961   2.749
19868W        W92194  18.583  34.554   1.343
19869W        W92195  28.940  44.976   3.291
19870W        W92196  29.627  24.686   2.361
19871W        W92197   6.320  20.744  14.945
19872W        W92198  14.106  20.555  14.948
19873W        W92199  14.825  41.526   2.827
19874W        W92200  10.271  24.162   1.818
19875W        W92201  28.530  23.699  11.981
19876W        W92202   0.949  26.457  10.085
19877W        W92203  31.016   0.254   2.827
19878W        W92204  44.485  27.120  14.966
19879W        W92205  44.498  16.811  11.974
19880W        W92206  15.326  33.920  13.358
19881W        W92207  15.707  11.351  13.844
19882W        W92208  43.324  24.032  12.058
19883W        W92209  15.688   9.270   0.762
19884W        W92210  16.283   1.886   3.710
19885W        W92211  21.752   1.283  11.474
19886W        W92212  13.739  13.169   0.902
19887W        W92213  28.160  26.604   4.787
19888W        W92214   0.946  19.776   2.311
19889W        W92215  12.678  31.073   1.817
19890W        W92216  29.463  33.982  12.567
19891W        W92217   3.872   7.712   1.754
19892W        W92218  34.537  34.906  14.929
19893W        W92219  16.160  20.225   1.450
19894W        W92220  39.325  27.624  13.834
19895W        W92221  23.089  30.935  13.826
19896W        W92222  23.204   2.394   0.935
19897W        W92223  20.260  16.650  14.386
19898W        W92224  19.157  41.957   4.274
19899W        W92225  18.549  40.514  11.027
19900W        W92226  41.913  36.943  11.892
19901W        W92227  14.303  38.880   2.764
19902W        W92228  17.298   5.844   0.335
19903W        W92229  26.630  38.383  10.637
19904W        W92230  20.531  43.924  13.948
19905W        W92231   2.808  44.826  10.915
19906W        W92232  11.194  23.045   3.746
19907W        W92233  29.572  27.554   3.384
19908W        W92234  19.625  26.131   3.704
19909W        W92235  11.632  13.159  12.998
19910W        W92236  11.785  15.162   4.633
19911W        W92237  33.618  19.057  14.813
19912W        W92238  38.360   5.345   2.691
19913W        W92239  13.838   8.353  14.444
19914W        W92240   0.433  17.107   0.437
19915W        W92241  44.815  28.499   3.177
19916W        W92242  25.091  38.003  11.040
19917W        W92243  37.541  26.209  14.510
19918W        W92244  41.013  35.429  14.982
19919W        W92245  31.100   3.224  11.033
19920W        W92246   6.843  34.370  10.473
19921W        W92247  33.875  42.864   2.191
19922W        W92248   4.888  43.899  10.145
19923W        W92249   4.417   2.377  11.556
19924W        W92250  37.912   0.361  13.050
19925W        W92251  36.434   9.806   2.706
19926W        W92252  18.550   7.347  11.926
19927W        W92253  33.413  29.574   5.274
19928W        W92254  42.777   9.379   3.303
19929W        W92255   0.792  38.822   0.339
19930W        W92256  42.310  34.892   1.308
19931W        W92257  10.732   1.962  11.383
19932W        W92258  29.050  40.306  11.435
19933W        W92259  24.483  38.866  14.980
19934W        W92260   4.415  14.681   0.805
19935W        W92261  25.488  26.507   2.713
19936W        W92262  42.909  38.324   1.265
19937W        W92263  30.442  25.660   5.189
19938W        W92264  22.147  40.039  13.463
19939W        W92265  11.787  12.814  10.539
19940W        W92266   6.677   4.705  12.970
19941W        W92267  31.097   7.354  10.959
19942W        W92268  25.092   8.773   4.349
19943W        W92269  24.142   9.845  13.383
19944W        W92270  20.248  38.413  14.889
19945W        W92271   9.232  25.482  10.440
19946W        W92272   6.287  16.793  11.039
19947W        W92273  20.751  20.552  12.512
19948W        W92274  34.919  31.920  13.044
19949W        W92275   0.350  22.618  11.971
19950W        W92276  10.665  14.672   4.760
19951W        W92277  41.978   6.275  10.587
19952W        W92278  29.556  28.165  13.857
19953W        W92279  11.309   8.763  11.391
19954W        W92280  35.074  20.169  12.413
19955W        W92281  43.847  10.229   0.957
19956W        W92282   6.853  17.714   4.762
19957W        W92283  12.257  22.014  14.294
19958W        W92284  30.613   2.464   5.273
19959W        W92285  22.647  12.133   0.390
19960W        W92286   6.205  27.195   0.280
19961W        W92287  24.998  23.588   0.949
19962W        W92288  18.724  13.737  13.022
19963W        W92289  43.297  28.439  10.887
19964W        W92290  10.746   2.408   4.797
19965W        W92291  26.658  34.988   0.939
19966W        W92292   5.292  27.548  14.849
19967W        W92293  18.628  28.111  14.362
19968W        W92294  39.832  38.049  12.823
19969W        W92295  24.685   5.432  14.878
19970W        W92296  29.944   5.258  11.030
19971W        W92297   6.777   4.870   0.947
19972W        W92298  24.114  11.188   4.177
19973W        W92299  33.577   0.978  10.111
19974W        W92300   2.793   7.709   0.732
19975W        W92301   9.391  28.149   4.129
19976W        W92302  42.350  19.188  14.352
19977W        W92303  41.353  32.582   4.270
19978W        W92304  26.596  27.545  12.868
19979W        W92305  25.477  35.057  10.913
19980W        W92306  12.756   8.400   4.813
19981W        W92307  44.402  42.432   1.832
19982W        W92308  29.962   3.304  11.002
19983W        W92309  27.110  27.526   0.460
19984W        W92310  11.801  28.449   0.772
19985W        W92311  22.021  37.060  11.906
19986W        W92312   7.373  19.195   1.748
19987W        W92313  40.422  24.128   2.412
19988W        W92314  42.509   4.802   1.383
19989W        W92315  22.138  37.059   3.667
19990W        W92316   5.216  34.942   0.915
19991W        W92317  13.185  30.140   1.319
19992W        W92318  24.137  39.437  13.399
19993W        W92319  31.036   3.933   1.287
19994W        W92320  33.494   0.911  12.395
19995W        W92321  32.474   4.246  11.422
19996W        W92322  23.079  38.451  14.413
19997W        W92323  30.067   2.789   2.257
19998W        W92324   9.883  19.767  10.618
19999W        W92325  31.470   7.683   2.270
20000W        W92326  21.057  38.053  13.931
20001W        W92327  32.582  13.153  12.407
20002W        W92328  24.675   2.372   3.819
20003W        W92329   0.404   6.785   4.634
20004W        W92330  30.641  15.186  12.984
20005W        W92331  42.901  31.423   3.861
20006W        W92332  14.674   3.792  12.509
20007W        W92333  38.407  12.661   3.757
20008W        W92334  29.928  41.294  13.991
20009W        W92335  15.674   8.266   2.271
20010W        W92336  37.974  35.402  10.415
20011W        W92337  21.526   6.704   4.118
20012W        W92338  35.893  18.169   1.714
20013W        W92339  25.526   4.726  14.489
20014W        W92340  11.784  43.948   2.380
20015W        W92341  23.561  26.098  14.318
20016W        W92342  17.617  32.635  14.924
20017W        W92343   2.913  12.257   9.541
20018W        W92344  41.847  28.531  10.404
20019W        W92345   5.767  36.860  11.566
20020W        W92346  20.269  14.821   1.771
20021W        W92347  32.936  29.591  11.378
20022W        W92348   9.215  24.059  14.936
20023W        W92349  25.551  16.640   4.174
20024W        W92350  19.125  14.299  14.332
20025W        W92351  36.585   7.407   0.280
20026W        W92352  29.176  12.746   3.295
20027W        W92353   0.489   5.271   0.819
20028W        W92354  22.033  27.161   3.266
20029W        W92355   0.352   3.379  12.504
20030W        W92356  13.804  15.583  14.771
20031W        W92357  20.188  14.168   2.720
20032W        W92358  15.188  22.198  13.904
20033W        W92359   7.360  20.136   0.777
20034W        W92360   7.668   9.774   4.793
20035W        W92361   1.320  14.127  13.348
20036W        W92362   3.373  26.149  13.540
20037W        W92363  17.081  31.898   0.948
20038W        W92364  23.985   5.392   4.339
20039W        W92365  11.367  32.068  11.061
20040W        W92366  25.217   3.794   1.256
20041W        W92367  15.271  24.091   3.227
20042W        W92368  37.575  23.655  14.890
20043W        W92369  44.834   6.796   3.640
20044W        W92370  39.823  31.421  12.902
20045W        W92371  26.500  36.546   1.294
20046W        W92372  30.480  38.003  10.897
20047W        W92373  29.532  14.334   5.299
20048W        W92374   4.226  31.908  11.952
20049W        W92375  36.369  18.136   2.785
20050W        W92376  24.013   5.870  10.093
20051W        W92377  25.019  37.454   2.350
20052W        W92378  38.983  38.074  11.599
20053W        W92379   5.246   7.886   4.652
20054W        W92380  42.790  20.063  10.426
20055W        W92381  12.799  34.536   0.297
20056W        W92382  34.928  41.516   3.318
20057W        W92383  41.449  44.295   3.366
20058W        W92384  39.374   0.453   4.150
20059W        W92385  19.206  17.286  12.428
20060W        W92386   1.951   5.708   3.659
20061W        W92387  19.568  42.936  13.047
20062W        W92388   1.473   8.728  12.568
20063W        W92389   7.295  24.071   1.217
20064W        W92390   4.828  16.097  14.434
20065W        W92391   9.243  44.459  10.123
20066W        W92392  20.598  41.982   4.749
20067W        W92393   7.175  20.226  10.944
20068W        W92394  20.696  30.601   2.334
20069W        W92395  42.327  12.270  12.014
20070W        W92396  29.624  44.302  10.576
20071W        W92397  21.097  13.328  10.969
20072W        W92398  31.456  22.018  14.510
20073W        W92399  26.643  43.968   0.312
20074W        W92400  43.401  13.762   4.803
20075W        W92401   1.847  29.597  14.433
20076W        W92402  41.441   1.436   2.344
20077W        W92403  30.457  43.373   0.893
20078W        W92404  21.158  19.677   1.437
20079W        W92405  14.622   4.739   3.296
20080W        W92406  20.107  33.568  11.580
20081W        W92407   3.381   7.355  10.635
20082W        W92408  35.968  26.612   3.755
20083W        W92409  27.119   6.227  14.419
20084W        W92410  11.791   2.319  10.627
20085W        W92411  22.087  28.973   2.407
20086W        W92412  35.444  11.680  11.933
20087W        W92413   7.868  28.614  11.604
20088W        W92414  20.208  34.872  13.942
20089W        W92415  22.508  23.697  13.049
20090W        W92416   1.426  35.033   4.828
20091W        W92417  26.975  43.994  10.563
20092W        W92418  18.658  35.975  10.610
20093W        W92419   2.839  33.461  12.427
20094W        W92420  16.788  30.460  14.456
20095W        W92421  27.130  11.256  13.832
20096W        W92422  31.916  18.065  11.986
20097W        W92423  19.257  15.251  13.055
20098W        W92424  43.848  19.164   2.340
20099W        W92425  44.411  44.383  14.769
20100W        W92426  34.511   0.928  14.893
20101W        W92427  30.008  34.942  13.456
20102W        W92428   8.811   1.753   2.713
20103W        W92429   4.815  30.158   0.731
20104W        W92430  12.280  21.663   0.834
20105W        W92431   3.295  34.985  14.832
20106W        W92432  31.152  42.014   4.676
20107W        W92433  41.476  29.634  13.328
20108W        W92434  19.730   2.935  12.403
20109W        W92435  33.051  14.778   2.899
20110W        W92436   6.757  35.065   4.248
20111W        W92437   5.331  36.878   1.930
20112W        W92438  27.096  39.373   4.797
20113W        W92439  43.840  42.803  12.433
20114W        W92440  31.527  44.804   2.858
20115W        W92441  27.005   7.672   4.165
20116W        W92442  17.680  38.414  11.512
20117W        W92443  40.372   3.292   9.983
20118W        W92444   1.320   6.425   4.251
20119W        W92445  36.539  31.012  12.963
20120W        W92446   9.866  22.697  10.945
20121W        W92447  14.707  11.843   2.319
20122W        W92448  11.232  15.625   3.846
20123W        W92449  44.329  32.460  11.530
20124W        W92450  38.862  27.978   2.249
20125W        W92451   5.876  14.191  12.843
20126W        W92452   1.317   3.266   1.264
20127W        W92453  13.673  13.305  11.030
20128W        W92454  27.642  27.612   0.426
20129W        W92455  29.474  16.719   4.814
20130W        W92456  11.694  32.082   0.336
20131W        W92457  40.052  27.106   2.833
20132W        W92458   7.304  28.613  14.999
20133W        W92459  16.200   4.206   0.760
20134W        W92460  44.913  20.089   4.211
20135W        W92461   7.248  15.267  14.835
20136W        W92462  28.604  16.206  10.587
20137W        W92463   5.350   0.308  13.052
20138W        W92464  38.571  19.600  11.899
20139W        W92465  19.214  42.799   0.852
20140W        W92466   8.288  12.820  14.370
20141W        W92467  20.616  13.778  13.359
20142W        W92468   9.318  32.925  13.836
20143W        W92469  35.952   3.868  12.832
20144W        W92470  21.554   8.235  13.458
20145W        W92471  20.082   4.336  13.019
20146W        W92472  35.588  33.039  12.551
20147W        W92473   6.367  40.367  12.497
20148W        W92474  44.440  44.501   4.600
20149W        W92475   1.306   4.761   3.167
20150W        W92476  16.807  27.497  11.383
20151W        W92477   8.257  16.267   4.651
20152W        W92478  14.103  35.092   0.797
20153W        W92479  33.109  11.164  13.834
20154W        W92480  18.642  18.663   5.136
20155W        W92481  42.886  17.170  10.532
20156W        W92482  39.943  30.984   2.791
20157W        W92483  35.009  40.039  14.894
20158W        W92484  23.584  17.664   5.796
20159W        W92485  24.129  22.060  14.386
20160W        W92486  14.800  24.628   4.767
20161W        W92487  28.670   0.321  10.504
20162W        W92488  14.186  15.182   3.809
20163W        W92489  33.058  25.552  13.814
20164W        W92490  21.090   3.344   0.934
20165W        W92491   5.244  23.120   4.331
20166W        W92492   7.234  25.646   3.681
20167W        W92493  23.575  19.182   0.921
20168W        W92494  19.222  42.871   2.816
20169W        W92495   4.837  13.338   4.343
20170W        W92496   6.711  38.496   2.807
20171W        W92497  42.793  40.471  10.888
20172W        W92498  16.648  12.157  12.957
20173W        W92499  33.402   4.423   3.249
20174W        W92500   8.374  28.988   1.716
20175W        W92501  44.848   6.294   1.273
20176W        W92502  26.683  13.745   1.448
20177W        W92503  29.479  34.868  11.960
20178W        W92504   5.358   4.870   1.354
20179W        W92505  40.336  16.100   2.798
20180W        W92506   2.229   1.386  11.602
20181W        W92507   3.424  42.803  14.837
20182W        W92508  15.641  11.174   3.757
20183W        W92509  36.997  17.587  11.378
20184W        W92510   8.685  12.799  12.370
20185W        W92511   5.430  33.485  13.987
20186W        W92512  27.598  10.801   4.351
20187W        W92513  39.977  24.539   4.649
20188W        W92514  19.569  19.646   1.375
20189W        W92515  21.623   2.354  11.021
20190W        W92516  24.724  12.316  14.007
20191W        W92517  16.805  21.643   2.758
20192W        W92518  19.113   6.821   4.823
20193W        W92519  24.109  29.067   2.870
20194W        W92520  25.532   7.363  14.289
20195W        W92521  11.133   4.408  14.938
20196W        W92522  21.107  11.292   0.377
20197W        W92523  14.111  34.496  11.878
20198W        W92524  35.567   7.782  12.368
20199W        W92525  16.736   3.428  10.436
20200W        W92526  20.215  16.706  10.521
20201W        W92527  25.484  27.975  11.967
20202W        W92528  38.904   0.954   2.870
20203W        W92529  12.746  24.121  10.108
20204W        W92530  38.867  42.991  14.885
20205W        W92531  36.432  43.304   0.857
20206W        W92532   6.259  35.014  11.434
20207W        W92533  33.581  34.397   4.736
20208W        W92534  22.051   6.403   3.641
20209W        W92535  24.167   1.955   9.945
20210W        W92536   3.401  24.110   2.821
20211W        W92537  34.911  34.554  11.076
20212W        W92538  25.527   0.921  12.836
20213W        W92539  13.184  44.915   1.403
20214W        W92540   1.319  22.707  11.950
20215W        W92541  40.444   6.408  13.316
20216W        W92542  21.041  20.166  12.499
20217W        W92543   3.820   7.297  10.474
20218W        W92544   1.267  41.366  11.123
20219W        W92545   1.310  18.682  10.450
20220W        W92546  38.958  14.679   4.611
20221W        W92547  38.837   8.738  10.922
20222W        W92548  31.001   7.183  13.869
20223W        W92549   3.351   8.884  10.115
20224W        W92550   8.840   1.425  14.374
20225W        W92551   2.446  18.712  13.352
20226W        W92552  13.159  17.685   2.855
20227W        W92553  38.906  13.250  14.769
20228W        W92554  44.761  35.384  12.444
20229W        W92555  39.463  44.830  14.472
20230W        W92556  32.134  11.731  10.512
20231W        W92557  25.491  27.644   3.828
20232W        W92558  26.983  12.770   0.396
20233W        W92559  32.462  16.701  11.428
20234W        W92560  32.125  33.602   1.907
20235W        W92561  40.021  30.947  10.895
20236W        W92562  37.558  26.631   4.291
20237W        W92563  40.535   1.873   2.673
20238W        W92564  36.510  34.086  11.561
20239W        W92565  13.769   5.816   2.262
20240W        W92566  39.931  34.601  12.881
20241W        W92567   4.891  10.147   3.195
20242W        W92568  36.892  44.410  14.810
20243W        W92569  10.703  41.900  12.343
20244W        W92570  32.930  27.147   4.691
20245W        W92571  17.110  14.174   2.304
20246W        W92572  44.292  44.803   3.745
20247W        W92573  30.429  16.095  13.443
20248W        W92574   6.291  23.544  11.909
20249W        W92575   0.453  32.932   4.132
20250W        W92576  29.034  17.235  12.872
20251W        W92577   2.722  34.096  10.472
20252W        W92578  18.272   3.301  10.511
20253W        W92579  10.821  16.149   4.310
20254W        W92580   8.662   2.925   2.829
20255W        W92581  13.237  26.669   1.364
20256W        W92582  10.161  33.394  11.606
20257W        W92583  31.969  43.273  12.483
20258W        W92584  39.050  37.055   4.131
20259W        W92585  36.517  30.555  12.038
20260W        W92586  17.070  20.115  13.875
20261W        W92587   9.710  16.645  10.473
20262W        W92588  18.284  27.942  11.394
20263W        W92589  44.874  37.009   1.850
20264W        W92590  42.357  21.729  12.462
20265W        W92591  44.869  19.643   2.864
20266W        W92592  30.979   5.744  14.344
20267W        W92593  17.140  33.949  12.543
20268W        W92594  30.475  33.436   2.246
20269W        W92595  43.919  34.434  11.955
20270W        W92596  17.187   3.897   4.258
20271W        W92597  22.233  17.787  12.438
20272W        W92598   6.239  23.503   3.714
20273W        W92599  29.007  19.747   0.416
20274W        W92600   6.824  36.413  11.950
20275W        W92601  35.444  33.469   0.311
20276W        W92602  35.507  43.315  12.408
20277W        W92603   6.355  24.072  12.422
20278W        W92604  34.083  20.208  12.028
20279W        W92605  38.009  17.619  11.012
20280W        W92606  40.346  19.750  10.981
20281W        W92607  37.484  40.044  11.967
20282W        W92608  31.557   5.407   1.864
20283W        W92609  33.965  39.009  12.538
20284W        W92610  23.098   4.346  10.996
20285W        W92611  28.138  27.495  13.030
20286W        W92612   2.332   9.227  10.922
20287W        W92613  18.697  22.228  11.376
20288W        W92614  13.299  19.235   3.362
20289W        W92615  26.977  30.976   3.186
20290W        W92616  39.409   8.278   3.376
20291W        W92617   0.961  27.945   3.333
20292W        W92618   8.788  17.285   5.209
20293W        W92619  17.649   9.255   4.605
20294W        W92620  14.798  17.665   2.685
20295W        W92621  23.107  18.608   3.771
20296W        W92622  28.013  19.670  14.383
20297W        W92623  14.275  38.863  12.877
20298W        W92624  20.144  29.046  14.314
20299W        W92625  25.577  21.231   1.781
20300W        W92626   5.754  26.472   1.255
20301W        W92627   4.881  33.054  10.447
20302W        W92628  38.891  22.098   4.255
20303W        W92629  24.504  29.071   2.674
20304W        W92630  11.326  21.040  11.903
20305W        W92631  10.687   1.371  14.866
20306W        W92632   1.840  20.166  13.320
20307W        W92633   4.842  12.351  11.984
20308W        W92634  13.174  43.276  11.044
20309W        W92635  13.306  15.673  10.587
20310W        W92636  27.554  33.086  13.857
20311W        W92637   6.676  17.237  11.429
20312W        W92638  29.013  34.093  12.878
20313W        W92639  20.548  15.602   0.448
20314W        W92640  11.734   1.446  12.409
20315W        W92641   2.812   0.821   0.874
20316W        W92642  35.544  33.994   0.299
20317W        W92643  13.846  37.353   2.709
20318W        W92644  22.530   3.758  11.507
20319W        W92645  11.353  25.991  10.576
20320W        W92646  14.322  13.694  10.640
20321W        W92647  30.147   8.204  11.512
20322W        W92648  15.110  40.993   3.660
20323W        W92649  25.529  31.140   3.171
20324W        W92650   3.217   7.211  13.339
20325W        W92651  35.492   4.876   2.402
20326W        W92652  23.212   0.945  11.594
20327W        W92653  10.195  40.325   1.257
20328W        W92654  17.768  25.201   2.902
20329W        W92655   9.175  10.778   1.705
20330W        W92656  13.233  13.749   3.148
20331W        W92657  31.981   8.358   2.298
20332W        W92658  10.259  22.177  13.996
20333W        W92659  37.465   9.697  10.126
20334W        W92660   2.266  40.038  10.992
20335W        W92661  22.109   6.328  13.813
20336W        W92662   6.698  26.557  14.026
20337W        W92663  24.545  30.417  12.077
20338W        W92664   3.375  19.596   1.738
20339W        W92665  38.070  27.453  12.407
20340W        W92666  17.299  37.567   9.983
20341W        W92667  42.822   5.432   4.628
20342W        W92668  10.249  25.699  13.815
20343W        W92669  24.973  11.700   4.306
20344W        W92670  14.724  27.983  14.846
20345W        W92671   2.828  26.000  10.485
20346W        W92672  11.729   5.391   2.838
20347W        W92673  18.262  23.106   4.737
20348W        W92674  31.514   9.166   2.419
20349W        W92675  36.088   2.331   3.705
20350W        W92676  27.014  42.995   0.808
20351W        W92677  39.049  22.201  10.587
20352W        W92678   6.330   2.341  13.960
20353W        W92679  26.580  21.163   0.892
20354W        W92680   1.277  28.462   0.850
20355W        W92681  21.517  10.840  14.810
20356W        W92682  34.437  20.211  12.890
20357W        W92683   9.791  33.548   0.366
20358W        W92684   2.397  27.672  11.059
20359W        W92685  23.078   8.210  11.862
20360W        W92686  20.086  16.276   2.272
20361W        W92687  33.951  16.612   4.168
20362W        W92688  28.054   2.775   4.285
20363W        W92689  39.535  11.158   3.356
20364W        W92690  40.410  18.772  13.546
20365W        W92691  21.582  21.237   5.100
20366W        W92692  26.016  14.221  14.876
20367W        W92693   7.677  33.484   1.277
20368W        W92694   8.304   2.883  13.860
20369W        W92695  23.148  38.958  10.633
20370W        W92696  14.716   9.764   4.180
20371W        W92697  34.435   5.350   0.473
20372W        W92698  11.222  32.445   0.320
20373W        W92699   6.923  22.066   3.710
20374W        W92700  17.599  38.990   1.757
20375W        W92701  43.474  21.553  11.935
20376W        W92702  32.558   0.774  10.478
20377W        W92703   7.792  38.328   1.385
20378W        W92704  32.930   5.722  12.917
20379W        W92705   1.846  39.437   3.764
20380W        W92706  18.130  41.833   0.356
20381W        W92707  17.251   8.901  12.989
20382W        W92708  34.086  40.948   1.283
20383W        W92709  21.569  33.067   0.387
20384W        W92710   0.305   1.907   4.813
20385W        W92711  11.726  27.478  12.059
20386W        W92712  38.383  24.545   0.859
20387W        W92713  19.720  25.027   4.307
20388W        W92714  42.816  29.088   0.348
20389W        W92715  26.573   7.396  11.111
20390W        W92716  38.968   2.392   9.923
20391W        W92717  11.715  37.406   0.821
20392W        W92718  40.926  44.357  12.424
20393W        W92719  16.227  39.355  10.596
20394W        W92720  15.274  38.451   1.918
20395W        W92721  12.848  30.513   4.647
20396W        W92722   4.918  15.135  11.415
20397W        W92723  12.321   2.773  10.613
20398W        W92724   6.884  15.736  12.849
20399W        W92725  20.545  31.445  12.535
20400W        W92726  23.539  16.587   5.282
20401W        W92727   7.696   4.794  12.033
20402W        W92728  34.046  18.186  11.602
20403W        W92729  21.171   5.248   0.357
20404W        W92730  31.621  30.470   0.912
20405W        W92731   7.272  23.672  11.869
20406W        W92732  39.487   0.455  10.438
20407W        W92733  29.031  34.474  11.929
20408W        W92734  28.042   3.931  14.429
20409W        W92735  31.940  22.700   1.380
20410W        W92736   0.814  33.449  14.925
20411W        W92737  32.470  42.008   4.247
20412W        W92738  23.555   6.428   0.454
20413W        W92739  15.588   9.335   0.342
20414W        W92740  28.447  31.152  12.374
20415W        W92741  38.058   1.850   2.751
20416W        W92742  21.170  31.912  12.877
20417W        W92743  33.055   4.930  14.806
20418W        W92744   1.894  33.541   3.671
20419W        W92745  27.509   3.807  12.408
20420W        W92746  10.819  12.352  11.503
20421W        W92747  28.540  13.268  13.890
20422W        W92748  32.920  22.582  12.045
20423W        W92749  11.836  26.059  11.406
20424W        W92750   9.709  36.900  14.854
20425W        W92751  14.195  35.467  13.386
20426W        W92752  18.137   6.187  10.563
20427W        W92753  43.310  14.778  13.052
20428W        W92754  10.833  15.291   4.141
20429W        W92755  32.111  22.731   4.665
20430W        W92756  23.607  23.163   3.385
20431W        W92757  44.281  15.168   3.385
20432W        W92758  26.015  26.057   2.239
20433W        W92759  28.009   1.875  14.400
20434W        W92760  17.063  38.037   3.171
20435W        W92761  21.611  39.996   0.451
20436W        W92762  38.991  18.170   4.796
20437W        W92763   9.296  25.974   4.749
20438W        W92764  38.950   7.285  14.903
20439W        W92765   6.795   5.798  14.876
20440W        W92766   1.976  20.074   1.357
20441W        W92767  25.696  18.271  11.487
20442W        W92768  14.762  16.091  12.566
20443W        W92769   2.420   4.276  14.832
20444W        W92770   7.200  17.111  14.393
20445W        W92771   0.355  42.301  13.805
20446W        W92772  35.862  40.497   0.291
20447W        W92773  27.537  14.695   4.807
20448W        W92774  40.533  15.711  12.395
20449W        W92775  27.685  32.067  12.442
20450W        W92776  40.001  16.125  13.538
20451W        W92777  20.238  39.536  14.312
20452W        W92778  21.523  12.617   5.294
20453W        W92779  27.480   3.803   0.757
20454W        W92780  24.544   7.315   0.298
20455W        W92781  28.059  32.559  13.057
20456W        W92782  18.225   9.380  13.545
20457W        W92783  34.116  13.112   2.307
20458W        W92784  40.833   7.853  13.022
20459W        W92785  16.075  33.044  13.992
20460W        W92786  28.948   4.861  14.296
20461W        W92787  30.969  23.618   4.337
20462W        W92788  28.478  21.152  13.432
20463W        W92789   3.346  36.896   2.761
20464W        W92790  31.943  39.336   3.820
20465W        W92791  21.102  22.659   5.209
20466W        W92792  20.666  12.857   4.692
20467W        W92793  19.615  32.542   1.845
20468W        W92794   9.765   5.787   1.868
20469W        W92795  11.231  19.613   1.450
20470W        W92796  12.753  26.987   1.352
20471W        W92797  13.111  42.453  12.964
20472W        W92798  22.731  12.267  13.837
20473W        W92799  26.148  32.059  14.782
20474W        W92800  29.599  12.257  13.823
20475W        W92801  19.191  31.647  11.417
20476W        W92802  20.091  24.635  12.067
20477W        W92803   5.764   3.329  13.404
20478W        W92804  28.020  27.954   1.386
20479W        W92805   2.887  15.783  12.906
20480W        W92806   4.260  10.806   1.230
20481W        W92807  16.664   4.850   0.930
20482W        W92808  38.930   7.846   4.837
20483W        W92809  24.172  27.602   2.691
20484W        W92810  32.072   4.229  12.450
20485W        W92811  40.923  43.862   3.796
20486W        W92812  43.857  38.342  13.927
20487W        W92813  36.379  43.468   4.185
20488W        W92814   7.806  37.378   4.816
20489W        W92815  14.754  28.444  11.095
20490W        W92816  14.692   2.842   3.316
20491W        W92817   5.860  39.996   0.803
20492W        W92818   6.307  18.259  13.847
20493W        W92819  19.080   1.736  12.901
20494W        W92820  17.755  19.213   3.351
20495W        W92821  21.693  12.642   4.742
20496W        W92822  40.920  44.922   2.858
20497W        W92823  43.770  41.954  14.284
20498W        W92824  16.692  24.075  14.925
20499W        W92825  28.460  42.879   2.357
20500W        W92826  40.945  25.049   2.785
20501W        W92827  36.862  13.140  11.087
20502W        W92828  34.050  43.305   0.939
20503W        W92829  20.263   8.284  12.528
20504W        W92830  16.608   5.839   4.603
20505W        W92831  37.444  36.394  14.843
20506W        W92832  31.916  11.667   4.644
20507W        W92833  27.084  14.176  11.478
20508W        W92834  41.416   0.956   2.383
20509W        W92835  32.512   8.322  14.344
20510W        W92836  20.235  32.958   0.354
20511W        W92837   5.687   2.726  12.528
20512W        W92838  37.526   7.836   2.365
20513W        W92839  12.312  40.921  10.994
20514W        W92840  14.823  20.227  11.389
20515W        W92841  26.083  19.719   1.696
20516W        W92842  17.223  14.714  11.095
20517W        W92843  27.114   6.859  13.421
20518W        W92844  40.968   7.252  14.892
20519W        W92845  17.215  24.151   5.109
20520W        W92846  35.479  38.049   2.745
20521W        W92847  14.099  31.960  13.801
20522W        W92848  30.063  10.727  13.356
20523W        W92849  16.206  39.029   0.334
20524W        W92850  42.841  32.559   3.859
20525W        W92851  11.339  10.842  12.977
20526W        W92852  33.116  41.301   3.350
20527W        W92853   0.256  24.221  12.046
20528W        W92854  11.134   6.726  11.060
20529W        W92855  18.221   1.758  13.419
20530W        W92856  41.012  37.945  13.916
20531W        W92857  23.516  33.074  14.913
20532W        W92858   4.935   4.742   4.321
20533W        W92859  40.913  41.461   0.775
20534W        W92860   2.850  43.487  13.323
20535W        W92861  32.051   1.467   1.316
20536W        W92862  16.641   7.308  10.442
20537W        W92863  32.480  38.963  14.377
20538W        W92864  43.994  35.968   2.686
20539W        W92865  21.581  34.881  14.786
20540W        W92866  12.749  42.814  14.494
20541W        W92867  23.230   2.778   3.364
20542W        W92868  25.204  40.860   0.344
20543W        W92869  36.003  16.714  10.896
20544W        W92870  35.034  21.065  13.307
20545W        W92871   2.908  21.696   2.352
20546W        W92872  26.629   4.898   4.252
20547W        W92873  13.250   9.859   0.325
20548W        W92874  29.633  31.433  13.442
20549W        W92875  16.212  21.132   0.860
20550W        W92876   7.816   7.768   1.219
20551W        W92877  18.558  31.593  12.024
20552W        W92878   0.365  35.960   0.800
20553W        W92879   5.318   2.914   0.256
20554W        W92880  17.105  15.179  12.560
20555W        W92881  24.222  17.068   9.480
20556W        W92882  11.339  33.899  14.770
20557W        W92883   5.419  39.476   0.728
20558W        W92884  21.060   3.419   1.787
20559W        W92885  28.438   1.362  11.474
20560W        W92886  11.329  33.051   4.833
20561W        W92887  24.088   2.336   2.391
20562W        W92888   5.765  42.312  13.959
20563W        W92889  21.205  15.175   4.657
20564W        W92890  43.333  20.168  14.431
20565W        W92891  16.753  42.403   3.782
20566W        W92892  23.705  35.098  14.311
20567W        W92893  26.115  18.741   3.824
20568W        W92894  14.764   2.857   3.672
20569W        W92895   5.782  18.707   3.683
20570W        W92896  41.015  35.008  14.456
20571W        W92897   1.922  15.665   2.851
20572W        W92898  16.090   4.751  12.411
20573W        W92899  17.629  11.694  11.588
20574W        W92900   4.214  35.459  14.349
20575W        W92901   7.353  26.469  11.419
20576W        W92902  14.210   2.741  10.975
20577W        W92903  17.728  22.613  13.857
20578W        W92904   1.944  21.629   1.345
20579W        W92905  18.193  12.610  14.380
20580W        W92906  17.099  29.000  14.487
20581W        W92907   6.187   3.221  13.988
20582W        W92908  28.026  40.964  12.479
20583W        W92909  42.005  24.074   1.435
20584W        W92910  38.873  20.672  14.902
20585W        W92911  13.269  17.249  14.438
20586W        W92912  20.654  40.479  10.971
20587W        W92913   5.301  10.359  10.576
20588W        W92914  24.590  22.592  11.975
20589W        W92915   8.166  29.628  12.517
20590W        W92916  13.838   3.863   0.920
20591W        W92917  39.877  27.506  11.422
20592W        W92918  43.974  39.841  13.497
20593W        W92919   6.413  12.835   1.407
20594W        W92920   4.798  29.118   0.740
20595W        W92921  38.896  28.091  12.060
20596W        W92922  22.557  21.163   3.329
20597W        W92923  17.624   4.857   1.839
20598W        W92924   8.872   6.325  13.864
20599W        W92925  15.684   1.783   3.161
20600W        W92926  14.230  44.462   4.114
20601W        W92927  39.974  24.489  13.371
20602W        W92928   5.830   9.793  12.911
20603W        W92929  12.156  25.473   1.909
20604W        W92930   3.441   7.293  11.006
20605W        W92931   9.751  13.264  11.446
20606W        W92932  21.247  17.675   3.788
20607W        W92933   7.715  21.141   4.603
20608W        W92934  33.621   2.449  11.604
20609W        W92935  15.718   6.397   1.248
20610W        W92936  37.579  34.410  10.488
20611W        W92937  33.067  19.165   4.206
20612W        W92938  30.959  13.617   1.370
20613W        W92939   2.744  15.211   3.236
20614W        W92940   2.929   5.434   1.800
20615W        W92941   2.956  29.118  11.997
20616W        W92942  22.643  32.932  14.785
20617W        W92943  24.674  14.771   9.470
20618W        W92944  14.179   8.684   0.880
20619W        W92945   8.846  16.243  14.029
20620W        W92946  12.323  29.951   2.896
20621W        W92947  12.227   4.339   1.260
20622W        W92948   4.765  40.514   0.962
20623W        W92949  31.153  15.818  10.986
20624W        W92950  26.647  18.743   0.390
20625W        W92951  41.492  36.858  11.522
20626W        W92952   5.378  15.703  14.391
20627W        W92953   9.844  23.503  11.509
20628W        W92954  38.411  42.385  11.600
20629W        W92955   6.797  25.579  11.462
20630W        W92956   9.827  26.992   2.808
20631W        W92957  21.711  13.633   0.959
20632W        W92958   1.814   1.365  10.101
20633W        W92959  34.940  22.637  10.970
20634W        W92960   2.763  17.683  12.960
20635W        W92961  34.003  44.369   3.232
20636W        W92962   9.762   3.435  11.912
20637W        W92963  34.450  39.960  11.523
20638W        W92964  28.033  39.548  12.356
20639W        W92965  21.192  25.491   5.241
20640W        W92966  24.198  29.496   0.843
20641W        W92967  26.149  27.021   9.444
20642W        W92968  25.100  14.711   2.673
20643W        W92969  44.882  37.382  13.424
20644W        W92970  33.622  37.895   2.403
20645W        W92971   8.236  15.299   1.802
20646W        W92972  35.078  24.523  12.358
20647W        W92973  10.308  23.106  13.349
20648W        W92974  42.395   4.409   2.861
20649W        W92975  37.515  43.849   1.348
20650W        W92976   7.209  27.163   2.838
20651W        W92977  18.144  36.889   4.218
20652W        W92978  42.518  42.286  12.472
20653W        W92979  19.551   4.358  11.886
20654W        W92980  18.696  29.963   2.397
20655W        W92981   2.724   2.936   4.297
20656W        W92982   8.325  11.777   4.732
20657W        W92983   2.329  43.457  11.902
20658W        W92984  12.162  34.921  10.511
20659W        W92985  24.596  44.311  14.995
20660W        W92986   3.322  34.569  14.807
20661W        W92987  32.440  26.500  14.805
20662W        W92988  12.854   8.769  13.456
20663W        W92989  38.430  21.126   0.343
20664W        W92990   1.912  39.435  13.956
20665W        W92991  22.649  34.475   3.772
20666W        W92992  42.879  12.739   2.386
20667W        W92993  38.878  28.447  10.977
20668W        W92994  14.205  22.177  12.069
20669W        W92995  18.772   3.937  13.489
20670W        W92996  13.335  44.879   0.968
20671W        W92997  11.797  28.944   0.394
20672W        W92998  41.376  27.124   2.252
20673W        W92999  35.972   9.353  14.452
20674W        W93000  19.110   4.317  14.450
20675W        W93001   6.329  36.024  11.999
20676W        W93002  32.586  10.333  12.852
20677W        W93003  30.093   6.829   2.312
20678W        W93004  40.436   7.193   0.330
20679W        W93005  25.097  37.871   1.325
20680W        W93006  15.761  26.187   5.247
20681W        W93007  32.590  19.069   4.743
20682W        W93008  20.231   6.416  10.482
20683W        W93009  43.320  13.206   3.661
20684W        W93010  18.132  12.660   4.662
20685W        W93011  38.978   4.307  14.345
20686W        W93012  11.739  28.998   4.709
20687W        W93013  10.171  19.249  13.339
20688W        W93014   7.251  40.907  14.504
20689W        W93015   7.200   1.945   3.182
20690W        W93016  20.697  33.102   2.830
20691W        W93017  24.154  16.690  13.927
20692W        W93018  15.315  40.887   3.354
20693W        W93019  22.687  42.003  13.498
20694W        W93020  13.131   1.287   0.463
20695W        W93021  34.111  11.161   3.676
20696W        W93022   7.705  23.707   1.875
20697W        W93023   9.330  21.097  11.894
20698W        W93024  39.550  31.017   4.202
20699W        W93025  34.912  25.091  12.945
20700W        W93026  16.774  39.829  13.974
20701W        W93027  12.205  34.017   9.597
20702W        W93028   1.911  14.258  12.834
20703W        W93029   3.435  36.490  10.588
20704W        W93030   0.957  42.323   3.850
20705W        W93031  24.701   6.894   1.278
20706W        W93032  43.939  43.298   3.830
20707W        W93033  12.289  28.086   3.701
20708W        W93034  17.756  23.162  12.506
20709W        W93035  40.797  37.480   1.382
20710W        W93036   4.213  13.628  14.308
20711W        W93037  24.160  16.163   3.212
20712W        W93038  11.786  26.580   2.321
20713W        W93039  21.247  29.058   1.351
20714W        W93040   5.687  31.078  14.398
20715W        W93041  29.020  24.041  11.505
20716W        W93042  23.645  22.731   4.114
20717W        W93043  11.137  33.541   2.691
20718W        W93044  28.112  12.619   1.713
20719W        W93045  18.191  39.869   0.800
20720W        W93046  12.207  41.996  14.485
20721W        W93047   0.914  38.417  13.033
20722W        W93048   8.302  11.286  14.333
20723W        W93049  13.618   1.809  10.620
20724W        W93050   1.458  42.421   2.836
20725W        W93051  33.569  28.133   5.217
20726W        W93052  29.065  37.531   0.326
20727W        W93053  24.113  40.845  12.546
20728W        W93054  13.602  39.876   4.631
20729W        W93055  18.215  16.754  13.053
20730W        W93056  18.085  42.515   0.446
20731W        W93057  38.488  38.968   2.378
20732W        W93058   7.696   7.281  14.786
20733W        W93059   4.768  42.947  11.405
20734W        W93060  24.222  38.957   1.417
20735W        W93061  21.592   4.807   4.157
20736W        W93062   4.848  26.624  14.418
20737W        W93063  33.547  13.223   0.456
20738W        W93064  10.282  41.491   4.187
20739W        W93065   0.791  38.570   3.867
20740W        W93066  42.983  32.425  13.388
20741W        W93067  17.693  30.439  13.939
20742W        W93068  37.533  26.064   1.909
20743W        W93069   4.265  36.016  11.999
20744W        W93070  28.083  17.237  10.912
20745W        W93071   8.292  32.980  13.545
20746W        W93072  26.010  22.631   2.735
20747W        W93073  31.968  26.648  12.035
20748W        W93074  17.719  43.913  10.478
20749W        W93075  16.167   1.896  12.543
20750W        W93076  40.925  35.015   4.289
20751W        W93077  35.104  26.569   5.211
20752W        W93078  19.108  16.107   4.686
20753W        W93079   1.429  40.426  11.408
20754W        W93080  36.074   4.785   0.352
20755W        W93081   9.845  36.399  11.389
20756W        W93082  34.378  35.550  10.988
20757W        W93083  38.858  38.387  13.832
20758W        W93084  43.785   9.869  12.393
20759W        W93085   7.727  27.606  12.007
20760W        W93086  12.236  14.778   1.364
20761W        W93087   2.329   0.933   3.338
20762W        W93088  15.799  41.452  10.955
20763W        W93089  14.721  30.037  11.907
20764W        W93090  16.572  31.538   1.717
20765W        W93091  18.700  35.573  12.467
20766W        W93092  28.037  14.250  14.800
20767W        W93093  24.538   7.721   0.296
20768W        W93094  18.625  20.641  14.024
20769W        W93095   4.210   8.835   1.321
20770W        W93096  24.161  40.906   4.691
20771W        W93097  20.044  29.442  10.411
20772W        W93098  36.019  23.062   4.124
20773W        W93099  39.402  38.327  13.520
20774W        W93100  27.127   7.759  14.444
20775W        W93101  23.056  18.144   4.134
20776W        W93102  29.663  24.037   2.743
20777W        W93103  41.882  13.616   0.477
20778W        W93104  21.582   9.858  10.480
20779W        W93105  15.785  31.471   3.642
20780W        W93106  20.692   4.797   0.818
20781W        W93107   6.227  41.928  13.033
20782W        W93108  38.539  16.316   2.345
20783W        W93109  13.219  40.874  13.806
20784W        W93110   0.752  29.978  11.532
20785W        W93111  17.262  20.729   0.250
20786W        W93112   5.224  25.078  13.917
20787W        W93113  26.579  13.202  14.784
20788W        W93114  24.111  36.415  12.978
20789W        W93115  40.373   0.937  13.338
20790W        W93116  36.920  23.669   1.735
20791W        W93117   8.271  25.698  14.854
20792W        W93118  40.394  36.492  14.330
20793W        W93119  34.520   0.324  14.866
20794W        W93120   3.819   7.738   0.457
20795W        W93121   1.868  43.501  14.846
20796W        W93122  23.175   0.815   3.332
20797W        W93123  27.566   1.423   3.765
20798W        W93124   3.787  40.445  10.939
20799W        W93125  23.705  25.507  14.914
20800W        W93126   9.316  17.061   2.863
20801W        W93127  35.600  39.326   0.451
20802W        W93128  43.512  30.953   2.819
20803W        W93129  42.995  42.000   5.082
20804W        W93130  16.639  44.286   4.705
20805W        W93131   4.728  40.045  13.028
20806W        W93132  19.046  40.465  10.573
20807W        W93133  11.241   0.452  11.081
20808W        W93134  10.324   6.229   0.448
20809W        W93135  22.691  15.795  10.620
20810W        W93136  15.147  36.957   0.925
20811W        W93137  33.394  17.201   4.115
20812W        W93138   7.373   0.962   3.845
20813W        W93139  10.308  21.092   9.994
20814W        W93140  20.211  12.317   4.153
20815W        W93141  15.594  23.193   3.785
20816W        W93142  23.502  31.485  10.624
20817W        W93143   7.296   1.327   1.832
20818W        W93144  32.886  21.210  12.521
20819W        W93145  34.063  22.565  12.974
20820W        W93146  31.936  17.661   3.197
20821W        W93147  36.539  13.754   1.782
20822W        W93148  26.465  34.523  14.476
20823W        W93149  28.070  33.907   4.251
20824W        W93150   3.866  35.007   2.813
20825W        W93151  41.314   3.836  14.892
20826W        W93152   9.876  26.655  10.960
20827W        W93153  16.255   9.734   1.906
20828W        W93154  33.010  10.822   1.760
20829W        W93155  10.821   2.470  11.606
20830W        W93156  16.692   7.219   0.807
20831W        W93157   4.437   8.870  12.410
20832W        W93158  43.877  37.031  11.455
20833W        W93159  35.903  38.897   1.410
20834W        W93160  28.480  19.534  10.949
20835W        W93161  14.255  36.853  14.371
20836W        W93162  26.053  13.166  11.033
20837W        W93163  19.747  18.660   4.171
20838W        W93164  32.606  27.964   0.395
20839W        W93165  22.625   7.865  11.385
20840W        W93166  27.012  40.486  12.384
20841W        W93167  35.444  28.147  14.920
20842W        W93168  28.536  12.787   4.135
20843W        W93169  10.192  11.694   0.292
20844W        W93170   7.720   0.363  12.565
20845W        W93171   3.238   0.869   3.633
20846W        W93172  20.219  17.078  11.021
20847W        W93173   5.916   2.962   1.797
20848W        W93174  11.183  23.694  11.900
20849W        W93175   0.362  21.735  14.998
20850W        W93176  33.452  41.497   1.355
20851W        W93177  40.011   8.282  12.041
20852W        W93178  28.490   0.842   2.208
20853W        W93179  28.055  39.505  12.914
20854W        W93180  39.886  18.054  10.988
20855W        W93181  10.782  31.471   3.731
20856W        W93182  17.301  40.814   3.754
20857W        W93183  21.568  12.691  10.612
20858W        W93184  34.055  23.665   2.756
20859W        W93185  17.645  23.009   1.849
20860W        W93186  14.195  12.345   4.341
20861W        W93187  32.043  35.937  13.488
20862W        W93188  17.575  27.081  10.591
20863W        W93189  36.876   0.376   4.712
20864W        W93190  36.849  29.491   2.396
20865W        W93191  39.903   0.844   3.288
20866W        W93192  10.873  29.171   3.275
20867W        W93193  31.575  27.483  11.442
20868W        W93194  13.351  13.229   3.839
20869W        W93195   1.883  41.836  14.333
20870W        W93196  44.957  10.812  12.460
20871W        W93197   8.236  40.537  12.060
20872W        W93198  25.483  30.927  10.620
20873W        W93199  20.600  10.227   1.385
20874W        W93200  25.493  14.297  12.423
20875W        W93201  16.231  30.517   3.785
20876W        W93202  35.024   3.894   1.310
20877W        W93203   1.850  15.694   4.177
20878W        W93204  11.662  33.979   1.723
20879W        W93205  15.137   9.647  11.882
20880W        W93206   0.955  28.943  11.446
20881W        W93207  39.452  12.323  10.618
20882W        W93208  11.733  19.589   1.281
20883W        W93209  22.604  15.588   1.699
20884W        W93210   2.271   8.848   3.371
20885W        W93211  17.692  42.870  13.871
20886W        W93212  38.485  25.029   2.218
20887W        W93213  41.967  20.070   3.189
20888W        W93214  22.099  30.529  12.885
20889W        W93215   3.925  20.664  11.386
20890W        W93216  40.545  40.316   1.830
20891W        W93217  11.241   6.814   0.373
20892W        W93218  24.610  34.525   0.739
20893W        W93219  24.540  31.028  12.844
20894W        W93220  21.725  38.896   4.660
20895W        W93221  24.487  23.646   3.148
20896W        W93222  17.098  42.016  12.385
20897W        W93223  10.684  15.321   2.407
20898W        W93224  34.991  13.118   0.283
20899W        W93225   3.368  35.417   3.228
20900W        W93226  16.793  15.092  12.552
20901W        W93227  40.871  15.719  12.918
20902W        W93228  10.841  11.294   1.277
20903W        W93229   8.199  22.706  10.617
20904W        W93230  18.102  27.021  11.608
20905W        W93231  31.145   9.152   1.913
20906W        W93232   7.732   0.285  12.919
20907W        W93233  42.527  39.899   0.873
20908W        W93234  27.574  19.733  13.506
20909W        W93235  14.689  15.600   0.339
20910W        W93236  10.656  39.477   3.760
20911W        W93237  12.277  16.288  11.423
20912W        W93238  26.978  35.872   4.236
20913W        W93239   6.874   2.772   0.737
20914W        W93240  33.060  28.000  14.008
20915W        W93241  41.417  24.632   1.892
20916W        W93242  19.165  36.444  14.901
20917W        W93243  26.117   1.292  12.538
20918W        W93244  21.675  38.453  12.870
20919W        W93245  21.519   1.913   2.345
20920W        W93246  28.610  32.428   2.722
20921W        W93247  41.321  16.676  13.467
20922W        W93248   0.819   8.383  14.426
20923W        W93249  27.013  38.998   3.766
20924W        W93250  36.086   5.420   0.261
20925W        W93251   4.885   1.322  10.574
20926W        W93252  43.963  15.787   3.273
20927W        W93253   5.285   7.217   4.162
20928W        W93254  25.699  12.782   4.800
20929W        W93255  20.263  27.159   1.273
20930W        W93256   6.887   8.245  13.865
20931W        W93257  15.619  37.041   2.784
20932W        W93258  19.698  27.673  13.844
20933W        W93259  26.132  11.229  13.871
20934W        W93260  32.088  31.994  12.394
20935W        W93261  29.424  42.354   3.176
20936W        W93262   5.213   6.899  13.826
20937W        W93263  14.243  37.967  11.957
20938W        W93264  37.878  42.978   4.736
20939W        W93265  18.188  21.528  11.529
20940W        W93266  31.411  25.489   3.195
20941W        W93267  11.673  30.652  11.599
20942W        W93268  25.493  15.759  10.501
20943W        W93269   6.864   2.743   1.441
20944W        W93270  11.699  37.900  10.510
20945W        W93271  21.073  35.567   1.785
20946W        W93272  19.281   4.343  10.965
20947W        W93273  32.601  13.700   0.338
20948W        W93274  42.912  44.825  13.833
20949W        W93275  30.961  42.927  11.930
20950W        W93276  20.162  29.131   3.211
20951W        W93277   4.439  36.348  13.949
20952W        W93278  34.573  10.642  14.400
20953W        W93279   5.270  41.477  13.796
20954W        W93280  16.309  12.661   2.317
20955W        W93281  36.055   7.725   5.137
20956W        W93282  44.486  24.999  11.117
20957W        W93283  26.648  26.685   3.371
20958W        W93284  23.501  10.364  10.967
20959W        W93285  25.162   8.342  13.872
20960W        W93286  17.201   7.725  10.897
20961W        W93287  36.495  13.105   5.150
20962W        W93288  13.258  41.528   2.246
20963W        W93289  38.895  22.720   4.123
20964W        W93290  11.761  31.491  12.947
20965W        W93291  30.047   2.386  10.946
20966W        W93292  27.969  16.675   4.707
20967W        W93293  19.674  36.922   1.797
20968W        W93294   0.789  19.572   3.382
20969W        W93295   0.274  43.308   4.341
20970W        W93296  26.575   5.753  11.581
20971W        W93297  24.605  35.595  10.467
20972W        W93298  14.688  18.741   0.900
20973W        W93299  11.813  42.360   2.749
20974W        W93300  26.116  34.539  13.959
20975W        W93301  40.956  42.999   3.644
20976W        W93302   3.827  28.629  11.055
20977W        W93303  40.807  30.058   3.711
20978W        W93304  19.184  40.813   1.852
20979W        W93305  23.240  17.249  13.835
20980W        W93306   5.925  40.367  12.893
20981W        W93307  12.258  40.981  14.304
20982W        W93308  33.099  17.785  13.824
20983W        W93309  10.312  24.694   3.710
20984W        W93310  19.242  19.551   4.707
20985W        W93311  32.947  28.474  12.502
20986W        W93312   0.261  23.021   3.758
20987W        W93313  10.683  20.152  12.924
20988W        W93314  28.119  32.898  10.949
20989W        W93315  32.512  17.642   2.754
20990W        W93316  35.602   8.302   2.328
20991W        W93317  32.969  24.704   1.815
20992W        W93318  32.917  13.202   2.868
20993W        W93319  37.940  28.626   1.812
20994W        W93320   8.899  42.490  12.549
20995W        W93321  22.676  22.523   2.379
20996W        W93322  38.960  43.833  12.467
20997W        W93323   6.809   4.797   5.193
20998W        W93324  20.754  29.659  11.089
20999W        W93325  22.075  33.389   1.284
21000W        W93326  42.513  33.968  10.634
21001W        W93327   1.905  32.926   2.351
21002W        W93328  39.408  31.583   4.824
21003W        W93329  31.018  19.571   0.898
21004W        W93330   3.954  41.471   5.164
21005W        W93331  41.906  30.074   1.883
21006W        W93332   6.333   0.933  11.070
21007W        W93333  11.716  25.546   2.774
21008W        W93334  17.218  39.868  10.543
21009W        W93335  17.124  29.597  11.876
21010W        W93336   5.720   9.814  14.956
21011W        W93337  43.845   6.210  14.309
21012W        W93338  35.376  12.718  12.939
21013W        W93339   1.760   0.297  10.508
21014W        W93340   8.370  40.966  10.996
21015W        W93341  21.093   1.732   1.379
21016W        W93342  20.063  14.773  11.066
21017W        W93343  17.607  38.906   1.439
21018W        W93344  26.631  30.605   0.772
21019W        W93345  23.662  44.768   2.684
21020W        W93346  35.106  39.341  10.899
21021W        W93347  30.465   6.402  11.979
21022W        W93348  29.939  29.650  12.572
21023W        W93349  34.407  33.908  13.425
21024W        W93350  13.751  10.177   3.724
21025W        W93351  26.638   6.811   3.342
21026W        W93352  13.156  18.292   2.735
21027W        W93353  43.361   9.280   2.713
21028W        W93354   0.868  43.489   0.835
21029W        W93355  24.095  25.513  14.900
21030W        W93356  22.647  17.568  10.619
21031W        W93357   8.171  29.979   1.773
21032W        W93358  34.395   9.206   3.654
21033W        W93359  34.369  17.627   4.675
21034W        W93360   9.155   7.191  13.351
21035W        W93361  16.279  27.092  11.447
21036W        W93362  14.256  29.108   2.188
21037W        W93363   0.278  22.512   4.144
21038W        W93364  24.506  40.840   0.353
21039W        W93365   0.475  31.485  11.560
21040W        W93366  27.652  38.892   3.232
21041W        W93367  31.625  40.835  13.515
21042W        W93368  33.083  41.043  14.374
21043W        W93369  14.204  10.804  11.871
21044W        W93370  26.465  19.767  11.409
21045W        W93371  24.078  40.448   0.409
21046W        W93372  15.220  35.062  14.446
21047W        W93373  19.160  13.794   2.678
21048W        W93374  44.978  18.642   2.308
21049W        W93375  20.648  35.995   0.887
21050W        W93376  18.577  44.908   3.264
21051W        W93377   9.788  36.943  11.904
21052W        W93378   6.916  19.759   4.639
21053W        W93379   0.441  32.584   0.371
21054W        W93380  37.582  43.343   5.096
21055W        W93381  22.535   8.733   4.642
21056W        W93382  26.147   8.774   5.303
21057W        W93383   9.372  16.673   1.829
21058W        W93384  34.106  14.149   1.785
21059W        W93385  42.010  41.866   3.147
21060W        W93386  38.926  24.128  14.841
21061W        W93387  10.777   8.228   3.307
21062W        W93388  28.609   5.211  14.497
21063W        W93389  28.561  10.701  11.957
21064W        W93390  20.051  18.743  10.919
21065W        W93391  25.596  33.416   4.799
21066W        W93392  33.435  25.099   3.738
21067W        W93393   0.865  24.669  13.485
21068W        W93394  22.079   2.874  11.944
21069W        W93395   4.908   1.301  11.101
21070W        W93396  32.513  36.479  11.010
21071W        W93397   9.347  27.035   2.683
21072W        W93398  17.782   6.270   2.265
21073W        W93399  31.422  38.381   3.828
21074W        W93400   2.857   4.871  12.401
21075W        W93401  20.748  27.967   0.406
21076W        W93402  13.140  36.990   0.279
21077W        W93403  35.430  43.878  14.858
21078W        W93404   6.706  42.492  11.881
21079W        W93405  10.803   8.261  13.434
21080W        W93406  21.192  24.984   2.873
21081W        W93407  42.908  14.228  11.106
21082W        W93408  43.320  15.184  14.970
21083W        W93409  35.060  24.034   3.344
21084W        W93410  30.965   5.773   1.781
21085W        W93411   0.833  21.161  12.834
21086W        W93412  35.552  13.770  11.120
21087W        W93413   7.300  12.151   1.745
21088W        W93414  10.283  11.770  10.458
21089W        W93415   4.386  21.179  13.879
21090W        W93416   2.873   8.832  13.032
21091W        W93417  24.181  20.039   4.613
21092W        W93418  42.939   3.239  14.907
21093W        W93419  31.151  23.650   1.269
21094W        W93420  12.676  40.526   3.234
21095W        W93421  43.511  42.310  12.514
21096W        W93422  28.658  11.809  10.586
21097W        W93423   5.817  13.773  14.948
21098W        W93424  26.208  25.668   3.725
21099W        W93425  32.442  32.602  13.449
21100W        W93426  31.970  43.491  13.443
21101W        W93427  42.007  26.594   4.776
21102W        W93428   2.757   2.734   0.956
21103W        W93429   8.840  27.163  14.779
21104W        W93430  35.084   5.433   0.863
21105W        W93431  19.134  23.164   3.236
21106W        W93432  41.520  29.566  11.577
21107W        W93433   4.710  31.520   2.808
21108W        W93434   9.693  44.936   0.788
21109W        W93435  36.910  43.487   0.901
21110W        W93436  39.401  20.198  14.819
21111W        W93437  22.617   0.276   4.818
21112W        W93438  41.401  43.018  14.952
21113W        W93439  21.584   3.281   0.946
21114W        W93440  38.490  44.368  12.918
21115W        W93441   3.904  26.191  10.977
21116W        W93442  17.611  22.229  12.419
21117W        W93443   8.837   6.782   1.819
21118W        W93444  13.261  29.621  11.486
21119W        W93445  34.941  25.212  10.489
21120W        W93446  33.557  11.349  14.760
21121W        W93447  44.422   1.438  12.087
21122W        W93448  31.022  41.823  11.916
21123W        W93449   9.290  15.193  11.065
21124W        W93450   3.748  42.987   4.254
21125W        W93451   0.452  42.921   4.817
21126W        W93452  22.054  44.852  10.445
21127W        W93453  27.037  30.422  12.845
21128W        W93454   3.873   3.394   3.296
21129W        W93455  35.457  42.931   0.869
21130W        W93456  36.464  20.060   3.272
21131W        W93457   7.253  14.256   0.410
21132W        W93458  17.277  22.091   3.840
21133W        W93459  43.893   2.437   3.207
21134W        W93460  18.166  24.629  12.486
21135W        W93461  33.514  35.478  11.902
21136W        W93462  22.073   3.766  12.526
21137W        W93463   2.281   2.965   3.757
21138W        W93464   2.913  14.631  12.505
21139W        W93465  17.197   3.739  13.352
21140W        W93466  40.973  35.504  10.617
21141W        W93467  33.983  22.687   3.800
21142W        W93468  30.138  15.232   2.820
21143W        W93469  36.369   8.742  11.045
21144W        W93470  19.193  21.109   3.724
21145W        W93471  38.956  25.691   0.433
21146W        W93472  11.865  40.942   2.831
21147W        W93473  22.562  29.453  13.878
21148W        W93474  23.206  41.490  11.565
21149W        W93475  13.136  40.985   3.866
21150W        W93476   6.415  31.526  14.333
21151W        W93477  41.975  38.340  14.331
21152W        W93478   5.880   9.302   2.295
21153W        W93479  29.996  42.830   2.788
21154W        W93480  30.454  25.133  12.839
21155W        W93481  10.272  27.990   3.176
21156W        W93482  28.172  33.467   0.837
21157W        W93483  38.447   3.316  14.803
21158W        W93484   1.260  41.332  11.506
21159W        W93485  39.366  28.048  12.072
21160W        W93486  30.058   4.407  13.974
21161W        W93487  26.523  20.697   1.711
21162W        W93488  36.014  41.388   0.946
21163W        W93489  12.122  34.427  11.470
21164W        W93490   3.315  36.887  11.542
21165W        W93491  44.269  42.980  11.472
21166W        W93492  11.295  43.356  12.870
21167W        W93493  27.102  22.706  11.942
21168W        W93494  18.720  22.113  13.429
21169W        W93495  42.484  14.161  12.053
21170W        W93496  27.953  26.568   2.352
21171W        W93497  14.632  21.744  10.917
21172W        W93498  25.125   8.824   1.920
21173W        W93499  28.536   9.645   1.242
21174W        W93500  12.206  12.327   1.700
21175W        W93501  19.593  20.167   4.342
21176W        W93502  11.223  42.937   3.846
21177W        W93503   2.368  31.051  10.418
21178W        W93504  11.866   2.238   9.946
21179W        W93505   3.320  34.517   2.302
21180W        W93506   2.245  22.997   1.423
21181W        W93507  23.664  12.745  12.483
21182W        W93508   3.439  34.091   2.203
21183W        W93509  40.360  22.644  10.131
21184W        W93510  17.091  41.339  12.379
21185W        W93511  44.443  23.702  14.442
21186W        W93512   4.925  43.312  10.922
21187W        W93513  15.259   4.388  14.002
21188W        W93514  30.467  34.022  12.526
21189W        W93515  10.256  27.105  11.610
21190W        W93516  22.689  18.256  13.367
21191W        W93517  28.592  31.937   1.292
21192W        W93518  37.379  34.959   5.119
21193W        W93519  40.958  39.407  11.911
21194W        W93520  26.044  16.103  10.422
21195W        W93521   3.949  32.886  14.277
21196W        W93522   5.341  45.000   4.718
21197W        W93523  37.012   1.956  13.956
21198W        W93524   5.220  33.600  14.327
21199W        W93525  10.638  10.850  14.277
21200W        W93526  38.446  21.576   0.876
21201W        W93527  42.392  29.106  12.395
21202W        W93528  37.872  11.370   1.916
21203W        W93529  22.086  15.150   5.776
21204W        W93530  41.018  41.895   0.311
21205W        W93531  10.697   0.906  13.369
21206W        W93532   6.865   4.785  13.383
21207W        W93533  24.044  14.789   4.626
21208W        W93534  41.457  23.648  10.623
21209W        W93535  41.892  37.347  12.357
21210W        W93536  17.732  42.329  12.894
21211W        W93537   8.684  31.042  11.892
21212W        W93538  29.659  37.416  11.027
21213W        W93539  41.827  31.052  12.862
21214W        W93540   1.923   1.262  14.389
21215W        W93541  42.853  16.711   1.757
21216W        W93542  14.729   7.306  12.029
21217W        W93543  26.517  13.181   5.227
21218W        W93544  33.095  34.119   0.753
21219W        W93545   7.312  30.164   1.335
21220W        W93546  28.962  19.079  11.122
21221W        W93547  32.601  30.587   3.666
21222W        W93548   5.267   9.752   4.615
21223W        W93549  36.842  42.918  11.916
21224W        W93550  34.452  33.995   4.665
21225W        W93551  33.534  34.019   9.552
21226W        W93552   7.777   3.416  12.866
21227W        W93553  34.956  36.992   1.903
21228W        W93554   5.196  34.957  12.081
21229W        W93555  29.549  34.474  12.034
21230W        W93556  25.197  36.379  12.576
21231W        W93557  21.121   0.253  14.405
21232W        W93558  44.505  16.649  13.314
21233W        W93559  27.944  26.152  14.329
21234W        W93560  23.554  16.775  11.520
21235W        W93561  35.404   9.745   2.212
21236W        W93562  12.714  25.202   1.270
21237W        W93563  42.795  42.367   4.631
21238W        W93564  28.488  22.625   1.924
21239W        W93565  38.064  38.380  13.047
21240W        W93566   6.236   1.260   3.264
21241W        W93567  26.551  12.295   0.436
21242W        W93568   1.476   8.311   1.296
21243W        W93569  11.308   8.803   4.260
21244W        W93570   9.792   8.327  13.901
21245W        W93571  11.216  21.099   3.181
21246W        W93572  39.362   9.876  13.956
21247W        W93573  28.167  22.743   0.470
21248W        W93574  33.921   3.251   2.298
21249W        W93575  35.066  30.111   4.832
21250W        W93576   3.871   9.884   0.279
21251W        W93577  39.936  30.938  14.513
21252W        W93578  25.585  18.209  10.963
21253W        W93579   6.416   3.371  11.421
21254W        W93580  36.048  41.525   4.710
21255W        W93581  14.232  11.189   3.726
21256W        W93582   2.228  39.396  11.055
21257W        W93583  21.556  41.337  12.835
21258W        W93584   6.882  23.179  11.547
21259W        W93585  12.230  27.551   4.279
21260W        W93586  22.018   5.326   4.267
21261W        W93587   0.886  37.365  10.622
21262W        W93588  12.749  40.549   4.319
21263W        W93589  33.041  43.469   2.416
21264W        W93590  27.459  22.564   1.861
21265W        W93591   7.406  24.683  12.912
21266W        W93592   4.270   2.443  10.587
21267W        W93593  30.100  14.130  14.861
21268W        W93594  35.881  16.200  14.951
21269W        W93595   0.259  41.342  10.634
21270W        W93596   1.286  37.847   4.325
21271W        W93597  31.012  10.819  14.839
21272W        W93598  13.216   6.836  14.436
21273W        W93599   4.229  33.446  14.005
21274W        W93600  24.106  30.570  11.014
21275W        W93601   6.335  42.879   4.161
21276W        W93602  14.784  42.863   4.783
21277W        W93603  14.746  13.632  13.545
21278W        W93604  20.544  17.181   0.309
21279W        W93605  31.143  10.800  12.988
21280W        W93606   4.781   7.179  12.896
21281W        W93607  35.092  26.586   2.270
21282W        W93608  26.122  18.050  13.479
21283W        W93609  38.361  10.714   4.639
21284W        W93610  41.994  22.598  11.115
21285W        W93611  31.899   1.321   1.808
21286W        W93612  22.722  19.070   0.419
21287W        W93613  14.216  29.062  14.766
21288W        W93614   1.917  16.659   4.686
21289W        W93615  20.760  25.565   3.230
21290W        W93616  42.973  26.145   1.784
21291W        W93617  35.904  13.182  10.633
21292W        W93618  38.499  37.518   3.788
21293W        W93619   0.848  10.664   0.428
21294W        W93620  10.810  43.284  12.052
21295W        W93621  35.409  21.516  12.541
21296W        W93622  21.629  33.930  13.383
21297W        W93623  12.747  31.076  13.476
21298W        W93624  41.345  39.973   3.150
21299W        W93625  27.144   6.420  13.434
21300W        W93626   3.744  18.585  11.081
21301W        W93627   6.810   9.337  12.518
21302W        W93628  28.065   5.739   1.775
21303W        W93629   5.710  35.091  13.416
21304W        W93630  18.602  28.045   0.768
21305W        W93631  40.868  26.098   4.140
21306W        W93632  26.108  37.451  12.064
21307W        W93633  12.675  23.568  12.995
21308W        W93634  34.004   2.806  11.545
21309W        W93635  44.345   9.363  14.961
21310W        W93636  13.757  15.667   2.309
21311W        W93637  39.865   4.205  12.982
21312W        W93638  30.988  37.044   3.201
21313W        W93639  26.692  43.467   2.348
21314W        W93640   1.403  43.955   3.289
21315W        W93641  41.430  23.500   0.469
21316W        W93642   6.364  30.049  10.952
21317W        W93643  44.426  12.773   3.385
21318W        W93644  28.057  21.021   0.846
21319W        W93645  12.724  14.158   0.937
21320W        W93646  24.480  24.177  13.532
21321W        W93647  37.548  32.910   1.413
21322W        W93648  26.566  37.512   1.726
21323W        W93649  33.506   2.421  10.460
21324W        W93650  19.160  17.725   0.272
21325W        W93651   2.890  25.554  12.086
21326W        W93652  20.751  27.469   2.213
21327W        W93653  37.850  39.020   1.337
21328W        W93654   5.195  36.462   3.146
21329W        W93655  44.758  43.886  12.010
21330W        W93656  38.835   9.337   2.843
21331W        W93657  19.710  44.966   4.651
21332W        W93658  27.088  25.207   4.798
21333W        W93659  15.197  18.252   0.951
21334W        W93660  12.779   6.907  13.362
21335W        W93661  25.155  22.149  14.929
21336W        W93662  42.382  30.506   4.831
21337W        W93663  41.954  28.953   9.933
21338W        W93664  24.108  19.055   2.220
21339W        W93665  39.827  23.647   3.796
21340W        W93666  39.985  20.746  11.943
21341W        W93667  10.378  38.494   2.279
21342W        W93668   2.830  28.480   0.391
21343W        W93669  25.079  32.953   2.299
21344W        W93670  29.066   7.710   3.180
21345W        W93671  13.294  32.954  13.449
21346W        W93672  23.645  13.733   4.706
21347W        W93673  38.390  40.979  10.504
21348W        W93674  37.465  43.903   0.408
21349W        W93675  32.483  25.668  11.893
21350W        W93676  28.634  37.870   3.272
21351W        W93677   2.390  35.392   4.326
21352W        W93678  38.520  28.549   4.788
21353W        W93679  32.420   1.848  14.368
21354W        W93680   9.857  33.467   1.860
21355W        W93681  21.034  40.315  13.353
21356W        W93682  33.898  15.588  14.516
21357W        W93683  42.896  19.067  11.492
21358W        W93684  34.056  38.557   3.851
21359W        W93685  26.985  28.161   0.445
21360W        W93686  31.427  34.545   1.340
21361W        W93687   3.749  16.710   4.659
21362W        W93688   0.283   5.765   4.203
21363W        W93689  29.516  43.336   0.925
21364W        W93690  23.594  31.102   1.361
21365W        W93691  25.126  11.856   2.830
21366W        W93692  40.544   3.877  14.387
21367W        W93693   5.314  42.883   4.141
21368W        W93694  43.003   9.382   4.783
21369W        W93695  26.985  11.288   4.234
21370W        W93696  12.735  20.209  14.423
21371W        W93697  37.441  42.811   0.955
21372W        W93698  43.486  12.857   5.131
21373W        W93699  25.609  21.542  13.864
21374W        W93700  38.876  23.517  13.890
21375W        W93701  34.436  35.996  11.376
21376W        W93702  18.062  10.350   4.630
21377W        W93703   2.721  16.705   3.794
21378W        W93704  43.956  16.720  14.812
21379W        W93705  30.500  30.095  14.814
21380W        W93706  18.669  13.217  11.421
21381W        W93707  12.637   6.921   2.789
21382W        W93708   4.448  16.759   0.445
21383W        W93709  34.391  30.512   0.790
21384W        W93710   2.274  31.026  13.309
21385W        W93711  33.543   5.824  12.535
21386W        W93712  15.662  18.758  14.812
21387W        W93713  39.921   9.765   2.328
21388W        W93714  16.269  16.785  10.536
21389W        W93715   2.415  34.948  13.507
21390W        W93716  41.408  26.593   1.246
21391W        W93717  44.940  44.892  10.968
21392W        W93718   8.203  10.166   0.769
21393W        W93719   8.718   8.364   4.685
21394W        W93720  33.092  33.533   1.801
21395W        W93721  36.857  37.375   4.184
21396W        W93722  36.456  30.148   4.742
21397W        W93723  34.952   3.915   1.828
21398W        W93724   5.743  40.420   4.753
21399W        W93725  12.239  16.787   1.806
21400W        W93726  43.873  38.349  11.475
21401W        W93727  13.288  11.269  14.332
21402W        W93728  27.685  42.879  13.899
21403W        W93729  40.979   0.813  14.838
21404W        W93730   0.275  28.469  12.914
21405W        W93731  14.237  26.548  12.059
21406W        W93732   9.847  42.845  13.542
21407W        W93733   4.848  12.144  11.074
21408W        W93734  20.736  25.169  11.419
21409W        W93735  43.805   7.222   0.942
21410W        W93736  43.310  43.791   4.821
21411W        W93737  34.908   4.332  11.545
21412W        W93738  13.159   8.706  14.390
21413W        W93739   3.375  34.996   1.797
21414W        W93740   2.307  36.566  11.089
21415W        W93741  40.504   3.383   2.879
21416W        W93742  11.833  29.423  13.526
21417W        W93743  43.859   8.196  13.529
21418W        W93744  20.115  42.492  11.066
21419W        W93745  26.622   9.212   0.820
21420W        W93746   1.271  20.566   2.395
21421W        W93747   5.283   7.308  10.988
21422W        W93748  32.127  23.728   0.863
21423W        W93749  37.517  26.495   2.836
21424W        W93750  13.181   3.769   0.805
21425W        W93751  21.650  22.504  13.308
21426W        W93752  40.858  13.276  11.881
21427W        W93753   8.771  16.316   2.702
21428W        W93754  25.092  12.202  14.795
21429W        W93755  36.378  34.519  13.944
21430W        W93756   9.306  18.778   0.798
21431W        W93757  44.762   0.959  11.411
21432W        W93758  30.608  16.792  11.554
21433W        W93759  34.969  17.261  10.475
21434W        W93760  36.048  11.368  13.410
21435W        W93761  22.596  44.784  11.510
21436W        W93762  35.551   3.246  13.996
21437W        W93763  16.270  15.210  10.934
21438W        W93764  43.782  31.066  14.451
21439W        W93765  15.591   4.307  10.550
21440W        W93766  40.373  41.351   3.794
21441W        W93767  22.611   4.381  13.383
21442W        W93768  35.482  11.691   9.942
21443W        W93769  32.095  15.168  14.416
21444W        W93770  19.236  29.555  10.560
21445W        W93771   4.771  17.632   0.354
21446W        W93772  27.665   1.945  10.498
21447W        W93773  17.074  29.539  11.581
21448W        W93774  14.643  24.581  10.558
21449W        W93775   9.319   6.368  10.495
21450W        W93776  35.916   6.743   4.743
21451W        W93777  33.460   1.850   1.302
21452W        W93778  30.435  39.048  14.477
21453W        W93779  17.656  23.070  13.888
21454W        W93780  20.702  38.536  14.854
21455W        W93781   0.812  42.512  11.379
21456W        W93782  41.853  32.096  11.908
21457W        W93783  33.401  35.956   0.952
21458W        W93784  29.463  39.490   2.859
21459W        W93785   8.284   9.272   1.907
21460W        W93786  42.385  27.164   1.407
21461W        W93787  11.769  27.948  12.967
21462W        W93788  41.523   2.768  12.935
21463W        W93789   3.774  10.153  10.481
21464W        W93790  19.098  31.036  13.810
21465W        W93791  31.601   5.729   0.904
21466W        W93792  40.355   3.428   0.808
21467W        W93793  31.108  43.457   4.346
21468W        W93794  32.007  16.651  13.375
21469W        W93795  32.115   0.926  11.001
21470W        W93796  24.222  38.391   0.287
21471W        W93797  38.971  33.053   0.317
21472W        W93798   1.284   9.723  13.054
21473W        W93799   3.870  36.967  10.426
21474W        W93800  16.677   8.825   4.327
21475W        W93801  37.441  33.990   4.242
21476W        W93802  20.220  13.764  11.877
21477W        W93803  18.271  40.007   0.427
21478W        W93804  42.413  28.513   4.687
21479W        W93805  39.881  42.791  12.562
21480W        W93806  11.728  15.303  10.460
21481W        W93807  12.687  42.016   3.166
21482W        W93808   3.944  43.336  14.793
21483W        W93809   4.916  29.962   4.317
21484W        W93810  14.202  42.775  10.438
21485W        W93811  23.131  18.776  14.825
21486W        W93812   9.857  11.840  11.122
21487W        W93813   9.760  11.764   2.376
21488W        W93814   0.934  29.148   4.780
21489W        W93815  34.000  22.034   1.382
21490W        W93816  34.600  22.166  12.524
21491W        W93817  22.541  26.663  11.593
21492W        W93818  40.413  23.078  14.858
21493W        W93819  16.742  18.626   4.724
21494W        W93820   0.843  29.964   3.325
21495W        W93821  19.780  28.952   0.828
21496W        W93822  15.654  14.645  14.324
21497W        W93823  13.733  27.057   2.708
21498W        W93824  16.285  11.629  11.027
21499W        W93825  33.614  42.341  13.373
21500W        W93826  44.463  26.106   3.753
21501W        W93827   0.938  22.015   3.663
21502W        W93828  35.501  34.082  14.400
21503W        W93829  27.000  27.446   4.602
21504W        W93830  29.922   0.906  14.934
21505W        W93831  39.859  39.469  10.901
21506W        W93832  36.464  13.261   3.859
21507W        W93833  22.247  39.937   0.926
21508W        W93834  29.075  26.056   4.633
21509W        W93835  36.845  23.124  14.405
21510W        W93836   3.893   2.962  12.408
21511W        W93837  17.166  39.520   3.824
21512W        W93838   0.395  37.477  11.480
21513W        W93839  28.606  29.444  10.552
21514W        W93840  10.706   6.261   0.759
21515W        W93841  11.358  31.415   3.810
21516W        W93842  43.307  26.495   3.853
21517W        W93843  27.592   9.834   3.720
21518W        W93844  38.557  35.508  11.969
21519W        W93845   2.852  17.656   1.728
21520W        W93846  26.035   4.316   2.892
21521W        W93847  17.103  14.650  13.811
21522W        W93848  25.987   8.789  11.098
21523W        W93849   8.662  25.664   1.732
21524W        W93850   1.287  21.188  14.458
21525W        W93851  25.525  32.930  12.563
21526W        W93852  38.421  33.505  14.929
21527W        W93853  17.650  42.796  13.024
21528W        W93854  23.021  16.702  10.071
21529W        W93855  17.068  38.327   3.774
21530W        W93856  29.931   9.687   0.959
21531W        W93857  21.741  31.901   3.153
21532W        W93858   5.279  40.477   0.267
21533W        W93859  28.057  10.290   0.371
21534W        W93860  27.485  10.261   0.961
21535W        W93861   0.922  43.821   0.784
21536W        W93862   2.872  10.718  11.928
21537W        W93863  26.657  13.111   3.681
21538W        W93864  18.602  12.620  10.950
21539W        W93865   3.751   8.870   1.405
21540W        W93866  42.810  44.989  11.387
21541W        W93867  37.894  35.999   1.420
21542W        W93868  14.734  13.117   2.847
21543W        W93869  32.398  28.081  11.032
21544W        W93870  32.071  25.674   3.857
21545W        W93871   8.230  15.781  12.069
21546W        W93872  41.411  28.544  14.306
21547W        W93873  28.098  34.051  11.890
21548W        W93874  42.935  30.482  14.781
21549W        W93875  18.278  17.578  10.626
21550W        W93876  11.145  31.005  13.328
21551W        W93877  40.527  21.122  10.922
21552W        W93878  37.381  30.041   1.217
21553W        W93879  40.395  26.583   1.810
21554W        W93880   7.776  39.950   4.263
21555W        W93881  40.387  33.618   3.848
21556W        W93882  13.177   8.216   1.833
21557W        W93883   7.784   9.224  12.854
21558W        W93884  41.498   8.239  11.877
21559W        W93885  29.440  22.244   1.345
21560W        W93886   1.754   7.379   2.678
21561W        W93887   9.716   2.274   1.277
21562W        W93888  23.183  37.431  13.927
21563W        W93889  12.145   9.314   0.299
21564W        W93890  22.515  30.573  13.017
21565W        W93891  44.903  43.319   0.275
21566W        W93892  30.996  15.761  14.908
21567W        W93893  40.511   7.704   2.755
21568W        W93894  30.949  19.183   3.861
21569W        W93895  22.701  30.994  13.530
21570W        W93896  19.618  20.201   2.342
21571W        W93897  29.089  16.592  11.929
21572W        W93898  32.898  19.172  14.915
21573W        W93899  14.678  20.710   1.330
21574W        W93900   2.412  27.578   3.865
21575W        W93901  26.140  39.365  11.462
21576W        W93902  11.675  18.613  12.419
21577W        W93903  40.002  16.709  12.437
21578W        W93904  29.530  13.201   3.251
21579W        W93905  29.616  38.853  11.393
21580W        W93906  15.727  41.523   0.775
21581W        W93907  11.170  42.525   2.803
21582W        W93908  17.108   2.434   2.842
21583W        W93909   8.823  13.732   0.962
21584W        W93910  24.486   8.249  10.915
21585W        W93911  17.686   9.838  11.054
21586W        W93912  19.147  18.563  14.811
21587W        W93913  34.863  28.677  11.980
21588W        W93914  40.401  35.481  10.602
21589W        W93915  25.216  22.525  14.940
21590W        W93916  41.368   4.889   4.640
21591W        W93917  23.238  32.607   0.755
21592W        W93918  11.830   5.403  10.476
21593W        W93919  43.947  11.222  11.436
21594W        W93920   8.220  13.723  14.799
21595W        W93921   9.346  12.225   4.620
21596W        W93922  25.104   2.335   1.892
21597W        W93923  30.125  39.824   3.824
21598W        W93924  19.665   9.251  10.637
21599W        W93925  37.966  25.998  13.859
21600W        W93926  19.536  37.477   3.738
21601W        W93927  22.747   8.208   4.208
21602W        W93928  36.372  26.047   0.416
21603W        W93929  17.686  24.620  10.429
21604W        W93930  14.814  29.620   1.804
21605W        W93931   1.886  16.568  14.385
21606W        W93932  22.042  10.858  14.475
21607W        W93933   5.852  40.899  11.908
21608W        W93934   2.830  43.961  14.013
21609W        W93935  40.439  32.576  12.047
21610W        W93936   9.239  21.523   1.323
21611W        W93937  14.201  31.955  11.512
21612W        W93938  21.173  23.494   0.354
21613W        W93939  13.195  31.584  12.827
21614W        W93940  21.605  32.932   1.316
21615W        W93941  29.953   1.372   1.930
21616W        W93942  39.356   8.403   1.321
21617W        W93943  43.423  34.560  10.503
21618W        W93944   4.911   3.411  13.970
21619W        W93945  36.431  20.559  13.481
21620W        W93946   8.856  33.997   2.662
21621W        W93947  24.514  21.562   3.318
21622W        W93948   1.339  34.967   3.291
21623W        W93949  10.168  39.030   4.193
21624W        W93950  39.983   4.220  10.928
21625W        W93951  43.382  38.894  14.762
21626W        W93952  18.242  17.769   3.199
21627W        W93953   7.318  44.345   4.277
21628W        W93954  20.748  21.719  11.126
21629W        W93955  28.511  43.391   0.433
21630W        W93956  38.472  42.417   4.834
21631W        W93957  36.030  14.196   4.641
21632W        W93958  28.993  29.476   2.408
21633W        W93959  20.210  22.203   3.765
21634W        W93960   3.435  31.455  11.476
21635W        W93961  19.253  41.914  10.970
21636W        W93962   7.215  15.614  10.641
21637W        W93963  19.093  43.435   4.656
21638W        W93964  30.095  36.409   1.241
21639W        W93965   0.878   1.805   5.124
21640W        W93966  27.149   2.810  11.476
21641W        W93967  15.085  11.664   2.732
21642W        W93968  28.974  11.709  14.314
21643W        W93969  42.443   0.324   4.167
21644W        W93970  31.573   4.398  13.966
21645W        W93971  20.099  27.580   0.886
21646W        W93972   6.783  23.236  10.892
21647W        W93973   8.383  36.558   3.302
21648W        W93974  31.607   2.284  13.317
21649W        W93975  10.216  15.783   4.712
21650W        W93976   4.876   5.290   9.977
21651W        W93977  44.285  12.126  12.833
21652W        W93978  35.961  38.327  12.455
21653W        W93979  43.766  23.536   1.777
21654W        W93980  35.880  40.329   1.337
21655W        W93981  41.906  18.231  10.513
21656W        W93982  13.646  24.595   4.329
21657W        W93983  10.296  25.162   0.806
21658W        W93984   5.748  33.624   4.600
21659W        W93985  33.464   8.768  13.036
21660W        W93986   0.845  21.618  13.884
21661W        W93987  38.069  28.619  14.494
21662W        W93988  25.179   3.889   0.289
21663W        W93989  33.379   6.308   5.322
21664W        W93990   2.920   2.232   0.795
21665W        W93991  32.593  17.683  12.378
21666W        W93992  43.447  39.479  12.904
21667W        W93993  26.000  36.885  14.503
21668W        W93994  11.748  33.423   1.696
21669W        W93995   3.711   2.457  10.111
21670W        W93996   9.311  13.650   2.714
21671W        W93997  13.828   5.213  10.541
21672W        W93998   9.386  13.266  14.840
21673W        W93999  37.000  15.298  10.990
21674W        W94000   0.272  41.873   4.681
21675W        W94001  13.205  15.752   0.895
21676W        W94002   8.198  21.246   1.728
21677W        W94003  12.238   6.846  12.903
21678W        W94004  37.918   6.291  13.984
21679W        W94005  38.016  40.799   3.218
21680W        W94006  28.504  38.469  12.911
21681W        W94007  36.925  39.379   2.375
21682W        W94008  31.980   2.850  12.541
21683W        W94009  15.277  24.622   0.919
21684W        W94010   5.820  35.062   3.692
21685W        W94011  32.418  36.351   2.662
21686W        W94012  35.457  18.232  13.526
21687W        W94013  24.133  12.749   1.320
21688W        W94014  36.582  43.410  13.020
21689W        W94015  33.120   8.735  14.338
21690W        W94016   3.267   6.192  12.518
21691W        W94017  24.139  43.854  12.465
21692W        W94018  29.445  41.434  10.416
21693W        W94019  19.281   5.390   2.717
21694W        W94020  32.060   9.170  11.885
21695W        W94021  12.690  44.385  13.480
21696W        W94022  16.583  36.078  12.440
21697W        W94023  38.356  15.659   0.361
21698W        W94024  10.289  26.673   4.194
21699W        W94025  21.615  36.431  12.508
21700W        W94026  15.760  39.450  10.985
21701W        W94027   8.689  37.026  10.909
21702W        W94028  38.374  12.807   0.383
21703W        W94029   0.312  30.602  13.310
21704W        W94030  15.183  23.137  12.486
21705W        W94031  16.203  19.729  13.908
21706W        W94032   4.436   8.722   3.820
21707W        W94033  36.037  19.720  12.484
21708W        W94034   3.353  42.305  10.587
21709W        W94035   0.338  33.884   4.141
21710W        W94036   9.652   4.767  12.480
21711W        W94037  14.280  35.004  13.901
21712W        W94038  14.711   0.832   3.293
21713W        W94039  41.897   2.926   4.204
21714W        W94040   1.925  31.581   3.822
21715W        W94041  20.222   0.410   4.339
21716W        W94042  40.896  36.004   3.699
21717W        W94043  31.028  26.632   0.255
21718W        W94044  43.927  19.590   0.790
21719W        W94045  38.062   2.241  14.941
21720W        W94046  20.184  23.561   4.285
21721W        W94047   7.184  21.536   2.417
21722W        W94048   9.379   9.373   0.729
21723W        W94049  12.178   0.364  11.884
21724W        W94050  40.505  43.386  13.955
21725W        W94051  16.591  30.952   1.448
21726W        W94052  27.942  31.574  12.955
21727W        W94053  41.978  36.593   2.393
21728W        W94054   8.795   6.749  12.942
21729W        W94055  38.555  11.296  10.538
21730W        W94056  35.945  11.665   2.678
21731W        W94057   0.866   5.367   0.779
21732W        W94058  14.249  36.530   9.948
21733W        W94059   5.922  21.052   4.683
21734W        W94060  13.663  43.350   4.745
21735W        W94061  34.444  43.928   4.267
21736W        W94062  32.542  24.511  11.995
21737W        W94063  38.339   8.850   1.777
21738W        W94064   7.203  32.044  11.093
21739W        W94065  25.161   0.893   2.738
21740W        W94066  34.865  14.286  12.931
21741W        W94067  21.069  42.463   4.179
21742W        W94068  21.103  33.427   2.385
21743W        W94069  27.123  38.908  13.437
21744W        W94070   3.767  37.955   1.701
21745W        W94071   8.880  17.656   2.206
21746W        W94072  21.650  29.503   2.813
21747W        W94073  33.035  10.710   2.297
21748W        W94074  25.648  32.062   3.296
21749W        W94075  33.109  15.633   2.409
21750W        W94076  23.148   6.237   4.600
21751W        W94077  31.041  41.926   2.849
21752W        W94078   1.320  31.151  11.972
21753W        W94079  25.199  32.074  13.017
21754W        W94080  15.664   5.889  12.014
21755W        W94081   4.767  44.789  11.441
21756W        W94082  41.869  33.108   4.143
21757W        W94083  31.412  37.922   1.793
21758W        W94084  34.088  12.130  10.457
21759W        W94085  36.842  20.210   3.870
21760W        W94086   8.170  44.920  12.913
21761W        W94087  41.027  22.644  13.996
21762W        W94088   5.202   7.267   1.412
21763W        W94089  42.881  40.908  14.468
21764W        W94090  43.015  18.211   4.205
21765W        W94091  27.099  22.045   1.736
21766W        W94092  16.192  44.842  12.893
21767W        W94093  30.975   9.730  14.823
21768W        W94094   0.296  16.302   3.369
21769W        W94095  30.107  35.554   0.417
21770W        W94096   9.704  21.229  10.455
21771W        W94097  18.583  34.864  12.886
21772W        W94098  18.625  11.720  12.829
21773W        W94099  32.591  26.115  14.761
21774W        W94100   3.223  32.112   0.277
21775W        W94101  37.341   3.714  10.989
21776W        W94102  12.179  34.440  12.978
21777W        W94103  28.956  19.248  14.780
21778W        W94104  44.378   2.890  13.319
21779W        W94105  19.236   3.766   2.189
21780W        W94106  28.550  22.671  12.452
21781W        W94107  33.498   9.177   4.197
21782W        W94108  36.577  26.117  14.318
21783W        W94109  21.744  16.171  12.823
21784W        W94110  35.014  15.313   3.691
21785W        W94111  22.242  32.516  12.387
21786W        W94112  20.100  28.469   1.800
21787W        W94113  37.367   0.281   4.292
21788W        W94114  11.649  35.428   5.670
21789W        W94115  20.222  13.622   2.869
21790W        W94116  38.505  44.786  12.851
21791W        W94117  10.365  36.881   1.291
21792W        W94118  37.902  44.788   1.429
21793W        W94119   4.370  29.097   0.452
21794W        W94120  42.325  13.616   1.297
21795W        W94121  22.999  13.634  13.920
21796W        W94122   6.738  13.259  14.799
21797W        W94123  26.522   3.359   9.930
21798W        W94124   3.360  43.861  11.547
21799W        W94125  17.126  24.075   4.658
21800W        W94126   9.793  38.384  12.997
21801W        W94127  14.646  20.578  12.531
21802W        W94128  27.643  10.833   4.778
21803W        W94129   3.269  25.177   2.358
21804W        W94130  28.068   2.912  13.371
21805W        W94131  24.654  22.655  13.995
21806W        W94132  30.968   5.688  12.357
21807W        W94133  16.683  42.360  14.961
21808W        W94134  19.108  15.685  12.835
21809W        W94135  23.075   8.400  11.566
21810W        W94136  11.799  34.883   4.719
21811W        W94137  24.223  12.788   9.962
21812W        W94138  34.551  19.612  13.892
21813W        W94139   0.882  33.023  11.415
21814W        W94140   1.419  21.260   3.232
21815W        W94141   7.718  36.099  10.140
21816W        W94142  37.543  10.790  14.810
21817W        W94143  22.501  42.908  13.034
21818W        W94144   4.367  19.727   3.672
21819W        W94145  36.893  22.515   1.792
21820W        W94146  26.474  35.865   4.324
21821W        W94147   4.325  43.353   3.868
21822W        W94148  13.275   3.910  13.801
21823W        W94149   0.878  42.494   2.328
21824W        W94150  18.090  24.192  11.969
21825W        W94151   9.274  43.444   3.689
21826W        W94152  13.127  35.472   3.820
21827W        W94153  33.109  22.732   4.198
21828W        W94154  23.587  21.252   3.362
21829W        W94155  26.006  24.642  12.577
21830W        W94156  28.091  44.332  13.931
21831W        W94157   3.723  39.960  13.810
21832W        W94158   6.319   6.838   0.422
21833W        W94159  35.098  20.638   2.879
21834W        W94160   4.792   2.268   0.262
21835W        W94161  44.469  17.599  14.799
21836W        W94162  40.526  32.629  14.840
21837W        W94163  42.830  44.854   3.828
21838W        W94164  19.694  25.160  14.924
21839W        W94165  34.063   5.855   2.250
21840W        W94166  18.544   8.164  13.436
21841W        W94167  38.865  27.567  12.384
21842W        W94168  14.739  34.494   0.380
21843W        W94169  34.375  34.074  13.821
21844W        W94170  13.671  27.585   3.827
21845W        W94171  42.011   9.862  14.027
21846W        W94172  40.459  38.877   0.436
21847W        W94173  23.649   0.788   4.323
21848W        W94174  20.635  37.848  11.922
21849W        W94175  16.126  44.495  14.485
21850W        W94176  14.617   5.705  11.051
21851W        W94177  40.394  36.497   4.791
21852W        W94178  28.144  22.212   1.290
21853W        W94179  13.777  22.056   2.869
21854W        W94180  12.297   9.664  11.864
21855W        W94181  15.265  32.046  14.309
21856W        W94182  12.320  42.382  12.471
21857W        W94183  32.540  43.913   4.604
21858W        W94184   0.754  15.625   4.260
21859W        W94185  11.207  18.636  14.820
21860W        W94186   7.226  27.474  11.926
21861W        W94187  42.931  22.620   3.157
21862W        W94188  42.451  18.122  12.830
21863W        W94189  23.500  12.140   2.707
21864W        W94190  25.963   8.253  10.899
21865W        W94191   1.921  17.731  13.047
21866W        W94192  37.368  12.733   4.746
21867W        W94193  40.878  28.931   3.759
21868W        W94194  12.146  30.107  14.440
21869W        W94195  34.577  27.143  11.866
21870W        W94196  42.849   4.725   2.292
21871W        W94197   1.849  13.143  11.446
21872W        W94198  36.037  34.070  11.865
21873W        W94199  28.066   0.857  13.890
21874W        W94200   2.449  15.704  13.799
21875W        W94201  24.510  40.002   3.768
21876W        W94202  42.406   6.421  11.122
21877W        W94203   6.223  24.612   0.824
21878W        W94204  44.842  44.333  12.955
21879W        W94205   4.705  16.720  11.439
21880W        W94206  30.480  37.489   1.709
21881W        W94207  20.559  40.846   4.780
21882W        W94208   1.768  29.524   3.203
21883W        W94209  14.336  29.127  14.513
21884W        W94210  38.433  27.163   4.610
21885W        W94211   4.792  43.882   0.739
21886W        W94212  43.838  21.214   1.809
21887W        W94213  14.233  41.387  14.899
21888W        W94214  17.628  25.071   3.338
21889W        W94215  31.129  31.558   0.254
21890W        W94216  37.885   3.801   1.899
21891W        W94217   1.357  13.148  11.550
21892W        W94218  36.991  29.616  10.566
21893W        W94219  24.597  28.485   0.333
21894W        W94220  10.333   0.968  11.560
21895W        W94221  20.241   5.909   3.684
21896W        W94222  17.206   7.403   3.780
21897W        W94223  26.976  36.917  13.354
21898W        W94224  39.021  20.564  11.463
21899W        W94225  34.563  36.564   2.414
21900W        W94226  37.896  33.545  13.457
21901W        W94227   2.789  26.119  11.104
21902W        W94228   6.274  21.090   2.878
21903W        W94229   7.176  22.551   0.877
21904W        W94230  12.641   9.191   3.765
21905W        W94231  44.432  36.430   3.806
21906W        W94232  38.048  31.527  14.330
21907W        W94233  21.060  18.283  13.985
21908W        W94234  16.117   4.383  12.996
21909W        W94235  35.067  24.487   3.148
21910W        W94236  17.208  29.063   1.834
21911W        W94237  22.231  15.300  10.554
21912W        W94238   0.312   8.869  14.968
21913W        W94239  44.469  26.639   2.883
21914W        W94240  22.663  14.635  10.972
21915W        W94241  44.450  12.698  11.993
21916W        W94242  32.090  17.118   1.234
21917W        W94243   8.699   7.224  12.512
21918W        W94244  20.201  13.145  12.495
21919W        W94245   3.829  30.608   4.185
21920W        W94246  40.982  14.606  12.444
21921W        W94247  41.882  30.611  13.907
21922W        W94248  37.472  15.798  12.887
21923W        W94249  39.864   6.300  13.908
21924W        W94250   4.920  15.171  13.932
21925W        W94251   6.760  41.311  12.026
21926W        W94252  37.377  16.761   1.392
21927W        W94253  35.505  16.579  11.611
21928W        W94254   3.954  32.635  13.879
21929W        W94255  38.489  10.759  14.955
21930W        W94256  40.491  34.593   9.928
21931W        W94257  29.149   6.404  10.639
21932W        W94258  17.253  24.509   2.325
21933W        W94259  35.564   8.181  10.447
21934W        W94260  31.639  18.128   1.421
21935W        W94261  29.553  18.127  13.337
21936W        W94262  32.540  36.545   2.302
21937W        W94263  13.122  28.163  14.510
21938W        W94264  15.692  30.475  14.900
21939W        W94265  15.658  19.681   1.837
21940W        W94266  42.012   6.194  11.418
21941W        W94267  36.996  20.741  10.595
21942W        W94268  22.696  18.263   0.940
21943W        W94269  32.963  27.049  13.854
21944W        W94270  42.027  26.673  10.906
21945W        W94271  33.610  11.209   3.835
21946W        W94272  36.913  30.426  13.822
21947W        W94273  21.517  32.919  11.129
21948W        W94274  36.585  18.077   1.880
21949W        W94275  38.334  31.930   2.796
21950W        W94276  19.186   0.782   3.190
21951W        W94277   4.922  11.676   4.654
21952W        W94278  32.975  33.520  10.896
21953W        W94279  10.726  15.149   0.842
21954W        W94280  15.141  43.948   3.286
21955W        W94281  23.525  10.152  13.444
21956W        W94282   4.447  27.684  10.470
21957W        W94283  42.999  15.204   0.335
21958W        W94284   3.916  12.181  13.505
21959W        W94285  38.037  22.094   1.347
21960W        W94286  12.130  21.204   4.211
21961W        W94287  20.079  25.509   3.762
21962W        W94288   1.243   4.251   2.418
21963W        W94289   4.859  29.642  12.365
21964W        W94290   9.852  35.483  13.521
21965W        W94291  28.530  12.190   1.772
21966W        W94292  32.446   2.863  13.981
21967W        W94293  43.826  24.079  11.877
21968W        W94294  44.988  34.870  12.889
21969W        W94295   0.923  31.480   4.211
21970W        W94296  32.143  25.203   3.202
21971W        W94297  42.420  13.611   4.215
21972W        W94298   5.313  22.032  10.631
21973W        W94299  11.336  10.794  11.011
21974W        W94300  17.089  25.654  11.397
21975W        W94301  43.393  18.165  12.512
21976W        W94302  41.967  38.944  11.503
21977W        W94303  19.243  22.675  11.894
21978W        W94304   1.889  21.573  10.020
21979W        W94305   9.852  18.143  13.925
21980W        W94306  14.331   8.334   2.260
21981W        W94307  17.611   8.200  10.409
21982W        W94308  35.038  38.514   1.299
21983W        W94309   4.360  26.116   4.742
21984W        W94310  30.501   7.329  12.014
21985W        W94311   9.375  37.854   1.799
21986W        W94312  38.067  21.586   4.759
21987W        W94313   6.690  19.247   2.182
21988W        W94314  19.673  10.800  13.952
21989W        W94315  37.954  30.978  13.820
21990W        W94316   1.895   4.774  11.576
21991W        W94317  21.533  27.111   1.695
21992W        W94318  18.091  21.101  13.865
21993W        W94319   0.271   5.327  10.427
21994W        W94320  28.118  24.707   4.182
21995W        W94321  13.782  11.237   4.777
21996W        W94322  12.335   0.926  12.346
21997W        W94323   0.275  43.965  11.374
21998W        W94324  29.021   7.860   0.347
21999W        W94325  37.059  18.723  14.362
22000W        W94326  38.914  38.849   4.305
22001W        W94327  23.037  32.087   3.281
22002W        W94328   7.729  35.969  12.934
22003W        W94329  16.716  44.350  14.962
22004W        W94330  26.488  38.460  12.824
22005W        W94331  38.325  37.463  10.576
22006W        W94332  15.166   0.270  14.366
22007W        W94333  12.122  25.484  14.325
22008W        W94334  34.952  13.760  12.541
22009W        W94335  42.325   8.334  12.363
22010W        W94336  24.706  38.546  14.008
22011W        W94337  29.950  37.394  11.033
22012W        W94338  44.805  34.911   1.296
22013W        W94339  27.976   0.248  13.966
22014W        W94340  42.946   5.852   2.671
22015W        W94341   8.376  24.098  13.493
22016W        W94342  32.614  31.028  12.577
22017W        W94343  41.854   6.391   3.362
22018W        W94344  33.020  34.598  14.804
22019W        W94345  20.267   7.335   1.368
22020W        W94346  23.049  17.723   5.609
22021W        W94347  12.344   8.673   4.775
22022W        W94348  42.025  34.460   5.116
22023W        W94349  18.066  44.501   4.617
22024W        W94350   9.297  37.374   4.352
22025W        W94351  18.262   1.794  10.973
22026W        W94352   0.882   6.851  14.479
22027W        W94353  14.257  13.123  10.586
22028W        W94354  37.540   9.289   4.809
22029W        W94355   0.886  21.178   1.363
22030W        W94356  41.313  19.051   4.731
22031W        W94357   1.388  32.129   2.299
22032W        W94358  23.683  13.296   3.684
22033W        W94359  35.069  35.087  12.014
22034W        W94360  33.903   0.425   0.894
22035W        W94361   8.163  43.942  14.915
22036W        W94362  10.800  36.948  12.968
22037W        W94363  18.129   5.350   0.345
22038W        W94364  23.220  43.911  10.416
22039W        W94365  27.515   9.777  11.908
22040W        W94366  34.382  28.494   0.801
22041W        W94367  15.178  10.691   2.815
22042W        W94368  13.224  16.635   2.788
22043W        W94369  30.942  33.003  10.414
22044W        W94370  42.846  35.517  11.984
22045W        W94371   6.771  43.506  13.384
22046W        W94372  32.073  12.737   0.399
22047W        W94373  43.383   1.435  11.437
22048W        W94374  27.162  39.316  13.820
22049W        W94375   8.328  19.274  11.872
22050W        W94376  21.755  41.456   4.279
22051W        W94377   2.735   7.221  12.075
22052W        W94378  10.138  41.330  10.935
22053W        W94379  25.112   5.839   0.830
22054W        W94380  44.435   4.426   3.768
22055W        W94381  38.465  15.280  10.462
22056W        W94382   8.270  16.312   1.327
22057W        W94383  41.831  12.809  13.962
22058W        W94384  41.369  24.061  14.795
22059W        W94385  23.509  27.660   4.773
22060W        W94386   9.818  40.367   0.794
22061W        W94387  16.594   6.298   2.315
22062W        W94388  25.474   0.764  12.037
22063W        W94389  41.018  32.093  14.491
22064W        W94390  19.537  40.442   3.717
22065W        W94391   5.902  40.495  10.998
22066W        W94392   0.937  34.502   3.291
22067W        W94393  16.167   9.330  10.574
22068W        W94394  37.454  29.483   3.695
22069W        W94395  37.043   5.689  14.516
22070W        W94396  36.085  38.954  11.375
22071W        W94397   1.811  15.327  11.008
22072W        W94398  23.129  35.559   4.339
22073W        W94399   2.429   7.748   2.674
22074W        W94400  37.878  37.977  14.865
22075W        W94401   0.815  10.266  10.485
22076W        W94402  18.588  22.064   4.145
22077W        W94403  20.079  40.871   4.331
22078W        W94404  18.718   6.799  11.858
22079W        W94405  12.670  36.024   5.248
22080W        W94406  25.061  20.092   2.833
22081W        W94407  10.257  31.480   2.361
22082W        W94408  30.019  25.579   1.828
22083W        W94409  33.394   3.806  10.635
22084W        W94410  24.198  35.436   3.150
22085W        W94411  22.059  22.037   4.306
22086W        W94412  22.062   0.462   2.273
22087W        W94413  31.483  15.627  14.924
22088W        W94414   7.304  17.692  11.059
22089W        W94415  30.604  35.916  13.487
22090W        W94416   7.370   3.863  12.958
22091W        W94417   4.892  22.568   5.199
22092W        W94418  19.595   0.379   0.336
22093W        W94419  42.289   2.828   0.436
22094W        W94420  43.839  32.409   2.729
22095W        W94421  18.263   8.196  14.761
22096W        W94422  41.838   3.229  12.984
22097W        W94423  12.818  32.886  14.014
22098W        W94424   9.390   2.759  14.281
22099W        W94425  35.571  26.499   0.302
22100W        W94426  41.475  28.085  11.563
22101W        W94427  25.477  12.834   1.933
22102W        W94428  36.365  34.541   4.342
22103W        W94429   6.755  31.606  11.060
22104W        W94430  44.858  23.177  12.959
22105W        W94431  44.487  43.853  11.535
22106W        W94432  26.591   2.467   3.187
22107W        W94433  40.968  25.023  11.532
22108W        W94434  16.080  27.011   2.796
22109W        W94435  43.506  17.594  12.415
22110W        W94436  29.156  13.262   2.662
22111W        W94437  15.307  32.098   0.406
22112W        W94438  13.735  17.107  11.539
22113W        W94439  23.707  32.952  11.612
22114W        W94440  43.787  11.156   2.706
22115W        W94441  33.583  11.140  11.934
22116W        W94442  22.610  18.087   3.200
22117W        W94443  32.926   2.450  10.550
22118W        W94444  44.919  23.696  10.501
22119W        W94445  29.636  24.063  10.407
22120W        W94446  18.656   8.673   1.925
22121W        W94447  15.587  20.702   1.236
22122W        W94448  36.413  25.011   0.480
22123W        W94449   2.284  34.512  13.447
22124W        W94450  17.088  15.664  12.481
22125W        W94451   5.771  17.748   4.615
22126W        W94452  15.684  44.995   4.768
22127W        W94453  21.199  26.595  14.430
22128W        W94454  15.616   6.351  11.096
22129W        W94455  42.337  37.422   0.862
22130W        W94456  11.669   5.424   1.697
22131W        W94457  21.097   8.698  11.047
22132W        W94458  21.630  20.090  11.071
22133W        W94459  25.161  43.002  12.525
22134W        W94460  43.945  16.684  10.470
22135W        W94461  14.690  19.110  12.857
22136W        W94462  16.773  18.190  11.945
22137W        W94463  20.758  16.788   3.855
22138W        W94464   0.821  17.568   3.630
22139W        W94465  30.069  12.260   0.757
22140W        W94466  22.109  37.476   1.826
22141W        W94467   6.679   4.935  12.053
22142W        W94468  37.973  12.220  11.124
22143W        W94469   2.866  11.214   2.789
22144W        W94470   1.887   2.913   3.372
22145W        W94471  13.329  21.091  11.063
22146W        W94472  28.958   7.696   4.214
22147W        W94473  28.453   8.785   2.761
22148W        W94474  37.411  22.082  14.028
22149W        W94475   6.797  19.090  10.930
22150W        W94476  40.987   3.366   2.291
22151W        W94477  42.906  26.004   4.731
22152W        W94478  43.853  25.104  12.000
22153W        W94479   1.820  34.575  14.295
22154W        W94480  24.984  38.879  14.953
22155W        W94481  17.109  11.355   0.253
22156W        W94482  25.670  36.096  13.941
22157W        W94483   7.897  40.508  13.373
22158W        W94484  20.530  24.551   0.390
22159W        W94485   5.738  27.164  11.390
22160W        W94486   2.911  21.658  11.528
22161W        W94487  11.210  34.920  14.962
22162W        W94488  38.951  16.710  11.015
22163W        W94489   4.416  28.462  12.576
22164W        W94490   5.908  23.137  12.005
22165W        W94491  41.407  24.990  14.381
22166W        W94492   7.176  18.701   2.826
22167W        W94493  32.525  38.446   4.255
22168W        W94494  41.878   4.293  11.384
22169W        W94495  36.448  12.710   0.878
22170W        W94496  16.151   9.316   3.678
22171W        W94497  35.585  35.381   2.874
22172W        W94498  36.534  17.731  12.342
22173W        W94499   6.904  10.796  11.031
22174W        W94500  13.651  31.902   0.391
22175W        W94501   5.739  37.003  12.568
22176W        W94502  39.504  15.237   0.347
22177W        W94503  29.462  41.385   3.668
22178W        W94504   5.428  19.690  10.566
22179W        W94505  15.241  20.660   2.820
22180W        W94506   7.857  15.190  13.547
22181W        W94507   0.288  23.157  12.367
22182W        W94508  12.648  34.567   3.771
22183W        W94509   5.698  35.030   3.270
22184W        W94510   8.887  37.061   4.761
22185W        W94511  42.336   3.940   4.824
22186W        W94512  43.452  21.249  14.792
22187W        W94513   5.912  29.128   3.274
22188W        W94514  33.128   6.780   4.790
22189W        W94515   4.928  13.702   4.218
22190W        W94516  35.990  23.628   2.755
22191W        W94517   2.944  11.828  13.000
22192W        W94518   3.227  43.496  11.083
22193W        W94519  30.448  43.321  14.512
22194W        W94520  10.822  19.109   3.750
22195W        W94521  30.997  26.969   0.278
22196W        W94522  40.457   5.739   0.741
22197W        W94523   6.689   6.282  12.950
22198W        W94524  37.988  20.161  11.987
22199W        W94525  14.244  29.930   0.883
22200W        W94526  25.135  12.798  11.576
22201W        W94527  18.214  13.315  12.981
22202W        W94528  22.586  12.301  13.407
22203W        W94529  40.531  16.309   4.603
22204W        W94530   4.394  25.050   4.354
22205W        W94531  33.065  31.070   0.879
22206W        W94532   7.681  30.444   4.310
22207W        W94533  15.663  17.175  13.852
22208W        W94534  39.857   1.350   3.247
22209W        W94535   4.362  40.045  11.971
22210W        W94536  43.416   4.726   3.818
22211W        W94537  40.965  37.467  10.405
22212W        W94538  35.100  18.233  13.501
22213W        W94539  25.078  26.605  12.575
22214W        W94540  26.626  44.936  14.801
22215W        W94541   6.413  13.803  10.548
22216W        W94542   5.347  17.249  13.799
22217W        W94543  38.383  29.997   0.309
22218W        W94544   9.354  14.131   4.667
22219W        W94545  37.957  39.522  13.931
22220W        W94546  43.994   5.280  10.930
22221W        W94547   6.333  27.594  10.594
22222W        W94548  28.144   2.415   0.768
22223W        W94549  24.632  38.451  14.905
22224W        W94550   7.359  17.305   2.283
22225W        W94551  24.067   8.815   4.257
22226W        W94552  20.220  29.513   3.758
22227W        W94553  41.307  41.409  13.028
22228W        W94554   7.233  12.814  12.017
22229W        W94555  43.767  19.692   2.283
22230W        W94556   4.752  31.412   1.384
22231W        W94557  14.163   5.814   2.707
22232W        W94558  39.829  33.563   2.404
22233W        W94559  20.238   6.759   2.254
22234W        W94560  25.147   3.407  14.856
22235W        W94561  23.694  23.709  13.534
22236W        W94562  44.820   1.944  14.952
22237W        W94563  34.504   7.247  11.537
22238W        W94564  40.378  32.937   2.678
22239W        W94565   0.803  11.362  14.393
22240W        W94566  33.440  19.752   2.891
22241W        W94567   0.874  20.609   4.619
22242W        W94568  18.593  24.534   1.385
22243W        W94569  36.412  14.700  11.125
22244W        W94570   3.315  27.484   1.705
22245W        W94571   5.865  19.189  11.502
22246W        W94572  23.089  25.075   4.667
22247W        W94573   8.236  20.628  13.933
22248W        W94574   5.340  40.325  11.597
22249W        W94575   7.667  31.961  13.432
22250W        W94576  18.125  10.744   1.746
22251W        W94577   7.297  44.774  12.428
22252W        W94578   1.955  21.260  13.040
22253W        W94579  26.546   8.240  13.958
22254W        W94580   0.837  14.777  12.370
22255W        W94581  34.419  27.986   1.795
22256W        W94582  44.318  36.498  10.418
22257W        W94583  20.116  22.602  12.374
22258W        W94584   3.894  37.836  11.083
22259W        W94585  39.881   5.715   4.183
22260W        W94586   1.922  25.610   0.399
22261W        W94587   1.350  19.674   3.842
22262W        W94588  20.529   2.304  14.432
22263W        W94589  18.589  27.535   0.398
22264W        W94590   6.322  42.913   4.684
22265W        W94591   2.322  41.346  10.987
22266W        W94592  21.038  28.493   4.825
22267W        W94593  35.868   0.827   1.337
22268W        W94594  44.880  35.039  14.341
22269W        W94595  19.584  26.985   4.621
22270W        W94596  11.192   9.784   3.756
22271W        W94597  13.680  27.948  11.587
22272W        W94598  33.433  24.001  10.487
22273W        W94599   9.246  40.875  14.824
22274W        W94600  37.470  35.498  12.862
22275W        W94601  19.070  42.942  14.770
22276W        W94602  16.186   8.363   3.739
22277W        W94603  15.781  30.989   4.117
22278W        W94604   5.312  12.132  13.420
22279W        W94605  37.573  16.744   1.778
22280W        W94606  38.991  42.419  14.011
22281W        W94607   2.273  36.027  14.436
22282W        W94608   7.414  15.820  11.859
22283W        W94609  26.477  28.080   0.309
22284W        W94610  35.421   0.968   4.626
22285W        W94611  36.917  19.647  14.376
22286W        W94612  31.080  20.722  11.452
22287W        W94613   2.309  38.349  14.359
22288W        W94614  27.578  39.008   1.890
22289W        W94615  17.147  44.969   1.852
22290W        W94616  20.714  26.698   4.224
22291W        W94617  17.270  42.867  13.474
22292W        W94618  27.635  19.068   2.853
22293W        W94619  12.309  29.583  13.451
22294W        W94620  25.659  37.930  10.519
22295W        W94621  35.933  18.160  14.803
22296W        W94622  15.094  41.972   3.709
22297W        W94623  15.268  11.758   0.944
22298W        W94624   2.396  17.078   3.809
22299W        W94625  40.992  39.556   0.446
22300W        W94626  25.678  14.600   1.328
22301W        W94627  23.716  41.996   0.314
22302W        W94628  11.153  11.139  13.016
22303W        W94629  28.974  31.407   0.890
22304W        W94630  17.155  27.579   2.745
22305W        W94631  43.814  12.189  14.943
22306W        W94632  33.450  18.599  13.545
22307W        W94633  14.287  41.943  13.016
22308W        W94634  23.161   6.401   2.407
22309W        W94635  38.037  26.113   1.898
22310W        W94636  37.046   7.289  10.954
22311W        W94637  20.135  10.281   1.346
22312W        W94638  21.128  29.454   2.250
22313W        W94639  29.134   2.448  11.091
22314W        W94640   2.416  35.394  11.458
22315W        W94641   4.706  12.706  14.855
22316W        W94642  33.548  40.436  13.488
22317W        W94643  30.501  34.889  14.484
22318W        W94644   4.407  22.106  11.110
22319W        W94645  33.031  33.418  13.367
22320W        W94646  12.129  24.994  11.470
22321W        W94647  43.902   9.221  13.893
22322W        W94648  11.838  21.163  14.800
22323W        W94649  38.465  28.007  14.506
22324W        W94650  37.951  13.299  13.333
22325W        W94651  30.930  17.600  11.477
22326W        W94652  12.701  12.668   0.924
22327W        W94653  40.852  11.717   0.924
22328W        W94654  44.853  37.953   3.320
22329W        W94655  25.628  17.753  11.526
22330W        W94656  39.858   1.795  10.618
22331W        W94657  19.579  37.906   0.795
22332W        W94658  43.350  13.254  12.357
22333W        W94659  23.568  39.553   1.314
22334W        W94660  11.137   4.877  10.973
22335W        W94661  12.749   9.300   0.288
22336W        W94662   7.398   5.905   1.308
22337W        W94663  35.444   1.453  11.534
22338W        W94664  37.922  29.563  10.021
22339W        W94665  25.546  23.566   2.418
22340W        W94666   2.467  39.033   2.279
22341W        W94667   7.735   8.314   0.793
22342W        W94668  37.060  18.748   4.204
22343W        W94669   3.778  23.733   5.146
22344W        W94670  25.507  21.159  14.458
22345W        W94671   9.219  28.153   1.396
22346W        W94672  22.048  39.367   4.156
22347W        W94673   0.979  33.546  11.529
22348W        W94674  39.320  19.163   3.251
22349W        W94675   2.900  34.894   4.198
22350W        W94676  27.523   2.359  13.877
22351W        W94677  43.910   9.300   3.230
22352W        W94678  32.076  44.330  14.791
22353W        W94679  40.345   2.392  14.278
22354W        W94680   3.884  29.014  11.110
22355W        W94681  29.515   1.466  11.036
22356W        W94682   3.371   5.248  14.972
22357W        W94683  36.463   5.777   3.255
22358W        W94684  30.096  26.596  10.406
22359W        W94685  38.415   2.808   3.187
22360W        W94686  31.998  13.341   2.342
22361W        W94687   1.754  18.256   3.765
22362W        W94688  30.926  29.058   0.312
22363W        W94689  20.144  28.621  12.508
22364W        W94690  32.998   7.309  12.541
22365W        W94691  42.891  30.458  11.406
22366W        W94692  21.666  18.063   1.360
22367W        W94693  17.702  34.612   4.645
22368W        W94694  11.692  17.122   0.321
22369W        W94695  16.262   3.271   0.470
22370W        W94696  16.715  19.703   2.252
22371W        W94697  44.428   3.817   4.159
22372W        W94698  20.215  26.991   3.715
22373W        W94699  41.358  15.641  12.516
22374W        W94700  19.723   8.809   2.765
22375W        W94701  34.024   6.395  12.580
22376W        W94702  34.093  16.089   0.329
22377W        W94703  32.130  31.960   0.408
22378W        W94704  37.075  42.294   2.877
22379W        W94705  15.632   0.840   1.220
22380W        W94706   3.394  26.180   0.894
22381W        W94707  41.308   3.869  10.518
22382W        W94708  37.421  19.547   4.328
22383W        W94709  40.017  35.045  14.448
22384W        W94710   0.438   6.799  14.480
22385W        W94711  10.785  14.693  14.482
22386W        W94712  43.979  11.817   2.754
22387W        W94713  42.820   9.817   1.810
22388W        W94714   2.909   7.215   3.848
22389W        W94715  28.072   7.774  12.085
22390W        W94716  20.232   0.800  11.957
22391W        W94717   7.746  25.083  14.430
22392W        W94718   8.866  36.533  13.468
22393W        W94719  42.030  38.996   4.149
22394W        W94720   4.231  26.473   2.785
22395W        W94721  41.957   7.345   3.157
22396W        W94722  40.045   0.443  11.948
22397W        W94723  40.446   1.814  14.422
22398W        W94724  30.912  29.566  12.532
22399W        W94725  38.974  34.074   4.791
22400W        W94726  38.472  11.318  11.871
22401W        W94727  38.512  37.854   3.675
22402W        W94728  35.898  19.730   2.790
22403W        W94729  28.109  21.174   4.305
22404W        W94730   3.289  36.590   1.385
22405W        W94731  28.023  10.788  11.414
22406W        W94732   9.187  35.955  13.843
22407W        W94733  34.372  40.929   1.285
22408W        W94734  11.283   6.768   1.857
22409W        W94735  43.426  30.036   3.744
22410W        W94736   0.439  19.679   2.901
22411W        W94737  31.898  20.141  13.387
22412W        W94738  27.192  12.254   3.771
22413W        W94739   6.210   2.869   4.117
22414W        W94740  19.654  24.682  14.514
22415W        W94741  31.519  31.546   4.148
22416W        W94742   6.298   8.297  13.983
22417W        W94743  43.450  39.387   3.253
22418W        W94744  14.227  34.462   4.706
22419W        W94745  29.928  13.228  13.053
22420W        W94746  37.925  42.312   3.340
22421W        W94747  15.786  38.901   2.345
22422W        W94748  27.181  18.750   3.640
22423W        W94749   4.842  23.186  12.472
22424W        W94750  38.955  29.055   3.653
22425W        W94751   4.327  38.918  10.093
22426W        W94752  25.099  24.650   4.190
22427W        W94753  25.537  26.174  14.850
22428W        W94754  40.040  34.028  11.545
22429W        W94755  12.142  40.479  10.515
22430W        W94756   3.409  24.640   2.386
22431W        W94757  44.283  30.129  10.622
22432W        W94758  15.103  28.106  14.923
22433W        W94759  43.475  28.046   3.244
22434W        W94760  34.409  25.135   0.453
22435W        W94761  38.004  27.103   2.310
22436W        W94762  34.091  20.757  11.001
22437W        W94763  35.027  39.836  11.486
22438W        W94764  22.163  17.105  12.007
22439W        W94765  21.097  13.295  10.602
22440W        W94766   0.845  44.911   1.391
22441W        W94767  40.953  23.597   4.750
22442W        W94768   8.856  19.692  13.883
22443W        W94769  36.584  36.458   1.229
22444W        W94770  40.324  39.812   4.731
22445W        W94771  36.014  10.763  12.398
22446W        W94772  36.929  30.954  12.049
22447W        W94773  40.384  42.903  12.986
22448W        W94774  33.606  29.657  10.425
22449W        W94775  32.108  10.319   0.947
22450W        W94776  20.036  27.576   1.785
22451W        W94777  12.621   4.723   5.173
22452W        W94778  20.728  10.188  14.291
22453W        W94779  41.824  21.184   3.787
22454W        W94780  30.924  26.645  12.095
22455W        W94781  23.034   2.846   4.151
22456W        W94782  31.968  19.268  11.608
22457W        W94783  13.652  44.404  14.490
22458W        W94784  13.129  37.556  12.060
22459W        W94785  44.318   0.912   3.655
22460W        W94786   9.816  40.506   3.186
22461W        W94787  11.129  10.874  11.871
22462W        W94788  39.357   5.303   2.780
22463W        W94789  20.095  34.895   1.860
22464W        W94790  30.566  27.983  12.090
22465W        W94791  34.967  24.981   0.803
22466W        W94792   9.276  16.749   3.789
22467W        W94793  21.215  33.060   1.416
22468W        W94794   9.785  22.714  11.488
22469W        W94795  26.576  38.016   0.802
22470W        W94796  31.414  43.335  10.454
22471W        W94797  13.719  11.237   1.785
22472W        W94798  27.130  24.056   0.316
22473W        W94799  44.892   6.412  12.504
22474W        W94800  13.257  20.735   2.252
22475W        W94801  28.620  12.784   3.678
22476W        W94802  35.062  24.146  13.416
22477W        W94803  38.879  12.158   2.358
22478W        W94804  14.679  26.066   4.714
22479W        W94805   9.274  24.165  11.935
22480W        W94806  10.308  40.529  12.360
22481W        W94807   7.349   3.365   0.382
22482W        W94808   6.733  10.847   2.279
22483W        W94809  28.184  33.487   4.272
22484W        W94810  41.806  11.296  10.549
22485W        W94811  10.275  11.736   2.850
22486W        W94812  38.471  30.422  13.379
22487W        W94813  25.139  31.541  13.061
22488W        W94814   8.168   3.236   2.833
22489W        W94815  17.615  42.378   1.793
22490W        W94816  22.248  11.130  10.486
22491W        W94817  28.568   6.197  10.954
22492W        W94818  36.001  23.636   1.816
22493W        W94819  21.601  37.513  13.991
22494W        W94820  36.442  10.168  13.425
22495W        W94821   5.431  37.562   3.362
22496W        W94822  37.399  29.510  10.500
22497W        W94823  23.543  14.323  14.351
22498W        W94824  35.997  34.497   4.750
22499W        W94825  32.002  38.475  10.583
22500W        W94826  38.875  11.857  13.359
22501W        W94827  23.692   9.752   2.384
22502W        W94828   6.388  38.346  14.817
22503W        W94829  29.431   4.807   0.910
22504W        W94830  14.155  22.088  12.923
22505W        W94831   4.372  28.500   3.635
22506W        W94832  30.918   0.759  13.335
22507W        W94833  15.161  39.385   4.182
22508W        W94834  28.136   9.725  14.890
22509W        W94835  31.941   6.808   4.669
22510W        W94836  13.161  44.841   4.759
22511W        W94837   9.152  14.756  14.947
22512W        W94838  14.317  16.149  13.878
22513W        W94839  25.517   6.295  10.617
22514W        W94840  16.681   0.280  13.937
22515W        W94841  32.480  43.434  13.409
22516W        W94842  43.379  37.838  12.488
22517W        W94843  17.148   0.749  12.835
22518W        W94844  31.526   7.343   4.726
22519W        W94845  18.634  19.174   2.373
22520W        W94846  33.592  21.551   2.323
22521W        W94847  38.514  14.756  14.462
22522W        W94848   8.327  20.684   1.374
22523W        W94849   0.857   1.787   4.614
22524W        W94850  27.516  25.467  13.314
22525W        W94851  39.490   8.338  11.481
22526W        W94852  44.976  24.000   4.757
22527W        W94853  33.103  20.532   3.801
22528W        W94854  33.428  32.543   4.167
22529W        W94855  16.292  13.743  14.866
22530W        W94856  12.831  12.255  11.874
22531W        W94857  28.027  35.969   5.225
22532W        W94858   1.828  44.873  13.959
22533W        W94859  38.357  17.674   0.366
22534W        W94860   9.341   7.286  12.060
22535W        W94861  37.944  28.540  11.943
22536W        W94862   9.255  15.776   3.210
22537W        W94863  22.207   6.267   0.756
22538W        W94864  11.767  18.173  13.324
22539W        W94865   7.734  43.828   0.887
22540W        W94866  17.267  43.945   4.660
22541W        W94867  36.504  27.608   2.352
22542W        W94868  16.146  42.384   3.209
22543W        W94869  12.670  32.565  11.066
22544W        W94870  15.734   6.191   4.233
22545W        W94871  12.160   7.173  11.599
22546W        W94872  23.196  11.854  14.507
22547W        W94873  11.807  21.612  10.896
22548W        W94874  27.608   3.280  14.380
22549W        W94875  29.933  34.570   4.623
22550W        W94876  26.674  19.090   1.754
22551W        W94877  22.596  21.182  10.922
22552W        W94878  37.381  34.094   0.875
22553W        W94879  33.476  25.634   3.218
22554W        W94880  18.649  15.125   2.690
22555W        W94881  10.869  21.513   1.740
22556W        W94882  25.643  19.232   1.864
22557W        W94883  44.271  22.206  10.434
22558W        W94884  25.150  20.532  12.531
22559W        W94885  29.473  33.112  12.904
22560W        W94886  18.649  34.093  12.554
22561W        W94887   0.272  35.054   4.229
22562W        W94888  36.563   1.406  12.079
22563W        W94889  27.522  33.599  12.978
22564W        W94890  22.218   3.400   1.393
22565W        W94891  36.892  31.128   2.693
22566W        W94892  27.172  39.925   1.851
22567W        W94893  39.384  28.677  11.394
22568W        W94894  26.468  44.803   3.761
22569W        W94895  40.338  30.138   3.172
22570W        W94896  14.616  17.771  11.032
22571W        W94897  37.026  21.102  13.924
22572W        W94898  25.502  25.516  12.929
22573W        W94899  42.953  34.543  12.001
22574W        W94900  18.058  31.039  14.913
22575W        W94901  30.910  27.623  10.977
22576W        W94902  10.204   0.862   2.275
22577W        W94903   2.413  19.216   1.698
22578W        W94904   8.298  13.134   3.782
22579W        W94905   7.347  28.166   4.338
22580W        W94906  20.541  44.268  11.967
22581W        W94907  34.411  32.412   1.842
22582W        W94908  26.025  33.878  13.037
22583W        W94909   0.987  42.999   3.853
22584W        W94910  17.215   9.681  14.418
22585W        W94911  21.606  33.438  10.485
22586W        W94912   4.240  25.088   3.724
22587W        W94913   5.373  37.873   2.837
22588W        W94914  44.434  12.320  11.545
22589W        W94915  22.150  40.352   4.714
22590W        W94916  32.556   6.753  14.982
22591W        W94917  10.637  16.788  10.431
22592W        W94918  34.021  20.045  14.971
22593W        W94919  21.042  22.059  13.868
22594W        W94920  17.797  32.963   4.223
22595W        W94921  25.167  29.430   1.408
22596W        W94922  11.254  22.148   0.385
22597W        W94923   9.302  19.130   4.687
22598W        W94924   8.738  19.045   0.481
22599W        W94925  14.759   9.341  11.001
22600W        W94926  30.026  41.793   2.841
22601W        W94927  18.709   3.787   1.425
22602W        W94928  39.920   9.167  12.982
22603W        W94929  18.726  42.416   3.307
22604W        W94930   5.378  31.418  12.091
22605W        W94931   5.357  30.070  10.403
22606W        W94932  32.064  25.520  12.363
22607W        W94933  20.617  38.558   9.587
22608W        W94934  40.021   7.758   4.291
22609W        W94935  26.573  11.308   3.374
22610W        W94936  10.637  15.101  11.930
22611W        W94937  42.972  30.999   5.302
22612W        W94938   6.367   0.860  13.470
22613W        W94939  33.522  38.445  12.530
22614W        W94940  21.147  25.545   2.756
22615W        W94941  39.406  42.792  13.004
22616W        W94942  28.059   7.737  12.994
22617W        W94943  20.225   4.426  14.927
22618W        W94944   5.230  17.175  12.831
22619W        W94945  26.138  20.665   4.312
22620W        W94946  39.439  37.064  12.978
22621W        W94947   0.358  18.680   2.190
22622W        W94948  12.690  32.128   0.267
22623W        W94949  40.808   4.921  10.951
22624W        W94950   1.933  42.955  11.036
22625W        W94951  22.030  40.524   2.691
22626W        W94952   4.822  21.537   3.223
22627W        W94953  42.494  22.998  13.473
22628W        W94954   8.184  16.297   0.854
22629W        W94955  38.929  13.334  11.870
22630W        W94956  27.575   4.383  11.403
22631W        W94957  25.686   8.402   0.254
22632W        W94958  16.680  36.536   4.309
22633W        W94959  14.744  22.536  12.418
22634W        W94960   3.424   5.822   0.463
22635W        W94961  34.604  43.296   0.431
22636W        W94962  44.265  12.692  10.982
22637W        W94963  35.897  19.595  14.508
22638W        W94964   2.274  17.284   2.213
22639W        W94965  10.383  11.775  14.369
22640W        W94966   0.308  34.876  14.283
22641W        W94967  32.014   9.858  11.456
22642W        W94968  22.027  42.307  10.586
22643W        W94969  15.169  27.062  11.458
22644W        W94970   5.739  40.855  13.847
22645W        W94971  11.690   0.932  13.823
22646W        W94972  26.166  27.652   3.704
22647W        W94973  16.232  41.314  14.972
22648W        W94974  38.445  41.992   3.777
22649W        W94975  35.028  18.269  13.923
22650W        W94976  15.593  15.292  10.016
22651W        W94977  11.319  43.778   1.783
22652W        W94978  26.136  35.958  12.346
22653W        W94979   4.871  18.068   0.448
22654W        W94980  34.438  18.134  11.561
22655W        W94981  23.537  26.578   3.720
22656W        W94982  44.960  29.140   2.892
22657W        W94983  25.114  23.655  10.523
22658W        W94984  15.580  19.273  14.857
22659W        W94985  34.874  16.167   3.776
22660W        W94986  17.150  21.644   1.270
22661W        W94987  40.004  36.061   3.227
22662W        W94988  33.409   8.807  13.943
22663W        W94989  22.091  27.610  10.465
22664W        W94990   1.781   9.823  14.497
22665W        W94991  35.921   7.837  14.976
22666W        W94992  42.807  37.044   1.878
22667W        W94993  22.600  27.590  14.399
22668W        W94994  37.071  35.041   2.715
22669W        W94995  40.804  42.451   3.360
22670W        W94996  21.686  44.462   1.902
22671W        W94997  17.234  18.216  12.961
22672W        W94998  15.249  37.887   1.440
22673W        W94999  15.106  21.670   0.747
22674W        W95000   9.805  17.237   3.779
22675W        W95001  42.012   3.875  13.013
22676W        W95002  40.432  44.981  14.905
22677W        W95003  29.017   7.740   2.662
22678W        W95004  24.017   6.830  11.583
22679W        W95005  40.450  28.594  13.051
22680W        W95006   2.807  24.617   9.543
22681W        W95007  32.418  44.912  12.043
22682W        W95008  14.324  17.201   1.335
22683W        W95009  10.141  14.256  10.926
22684W        W95010  26.028  22.194   0.930
22685W        W95011  16.314  16.177   3.188
22686W        W95012  40.348   1.872   1.227
22687W        W95013  40.327   3.943  12.445
22688W        W95014  31.020   2.230   2.189
22689W        W95015  15.254   5.830   0.458
22690W        W95016   4.418  37.354  14.476
22691W        W95017  37.874   4.389   4.315
22692W        W95018  42.499   5.229   4.318
22693W        W95019  35.454  27.147  14.926
22694W        W95020  42.382  21.047   4.756
22695W        W95021   6.695  39.033   2.877
22696W        W95022   2.337  20.529   5.615
22697W        W95023  12.697  42.447   3.340
22698W        W95024  19.643  17.579  14.380
22699W        W95025  10.664  14.730  14.800
22700W        W95026  24.670  21.706  14.351
22701W        W95027   2.347  25.049   3.200
22702W        W95028   6.428  26.683  10.021
22703W        W95029  16.628   4.851  11.421
22704W        W95030   8.810  43.824   1.398
22705W        W95031  39.820  33.900   3.855
22706W        W95032  23.073  34.485  13.823
22707W        W95033  41.823  42.869   4.752
22708W        W95034   5.377  20.251  12.090
22709W        W95035  27.454  33.878   3.175
22710W        W95036  34.006  40.517   0.400
22711W        W95037   8.826   9.350  10.889
22712W        W95038   0.408  32.627   1.722
22713W        W95039  28.629  22.066   4.778
22714W        W95040  35.501   8.366   2.811
22715W        W95041   5.394  42.356  10.627
22716W        W95042  39.038  33.938   2.207
22717W        W95043  13.792  32.988  14.821
22718W        W95044  43.956  14.296   1.320
22719W        W95045  30.936   7.397   4.281
22720W        W95046  12.234  12.321  10.956
22721W        W95047  35.461  10.373  11.078
22722W        W95048  10.781  16.615  11.605
22723W        W95049  16.199  41.323  14.294
22724W        W95050  27.449  42.413  11.862
22725W        W95051  13.255  30.432   0.797
22726W        W95052  31.901  34.872   2.790
22727W        W95053  18.198   7.349  12.414
22728W        W95054   5.199  33.410  13.501
22729W        W95055  18.239   0.394  11.872
22730W        W95056  25.669  13.661   1.343
22731W        W95057  11.277  13.740   2.839
22732W        W95058  44.776  20.045   0.954
22733W        W95059  26.509  44.770  13.950
22734W        W95060   1.798  10.711   0.256
22735W        W95061   7.688  30.085  13.946
22736W        W95062  44.359  40.345   0.390
22737W        W95063  42.415  24.569   4.817
22738W        W95064   5.382  44.361  14.328
22739W        W95065  15.739   4.388   0.795
22740W        W95066  41.498   6.192   1.257
22741W        W95067  37.464  44.976  14.860
22742W        W95068  18.558  23.686   0.403
22743W        W95069  16.312  32.501   0.733
22744W        W95070  39.977  15.652   3.847
22745W        W95071  11.727  34.976   2.354
22746W        W95072  29.599  15.804  12.469
22747W        W95073  17.742  20.603  13.811
22748W        W95074   4.394   1.405   2.392
22749W        W95075  11.343  15.728  11.915
22750W        W95076  24.493   7.674  10.569
22751W        W95077  24.479  12.178   2.408
22752W        W95078   4.273  27.046   2.233
22753W        W95079   3.821  26.481   2.731
22754W        W95080  12.225  23.177  13.435
22755W        W95081  18.270   1.884  11.503
22756W        W95082   4.790  25.493  11.564
22757W        W95083   2.951  24.146  10.620
22758W        W95084  20.251  24.685   3.223
22759W        W95085  40.044  16.195   4.275
22760W        W95086  11.729   4.804   0.798
22761W        W95087  25.091   0.923   0.320
22762W        W95088   5.322  36.972   4.801
22763W        W95089   6.754  39.970   2.726
22764W        W95090   3.944  18.691   1.833
22765W        W95091  21.214  33.570   2.884
22766W        W95092  39.513  38.491   3.828
22767W        W95093  39.529  19.185   0.344
22768W        W95094  13.299   7.182   1.852
22769W        W95095  14.754  16.080  10.957
22770W        W95096   4.368   0.806   4.704
22771W        W95097  33.934   2.408  13.514
22772W        W95098  34.955  23.198   3.670
22773W        W95099  18.053  40.343  11.856
22774W        W95100  36.537   8.257   1.313
22775W        W95101  32.548  26.573   4.707
22776W        W95102   5.749  12.793  11.116
22777W        W95103  44.400   0.379   3.248
22778W        W95104  23.677  43.481  11.117
22779W        W95105  26.601  37.031   0.877
22780W        W95106  25.511  21.025  12.356
22781W        W95107  15.782  26.610   0.406
22782W        W95108  19.161  43.289  14.016
22783W        W95109  11.750  24.032   0.448
22784W        W95110  30.118   6.855  14.009
22785W        W95111  38.015  22.239   4.151
22786W        W95112  26.572  41.336   0.312
22787W        W95113  32.476  42.813   9.996
22788W        W95114  40.521  43.333  11.416
22789W        W95115  33.023  17.086  11.055
22790W        W95116  20.118   2.805   0.828
22791W        W95117  19.676   2.228   2.207
22792W        W95118  26.185  24.043   2.202
22793W        W95119  14.803  24.718   0.263
22794W        W95120  33.422   9.763   2.239
22795W        W95121  27.139  19.109  11.966
22796W        W95122   4.845  36.057  11.425
22797W        W95123  28.445  32.136  14.390
22798W        W95124  33.539  18.175   1.294
22799W        W95125  14.604  14.681   2.419
22800W        W95126  26.697  13.341   1.389
22801W        W95127   0.494   7.841   4.167
22802W        W95128  34.969  10.340   4.209
22803W        W95129  12.794  41.041   1.758
22804W        W95130  14.274  44.867  13.797
22805W        W95131   6.695   6.884  11.440
22806W        W95132  39.487   1.346   3.663
22807W        W95133  32.971  42.945   0.424
22808W        W95134  11.813  14.679  12.012
22809W        W95135  24.708  17.102   0.355
22810W        W95136  18.784   6.326   2.803
22811W        W95137  32.025   3.336  11.599
22812W        W95138  42.311  17.128   0.737
22813W        W95139  13.666  33.022   2.742
22814W        W95140   4.332  38.897   4.688
22815W        W95141  20.570  42.988   4.285
22816W        W95142  40.384   3.219   0.336
22817W        W95143  37.557  13.816   5.592
22818W        W95144  25.597  16.072   3.763
22819W        W95145   2.724  20.107   1.421
22820W        W95146  40.414  21.543   0.942
22821W        W95147  39.466  44.974   2.178
22822W        W95148  17.695  37.957   3.843
22823W        W95149  16.643  24.070  11.094
22824W        W95150  13.706  10.190  13.038
22825W        W95151  43.868  23.038   3.772
22826W        W95152  17.686  24.997  11.581
22827W        W95153  33.008   1.480   2.819
22828W        W95154  28.093  34.583   1.706
22829W        W95155  28.621   1.920   3.233
22830W        W95156  43.288  24.032  12.998
22831W        W95157   0.778  10.262  11.020
22832W        W95158  16.161  29.156   2.390
22833W        W95159   6.684   9.386   1.409
22834W        W95160   1.309   3.743   4.331
22835W        W95161  27.471  29.162   0.243
22836W        W95162  44.279  11.183  13.903
22837W        W95163  27.133   3.947  14.907
22838W        W95164   8.275  39.060   2.249
22839W        W95165   3.442  16.117   3.200
22840W        W95166  41.387  43.938   3.767
22841W        W95167  20.084  30.627   3.755
22842W        W95168  27.534  36.885  11.861
22843W        W95169  10.140  10.861   2.746
22844W        W95170   1.441  19.197  12.391
22845W        W95171   4.787  15.321   2.736
22846W        W95172   5.402  36.033   1.421
22847W        W95173   4.815  43.289  11.505
22848W        W95174  14.212  34.869  12.986
22849W        W95175  34.554  30.415  11.966
22850W        W95176  34.494  33.409   2.253
22851W        W95177  17.674   1.395   1.813
22852W        W95178   0.781   3.807   1.284
22853W        W95179  21.170  33.618  12.502
22854W        W95180  22.530  25.133   3.228
22855W        W95181  35.882  24.070   4.767
22856W        W95182  14.788  32.427   2.703
22857W        W95183   4.915  30.993  11.437
22858W        W95184  21.643  12.634  13.921
22859W        W95185  39.356  27.979  14.387
22860W        W95186  29.126  27.197   3.155
22861W        W95187  16.748  40.523   2.266
22862W        W95188  14.639  17.108   0.420
22863W        W95189  43.911  37.535  11.531
22864W        W95190  37.881  29.459  14.836
22865W        W95191  25.689  28.680  11.552
22866W        W95192  41.019  28.036   3.638
22867W        W95193  27.501  36.542   2.774
22868W        W95194   9.394  33.380   2.179
22869W        W95195  27.193  30.132  10.974
22870W        W95196  42.787  36.391   3.361
22871W        W95197  24.013  36.491   0.472
22872W        W95198  39.027  42.496   2.843
22873W        W95199  15.786  13.136   2.885
22874W        W95200   0.401  18.765  13.524
22875W        W95201  14.231  30.914   3.635
22876W        W95202  18.152  29.521   2.755
22877W        W95203  33.584  23.137   3.840
22878W        W95204  31.956  43.916   1.866
22879W        W95205  28.556  33.874  10.900
22880W        W95206  18.084   3.286   4.751
22881W        W95207   0.410  34.116  12.350
22882W        W95208   9.221  19.544  11.443
22883W        W95209  29.982   2.257  14.971
22884W        W95210   3.940  11.776   2.366
22885W        W95211   5.275  39.898  14.787
22886W        W95212  22.699  42.521  14.294
22887W        W95213  22.647  42.921  10.079
22888W        W95214  27.616  24.593  13.975
22889W        W95215  36.388  36.396   3.204
22890W        W95216   0.348  13.275  12.531
22891W        W95217  18.644  14.197  13.923
22892W        W95218  13.123   1.286   4.615
22893W        W95219  38.061   0.892   2.408
22894W        W95220  28.579  10.363   1.889
22895W        W95221  43.936   8.268  11.928
22896W        W95222  40.504   4.868   3.229
22897W        W95223  32.599   4.327  11.037
22898W        W95224  21.647   9.773   2.806
22899W        W95225  24.227  43.511   3.207
22900W        W95226  26.025  32.027   4.130
22901W        W95227  16.096  23.510  14.855
22902W        W95228  34.096   4.732  11.026
22903W        W95229   4.450   3.782  13.865
22904W        W95230  38.826   0.893  11.906
22905W        W95231  37.387  38.956  13.367
22906W        W95232  42.008  32.946  11.062
22907W        W95233   5.695  40.493  10.428
22908W        W95234  44.813  16.781  12.999
22909W        W95235  35.372  36.053   5.641
22910W        W95236  30.086  32.122  12.435
22911W        W95237   3.332   7.300   3.379
22912W        W95238  19.737  17.128   2.271
22913W        W95239  17.133  36.080  11.436
22914W        W95240  13.712  31.474  12.453
22915W        W95241  25.107   1.412  13.892
22916W        W95242  16.713   2.961   3.855
22917W        W95243   6.222  25.598  13.354
22918W        W95244  30.636  36.966   1.248
22919W        W95245  43.318   4.335   2.320
22920W        W95246  19.210  20.683  14.457
22921W        W95247  24.192  42.360   4.724
22922W        W95248  16.248  34.603   4.729
22923W        W95249  12.167  13.285   3.834
22924W        W95250  10.752  27.494  11.500
22925W        W95251  43.829  24.503   2.356
22926W        W95252   9.196  30.621   3.810
22927W        W95253   1.304  21.090  13.500
22928W        W95254   9.218  17.732   2.266
22929W        W95255  22.067  16.252  11.079
22930W        W95256  26.620  18.216  10.086
22931W        W95257  34.534   9.785  11.559
22932W        W95258  13.266  38.461   3.307
22933W        W95259   2.331  33.000  10.596
22934W        W95260  14.194  37.396  13.477
22935W        W95261  16.575  27.604  10.513
22936W        W95262  23.608   1.847  11.979
22937W        W95263  37.942   1.951  14.275
22938W        W95264  36.044   8.656   4.289
22939W        W95265  12.184  38.970   4.738
22940W        W95266  36.446  12.260  12.023
22941W        W95267  42.504  34.889  10.482
22942W        W95268  36.456   7.214   3.335
22943W        W95269  42.830   2.790   4.733
22944W        W95270  24.670   0.415   3.716
22945W        W95271  20.269  21.663  14.991
22946W        W95272  14.794  19.187   3.659
22947W        W95273  34.964   0.321  14.993
22948W        W95274  38.903  34.527  10.943
22949W        W95275  32.894   1.911   1.890
22950W        W95276  23.493  10.233   1.406
22951W        W95277  40.536  14.118  11.865
22952W        W95278  17.650  30.429   3.182
22953W        W95279  20.568  33.617  12.967
22954W        W95280  38.560   4.740  12.498
22955W        W95281  15.267  26.960   2.238
22956W        W95282  28.618  21.724  12.450
22957W        W95283  34.597  15.580   4.327
22958W        W95284  21.598  27.066  13.056
22959W        W95285   1.743  41.350  10.894
22960W        W95286  15.329  24.022  12.051
22961W        W95287  37.032   6.253   0.968
22962W        W95288  26.657  10.667   0.386
22963W        W95289   9.163   2.375   0.457
22964W        W95290  14.319  14.324   0.482
22965W        W95291  40.812   3.936   4.260
22966W        W95292   4.810  10.192  10.501
22967W        W95293  19.763  17.727   1.830
22968W        W95294  29.923   1.324   2.199
22969W        W95295   2.762  34.973   1.347
22970W        W95296   4.902   0.805  11.908
22971W        W95297  20.639   3.808  14.913
22972W        W95298  10.651  16.760  12.868
22973W        W95299  14.319  44.926  11.857
22974W        W95300  18.143   0.484   3.766
22975W        W95301  38.884  21.725  14.318
22976W        W95302  24.646  11.278   2.737
22977W        W95303  12.282   4.711   4.611
22978W        W95304   9.727  22.184   0.926
22979W        W95305   7.230  29.024  11.480
22980W        W95306  27.682  23.051  12.012
22981W        W95307  15.685  38.555  12.845
22982W        W95308  27.538  28.483   3.667
22983W        W95309  32.427  38.462  11.101
22984W        W95310   8.340  38.518   1.320
22985W        W95311  24.480  39.378  10.538
22986W        W95312  44.785  38.370  11.510
22987W        W95313  10.317  35.970   3.188
22988W        W95314  31.636  31.410  14.322
22989W        W95315  35.496   7.397   4.807
22990W        W95316  19.111  25.562   2.294
22991W        W95317   8.392  38.525   4.679
22992W        W95318   3.952  41.991  12.485
22993W        W95319  39.339  41.424  11.414
22994W        W95320  41.341  40.927   3.746
22995W        W95321  12.703   0.455  10.557
22996W        W95322  43.382  31.412   2.739
22997W        W95323  10.238  30.425   5.083
22998W        W95324  40.018   8.250   2.293
22999W        W95325  18.761  25.972  14.991
23000W        W95326  12.648   4.449   2.414
23001W        W95327  25.963   0.890   2.213
23002W        W95328  11.357  13.833  13.312
23003W        W95329  29.604  35.892   4.129
23004W        W95330  37.413  33.606   1.787
23005W        W95331  22.186  17.125  10.570
23006W        W95332  44.847  28.532  13.835
23007W        W95333  43.453  39.894  11.892
23008W        W95334  44.825   1.738   0.253
23009W        W95335  15.186  30.159   3.817
23010W        W95336  17.250  26.583  10.154
23011W        W95337  36.532   6.355   5.293
23012W        W95338  22.692  28.031  10.140
23013W        W95339  29.658  17.776  13.354
23014W        W95340  21.184  44.435  11.126
23015W        W95341  22.531  35.370   0.740
23016W        W95342  37.055   1.448  11.936
23017W        W95343  15.798  13.249   1.275
23018W        W95344  38.541  44.844   1.888
23019W        W95345  28.488  23.729  12.456
23020W        W95346  25.517   9.799  14.312
23021W        W95347  32.546  23.191   4.265
23022W        W95348   4.420  22.616   1.426
23023W        W95349  38.468  15.217  11.925
23024W        W95350  34.096  42.320   0.891
23025W        W95351  15.606  25.482   3.671
23026W        W95352  32.571   5.719   3.712
23027W        W95353  12.663  33.093  12.458
23028W        W95354  16.617   8.211   1.448
23029W        W95355  27.956   1.826   4.237
23030W        W95356   1.875  15.247   3.159
23031W        W95357  25.608  16.293  14.422
23032W        W95358  25.477  42.974   2.265
23033W        W95359  35.871  39.441   3.827
23034W        W95360   4.845  29.628  13.910
23035W        W95361  23.091  27.033   3.309
23036W        W95362  25.041  28.590   1.245
23037W        W95363  41.497   4.436  13.989
23038W        W95364  36.418  32.092  14.761
23039W        W95365  18.673  36.503  11.119
23040W        W95366  43.014  43.327  12.532
23041W        W95367  38.457  33.109   3.352
23042W        W95368  13.715   2.791   2.241
23043W        W95369  21.046  39.460  10.051
23044W        W95370   6.372  33.073   4.315
23045W        W95371   6.887  23.579   4.641
23046W        W95372   6.805  15.210  13.394
23047W        W95373  10.159  23.566   4.831
23048W        W95374  34.938  40.505   4.817
23049W        W95375   8.855  22.128  14.928
23050W        W95376   4.307   5.253  12.046
23051W        W95377   5.283  30.960  12.439
23052W        W95378  22.532  15.730  13.333
23053W        W95379  25.021  22.630  11.027
23054W        W95380   7.708  42.299  13.366
23055W        W95381   2.256   4.318   0.276
23056W        W95382  33.910   6.849  12.495
23057W        W95383  19.556  24.642  12.541
23058W        W95384  10.664  16.129  10.513
23059W        W95385   9.226  11.152  12.391
23060W        W95386  42.001  20.264  12.928
23061W        W95387   7.308  25.516  13.519
23062W        W95388  29.119  28.553   1.896
23063W        W95389  11.632  12.680   1.323
23064W        W95390  35.090   1.862  10.553
23065W        W95391  39.906  24.978  11.076
23066W        W95392   8.745  25.642   2.691
23067W        W95393   3.931  42.832   2.366
23068W        W95394   5.879   9.786   0.923
23069W        W95395  23.107  11.160   0.959
23070W        W95396   4.835   3.907  13.929
23071W        W95397  29.660  32.588  13.855
23072W        W95398  38.362  39.918   0.324
23073W        W95399   5.906  30.613  13.330
23074W        W95400  35.363  34.410  14.311
23075W        W95401  40.891  31.076   4.644
23076W        W95402  14.306  29.473  10.937
23077W        W95403  28.613  20.727   2.712
23078W        W95404  14.317   7.734  13.976
23079W        W95405  28.110  40.408   4.745
23080W        W95406  12.188   2.865  13.934
23081W        W95407  40.445  35.569  11.386
23082W        W95408  23.521   6.188   0.816
23083W        W95409  11.688  35.373  13.469
23084W        W95410  43.400  30.117   1.859
23085W        W95411  18.690  28.496  11.522
23086W        W95412  42.956  19.637   0.371
23087W        W95413   0.470  14.193   3.652
23088W        W95414  31.912  24.637   0.937
23089W        W95415   6.921  25.508   1.234
23090W        W95416  38.968  11.365  11.888
23091W        W95417  15.290  31.965   5.238
23092W        W95418  30.919  41.958   3.819
23093W        W95419   5.370   7.277   0.915
23094W        W95420   2.821  42.908   4.615
23095W        W95421  13.658  30.555  12.580
23096W        W95422   5.698  27.662   4.219
23097W        W95423   2.761  29.098   0.961
23098W        W95424  40.343  25.556  13.945
23099W        W95425  35.953  15.276  10.943
23100W        W95426  18.652   8.772   2.714
23101W        W95427  38.558  40.993  13.037
23102W        W95428  31.989  19.687  12.866
23103W        W95429  12.836  37.889   2.902
23104W        W95430  44.819  32.085   2.695
23105W        W95431   6.859  10.253  10.900
23106W        W95432  15.158   2.922  12.082
23107W        W95433  33.560  27.107  12.473
23108W        W95434  21.040   8.788  13.037
23109W        W95435  38.446   7.277   1.901
23110W        W95436  17.103   8.882   5.146
23111W        W95437  21.036  28.482   3.799
23112W        W95438  42.476  27.194   2.284
23113W        W95439   8.741  25.985   3.762
23114W        W95440  16.718  24.124  13.477
23115W        W95441  18.752  30.081  11.939
23116W        W95442  39.910   7.287   2.820
23117W        W95443  19.752   1.759   3.756
23118W        W95444  29.167  10.299   1.876
23119W        W95445   6.224   7.837   2.196
23120W        W95446   9.798  24.987  14.462
23121W        W95447   9.738   9.256  13.330
23122W        W95448  31.905   2.464  13.955
23123W        W95449  10.798  20.728  13.863
23124W        W95450  18.151  20.059  14.475
23125W        W95451   1.438  23.004   5.147
23126W        W95452  17.161  18.292   1.757
23127W        W95453  35.077  15.710   2.885
23128W        W95454  43.314  31.526   4.237
23129W        W95455  32.397  30.429   4.273
23130W        W95456  11.172  15.582  10.559
23131W        W95457  44.343  18.192  10.403
23132W        W95458  24.623  39.317   5.715
23133W        W95459  44.901  19.622  10.484
23134W        W95460  23.609  26.528  13.004
23135W        W95461   3.903   5.928   1.921
23136W        W95462  42.885  20.621   0.840
23137W        W95463  35.870  21.037   9.924
23138W        W95464  25.003   7.262   2.766
23139W        W95465  18.701  13.132  12.983
23140W        W95466  19.694   5.384  14.358
23141W        W95467  15.771  36.576  11.963
23142W        W95468  18.096  35.478  13.447
23143W        W95469  20.594  23.167  10.914
23144W        W95470  32.126  28.164  13.825
23145W        W95471   9.865  10.825  13.967
23146W        W95472  41.850  31.460  13.390
23147W        W95473  33.523  31.541   1.710
23148W        W95474   0.982  42.977   0.450
23149W        W95475  27.582   2.934   0.883
23150W        W95476  28.022  31.087   3.783
23151W        W95477   7.224  37.481  11.064
23152W        W95478  34.108  43.943  11.435
23153W        W95479  29.485  11.670   4.686
23154W        W95480   9.192   3.429   4.186
23155W        W95481  12.259  21.641   3.254
23156W        W95482  10.718  15.675   3.739
23157W        W95483   8.290  32.944  11.071
23158W        W95484  30.090  24.131   4.730
23159W        W95485  30.028   8.768  14.812
23160W        W95486  39.553  27.685   4.213
23161W        W95487  11.716  12.164  13.023
23162W        W95488  43.967   9.671   4.239
23163W        W95489  19.651   4.364   9.955
23164W        W95490  30.580  28.112   0.882
23165W        W95491  12.760  21.114   1.737
23166W        W95492  18.053  28.183   2.270
23167W        W95493   9.678  31.962  11.931
23168W        W95494  28.652  32.573  11.458
23169W        W95495  37.922  17.133   0.414
23170W        W95496  12.661   8.393  14.889
23171W        W95497  38.410  40.014   3.181
23172W        W95498  30.979  26.659  11.517
23173W        W95499  16.314  14.709   0.846
23174W        W95500   2.803   7.379  14.002
23175W        W95501  23.667  39.349  10.503
23176W        W95502  26.063  15.670  11.599
23177W        W95503  32.891  31.899  13.377
23178W        W95504  44.921  11.255  13.881
23179W        W95505  40.513  27.045   2.182
23180W        W95506  37.023  17.672  12.065
23181W        W95507  27.548  21.139  11.067
23182W        W95508  15.802   3.446   2.803
23183W        W95509  34.509   8.810   4.639
23184W        W95510   4.710  29.975   3.817
23185W        W95511  32.553  30.419  11.075
23186W        W95512  18.185  31.900  11.580
23187W        W95513  20.253  14.331  11.088
23188W        W95514  44.844  28.043   4.682
23189W        W95515   5.361  42.931   2.735
23190W        W95516  32.105   3.769  13.866
23191W        W95517  35.398  15.695   2.380
23192W        W95518  35.040  32.531  12.998
23193W        W95519  39.865  14.659  11.075
23194W        W95520  23.556  30.054   1.214
23195W        W95521  35.505  17.615  14.860
23196W        W95522  29.103  30.537   4.655
23197W        W95523  38.996  31.614   4.631
23198W        W95524  41.790   3.288  11.929
23199W        W95525  15.763   4.252   1.251
23200W        W95526  11.325  13.189   1.385
23201W        W95527  29.044   1.339   1.872
23202W        W95528  11.636  15.284  13.469
23203W        W95529  21.574  41.292   1.932
23204W        W95530  33.051  28.051  11.491
23205W        W95531  13.690  33.491   3.831
23206W        W95532  38.006  16.242   4.201
23207W        W95533  15.727  33.623  14.313
23208W        W95534  23.573  43.860  13.498
23209W        W95535  32.896  17.562  10.510
23210W        W95536  26.044  11.629   1.391
23211W        W95537  38.926  12.630  13.830
23212W        W95538  18.173  42.982   0.318
23213W        W95539   5.762  17.198   3.329
23214W        W95540  23.102  39.481   1.879
23215W        W95541  37.501  30.425   0.911
23216W        W95542   4.317  15.102   1.393
23217W        W95543  15.720  12.345   1.289
23218W        W95544  23.684  41.820   4.176
23219W        W95545  12.826   0.792  14.417
23220W        W95546   3.261  14.098  13.402
23221W        W95547  25.542  25.202  14.887
23222W        W95548  33.624  44.797  10.466
23223W        W95549  17.664   9.394  12.550
23224W        W95550  19.105  44.358   3.817
23225W        W95551  30.137  34.089   0.297
23226W        W95552  40.038  11.693  10.479
23227W        W95553  23.099  32.480  12.087
23228W        W95554  28.962  28.602  11.000
23229W        W95555  11.145  13.654  13.968
23230W        W95556  39.408  18.716  12.915
23231W        W95557  33.956   2.830  13.528
23232W        W95558   7.224   0.788  11.494
23233W        W95559  30.042  24.138  11.887
23234W        W95560  11.234   3.293  12.348
23235W        W95561  39.826   2.309  12.869
23236W        W95562   2.859  28.175   4.660
23237W        W95563   2.837  11.149   4.232
23238W        W95564  39.848  33.129  11.454
23239W        W95565  12.850  30.497   2.864
23240W        W95566  20.759  24.718  12.422
23241W        W95567  44.347  26.675   1.436
23242W        W95568  13.685   6.362  13.797
23243W        W95569  35.864  14.763   4.667
23244W        W95570  25.101  14.312  13.851
23245W        W95571  27.963  43.437  11.001
23246W        W95572  15.295   3.445   0.455
23247W        W95573  20.165  30.608   4.816
23248W        W95574   2.726  41.443  12.990
23249W        W95575  12.118  44.373   1.373
23250W        W95576   8.751  28.436  11.446
23251W        W95577   4.435  28.077  13.397
23252W        W95578  32.454  14.154  11.894
23253W        W95579  25.204  18.151  13.524
23254W        W95580   7.235  21.177  12.917
23255W        W95581   9.651   8.298  11.883
23256W        W95582  35.021  24.651   0.826
23257W        W95583  43.928   3.341   1.867
23258W        W95584  29.131  43.474  13.412
23259W        W95585   0.796   4.236  11.892
23260W        W95586   1.256   7.394  14.974
23261W        W95587  35.475  16.212   4.309
23262W        W95588  13.686  40.830  12.907
23263W        W95589  37.952  17.288  11.534
23264W        W95590   6.893  20.188  12.480
23265W        W95591  12.662   9.265   3.324
23266W        W95592  31.970  17.230   3.740
23267W        W95593   5.295  19.773  10.969
23268W        W95594  27.450  28.544  14.328
23269W        W95595  20.646  10.853   2.212
23270W        W95596   8.742  23.185   4.166
23271W        W95597  13.235  13.786  14.882
23272W        W95598   7.303  16.784  12.007
23273W        W95599  17.117  12.296   4.345
23274W        W95600  18.744  42.791  14.912
23275W        W95601  35.036  25.963  14.948
23276W        W95602  29.507  17.694  11.606
23277W        W95603  31.605  20.051   4.324
23278W        W95604  43.278  18.224   4.258
23279W        W95605  37.522   4.909  12.413
23280W        W95606  15.705  23.042   3.338
23281W        W95607  27.967  15.128  13.320
23282W        W95608  18.189  32.997   3.750
23283W        W95609  14.125  43.910  14.803
23284W        W95610  31.485  24.659  12.919
23285W        W95611  27.946   5.281  14.904
23286W        W95612  39.549   4.772  12.366
23287W        W95613  40.523   0.859  13.989
23288W        W95614   7.400   8.228  11.577
23289W        W95615  24.197  21.649  14.953
23290W        W95616   7.896  14.194  12.059
23291W        W95617  34.121   5.801   2.826
23292W        W95618   6.761  18.082  10.945
23293W        W95619  11.758  37.976   2.675
23294W        W95620   0.264   3.436  11.941
23295W        W95621  13.243  26.095   3.366
23296W        W95622  41.381  21.103  13.793
23297W        W95623  36.030  34.078  14.019
23298W        W95624  20.694  22.707   3.257
23299W        W95625  20.131  26.514   0.360
23300W        W95626  26.143   4.402   3.650
23301W        W95627  15.736   9.370   2.812
23302W        W95628  32.904   0.411   0.799
23303W        W95629  20.081  34.517   3.355
23304W        W95630  37.506   9.705  13.482
23305W        W95631  13.801  40.375  12.439
23306W        W95632  33.041  11.299  13.312
23307W        W95633  26.145   4.768   3.204
23308W        W95634  17.061  12.228  10.044
23309W        W95635  25.063   4.751  10.421
23310W        W95636  12.729  22.656   5.127
23311W        W95637  12.321   7.408   3.649
23312W        W95638  26.611   4.767   1.353
23313W        W95639  29.081  28.632  11.443
23314W        W95640  37.543   2.233   1.323
23315W        W95641  24.628  30.046   1.743
23316W        W95642  43.011  16.585   0.791
23317W        W95643  22.030  41.431  13.906
23318W        W95644   0.812  24.495   3.152
23319W        W95645  40.549  24.066   5.265
23320W        W95646   9.743  24.583   1.350
23321W        W95647  21.239  10.842   3.637
23322W        W95648  36.370  29.122  10.540
23323W        W95649  20.065  25.072   3.746
23324W        W95650  41.292   6.779   4.282
23325W        W95651  24.604  32.527  10.552
23326W        W95652  42.893   5.744  14.987
23327W        W95653   6.242  44.009  14.827
23328W        W95654   3.815   7.837   3.164
23329W        W95655  34.019  43.850   1.872
23330W        W95656  31.936  28.946   4.178
23331W        W95657  42.930  23.669  10.576
23332W        W95658  30.627  44.481  11.374
23333W        W95659  22.647  25.118  12.519
23334W        W95660  25.985   0.439  14.867
23335W        W95661  37.409  22.689   5.189
23336W        W95662  10.370  39.062   0.964
23337W        W95663  43.288  31.550  13.466
23338W        W95664  34.456   6.365  12.023
23339W        W95665  42.351   7.834   3.359
23340W        W95666   2.401  34.045  10.457
23341W        W95667  16.627  39.997   0.334
23342W        W95668   2.335   4.404   2.670
23343W        W95669  23.194   4.889   1.295
23344W        W95670  31.464  10.231   4.799
23345W        W95671  26.638   2.727   2.216
23346W        W95672  13.292  12.124  13.058
23347W        W95673  14.639  13.739   0.324
23348W        W95674  19.264  20.560  11.383
23349W        W95675  24.500  40.829   2.266
23350W        W95676  27.584  20.237   4.228
23351W        W95677  37.551  25.967   1.423
23352W        W95678   1.815   5.410   2.419
23353W        W95679  34.019   8.169  14.007
23354W        W95680   5.297  40.993  14.942
23355W        W95681   5.900  31.450  12.941
23356W        W95682  26.467  37.364  13.949
23357W        W95683  24.129  27.516  13.380
23358W        W95684  27.571  36.371  14.476
23359W        W95685  17.776   4.860  10.953
23360W        W95686   4.234  23.041   4.795
23361W        W95687  15.722  11.665  13.337
23362W        W95688  33.625   7.714  11.394
23363W        W95689  15.704  35.018  13.901
23364W        W95690  32.477  16.090   1.848
23365W        W95691  24.599  25.133   4.607
23366W        W95692  23.180  29.033   0.863
23367W        W95693  35.867  23.618  13.311
23368W        W95694  16.601   1.290   3.226
23369W        W95695  35.464  37.026   1.312
23370W        W95696  32.026   9.647   0.268
23371W        W95697  16.613  18.705  13.499
23372W        W95698  40.428  23.554  11.882
23373W        W95699  28.572  37.341   3.785
23374W        W95700   0.777  42.281  10.977
23375W        W95701  17.294  12.267  12.546
23376W        W95702  41.431  40.909   0.300
23377W        W95703  10.321  26.017  11.887
23378W        W95704   9.822  29.447  10.587
23379W        W95705  35.978  44.853  13.457
23380W        W95706   3.429  21.557   1.378
23381W        W95707  24.149  31.031  11.042
23382W        W95708   9.676  22.058   3.301
23383W        W95709  26.524  35.049  11.415
23384W        W95710  20.064  22.221   1.432
23385W        W95711  31.533  41.018  14.366
23386W        W95712  44.999  13.727  12.852
23387W        W95713   4.869  28.652   3.201
23388W        W95714  10.689   5.337   3.797
23389W        W95715  11.804  15.805  12.898
23390W        W95716  10.262  20.200  11.533
23391W        W95717  11.351  25.480  11.553
23392W        W95718  27.561   2.364   1.893
23393W        W95719  14.185  21.734  14.816
23394W        W95720  32.920  21.657   4.284
23395W        W95721  38.508  22.099   2.272
23396W        W95722  35.988  35.062  11.862
23397W        W95723   6.876  10.175  14.357
23398W        W95724  33.393  26.028  12.497
23399W        W95725  23.526  40.412  11.493
23400W        W95726  28.506  38.879  11.587
23401W        W95727  39.934  32.958   3.165
23402W        W95728  29.987  39.450  10.572
23403W        W95729  16.253  30.157  12.832
23404W        W95730  10.634  21.720  11.385
23405W        W95731  24.143  34.507   3.805
23406W        W95732  28.648  30.040   0.905
23407W        W95733  40.890  10.796  12.925
23408W        W95734  24.525  30.497  13.923
23409W        W95735   4.870   9.153  14.810
23410W        W95736   4.331  35.034  14.425
23411W        W95737  34.568  28.437   3.867
23412W        W95738   3.788  18.224  11.994
23413W        W95739   2.820  15.741   3.777
23414W        W95740   4.829  44.415   1.731
23415W        W95741  44.947  30.999   1.756
23416W        W95742  14.203   0.488  12.515
23417W        W95743  41.028  13.280  12.826
23418W        W95744   3.839  29.096   4.154
23419W        W95745  42.859   3.913   3.239
23420W        W95746  22.632  15.776   0.444
23421W        W95747   5.852  21.060  13.043
23422W        W95748  20.197  36.072   1.851
23423W        W95749  14.141  38.486   2.667
23424W        W95750  12.291  25.113   0.357
23425W        W95751  39.966   3.456   4.195
23426W        W95752  28.049  16.599  13.037
23427W        W95753  36.445  21.560   0.801
23428W        W95754  34.549   1.241   0.740
23429W        W95755  23.537  10.768  11.095
23430W        W95756  29.137  29.427   0.283
23431W        W95757  37.540  24.019   3.717
23432W        W95758  13.124  33.063  11.380
23433W        W95759  34.119  18.766   2.686
23434W        W95760  25.606   4.360   1.277
23435W        W95761  24.489  15.137  10.020
23436W        W95762  31.543  32.886  12.970
23437W        W95763  28.547  34.091   0.435
23438W        W95764  26.152  21.191  13.400
23439W        W95765  13.630  16.115   2.766
23440W        W95766  38.440  13.189   1.928
23441W        W95767  22.708   0.830   2.337
23442W        W95768  24.227  24.706  10.936
23443W        W95769  16.095  36.552   3.236
23444W        W95770  36.470  32.623  12.474
23445W        W95771  17.240  14.156  11.079
23446W        W95772  28.959  17.083  11.537
23447W        W95773   1.899  22.064  13.824
23448W        W95774  41.858  22.562   4.353
23449W        W95775  36.377  31.060   2.887
23450W        W95776  34.980   6.328   5.101
23451W        W95777   8.350  29.518  13.925
23452W        W95778  36.456  12.850   1.828
23453W        W95779   8.783  35.489   2.181
23454W        W95780  12.133  18.789   1.330
23455W        W95781  18.636  27.944  13.960
23456W        W95782  43.398   8.760   3.660
23457W        W95783  14.237  24.165   3.150
23458W        W95784  20.613   5.336  11.381
23459W        W95785  44.359  34.004   3.856
23460W        W95786  36.408  44.430   1.711
23461W        W95787  43.358  33.082  14.868
23462W        W95788   3.823   8.399   2.208
23463W        W95789  30.077  26.529   1.703
23464W        W95790  27.495  39.494  14.026
23465W        W95791  25.501  16.694   4.712
23466W        W95792  20.569  35.390  13.800
23467W        W95793  25.637  15.315   1.244
23468W        W95794  23.636  32.099   4.145
23469W        W95795  31.429  30.431   1.914
23470W        W95796  40.962   4.224   0.867
23471W        W95797  24.488  36.018   1.319
23472W        W95798  17.719  44.272  14.839
23473W        W95799   1.363   3.324  10.619
23474W        W95800  43.496  41.841   3.342
23475W        W95801  35.939   5.750  11.550
23476W        W95802  16.189   5.297   4.193
23477W        W95803  29.037  22.073  13.975
23478W        W95804  30.073  13.296  14.278
23479W        W95805  31.466  33.517  10.640
23480W        W95806  44.991   0.822   3.237
23481W        W95807   0.389   8.665   2.700
23482W        W95808   8.807  41.874   2.274
23483W        W95809  35.988  17.680  13.900
23484W        W95810  28.634   7.229   3.818
23485W        W95811  31.006  36.052   2.828
23486W        W95812  22.579  36.868  14.937
23487W        W95813   1.880  12.264   2.777
23488W        W95814   0.887  41.977  12.414
23489W        W95815  27.132   2.954   3.804
23490W        W95816  10.794  43.392   0.427
23491W        W95817  15.225  29.037   3.382
23492W        W95818  38.839  17.598   0.860
23493W        W95819  19.678  28.478   2.774
23494W        W95820  18.696  16.648  14.805
23495W        W95821  22.713  30.635  12.035
23496W        W95822   2.860   9.366  14.030
23497W        W95823  22.221  35.464  10.621
23498W        W95824  31.465  20.597   2.746
23499W        W95825   8.311  34.383   4.692
23500W        W95826  16.734  19.711   4.192
23501W        W95827   7.713  21.629   0.377
23502W        W95828   2.382  22.674   3.710
23503W        W95829  18.569  31.641  11.389
23504W        W95830  13.347  44.866  14.763
23505W        W95831  22.667  40.895  12.034
23506W        W95832  22.556  28.020   2.339
23507W        W95833  39.880   9.741   0.450
23508W        W95834  13.124   5.288  11.524
23509W        W95835  27.158   6.337  14.870
23510W        W95836  40.361  24.602   3.172
23511W        W95837  22.515  38.887   1.702
23512W        W95838  12.816  28.131  11.874
23513W        W95839  43.350  28.963  13.905
23514W        W95840  34.928  10.831   2.186
23515W        W95841   9.311  23.985  10.550
23516W        W95842  44.319  23.224   4.674
23517W        W95843  41.333  12.702  12.470
23518W        W95844  22.088   1.861  14.296
23519W        W95845  13.115  14.619  10.510
23520W        W95846  14.179  25.175   2.767
23521W        W95847  25.524  42.935   1.314
23522W        W95848   7.666  44.826  14.940
23523W        W95849   8.343  42.336  13.812
23524W        W95850  39.046  38.463   3.848
23525W        W95851  16.108  38.341  13.048
23526W        W95852  12.739  26.156  12.885
23527W        W95853  23.110  23.674  14.000
23528W        W95854  42.436  28.968   4.822
23529W        W95855   0.388  37.445   0.316
23530W        W95856  43.416  29.527  14.847
23531W        W95857  23.067  17.792   2.836
23532W        W95858  30.099  20.676  13.956
23533W        W95859  33.454  28.462  12.030
23534W        W95860  31.430   0.285  12.509
23535W        W95861  16.192  14.319  14.975
23536W        W95862  42.293  36.581  14.380
23537W        W95863  33.430  27.004   0.758
23538W        W95864  36.413   5.835  14.419
23539W        W95865  40.862  26.703  13.375
23540W        W95866  41.841  39.817  14.348
23541W        W95867  14.659  35.981  13.971
23542W        W95868   4.344  20.030  11.376
23543W        W95869  35.004  43.445  10.507
23544W        W95870  12.666  33.401  13.427
23545W        W95871  15.654   7.205   0.252
23546W        W95872  14.268  15.171   1.734
23547W        W95873   7.244  31.078  12.988
23548W        W95874  21.230   3.367  12.001
23549W        W95875  44.815  40.980  10.930
23550W        W95876  28.039  41.968  10.008
23551W        W95877  30.139  16.252   0.863
23552W        W95878  18.275  29.427  13.827
23553W        W95879   5.410   9.156  12.432
23554W        W95880   1.257  27.001   1.323
23555W        W95881   9.278  44.803  12.557
23556W        W95882  30.082  14.145  14.285
23557W        W95883  11.684  19.544   0.741
23558W        W95884  39.540  26.127   1.901
23559W        W95885  40.496   1.924  11.493
23560W        W95886  23.212  34.500  14.407
23561W        W95887  42.829  12.200   2.681
23562W        W95888  38.884   8.281   1.272
23563W        W95889   7.260  16.813   0.875
23564W        W95890  14.772  36.560   5.128
23565W        W95891  19.729  20.179   1.321
23566W        W95892  16.716  28.053  11.082
23567W        W95893  10.258  17.672   3.851
23568W        W95894  31.477  39.386  11.119
23569W        W95895  44.777  35.468   4.259
23570W        W95896  31.425  11.670  10.614
23571W        W95897  15.099  23.617  13.948
23572W        W95898  44.964   0.952   3.639
23573W        W95899   5.302   2.344  10.897
23574W        W95900   8.739  36.031   3.158
23575W        W95901  44.942  34.028   4.214
23576W        W95902   3.370  19.763  10.922
23577W        W95903  36.091  44.780   2.254
23578W        W95904   5.405  31.986   4.658
23579W        W95905  22.667  25.658   0.242
23580W        W95906  38.536  20.755   3.177
23581W        W95907  10.278  18.583  12.357
23582W        W95908  23.516  16.244   1.226
23583W        W95909   9.244  30.998   0.360
23584W        W95910  44.492  25.669   9.963
23585W        W95911  26.520  15.813  10.939
23586W        W95912  28.607   0.342   1.730
23587W        W95913  39.049   8.380  13.990
23588W        W95914  11.667  44.962  13.995
23589W        W95915  22.191  30.973  12.983
23590W        W95916  43.416  17.597   3.689
23591W        W95917  30.014   5.852   4.791
23592W        W95918  31.110   3.352  13.318
23593W        W95919  38.911  40.481  14.827
23594W        W95920  18.631   8.305   1.379
23595W        W95921  18.619  32.545   0.915
23596W        W95922  21.040  33.058   4.697
23597W        W95923  15.718  27.189  13.036
23598W        W95924  38.019  44.365  11.524
23599W        W95925  15.138  43.336   4.806
23600W        W95926  23.025  20.673  14.281
23601W        W95927  38.441   5.296   4.144
23602W        W95928  15.151  44.284   0.342
23603W        W95929   5.831  43.009   4.116
23604W        W95930  13.247  28.954  13.922
23605W        W95931  15.294  37.444  14.927
23606W        W95932  36.545   5.904   0.281
23607W        W95933  35.960  35.864   4.184
23608W        W95934  39.339   7.845   1.788
23609W        W95935  21.757   3.844  13.838
23610W        W95936  29.148  18.677   2.729
23611W        W95937  23.058  10.711   2.371
23612W        W95938   3.437  14.625   3.286
23613W        W95939  21.619  12.733   2.890
23614W        W95940  22.233  42.282   0.465
23615W        W95941  20.101  38.393   2.892
23616W        W95942  43.817  32.914   4.632
23617W        W95943  20.553  31.520   1.817
23618W        W95944  29.651   7.836   3.707
23619W        W95945  27.947  21.110   3.631
23620W        W95946  44.785   8.832  12.395
23621W        W95947   1.846  44.344  10.094
23622W        W95948  13.630  42.985   4.735
23623W        W95949   4.440  25.642   3.263
23624W        W95950  30.000  25.052   4.249
23625W        W95951  14.165  29.615  13.958
23626W        W95952  38.369  25.116  10.615
23627W        W95953   5.209  14.230  13.338
23628W        W95954   5.256  22.693   3.760
23629W        W95955   8.878  21.080   3.648
23630W        W95956  22.123  10.384  13.976
23631W        W95957   5.698  28.503   0.379
23632W        W95958  36.462  24.026   4.310
23633W        W95959  32.994  29.456  12.949
23634W        W95960  32.046   2.380  14.960
23635W        W95961  35.109  25.084   1.870
23636W        W95962   0.419  29.644   1.748
23637W        W95963  10.167  35.406   0.941
23638W        W95964  22.615   1.941  11.488
23639W        W95965  25.987  39.023   3.849
23640W        W95966   4.447  38.993  13.965
23641W        W95967  22.568  43.293   3.332
23642W        W95968   3.336  27.502   3.691
23643W        W95969  37.915  37.406  11.878
23644W        W95970  34.527  28.538  12.088
23645W        W95971  27.008  32.445  11.973
23646W        W95972   8.183  18.757   1.772
23647W        W95973  25.487  29.616   1.270
23648W        W95974  25.070  29.488  12.556
23649W        W95975  27.125  25.589   1.763
23650W        W95976   5.223  11.209   3.842
23651W        W95977   8.289  40.959  13.391
23652W        W95978  28.458  25.073  14.822
23653W        W95979  15.179  11.153  11.575
23654W        W95980  23.187  39.519   3.772
23655W        W95981   2.722  16.736   3.175
23656W        W95982  27.986  25.642   3.770
23657W        W95983  39.518   5.931  11.093
23658W        W95984  14.194  39.400   2.195
23659W        W95985  42.284  16.672   1.932
23660W        W95986  31.044  30.536  10.513
23661W        W95987   0.362  12.781   1.722
23662W        W95988  31.010  36.074   1.821
23663W        W95989  11.856  25.657   3.804
23664W        W95990  24.571  34.007  14.507
23665W        W95991  25.693  40.411  12.867
23666W        W95992  23.054  10.846  12.889
23667W        W95993   9.346  19.707  12.475
23668W        W95994  29.008  43.996  12.000
23669W        W95995   9.707  21.033   5.237
23670W        W95996   7.911  23.710   3.224
23671W        W95997  16.236  38.833  14.898
23672W        W95998  32.990  37.945  11.534
23673W        W95999  13.822  19.084  13.521
23674W        W96000  23.670   3.263   4.245
23675W        W96001  25.648   9.795   1.696
23676W        W96002  31.417  16.231   0.436
23677W        W96003  21.550  27.585   2.376
23678W        W96004   0.401  25.061   3.780
23679W        W96005  17.679   2.732   3.791
23680W        W96006   7.673   2.232  11.547
23681W        W96007  32.140   6.703   0.454
23682W        W96008  40.036  27.066  14.898
23683W        W96009  15.123   5.774   4.241
23684W        W96010  21.644  26.519  10.605
23685W        W96011  39.884  12.687   4.194
23686W        W96012  40.347  40.876   4.773
23687W        W96013  18.782  27.565  12.575
23688W        W96014   3.785  40.829   4.754
23689W        W96015  32.534  15.735   3.181
23690W        W96016   0.820  28.441  11.529
23691W        W96017  44.491  22.742  11.592
23692W        W96018  20.221  11.168   2.241
23693W        W96019  34.109  31.058  13.378
23694W        W96020  13.819   5.739  13.909
23695W        W96021   2.750  23.639   4.701
23696W        W96022  22.549   9.865   0.441
23697W        W96023  29.426  18.635   0.751
23698W        W96024  43.335  34.609   3.784
23699W        W96025   1.385   1.471  12.910
23700W        W96026  25.985  18.610   2.384
23701W        W96027  18.226   6.185  13.037
23702W        W96028  18.568   9.227  12.494
23703W        W96029   0.478   9.763   5.182
23704W        W96030  12.630  32.492  14.368
23705W        W96031  17.071  42.466  13.862
23706W        W96032   0.866  22.035   0.351
23707W        W96033   0.310  40.532   3.289
23708W        W96034   8.680  42.844  14.346
23709W        W96035  30.482  26.496  14.823
23710W        W96036   6.872  34.570  14.441
23711W        W96037  21.258  37.075  14.917
23712W        W96038  33.994  29.065   3.859
23713W        W96039  37.063  14.143   1.840
23714W        W96040  41.308  38.347  14.953
23715W        W96041  32.103  13.717  12.465
23716W        W96042  12.148   9.762   4.655
23717W        W96043   5.703  43.318   0.781
23718W        W96044  22.242   1.751   4.627
23719W        W96045  13.812   5.239  14.393
23720W        W96046   8.812  23.000   1.873
23721W        W96047  43.294  20.608  10.524
23722W        W96048  38.518  12.654  12.013
23723W        W96049  18.548  30.133   0.760
23724W        W96050  24.620  28.457  14.977
23725W        W96051  32.095   5.819  12.349
23726W        W96052  13.794  28.663  14.831
23727W        W96053  17.772  25.025  12.521
23728W        W96054  18.280   8.742  10.409
23729W        W96055  13.608  26.465   2.662
23730W        W96056  27.627  12.629  14.446
23731W        W96057  21.526  37.890  12.970
23732W        W96058  33.052  13.812   2.307
23733W        W96059  32.067  39.818   0.292
23734W        W96060  18.199  27.196   3.364
23735W        W96061  32.391   1.910  13.915
23736W        W96062  10.380  31.612   3.663
23737W        W96063  12.302   7.851  12.353
23738W        W96064  12.218  39.984   4.274
23739W        W96065  14.710  29.461  11.958
23740W        W96066  33.971  32.018   0.281
23741W        W96067   1.766  11.793  12.951
23742W        W96068   4.305  22.662   0.777
23743W        W96069  23.625   8.688   4.676
23744W        W96070  44.919   3.834  12.552
23745W        W96071  29.170  39.937  13.033
23746W        W96072  10.777  29.450   0.727
23747W        W96073  31.085   7.869   3.686
23748W        W96074  14.329  22.514   0.370
23749W        W96075  16.265   4.889   4.304
23750W        W96076   7.264  23.514   2.733
23751W        W96077  34.385   8.241   1.233
23752W        W96078  30.103  17.802   1.820
23753W        W96079  28.024   5.814  13.514
23754W        W96080   0.752  17.124   0.387
23755W        W96081   6.343  23.068  14.759
23756W        W96082  25.501  12.300  14.369
23757W        W96083   2.835   8.849   4.256
23758W        W96084   5.364  43.377   2.728
23759W        W96085  27.095  34.079   3.379
23760W        W96086  10.703  32.442   0.758
23761W        W96087   9.233  33.477   1.348
23762W        W96088  29.632  28.094   3.835
23763W        W96089   6.308  24.505  12.039
23764W        W96090  38.935  28.668   4.816
23765W        W96091  29.440  41.522   1.372
23766W        W96092   1.373  17.693   1.767
23767W        W96093   5.216  32.087  13.945
23768W        W96094   7.739  35.016  10.488
23769W        W96095  16.275  28.072  10.160
23770W        W96096  20.700  24.196   3.338
23771W        W96097  27.158   4.855  14.801
23772W        W96098  33.404  31.027  13.011
23773W        W96099   3.444  32.945   0.912
23774W        W96100  24.190  13.107  11.871
23775W        W96101  32.465  39.335   1.935
23776W        W96102  21.623  40.837  14.789
23777W        W96103  36.845  18.070   1.875
23778W        W96104  31.494  35.875   3.690
23779W        W96105  41.486  29.542  12.430
23780W        W96106  16.304   2.283  13.817
23781W        W96107  21.511  29.918  14.779
23782W        W96108   0.392  42.892   0.905
23783W        W96109  41.316  27.667   1.337
23784W        W96110  27.670  26.040   4.600
23785W        W96111  27.660  25.045  12.445
23786W        W96112  25.709  31.622  10.603
23787W        W96113  22.696  38.366   3.853
23788W        W96114  34.423  20.767   3.847
23789W        W96115  17.062  27.026  10.510
23790W        W96116  17.143  18.776  11.920
23791W        W96117   2.723  15.706   2.279
23792W        W96118  38.041  32.935  13.545
23793W        W96119  24.127   7.364   1.794
23794W        W96120  16.284   4.922   0.759
23795W        W96121  22.140  25.701  12.527
23796W        W96122   1.835  25.697  11.482
23797W        W96123  38.486  30.090  12.471
23798W        W96124  19.283  14.627  12.384
23799W        W96125  27.190   5.242  11.912
23800W        W96126  33.033  15.802   3.700
23801W        W96127  21.218  29.052  13.464
23802W        W96128  39.513   2.918  12.832
23803W        W96129  35.100  31.080  12.967
23804W        W96130  38.993  26.079  14.406
23805W        W96131   1.916  36.922  11.882
23806W        W96132  40.862  36.364   4.777
23807W        W96133  11.795  43.916  10.599
23808W        W96134  30.624  42.442   0.410
23809W        W96135  39.431  16.661  14.510
23810W        W96136   7.888   2.315  12.034
23811W        W96137  10.786   9.684   0.296
23812W        W96138  20.706  27.548  13.404
23813W        W96139  40.921  18.672   1.423
23814W        W96140  18.596   3.789   0.259
23815W        W96141   9.890   5.691   3.683
23816W        W96142  20.272  10.824   1.299
23817W        W96143   8.891  42.512  11.881
23818W        W96144   8.708   7.776   3.693
23819W        W96145  18.155  23.154  13.799
23820W        W96146  41.958  25.080   3.784
23821W        W96147  28.662  28.639   4.752
23822W        W96148  41.321  22.007   2.322
23823W        W96149  24.041  44.372  12.528
23824W        W96150   9.846   3.909   1.727
23825W        W96151   4.877   6.340   1.897
23826W        W96152  35.110  18.241   3.819
23827W        W96153  11.792  36.968   2.408
23828W        W96154   0.288  26.119  12.455
23829W        W96155  30.926  25.505  10.414
23830W        W96156  13.785  13.751   1.231
23831W        W96157  25.534  40.512  14.877
23832W        W96158  17.639   1.473   0.422
23833W        W96159  19.277  11.279  11.409
23834W        W96160  41.789   6.703   4.293
23835W        W96161  13.813  19.664   4.170
23836W        W96162   6.352  10.794   4.327
23837W        W96163  35.425  13.767   4.150
23838W        W96164  35.527   4.864  13.041
23839W        W96165  43.483  30.573  14.909
23840W        W96166  25.156  24.513   3.199
23841W        W96167  29.566  37.523  13.345
23842W        W96168  44.848  11.191   1.895
23843W        W96169   6.241  36.013  13.330
23844W        W96170  44.902  25.579   3.313
23845W        W96171   2.360  21.029  11.115
23846W        W96172  15.628  17.157   3.801
23847W        W96173   4.364  31.495  11.004
23848W        W96174  23.622  12.806  13.011
23849W        W96175  43.482  38.919   1.845
23850W        W96176  36.934  28.084   2.764
23851W        W96177  18.064  15.306  11.922
23852W        W96178  32.956   5.889  11.385
23853W        W96179  16.265  10.140   1.212
23854W        W96180  43.913  15.740   1.702
23855W        W96181  13.328   5.307   4.263
23856W        W96182  29.635   9.711  10.453
23857W        W96183  23.067  10.165   2.295
23858W        W96184  14.784  27.004  10.897
23859W        W96185  27.620  39.412   0.464
23860W        W96186  34.511  34.402  11.534
23861W        W96187  32.936  43.861  12.827
23862W        W96188  27.134  15.212   3.850
23863W        W96189  37.401  14.699  14.001
23864W        W96190  21.124  40.813  14.275
23865W        W96191  27.997   7.684   4.345
23866W        W96192   4.359  10.757   3.767
23867W        W96193  44.835  30.579   5.214
23868W        W96194  36.982  10.339   9.505
23869W        W96195  44.280  15.780   2.728
23870W        W96196  30.951  19.776  12.977
23871W        W96197  40.877  38.897   0.837
23872W        W96198   3.930   9.199  10.052
23873W        W96199  17.303  30.538   2.362
23874W        W96200  32.393  35.904   4.217
23875W        W96201  17.202   0.970   3.253
23876W        W96202   8.198  27.663  10.614
23877W        W96203  23.989  35.514  13.502
23878W        W96204  26.625  16.180   3.190
23879W        W96205   1.361   4.845   5.322
23880W        W96206  29.041  16.156   0.821
23881W        W96207  37.464   4.379   4.638
23882W        W96208   2.320  39.998  10.009
23883W        W96209  24.712  16.733   4.735
23884W        W96210  42.419  30.447  11.400
23885W        W96211  44.443  37.387   3.282
23886W        W96212  29.544   2.885   1.904
23887W        W96213  38.958   9.804   4.665
23888W        W96214  22.665  38.484  12.385
23889W        W96215  41.394  24.977  14.764
23890W        W96216  43.798  27.532  10.951
23891W        W96217  37.402  27.624  12.899
23892W        W96218  27.482  32.558   3.668
23893W        W96219  43.278  27.993   1.803
23894W        W96220  23.987  36.061   1.905
23895W        W96221  24.531  33.961  11.552
23896W        W96222   6.884   9.740  12.054
23897W        W96223   5.212  29.545  11.983
23898W        W96224  13.748  33.097   9.651
23899W        W96225  43.932   1.951   0.827
23900W        W96226  14.282  40.444  10.411
23901W        W96227  23.514  43.270   0.849
23902W        W96228   2.228  25.105   4.644
23903W        W96229  10.849  25.621   5.748
23904W        W96230  41.831  11.646  14.855
23905W        W96231  16.696  17.564  14.890
23906W        W96232  33.882   7.746  14.996
23907W        W96233  41.900  32.008   1.321
23908W        W96234  15.315  31.540   3.179
23909W        W96235  31.402  43.278   3.806
23910W        W96236  20.202  18.244   4.731
23911W        W96237  39.455  29.158  11.084
23912W        W96238  21.595  44.394  13.476
23913W        W96239  13.183  14.212  14.442
23914W        W96240  38.505   8.343  11.427
23915W        W96241  21.728  25.102   5.135
23916W        W96242  37.517  42.925   2.900
23917W        W96243  43.406   5.878  14.425
23918W        W96244   6.247  28.632  11.535
23919W        W96245  39.926  19.761   3.784
23920W        W96246  19.153  28.638   3.357
23921W        W96247   6.243  25.702   2.720
23922W        W96248  22.636   2.262   3.228
23923W        W96249  32.478  10.293  12.457
23924W        W96250   3.851  35.939   3.686
23925W        W96251  42.807  34.887  11.531
23926W        W96252  33.524  41.848   2.817
23927W        W96253  22.547  38.982   4.827
23928W        W96254  15.313  41.438  13.455
23929W        W96255  38.999  37.924  12.089
23930W        W96256  31.563  33.472  11.464
23931W        W96257  29.116  23.022   0.297
23932W        W96258  17.556  35.075   1.276
23933W        W96259  21.075  32.031   1.417
23934W        W96260  24.500  15.168  11.584
23935W        W96261  44.998  15.770   4.799
23936W        W96262  23.548  34.371  12.924
23937W        W96263  30.525  35.885  14.467
23938W        W96264  16.300  40.488   2.403
23939W        W96265  23.207  41.355  12.508
23940W        W96266  42.970   3.233  11.468
23941W        W96267  15.222  37.040  13.909
23942W        W96268   7.300  37.511  13.407
23943W        W96269  12.676  32.904   5.308
23944W        W96270  27.458  42.307   2.370
23945W        W96271  31.978  35.527   2.325
23946W        W96272  11.199   2.437  12.911
23947W        W96273  27.983  16.126  13.917
23948W        W96274   8.842  23.049  13.438
23949W        W96275  41.954   0.308   3.680
23950W        W96276  30.122   5.404  14.968
23951W        W96277  24.512  18.057  14.856
23952W        W96278  25.601  10.791  14.406
23953W        W96279   4.786  42.439  13.900
23954W        W96280  19.251  10.696   0.756
23955W        W96281  29.938  30.135   3.332
23956W        W96282   6.285   4.819  14.357
23957W        W96283  38.367  38.430   1.379
23958W        W96284  39.975  36.444  13.979
23959W        W96285  11.143  12.736  12.531
23960W        W96286  13.114  32.945  11.095
23961W        W96287   4.935  35.881   3.793
23962W        W96288  36.884  18.715  13.041
23963W        W96289  35.036   9.779  11.418
23964W        W96290  28.017  18.192   0.913
23965W        W96291  32.053  25.622   4.669
23966W        W96292   0.936  13.757   1.277
23967W        W96293  17.599  12.148  11.600
23968W        W96294  36.559   0.255  12.825
23969W        W96295  24.120   2.729  13.815
23970W        W96296  38.488  33.497   4.349
23971W        W96297  17.718  34.001   4.240
23972W        W96298  20.651  26.466  14.935
23973W        W96299  39.407  29.539  11.532
23974W        W96300  39.924  33.471  14.961
23975W        W96301  34.103   5.268  10.925
23976W        W96302  41.033  28.152   0.362
23977W        W96303  44.974  36.561   3.276
23978W        W96304  44.421  44.277   3.360
23979W        W96305  32.622  32.581  11.089
23980W        W96306   7.309  39.940  11.988
23981W        W96307  40.392  44.892  12.533
23982W        W96308  44.775   1.320  14.488
23983W        W96309  32.965  24.644   4.704
23984W        W96310  13.310  25.616  12.984
23985W        W96311   3.272  30.424  10.570
23986W        W96312  11.636   5.346   3.316
23987W        W96313  27.617  14.308   3.188
23988W        W96314  40.981  15.608   4.209
23989W        W96315  12.665  27.505   2.684
23990W        W96316  35.569  39.395  13.348
23991W        W96317   3.881  31.153  12.450
23992W        W96318  32.483   7.780   3.756
23993W        W96319  43.326  32.479  11.416
23994W        W96320  40.432  41.375  12.480
23995W        W96321  24.113  26.504   3.220
23996W        W96322  34.933  29.568  13.404
23997W        W96323   2.395   6.204  12.858
23998W        W96324  31.409  22.019  10.610
23999W        W96325  42.517  12.286   1.324
24000W        W96326  39.979  42.340  14.802
24001W        W96327  37.561  42.284   0.754
24002W        W96328  37.016  21.703  13.538
24003W        W96329   3.391  39.868  14.358
24004W        W96330  25.469  34.082   4.352
24005W        W96331   2.749  40.042   2.888
24006W        W96332  13.721  39.020   4.146
24007W        W96333  28.989  21.745  12.877
24008W        W96334   7.338  12.710   2.717
24009W        W96335  37.345   6.386  10.500
24010W        W96336  26.494   3.369   3.688
24011W        W96337  28.569  20.529  13.489
24012W        W96338   4.925   3.235  12.955
24013W        W96339   4.867   5.693   2.343
24014W        W96340  12.118  26.027   0.870
24015W        W96341  42.845  27.187   2.764
24016W        W96342  33.952   9.207   2.335
24017W        W96343  38.427   1.824   2.806
24018W        W96344  25.110  20.680  12.994
24019W        W96345   7.186   2.272  13.426
24020W        W96346  10.277  28.050   5.143
24021W        W96347   7.238  22.204  13.539
24022W        W96348  33.018  32.411   2.789
24023W        W96349  24.490  10.287   1.392
24024W        W96350  21.667  21.660  13.524
24025W        W96351   1.948  14.191   3.631
24026W        W96352   9.866  32.024  13.505
24027W        W96353  38.052  22.103  11.380
24028W        W96354   9.290  12.773   1.330
24029W        W96355  18.652   3.864  12.982
24030W        W96356  28.545   9.808  12.940
24031W        W96357   4.308   6.373   0.828
24032W        W96358  22.539  26.058  10.062
24033W        W96359  10.678   7.718   4.609
24034W        W96360  44.478  41.915  10.489
24035W        W96361  35.093  37.380  14.839
24036W        W96362  22.243  19.070  13.873
24037W        W96363   1.973  27.175   3.868
24038W        W96364  42.820  44.771  12.980
24039W        W96365  41.505  10.284  14.409
24040W        W96366  34.104  20.712   4.128
24041W        W96367  33.933  21.177  13.406
24042W        W96368  21.654   4.311  11.600
24043W        W96369   4.932   2.424  11.068
24044W        W96370  37.040  43.368  10.467
24045W        W96371  31.933   5.367   4.115
24046W        W96372   1.284   1.748  14.504
24047W        W96373   5.744  31.583   4.634
24048W        W96374  43.419  41.805   3.760
24049W        W96375  16.079  21.150  14.401
24050W        W96376  22.035  40.427   4.286
24051W        W96377  35.104   3.316  13.452
24052W        W96378  22.131  26.054  13.793
24053W        W96379  11.636  14.287  14.314
24054W        W96380  30.074  42.436   3.824
24055W        W96381  19.725  33.415  11.001
24056W        W96382  13.729  12.758   1.219
24057W        W96383  38.053   6.892   0.418
24058W        W96384  21.652  10.329  14.970
24059W        W96385   1.290   6.196  11.389
24060W        W96386  33.123  44.000   3.662
24061W        W96387  38.327   5.432   1.841
24062W        W96388  41.515  40.933  12.368
24063W        W96389  27.675  33.517   1.387
24064W        W96390   4.384   1.953  14.311
24065W        W96391  27.958  19.554  10.127
24066W        W96392  30.099  32.451  10.477
24067W        W96393  15.667  19.121  11.088
24068W        W96394  22.634  14.102  11.438
24069W        W96395   8.668  31.471   2.409
24070W        W96396   5.284   3.380  11.949
24071W        W96397  15.260   5.252  14.767
24072W        W96398  16.613   5.297  13.312
24073W        W96399  14.628   2.367  10.622
24074W        W96400  20.758  33.985   2.416
24075W        W96401  21.239  38.499  14.011
24076W        W96402  40.543  27.040   1.298
24077W        W96403  30.078  23.680  11.556
24078W        W96404  24.681  16.794   4.208
24079W        W96405   1.416   0.473   3.660
24080W        W96406  15.290  14.651  13.488
24081W        W96407  13.311  43.289   4.204
24082W        W96408  14.810  35.586   0.255
24083W        W96409  32.057  37.457  14.440
24084W        W96410   7.709   1.930   2.760
24085W        W96411   4.749  24.570  12.905
24086W        W96412  21.184  28.557  11.036
24087W        W96413   7.183  42.394  10.438
24088W        W96414   4.835  11.731   2.704
24089W        W96415  36.884  13.828  13.929
24090W        W96416  20.153  34.926  10.037
24091W        W96417  36.465  29.021  12.095
24092W        W96418  37.996  25.514   1.889
24093W        W96419   1.280  37.019  11.925
24094W        W96420  33.881  36.495   5.305
24095W        W96421   4.391  17.244   1.851
24096W        W96422   7.669   3.716   2.353
24097W        W96423  20.093   9.882   1.705
24098W        W96424  14.825  10.295  10.979
24099W        W96425  12.279  43.305  13.500
24100W        W96426  39.863  37.925  10.639
24101W        W96427  27.052  17.269  13.949
24102W        W96428   1.470  31.979  11.375
24103W        W96429  27.161  26.701  11.919
24104W        W96430  36.464  22.217  14.476
24105W        W96431  39.424  10.369   5.319
24106W        W96432  38.011   6.346   2.786
24107W        W96433  32.124  33.403  14.825
24108W        W96434  15.595   7.288  11.421
24109W        W96435  28.651  10.166  11.014
24110W        W96436   0.399   9.717   4.285
24111W        W96437  19.200  40.417   1.307
24112W        W96438  17.168  23.101   3.358
24113W        W96439   6.800  14.652  12.350
24114W        W96440  25.476  40.461   4.731
24115W        W96441  20.543   8.890   1.774
24116W        W96442  15.322   1.947   3.802
24117W        W96443  42.942  11.333   0.383
24118W        W96444  34.592  13.671  12.839
24119W        W96445   2.797   1.482  11.439
24120W        W96446  21.232   7.186  11.522
24121W        W96447  34.070  16.275   3.152
24122W        W96448  43.015  21.237   3.159
24123W        W96449  38.397  23.734  13.903
24124W        W96450  16.248  31.139   3.792
24125W        W96451  10.807   7.818   2.807
24126W        W96452   0.825  15.680   1.435
24127W        W96453  19.145  23.998   1.272
24128W        W96454  33.943  22.171   4.773
24129W        W96455  39.489  41.880  12.965
24130W        W96456   1.931  27.687  12.414
24131W        W96457   1.770  39.544   3.209
24132W        W96458  25.557  36.969   2.324
24133W        W96459  23.724  37.425   9.666
24134W        W96460  24.519  39.348  10.133
24135W        W96461  33.874   2.305  12.037
24136W        W96462  30.965  12.232  11.041
24137W        W96463  21.104  39.468  14.360
24138W        W96464  30.928  30.519   9.953
24139W        W96465  27.033   0.950  13.807
24140W        W96466   7.675   9.250   0.380
24141W        W96467   7.891   8.339  14.348
24142W        W96468  36.472  28.665   2.203
24143W        W96469  27.169   5.205   1.447
24144W        W96470  20.649  33.609   2.737
24145W        W96471  25.649   7.811  13.339
24146W        W96472  14.751  10.754   2.794
24147W        W96473  38.874  40.526   2.741
24148W        W96474  43.915   5.385   4.219
24149W        W96475  13.202  30.558   0.327
24150W        W96476  10.727  34.483  12.435
24151W        W96477   0.294  32.591  12.931
24152W        W96478  19.589   1.463  13.034
24153W        W96479   6.737   7.774   2.255
24154W        W96480  11.287  28.182   4.117
24155W        W96481  13.328  30.600  10.416
24156W        W96482  25.970  31.645   3.264
24157W        W96483  18.207  15.258  14.423
24158W        W96484   7.340  30.537   1.791
24159W        W96485  36.436  44.490  13.412
24160W        W96486  29.073  10.724  13.501
24161W        W96487   9.182  24.133  12.500
24162W        W96488  19.272  14.810  11.059
24163W        W96489   4.728  17.695   1.898
24164W        W96490  17.612  13.784   1.753
24165W        W96491   8.885  22.555  13.500
24166W        W96492  23.070  24.197   1.229
24167W        W96493  25.695  28.451  13.519
24168W        W96494  15.667  21.610  13.981
24169W        W96495  22.035  31.524  14.280
24170W        W96496  31.977  16.593   3.733
24171W        W96497  22.215  13.122   2.317
24172W        W96498   1.945  13.660   1.236
24173W        W96499  28.053   6.682   2.760
24174W        W96500  13.320  13.348   0.800
24175W        W96501  10.368   4.737  14.971
24176W        W96502  40.881  31.452   1.283
24177W        W96503  34.405   9.232   0.793
24178W        W96504  31.591  24.674   0.780
24179W        W96505   2.831  22.100  14.488
24180W        W96506  16.298  17.119  12.066
24181W        W96507  17.686   1.456  14.280
24182W        W96508  42.332  22.500   4.207
24183W        W96509  16.727  41.464   2.291
24184W        W96510  22.252  37.500   0.966
24185W        W96511  21.245   6.262  12.450
24186W        W96512   9.150  40.349   4.295
24187W        W96513  38.048  24.176  14.784
24188W        W96514  29.493   9.343  10.467
24189W        W96515  13.116  14.130   5.201
24190W        W96516   1.276   5.344   0.804
24191W        W96517  38.529   6.262  14.514
24192W        W96518  15.280   7.688   0.407
24193W        W96519   9.214  17.067  10.114
24194W        W96520  37.549  38.343   0.428
24195W        W96521   8.728  41.348  14.842
24196W        W96522  13.681   1.737   2.821
24197W        W96523   3.863  13.332   2.395
24198W        W96524  36.054  23.194   3.658
24199W        W96525  25.646  23.579  11.436
24200W        W96526  17.570   9.289  13.389
24201W        W96527  34.982  43.328  13.466
24202W        W96528  29.658  39.485  10.629
24203W        W96529  26.498  39.930  11.055
24204W        W96530   3.335  44.888   2.297
24205W        W96531  19.627   4.784   2.204
24206W        W96532   9.215  42.444   0.845
24207W        W96533  15.694  38.955   1.794
24208W        W96534  34.890   2.302  12.828
24209W        W96535  23.196  42.396   4.233
24210W        W96536  37.336  11.142   3.783
24211W        W96537  18.651  38.532  11.607
24212W        W96538  42.981  36.372   4.300
24213W        W96539  26.177  26.508   4.796
24214W        W96540  12.720  41.788  13.881
24215W        W96541  19.677  25.986  12.897
24216W        W96542   2.347  38.464   1.236
24217W        W96543  24.227  19.059  13.440
24218W        W96544  43.410   8.701   2.789
24219W        W96545  41.844   9.677  11.377
24220W        W96546  28.042  13.326  11.956
24221W        W96547  24.060  22.735  12.995
24222W        W96548  44.770  24.690  10.619
24223W        W96549  38.059  10.762  11.857
24224W        W96550  28.674  26.120   1.410
24225W        W96551  32.421   2.742   2.400
24226W        W96552  43.367   3.246   1.729
24227W        W96553   5.930   8.679   4.752
24228W        W96554  23.182  36.875  10.908
24229W        W96555  13.674  16.112   1.214
24230W        W96556  13.798  26.150   0.468
24231W        W96557  38.520  28.092   2.722
24232W        W96558  41.818  44.489   0.731
24233W        W96559  35.440  31.136   1.273
24234W        W96560  34.058  18.690   1.444
24235W        W96561  10.327   0.415  14.846
24236W        W96562   9.755  40.363   2.273
24237W        W96563   4.287  13.182  14.797
24238W        W96564  25.539   0.353   2.410
24239W        W96565  26.629   3.750  14.881
24240W        W96566  37.836  33.878   2.369
24241W        W96567  33.089  34.932  11.390
24242W        W96568  24.491  10.354  14.796
24243W        W96569  35.454  21.672   4.174
24244W        W96570  24.541  27.144   1.441
24245W        W96571  15.590  26.172  14.500
24246W        W96572  27.985  12.184  14.500
24247W        W96573  16.089  12.234  13.950
24248W        W96574  16.584  42.323   0.842
24249W        W96575  26.527   5.875  10.922
24250W        W96576  33.524  43.981   1.708
24251W        W96577  19.734  36.560   2.754
24252W        W96578  29.077  30.071  12.393
24253W        W96579  27.080  33.425   1.843
24254W        W96580   3.282   4.409   0.790
24255W        W96581  21.577  36.537   3.725
24256W        W96582  30.573  15.117  10.582
24257W        W96583  32.108  22.657  11.492
24258W        W96584  40.054  20.608   4.196
24259W        W96585  38.569  28.093   3.153
24260W        W96586   9.802  16.301  13.546
24261W        W96587  30.438  28.636  13.810
24262W        W96588  37.433  39.472   2.850
24263W        W96589  30.921  11.714   0.333
24264W        W96590  31.473  13.329   2.307
24265W        W96591  35.057  38.039  12.434
24266W        W96592  29.126  42.378  10.490
24267W        W96593   1.366  14.680  14.330
24268W        W96594  29.035  19.588   1.365
24269W        W96595  44.328  38.044   3.640
24270W        W96596  19.157  33.956  13.496
24271W        W96597  18.776  11.760  12.344
24272W        W96598  12.676  35.968   2.311
24273W        W96599  23.575  40.316   0.478
24274W        W96600  29.523  25.123  10.972
24275W        W96601  32.627  44.354  11.536
24276W        W96602  35.950   0.342   3.269
24277W        W96603  17.178  40.426   0.298
24278W        W96604  44.401   5.398  11.481
24279W        W96605   4.356  31.050  14.798
24280W        W96606  16.743  25.012   1.227
24281W        W96607  25.664   4.790  12.406
24282W        W96608  34.433  16.213  13.381
24283W        W96609  40.372  41.835   2.238
24284W        W96610  38.344  15.625  10.560
24285W        W96611   1.446  31.085   1.741
24286W        W96612  39.901  42.861  11.500
24287W        W96613  12.721  33.389  11.529
24288W        W96614  30.579  27.071   4.637
24289W        W96615  30.129   4.389  10.636
24290W        W96616  12.166  39.458   0.417
24291W        W96617  33.119  26.459   2.224
24292W        W96618  35.926   8.195   0.448
24293W        W96619  29.449   0.769   0.377
24294W        W96620  31.520   0.407   4.149
24295W        W96621  10.851  12.644   1.335
24296W        W96622  20.669  32.606  14.880
24297W        W96623  34.544  14.791  10.556
24298W        W96624  30.526   7.215   4.657
24299W        W96625  32.940  38.344  14.923
24300W        W96626  33.395  24.630  12.869
24301W        W96627  10.319  18.054  13.317
24302W        W96628   3.373  43.899  10.621
24303W        W96629  21.202  14.736  14.376
24304W        W96630  35.889  35.579   3.166
24305W        W96631  12.241   1.849   1.815
24306W        W96632  40.330   7.845  12.898
24307W        W96633   4.272   8.379   4.664
24308W        W96634  27.062   7.218   3.851
24309W        W96635  40.910   3.790  12.432
24310W        W96636   4.324  35.432   1.286
24311W        W96637   3.234  11.290   2.671
24312W        W96638   4.214  17.141   4.602
24313W        W96639  21.156   9.285   5.113
24314W        W96640  16.145   2.381   4.208
24315W        W96641   5.260  19.764  14.973
24316W        W96642  43.887  26.976   4.666
24317W        W96643  25.130  34.548   1.336
24318W        W96644  22.218   8.339  13.331
24319W        W96645   7.817  34.436  11.484
24320W        W96646   5.410  36.407  14.400
24321W        W96647  32.417  34.894  14.291
24322W        W96648  33.073  18.710   0.267
24323W        W96649   1.309  31.432  14.279
24324W        W96650  32.533  26.069  11.996
24325W        W96651   6.243  21.125  13.038
24326W        W96652  15.097  14.618   4.600
24327W        W96653  28.670  27.592   2.894
24328W        W96654  38.545  29.117   0.448
24329W        W96655   2.884  36.557  13.845
24330W        W96656   8.759  11.743   5.288
24331W        W96657  27.116  39.502  10.466
24332W        W96658  28.159  37.416  11.607
24333W        W96659  36.373  38.526   1.330
24334W        W96660  31.948  19.574   3.233
24335W        W96661  41.041  21.207   0.460
24336W        W96662  24.217  21.201  10.032
24337W        W96663  19.106  13.672  10.906
24338W        W96664  38.869  34.481   2.834
24339W        W96665  37.861  19.635   4.723
24340W        W96666   2.381  23.636  11.962
24341W        W96667   0.988  19.205   1.224
24342W        W96668  26.069  25.550  11.492
24343W        W96669  21.590  15.099  11.581
24344W        W96670  23.043   8.677  11.074
24345W        W96671  25.178  14.242  11.081
24346W        W96672   8.746  13.160  14.781
24347W        W96673   6.268  24.641  12.977
24348W        W96674  10.360  17.760   0.456
24349W        W96675  20.570  24.095   3.780
24350W        W96676   2.733  43.500  11.965
24351W        W96677  34.517  22.218   3.703
24352W        W96678  43.883  14.704   0.252
24353W        W96679   1.465  44.868  12.393
24354W        W96680   9.180  16.570   4.694
24355W        W96681  17.302  41.391  10.996
24356W        W96682  42.011  28.187  14.806
24357W        W96683  22.184  42.408  12.466
24358W        W96684  36.014  27.176  12.563
24359W        W96685  30.542  11.286   0.301
24360W        W96686  37.039  42.984  12.339
24361W        W96687  11.665  32.000   2.317
24362W        W96688  14.334  20.240  10.530
24363W        W96689  43.007  22.515   1.827
24364W        W96690  18.779  13.345  10.607
24365W        W96691  25.128  20.168   3.832
24366W        W96692  36.468  17.269   2.877
24367W        W96693  12.857  30.011  14.336
24368W        W96694  40.998  28.435   4.330
24369W        W96695  26.053   5.918  11.004
24370W        W96696  36.094  26.083  11.499
24371W        W96697  36.008  11.142  10.074
24372W        W96698  23.564  27.037   0.274
24373W        W96699   8.695  20.098   4.832
24374W        W96700  21.102  29.939  12.937
24375W        W96701  43.443  29.559  12.540
24376W        W96702  12.134   0.401   2.240
24377W        W96703  21.155  42.327  14.451
24378W        W96704  36.401  21.137  14.878
24379W        W96705  20.146  17.765  11.894
24380W        W96706  38.888  41.833  14.398
24381W        W96707   9.822  17.675  14.011
24382W        W96708  25.537  37.871   4.628
24383W        W96709  33.064   4.332   4.294
24384W        W96710  10.643   2.424   1.289
24385W        W96711  24.721  35.431  13.398
24386W        W96712  24.185  34.893   1.711
24387W        W96713   2.447  13.675  13.987
24388W        W96714   5.744  43.295  10.620
24389W        W96715   4.712  40.527   2.785
24390W        W96716  22.119  13.321  14.816
24391W        W96717   9.690  16.640   3.168
24392W        W96718   2.798   3.737  14.473
24393W        W96719  13.706  33.105  13.500
24394W        W96720  31.555  17.699   2.219
24395W        W96721   8.732  23.545   3.161
24396W        W96722  20.676  22.589  11.515
24397W        W96723   8.311  36.451  10.463
24398W        W96724  19.257  23.596  11.595
24399W        W96725   0.275  42.795  10.417
24400W        W96726  26.108  29.545  12.536
24401W        W96727   3.947  32.442   4.258
24402W        W96728  32.439  22.609  13.361
24403W        W96729  14.121  41.844  14.292
24404W        W96730   7.901  38.522  13.993
24405W        W96731  11.151  42.324  13.884
24406W        W96732  42.884   0.464   4.158
24407W        W96733  11.139  26.563  10.931
24408W        W96734  12.736  37.576  12.046
24409W        W96735  13.618  19.714  10.914
24410W        W96736  30.465  41.321  10.499
24411W        W96737   9.734  20.165  13.360
24412W        W96738  21.662  44.909  10.911
24413W        W96739   0.965   5.784   0.428
24414W        W96740   6.866  39.529   4.632
24415W        W96741  33.559  33.959   5.166
24416W        W96742   8.848   5.372   1.302
24417W        W96743   4.813   9.704  14.979
24418W        W96744  26.516   6.783   0.939
24419W        W96745  36.993  11.739  14.442
24420W        W96746  17.082  32.084  10.139
24421W        W96747  37.893   2.840   2.216
24422W        W96748   9.279  26.019  13.538
24423W        W96749  10.843  10.296  13.505
24424W        W96750  12.183   1.404   4.837
24425W        W96751  25.043   7.357  14.492
24426W        W96752  41.517  10.379  11.547
24427W        W96753  44.801  42.511  10.596
24428W        W96754  37.429  35.081  10.960
24429W        W96755  15.814  41.396   2.352
24430W        W96756  12.220  38.073   4.787
24431W        W96757  11.702  42.293  13.896
24432W        W96758  38.838  42.418   4.748
24433W        W96759  29.569  40.054  10.089
24434W        W96760  32.475  20.686   3.868
24435W        W96761  24.176  19.653   4.743
24436W        W96762  35.051   9.307  11.915
24437W        W96763  20.109   2.269   2.815
24438W        W96764  20.140  37.431  10.056
24439W        W96765  15.701  33.513   4.208
24440W        W96766  23.499  21.207  12.985
24441W        W96767  21.087  41.803   5.145
24442W        W96768   9.824  15.680   3.834
24443W        W96769  44.287  23.565   4.120
24444W        W96770  36.990  20.605   3.711
24445W        W96771  37.891  14.171   1.243
24446W        W96772  25.634  43.783   1.327
24447W        W96773  44.420   8.245   1.898
24448W        W96774   7.801  21.092   0.283
24449W        W96775  24.579  38.063  10.140
24450W        W96776  33.001  17.222  11.900
24451W        W96777  32.897  27.508   4.773
24452W        W96778  14.628  15.700   1.794
24453W        W96779  30.566  18.604   4.777
24454W        W96780  36.920  31.526   3.149
24455W        W96781   2.783  32.116  13.864
24456W        W96782  10.243  25.496  11.413
24457W        W96783   3.832  22.513   0.750
24458W        W96784  40.956  37.474  13.805
24459W        W96785  31.043  29.930   4.258
24460W        W96786  34.580  21.204  13.544
24461W        W96787  41.507  28.026   3.386
24462W        W96788  18.267  19.538   4.352
24463W        W96789  27.616  39.062   4.636
24464W        W96790   5.918  23.145   1.384
24465W        W96791  13.214  13.819  10.962
24466W        W96792  13.213   8.399  14.400
24467W        W96793  29.519  34.443   2.367
24468W        W96794  23.158   7.205  11.121
24469W        W96795  26.057  20.567   4.621
24470W        W96796   7.256  25.162   1.412
24471W        W96797  35.453  13.166   1.896
24472W        W96798   6.823  42.453   0.371
24473W        W96799  43.923  37.568  14.884
24474W        W96800  20.634  18.145   3.777
24475W        W96801  33.923  10.302  13.017
24476W        W96802  28.584  15.271   4.268
24477W        W96803  29.530  27.660   4.661
24478W        W96804  20.272   3.380  12.037
24479W        W96805   0.418  15.163  13.352
24480W        W96806  32.620  32.028  14.317
24481W        W96807   7.386   7.399  13.835
24482W        W96808  36.989  31.467   1.717
24483W        W96809  28.142  41.895  10.595
24484W        W96810  17.205  12.260   1.389
24485W        W96811  44.442  23.105   4.213
24486W        W96812  19.764  18.766   2.392
24487W        W96813   2.918  24.146   9.938
24488W        W96814  22.745   1.977   2.234
24489W        W96815  37.934  11.306   1.293
24490W        W96816  42.502   0.814   2.671
24491W        W96817  40.458   0.971   4.137
24492W        W96818   5.699  20.693   1.906
24493W        W96819  34.055  28.567  12.570
24494W        W96820  26.056  11.358   3.771
24495W        W96821  19.121  38.915  13.813
24496W        W96822  20.114   8.395   4.322
24497W        W96823  34.376   8.225  14.861
24498W        W96824  11.785  21.211  14.473
24499W        W96825   9.191  11.669   1.787
24500W        W96826   6.264   4.447  12.450
24501W        W96827  41.023  19.247  12.031
24502W        W96828  16.078  16.719   2.775
24503W        W96829   0.773  12.642   0.256
24504W        W96830  38.543  24.578   1.328
24505W        W96831  28.976  22.701  14.500
24506W        W96832   6.383  22.732   2.353
24507W        W96833  25.034  34.456   4.158
24508W        W96834  13.303  41.370   1.843
24509W        W96835  28.022   6.719   1.745
24510W        W96836   7.785  23.080   0.818
24511W        W96837  33.099   3.293   4.231
24512W        W96838  22.168  11.831   4.748
24513W        W96839  35.978  38.525   2.691
24514W        W96840  41.352   6.678  12.478
24515W        W96841  13.744  17.644   0.923
24516W        W96842   5.894  34.568   0.762
24517W        W96843   9.708   8.372  12.506
24518W        W96844  37.840  43.869  11.964
24519W        W96845   3.892  11.287  14.408
24520W        W96846   9.694  20.656   4.732
24521W        W96847  21.240  23.171  12.448
24522W        W96848   5.221  35.883   2.188
24523W        W96849   9.268  44.924  11.047
24524W        W96850  30.469   2.252   1.734
24525W        W96851  43.496  28.057   4.636
24526W        W96852  13.270   6.880   0.262
24527W        W96853  17.076  22.557  11.580
24528W        W96854  44.280  25.673  12.927
24529W        W96855  20.743   0.743   1.876
24530W        W96856   2.411  37.909   4.219
24531W        W96857  20.663  38.515  11.928
24532W        W96858  22.088  43.765  13.880
24533W        W96859  27.964  15.637  11.024
24534W        W96860  28.482  22.040   3.330
24535W        W96861   8.224   7.385  10.937
24536W        W96862   0.280   2.750  13.899
24537W        W96863   7.817   8.400  14.904
24538W        W96864  42.836  42.459  11.906
24539W        W96865  28.047  11.720  14.487
24540W        W96866  29.521  25.707  13.045
24541W        W96867  20.630   0.953  14.933
24542W        W96868  25.057  38.821   1.223
24543W        W96869   9.774  36.906  13.837
24544W        W96870   3.821  23.569   2.291
24545W        W96871  28.044  12.293   2.663
24546W        W96872  19.562  31.972   1.766
24547W        W96873  42.349   5.362  12.921
24548W        W96874  40.917   9.157   1.367
24549W        W96875  30.576  28.979  11.100
24550W        W96876  36.005  12.851   3.848
24551W        W96877  17.607   9.745   2.836
24552W        W96878  22.516  42.033   1.754
24553W        W96879  12.134  26.962  12.395
24554W        W96880  38.363  40.466   2.885
24555W        W96881  17.618  41.942  12.923
24556W        W96882  32.083  23.525  11.456
24557W        W96883  18.728  40.366  12.916
24558W        W96884  16.130   9.267  13.338
24559W        W96885  33.420  15.086  13.796
24560W        W96886  41.338  34.577   0.312
24561W        W96887   0.947  13.303  13.000
24562W        W96888  28.494  27.581   5.099
24563W        W96889  12.657  44.900  14.762
24564W        W96890  34.613   9.374   2.847
24565W        W96891  16.760   3.386   3.327
24566W        W96892  27.012   0.429  10.435
24567W        W96893  34.068   5.241   4.752
24568W        W96894  14.615  34.483   1.271
24569W        W96895  10.154  15.099  10.609
24570W        W96896  25.647  29.088   4.705
24571W        W96897  21.576  10.271   3.744
24572W        W96898  24.041  38.971  12.491
24573W        W96899  22.068   5.301   3.194
24574W        W96900  24.510   2.732   0.266
24575W        W96901  19.248  11.127   2.336
24576W        W96902  30.090  19.658   0.889
24577W        W96903  26.032  41.452  11.974
24578W        W96904  22.605  12.643  14.448
24579W        W96905  32.421  14.766  11.111
24580W        W96906   7.397  19.087  10.571
24581W        W96907  32.923  13.282  12.868
24582W        W96908   0.813   1.472   4.759
24583W        W96909  21.166  32.107   1.919
24584W        W96910  36.853  11.741  11.443
24585W        W96911  11.278  44.964   2.205
24586W        W96912  24.981  22.085  10.902
24587W        W96913   3.811  26.138   0.435
24588W        W96914  13.307  44.810  12.919
24589W        W96915  40.837  43.339   0.396
24590W        W96916   2.395  35.908   0.247
24591W        W96917  43.369  34.976   1.306
24592W        W96918   2.228  18.622   3.255
24593W        W96919   8.783  44.292  13.417
24594W        W96920  11.668   8.273  11.006
24595W        W96921   7.262  10.821  11.008
24596W        W96922  33.892  39.946   1.798
24597W        W96923  27.658  36.933  11.031
24598W        W96924  42.488  41.489  14.479
24599W        W96925  16.171  15.167   4.817
24600W        W96926  33.886  40.910  13.370
24601W        W96927  24.660  39.952  13.860
24602W        W96928  33.905  34.494  11.578
24603W        W96929  35.994  12.650  11.900
24604W        W96930  34.984  20.078  12.876
24605W        W96931  16.090   0.474   4.681
24606W        W96932  24.030  42.351  11.923
24607W        W96933  22.059  35.017   1.224
24608W        W96934  40.935   4.860  11.895
24609W        W96935  37.082  17.747  13.510
24610W        W96936  24.624  23.619   0.727
24611W        W96937  11.848  39.952   1.859
24612W        W96938  28.608  43.322  12.825
24613W        W96939  34.610  17.727  14.288
24614W        W96940  33.039  37.897   3.191
24615W        W96941  35.980  42.512   4.136
24616W        W96942   3.445   3.899  13.025
24617W        W96943  31.966  35.919   2.336
24618W        W96944  17.114  17.083  13.974
24619W        W96945  14.180  19.201   3.200
24620W        W96946  42.023  29.520   3.285
24621W        W96947  24.068  16.103   2.816
24622W        W96948  26.541  29.622   1.319
24623W        W96949   1.240   0.764  11.022
24624W        W96950  13.164  21.245   3.171
24625W        W96951  38.569  14.168   1.751
24626W        W96952  37.533  16.116   3.289
24627W        W96953   0.927   8.672  13.454
24628W        W96954  26.680  39.477   1.891
24629W        W96955   0.327  14.741  13.792
24630W        W96956   6.682   6.267  11.092
24631W        W96957  14.282  15.786   1.916
24632W        W96958  35.389   0.957  13.399
24633W        W96959  44.362  43.921  12.062
24634W        W96960   7.219  36.588   1.700
24635W        W96961  32.063  44.872  11.528
24636W        W96962  38.349  32.536   3.206
24637W        W96963  14.630  27.010   4.726
24638W        W96964  22.038  20.701  10.575
24639W        W96965  27.551  13.112  13.898
24640W        W96966  12.165  43.303  10.967
24641W        W96967   2.745  26.503   3.149
24642W        W96968  35.521   5.840   0.467
24643W        W96969   4.419  14.667  10.997
24644W        W96970  23.041  12.312   1.744
24645W        W96971  16.144  11.739  12.416
24646W        W96972  10.289  16.082   4.833
24647W        W96973  10.145  22.211  12.401
24648W        W96974  28.007  17.741   4.221
24649W        W96975  19.261   5.432   0.427
24650W        W96976   5.388  38.856  11.508
24651W        W96977   9.381   0.903   3.781
24652W        W96978  36.432  36.000  14.816
24653W        W96979  19.645  34.488   3.348
24654W        W96980   0.979  23.987  12.066
24655W        W96981  27.661  27.480   2.680
24656W        W96982   1.380  21.642  13.842
24657W        W96983  24.644  29.047  13.335
24658W        W96984  24.721  22.212   1.347
24659W        W96985  16.648  28.015   4.707
24660W        W96986   3.903  13.329  13.048
24661W        W96987  21.612  19.074  12.882
24662W        W96988  11.330  15.209  12.515
24663W        W96989  31.086   3.743   0.332
24664W        W96990  40.529  36.571   3.721
24665W        W96991  42.383  23.547   2.274
24666W        W96992  41.313   5.339   0.367
24667W        W96993  17.639  43.339  14.923
24668W        W96994  14.750   0.865   4.256
24669W        W96995   5.427  29.610   1.722
24670W        W96996  23.022  28.984   2.307
24671W        W96997  25.151  15.595   0.372
24672W        W96998  26.470   8.845   4.291
24673W        W96999  16.752  30.458   3.658
24674W        W97000  38.849   7.849  11.503
24675W        W97001  12.666  31.611   4.710
24676W        W97002  14.610   8.781   1.854
24677W        W97003  17.712   3.710  14.321
24678W        W97004  18.694  20.563  11.961
24679W        W97005  20.162  13.747  13.865
24680W        W97006  28.644  36.414  12.486
24681W        W97007  20.233  32.402   1.316
24682W        W97008  36.576  40.880   2.837
24683W        W97009  43.318  25.573  12.445
24684W        W97010  42.014  13.178   4.144
24685W        W97011  12.646  12.229  13.344
24686W        W97012  22.731  38.937   0.832
24687W        W97013  37.034   3.228   1.912
24688W        W97014  35.467  11.241  10.948
24689W        W97015   6.375  36.538  13.368
24690W        W97016  40.929  26.985   0.349
24691W        W97017  18.141  33.908   2.662
24692W        W97018  17.704  26.201   2.217
24693W        W97019  20.229  14.097  11.994
24694W        W97020  41.491  31.607   2.680
24695W        W97021  20.736   3.865   4.781
24696W        W97022  31.913  27.152   0.804
24697W        W97023  11.724   2.948  13.548
24698W        W97024  29.649  19.152  14.313
24699W        W97025  38.415  43.963   2.191
24700W        W97026   5.334  26.186  13.922
24701W        W97027   7.224  30.161   4.311
24702W        W97028  14.681  25.481   0.860
24703W        W97029   1.771  38.397  12.081
24704W        W97030   8.343  39.319   4.651
24705W        W97031  12.796  15.636  10.008
24706W        W97032  35.025  11.698  14.794
24707W        W97033  35.041   7.236  13.817
24708W        W97034  19.690   8.662  13.385
24709W        W97035  19.133  37.382   4.821
24710W        W97036  14.788  21.215   1.780
24711W        W97037  28.624   1.800   2.889
24712W        W97038  40.451  21.724  14.812
24713W        W97039   4.795  11.758  13.938
24714W        W97040   8.661   1.415   3.648
24715W        W97041  38.355  18.075  13.849
24716W        W97042   9.781   2.808  12.488
24717W        W97043   1.804  34.435  12.362
24718W        W97044  11.838   4.332  13.379
24719W        W97045  32.973  37.911  12.531
24720W        W97046  44.397   9.320   0.920
24721W        W97047   9.355  17.266  14.400
24722W        W97048  30.442   9.351   4.796
24723W        W97049  39.518  28.036   2.674
24724W        W97050  10.235  10.735   0.754
24725W        W97051  35.514  24.575  11.415
24726W        W97052  12.764   1.937  14.512
24727W        W97053  41.432   9.853   4.759
24728W        W97054   4.271  30.941  12.503
24729W        W97055  11.695  30.951  12.461
24730W        W97056  24.121  23.730  12.899
24731W        W97057  34.520   8.845   2.397
24732W        W97058   2.229  42.515  13.799
24733W        W97059  24.499  35.960  13.849
24734W        W97060  21.050  33.383   0.749
24735W        W97061  16.217  32.511  14.828
24736W        W97062   6.775   2.282   0.785
24737W        W97063   5.337  44.850   4.239
24738W        W97064  36.386  31.981   1.731
24739W        W97065   4.314   4.362   3.151
24740W        W97066   9.785  15.695  14.961
24741W        W97067   2.929  25.471  12.967
24742W        W97068   0.975  32.491  11.487
24743W        W97069  20.614   8.357   2.887
24744W        W97070  12.644  40.801   4.647
24745W        W97071   4.390  25.486  12.500
24746W        W97072  32.965  30.421   4.714
24747W        W97073   4.307  18.749  13.474
24748W        W97074  31.014  12.678  10.126
24749W        W97075  30.007   5.913   1.424
24750W        W97076  12.290  38.987   2.337
24751W        W97077  19.631   4.836  12.961
24752W        W97078  36.985  22.523   2.179
24753W        W97079  32.477  32.967  11.074
24754W        W97080   4.870  13.110   2.197
24755W        W97081  30.112  30.612  13.405
24756W        W97082  12.766  27.553  13.357
24757W        W97083  42.883  13.664  13.938
24758W        W97084   8.778   6.227  11.496
24759W        W97085  27.486  36.493   1.804
24760W        W97086  29.011  13.775   3.153
24761W        W97087  17.221  29.435   4.277
24762W        W97088  21.695  44.444  12.908
24763W        W97089  41.911  27.126   2.362
24764W        W97090  30.061  24.080  14.945
24765W        W97091  26.954  29.445   2.768
24766W        W97092  36.528  27.961   3.217
24767W        W97093  15.297   0.322   0.441
24768W        W97094   5.334   9.798   1.861
24769W        W97095  17.122  13.812   4.756
24770W        W97096  36.462  19.068   0.790
24771W        W97097   8.262   7.268   2.248
24772W        W97098  24.517  43.474   3.766
24773W        W97099  13.217  33.393  10.057
24774W        W97100  19.057   1.478  14.952
24775W        W97101   7.746  21.222   1.241
24776W        W97102   2.774  36.882  14.943
24777W        W97103  34.906  34.959  10.108
24778W        W97104  27.138  38.544   0.440
24779W        W97105  26.564  14.661   2.876
24780W        W97106   9.230  28.065   1.905
24781W        W97107  20.723  26.190  13.010
24782W        W97108  26.066   8.811  14.465
24783W        W97109  30.517  12.360  13.310
24784W        W97110  28.061  25.101   4.750
24785W        W97111  31.909  27.541  10.522
24786W        W97112   7.337  33.930  11.383
24787W        W97113  33.624  13.729  13.331
24788W        W97114   9.257  25.178   4.711
24789W        W97115   1.938  26.199  12.959
24790W        W97116  11.216  31.944  12.071
24791W        W97117  23.683  16.175   3.714
24792W        W97118  18.077  33.018   2.410
24793W        W97119  44.837  17.073   3.663
24794W        W97120  29.959   3.436   5.191
24795W        W97121  26.001  18.191   2.721
24796W        W97122  26.557  28.544   4.738
24797W        W97123  15.237  31.133  10.626
24798W        W97124  37.033  10.179  12.844
24799W        W97125  22.557   9.670   4.199
24800W        W97126  28.543  20.560   3.777
24801W        W97127  14.323  40.931   4.650
24802W        W97128  23.138  40.810   5.175
24803W        W97129  40.486  37.343  11.506
24804W        W97130  21.513   5.728  13.516
24805W        W97131  32.995  25.542   2.319
24806W        W97132  24.550  40.821  13.957
24807W        W97133  24.079   4.808   0.329
24808W        W97134  39.027  40.407   3.222
24809W        W97135  32.905  27.474   1.267
24810W        W97136  34.382  33.029  14.352
24811W        W97137  43.893   9.326   2.809
24812W        W97138  31.627  26.488  12.400
24813W        W97139  10.712  35.950   3.705
24814W        W97140  27.120  34.601  13.015
24815W        W97141   0.904  25.093  14.911
24816W        W97142   6.288  31.496  13.487
24817W        W97143  13.332  29.109  11.567
24818W        W97144   9.671  40.904  13.957
24819W        W97145  12.739  30.916   4.668
24820W        W97146  17.595  12.275   0.379
24821W        W97147  32.616  18.063   0.910
24822W        W97148  26.120   1.779  12.458
24823W        W97149  32.119  41.405  13.799
24824W        W97150   7.700   1.782   2.309
24825W        W97151  15.217  40.989  10.901
24826W        W97152  44.963  44.862   4.209
24827W        W97153  17.175  35.447   4.310
24828W        W97154  38.956   0.923   0.816
24829W        W97155   8.809  15.143   2.776
24830W        W97156  25.071  17.671  10.120
24831W        W97157   3.410  19.573   0.349
24832W        W97158   3.398   1.878  14.984
24833W        W97159  35.865  43.810   4.619
24834W        W97160  21.523  21.633  12.433
24835W        W97161   5.322  33.598   1.850
24836W        W97162  13.219  29.053   1.883
24837W        W97163   7.205   0.915  12.442
24838W        W97164  20.030  11.157  11.382
24839W        W97165  35.956  16.224  12.083
24840W        W97166  42.001  13.116  13.424
24841W        W97167  35.852  24.064   0.841
24842W        W97168   2.771   3.839   0.909
24843W        W97169  33.100  34.576  10.047
24844W        W97170   1.899  34.070   4.125
24845W        W97171  22.155  33.427  12.392
24846W        W97172  19.263  24.589  14.932
24847W        W97173  37.852  21.079   4.732
24848W        W97174  15.772  18.064  13.828
24849W        W97175  21.593  33.514  11.549
24850W        W97176  10.228  38.891  12.430
24851W        W97177   3.748  15.610   1.825
24852W        W97178  35.406   4.311   0.959
24853W        W97179  25.080  24.656   1.756
24854W        W97180  31.595  15.734   4.217
24855W        W97181  43.490  36.497  13.531
24856W        W97182  36.870   5.226  10.579
24857W        W97183  18.713  39.440   1.699
24858W        W97184   7.359   6.384   2.344
24859W        W97185  20.176  42.293  13.923
24860W        W97186   8.301   2.348  12.980
24861W        W97187  34.004   2.457   0.358
24862W        W97188  43.414   5.719  10.473
24863W        W97189  37.415  22.018   2.347
24864W        W97190   4.211  31.013  10.406
24865W        W97191  43.434  39.826   1.840
24866W        W97192  34.483  34.030   3.257
24867W        W97193   5.282  11.246   2.390
24868W        W97194  22.591  17.727  11.418
24869W        W97195  34.513  11.805  14.811
24870W        W97196   5.219  44.287   4.143
24871W        W97197  44.980   3.417   0.471
24872W        W97198  35.038  11.860   0.275
24873W        W97199  43.006  42.936  13.325
24874W        W97200  26.007  17.761   0.398
24875W        W97201   1.421   5.750   1.912
24876W        W97202   0.328   2.925   3.280
24877W        W97203  23.113  40.518   0.280
24878W        W97204  38.017  38.909  11.977
24879W        W97205  25.647  35.088   4.621
24880W        W97206   4.824   3.821  11.858
24881W        W97207  28.670   8.697   0.362
24882W        W97208  44.500   1.899  11.498
24883W        W97209  32.619  16.766   4.620
24884W        W97210   0.905  19.225   1.770
24885W        W97211   6.402  24.588   3.710
24886W        W97212  20.190  25.004  14.504
24887W        W97213  26.620  18.724   2.375
24888W        W97214  25.120  11.276   3.379
24889W        W97215   8.839  33.586  14.949
24890W        W97216  40.979  14.295  14.303
24891W        W97217  16.681   6.273  12.554
24892W        W97218  41.027   5.789   2.831
24893W        W97219  33.941  16.573  14.764
24894W        W97220  13.724  14.708  11.587
24895W        W97221   9.249  12.312  13.938
24896W        W97222  37.496  17.104  13.937
24897W        W97223  17.641   0.917  14.937
24898W        W97224  42.431  30.963  14.317
24899W        W97225  20.741  19.250   4.236
24900W        W97226  12.781  30.944  12.419
24901W        W97227   4.212   3.853   1.703
24902W        W97228  25.510  34.892   1.696
24903W        W97229   7.245  29.971   1.708
24904W        W97230  21.524  17.574  11.876
24905W        W97231  30.441  29.131   2.260
24906W        W97232   4.296  10.144  12.089
24907W        W97233  17.269  15.130  11.869
24908W        W97234  17.179  19.096  12.420
24909W        W97235   6.244  33.476   3.165
24910W        W97236  18.743  32.617   2.853
24911W        W97237  38.373  25.021  13.022
24912W        W97238   4.272   0.478  14.811
24913W        W97239   0.268   9.654   0.336
24914W        W97240   4.714  29.987  12.055
24915W        W97241  12.804  42.937   4.700
24916W        W97242   8.377   8.277   3.675
24917W        W97243   9.830  35.562   0.756
24918W        W97244  41.425  14.828   3.193
24919W        W97245  23.070  35.950  13.976
24920W        W97246  21.251   0.382   3.314
24921W        W97247  17.559  13.706  12.410
24922W        W97248  10.330  43.410   3.710
24923W        W97249  25.032  21.120  14.022
24924W        W97250  32.544  39.961   0.290
24925W        W97251  31.471  11.372   2.234
24926W        W97252  20.109  26.120   2.296
24927W        W97253   1.299  13.237   3.319
24928W        W97254  14.652  10.215  12.547
24929W        W97255  22.198  11.733  13.542
24930W        W97256  23.045   6.804   2.793
24931W        W97257  42.461  24.502  14.967
24932W        W97258  13.792   8.666   4.810
24933W        W97259  11.312  43.803  14.019
24934W        W97260   6.239   0.759  11.577
24935W        W97261   9.785  39.516  10.892
24936W        W97262  17.175  12.331   0.310
24937W        W97263  35.892   7.769   4.337
24938W        W97264   8.164  17.067   0.948
24939W        W97265  19.702  18.638  11.006
24940W        W97266  21.515   5.336  11.455
24941W        W97267   9.795  25.690  10.970
24942W        W97268  20.232   8.687   3.196
24943W        W97269  43.785   9.345  11.001
24944W        W97270  12.244  43.871  10.528
24945W        W97271  29.999  35.361  12.519
24946W        W97272  43.802  19.664   4.225
24947W        W97273  11.249  15.163   1.384
24948W        W97274  24.670  40.443  14.004
24949W        W97275  41.889   4.784  14.450
24950W        W97276  14.125  11.132  11.590
24951W        W97277  13.739  32.556   1.319
24952W        W97278  34.993  33.421  10.032
24953W        W97279   0.378   3.733   4.803
24954W        W97280   7.852   3.713  12.849
24955W        W97281  22.129  29.918  14.413
24956W        W97282  37.509  37.996   1.438
24957W        W97283  42.979   9.361   1.923
24958W        W97284  22.729   2.298   0.931
24959W        W97285   2.777  32.618   3.165
24960W        W97286  12.291   3.366   1.825
24961W        W97287  22.567  31.896   5.295
24962W        W97288  17.099  26.149   4.708
24963W        W97289  16.231  38.346   0.410
24964W        W97290  43.474  44.004  11.590
24965W        W97291  15.733   7.732   1.329
24966W        W97292  14.593  12.658  11.423
24967W        W97293  16.625   1.452   2.826
24968W        W97294  29.536   3.303   1.270
24969W        W97295  17.175  11.182  14.943
24970W        W97296   1.398  14.250   2.262
24971W        W97297   1.827  19.666  11.900
24972W        W97298   3.311  32.139  12.882
24973W        W97299   9.832  43.398   4.789
24974W        W97300  28.951  37.556  12.538
24975W        W97301   1.855  24.593   5.313
24976W        W97302  36.920  28.002   1.710
24977W        W97303  30.500  44.302  12.049
24978W        W97304  41.882  25.529   1.398
24979W        W97305  21.752  27.489   0.456
24980W        W97306  39.931   9.665  14.400
24981W        W97307  38.463  30.544   2.181
24982W        W97308  14.322   6.241   2.306
24983W        W97309  35.371  15.113  12.030
24984W        W97310  10.749  31.095  10.591
24985W        W97311  28.536  28.180   1.832
24986W        W97312  10.159  30.422   4.648
24987W        W97313  15.680   0.914  14.792
24988W        W97314  39.323  23.035   0.347
24989W        W97315  25.184  35.491  14.817
24990W        W97316  37.069  21.150   3.232
24991W        W97317   1.936   6.286  10.457
24992W        W97318  29.148  40.546  11.109
24993W        W97319  29.067  12.720   1.818
24994W        W97320  41.454  27.682  12.445
24995W        W97321  21.683  39.418   1.904
24996W        W97322  26.961  29.919  14.946
24997W        W97323  29.099  13.674   0.817
24998W        W97324  14.693  31.015   2.757
24999W        W97325   4.347  16.743  13.310
25000W        W97326  41.028  32.509  12.854
25001W        W97327  12.154   7.173  12.366
25002W        W97328  36.919  11.272  13.828
25003W        W97329  11.231   4.791   2.816
25004W        W97330  35.580  23.187   2.849
25005W        W97331  17.204   9.243  13.926
25006W        W97332  12.143  25.602   0.479
25007W        W97333  33.960   5.805  10.918
25008W        W97334  23.063   6.801   2.397
25009W        W97335  20.227  29.958   2.285
25010W        W97336  27.998  37.021   0.415
25011W        W97337  35.582  19.208  13.821
25012W        W97338   3.874  34.087  10.574
25013W        W97339   9.273  41.011   1.239
25014W        W97340  15.176  15.767   1.437
25015W        W97341  23.708  16.632   2.287
25016W        W97342   5.881  14.125   3.804
25017W        W97343  13.795   9.351  11.865
25018W        W97344  27.575  40.825   0.250
25019W        W97345  16.249   6.806   4.160
25020W        W97346   6.801   9.280  14.279
25021W        W97347  41.322  44.440  12.443
25022W        W97348  43.868  11.208   2.265
25023W        W97349  37.965   4.376   0.940
25024W        W97350  28.498  28.448   4.223
25025W        W97351  15.775  33.004  12.355
25026W        W97352  42.326  23.155  11.047
25027W        W97353  22.726  26.516   0.941
25028W        W97354  44.406   7.747  13.814
25029W        W97355  33.571  37.407   3.216
25030W        W97356  30.548   5.745   3.643
25031W        W97357  26.043  35.457   1.834
25032W        W97358  40.803  32.413  14.418
25033W        W97359  21.135  39.051   3.290
25034W        W97360   8.667  25.037  10.476
25035W        W97361   2.729  37.449  10.607
25036W        W97362  42.936  37.931  11.082
25037W        W97363  31.573  30.153   2.290
25038W        W97364  35.858  15.157  12.438
25039W        W97365  12.723  11.204  14.832
25040W        W97366  10.151  20.568   1.411
25041W        W97367  11.163  21.512  14.453
25042W        W97368  20.136  16.570   3.145
25043W        W97369   1.441  42.896  11.011
25044W        W97370  25.095  41.534  10.427
25045W        W97371  20.040  25.166   1.362
25046W        W97372  26.629  21.216   4.653
25047W        W97373   2.355  24.074   1.392
25048W        W97374   5.310  24.109   3.867
25049W        W97375  38.029  15.626  12.035
25050W        W97376  18.650  11.864  11.604
25051W        W97377  16.266   8.801  12.490
25052W        W97378  44.882  38.827  12.886
25053W        W97379   1.779   1.308   0.460
25054W        W97380   2.942  18.612  10.629
25055W        W97381  14.733  27.130   0.475
25056W        W97382  23.994  13.731   0.260
25057W        W97383  29.151   4.907  10.130
25058W        W97384  38.033  18.562  14.939
25059W        W97385   4.792  34.552   9.963
25060W        W97386  13.293  39.395  11.973
25061W        W97387   6.840  35.397  10.489
25062W        W97388  19.564  30.529   0.946
25063W        W97389  27.615  20.619   2.201
25064W        W97390  44.840  37.040  12.447
25065W        W97391  25.004   5.311   3.704
25066W        W97392  18.691  35.046  11.426
25067W        W97393  21.537  32.972   4.806
25068W        W97394  14.814  28.543  14.791
25069W        W97395   3.308   6.745  10.903
25070W        W97396  43.481   5.862   1.730
25071W        W97397   4.439   7.201   4.262
25072W        W97398  43.859  37.421  11.120
25073W        W97399  27.043  43.466   2.193
25074W        W97400  33.513  24.631   0.751
25075W        W97401   5.362  23.049  10.595
25076W        W97402  30.496  37.076   2.689
25077W        W97403   3.232  43.279   3.809
25078W        W97404  41.004   9.395  14.315
25079W        W97405  20.218  21.102   1.845
25080W        W97406   0.928  33.900  10.635
25081W        W97407  30.575  31.912  10.580
25082W        W97408  35.973  36.449  12.447
25083W        W97409  39.970  29.117   1.425
25084W        W97410  36.357  21.656  13.392
25085W        W97411  40.962  44.327   2.398
25086W        W97412   6.359  36.858  10.952
25087W        W97413  33.516  10.770  14.357
25088W        W97414   7.214  40.915   2.720
25089W        W97415  28.984  26.587  13.893
25090W        W97416  43.488  23.220   3.176
25091W        W97417  34.479  20.132  12.342
25092W        W97418  28.934   6.780  12.495
25093W        W97419  30.651  28.526   3.728
25094W        W97420  18.702  27.507  10.426
25095W        W97421  13.653  38.878  10.634
25096W        W97422  43.916  42.469   1.766
25097W        W97423  38.554  30.946   1.752
25098W        W97424  41.811  23.199  13.346
25099W        W97425   6.872  44.451   9.983
25100W        W97426  10.719  26.100   4.649
25101W        W97427  33.087   9.268  11.459
25102W        W97428  44.313  41.465   4.242
25103W        W97429  19.060  22.691  13.894
25104W        W97430  34.456  13.216  11.896
25105W        W97431  42.402  41.016   4.225
25106W        W97432  21.097  40.453  11.074
25107W        W97433  27.115   3.894   4.303
25108W        W97434  38.388   3.755   2.760
25109W        W97435  22.061  31.552  12.989
25110W        W97436  34.885  26.659   1.300
25111W        W97437  15.184  14.173  14.861
25112W        W97438  37.007   0.286   0.897
25113W        W97439  18.119  12.720   1.406
25114W        W97440   3.283  21.576  13.337
25115W        W97441  31.491   9.183   3.855
25116W        W97442  33.975  25.106  14.496
25117W        W97443  37.522  23.029   4.222
25118W        W97444  24.681  18.754   1.783
25119W        W97445  44.942  23.041  11.028
25120W        W97446  19.771   0.443   4.256
25121W        W97447  15.202  24.160  13.953
25122W        W97448  15.099   8.892   2.837
25123W        W97449   6.918  17.636   0.320
25124W        W97450  31.022  13.217  14.314
25125W        W97451  40.327  41.814   0.808
25126W        W97452   4.831  11.179  14.783
25127W        W97453  17.233   6.837   0.267
25128W        W97454   6.695   6.374  10.451
25129W        W97455  29.631   1.898  13.845
25130W        W97456  24.165  40.488  13.442
25131W        W97457  20.074  24.662  11.061
25132W        W97458   8.251  25.049  11.941
25133W        W97459  35.898  26.971   3.721
25134W        W97460   4.321   2.825  12.536
25135W        W97461   4.945  10.261  14.000
25136W        W97462   4.820  30.155  11.506
25137W        W97463  31.001   4.261   0.952
25138W        W97464  39.428  43.482   4.143
25139W        W97465  34.024  20.761  14.763
25140W        W97466  25.076  40.376  11.388
25141W        W97467   1.810  22.576  13.931
25142W        W97468  15.677   3.367  14.295
25143W        W97469  23.618  37.033   5.216
25144W        W97470  17.653  27.473  13.899
25145W        W97471  20.052  28.169  14.381
25146W        W97472  24.648  14.672   1.446
25147W        W97473  21.220  22.613  13.465
25148W        W97474  12.655  26.468  11.484
25149W        W97475  18.139   9.745   0.292
25150W        W97476  36.402  39.030  11.512
25151W        W97477  41.791  29.955   3.155
25152W        W97478  34.116  43.791   4.320
25153W        W97479  13.682  24.042   1.800
25154W        W97480   6.357   5.747  10.074
25155W        W97481  23.028  16.566   0.804
25156W        W97482  26.117  39.034  12.382
25157W        W97483  35.411  34.510  10.021
25158W        W97484   6.802  28.556  14.999
25159W        W97485  12.778  38.466   1.836
25160W        W97486   1.457   1.298   4.799
25161W        W97487  32.953   9.657   1.233
25162W        W97488  10.830  19.225  12.925
25163W        W97489  39.354  27.004  11.930
25164W        W97490  42.313  21.190  12.932
25165W        W97491  13.289  17.254  13.368
25166W        W97492   9.865  38.513  13.418
25167W        W97493  33.068  28.053   4.120
25168W        W97494  40.497   7.759   3.859
25169W        W97495  37.932  29.120   2.279
25170W        W97496   0.293  42.943  13.517
25171W        W97497   4.367  35.440   1.912
25172W        W97498  11.639  29.998   0.898
25173W        W97499  32.056   4.351   3.353
25174W        W97500   4.208  14.109  13.009
25175W        W97501   9.863   5.838  12.551
25176W        W97502  42.469  31.110   1.314
25177W        W97503  42.381   4.711   2.227
25178W        W97504  35.577  28.601   3.154
25179W        W97505   0.281  36.457   3.791
25180W        W97506   4.871  14.602   4.141
25181W        W97507   6.728  44.847  11.005
25182W        W97508  23.010  19.561   1.391
25183W        W97509   1.242  23.153  11.870
25184W        W97510  31.053  33.497   0.459
25185W        W97511  13.660  29.456  11.043
25186W        W97512  18.551  18.256  12.496
25187W        W97513  32.083  37.898   4.118
25188W        W97514  35.066  38.987   3.687
25189W        W97515  30.977  26.518   1.236
25190W        W97516  33.513   9.773   1.385
25191W        W97517  31.140  10.735   2.415
25192W        W97518   6.679  22.089   2.819
25193W        W97519  14.108  31.648   3.302
25194W        W97520  15.271   0.883   2.869
25195W        W97521  15.801  38.033   3.192
25196W        W97522   9.778  25.672  13.051
25197W        W97523  38.563  42.005   3.168
25198W        W97524  14.157  42.345  14.945
25199W        W97525  40.797  28.094   2.221
25200W        W97526  26.621  10.729  13.967
25201W        W97527   7.741   2.427   0.290
25202W        W97528  40.423  23.098   1.451
25203W        W97529  39.932   6.389   0.877
25204W        W97530   7.802  41.936  13.036
25205W        W97531  39.430  40.446   4.161
25206W        W97532  19.733  32.480  13.931
25207W        W97533   6.785   4.399   0.730
25208W        W97534  26.175   2.935  12.371
25209W        W97535  39.891  35.392  12.539
25210W        W97536  40.357  17.734  10.957
25211W        W97537  18.242  13.694  13.057
25212W        W97538  12.616  21.520   4.735
25213W        W97539  14.219  17.641   0.851
25214W        W97540  28.519  31.582   2.866
25215W        W97541   6.415  20.264   4.146
25216W        W97542  36.087   0.368   2.387
25217W        W97543  36.863  29.636   2.708
25218W        W97544  12.665  27.570   1.717
25219W        W97545  29.660  21.118   5.220
25220W        W97546   8.823  33.462  12.455
25221W        W97547  14.786   1.259  10.921
25222W        W97548  28.633  11.234   3.650
25223W        W97549  10.288   6.256  14.836
25224W        W97550  35.040   9.309   0.332
25225W        W97551  33.083   4.269   2.858
25226W        W97552  31.907  13.105   0.941
25227W        W97553  37.084   6.848  11.897
25228W        W97554   3.858  23.629  12.564
25229W        W97555   1.736  41.432   0.264
25230W        W97556  11.335  14.187   3.347
25231W        W97557  23.195  24.642   2.312
25232W        W97558  27.969  11.807   4.150
25233W        W97559  28.145  19.112  10.539
25234W        W97560   3.953   6.822   0.363
25235W        W97561  17.230  40.362  10.637
25236W        W97562  34.511  12.281   0.331
25237W        W97563   0.262  17.631  14.799
25238W        W97564  20.108  27.661   4.303
25239W        W97565  13.332  40.926  12.943
25240W        W97566  27.002  17.800   0.328
25241W        W97567  32.062  21.742  13.877
25242W        W97568  19.041  31.440  14.760
25243W        W97569  26.693   3.755   3.805
25244W        W97570   9.313   7.671  13.821
25245W        W97571  11.130  11.744  11.090
25246W        W97572  11.675  42.030  13.394
25247W        W97573  32.110  37.355   0.903
25248W        W97574  24.985  24.512   4.819
25249W        W97575   6.291  13.346   1.917
25250W        W97576   6.724   5.419   2.349
25251W        W97577  20.243  29.425  12.051
25252W        W97578  19.605  18.066   4.117
25253W        W97579  24.613  43.992   2.676
25254W        W97580  25.708  17.684  10.978
25255W        W97581  36.373  39.482  12.396
25256W        W97582  32.410  32.542   4.641
25257W        W97583  11.133  35.013  12.029
25258W        W97584  10.632  40.306  10.624
25259W        W97585  13.338  32.505   0.878
25260W        W97586  35.948  28.510   4.700
25261W        W97587   3.934   8.827  13.796
25262W        W97588  20.186  16.309   1.327
25263W        W97589  37.006  19.063   4.622
25264W        W97590   7.212   2.827  11.040
25265W        W97591  16.694  21.019  12.884
25266W        W97592  10.796  26.468   5.296
25267W        W97593  44.895  33.483  13.947
25268W        W97594  21.202  12.737  12.454
25269W        W97595  19.194   4.304   2.711
25270W        W97596  12.306  29.575  11.041
25271W        W97597   4.920  33.579  11.991
25272W        W97598  21.178  25.167  13.057
25273W        W97599  30.480  25.702   3.194
25274W        W97600  30.103   5.720  13.801
25275W        W97601  37.000  10.372  10.045
25276W        W97602   8.749  36.555   3.202
25277W        W97603  24.171  16.186   0.908
25278W        W97604  44.779  42.476  14.010
25279W        W97605  11.807  22.016  14.989
25280W        W97606   2.339   9.263   4.338
25281W        W97607   3.723  16.178   1.900
25282W        W97608  37.362  12.340   2.846
25283W        W97609  29.012  13.115  11.605
25284W        W97610  12.241   1.747  10.621
25285W        W97611  10.146  35.862   0.343
25286W        W97612  42.939  31.044   0.279
25287W        W97613  21.712   4.825  10.572
25288W        W97614  37.560  14.632   4.743
25289W        W97615   7.698  22.196   2.397
25290W        W97616  25.553  43.952   3.732
25291W        W97617  36.387  18.666   1.698
25292W        W97618  20.049  30.635  14.405
25293W        W97619  43.886  40.862   1.893
25294W        W97620  11.812  36.994  12.905
25295W        W97621  24.615  12.234  11.015
25296W        W97622  23.700   4.898  10.530
25297W        W97623   9.884  18.143  14.488
25298W        W97624  37.466  17.079  11.054
25299W        W97625  15.634  23.722   3.722
25300W        W97626   0.836  24.609  13.019
25301W        W97627  29.441  32.058  12.869
25302W        W97628   2.822  28.141   4.164
25303W        W97629  26.538  44.828  13.485
25304W        W97630   5.200  37.394  13.885
25305W        W97631  21.233  27.013  10.968
25306W        W97632  13.812  36.478  10.888
25307W        W97633  44.981  15.606  14.858
25308W        W97634  13.261  11.833   3.687
25309W        W97635   7.210  38.053   0.391
25310W        W97636  21.660  21.047   2.719
25311W        W97637  35.455  31.125  14.024
25312W        W97638  28.594  39.416  12.482
25313W        W97639   7.309   7.198   0.395
25314W        W97640  21.552  13.758  14.794
25315W        W97641  12.672  38.463   2.221
25316W        W97642   3.379  27.500  13.004
25317W        W97643  31.640  10.659  13.426
25318W        W97644  23.723  32.980  12.983
25319W        W97645  42.381  12.138  10.567
25320W        W97646  34.550   0.386  12.456
25321W        W97647   5.350  40.845   2.746
25322W        W97648  11.278   2.453   1.922
25323W        W97649  29.446  42.439   0.797
25324W        W97650  24.519  43.432   2.862
25325W        W97651   2.381  23.690  10.549
25326W        W97652   7.812  15.329   2.237
25327W        W97653  42.005  18.748   3.682
25328W        W97654   9.376  43.313   4.230
25329W        W97655  33.922  43.770  13.057
25330W        W97656   8.793  34.507   0.268
25331W        W97657  36.588  44.889   1.911
25332W        W97658  21.176  19.768   0.265
25333W        W97659  23.148   3.385  13.794
25334W        W97660  24.585   6.915  11.596
25335W        W97661  43.830   3.937  13.450
25336W        W97662  39.502   1.751   4.661
25337W        W97663  42.287   0.809  11.991
25338W        W97664  31.977  17.118   1.900
25339W        W97665  44.413   3.461   2.854
25340W        W97666  23.551  27.451  10.456
25341W        W97667  19.754   5.758   4.800
25342W        W97668  25.138  26.690   0.837
25343W        W97669   9.805  18.702  14.407
25344W        W97670  10.720  28.558  14.007
25345W        W97671  38.900   2.722  12.528
25346W        W97672  16.616  19.069   2.190
25347W        W97673  34.375  25.628  10.544
25348W        W97674  29.158  26.557   1.290
25349W        W97675  27.567  28.479   5.793
25350W        W97676  27.015  14.803  14.886
25351W        W97677  22.184  18.625  14.001
25352W        W97678  11.636   4.257  13.042
25353W        W97679  40.902  37.377   0.771
25354W        W97680   1.363  28.496  12.973
25355W        W97681  43.373  43.365   4.305
25356W        W97682   9.861  39.541  14.005
25357W        W97683   5.838  14.300   2.213
25358W        W97684  42.433  23.234   4.141
25359W        W97685  43.859  29.173  11.465
25360W        W97686  35.038  14.595  12.994
25361W        W97687   8.377  11.852  12.843
25362W        W97688   3.861  26.081  10.560
25363W        W97689  16.091   1.403   1.792
25364W        W97690   5.390   4.945  12.490
25365W        W97691  35.480   4.814  12.350
25366W        W97692  36.041  11.672  11.543
25367W        W97693  23.132  14.725   3.719
25368W        W97694   3.245  18.728   3.297
25369W        W97695  31.037  32.023   0.841
25370W        W97696  35.079  14.333   0.243
25371W        W97697  31.909   0.859  14.996
25372W        W97698  10.854  30.567   0.250
25373W        W97699  19.162  42.470  12.918
25374W        W97700  29.446  12.317   4.177
25375W        W97701  42.017  16.147  13.520
25376W        W97702   8.275   9.267  11.524
25377W        W97703  36.912  20.753   0.409
25378W        W97704  17.177  32.926  14.951
25379W        W97705  28.559  23.694   3.337
25380W        W97706   8.276  31.472   2.822
25381W        W97707  37.390  38.044  10.424
25382W        W97708  28.532  24.704   2.794
25383W        W97709   4.757  28.000   0.862
25384W        W97710   6.329  12.261   0.452
25385W        W97711  30.040   8.802   3.149
25386W        W97712  15.096  31.108   1.773
25387W        W97713  44.795  43.439  11.414
25388W        W97714  32.054  10.265  11.963
25389W        W97715  26.547  34.114  14.423
25390W        W97716   9.662  22.717  13.000
25391W        W97717  28.076  37.031  13.815
25392W        W97718  10.702  44.902   3.350
25393W        W97719  26.039  10.734   4.175
25394W        W97720  37.922   2.438   1.360
25395W        W97721  10.210  44.806   2.769
25396W        W97722  28.667  27.552   0.421
25397W        W97723  24.632  22.144  14.951
25398W        W97724   8.871   4.904  13.046
25399W        W97725  15.641  22.231   2.284
25400W        W97726  18.559  24.683   3.193
25401W        W97727  37.455  12.205  13.022
25402W        W97728  23.018  23.027  10.905
25403W        W97729  27.552  17.757  14.005
25404W        W97730   0.273  20.530   3.180
25405W        W97731   1.360  11.146  14.003
25406W        W97732  29.642  27.945   0.842
25407W        W97733   2.252   3.269  11.982
25408W        W97734   4.855   6.417  13.807
25409W        W97735  10.843   1.252  10.565
25410W        W97736  43.854  26.513  13.537
25411W        W97737  25.570  15.171   4.155
25412W        W97738  39.908  16.145  11.594
25413W        W97739  41.838  37.573   4.629
25414W        W97740  11.307  20.655   1.215
25415W        W97741  32.408  29.561   3.195
25416W        W97742  17.156   1.866  11.091
25417W        W97743   7.335   8.177   1.326
25418W        W97744   8.334  34.116   2.889
25419W        W97745  10.790  15.592  10.009
25420W        W97746  11.141  10.322   4.151
25421W        W97747  11.296  29.086  14.984
25422W        W97748  11.706  18.707  14.331
25423W        W97749  10.287   7.750   4.783
25424W        W97750  31.575  14.224  11.940
25425W        W97751  25.078   4.758   3.363
25426W        W97752  28.514  30.022   1.830
25427W        W97753  36.492   1.258  10.896
25428W        W97754   9.677  38.053   4.283
25429W        W97755   7.674   1.424  14.972
25430W        W97756  31.519  15.323   4.722
25431W        W97757  35.517  16.642  14.967
25432W        W97758  20.597  40.996  12.001
25433W        W97759   5.251  11.668  10.617
25434W        W97760   4.738  13.768  11.076
25435W        W97761   0.941  14.192  13.034
25436W        W97762  32.952  22.050   3.148
25437W        W97763  22.734  27.588  13.361
25438W        W97764  38.404  35.044   2.211
25439W        W97765   7.408  17.286  12.008
25440W        W97766  43.284  22.616  12.526
25441W        W97767  39.055   4.379   2.796
25442W        W97768  41.307  36.867  14.016
25443W        W97769  43.502   6.908  14.781
25444W        W97770  28.035  43.447   2.230
25445W        W97771  12.626  34.458  11.449
25446W        W97772  28.444  40.406   0.885
25447W        W97773   3.354  34.022   1.740
25448W        W97774  44.392  26.997   4.724
25449W        W97775  37.410  16.782  12.411
25450W        W97776  17.698  35.402  11.465
25451W        W97777  13.821  27.603   4.653
25452W        W97778  29.165  40.874  14.282
25453W        W97779  31.505   3.397   4.809
25454W        W97780  41.372   7.780   1.909
25455W        W97781  38.380  17.181  11.033
25456W        W97782  39.963   2.747   2.280
25457W        W97783  25.643  17.784   5.099
25458W        W97784  40.903  34.922   1.844
25459W        W97785  26.082  39.375  14.310
25460W        W97786  23.019   6.705  12.825
25461W        W97787  32.607  33.558  12.556
25462W        W97788   6.703  27.141  11.054
25463W        W97789  36.348   0.933  11.603
25464W        W97790  38.865  34.985   2.290
25465W        W97791  42.801   5.289   0.924
25466W        W97792   4.214  31.482   3.752
25467W        W97793  38.919   1.944  12.358
25468W        W97794  27.652  35.048   1.368
25469W        W97795  31.626  37.438  12.857
25470W        W97796  25.639  10.840   0.745
25471W        W97797  34.878  14.821   0.282
25472W        W97798  18.216   4.913   0.966
25473W        W97799  16.273  31.044  12.075
25474W        W97800  25.997  44.006  14.346
25475W        W97801  18.684  36.953  14.489
25476W        W97802  42.425  15.775   1.768
25477W        W97803   1.330  33.381   0.842
25478W        W97804  26.953   3.844   2.379
25479W        W97805   9.151  44.501  13.046
25480W        W97806   2.858  44.964   4.751
25481W        W97807   5.856  41.006  12.830
25482W        W97808  22.243  36.087  13.548
25483W        W97809   3.227  32.450  10.432
25484W        W97810  44.326  18.693   1.332
25485W        W97811  39.902   1.443  12.401
25486W        W97812   0.889  25.676   2.275
25487W        W97813  31.410  40.039  10.940
25488W        W97814  15.666  32.485   0.412
25489W        W97815  43.317  14.187   5.236
25490W        W97816  15.616  25.525  11.060
25491W        W97817  16.249  20.233  11.055
25492W        W97818  15.305  13.786  12.400
25493W        W97819  38.339  40.454   2.290
25494W        W97820   1.969  23.617   3.664
25495W        W97821  33.057  35.063  14.506
25496W        W97822  43.810  12.280  13.032
25497W        W97823  23.502  22.158  13.325
25498W        W97824  38.895  28.615  13.869
25499W        W97825  41.315  20.127  10.420
25500W        W97826  18.724  36.519  12.515
25501W        W97827   5.280  44.950  13.887
25502W        W97828  35.499  14.322   4.144
25503W        W97829  21.567   8.228  12.987
25504W        W97830  35.598  18.092   2.218
25505W        W97831  13.638  20.759  12.532
25506W        W97832  11.306  37.338   1.884
25507W        W97833   0.758  30.434   3.195
25508W        W97834  42.960  12.136  12.484
25509W        W97835  15.321  32.052  13.905
25510W        W97836  27.607   2.735  12.415
25511W        W97837  26.626  33.520  11.127
25512W        W97838  38.956   9.744   1.366
25513W        W97839   0.255  39.914  10.564
25514W        W97840  42.418  25.058   0.343
25515W        W97841  18.291  36.455   1.761
25516W        W97842  19.716  14.302   1.768
25517W        W97843  35.381  15.091  14.859
25518W        W97844  15.296  31.424  13.478
25519W        W97845  13.729  18.748   0.876
25520W        W97846  18.545  27.600   0.840
25521W        W97847  25.554  30.113  10.441
25522W        W97848  15.681  11.366  14.464
25523W        W97849  42.003  13.743   0.762
25524W        W97850   5.729  36.365  12.874
25525W        W97851  34.933  18.728  12.069
25526W        W97852  36.078  30.456   1.933
25527W        W97853   8.690  42.874   3.636
25528W        W97854  25.200  20.251   1.739
25529W        W97855  31.533  32.992  11.894
25530W        W97856  17.687  13.663   3.346
25531W        W97857  33.117  19.728   2.812
25532W        W97858  24.542   6.889   1.752
25533W        W97859  27.091  12.312  11.566
25534W        W97860  21.192  44.276  14.908
25535W        W97861  21.627  25.501   4.148
25536W        W97862   8.796  30.512   4.122
25537W        W97863  32.037  11.700  12.559
25538W        W97864  26.622  43.958   2.840
25539W        W97865  43.409  21.195   9.933
25540W        W97866  32.940  20.728   4.242
25541W        W97867  25.704  31.528  14.855
25542W        W97868  14.616  39.910   0.350
25543W        W97869   3.911   9.224   1.914
25544W        W97870   7.401   5.304  13.352
25545W        W97871   7.687  16.080   3.339
25546W        W97872  35.541   6.691  11.881
25547W        W97873  28.002   9.313   0.277
25548W        W97874  26.067  28.632  13.941
25549W        W97875  33.118   1.975   0.271
25550W        W97876  20.660  13.287  12.956
25551W        W97877  19.215   6.806  14.846
25552W        W97878  25.693   9.245  13.881
25553W        W97879  35.602  32.994  13.423
25554W        W97880  14.108   4.209   3.787
25555W        W97881  20.707  19.113  12.400
25556W        W97882  31.968  43.016  14.883
25557W        W97883  25.035  28.619  14.335
25558W        W97884  19.170   1.481   0.394
25559W        W97885   5.911  10.167  10.946
25560W        W97886  30.493   3.762   4.605
25561W        W97887  36.971   9.287   4.199
25562W        W97888  29.650  34.911  12.570
25563W        W97889  27.042  26.507  13.538
25564W        W97890  23.031  19.747  13.873
25565W        W97891   0.494   7.819  12.068
25566W        W97892   0.451  13.719   0.945
25567W        W97893  31.930  22.578  13.310
25568W        W97894  44.473   8.256  14.821
25569W        W97895  20.728  35.080   4.312
25570W        W97896  20.621   4.868   4.341
25571W        W97897  11.153  32.623  13.038
25572W        W97898  20.547   8.862  11.387
25573W        W97899  14.183  20.573  11.965
25574W        W97900  20.070  17.683  12.572
25575W        W97901  18.688  10.866   1.271
25576W        W97902   5.432  19.582  12.890
25577W        W97903   1.778  29.463   4.738
25578W        W97904  33.448   1.368   4.170
25579W        W97905   2.794  42.960  10.405
25580W        W97906  23.567  28.675   3.769
25581W        W97907  33.902  39.913   2.730
25582W        W97908  17.109   3.937  10.007
25583W        W97909  13.713  39.357   4.151
25584W        W97910   9.270  23.066  13.494
25585W        W97911  38.968  43.334   4.732
25586W        W97912  25.700   4.208  13.391
25587W        W97913   7.348  36.486   3.848
25588W        W97914  44.827  41.940   0.829
25589W        W97915  22.091  29.453   2.713
25590W        W97916  16.704  12.299  10.994
25591W        W97917  30.616   7.176   0.393
25592W        W97918  21.619   9.676  11.407
25593W        W97919  35.006   9.739  10.923
25594W        W97920  14.317   8.259  11.603
25595W        W97921   1.949   8.206   4.761
25596W        W97922  38.822  28.061  13.818
25597W        W97923   5.199  25.063  11.088
25598W        W97924   8.740   2.276   2.684
25599W        W97925   6.778   1.809   3.656
25600W        W97926  22.225  26.129  13.548
25601W        W97927  33.898  26.131  10.644
25602W        W97928   5.838  15.258   3.146
25603W        W97929  17.096  17.139  10.912
25604W        W97930  13.331   1.770  10.980
25605W        W97931  39.546   1.871   3.361
25606W        W97932  28.438  28.076  14.001
25607W        W97933  26.129  21.095  12.488
25608W        W97934   3.335   5.370   0.337
25609W        W97935  19.677  14.201   2.754
25610W        W97936  38.872  40.983  11.605
25611W        W97937  38.330   8.797  14.496
25612W        W97938  23.000  27.501  12.976
25613W        W97939  31.025  10.666  13.466
25614W        W97940  35.405  22.502  10.486
25615W        W97941  36.910  25.689  12.340
25616W        W97942   5.697  30.631   3.727
25617W        W97943  35.098  36.882  11.517
25618W        W97944  16.736  23.621   0.474
25619W        W97945  22.623  13.649  11.089
25620W        W97946  16.110  27.456  12.405
25621W        W97947  22.147   4.282  14.956
25622W        W97948  29.663  43.377  14.920
25623W        W97949  12.132   7.745   4.158
25624W        W97950  37.442   0.480   0.294
25625W        W97951  19.113   5.254  13.894
25626W        W97952  14.124  38.054   2.202
25627W        W97953  36.946   4.773  11.589
25628W        W97954  42.484  34.064  14.436
25629W        W97955   1.446  27.691   4.124
25630W        W97956  20.536   4.780  10.636
25631W        W97957  39.441   2.943  14.429
25632W        W97958  32.570  12.358  10.404
25633W        W97959  17.286   2.721   1.696
25634W        W97960  31.507   1.737  14.842
25635W        W97961  37.349   9.371   4.229
25636W        W97962  35.567  18.708  12.875
25637W        W97963   3.943   1.761  12.006
25638W        W97964  31.070  11.315   1.699
25639W        W97965  16.267  42.026   3.166
25640W        W97966  14.801  40.354  12.921
25641W        W97967  34.508  25.029   2.755
25642W        W97968  36.523  43.412   2.683
25643W        W97969  19.700  26.110  11.470
25644W        W97970  33.002  13.819   4.598
25645W        W97971  12.147  42.961  13.319
25646W        W97972  30.146   7.838  10.997
25647W        W97973  33.076  22.712  13.960
25648W        W97974  17.706  12.264   1.403
25649W        W97975  19.284  19.734  12.906
25650W        W97976  42.428  36.878   3.329
25651W        W97977  11.204   5.308   3.782
25652W        W97978   9.717  12.298  10.490
25653W        W97979  33.606  44.412   2.267
25654W        W97980  40.499  29.637   3.795
25655W        W97981  30.115  43.326   1.736
25656W        W97982  17.082  13.345   0.952
25657W        W97983  24.567  19.647   1.832
25658W        W97984  13.664   8.169   4.837
25659W        W97985  12.755  21.086   0.870
25660W        W97986   8.259   9.778   0.457
25661W        W97987  13.113  40.011  11.050
25662W        W97988  16.587  43.346  10.586
25663W        W97989  18.745  24.543  13.316
25664W        W97990  37.064  39.853  12.502
25665W        W97991  11.718  43.805   4.610
25666W        W97992  16.634  33.386  11.043
25667W        W97993  29.582  10.340   2.280
25668W        W97994  43.773  31.635   1.408
25669W        W97995  20.685  12.755  13.545
25670W        W97996  38.069  34.403   2.891
25671W        W97997  24.048  18.137   3.871
25672W        W97998  29.934   6.250  14.932
25673W        W97999  37.490  41.858  11.610
25674W        W98000  29.592   5.344  13.822
25675W        W98001  16.723  37.424  10.904
25676W        W98002  13.291  18.174  13.930
25677W        W98003  34.091  12.222  12.070
25678W        W98004  18.589  44.292  12.065
25679W        W98005  32.594  40.913  12.875
25680W        W98006  25.987  34.559   2.254
25681W        W98007  42.879  40.474  10.497
25682W        W98008  15.270   7.863  10.892
25683W        W98009  20.068  30.981   3.633
25684W        W98010  14.131  28.138  10.951
25685W        W98011  34.480  15.104   0.370
25686W        W98012   8.289   3.729   4.748
25687W        W98013  31.970   4.868   1.321
25688W        W98014  17.067  10.834   4.731
25689W        W98015  21.599  23.057  14.989
25690W        W98016  22.685  22.122   3.770
25691W        W98017  27.076  18.783  10.454
25692W        W98018  15.181  29.528  11.122
25693W        W98019  42.951   7.393  11.990
25694W        W98020  29.918  16.187   4.758
25695W        W98021  30.477  11.309  10.518
25696W        W98022  44.862   6.374   4.760
25697W        W98023  26.549  33.460   5.145
25698W        W98024   9.768  13.794  14.488
25699W        W98025  39.546  20.560  12.860
25700W        W98026   7.707   2.886  14.965
25701W        W98027   0.419  27.157  14.885
25702W        W98028   3.777  10.679  13.001
25703W        W98029  12.774  36.013  12.982
25704W        W98030  39.517  31.994   1.410
25705W        W98031   4.830  10.743  13.898
25706W        W98032  15.152  17.103   0.922
25707W        W98033  14.299  30.581   1.907
25708W        W98034  37.404  21.665   1.372
25709W        W98035   2.243  43.308   3.826
25710W        W98036   5.700  16.281  10.898
25711W        W98037  43.019  20.236   2.345
25712W        W98038  15.126  40.522   3.761
25713W        W98039  40.042  15.217   2.899
25714W        W98040  13.235   1.367  13.535
25715W        W98041  44.269  11.711  12.836
25716W        W98042   1.918  39.384  11.942
25717W        W98043   5.774  12.650  14.990
25718W        W98044  43.845  40.421  11.520
25719W        W98045  13.818  18.783  12.380
25720W        W98046  39.999  43.451  11.495
25721W        W98047  40.887  15.170  10.922
25722W        W98048   1.458   0.940   3.175
25723W        W98049  33.021  36.930   1.298
25724W        W98050  42.441  14.183   0.301
25725W        W98051   1.844   8.381  14.349
25726W        W98052   4.357  22.624   5.715
25727W        W98053   6.253  12.647   2.198
25728W        W98054  35.490  11.298   2.183
25729W        W98055  41.950   0.489  10.445
25730W        W98056  29.667  25.616   0.745
25731W        W98057   4.779   3.348   2.255
25732W        W98058  40.881  31.014   2.263
25733W        W98059  11.743  11.164   2.683
25734W        W98060  14.205   3.352  13.511
25735W        W98061  33.582  17.267   0.889
25736W        W98062   5.918   7.261   2.886
25737W        W98063   1.975  33.588  12.068
25738W        W98064  30.967  20.647  11.955
25739W        W98065   8.740  28.021  13.927
25740W        W98066  44.445   2.726   1.762
25741W        W98067  43.354  13.600  13.063
25742W        W98068  40.424  34.887  10.440
25743W        W98069  38.955  36.581  11.499
25744W        W98070   6.860  33.612  14.870
25745W        W98071   6.833  31.127  12.035
25746W        W98072  26.544  39.969  13.497
25747W        W98073  24.556  41.509   0.729
25748W        W98074  24.200   3.749  13.975
25749W        W98075   8.228  10.810   3.686
25750W        W98076  35.944   3.243   0.768
25751W        W98077  27.108  14.632  12.052
25752W        W98078  19.774   8.248   3.177
25753W        W98079  39.401  22.031   4.294
25754W        W98080  44.398  40.034  13.801
25755W        W98081  38.847  27.582   4.657
25756W        W98082   8.276   1.356   1.775
25757W        W98083  23.132  11.177  12.917
25758W        W98084   7.295  40.030   2.725
25759W        W98085  16.306  36.418   0.759
25760W        W98086   3.724  15.249   1.232
25761W        W98087  18.666  40.024  12.571
25762W        W98088  43.947   0.320   2.741
25763W        W98089  44.264  31.522   0.826
25764W        W98090   9.670  36.419  11.924
25765W        W98091   3.445  10.309   4.176
25766W        W98092  27.487  17.088   3.154
25767W        W98093  14.207   5.878   2.330
25768W        W98094  31.487  40.323  12.347
25769W        W98095  26.527  29.595  11.097
25770W        W98096  19.208  19.685  13.935
25771W        W98097  19.731   3.261  13.013
25772W        W98098  31.114  44.939   2.668
25773W        W98099  24.021  31.572   3.848
25774W        W98100  23.078  19.758  12.039
25775W        W98101  29.544  41.985   4.804
25776W        W98102  44.794   6.425   4.316
25777W        W98103  11.228  14.696   3.262
25778W        W98104  10.345  27.118  13.420
25779W        W98105  15.653   7.220  11.887
25780W        W98106   8.369  41.892   3.163
25781W        W98107  43.959  16.775   4.172
25782W        W98108  26.983  24.078   3.828
25783W        W98109   7.378  43.425   1.212
25784W        W98110  29.658  17.572   0.448
25785W        W98111   8.282  14.726  12.070
25786W        W98112  19.234  42.836  12.904
25787W        W98113  43.834  41.526   4.633
25788W        W98114  25.655  19.273  12.867
25789W        W98115  26.551  19.552  14.908
25790W        W98116  20.734  16.233  10.470
25791W        W98117   8.374  26.517   2.736
25792W        W98118  19.121  20.733   4.174
25793W        W98119  27.057  40.846   0.833
25794W        W98120  15.713  44.785  13.895
25795W        W98121  24.578  36.431   0.430
25796W        W98122   1.737  33.912   0.950
25797W        W98123  17.672  43.961  13.381
25798W        W98124  43.952  12.762   1.892
25799W        W98125  30.064  34.019   0.805
25800W        W98126   3.369  31.959  13.839
25801W        W98127  18.146   6.818   4.745
25802W        W98128  11.306  42.973  13.485
25803W        W98129  10.140  30.110   0.793
25804W        W98130  14.818  29.531   4.300
25805W        W98131   6.354  38.392   1.753
25806W        W98132   3.223  37.919  10.548
25807W        W98133   2.314  20.762  14.956
25808W        W98134  18.580   4.869   0.322
25809W        W98135  13.724  26.191   2.857
25810W        W98136  21.072  28.993   1.751
25811W        W98137  14.763   3.906   3.244
25812W        W98138  24.692  44.346   2.272
25813W        W98139  24.656   5.386  13.339
25814W        W98140  25.666   9.699   1.220
25815W        W98141  33.057  28.017  11.960
25816W        W98142  15.100  41.967  14.904
25817W        W98143  13.137  42.930  10.985
25818W        W98144   0.814  24.670   0.464
25819W        W98145  25.485  41.533  14.486
25820W        W98146  23.016  29.633  12.090
25821W        W98147  25.048  31.150  11.978
25822W        W98148   9.216  12.355   3.236
25823W        W98149  40.383  36.578  12.048
25824W        W98150  33.886   6.303  11.856
25825W        W98151   3.805  26.205  11.373
25826W        W98152  14.118  32.561  10.889
25827W        W98153  36.941   3.312   4.794
25828W        W98154  19.098  18.570   2.685
25829W        W98155  25.535  40.317   2.882
25830W        W98156  40.363  34.506  10.560
25831W        W98157   2.391  16.620   0.775
25832W        W98158  23.618  26.166   4.664
25833W        W98159  29.088  16.259   4.659
25834W        W98160   7.678  40.054   1.317
25835W        W98161   3.417  30.584   3.670
25836W        W98162   6.705  24.610   3.686
25837W        W98163  32.446  18.182  12.071
25838W        W98164  40.303  19.284  14.395
25839W        W98165   4.341  44.466  11.119
25840W        W98166  18.656   4.789   5.113
25841W        W98167  16.131   2.226   1.837
25842W        W98168   3.868   2.272   2.234
25843W        W98169  19.168  33.447  11.443
25844W        W98170   7.770  38.957  12.077
25845W        W98171  30.576   9.751   4.703
25846W        W98172  12.321   5.383  14.768
25847W        W98173   2.401  19.689   3.166
25848W        W98174  29.035  16.583  13.861
25849W        W98175   4.793   0.403  12.340
25850W        W98176  42.475  24.592   4.352
25851W        W98177  40.513  20.570  14.892
25852W        W98178  29.928   6.822  10.967
25853W        W98179  16.179  15.585  14.435
25854W        W98180  43.877  30.535   0.954
25855W        W98181  30.162  40.931   4.132
25856W        W98182  42.926   5.863   4.837
25857W        W98183  17.089   4.425  13.539
25858W        W98184  33.997  19.543  11.473
25859W        W98185  27.060  13.631  10.926
25860W        W98186  31.900  12.333  14.375
25861W        W98187  24.209  25.614  11.040
25862W        W98188   5.311  20.124  11.503
25863W        W98189  14.216  34.098   9.953
25864W        W98190  42.497  29.072  11.559
25865W        W98191  31.408  41.024  12.461
25866W        W98192  28.058  17.628  14.332
25867W        W98193  35.055  41.946   0.274
25868W        W98194   9.170  10.675  13.406
25869W        W98195  29.110   3.219  14.940
25870W        W98196  15.284  20.166  11.429
25871W        W98197  34.901  44.357  14.349
25872W        W98198   0.752  17.734  14.784
25873W        W98199  26.188  33.431  14.947
25874W        W98200  24.183  29.555   4.206
25875W        W98201   7.312  42.009  11.983
25876W        W98202  24.025  20.566   0.254
25877W        W98203  13.744   0.926   2.747
25878W        W98204  17.206  28.942  10.101
25879W        W98205  15.664  17.785  12.993
25880W        W98206   2.276  17.085   4.149
25881W        W98207   3.717   0.977   2.384
25882W        W98208  42.944   1.944  11.996
25883W        W98209   0.960  37.841  13.451
25884W        W98210  28.014  39.924   3.673
25885W        W98211  27.028  25.471  12.953
25886W        W98212  29.039  12.632  12.522
25887W        W98213  28.187  22.639  12.468
25888W        W98214  20.069  19.571  13.378
25889W        W98215  10.832   6.848  11.942
25890W        W98216   5.898  14.731  11.948
25891W        W98217   0.810  23.215   3.710
25892W        W98218   9.759  41.453  10.982
25893W        W98219   9.338  10.739   4.626
25894W        W98220  27.953  39.417   0.385
25895W        W98221   4.929  32.465  13.904
25896W        W98222   0.876  37.985  14.315
25897W        W98223  32.047  43.316   0.920
25898W        W98224  17.560   5.272   4.779
25899W        W98225  44.770  29.961  12.356
25900W        W98226  36.393  11.826  10.609
25901W        W98227   1.885  31.009  10.632
25902W        W98228  34.871   0.751   2.860
25903W        W98229  22.192  16.760   5.217
25904W        W98230  30.072  13.807   2.201
25905W        W98231  37.051   4.772  11.888
25906W        W98232  31.546  16.728   4.147
25907W        W98233  28.663  32.998   0.879
25908W        W98234   1.873   0.864   1.437
25909W        W98235  16.211  17.607  11.394
25910W        W98236   2.957   9.663  10.900
25911W        W98237  27.680  21.755  14.372
25912W        W98238  42.833  29.093   2.211
25913W        W98239   0.778   2.920  11.444
25914W        W98240  41.871  18.102   2.307
25915W        W98241   5.268  16.230   3.224
25916W        W98242  36.025  18.186   3.802
25917W        W98243  15.246  12.846   3.804
25918W        W98244  14.753  25.532  12.497
25919W        W98245  17.704  41.443  11.037
25920W        W98246  44.304  18.206  13.531
25921W        W98247  35.954  33.623   2.832
25922W        W98248  26.078  37.406   3.252
25923W        W98249  27.509  28.439   4.635
25924W        W98250  29.978  40.800  14.905
25925W        W98251  20.253  37.352   3.278
25926W        W98252  43.492   1.834  14.970
25927W        W98253  25.033  13.294   1.292
25928W        W98254  41.841  14.264  14.957
25929W        W98255   7.405  24.538  14.773
25930W        W98256  29.500  11.227   1.781
25931W        W98257   4.749  43.445   1.445
25932W        W98258  24.694   7.305  11.122
25933W        W98259  30.907  14.650   1.739
25934W        W98260  12.138  34.515  14.796
25935W        W98261   2.757  12.205   2.866
25936W        W98262  31.150  43.884   4.176
25937W        W98263  39.460  24.053  13.541
25938W        W98264  18.618  31.005   1.306
25939W        W98265  40.354  43.435   0.368
25940W        W98266  23.668  27.005  10.906
25941W        W98267  28.959  34.504  11.380
25942W        W98268  17.232  39.514  14.876
25943W        W98269  34.430  29.613  11.591
25944W        W98270  25.176  11.343  13.417
25945W        W98271  23.544   4.373   2.671
25946W        W98272  43.857  17.154  10.538
25947W        W98273  34.480  17.629  11.602
25948W        W98274  30.027  39.960   4.115
25949W        W98275  24.584  19.236  10.888
25950W        W98276  11.836   9.721   3.232
25951W        W98277   0.841  20.632  13.371
25952W        W98278   2.812  29.965   3.647
25953W        W98279  43.322  25.676   0.943
25954W        W98280  30.458   4.373   0.267
25955W        W98281  34.507  23.534  11.609
25956W        W98282  19.625  40.529   1.445
25957W        W98283  27.587  26.540  11.373
25958W        W98284  31.952   3.859  12.911
25959W        W98285  20.161  34.437   0.382
25960W        W98286  36.491  35.861   4.341
25961W        W98287  18.163  13.739   4.249
25962W        W98288  11.667  11.644   4.231
25963W        W98289  32.467  27.568  13.531
25964W        W98290  29.589   8.171   2.734
25965W        W98291  41.947   0.281   2.734
25966W        W98292  28.603  41.486  10.539
25967W        W98293  39.528  19.073  12.914
25968W        W98294  42.910  38.867   3.184
25969W        W98295  11.664   6.846   4.307
25970W        W98296  19.110   8.791  10.957
25971W        W98297  39.363  38.923   2.385
25972W        W98298  27.552  36.060   3.162
25973W        W98299  30.117  40.420  14.771
25974W        W98300  41.383   5.304  13.316
25975W        W98301  20.690  44.954   4.144
25976W        W98302  41.834  38.383  13.341
25977W        W98303  35.884  37.395   2.346
25978W        W98304   5.228  12.359  12.530
25979W        W98305  34.054  13.182   1.395
25980W        W98306  26.105  39.845   2.816
25981W        W98307  32.028  32.573   1.242
25982W        W98308  25.973  32.554  13.321
25983W        W98309  10.810  25.615  13.539
25984W        W98310  38.926   4.446   3.740
25985W        W98311  20.122  15.612   4.749
25986W        W98312   0.901  13.805   2.276
25987W        W98313  36.889  33.593  13.891
25988W        W98314  35.477   9.651   0.291
25989W        W98315  35.877  32.510   4.352
25990W        W98316  27.602  31.076   4.695
25991W        W98317  13.328   8.695   2.366
25992W        W98318  20.239  14.820   3.836
25993W        W98319   2.767   3.837   2.220
25994W        W98320  29.104  10.668  12.493
25995W        W98321  15.149  23.720   2.310
25996W        W98322  36.549  42.415  14.502
25997W        W98323  43.449  38.033   3.227
25998W        W98324  12.727  37.482   1.738
25999W        W98325  30.123   5.740   2.707
26000W        W98326  43.401  32.619   3.684
26001W        W98327  39.947  36.072   1.253
26002W        W98328   5.876  18.149   2.845
26003W        W98329  39.389   0.828  10.570
26004W        W98330   8.754  37.462   3.290
26005W        W98331   6.418  25.710   0.267
26006W        W98332  18.751  35.941  14.764
26007W        W98333   4.426  18.655   1.397
26008W        W98334  40.499  34.965  11.545
26009W        W98335  38.883   4.796  13.319
26010W        W98336  18.563  28.931  13.856
26011W        W98337  10.212   2.818   0.924
26012W        W98338  17.148   8.198   2.269
26013W        W98339  33.570   4.291   4.334
26014W        W98340  34.924  33.562  12.881
26015W        W98341  29.433   1.779   1.229
26016W        W98342   9.284   9.193  14.957
26017W        W98343  28.531   8.751  10.944
26018W        W98344  18.701  38.398  12.341
26019W        W98345  18.566  43.973  10.993
26020W        W98346  41.293  18.277   0.735
26021W        W98347  14.754  36.521   4.270
26022W        W98348  10.872  25.536   3.334
26023W        W98349   6.743  34.057  13.504
26024W        W98350  42.509  16.269  13.331
26025W        W98351  41.796  20.754  12.564
26026W        W98352  33.565  25.563   2.380
26027W        W98353  43.513  27.586  11.966
26028W        W98354  29.027  34.116  14.981
26029W        W98355  39.458  18.708  12.354
26030W        W98356   3.311  40.539   0.451
26031W        W98357  42.784  33.542  14.420
26032W        W98358  40.423  39.905  13.952
26033W        W98359  25.089  39.815  13.358
26034W        W98360  39.990  14.815  14.945
26035W        W98361  32.122  36.092   1.814
26036W        W98362  30.595  14.779   2.398
26037W        W98363  31.095  24.048   1.805
26038W        W98364  44.770   2.952  11.435
26039W        W98365  39.445   9.838  11.598
26040W        W98366  13.827  40.430   0.942
26041W        W98367   7.178  11.161   0.445
26042W        W98368  42.289  40.424  14.852
26043W        W98369  35.021  26.003   1.264
26044W        W98370   3.802  39.879   1.812
26045W        W98371  43.873   1.446   1.356
26046W        W98372  43.300   0.976  14.341
26047W        W98373  40.418  39.001   2.286
26048W        W98374  26.198  27.140  11.108
26049W        W98375  16.209  27.088  13.024
26050W        W98376  22.727  34.376   1.286
26051W        W98377  36.397  20.686  11.532
26052W        W98378  31.084  29.666   0.259
26053W        W98379  25.012  25.649  11.902
26054W        W98380  19.742  44.819   2.410
26055W        W98381   3.222  23.730   3.771
26056W        W98382  29.588   8.819  12.082
26057W        W98383  23.515  22.081   2.713
26058W        W98384   8.656  36.058   2.873
26059W        W98385  13.179  25.196  12.894
26060W        W98386  28.125  35.895  10.088
26061W        W98387  31.014  33.911   2.902
26062W        W98388  27.670   3.315   4.721
26063W        W98389  20.544  25.133   0.387
26064W        W98390   3.255  12.810   4.767
26065W        W98391  12.650  39.464   0.264
26066W        W98392   6.208  15.785  12.376
26067W        W98393  17.264  41.481  11.385
26068W        W98394  31.110  26.076   2.390
26069W        W98395  25.654  18.269   2.704
26070W        W98396  14.125   5.737   0.938
26071W        W98397  13.257  33.563   5.613
26072W        W98398  42.812  10.192  10.551
26073W        W98399  16.729  32.987  14.845
26074W        W98400   1.410  29.523   2.298
26075W        W98401  24.982   7.814  12.827
26076W        W98402   8.742  39.934  14.952
26077W        W98403  42.296  13.731   3.673
26078W        W98404  24.175  21.092  14.883
26079W        W98405  17.214  14.615   0.328
26080W        W98406  24.559  33.885  11.943
26081W        W98407  10.191  26.546   1.384
26082W        W98408  25.633  39.314  14.820
26083W        W98409  26.105  34.955   3.706
26084W        W98410  37.005   3.879   1.273
26085W        W98411  16.632  39.424  11.890
26086W        W98412   2.467  11.184  10.639
26087W        W98413  25.694  16.236   2.284
26088W        W98414  40.030  32.589  14.962
26089W        W98415   4.750  19.582  12.085
26090W        W98416   5.886  17.232  12.982
26091W        W98417   2.293  23.042  13.358
26092W        W98418  32.460   5.799   9.944
26093W        W98419   3.436  42.963   4.208
26094W        W98420  31.006   9.194  13.856
26095W        W98421  37.515  12.736  13.502
26096W        W98422  27.483  10.277  12.409
26097W        W98423   9.662  23.000   3.696
26098W        W98424   4.812   8.194   2.370
26099W        W98425   9.882   1.400  14.375
26100W        W98426   2.314  39.328   0.791
26101W        W98427   4.391  37.581   1.239
26102W        W98428  23.120  43.514   4.289
26103W        W98429  25.529  21.564   2.884
26104W        W98430  31.622  34.066   2.306
26105W        W98431  29.670  12.226  12.462
26106W        W98432  26.662  10.281   3.714
26107W        W98433  23.729  19.704   3.156
26108W        W98434   5.891   9.811  13.824
26109W        W98435  27.463  24.148  12.565
26110W        W98436   6.404  44.770  11.973
26111W        W98437  11.167  42.333   2.410
26112W        W98438  42.970  30.955   4.675
26113W        W98439  31.469  43.999   2.382
26114W        W98440  26.531  31.964  14.459
26115W        W98441  21.742  37.478  14.762
26116W        W98442  19.660  41.797  13.343
26117W        W98443  27.575  10.820   3.275
26118W        W98444   2.856  18.232  12.881
26119W        W98445  35.364  28.969  11.582
26120W        W98446   9.758   7.388  14.435
26121W        W98447   2.363  32.449  10.449
26122W        W98448  20.573  36.944  12.095
26123W        W98449  15.294   6.755  11.908
26124W        W98450  28.140  44.267   2.284
26125W        W98451  20.178  44.297  12.844
26126W        W98452  29.643  36.532  12.441
26127W        W98453  33.596   6.241   1.238
26128W        W98454  10.879   0.382   1.784
26129W        W98455  34.032  17.687   1.696
26130W        W98456  42.445  38.537   4.254
26131W        W98457  40.430   8.235  13.824
26132W        W98458  17.258  21.620   0.803
26133W        W98459  20.665  37.917   0.908
26134W        W98460  42.466  24.047   0.789
26135W        W98461  21.220  15.651   1.911
26136W        W98462   4.419  23.494  12.032
26137W        W98463  30.535  14.215  11.515
26138W        W98464  17.597   6.790  14.844
26139W        W98465   1.402   7.721   2.755
26140W        W98466  28.091  34.420  12.044
26141W        W98467  17.216  31.946   4.354
26142W        W98468   8.693   4.755  12.558
26143W        W98469   0.419  23.546  12.536
26144W        W98470  28.634  35.085   0.354
26145W        W98471   5.250  43.873   0.374
26146W        W98472  30.997  10.225  10.069
26147W        W98473  11.193  17.193   1.778
26148W        W98474   9.171  35.915   0.821
26149W        W98475  41.864   1.399   0.349
26150W        W98476  24.079  43.814  11.538
26151W        W98477   5.214  18.066   3.369
26152W        W98478  36.442   9.301   1.219
26153W        W98479  30.605  22.007   4.617
26154W        W98480  33.619  31.530   2.742
26155W        W98481  32.062   6.683  14.807
26156W        W98482   0.420  42.346   2.194
26157W        W98483  10.713  32.565   0.446
26158W        W98484  18.640  10.801   3.678
26159W        W98485  19.757   7.863   0.761
26160W        W98486  34.999  37.027   3.157
26161W        W98487  36.883  18.206  14.862
26162W        W98488  20.593   5.310  10.415
26163W        W98489  43.296  24.220  14.905
26164W        W98490  44.940   1.375   0.460
26165W        W98491   0.450  10.747   2.785
26166W        W98492  20.042   3.759  12.352
26167W        W98493  11.867   6.768  14.775
26168W        W98494  42.387   5.815   0.417
26169W        W98495  20.559  11.651   0.456
26170W        W98496   1.929  24.071   9.503
26171W        W98497  36.043  41.364  11.908
26172W        W98498  18.702  23.572  14.304
26173W        W98499  17.617   3.385   2.826
26174W        W98500   1.859  31.638  12.952
26175W        W98501  15.142  11.275  13.456
26176W        W98502  31.622  21.263   2.240
26177W        W98503  41.932   8.309   0.303
26178W        W98504   3.445  19.125  14.446
26179W        W98505  16.291  44.919  14.500
26180W        W98506  36.009   5.202   3.858
26181W        W98507  13.734  24.686  14.280
26182W        W98508  36.372  44.397  12.912
26183W        W98509  29.145  27.977   5.654
26184W        W98510  23.556  18.095  12.407
26185W        W98511  39.498  17.080  10.426
26186W        W98512   4.916  32.905   4.698
26187W        W98513  23.504  36.891  14.993
26188W        W98514  16.627  42.782   1.911
26189W        W98515   7.801  19.729   2.771
26190W        W98516  19.601  26.512   3.367
26191W        W98517   5.765  28.043  10.547
26192W        W98518  23.656  11.778  10.454
26193W        W98519   5.219  22.174  11.492
26194W        W98520  11.823  34.576  14.819
26195W        W98521  30.994  33.561   2.760
26196W        W98522  32.101  33.878  12.961
26197W        W98523  25.547   5.270  10.604
26198W        W98524  41.420  41.296  13.523
26199W        W98525  18.210  42.334  12.951
26200W        W98526  11.803  15.809   0.392
26201W        W98527   5.863   4.322  14.976
26202W        W98528  29.642  27.105  11.962
26203W        W98529  28.572  26.635  14.928
26204W        W98530  18.191  34.917   1.338
26205W        W98531  26.568   6.850  13.524
26206W        W98532  14.667  39.489   0.356
26207W        W98533  38.340  40.501  12.470
26208W        W98534  28.482  43.436   3.830
26209W        W98535  33.890  19.597  13.912
26210W        W98536  21.151  43.841  14.007
26211W        W98537  21.250  43.809   4.268
26212W        W98538  14.721  23.189   3.754
26213W        W98539  44.342  35.009   4.150
26214W        W98540  19.585  11.690   1.788
26215W        W98541  13.318  23.124   4.153
26216W        W98542  35.522   1.801   1.812
26217W        W98543  40.803  37.519  14.442
26218W        W98544  41.788   6.339  12.031
26219W        W98545   2.762  20.685   2.209
26220W        W98546  28.537  30.927   2.180
26221W        W98547  23.729  12.287   4.303
26222W        W98548  36.079   2.757  12.074
26223W        W98549   3.833  26.006   2.849
26224W        W98550   9.213  41.410  13.466
26225W        W98551  19.068  23.069   0.379
26226W        W98552   2.262  20.747   9.446
26227W        W98553  19.087  36.500  14.334
26228W        W98554   2.919  20.666  12.048
26229W        W98555   6.915  29.472  12.077
26230W        W98556   8.856  35.872   0.727
26231W        W98557  27.048  12.782  13.466
26232W        W98558  20.720  44.944  12.572
26233W        W98559  10.637   9.158   1.446
26234W        W98560  34.977  34.092   3.316
26235W        W98561   6.235  15.120  10.451
26236W        W98562  10.830  28.482   0.801
26237W        W98563   9.743  32.962  11.098
26238W        W98564   7.901  30.473  12.546
26239W        W98565  38.992   9.233   1.381
26240W        W98566  35.505  10.268  13.040
26241W        W98567  16.156  23.197   0.295
26242W        W98568  28.014  34.527   3.771
26243W        W98569  18.206  12.338  12.923
26244W        W98570   4.250   0.822   1.339
26245W        W98571   3.216  17.584  11.081
26246W        W98572  31.135   2.398   3.654
26247W        W98573   6.413  36.492   0.759
26248W        W98574  23.074  39.014  11.387
26249W        W98575  32.456  42.462   0.248
26250W        W98576   0.474  32.968  12.490
26251W        W98577  39.470  16.101  14.512
26252W        W98578  19.217   4.808  12.943
26253W        W98579  17.792  35.528  13.019
26254W        W98580  35.487  27.584   4.162
26255W        W98581  37.437  18.155   3.319
26256W        W98582   9.274  25.967   4.183
26257W        W98583   5.225  15.802   4.257
26258W        W98584  16.299  24.167   0.462
26259W        W98585  41.323   8.324  11.559
26260W        W98586  41.948  13.176   1.758
26261W        W98587  25.174   6.803   3.257
26262W        W98588  19.766  42.471  13.023
26263W        W98589  34.602  30.502   1.742
26264W        W98590  32.923   2.282   1.719
26265W        W98591   2.386  19.263  11.065
26266W        W98592  43.774  39.317  13.865
26267W        W98593  35.471   8.842  11.991
26268W        W98594  35.877  31.088   3.692
26269W        W98595  14.111  28.031   0.391
26270W        W98596  42.426  35.576   2.303
26271W        W98597  37.337  28.959   1.788
26272W        W98598  17.094   2.465   0.732
26273W        W98599   3.328  36.460   3.728
26274W        W98600  38.492  38.509  11.000
26275W        W98601  16.318  38.513  11.088
26276W        W98602  17.151   4.269  12.877
26277W        W98603  30.633  11.638  11.057
26278W        W98604  33.552   1.741  14.765
26279W        W98605  16.714   4.740  11.981
26280W        W98606  36.394   2.343   4.613
26281W        W98607   3.295  12.665   3.813
26282W        W98608  38.339  44.260   0.468
26283W        W98609  14.605   4.745   0.856
26284W        W98610  18.686  14.818   4.329
26285W        W98611  28.183   5.892  10.483
26286W        W98612  37.847  15.314  14.996
26287W        W98613  27.950  21.731  14.465
26288W        W98614  35.434  37.567  14.479
26289W        W98615  14.778  32.909   2.869
26290W        W98616  35.041  24.708  10.493
26291W        W98617   6.729  15.719  14.354
26292W        W98618  19.563   6.792  14.781
26293W        W98619  25.480  23.135  13.417
26294W        W98620   4.711  26.127  13.442
26295W        W98621  17.296   3.951   3.354
26296W        W98622  36.099  37.080  12.895
26297W        W98623  19.269  29.451  13.464
26298W        W98624   4.363  30.534   3.724
26299W        W98625  27.103   7.253  10.584
26300W        W98626  42.968   0.875   2.298
26301W        W98627   4.867   0.842  12.357
26302W        W98628  34.958   8.228   3.721
26303W        W98629  11.197  43.488   4.253
26304W        W98630  37.511  26.680  12.481
26305W        W98631   5.763  31.452   1.347
26306W        W98632   8.739  37.545   0.474
26307W        W98633   4.858  27.480   0.412
26308W        W98634  42.800  33.585  13.354
26309W        W98635  32.421  29.160  13.369
26310W        W98636  36.474   6.724   0.837
26311W        W98637  36.993   5.810   4.780
26312W        W98638   9.243  28.552   2.788
26313W        W98639  16.586  42.002   0.764
26314W        W98640  34.990  31.104   2.690
26315W        W98641  22.077  10.736   3.750
26316W        W98642  36.899   3.923  10.523
26317W        W98643  37.486  19.063  14.978
26318W        W98644  31.032  36.002   0.320
26319W        W98645  22.682  33.472   2.845
26320W        W98646  22.691  42.293   4.276
26321W        W98647  21.078   4.750   1.786
26322W        W98648  40.883  11.358   2.240
26323W        W98649  41.795  19.688   2.746
26324W        W98650  36.432  14.100  11.424
26325W        W98651  38.925  29.146   4.169
26326W        W98652   1.917  29.985  12.459
26327W        W98653  38.870  42.294   1.703
26328W        W98654  11.175  33.610   0.937
26329W        W98655   8.772   2.794  11.406
26330W        W98656  22.167   6.843   1.416
26331W        W98657  37.495  41.844   5.198
26332W        W98658  36.946  32.922   4.609
26333W        W98659  30.973   1.969  14.921
26334W        W98660   6.824  35.070   0.405
26335W        W98661  39.324   9.749   3.759
26336W        W98662  20.119  33.430  12.422
26337W        W98663   6.222  31.050  11.922
26338W        W98664   9.779   0.262  12.433
26339W        W98665  40.833   3.409   2.820
26340W        W98666  26.645   5.894  12.516
26341W        W98667  32.051  39.519  12.483
26342W        W98668  34.019  44.433   4.353
26343W        W98669  28.124  21.022   4.832
26344W        W98670  21.210   2.752  11.060
26345W        W98671   5.817  19.761  11.035
26346W        W98672  10.839   2.270  14.983
26347W        W98673   9.197  31.444   0.733
26348W        W98674  35.898  42.802   2.810
26349W        W98675  15.768  22.056   2.721
26350W        W98676  17.698  15.128  10.438
26351W        W98677   2.299  30.582  11.011
26352W        W98678  16.095  39.963  14.356
26353W        W98679   6.389  21.238  13.501
26354W        W98680  23.014  32.574  13.491
26355W        W98681   1.820  29.035  12.039
26356W        W98682  36.985  36.875   1.372
26357W        W98683  37.955   8.334   1.382
26358W        W98684  28.462  41.498  11.577
26359W        W98685   8.361  44.343  14.918
26360W        W98686  21.209  11.236  10.125
26361W        W98687  38.933  15.126   0.454
26362W        W98688   6.268   5.928  13.510
26363W        W98689  12.818  10.346   1.228
26364W        W98690  26.178   4.293  12.851
26365W        W98691  18.655  11.332  14.842
26366W        W98692   9.818   6.274  14.457
26367W        W98693  14.707  29.042   1.745
26368W        W98694  13.701  28.608   3.756
26369W        W98695  12.246  30.135  13.037
26370W        W98696   8.666  14.737  13.341
26371W        W98697  42.010  31.983   1.748
26372W        W98698  19.104  22.596  14.341
26373W        W98699  27.096  44.451  13.871
26374W        W98700  39.893  10.221  11.503
26375W        W98701  11.720  27.159   9.961
26376W        W98702  22.523   6.418   1.928
26377W        W98703  28.082   4.233  14.301
26378W        W98704  39.461  18.087   3.785
26379W        W98705   0.322  30.044   0.392
26380W        W98706  28.652  18.290  12.837
26381W        W98707  18.561  16.084   1.696
26382W        W98708  30.057  41.864   1.333
26383W        W98709  10.661  30.444  14.819
26384W        W98710   6.869  23.717   1.238
26385W        W98711  33.931   4.908  13.934
26386W        W98712  31.117   1.736  11.491
26387W        W98713  19.771  31.494   3.796
26388W        W98714   3.310  26.606   0.245
26389W        W98715  21.678  36.466   0.255
26390W        W98716  27.533  17.686  10.943
26391W        W98717  35.417   7.277  14.859
26392W        W98718   0.952   9.302   1.343
26393W        W98719  30.652  12.308   2.784
26394W        W98720   6.263  32.581  11.862
26395W        W98721  15.251   1.335   4.835
26396W        W98722  34.085   5.228   1.383
26397W        W98723  17.241  20.607  11.982
26398W        W98724  17.201  38.927  14.315
26399W        W98725  14.135   7.749   3.361
26400W        W98726  21.076  21.068   1.336
26401W        W98727  42.923  23.214  13.308
26402W        W98728  13.802   4.805   0.946
26403W        W98729   1.245   2.235   9.560
26404W        W98730   5.857   7.171  11.597
26405W        W98731  16.306  11.250  13.019
26406W        W98732   5.714  13.334  13.447
26407W        W98733  11.296  10.794   4.339
26408W        W98734  15.124  29.949   4.234
26409W        W98735  35.014  21.076   0.871
26410W        W98736  10.769  40.440  12.854
26411W        W98737   4.809  22.071  14.014
26412W        W98738  24.665  15.671   4.250
26413W        W98739  18.787   9.343  13.870
26414W        W98740  18.576  42.892  11.859
26415W        W98741   7.391   1.477   2.779
26416W        W98742  30.519  17.258   3.219
26417W        W98743  10.872  41.410  11.608
26418W        W98744  11.789   2.927  13.956
26419W        W98745  21.250  41.395   4.796
26420W        W98746  21.533  19.230  10.504
26421W        W98747  26.647  32.446   3.371
26422W        W98748  42.372  35.937   3.692
26423W        W98749   3.334  39.343   1.796
26424W        W98750   2.392   9.830  10.573
26425W        W98751  40.313  27.566   3.857
26426W        W98752  27.641  10.768  12.923
26427W        W98753  28.115  30.942   5.264
26428W        W98754  31.479  12.741   2.683
26429W        W98755  30.606  42.478   2.416
26430W        W98756  26.192  16.198  12.543
26431W        W98757   3.298  18.124  14.438
26432W        W98758  34.607   4.293   3.382
26433W        W98759  11.719  32.596   3.172
26434W        W98760   1.475  32.077   9.959
26435W        W98761  24.136   3.874  12.938
26436W        W98762  36.056   7.228  14.415
26437W        W98763  19.114  35.416   4.283
26438W        W98764  44.903  10.823   1.817
26439W        W98765  42.484   8.818  14.440
26440W        W98766  14.309  37.358  14.974
26441W        W98767   5.811  20.267  14.480
26442W        W98768  32.907  14.650   4.627
26443W        W98769  16.258  32.129   2.414
26444W        W98770  26.542  24.038   1.906
26445W        W98771  26.065   5.265   3.864
26446W        W98772  43.453   5.279  12.004
26447W        W98773  29.493   7.811   4.298
26448W        W98774  12.800  10.751   0.459
26449W        W98775  13.241  43.350   2.267
26450W        W98776   7.728   5.211  11.990
26451W        W98777  15.309  11.707  13.438
26452W        W98778   6.316  29.104  11.919
26453W        W98779   1.803  44.994   3.310
26454W        W98780  17.269  35.074  10.930
26455W        W98781  39.501  26.492  13.871
26456W        W98782  24.187  21.736  11.385
26457W        W98783  21.034  19.165  13.883
26458W        W98784   0.952  17.746  14.343
26459W        W98785   5.412  37.481   3.714
26460W        W98786  38.505   2.434   3.663
26461W        W98787  37.944   6.191  12.058
26462W        W98788  21.537  13.106  11.076
26463W        W98789   2.348  32.098   2.832
26464W        W98790  42.898   2.828   2.348
26465W        W98791  14.765   4.441  14.413
26466W        W98792  19.572  28.015   3.851
26467W        W98793  23.554   4.908  12.931
26468W        W98794   5.916  37.488  10.139
26469W        W98795  14.221  22.644  13.885
26470W        W98796  10.707  35.565  14.979
26471W        W98797  25.068  35.563  11.090
26472W        W98798  31.549   4.226   3.711
26473W        W98799  24.156   6.766   2.398
26474W        W98800  19.052  10.762   0.409
26475W        W98801  21.755  22.206  11.012
26476W        W98802  41.825  39.895   4.674
26477W        W98803   9.370   5.870   4.312
26478W        W98804  43.362  27.516   4.781
26479W        W98805  11.238  21.686   0.843
26480W        W98806   4.821  29.618   2.680
26481W        W98807   8.401  28.172  11.398
26482W        W98808  28.626  42.974  14.887
26483W        W98809   1.796  26.985  12.970
26484W        W98810  14.271  37.364  12.568
26485W        W98811   7.205  23.023  11.076
26486W        W98812  32.933   1.374   4.599
26487W        W98813  34.042  34.519  10.534
26488W        W98814   3.255  16.747  11.995
26489W        W98815  25.687   9.302   2.230
26490W        W98816  32.109  13.738  13.346
26491W        W98817  22.581  18.645  10.926
26492W        W98818  17.159  19.638   1.808
26493W        W98819   3.935  16.724   3.642
26494W        W98820  34.375  18.143   1.815
26495W        W98821  23.059  35.576  11.873
26496W        W98822  33.023  20.702  13.379
26497W        W98823   3.320  38.365  14.301
26498W        W98824  40.006   2.449   1.260
26499W        W98825  41.992  41.293   0.886
26500W        W98826  34.368   7.671   3.311
26501W        W98827  26.011  10.281  13.512
26502W        W98828  23.502  16.166   2.178
26503W        W98829  40.548  41.807   0.441
26504W        W98830   1.360  29.119  12.996
26505W        W98831  36.504  42.904   1.240
26506W        W98832  43.312  25.644   4.819
26507W        W98833  32.487  14.781   1.284
26508W        W98834  21.209  22.202  12.085
26509W        W98835   9.162  11.729   4.708
26510W        W98836  21.721  39.844   1.702
26511W        W98837  10.276   9.835   1.270
26512W        W98838   6.736   7.221  13.466
26513W        W98839  33.527  33.439   0.882
26514W        W98840   9.867   2.863   2.853
26515W        W98841   3.887   6.397   4.807
26516W        W98842  40.533  28.059  14.845
26517W        W98843  37.936  12.772  11.025
26518W        W98844  23.227   3.300  11.473
26519W        W98845  39.339  41.447  14.434
26520W        W98846  25.008  10.712  11.567
26521W        W98847   9.374  10.650  11.999
26522W        W98848   2.801  29.021   0.297
26523W        W98849  11.229  18.097   2.402
26524W        W98850   7.347  42.865  14.428
26525W        W98851   4.778  26.669  10.602
26526W        W98852  13.336  16.608  12.090
26527W        W98853   8.730  14.659  11.464
26528W        W98854  38.452  38.937   3.298
26529W        W98855  28.140  28.991   5.767
26530W        W98856  21.133  35.903   1.322
26531W        W98857  14.220  44.868   2.232
26532W        W98858  17.157  12.854   2.412
26533W        W98859  14.111   3.455  14.783
26534W        W98860  24.229  25.969  13.516
26535W        W98861  44.914  38.864   3.761
26536W        W98862  16.737   0.801   2.878
26537W        W98863  35.425  33.431  13.891
26538W        W98864  14.672  13.827   4.271
26539W        W98865  24.527   2.842  11.072
26540W        W98866  39.466  21.181   0.839
26541W        W98867  16.774   1.322   1.737
26542W        W98868  37.340  24.040  10.987
26543W        W98869  24.081  25.120   1.413
26544W        W98870  35.050  30.580  13.020
26545W        W98871  23.992   5.702  10.928
26546W        W98872  33.004  44.466   1.791
26547W        W98873  38.900  38.875   1.767
26548W        W98874  36.933  35.473  14.358
26549W        W98875   3.794  43.007  11.576
26550W        W98876  13.612  32.081   1.862
26551W        W98877  26.641  29.486  11.576
26552W        W98878  42.999  41.504   1.290
26553W        W98879  11.789   1.319  11.456
26554W        W98880  27.029   6.273   0.827
26555W        W98881  31.898  11.157   2.379
26556W        W98882  33.467  42.375   0.384
26557W        W98883  39.501  28.140   4.810
26558W        W98884  24.105  35.433  14.764
26559W        W98885  42.388  11.722  11.899
26560W        W98886  44.758  24.560  13.490
26561W        W98887  10.750  44.433  11.103
26562W        W98888  15.636  18.262  14.443
26563W        W98889  32.928  34.084  14.981
26564W        W98890  23.527   3.310  12.406
26565W        W98891  28.170   6.771   0.479
26566W        W98892  39.369  10.308  12.356
26567W        W98893   9.866  25.497   1.792
26568W        W98894  33.423  28.567  14.390
26569W        W98895  30.986  14.231   2.259
26570W        W98896  22.181  36.505   3.771
26571W        W98897  26.640  12.704  13.878
26572W        W98898  31.491  10.667  14.411
26573W        W98899  17.645   8.265   2.862
26574W        W98900  13.833  21.137  10.440
26575W        W98901  10.382  16.270  10.606
26576W        W98902  18.158  38.826  13.402
26577W        W98903   1.332  10.323  10.144
26578W        W98904   6.216  30.484   2.328
26579W        W98905  19.071  32.016   2.385
26580W        W98906  38.955  31.996   4.323
26581W        W98907  37.450   9.375   1.349
26582W        W98908  20.106  44.388   1.297
26583W        W98909  23.182   6.388  10.523
26584W        W98910  43.942  24.977   0.956
26585W        W98911  34.465  36.498   1.870
26586W        W98912   7.321  27.500  14.422
26587W        W98913  26.148  39.506   2.234
26588W        W98914   7.754  42.521   1.770
26589W        W98915  10.800  17.229  12.464
26590W        W98916   6.686  14.259   3.208
26591W        W98917  33.468  11.241  11.462
26592W        W98918  44.873   9.851   0.939
26593W        W98919  33.462  13.231  10.420
26594W        W98920  13.662  12.633  12.093
26595W        W98921  17.763  23.577   0.442
26596W        W98922  33.117   1.455  14.422
26597W        W98923  44.404   7.233   2.834
26598W        W98924   9.747  14.810   2.334
26599W        W98925  30.601  25.560   0.939
26600W        W98926  41.798  27.603  10.582
26601W        W98927  12.669   9.342  10.536
26602W        W98928  25.195  34.868  15.000
26603W        W98929  19.083  12.780   1.430
26604W        W98930   4.212   0.382  13.045
26605W        W98931   4.337   4.434  12.434
26606W        W98932  19.269  35.565  10.961
26607W        W98933   8.284  38.548  11.125
26608W        W98934  16.079  26.002   2.417
26609W        W98935  35.959  40.963   0.387
26610W        W98936  40.476  20.191  13.058
26611W        W98937  25.619  40.833   0.800
26612W        W98938  16.704  32.504  11.917
26613W        W98939   3.856  22.598   1.701
26614W        W98940  39.475  33.503   4.682
26615W        W98941  16.584   0.895   0.462
26616W        W98942  23.005  17.641   0.808
26617W        W98943  15.124   5.280  11.429
26618W        W98944  38.381  37.934   4.129
26619W        W98945  18.579  36.884  10.561
26620W        W98946  43.311  36.488   4.235
26621W        W98947  11.864  20.615  13.920
26622W        W98948  11.836  13.779   3.643
26623W        W98949  11.699  24.679  12.897
26624W        W98950  10.750  31.957  14.844
26625W        W98951  39.868  22.598  14.853
26626W        W98952  16.279   9.349   3.236
26627W        W98953  38.371  39.922  13.908
26628W        W98954  21.698  37.538   0.340
26629W        W98955   0.805  32.901   1.700
26630W        W98956  15.703  44.366   1.324
26631W        W98957  29.011  10.870   3.214
26632W        W98958  11.834   6.221   1.773
26633W        W98959   3.224  43.845  13.456
26634W        W98960  34.117  10.775   0.755
26635W        W98961  20.692  10.715  14.440
26636W        W98962  37.527  25.199   3.167
26637W        W98963   9.394   1.372  12.066
26638W        W98964  22.185  34.440  12.446
26639W        W98965  14.194  41.357   0.286
26640W        W98966  10.801  17.118  11.037
26641W        W98967   2.827  18.626   4.681
26642W        W98968  29.115  27.168   0.280
26643W        W98969  39.409  11.365  12.495
26644W        W98970   5.273  21.183  14.932
26645W        W98971  28.943  28.586   5.244
26646W        W98972   1.293  29.973  11.973
26647W        W98973  30.607  31.468   0.943
26648W        W98974  41.003  22.638  14.387
26649W        W98975  43.418  38.441  10.577
26650W        W98976  14.139  20.628  12.874
26651W        W98977  13.713  15.730  11.548
26652W        W98978  15.781  32.027   1.250
26653W        W98979  34.580  33.388   1.280
26654W        W98980  21.259  26.088  10.619
26655W        W98981  30.556  29.011  14.031
26656W        W98982  40.305  22.054   1.212
26657W        W98983  37.547  20.698   2.774
26658W        W98984  36.978  32.441   3.149
26659W        W98985   1.336  13.131  12.935
26660W        W98986   4.773  16.606   0.365
26661W        W98987  19.248  42.483  12.467
26662W        W98988   1.777  11.780   4.283
26663W        W98989  43.315  44.984  14.954
26664W        W98990  15.182  38.341   4.673
26665W        W98991  12.349  31.137  11.950
26666W        W98992  14.827  41.433   1.927
26667W        W98993  32.039  21.532  11.413
26668W        W98994  20.617  27.947  12.510
26669W        W98995  22.736  29.975  12.052
26670W        W98996  23.513  44.828   1.863
26671W        W98997  21.168  13.764   2.765
26672W        W98998  23.025  13.123   1.297
26673W        W98999  21.750  31.532  14.004
26674W        W99000  21.077  34.439   2.246
26675W        W99001  30.450  40.820  14.454
26676W        W99002  36.916  11.719  12.944
26677W        W99003  35.986  27.516  13.331
26678W        W99004   2.822  22.090  11.547
26679W        W99005   5.424   5.403  13.974
26680W        W99006  40.308   7.312  10.150
26681W        W99007  43.859  17.067   2.295
26682W        W99008  13.270  27.505   5.295
26683W        W99009  11.205   1.764   4.756
26684W        W99010  33.096  24.129  13.015
26685W        W99011  36.477   8.353  14.510
26686W        W99012  18.065  41.297   2.324
26687W        W99013  12.310  33.033   3.782
26688W        W99014   4.316  37.852   4.274
26689W        W99015  25.495  41.300  10.955
26690W        W99016   9.829  26.499  12.908
26691W        W99017  18.152  10.760   1.399
26692W        W99018  21.632  23.172   1.820
26693W        W99019  33.612  15.608  11.475
26694W        W99020  13.832  12.282   3.311
26695W        W99021  20.659  11.692  12.834
26696W        W99022  21.179  34.982  12.429
26697W        W99023  20.075  23.221   2.327
26698W        W99024   8.896  42.002  10.565
26699W        W99025  33.914  34.098  10.147
26700W        W99026  29.494   6.353   3.724
26701W        W99027  10.799  28.937  14.282
26702W        W99028  15.219  36.445   1.725
26703W        W99029  23.012  14.152   1.307
26704W        W99030   1.914  37.453   3.326
26705W        W99031  34.504  20.767   4.622
26706W        W99032   6.733  27.460  14.435
26707W        W99033  21.128   1.753   0.478
26708W        W99034  25.022  39.423  11.597
26709W        W99035  11.130  28.062  13.446
26710W        W99036   8.232  25.563   0.904
26711W        W99037  10.344   0.384   3.206
26712W        W99038  16.083  21.723   1.925
26713W        W99039  10.381  20.671   0.354
26714W        W99040  33.436   3.431   0.298
26715W        W99041  15.705  10.788  10.512
26716W        W99042  34.914  35.384   0.752
26717W        W99043   5.380  24.548   1.805
26718W        W99044   8.301  28.090   3.189
26719W        W99045   0.416  14.692   1.742
26720W        W99046  39.026  31.583   3.319
26721W        W99047  14.829  41.392   4.602
26722W        W99048  43.861  18.701  11.413
26723W        W99049  21.748  37.855   1.912
26724W        W99050  34.084  14.633  12.039
26725W        W99051  17.582   4.804   0.367
26726W        W99052   9.183   9.778  13.395
26727W        W99053  10.801  11.362  13.964
26728W        W99054  11.189  20.546  13.994
26729W        W99055  27.152  24.665  12.361
26730W        W99056  24.619   5.270   0.926
26731W        W99057  40.983  10.370   3.669
26732W        W99058  32.502  24.156   1.703
26733W        W99059  31.951  18.291   4.203
26734W        W99060  11.784  44.934  11.873
26735W        W99061  31.947  26.076  11.530
26736W        W99062  37.941   8.696   3.243
26737W        W99063  22.567  34.112  12.047
26738W        W99064  23.731   6.201  12.052
26739W        W99065  14.256   7.308   2.680
26740W        W99066  15.702  32.002   4.320
26741W        W99067  29.039   6.801   1.875
26742W        W99068  40.997   6.333  11.483
26743W        W99069  12.163  16.203  14.879
26744W        W99070  44.965  37.384   0.961
26745W        W99071  32.066  13.181   3.277
26746W        W99072   5.720   5.833   1.793
26747W        W99073   0.792  25.526  14.838
26748W        W99074  28.660  31.903  11.874
26749W        W99075  20.645   1.455   2.377
26750W        W99076  43.405  29.649  13.449
26751W        W99077  20.224   9.792  14.965
26752W        W99078  16.253  42.385  12.525
26753W        W99079  36.011   5.301  13.418
26754W        W99080  41.397  27.186   1.242
26755W        W99081  12.612  32.488  10.421
26756W        W99082  43.004  30.992   1.853
26757W        W99083   1.401   9.809   1.874
26758W        W99084   7.847  28.655   2.261
26759W        W99085   1.293  43.902  12.860
26760W        W99086  32.458  30.018  10.470
26761W        W99087  27.566  28.006   4.131
26762W        W99088  23.686  17.071   0.474
26763W        W99089  29.430  18.294   3.257
26764W        W99090  35.438  10.875   4.346
26765W        W99091   8.350  23.218   3.185
26766W        W99092  18.595  36.958   2.300
26767W        W99093  36.372   8.308   3.829
26768W        W99094   6.676  31.896   3.745
26769W        W99095  39.880   7.346  14.941
26770W        W99096  25.052  38.992  14.427
26771W        W99097  29.592   7.670   3.205
26772W        W99098  28.012  15.597  13.452
26773W        W99099  41.821  10.305  13.525
26774W        W99100  18.643  35.470   4.326
26775W        W99101  37.055  26.537  14.826
26776W        W99102  13.707   5.912  12.848
26777W        W99103  10.750  42.943   3.275
26778W        W99104  26.953  44.335   2.743
26779W        W99105  38.999  18.296   2.186
26780W        W99106  35.105  16.707  10.540
26781W        W99107  10.307  15.237   3.213
26782W        W99108   8.349  25.522   3.168
26783W        W99109  26.181  27.027  14.878
26784W        W99110  34.010  32.053   0.922
26785W        W99111  15.767  31.943  12.097
26786W        W99112  26.458  11.368  13.328
26787W        W99113  28.453   8.351   4.128
26788W        W99114  31.615  20.566   0.310
26789W        W99115  27.654  13.750  14.319
26790W        W99116  24.647  42.018  10.639
26791W        W99117   3.265  20.755  12.405
26792W        W99118  28.127   5.778   0.274
26793W        W99119  24.076  19.183  12.883
26794W        W99120  18.790  12.296  12.568
26795W        W99121  28.454   6.757   3.372
26796W        W99122  44.274  33.898   2.238
26797W        W99123  10.657  39.914   2.716
26798W        W99124  16.677  30.651  11.959
26799W        W99125  37.502  23.629   2.375
26800W        W99126  40.315  40.838  11.072
26801W        W99127  40.011   7.187   3.743
26802W        W99128   3.941  44.822   3.207
26803W        W99129  10.273  29.537   4.307
26804W        W99130   3.220  36.531  10.914
26805W        W99131   2.786  27.026   4.694
26806W        W99132   0.949  13.113  12.383
26807W        W99133   9.169   8.290  14.422
26808W        W99134  13.202  38.837  14.320
26809W        W99135   1.363   9.302   2.381
26810W        W99136  25.585  26.628   9.991
26811W        W99137  36.021  38.390   0.448
26812W        W99138  15.663   7.403   3.745
26813W        W99139  21.582  35.859   4.631
26814W        W99140   3.709   7.344   0.278
26815W        W99141  44.767  10.230   3.806
26816W        W99142   4.805  28.542   2.887
26817W        W99143   7.671   4.911  13.353
26818W        W99144  38.897  12.732  13.493
26819W        W99145  42.520  14.773  13.388
26820W        W99146  40.466  43.294  12.431
26821W        W99147  32.394  28.617  13.518
26822W        W99148  23.704  22.618   2.743
26823W        W99149  34.431  36.992  10.629
26824W        W99150  21.242  29.478  11.855
26825W        W99151   1.408  12.187   4.748
26826W        W99152  38.868  39.935   0.423
26827W        W99153  39.990  34.935   2.738
26828W        W99154  26.679   4.398  12.363
26829W        W99155   8.227  22.057   2.318
26830W        W99156  39.821  44.837  14.384
26831W        W99157  10.233   8.731  10.977
26832W        W99158  20.708  43.971   2.357
26833W        W99159  28.032  23.661   0.293
26834W        W99160  21.649  37.496  13.335
26835W        W99161  32.995  31.127  11.581
26836W        W99162  33.414  21.540   2.819
26837W        W99163  20.754  23.990  13.434
26838W        W99164  39.483  31.955   4.190
26839W        W99165  33.119  14.779  12.443
26840W        W99166  39.497  13.131  13.956
26841W        W99167   4.339  30.550  12.835
26842W        W99168  28.509  16.600  11.902
26843W        W99169  28.159   8.888   4.632
26844W        W99170  44.444   2.244   1.748
26845W        W99171  40.943  44.434  12.845
26846W        W99172  12.770  38.888   3.824
26847W        W99173  37.964  21.645  13.501
26848W        W99174  27.539   2.253  13.338
26849W        W99175  10.870   7.820   0.251
26850W        W99176  10.160  23.204   4.241
26851W        W99177  22.097  44.905  14.910
26852W        W99178  33.950  16.158  10.411
26853W        W99179  23.167  35.859   3.660
26854W        W99180  10.769  34.084  14.340
26855W        W99181   6.354  15.786  12.845
26856W        W99182  19.124  25.473  11.045
26857W        W99183   7.181  32.909   0.863
26858W        W99184  14.745  40.004  13.379
26859W        W99185   5.848  42.812   5.193
26860W        W99186  27.481  34.447  14.768
26861W        W99187  10.825  24.036   2.337
26862W        W99188  32.620  35.067   0.750
26863W        W99189   8.289  15.802  13.401
26864W        W99190  36.877  21.183   4.175
26865W        W99191   7.292  18.578   1.848
26866W        W99192  39.503  41.825   2.313
26867W        W99193  43.930   8.171  12.505
26868W        W99194   1.318  27.578   4.700
26869W        W99195  35.906  35.053  10.464
26870W        W99196  33.065  40.999   4.605
26871W        W99197  26.688  12.215   0.823
26872W        W99198  23.527   0.747   1.728
26873W        W99199  26.578  42.784  13.059
26874W        W99200   9.184  19.253  11.086
26875W        W99201  28.549   4.208  12.926
26876W        W99202  16.575  23.560   2.220
26877W        W99203  24.044  21.142  12.568
26878W        W99204  12.174   1.386   4.213
26879W        W99205  29.521  22.600  12.842
26880W        W99206  12.794  17.209   1.377
26881W        W99207  25.211  33.058  10.620
26882W        W99208  28.574  24.723  13.863
26883W        W99209  44.837  39.332   1.928
26884W        W99210  17.705  40.881   1.824
26885W        W99211   7.212  42.871  13.005
26886W        W99212  44.259  28.049   4.730
26887W        W99213  36.365  40.930   1.872
26888W        W99214   7.710   5.783  14.374
26889W        W99215   8.857   2.854  12.358
26890W        W99216  12.794  38.995  13.996
26891W        W99217   4.398  41.429  11.033
26892W        W99218  28.594  19.584  13.335
26893W        W99219  18.259  11.658  12.872
26894W        W99220  26.665  25.194  11.432
26895W        W99221  34.448  23.615   0.730
26896W        W99222  33.568  39.360  12.092
26897W        W99223  11.310  40.444  10.950
26898W        W99224  26.074   4.891   0.420
26899W        W99225   7.236  31.980   1.450
26900W        W99226  26.205  31.595   1.379
26901W        W99227  18.571  30.968   4.810
26902W        W99228  27.971  42.497  14.799
26903W        W99229  20.551  21.588   1.364
26904W        W99230  40.327   6.184  14.818
26905W        W99231  27.448  14.792  12.963
26906W        W99232  39.400   0.874  14.901
26907W        W99233  30.460   8.760  11.898
26908W        W99234  42.906  11.826   4.610
26909W        W99235   8.183  33.012   2.267
26910W        W99236  28.164  30.533  12.347
26911W        W99237   1.393  39.340  13.312
26912W        W99238  44.419   7.906  11.553
26913W        W99239  39.519  16.262  14.006
26914W        W99240  18.578  10.261   4.274
26915W        W99241  37.860   9.256  11.465
26916W        W99242  10.214  42.936  10.026
26917W        W99243  41.427  24.586   4.267
26918W        W99244  22.569  16.779  12.534
26919W        W99245  38.008  42.370  10.427
26920W        W99246  23.215  30.578   2.757
26921W        W99247   7.307  23.542  11.009
26922W        W99248   3.744   8.890   2.302
26923W        W99249  13.232  44.370   1.914
26924W        W99250  32.052  24.506   2.406
26925W        W99251   6.421   9.284   1.395
26926W        W99252  21.646  35.384  11.394
26927W        W99253  21.718  19.649  11.405
26928W        W99254  29.962  18.144  10.452
26929W        W99255  20.595  37.881  10.937
26930W        W99256  22.593  44.795  13.424
26931W        W99257   1.964  42.924  14.762
26932W        W99258  19.606   3.281   1.854
26933W        W99259  16.160   2.252   3.150
26934W        W99260  40.443   9.741  12.091
26935W        W99261  15.198  21.609  11.437
26936W        W99262  34.055  38.968  14.027
26937W        W99263  21.595  26.579   0.839
26938W        W99264  38.911  43.867  10.035
26939W        W99265  42.502  23.586  11.092
26940W        W99266   8.663   0.494   4.720
26941W        W99267  17.705   1.896   1.710
26942W        W99268  36.051  20.669   1.756
26943W        W99269  37.944  12.357  12.973
26944W        W99270  11.626   6.414  13.399
26945W        W99271  12.116  39.485  14.904
26946W        W99272  44.263  10.803   1.727
26947W        W99273  38.465   9.226  10.964
26948W        W99274  34.925  43.771   2.293
26949W        W99275  24.097  38.532  11.062
26950W        W99276  22.100  25.531  13.808
26951W        W99277  22.072  29.657  14.969
26952W        W99278  43.836  39.399  12.919
26953W        W99279  32.434   8.354   1.251
26954W        W99280  10.382  31.590   0.786
26955W        W99281   0.892  29.169  14.868
26956W        W99282   0.354   4.276  11.454
26957W        W99283   7.858  38.994   2.825
26958W        W99284  39.885  38.447   0.783
26959W        W99285  42.385  23.536  11.932
26960W        W99286  27.639  27.662  12.850
26961W        W99287   0.914  16.713  14.446
26962W        W99288   8.681  37.350   1.226
26963W        W99289  23.132  13.150  14.996
26964W        W99290  13.732  37.431  14.809
26965W        W99291  28.514   6.400   3.862
26966W        W99292   2.393  21.199   0.451
26967W        W99293  32.022  37.409  13.546
26968W        W99294   2.911  12.673   0.440
26969W        W99295  41.951  14.818   2.391
26970W        W99296  25.050  26.043   1.294
26971W        W99297   2.370   3.261   0.949
26972W        W99298  18.254   1.344  11.884
26973W        W99299   2.274   9.865   4.337
26974W        W99300   7.189  36.543   3.150
26975W        W99301  28.481  35.953  10.637
26976W        W99302  23.006   6.776   4.272
26977W        W99303   4.281  30.098  13.922
26978W        W99304  30.977  37.970   1.381
26979W        W99305  32.906  28.469  13.374
26980W        W99306  16.200  13.264  11.574
26981W        W99307  15.118  34.985   3.281
26982W        W99308  37.968  25.646  12.400
26983W        W99309  35.384  26.010  11.951
26984W        W99310  17.555  30.161   1.751
26985W        W99311  22.222  23.605  14.951
26986W        W99312   6.719   0.850  10.940
26987W        W99313  42.339  37.432  10.486
26988W        W99314  32.436  35.986  13.440
26989W        W99315  16.278  14.653  12.881
26990W        W99316  12.718  31.645   1.801
26991W        W99317  18.775  42.512   4.247
26992W        W99318  37.032  43.894  13.528
26993W        W99319  32.531  35.899  12.024
26994W        W99320  26.564  10.146   1.835
26995W        W99321  35.049  11.635  13.921
26996W        W99322  43.436  20.074  14.944
26997W        W99323  12.321  36.391  11.901
26998W        W99324  35.886  40.973   1.920
26999W        W99325  38.378  21.090  10.578
27000W        W99326   8.282  15.768  10.995
27001W        W99327  34.507  30.954  10.642
27002W        W99328  21.077  35.909   1.771
27003W        W99329  21.555   1.253  14.352
27004W        W99330   3.746  12.183   1.921
27005W        W99331   7.301  20.606  10.995
27006W        W99332  11.696  15.289  13.857
27007W        W99333  26.505  27.147   1.709
27008W        W99334  41.844  17.574  12.998
27009W        W99335   7.701  31.995  14.412
27010W        W99336  27.664   4.701   4.237
27011W        W99337  38.548   0.779  10.623
27012W        W99338  21.652  33.516  11.912
27013W        W99339   9.380  36.027  14.318
27014W        W99340  14.817  43.772   4.738
27015W        W99341  20.687  26.468   4.666
27016W        W99342  14.827  42.027  13.836
27017W        W99343  26.588   5.415  10.512
27018W        W99344  44.765  30.561   0.339
27019W        W99345  21.120  42.330   2.809
27020W        W99346  20.638   8.360   4.622
27021W        W99347  32.972  39.551   1.234
27022W        W99348  26.047  30.500   3.818
27023W        W99349  36.552   0.988  14.283
27024W        W99350  33.105  15.162   0.948
27025W        W99351  18.715  34.597  12.947
27026W        W99352  16.254  36.407  13.796
27027W        W99353   7.908  17.781   1.872
27028W        W99354  39.494  36.989   2.269
27029W        W99355   9.770  32.917   2.297
27030W        W99356  15.706   8.675  13.967
27031W        W99357   3.907  36.073  10.423
27032W        W99358  38.075  16.794   1.900
27033W        W99359  38.981  35.482  13.360
27034W        W99360  14.730  38.410   2.696
27035W        W99361  28.135  24.206  14.437
27036W        W99362  38.564  40.855   3.655
27037W        W99363  21.601  34.958  14.307
27038W        W99364  37.013   9.245  14.491
27039W        W99365   7.678  11.284  10.558
27040W        W99366  33.440  44.311   3.862
27041W        W99367  11.625  33.494  14.876
27042W        W99368   0.760   1.825   3.652
27043W        W99369  12.287  32.392   2.715
27044W        W99370  20.137  35.946  13.977
27045W        W99371  37.941   0.264   2.677
27046W        W99372   6.221  12.638  13.883
27047W        W99373  17.641  11.315  11.017
27048W        W99374   8.714  18.713   4.616
27049W        W99375   9.237  31.556   4.656
27050W        W99376  38.001  17.282   1.250
27051W        W99377  23.091   9.840  14.989
27052W        W99378  25.205   3.302  12.044
27053W        W99379  42.363  36.425   0.807
27054W        W99380  38.872   8.751   0.833
27055W        W99381  39.314  25.515  14.362
27056W        W99382  23.991  29.173  11.930
27057W        W99383  29.011  28.050   2.720
27058W        W99384   7.286  11.634   0.456
27059W        W99385  43.407  18.573  12.055
27060W        W99386  12.852   4.338   0.903
27061W        W99387   0.784   6.740  12.847
27062W        W99388  40.374   4.938   4.171
27063W        W99389  22.650  41.333  10.909
27064W        W99390   2.300  22.572  11.094
27065W        W99391  26.100  23.026   3.180
27066W        W99392   2.239  18.212   3.823
27067W        W99393  10.238  30.996  14.778
27068W        W99394   6.729  20.641   1.373
27069W        W99395  20.732  11.190   1.330
27070W        W99396  13.716  12.284   1.774
27071W        W99397   9.188  19.699  14.341
27072W        W99398  14.791   3.331  12.975
27073W        W99399  12.125  35.477  12.032
27074W        W99400   4.855  41.882   2.300
27075W        W99401  20.656  10.714   4.304
27076W        W99402  32.949  35.861   4.311
27077W        W99403   8.836  29.479  11.396
27078W        W99404  13.128  28.592   1.765
27079W        W99405  40.950  31.552  12.066
27080W        W99406   9.384  44.444  14.831
27081W        W99407  25.489   5.272  11.562
27082W        W99408  19.182  39.835  13.431
27083W        W99409  31.420   3.911   3.705
27084W        W99410  40.843  23.624  12.501
27085W        W99411  12.853   4.277  11.977
27086W        W99412  22.200  29.126  14.410
27087W        W99413  17.296   5.870   2.833
27088W        W99414  22.189  17.130  12.999
27089W        W99415  35.363  44.958  12.899
27090W        W99416   7.737   1.791  14.966
27091W        W99417  28.509  42.921   1.772
27092W        W99418   9.380  32.480   0.445
27093W        W99419   9.315  12.851  10.470
27094W        W99420  31.451  34.915  14.965
27095W        W99421  41.447   9.158   0.810
27096W        W99422   9.875  43.849   3.207
27097W        W99423  17.074  16.601   1.927
27098W        W99424  36.378  18.132  13.898
27099W        W99425  27.580  33.016   1.355
27100W        W99426  32.535  36.023  14.452
27101W        W99427  37.542   3.809   2.237
27102W        W99428   1.868  33.382  13.022
27103W        W99429  20.651   2.239   1.391
27104W        W99430  20.548  27.029  14.444
27105W        W99431   1.435  22.131  13.973
27106W        W99432  21.685   8.730   4.699
27107W        W99433  40.316  23.019  11.903
27108W        W99434  14.639  20.070   4.217
27109W        W99435  36.039  20.607  14.353
27110W        W99436  31.124  36.466  14.339
27111W        W99437  31.472   2.282  12.841
27112W        W99438  28.164  27.636  12.363
27113W        W99439   0.742   6.214   2.354
27114W        W99440  22.546  13.334   4.658
27115W        W99441  36.016  42.452  10.934
27116W        W99442  31.528  41.907   3.680
27117W        W99443  32.474   7.733  11.999
27118W        W99444  20.140  28.120   3.834
27119W        W99445  25.198  11.344  12.352
27120W        W99446  12.255  36.920  13.368
27121W        W99447  16.245  13.825   2.689
27122W        W99448   0.884  41.822   0.325
27123W        W99449  27.105  16.218  13.027
27124W        W99450  15.182   3.907  14.760
27125W        W99451  23.172  22.054  13.410
27126W        W99452  44.303  36.519   0.959
27127W        W99453  25.973  34.390  13.462
27128W        W99454  35.568  10.365  10.591
27129W        W99455  17.738  40.973   0.297
27130W        W99456  34.486  35.489  14.972
27131W        W99457  25.033   1.433  11.122
27132W        W99458  25.149  34.985   3.818
27133W        W99459   3.326  42.911  10.624
27134W        W99460  12.623  34.571  13.871
27135W        W99461   5.233  20.675  10.468
27136W        W99462  13.834  11.182  14.368
27137W        W99463  10.237  31.109  13.904
27138W        W99464  34.428  31.553   0.345
27139W        W99465  32.046  23.552   1.734
27140W        W99466  38.899  10.681   2.223
27141W        W99467  41.897  40.307   0.257
27142W        W99468   3.279  34.049   4.189
27143W        W99469  33.457  31.126   1.831
27144W        W99470  26.501  21.699   2.838
27145W        W99471  10.213  10.325  10.977
27146W        W99472   5.371   5.388  14.973
27147W        W99473  10.797  20.729   0.324
27148W        W99474  41.886  15.087   4.257
27149W        W99475  21.657  43.386  10.561
27150W        W99476  29.497  17.630   2.852
27151W        W99477  11.281  18.759   4.606
27152W        W99478  18.712  29.463  10.639
27153W        W99479  34.878  25.650  13.894
27154W        W99480  27.967  11.757   4.614
27155W        W99481  34.391  24.014  14.853
27156W        W99482  35.019  18.152   1.382
27157W        W99483  29.567   3.832  14.422
27158W        W99484  17.071   5.705  11.513
27159W        W99485  13.736  28.966  12.094
27160W        W99486  44.913  12.299  10.455
27161W        W99487  28.590  14.797  12.842
27162W        W99488   5.366   9.766  14.280
27163W        W99489  26.595  19.048  12.489
27164W        W99490   6.406  21.543  10.453
27165W        W99491   0.867  21.242  13.332
27166W        W99492  34.453  26.201   4.782
27167W        W99493  24.183   4.936  12.349
27168W        W99494  30.497  44.295   4.783
27169W        W99495  41.979  34.038  13.376
27170W        W99496  28.145  41.921  13.372
27171W        W99497  40.004  17.296  10.422
27172W        W99498  37.415   7.760  11.504
27173W        W99499  17.692  19.727   4.160
27174W        W99500  19.748  39.332  14.347
27175W        W99501  38.388  19.119   4.825
27176W        W99502  23.697  30.047  14.907
27177W        W99503   4.709   2.270   2.249
27178W        W99504  38.853  38.405   3.264
27179W        W99505   5.400  28.626  10.984
27180W        W99506  21.032  15.271  10.560
27181W        W99507  36.990  40.049  11.914
27182W        W99508   3.246   5.198  13.423
27183W        W99509  28.143  23.642  13.996
27184W        W99510  17.289  35.534  14.930
27185W        W99511   9.647  39.340   3.841
27186W        W99512  22.166   1.466   3.698
27187W        W99513  40.023  42.857   4.758
27188W        W99514  36.474   9.868  14.374
27189W        W99515  41.333  36.370   4.667
27190W        W99516  28.070  33.883  13.411
27191W        W99517  27.692  11.338  13.895
27192W        W99518   6.234  12.760   3.342
27193W        W99519  24.227  36.926  13.814
27194W        W99520   9.178  41.391  14.450
27195W        W99521  26.053  39.927   2.380
27196W        W99522  30.041  39.020   1.850
27197W        W99523  25.476  40.481   5.204
27198W        W99524  43.808   5.320  10.420
27199W        W99525   5.878  41.902  13.831
27200W        W99526  11.165  27.135   5.580
27201W        W99527  13.733  20.043   1.265
27202W        W99528  35.889  43.780  12.958
27203W        W99529  12.232  40.990   0.890
27204W        W99530  40.799  33.882  14.889
27205W        W99531  42.417  35.856  13.391
27206W        W99532  15.097  28.663   1.884
27207W        W99533   7.893  29.027   1.773
27208W        W99534   8.848  33.983   1.748
27209W        W99535  11.850  33.618   4.130
27210W        W99536  16.810  40.364  11.980
27211W        W99537  16.254  32.462   4.175
27212W        W99538  38.561   7.301   0.341
27213W        W99539  19.652  22.520  12.563
27214W        W99540  25.994  10.359   0.777
27215W        W99541  27.155  29.934   3.637
27216W        W99542  28.665  38.465   0.325
27217W        W99543  41.479  44.853  13.317
27218W        W99544  37.948   5.761  12.936
27219W        W99545  31.974  15.724  12.823
27220W        W99546   5.250  35.955   0.741
27221W        W99547  31.557   4.703  10.517
27222W        W99548  23.617  43.414  14.502
27223W        W99549  20.157  18.685  11.544
27224W        W99550  39.920  12.201  13.546
27225W        W99551  14.300  11.701   2.191
27226W        W99552   3.321  21.723  10.026
27227W        W99553  25.501  24.535   0.943
27228W        W99554  27.195  34.880  11.914
27229W        W99555  26.059  26.019  12.925
27230W        W99556  37.508  34.526  11.384
27231W        W99557  16.183   8.351  11.501
27232W        W99558  27.027  41.386  12.912
27233W        W99559  42.510  36.059   1.770
27234W        W99560   1.385  18.249  14.364
27235W        W99561  10.232  16.776   2.824
27236W        W99562   2.394  25.050  14.434
27237W        W99563  14.116   1.447   3.767
27238W        W99564  40.508  23.520   1.292
27239W        W99565   3.826  34.601   3.747
27240W        W99566  40.980  24.495  10.934
27241W        W99567  33.044   9.229  11.864
27242W        W99568  40.395  16.250  12.979
27243W        W99569  42.783  18.664  13.868
27244W        W99570  25.679   8.207  10.604
27245W        W99571   3.283  44.264  11.379
27246W        W99572  13.799   4.743   4.333
27247W        W99573  27.664  25.208   3.147
27248W        W99574  28.113  24.559   2.190
27249W        W99575  32.993  26.175  13.360
27250W        W99576   8.196   7.667   3.643
27251W        W99577  11.239  35.510   5.750
27252W        W99578  15.784  43.773   4.163
27253W        W99579   3.843  17.150   0.858
27254W        W99580  10.739   2.408   0.436
27255W        W99581   3.290  42.030   0.893
27256W        W99582  32.897   1.434  10.595
27257W        W99583  13.126  17.692  11.950
27258W        W99584  41.376  40.965  11.580
27259W        W99585  30.073  16.632   4.287
27260W        W99586   5.754  22.051  10.489
27261W        W99587   3.924  25.046  14.416
27262W        W99588  38.058   9.340  12.365
27263W        W99589  13.317   1.936  13.428
27264W        W99590  22.619   5.371  13.039
27265W        W99591  23.181  31.432  13.980
27266W        W99592   2.745  23.638   5.186
27267W        W99593   3.873  15.686   3.770
27268W        W99594   4.753   1.250   1.377
27269W        W99595  30.470   4.382  14.397
27270W        W99596  17.117  28.650  11.907
27271W        W99597   4.900   8.901  10.524
27272W        W99598  10.680  16.318   2.417
27273W        W99599  41.878  18.619   4.118
27274W        W99600  24.084  15.232  10.622
27275W        W99601  21.756  40.399  12.557
27276W        W99602  39.330  32.081  10.959
27277W        W99603  11.783  37.461  11.377
27278W        W99604  10.679  34.890  12.071
27279W        W99605  18.613   5.287   0.328
27280W        W99606  17.134  11.238  11.436
27281W        W99607  31.036  17.560  13.500
27282W        W99608   6.912  18.236   0.740
27283W        W99609   1.330  31.947   0.848
27284W        W99610   6.817  11.667   4.697
27285W        W99611   2.853  15.156  10.952
27286W        W99612  42.848  20.572   4.139
27287W        W99613  11.213  30.432   2.349
27288W        W99614  10.862  11.229   4.347
27289W        W99615  36.867  17.070  12.350
27290W        W99616   8.825  42.429  13.530
27291W        W99617  41.941  35.068   0.272
27292W        W99618  22.518  19.241  11.966
27293W        W99619  39.554  33.384  11.003
27294W        W99620  13.663  18.748  11.419
27295W        W99621   4.790  15.694  14.961
27296W        W99622  27.094  27.091  14.403
27297W        W99623  25.619   8.672   5.290
27298W        W99624  17.741  42.496  11.892
27299W        W99625   2.801  26.530  14.907
27300W        W99626  40.849   0.986  12.952
27301W        W99627  12.351  19.542   3.248
27302W        W99628   9.692   2.359   0.854
27303W        W99629  37.991   7.298   2.853
27304W        W99630   8.361   5.908   2.720
27305W        W99631  14.102   8.202   1.363
27306W        W99632   7.678   8.297  11.098
27307W        W99633  42.822  14.755  13.881
27308W        W99634  36.052  36.470  10.622
27309W        W99635  24.171   8.692   2.265
27310W        W99636  24.042   8.839  13.947
27311W        W99637  25.497  43.358   0.256
27312W        W99638   3.330  11.724   3.300
27313W        W99639  30.968  13.754   4.302
27314W        W99640  37.481  32.454   1.718
27315W        W99641  15.099  22.742   3.731
27316W        W99642  43.484  15.267  11.410
27317W        W99643  42.460  26.545   3.346
27318W        W99644  21.088  28.676   2.889
27319W        W99645  37.349  41.393   4.312
27320W        W99646  10.305  26.168  13.457
27321W        W99647  24.539  27.971  11.994
27322W        W99648  16.749  44.904   0.909
27323W        W99649  41.336   0.293   1.759
27324W        W99650  37.456  41.042   4.649
27325W        W99651  24.038  37.434   5.159
27326W        W99652  13.737  40.882  11.490
27327W        W99653  32.999  26.011  10.938
27328W        W99654  13.287  22.219   0.332
27329W        W99655  42.961  29.549  14.896
27330W        W99656   5.253  26.980   2.718
27331W        W99657  40.885  35.391  12.880
27332W        W99658  13.178  12.810   0.768
27333W        W99659  34.046  38.345   3.305
27334W        W99660  29.424  17.261  14.812
27335W        W99661  43.425   0.456  14.482
27336W        W99662   8.303  18.149  14.797
27337W        W99663  37.371  18.645  11.957
27338W        W99664  26.187  22.537  14.956
27339W        W99665  41.829  14.320   4.228
27340W        W99666  12.287  14.654   4.723
27341W        W99667  19.549  28.543  11.410
27342W        W99668  25.568  27.127  12.365
27343W        W99669  36.524  43.019   5.107
27344W        W99670  13.671   5.206   0.794
27345W        W99671  19.543  29.920   2.381
27346W        W99672  37.471   9.774   2.284
27347W        W99673  27.633  24.172   3.683
27348W        W99674   8.727   1.758  13.830
27349W        W99675  20.539  22.721   1.824
27350W        W99676   5.218  19.270  12.441
27351W        W99677  39.410   4.738   2.672
27352W        W99678  21.089  32.030  11.985
27353W        W99679  35.091  32.573  11.410
27354W        W99680   4.284  15.693   3.364
27355W        W99681  19.123  36.440   4.683
27356W        W99682   2.335  20.132   4.641
27357W        W99683  34.109  23.989   2.391
27358W        W99684  43.495  15.255   0.967
27359W        W99685  20.192  32.043  12.510
27360W        W99686  34.479  11.725  10.908
27361W        W99687  19.713   1.303  14.460
27362W        W99688  38.394  10.231   1.345
27363W        W99689   1.373   7.690  14.963
27364W        W99690  20.595  40.319  13.847
27365W        W99691  33.962  39.536   3.701
27366W        W99692  32.513   4.725   1.341
27367W        W99693  17.757  14.603   2.785
27368W        W99694   9.733   7.800  14.396
27369W        W99695  18.608  32.071  10.596
27370W        W99696  36.976  39.063  11.611
27371W        W99697  15.310  29.656  14.864
27372W        W99698  12.684  16.274   4.796
27373W        W99699  31.965  16.208   3.712
27374W        W99700  26.102  31.444  14.029
27375W        W99701  39.383   3.891  12.434
27376W        W99702  11.295  32.628   1.412
27377W        W99703  28.662  28.172   4.138
27378W        W99704  29.500  41.859   3.298
27379W        W99705  20.263  38.864  12.397
27380W        W99706  26.048  32.075   2.878
27381W        W99707  37.520  43.855  13.481
27382W        W99708   5.232  42.458  14.759
27383W        W99709   8.858  20.572  14.006
27384W        W99710   5.856  28.618  11.903
27385W        W99711  14.688  10.696   1.338
27386W        W99712  32.459   7.310  11.990
27387W        W99713  12.660  11.206   4.770
27388W        W99714  25.674  28.446  13.833
27389W        W99715   5.206  15.690   0.338
27390W        W99716  10.175   2.316   4.182
27391W        W99717  44.303  38.379  13.502
27392W        W99718  26.670  21.561  10.900
27393W        W99719   1.907  27.639   4.218
27394W        W99720   9.183  34.573   4.620
27395W        W99721  33.558  19.258   3.180
27396W        W99722  28.001  32.010  11.999
27397W        W99723  33.477   8.175  14.394
27398W        W99724  38.008  34.052   4.190
27399W        W99725   0.451  35.908  10.996
27400W        W99726  23.552  30.122   3.325
27401W        W99727  14.212  41.879   4.237
27402W        W99728  26.611  38.359   2.857
27403W        W99729  33.564  11.196  13.966
27404W        W99730  36.571  20.627   1.842
27405W        W99731  39.363  25.474  14.996
27406W        W99732  11.149  38.045  12.855
27407W        W99733  24.482  26.141   3.153
27408W        W99734   5.787  37.459  14.388
27409W        W99735  35.095  12.229  10.946
27410W        W99736  44.344  11.145  14.780
27411W        W99737  23.126  39.354  11.056
27412W        W99738  14.263   0.442   3.346
27413W        W99739  22.662   1.885   1.867
27414W        W99740  12.332  30.938   4.218
27415W        W99741   2.938   8.306   4.179
27416W        W99742  36.902  35.485   2.809
27417W        W99743  41.396  30.565  12.384
27418W        W99744  11.790  15.260   4.192
27419W        W99745  33.047  20.047   0.884
27420W        W99746  30.925  32.491  14.788
27421W        W99747  37.513   5.770   2.788
27422W        W99748  38.463  25.518   3.352
27423W        W99749  10.346  16.670   3.804
27424W        W99750  23.510  31.464   2.351
27425W        W99751  34.009  30.419  12.866
27426W        W99752  26.524  16.210   1.226
27427W        W99753  21.178  11.340  13.064
27428W        W99754  23.136   8.167   0.423
27429W        W99755  32.102  14.147   2.854
27430W        W99756  36.085  17.084   3.719
27431W        W99757  28.969  38.475   4.129
27432W        W99758   5.425  11.853  11.546
27433W        W99759  43.833  38.549   0.464
27434W        W99760  29.592  25.198  14.878
27435W        W99761  44.328  28.445  14.784
27436W        W99762   0.783  26.114  10.569
27437W        W99763   1.897  18.718  11.899
27438W        W99764  34.579  28.516  12.939
27439W        W99765  12.711  32.134   2.841
27440W        W99766  17.739  15.704  11.054
27441W        W99767  25.208  25.099  12.578
27442W        W99768   4.725   0.358  14.968
27443W        W99769  44.497   1.884  12.384
27444W        W99770  19.586  16.800   3.749
27445W        W99771   8.747  23.240   0.475
27446W        W99772  21.557  21.730   2.725
27447W        W99773  30.954   8.253   1.340
27448W        W99774   7.329  11.680   4.317
27449W        W99775  23.172   0.475   2.402
27450W        W99776  29.047   1.872  10.582
27451W        W99777  16.679  23.103   4.755
27452W        W99778  16.301  24.002  11.079
27453W        W99779  21.734  31.098  14.508
27454W        W99780  35.398  32.474   9.523
27455W        W99781  20.209   8.216  10.495
27456W        W99782  26.113  10.363   4.714
27457W        W99783  15.235  29.647  12.473
27458W        W99784   6.794  25.612  14.934
27459W        W99785   8.299  14.340   4.149
27460W        W99786  39.844   5.750   4.677
27461W        W99787  37.343  22.681  14.800
27462W        W99788  26.517   4.412   1.349
27463W        W99789  41.293  12.646   4.604
27464W        W99790   7.222  26.582  10.118
27465W        W99791  13.173  25.074   3.696
27466W        W99792  31.640  35.407   4.788
27467W        W99793  39.542   8.797  13.810
27468W        W99794   9.656  43.430   3.235
27469W        W99795   3.355   8.838   4.670
27470W        W99796  10.820  29.654  14.296
27471W        W99797   7.192  34.884   3.721
27472W        W99798  40.827   0.272  10.496
27473W        W99799  34.914   7.879  12.405
27474W        W99800  14.115  29.168  13.021
27475W        W99801  40.025  38.852   3.148
27476W        W99802  35.080  24.000  14.768
27477W        W99803  32.104   1.852   0.822
27478W        W99804  25.053  36.030  12.955
27479W        W99805  21.162   7.900   0.829
27480W        W99806  16.276  24.630   1.231
27481W        W99807   2.869   0.418  12.971
27482W        W99808   9.792  24.545  14.886
27483W        W99809  25.116   6.749   1.402
27484W        W99810  15.659  13.193  11.375
27485W        W99811  22.661  18.644   1.756
27486W        W99812  11.216   1.783  10.420
27487W        W99813  42.520  32.002   2.418
27488W        W99814  10.284  35.400   4.336
27489W        W99815  25.200  19.243  10.471
27490W        W99816  39.881  25.007   2.378
27491W        W99817  29.494   4.725   4.223
27492W        W99818   2.351  35.929   3.736
27493W        W99819  23.505  41.459   1.263
27494W        W99820  40.835  13.635   4.325
27495W        W99821  40.854  23.224   1.851
27496W        W99822  15.759  18.083   1.912
27497W        W99823  28.147  19.061  10.940
27498W        W99824  17.224  36.077  13.922
27499W        W99825  10.351  38.346   4.651
27500W        W99826   3.438  30.454  11.903
27501W        W99827  39.953  39.812  14.853
27502W        W99828  42.877   2.370   3.147
27503W        W99829  26.980  36.585   3.755
27504W        W99830  41.876  42.318   1.850
27505W        W99831  15.788  30.078  13.022
27506W        W99832   7.261  35.967   0.260
27507W        W99833  29.923  37.540  11.992
27508W        W99834  21.030  44.417   4.792
27509W        W99835  15.605  42.998  10.142
27510W        W99836  10.869  11.137   4.659
27511W        W99837  14.215   8.836   1.313
27512W        W99838  34.952  22.657   3.354
27513W        W99839   7.244  41.513   3.636
27514W        W99840   2.284   2.790   9.942
27515W        W99841   1.390   5.763  10.893
27516W        W99842   7.761   3.880   2.760
27517W        W99843  18.062  44.842  10.480
27518W        W99844  36.090  39.977  11.528
27519W        W99845  38.327  14.217   3.716
27520W        W99846  31.974   0.314   0.940
27521W        W99847  33.933  16.678   0.310
27522W        W99848   4.736  33.490  11.496
27523W        W99849  15.192  12.361  12.395
27524W        W99850  41.948  12.124   0.394
27525W        W99851   1.247  24.975   2.723
27526W        W99852  17.788  10.319   0.397
27527W        W99853  17.305  11.661   3.298
27528W        W99854  30.569  14.638   4.339
27529W        W99855   0.858  29.973   1.428
27530W        W99856  29.448   2.298   0.367
27531W        W99857  42.963  16.673  11.907
27532W        W99858  13.772  14.752  13.460
27533W        W99859   0.911  25.169  11.420
27534W        W99860  44.770  36.509  11.984
27535W        W99861  33.558  42.357  12.831
27536W        W99862  35.021  25.561   2.312
27537W        W99863   9.312  22.078  10.549
27538W        W99864  24.979  37.077   0.384
27539W        W99865  32.588   1.236  12.408
27540W        W99866  32.628  20.097   0.811
27541W        W99867   5.325  16.095   3.685
27542W        W99868  26.648  42.031  11.017
27543W        W99869  10.347  12.724  10.592
27544W        W99870  15.319  28.669   0.783
27545W        W99871  10.290  40.443   4.226
27546W        W99872  31.992  31.115   1.428
27547W        W99873  25.568   3.408   9.932
27548W        W99874  18.786  15.689  11.539
27549W        W99875   5.329   9.829  11.051
27550W        W99876  19.553  24.617   4.340
27551W        W99877  22.184  39.435  13.547
27552W        W99878   5.907  32.941   4.731
27553W        W99879  11.719  40.819  10.563
27554W        W99880  22.097   9.662   1.227
27555W        W99881   3.284   0.792   4.206
27556W        W99882  22.242  23.024  13.968
27557W        W99883  16.193   9.156   4.257
27558W        W99884  42.992   1.786  10.468
27559W        W99885  16.571  34.501   3.630
27560W        W99886  40.858  29.575   4.353
27561W        W99887  15.706  13.779   2.307
27562W        W99888  18.281  29.633   1.355
27563W        W99889  40.868   1.378   0.922
27564W        W99890  40.349  10.185   1.282
27565W        W99891  14.318  25.700   3.690
27566W        W99892  17.600  11.737   1.279
27567W        W99893  34.527  36.015  13.964
27568W        W99894  17.272  23.013   3.661
27569W        W99895  27.645   7.861   3.217
27570W        W99896  13.703  36.404   9.597
27571W        W99897  18.290  10.304   1.911
27572W        W99898  37.347  27.940   0.475
27573W        W99899  37.358  24.698   3.230
27574W        W99900  11.186   5.328  11.096
27575W        W99901  20.201   3.257  10.537
27576W        W99902  41.935  14.670  14.875
27577W        W99903  36.931  23.719   4.313
27578W        W99904  35.991  17.783  12.007
27579W        W99905  22.208  31.540   0.413
27580W        W99906  18.765   2.358   2.389
27581W        W99907  23.157  34.891  13.343
27582W        W99908  39.341  24.686  13.958
27583W        W99909  40.917  38.540   3.717
27584W        W99910  13.646  43.399  14.276
27585W        W99911  32.474  44.372   4.640
27586W        W99912  36.087   5.406  13.918
27587W        W99913  16.584  32.397   0.406
27588W        W99914  35.931  25.184  13.955
27589W        W99915  25.708  36.385   1.246
27590W        W99916  26.655  11.785  11.053
27591W        W99917  18.242  35.496   3.342
27592W        W99918   1.904  43.940   1.344
27593W        W99919  20.722   8.323   4.243
27594W        W99920  15.099  34.499  13.469
27595W        W99921  39.321  39.459   2.251
27596W        W99922  18.720  40.863  13.837
27597W        W99923  22.636  30.478  10.044
27598W        W99924  20.157  42.468  11.955
27599W        W99925   7.326  31.076   4.668
27600W        W99926   7.332  35.455  14.457
27601W        W99927  14.211  11.696  10.915
27602W        W99928  10.811  35.566  10.599
27603W        W99929   5.424   3.910  10.643
27604W        W99930   0.342  23.553   3.377
27605W        W99931   7.672  44.435   3.830
27606W        W99932   4.245   0.868  10.577
27607W        W99933  10.864  27.027   4.808
27608W        W99934   4.925   3.387  11.935
27609W        W99935  30.965  18.703   3.669
27610W        W99936  23.506   3.379  12.061
27611W        W99937  32.969  21.202  14.971
27612W        W99938  16.795  18.725   3.660
27613W        W99939  38.966  21.739  12.431
27614W        W99940  11.154  44.777  11.108
27615W        W99941  14.133  19.696   3.341
27616W        W99942   5.395   1.836   4.597
27617W        W99943  17.588  28.982  12.867
27618W        W99944   2.862   4.835   5.788
27619W        W99945  12.297  33.523  13.801
27620W        W99946  23.607  16.713  13.401
27621W        W99947  32.461  27.057  11.468
27622W        W99948  23.606  12.791   0.800
27623W        W99949   8.844  30.078  11.124
27624W        W99950  40.412   0.985  11.590
27625W        W99951  34.508  35.982   3.704
27626W        W99952  21.511   2.790   1.424
27627W        W99953  18.714  24.087  14.898
27628W        W99954  12.754  34.591  13.446
27629W        W99955   8.666  36.907  12.354
27630W        W99956  22.513  19.591   4.755
27631W        W99957  13.145  15.141  14.356
27632W        W99958   8.837   5.327  13.884
27633W        W99959  39.935  25.627   4.287
27634W        W99960  14.103  28.071   1.328
27635W        W99961  13.639  38.499  10.489
27636W        W99962   5.834  40.490  13.483
27637W        W99963  14.290  33.622  12.047
27638W        W99964  30.615  31.959   4.302
27639W        W99965  23.014  18.291  12.967
27640W        W99966   1.350   6.794   0.902
27641W        W99967  23.515   8.676  13.794
27642W        W99968   9.724  38.894  10.594
27643W        W99969   2.421   7.714   1.450
27644W        W99970  41.010   9.779   4.279
27645W        W99971   9.665  27.469  11.067
27646W        W99972  39.028  21.042  12.427
27647W        W99973  41.495  27.527   2.734
27648W        W99974  10.792  28.939  11.060
27649W        W99975   9.754  21.651   0.254
27650W        W99976   6.349   7.700  11.064
27651W        W99977  44.805   6.228  11.946
27652W        W99978  43.514  44.405  11.570
27653W        W99979  21.158  13.326   2.286
27654W        W99980  42.526  41.931   3.709
27655W        W99981  22.130  28.031   3.861
27656W        W99982  41.492  29.011   4.657
27657W        W99983  27.578  20.192  13.027
27658W        W99984  30.654  26.460   2.814
27659W        W99985  30.926  13.684   0.277
27660W        W99986   7.759  20.742  14.398
27661W        W99987  33.971  25.488  13.431
27662W        W99988   7.282   9.162   1.885
27663W        W99989  20.701  26.496  13.043
27664W        W99990  27.014  12.206  13.329
27665W        W99991  15.613  25.559   0.866
27666W        W99992   2.945  23.175   3.208
27667W        W99993  31.945  42.838   2.772
27668W        W99994  41.004  38.425  10.503
27669W        W99995  14.339   4.920   0.270
27670W        W99996  26.063  26.090  11.869
27671W        W99997  33.420   7.704   3.783
27672W        W99998  29.643   7.196   1.695
27673W        W99999  23.994  37.436   1.749
27674W        W    0  13.322  21.638   4.138
27675W        W    1  37.880   7.734  11.041
27676W        W    2  22.027  17.266   2.394
27677W        W    3  23.671   3.248   2.898
27678W        W    4  23.188  42.436  13.499
27679W        W    5  44.275   7.834  11.856
27680W        W    6  32.527  39.502   4.834
27681W        W    7  10.657   6.427   4.808
27682W        W    8  34.935   0.483   1.828
27683W        W    9  25.219  20.576  11.432
27684W        W   10  26.059  16.568  12.003
27685W        W   11  34.568  21.141  12.556
27686W        W   12   4.871  44.271  13.922
27687W        W   13  36.463  33.519  12.976
27688W        W   14  14.593  26.136   5.268
27689W        W   15  22.056  33.962   3.643
27690W        W   16  36.876   5.753  13.322
27691W        W   17  40.322   6.780  13.966
27692W        W   18  17.780  18.127   0.461
27693W        W   19  20.198  11.847  11.591
27694W        W   20   5.730  22.180   0.735
27695W        W   21  22.062  19.042   3.146
27696W        W   22  29.602   8.252   2.375
27697W        W   23  42.453   0.762   4.308
27698W        W   24   4.736  18.217  10.415
27699W        W   25   4.894   4.418  11.468
27700W        W   26   3.403  24.092   1.451
27701W        W   27   8.278  24.204   4.242
27702W        W   28   9.196  37.042   0.958
27703W        W   29  18.564   4.772   1.278
27704W        W   30  26.189  21.722   0.835
27705W        W   31  23.677   2.307  10.983
27706W        W   32  41.496  23.072   2.381
27707W        W   33   1.273  15.320   2.808
27708W        W   34  31.614   0.792   4.148
27709W        W   35  40.967  44.964   4.337
27710W        W   36  37.564   8.359  12.364
27711W        W   37  31.552  34.388   2.347
27712W        W   38  43.999   0.786   1.734
27713W        W   39  11.716  43.766  11.881
27714W        W   40  38.355  26.955   0.253
27715W        W   41  38.049  40.525   4.796
27716W        W   42  30.471  30.467   4.212
27717W        W   43  36.354  26.465  13.837
27718W        W   44  38.024  22.230  12.834
27719W        W   45  39.377   5.194   2.350
27720W        W   46  38.056  25.080   2.312
27721W        W   47   4.834   4.332  12.017
27722W        W   48  31.119  42.362   0.929
27723W        W   49  27.680   0.404   0.744
27724W        W   50  33.971  30.929  12.539
27725W        W   51   0.356  41.921   3.745
27726W        W   52  22.724  42.350   2.242
27727W        W   53  12.684  44.288  12.941
27728W        W   54  30.465  23.676  13.369
27729W        W   55   1.819  31.075   4.627
27730W        W   56  21.191  38.376   3.764
27731W        W   57  26.468  42.468   4.252
27732W        W   58  42.998  14.759  10.519
27733W        W   59   8.210  26.973  13.416
27734W        W   60  11.703   7.333   1.807
27735W        W   61  23.681  19.094   2.390
27736W        W   62   0.969  12.178   4.227
27737W        W   63  35.392   8.368  11.988
27738W        W   64  41.961  17.741  12.482
27739W        W   65   9.395  31.551  11.545
27740W        W   66  21.575   2.735  14.784
27741W        W   67  40.983  18.095  13.954
27742W        W   68  25.018   8.738   1.419
27743W        W   69  29.100  26.095   2.705
27744W        W   70  25.509  29.935   3.787
27745W        W   71  40.538  34.563   2.699
27746W        W   72  42.928  19.072   1.306
27747W        W   73  18.094  35.081  10.575
27748W        W   74   2.336  16.213  13.859
27749W        W   75  29.528  39.921   5.132
27750W        W   76  36.924  28.168  12.496
27751W        W   77   0.827  39.977  10.449
27752W        W   78  17.264   8.323  13.317
27753W        W   79  17.185  22.730  13.915
27754W        W   80  23.711  26.621   1.919
27755W        W   81  12.186  21.111  13.001
27756W        W   82  27.154  37.519  14.794
27757W        W   83   6.718  10.201   4.203
27758W        W   84  41.460   7.713   0.287
27759W        W   85  38.422  40.538  13.327
27760W        W   86   2.374  31.624   0.785
27761W        W   87  32.062   1.871   2.708
27762W        W   88  43.853  24.557  11.510
27763W        W   89  35.863  42.419   1.884
27764W        W   90  18.109  33.915   4.303
27765W        W   91  32.429  38.944   1.395
27766W        W   92  12.785  39.332   4.716
27767W        W   93   0.832  35.090   0.873
27768W        W   94  25.131  22.660   3.651
27769W        W   95  43.947  40.528  10.527
27770W        W   96  18.275   2.771   0.781
27771W        W   97  31.953  44.433   0.737
27772W        W   98   7.345  43.377  11.466
27773W        W   99  26.041  20.537   3.298
27774W        W  100  15.703  33.105  13.827
27775W        W  101   0.774  16.309  11.063
27776W        W  102   6.686   0.399  13.536
27777W        W  103  40.478  29.053   9.977
27778W        W  104   8.672  25.481  14.291
27779W        W  105   6.813  37.545  13.524
27780W        W  106   0.260  26.021  11.107
27781W        W  107   3.819   2.334   3.695
27782W        W  108   0.288   0.378   3.871
27783W        W  109  29.918  40.483   4.204
27784W        W  110  39.844  43.506   1.895
27785W        W  111  11.164  17.104   0.371
27786W        W  112  14.825  37.055  10.465
27787W        W  113   1.802  28.006  12.382
27788W        W  114  31.151  10.798   0.301
27789W        W  115   7.267   2.730   3.828
27790W        W  116  26.077  20.561   1.717
27791W        W  117  19.549  21.571   0.940
27792W        W  118  28.971  22.535  10.942
27793W        W  119  34.934  10.323  12.369
27794W        W  120  35.856  15.621   5.263
27795W        W  121  40.819  23.062  14.430
27796W        W  122   4.845  17.104  10.473
27797W        W  123  39.494   2.265  12.999
27798W        W  124  30.928   8.878  10.980
27799W        W  125   2.455   8.734  11.517
27800W        W  126  43.514   0.844   0.746
27801W        W  127  32.976  32.621   0.281
27802W        W  128  20.036  13.695  10.899
27803W        W  129  34.963  32.916   0.801
27804W        W  130  14.747  41.019  12.528
27805W        W  131  32.119  33.115   1.730
27806W        W  132  22.211  32.924  12.022
27807W        W  133  43.891  41.996   4.751
27808W        W  134  34.921  29.945  13.513
27809W        W  135  33.420  23.653  14.433
27810W        W  136  34.051  33.567  12.528
27811W        W  137  35.863  43.309  12.357
27812W        W  138  23.092  14.272   3.651
27813W        W  139  16.289  35.021   3.824
27814W        W  140  17.601  15.090   2.402
27815W        W  141  41.383  37.982   1.276
27816W        W  142  29.029  32.536   2.669
27817W        W  143  17.089  25.112   0.911
27818W        W  144  29.088  18.655  11.459
27819W        W  145  40.004   6.693   2.222
27820W        W  146   5.795   9.314   1.263
27821W        W  147  43.853  19.249  12.003
27822W        W  148  36.547  23.650   3.192
27823W        W  149  44.866  18.655  14.782
27824W        W  150   9.670   0.750  13.047
27825W        W  151  37.846  17.623  13.330
27826W        W  152  33.884  12.634   4.753
27827W        W  153  18.575  27.985  12.050
27828W        W  154  15.686  27.194   0.894
27829W        W  155  22.227  15.241   5.127
27830W        W  156   6.213  16.575  11.567
27831W        W  157  38.526  36.480   2.301
27832W        W  158  36.089  13.279   1.348
27833W        W  159   9.154  15.226   0.749
27834W        W  160   2.392  41.970  11.028
27835W        W  161  13.749   5.318   3.190
27836W        W  162  16.573  44.460   3.790
27837W        W  163   4.444   1.350  12.576
27838W        W  164  36.469  24.048  11.453
27839W        W  165  15.297  44.941  13.530
27840W        W  166   7.387  11.315   2.875
27841W        W  167  31.957  17.126  13.310
27842W        W  168   0.289  28.077   4.820
27843W        W  169  17.798  12.319   2.298
27844W        W  170   2.464  19.164  12.877
27845W        W  171  28.930  21.654   2.223
27846W        W  172  21.547  38.064  13.326
27847W        W  173   3.252  24.581  11.404
27848W        W  174  25.524  20.697   4.126
27849W        W  175  43.362   4.248   0.762
27850W        W  176  18.748  17.776   3.282
27851W        W  177   9.346  34.444  11.018
27852W        W  178   5.370  23.119   0.934
27853W        W  179  23.657  17.648   5.133
27854W        W  180  37.478  36.426   1.310
27855W        W  181   3.747   0.361  13.996
27856W        W  182  24.685  15.579  12.006
27857W        W  183  17.063  44.859   0.450
27858W        W  184  20.654  41.821   2.191
27859W        W  185  15.171  20.045   1.217
27860W        W  186  33.007  10.674  10.423
27861W        W  187  24.093  34.118   1.886
27862W        W  188  26.701   4.428   0.348
27863W        W  189   5.716  17.756  13.414
27864W        W  190  17.212   5.849  13.996
27865W        W  191  44.856   4.741  12.412
27866W        W  192  36.023  43.942   1.232
27867W        W  193   3.771  38.837  14.909
27868W        W  194  27.192  15.192  11.449
27869W        W  195  29.175  36.074   1.868
27870W        W  196  30.525  14.186  14.875
27871W        W  197  21.640  24.200  14.973
27872W        W  198  19.039  34.033  12.914
27873W        W  199  23.103  30.097   2.284
27874W        W  200  14.275  25.198  10.086
27875W        W  201  19.675   1.867   1.888
27876W        W  202  32.498  38.994   4.138
27877W        W  203  22.061  26.488  10.964
27878W        W  204  28.528  23.125   3.680
27879W        W  205  26.980  24.212  14.347
27880W        W  206  39.551   9.815   2.674
27881W        W  207  38.365   6.884  13.850
27882W        W  208  17.293  11.823   1.233
27883W        W  209  16.586   2.745   0.407
27884W        W  210  25.177  34.519   3.212
27885W        W  211  19.589   0.306   1.823
27886W        W  212  36.938  18.231  12.894
27887W        W  213   7.744  43.999  10.921
27888W        W  214  44.376  27.949  11.040
27889W        W  215  35.938  39.549  13.307
27890W        W  216  38.339   1.308  12.517
27891W        W  217   2.723  20.530   2.843
27892W        W  218  23.237  34.006  12.900
27893W        W  219  15.812  17.745   3.843
27894W        W  220  30.559  13.131  11.085
27895W        W  221  24.563  31.588  14.972
27896W        W  222  33.037   9.678   0.312
27897W        W  223   7.897  10.293   1.320
27898W        W  224  25.584  44.798  13.387
27899W        W  225   1.263  38.564   3.295
27900W        W  226  33.526  33.125   4.796
27901W        W  227  35.467  13.159   3.854
27902W        W  228  30.414  42.519  13.917
27903W        W  229  18.600  26.103   2.896
27904W        W  230  42.462   7.305   3.772
27905W        W  231  13.741  34.975   1.352
27906W        W  232  14.651  38.328  13.946
27907W        W  233  12.129  11.256  14.948
27908W        W  234  24.666  13.835  14.462
27909W        W  235   6.779   3.378  11.066
27910W        W  236  43.815   1.885  12.935
27911W        W  237  18.093   1.824   0.860
27912W        W  238  28.566   1.945   0.361
27913W        W  239   1.735  12.760   3.823
27914W        W  240  30.118  21.082   1.928
27915W        W  241  31.047   3.401   0.260
27916W        W  242  24.040  35.505  11.441
27917W        W  243  15.289  30.113  10.931
27918W        W  244   5.691  23.683   4.700
27919W        W  245  21.716  29.433   3.249
27920W        W  246  44.364  43.839  12.577
27921W        W  247  31.528  39.941  11.956
27922W        W  248  37.466  14.219   1.934
27923W        W  249  41.315   5.233   2.730
27924W        W  250  33.424  10.374   2.827
27925W        W  251  10.374   6.208  13.446
27926W        W  252  29.636  43.020   4.354
27927W        W  253   0.931  10.810   3.757
27928W        W  254  27.465  12.718  10.429
27929W        W  255  24.158  44.293  13.931
27930W        W  256   9.757  22.068   3.833
27931W        W  257  10.654  10.259   3.757
27932W        W  258   0.316  16.790  14.021
27933W        W  259   1.394   5.760   4.637
27934W        W  260   9.799   4.282   4.826
27935W        W  261  32.923  29.548  13.918
27936W        W  262  35.970   5.809   0.479
27937W        W  263   4.869  38.933  12.545
27938W        W  264  22.663  11.254  13.377
27939W        W  265  16.606  14.191  14.297
27940W        W  266  35.871  16.796  12.519
27941W        W  267  23.005  36.843   5.727
27942W        W  268  27.989  26.146   5.112
27943W        W  269  31.980   9.708  11.022
27944W        W  270  35.383   1.443   4.717
27945W        W  271  24.506   1.827  13.323
27946W        W  272  43.009  43.918  10.137
27947W        W  273   8.709  15.189   0.951
27948W        W  274  21.136  23.668  14.992
27949W        W  275  39.352   9.204   2.891
27950W        W  276  30.021   7.723  10.434
27951W        W  277  17.203  23.094   1.884
27952W        W  278  29.551   7.216   2.396
27953W        W  279  40.869  42.354   2.811
27954W        W  280  39.841  31.004   3.309
27955W        W  281  44.966  37.897   1.737
27956W        W  282  18.270  39.536   1.243
27957W        W  283  18.608  25.627  12.341
27958W        W  284  21.209  34.012   2.668
27959W        W  285  16.775  18.598  10.498
27960W        W  286   6.268  34.375  13.526
27961W        W  287  35.031  39.544  11.565
27962W        W  288  32.073  18.582   1.845
27963W        W  289  26.565  10.703  11.990
27964W        W  290  39.043  38.878   1.354
27965W        W  291   2.804  40.834   3.693
27966W        W  292  11.213  25.107  11.943
27967W        W  293  23.217  44.330  11.022
27968W        W  294  26.601  20.051   3.800
27969W        W  295  27.509  43.949  11.108
27970W        W  296  21.103  36.038   2.674
27971W        W  297  28.010  39.926   0.859
27972W        W  298   3.304  14.640  13.877
27973W        W  299  40.987  38.326   0.257
27974W        W  300  31.617  24.136  13.809
27975W        W  301  32.620   4.940  13.364
27976W        W  302  17.097  29.967  13.334
27977W        W  303   8.785   6.748  14.343
27978W        W  304   7.694   1.900  13.928
27979W        W  305   7.695  25.101  11.098
27980W        W  306  29.507   8.332  11.050
27981W        W  307  43.375   4.815  13.974
27982W        W  308  26.113  42.894   4.335
27983W        W  309  15.757  14.807  10.952
27984W        W  310  25.610  11.849  11.994
27985W        W  311   9.854  43.978   4.776
27986W        W  312  23.045  24.205   3.632
27987W        W  313  34.081  30.909  11.589
27988W        W  314  29.442  33.455  14.302
27989W        W  315  10.253  11.319  13.533
27990W        W  316   5.328  23.723   4.766
27991W        W  317  41.396  36.539   2.282
27992W        W  318   7.886   8.207   2.402
27993W        W  319  39.436  27.011   0.819
27994W        W  320  35.581  22.037  14.331
27995W        W  321   8.703  27.174   4.126
27996W        W  322  20.255   8.691   1.749
27997W        W  323  28.573  16.076  14.403
27998W        W  324   5.814  41.807  13.397
27999W        W  325  27.973  38.028   4.763
28000W        W  326  33.468  36.403  14.937
28001W        W  327  38.976   5.829   2.833
28002W        W  328  38.998  32.519  11.526
28003W        W  329  44.444   3.745   3.779
28004W        W  330   1.810  29.538  11.079
28005W        W  331  37.401  19.633   2.348
28006W        W  332   4.360   6.353   1.799
28007W        W  333  34.037  33.995  11.051
28008W        W  334   1.745   3.232   2.395
28009W        W  335  19.183  33.562  10.490
28010W        W  336  42.841   1.749  11.417
28011W        W  337  15.663   2.930   3.244
28012W        W  338  28.506   5.910   3.332
28013W        W  339  26.477  18.650  13.472
28014W        W  340   3.367  29.031   0.819
28015W        W  341  27.121  29.657   4.827
28016W        W  342  41.292  29.139  11.571
28017W        W  343  34.032  44.393  10.463
28018W        W  344   8.678  37.358  11.449
28019W        W  345   3.375   6.309   4.676
28020W        W  346  30.130  10.295  13.852
28021W        W  347   9.763  28.556  11.606
28022W        W  348  40.934  11.679  12.879
28023W        W  349   8.236  20.032   0.871
28024W        W  350  39.385  42.799   1.884
28025W        W  351  23.116  44.399   1.407
28026W        W  352  23.240  19.607   0.803
28027W        W  353  19.594  29.153  10.605
28028W        W  354  28.675  37.422   0.287
28029W        W  355  33.616  12.781  10.482
28030W        W  356  38.900  40.419   1.845
28031W        W  357   4.722   7.242   4.751
28032W        W  358  39.526  28.616   4.347
28033W        W  359  18.229  34.072  12.552
28034W        W  360  16.207  12.346  10.577
28035W        W  361   5.395  15.253  12.415
28036W        W  362  17.622  34.073  11.583
28037W        W  363  22.624  31.456   3.160
28038W        W  364  35.467   2.439   3.744
28039W        W  365  14.618  24.650  12.080
28040W        W  366   1.902  23.655  12.026
28041W        W  367  13.120  40.457   4.788
28042W        W  368   9.803  34.396   3.682
28043W        W  369  22.054  44.807   0.405
28044W        W  370  34.548  13.601  12.459
28045W        W  371  24.000  24.512  10.532
28046W        W  372  37.535  38.038   2.870
28047W        W  373   9.764  41.536  10.595
28048W        W  374  14.725  34.451  11.980
28049W        W  375   9.345  33.999   2.377
28050W        W  376  36.012  13.760   2.828
28051W        W  377  13.756  27.050  10.893
28052W        W  378   5.819   4.737   4.826
28053W        W  379  33.896   6.222   2.268
28054W        W  380  37.553  43.814  12.517
28055W        W  381  23.549  32.557   2.788
28056W        W  382  20.581  27.174   4.121
28057W        W  383   9.662  13.351   3.760
28058W        W  384   2.422  39.476  14.333
28059W        W  385   1.461  43.019  13.419
28060W        W  386  17.695  13.665   2.388
28061W        W  387   9.836  15.293   2.888
28062W        W  388  24.072   5.402   3.355
28063W        W  389  43.854  37.881  11.044
28064W        W  390  31.148   3.894   2.390
28065W        W  391  28.071  43.459  14.809
28066W        W  392  37.535   7.259  14.830
28067W        W  393  27.472   6.249   0.257
28068W        W  394  39.479  41.505   3.310
28069W        W  395  31.442  34.508   0.307
28070W        W  396  10.303  32.425   3.328
28071W        W  397  41.898  41.431  10.580
28072W        W  398   1.942  24.725   1.390
28073W        W  399  25.608  16.227   0.377
28074W        W  400  31.911  38.391   1.444
28075W        W  401  12.293  28.963  12.093
28076W        W  402  26.991  34.964   2.222
28077W        W  403  28.634  16.780   0.421
28078W        W  404   6.691  24.720  10.497
28079W        W  405  25.566  41.388   3.821
28080W        W  406  43.007  10.839  11.509
28081W        W  407  21.552  40.539  14.357
28082W        W  408  20.170  42.465  12.557
28083W        W  409  32.101  25.634   0.845
28084W        W  410   7.671   3.456   4.642
28085W        W  411  29.052  31.581   3.306
28086W        W  412   3.257  41.026  11.990
28087W        W  413  24.669  31.089  11.435
28088W        W  414   9.373  25.126   2.687
28089W        W  415  35.374  10.321   4.114
28090W        W  416  22.640  10.335  12.346
28091W        W  417  17.281  33.484  12.368
28092W        W  418  11.690  24.572   9.564
28093W        W  419  26.053  30.106   1.434
28094W        W  420  29.969   1.877  11.429
28095W        W  421  34.517   6.387  12.832
28096W        W  422  28.937  39.002  14.512
28097W        W  423  36.929   3.771  12.559
28098W        W  424  11.336   0.288   3.256
28099W        W  425   4.701  34.082   4.748
28100W        W  426   9.839  38.952   3.834
28101W        W  427  23.489  29.122  11.041
28102W        W  428  19.655   6.418   4.333
28103W        W  429  29.070  38.834   1.285
28104W        W  430  16.290  22.102  12.851
28105W        W  431  25.034   8.249  11.399
28106W        W  432  21.215  33.953  12.857
28107W        W  433  40.488  36.878  12.486
28108W        W  434   8.388  12.349   2.823
28109W        W  435  33.009  11.144  10.596
28110W        W  436  11.167  30.487   0.966
28111W        W  437  28.590  35.043   2.702
28112W        W  438  24.221  21.213  10.461
28113W        W  439  40.507  12.343   1.435
28114W        W  440  41.476  36.876   4.224
28115W        W  441  31.011  44.326   5.161
28116W        W  442   4.228  24.230  14.372
28117W        W  443   8.792  31.643   0.727
28118W        W  444  17.128   5.365  10.030
28119W        W  445   0.254  35.363   3.841
28120W        W  446  40.039  20.040  13.055
28121W        W  447  36.990  32.026   2.262
28122W        W  448  18.790   0.985   1.852
28123W        W  449   8.682  34.446   1.347
28124W        W  450  41.861  17.658   1.288
28125W        W  451  43.464  15.734   0.937
28126W        W  452  41.965   4.944   4.312
28127W        W  453   8.656   9.270   0.297
28128W        W  454  21.532  19.686   4.330
28129W        W  455  42.286   0.985  14.354
28130W        W  456  41.470  42.461  10.548
28131W        W  457  10.212  39.444   0.869
28132W        W  458   0.336  43.382   1.917
28133W        W  459  12.263  28.146   0.862
28134W        W  460  33.061  36.995   2.312
28135W        W  461  40.470  38.372  10.956
28136W        W  462  16.159   1.969  13.432
28137W        W  463  14.782  23.112  14.366
28138W        W  464  21.705  30.451   1.759
28139W        W  465   9.889  37.415   0.433
28140W        W  466  42.464  36.070   0.244
28141W        W  467  33.007  34.070  12.912
28142W        W  468  28.676  24.056   3.737
28143W        W  469  22.702   5.216  13.533
28144W        W  470   2.791  32.967  10.514
28145W        W  471   1.332  19.654  12.576
28146W        W  472   4.764  44.342   4.288
28147W        W  473  40.921  26.468   2.352
28148W        W  474  29.429   2.745   2.806
28149W        W  475   3.840  36.558  14.414
28150W        W  476  22.030   9.194   1.894
28151W        W  477  33.059  34.931  12.927
28152W        W  478  19.220  17.584  14.851
28153W        W  479  33.434  17.712  12.050
28154W        W  480  16.714   5.851  13.947
28155W        W  481   7.360  37.582   3.192
28156W        W  482  11.133   3.410  11.043
28157W        W  483  17.618  43.359   4.145
28158W        W  484  16.230  12.342   2.182
28159W        W  485  26.516  37.831  12.967
28160W        W  486   8.664  31.013  13.355
28161W        W  487  12.835  21.162  11.535
28162W        W  488  32.988  14.290   2.794
28163W        W  489  26.013  44.865  13.497
28164W        W  490  42.446   7.795   2.352
28165W        W  491  22.130  26.084  12.022
28166W        W  492  17.069  13.138  13.531
28167W        W  493   9.768  43.776  11.438
28168W        W  494  24.192   4.277  11.033
28169W        W  495  23.170   5.392   3.384
28170W        W  496  28.575  19.230  11.579
28171W        W  497   6.233  22.605  13.502
28172W        W  498   7.183  29.528   3.669
28173W        W  499  23.601  16.663   0.366
28174W        W  500  38.008  14.137  11.096
28175W        W  501   8.816  31.424   1.425
28176W        W  502  44.863  33.499   9.969
28177W        W  503   3.740  43.829   0.932
28178W        W  504  14.752  22.565   1.726
28179W        W  505   6.260  18.677  10.483
28180W        W  506  24.074   2.326   3.259
28181W        W  507  38.955  13.683   1.928
28182W        W  508  33.538  34.884   2.767
28183W        W  509  13.207  34.916   2.225
28184W        W  510  33.530  18.571  10.972
28185W        W  511  32.007  35.969   4.722
28186W        W  512  30.160  32.978   2.198
28187W        W  513   4.936  41.497  12.995
28188W        W  514  17.140  24.698  12.489
28189W        W  515  23.045  15.672  13.391
28190W        W  516  20.151  12.836   2.733
28191W        W  517  40.366  30.451   4.729
28192W        W  518  28.120  33.622   1.847
28193W        W  519  20.243   6.357   3.283
28194W        W  520  42.871  22.514   0.872
28195W        W  521  40.516  44.793   4.348
28196W        W  522  44.787  17.221   4.275
28197W        W  523   8.185  34.444   3.264
28198W        W  524   7.765  19.577  13.372
28199W        W  525  20.087  41.819  10.992
28200W        W  526  14.171  16.700  11.860
28201W        W  527  13.287   8.249   4.197
28202W        W  528   8.345   7.186   3.345
28203W        W  529  30.983  39.391   3.242
28204W        W  530   0.968  23.507   0.777
28205W        W  531  10.693  12.711   4.216
28206W        W  532   0.348   6.425   0.951
28207W        W  533  19.219   6.897  13.473
28208W        W  534  32.476  31.626   4.133
28209W        W  535  35.908  20.161  13.942
28210W        W  536  16.639  36.060  11.028
28211W        W  537  18.743  13.840   2.407
28212W        W  538  39.450  33.503  13.476
28213W        W  539  21.553  16.283   0.771
28214W        W  540  14.166   1.754   3.303
28215W        W  541  41.535  19.636  14.978
28216W        W  542  35.465  13.734   1.293
28217W        W  543  40.877  12.783  10.476
28218W        W  544  14.680  29.490  11.478
28219W        W  545  20.088  40.480  11.543
28220W        W  546  35.949   0.348   4.632
28221W        W  547  31.495  28.074   2.832
28222W        W  548   0.304  12.691  14.942
28223W        W  549   6.745  39.036   0.369
28224W        W  550   9.188  25.543   2.854
28225W        W  551  36.986  38.013  12.938
28226W        W  552  28.023  25.582  13.522
28227W        W  553  44.804   7.297  11.948
28228W        W  554  37.384  13.346  11.999
28229W        W  555  43.925  23.727  14.493
28230W        W  556  40.408  25.583   0.447
28231W        W  557   4.859  22.203   3.760
28232W        W  558  25.006  43.504   3.341
28233W        W  559  16.769  17.770  14.350
28234W        W  560  13.201   5.285  14.949
28235W        W  561  13.791   8.196   0.450
28236W        W  562   9.332  21.640   1.815
28237W        W  563  25.207  33.512   3.226
28238W        W  564  15.104  42.794   4.754
28239W        W  565  14.116  26.978   2.867
28240W        W  566  39.354   2.384   4.176
28241W        W  567  44.801  30.489  13.900
28242W        W  568   8.378  14.654   0.832
28243W        W  569  19.275  36.469   4.140
28244W        W  570  34.435  35.853   5.123
28245W        W  571  25.593  32.609  14.904
28246W        W  572  35.889  15.222  14.508
28247W        W  573  26.554   1.366   5.291
28248W        W  574  41.494  26.566  11.472
28249W        W  575  25.059  38.882  11.110
28250W        W  576  20.056  24.024  12.031
28251W        W  577  43.348  26.637  12.361
28252W        W  578  33.899  24.020   2.792
28253W        W  579  35.570  32.405   9.928
28254W        W  580   2.835  16.286  11.975
28255W        W  581   2.923   3.344   3.339
28256W        W  582  28.149  22.160  13.323
28257W        W  583   0.844  15.765   9.984
28258W        W  584  23.603   0.916  13.540
28259W        W  585  16.655   8.841   2.398
28260W        W  586   3.267  12.282  11.572
28261W        W  587  22.094  23.990  10.636
28262W        W  588  34.448  22.542   1.310
28263W        W  589  44.951  38.457  11.873
28264W        W  590  18.584   4.372  11.450
28265W        W  591  18.689  23.722  13.975
28266W        W  592  26.951  38.901  14.379
28267W        W  593  32.398  17.646  13.924
28268W        W  594  21.662   2.303  10.477
28269W        W  595  43.410  20.741  14.000
28270W        W  596  33.621  42.323  10.489
28271W        W  597  27.189   0.381   4.700
28272W        W  598  22.196  41.393   4.769
28273W        W  599  23.074   8.319   0.963
28274W        W  600   4.762  30.538   5.279
28275W        W  601  27.946  31.641   4.288
28276W        W  602  29.431   2.350   4.196
28277W        W  603  23.661  23.539  10.924
28278W        W  604  31.073  29.110   4.700
28279W        W  605  42.987  35.398  13.485
28280W        W  606  24.189  36.065  13.342
28281W        W  607  43.811  32.408  11.059
28282W        W  608  12.347  44.498  14.478
28283W        W  609  26.962  34.902  13.358
28284W        W  610  28.957  24.675  11.001
28285W        W  611  37.500   6.786   0.782
28286W        W  612  33.073   6.869  14.932
28287W        W  613  13.625   1.445  11.902
28288W        W  614  19.147  31.917   4.230
28289W        W  615  31.943  27.566   1.269
28290W        W  616  22.103  36.035   0.836
28291W        W  617  23.166   6.221   3.653
28292W        W  618   5.404  12.780   4.254
28293W        W  619  22.998  20.573  13.444
28294W        W  620   9.864  25.100  14.847
28295W        W  621   2.289  38.569  11.016
28296W        W  622  10.713  26.687   2.224
28297W        W  623  10.381  29.961   3.870
28298W        W  624  27.058  40.337   3.700
28299W        W  625  18.752  41.839  11.419
28300W        W  626  34.487  24.673   2.885
28301W        W  627  11.633  31.028   3.362
28302W        W  628  31.040  27.637  11.475
28303W        W  629  15.321  40.858  12.475
28304W        W  630  17.756   0.927  12.947
28305W        W  631  12.677  19.582  13.805
28306W        W  632  39.427  26.156   4.767
28307W        W  633   1.288  28.958  12.097
28308W        W  634  26.664   5.931   1.434
28309W        W  635  16.797  22.215  13.807
28310W        W  636  20.545  12.350   1.774
28311W        W  637  26.137  36.976   0.777
28312W        W  638  30.009  13.329  12.562
28313W        W  639  27.114  44.986  12.573
28314W        W  640  23.067  25.155  13.980
28315W        W  641  39.865  30.562   1.755
28316W        W  642   6.822   1.402   4.136
28317W        W  643  19.139  26.574   1.722
28318W        W  644  31.079  41.528  14.836
28319W        W  645   3.905   8.865  11.482
28320W        W  646  36.369  24.218  14.290
28321W        W  647  36.049  25.643   3.716
28322W        W  648  32.003  38.957  11.447
28323W        W  649  15.760  29.456   4.322
28324W        W  650  32.556  11.773  12.427
28325W        W  651   7.754  19.742   0.746
28326W        W  652  12.324   9.274  13.911
28327W        W  653  31.031   5.336  13.373
28328W        W  654  34.073   4.820   1.338
28329W        W  655  37.438  13.123  10.584
28330W        W  656  34.926  39.320  14.372
28331W        W  657  36.077  31.415   4.775
28332W        W  658  41.020  14.209  11.882
28333W        W  659  15.206  41.374  14.027
28334W        W  660  34.080  44.327   2.870
28335W        W  661   2.725   3.927  12.089
28336W        W  662  17.113  14.267   2.706
28337W        W  663   3.416   4.941  14.798
28338W        W  664  16.765  44.465   1.886
28339W        W  665  33.966  39.853   4.199
28340W        W  666  27.500  26.573  10.115
28341W        W  667   7.215  41.938  10.932
28342W        W  668   2.769   3.423  10.520
28343W        W  669   3.795  30.424   5.090
28344W        W  670  40.434  44.455  10.987
28345W        W  671  39.509  27.505  12.416
28346W        W  672   4.779  41.491  10.422
28347W        W  673  26.145   3.803   1.822
28348W        W  674  34.050  34.876   1.921
28349W        W  675  42.785  39.316   2.751
28350W        W  676  12.343  22.603   1.409
28351W        W  677  32.518  16.777  12.926
28352W        W  678  13.668  28.133   1.857
28353W        W  679  44.866  43.961   0.427
28354W        W  680  15.087  11.648  10.550
28355W        W  681  34.429   6.814   4.294
28356W        W  682  43.317  33.888   1.445
28357W        W  683  37.986  31.520  13.893
28358W        W  684  34.984   5.195  10.896
28359W        W  685  36.070  17.293  12.949
28360W        W  686  14.330   3.356  14.020
28361W        W  687  38.504  43.369  14.919
28362W        W  688  43.345  25.568  13.520
28363W        W  689  31.631  10.732  10.936
28364W        W  690  35.056   3.743   0.386
28365W        W  691  10.680  11.683  14.419
28366W        W  692  23.221  28.934  13.482
28367W        W  693  34.610  33.434   1.764
28368W        W  694   7.757   3.391   2.814
28369W        W  695  35.953  19.744   2.396
28370W        W  696  36.071   3.803   2.279
28371W        W  697   6.832  12.663   0.383
28372W        W  698  16.262  39.552   4.653
28373W        W  699  12.194  40.902  12.957
28374W        W  700  14.770  10.761  10.429
28375W        W  701  15.606  39.829  12.875
28376W        W  702  15.103  26.683   0.857
28377W        W  703  16.212  23.240  10.404
28378W        W  704  34.613  19.649  10.502
28379W        W  705  16.259  12.713   4.703
28380W        W  706  31.034   6.863  12.457
28381W        W  707   7.245  33.883   0.814
28382W        W  708  18.270  18.609   4.690
28383W        W  709   0.342   6.801   0.451
28384W        W  710  10.672  26.505   0.467
28385W        W  711   7.273  11.347  11.479
28386W        W  712  25.205  31.572   4.173
28387W        W  713   0.280  17.591   0.300
28388W        W  714   2.937   0.742  13.537
28389W        W  715  40.513  17.616   3.316
28390W        W  716  26.522  43.450  10.576
28391W        W  717  43.281  37.052  12.027
28392W        W  718   7.910  37.941  10.548
28393W        W  719  38.854  32.409   1.754
28394W        W  720  25.036  15.244   4.338
28395W        W  721   8.700  21.087  13.049
28396W        W  722   4.375  33.597  13.545
28397W        W  723  32.044   5.389  11.944
28398W        W  724  26.203  33.409   2.678
28399W        W  725  39.970  36.369   1.917
28400W        W  726  38.999   5.726  11.054
28401W        W  727  33.616  26.602  14.815
28402W        W  728  29.552  42.996  12.558
28403W        W  729  36.841  21.689  13.839
28404W        W  730  40.038  16.230   3.234
28405W        W  731  19.185  38.981   0.781
28406W        W  732  22.054  24.129   0.836
28407W        W  733  35.931  13.789   2.395
28408W        W  734  31.108  43.952  12.458
28409W        W  735  35.542  20.694   3.290
28410W        W  736  24.557  20.029   1.353
28411W        W  737  25.672  34.517  10.446
28412W        W  738   1.782  17.216   2.339
28413W        W  739  33.104  30.964  14.926
28414W        W  740   9.307   5.730   4.647
28415W        W  741   4.931  44.827   0.818
28416W        W  742  12.265  18.789   2.268
28417W        W  743  43.928  37.962  10.545
28418W        W  744   9.305  22.113   3.815
28419W        W  745  42.956  34.379   2.390
28420W        W  746  23.627  15.184  11.488
28421W        W  747   3.868  40.359   3.680
28422W        W  748  18.131  24.636  11.867
28423W        W  749  33.080  26.652  13.380
28424W        W  750  18.143  35.949  13.061
28425W        W  751  15.681  19.231  12.905
28426W        W  752   5.233  33.385  10.527
28427W        W  753  16.267   1.454  11.547
28428W        W  754  10.253   7.194  11.934
28429W        W  755  33.546  39.872  11.392
28430W        W  756   9.350  20.593   1.353
28431W        W  757   9.806  21.710  12.569
28432W        W  758  41.851  40.934   4.793
28433W        W  759  25.161  15.778   0.733
28434W        W  760   4.944  30.431  10.427
28435W        W  761  16.272  40.325   4.320
28436W        W  762  42.457  32.943  13.909
28437W        W  763  18.206  28.024  13.938
28438W        W  764  31.092  16.679   3.296
28439W        W  765   8.730  43.770  12.892
28440W        W  766   9.333  23.544  11.565
28441W        W  767  35.451  44.933   1.841
28442W        W  768  40.803  21.572   4.653
28443W        W  769   2.814   1.820   4.305
28444W        W  770  10.198  31.447   4.249
28445W        W  771  42.415  41.933  12.828
28446W        W  772  13.347  44.340  13.544
28447W        W  773  40.339   5.277   4.622
28448W        W  774   8.360  33.477  13.880
28449W        W  775  22.640  37.458  13.334
28450W        W  776  40.533  18.275   2.404
28451W        W  777   8.383  28.497   0.461
28452W        W  778  28.035  20.108  14.479
28453W        W  779  23.162   9.366  10.627
28454W        W  780  38.968  28.663   0.902
28455W        W  781  23.629  43.366  10.426
28456W        W  782  39.360  30.440   4.171
28457W        W  783  21.197  41.823   4.786
28458W        W  784  38.340  19.595   3.155
28459W        W  785   0.333  23.492  10.559
28460W        W  786  11.231  14.719  14.411
28461W        W  787   9.294  33.906   1.922
28462W        W  788  27.056  24.716  11.022
28463W        W  789  35.902  32.914  12.469
28464W        W  790   9.393  44.392   1.335
28465W        W  791   8.654  16.680   4.145
28466W        W  792  38.039  19.273   1.411
28467W        W  793  23.562   5.301   2.179
28468W        W  794  15.676  10.194   1.805
28469W        W  795  23.733   6.418   1.265
28470W        W  796  21.714  36.064   2.864
28471W        W  797  33.454  38.507   1.753
28472W        W  798   1.433   0.948   2.410
28473W        W  799   6.806  42.932  12.445
28474W        W  800  41.465   8.669  13.794
28475W        W  801  18.562   2.792  12.450
28476W        W  802  22.621   4.413   2.390
28477W        W  803  32.461  40.859   4.332
28478W        W  804  38.511   5.297  12.890
28479W        W  805  21.526  32.459  13.059
28480W        W  806  16.255  33.424  12.381
28481W        W  807  43.844  37.011  12.857
28482W        W  808  25.495  39.457   1.883
28483W        W  809   4.765  44.944   3.692
28484W        W  810  19.247   9.842   0.325
28485W        W  811  18.569   8.711   3.770
28486W        W  812  38.423  25.593   1.776
28487W        W  813   1.317  33.888  13.869
28488W        W  814  19.129  41.387   1.857
28489W        W  815   7.373  30.556   1.364
28490W        W  816   4.312   9.266   0.272
28491W        W  817  13.710  14.205   4.257
28492W        W  818  36.021  32.398  11.527
28493W        W  819  36.076  33.577   4.771
28494W        W  820  38.054  23.724   4.310
28495W        W  821  21.098  13.752   4.210
28496W        W  822  14.615  10.278   0.754
28497W        W  823  27.676  43.341   2.730
28498W        W  824  40.020   9.658  12.005
28499W        W  825  23.157   4.422  14.280
28500W        W  826   6.350  23.010   9.955
28501W        W  827  40.040  30.612   3.363
28502W        W  828  20.625  17.713   2.290
28503W        W  829  25.629  21.258   3.789
28504W        W  830  17.104  12.669   3.688
28505W        W  831  22.683   7.327   0.440
28506W        W  832  43.911  39.448  10.573
28507W        W  833  11.278  19.046   2.362
28508W        W  834  42.484  11.361  14.366
28509W        W  835  26.679  44.895   0.472
28510W        W  836  10.269  31.564   2.857
28511W        W  837  28.643  10.248   3.785
28512W        W  838  23.142  31.467  13.454
28513W        W  839  20.536  17.264  11.392
28514W        W  840  39.957  19.197  13.897
28515W        W  841  33.591  37.845  12.422
28516W        W  842  37.535  25.525   2.391
28517W        W  843  28.503  41.788  14.935
28518W        W  844   5.429  26.952  12.343
28519W        W  845  14.712  40.020  14.842
28520W        W  846  16.150  11.765  14.471
28521W        W  847  39.540  16.185   1.434
28522W        W  848  14.232  30.081  14.422
28523W        W  849  43.902  42.334  12.083
28524W        W  850  37.549  33.036   1.795
28525W        W  851  40.341  25.567  13.327
28526W        W  852  31.428  40.852   0.262
28527W        W  853  38.520  18.188  11.986
28528W        W  854  37.937  35.431   3.755
28529W        W  855  30.502  17.211   4.633
28530W        W  856  22.568   3.886   0.402
28531W        W  857   3.281  27.000   3.236
28532W        W  858  15.628  32.489   3.798
28533W        W  859  14.684  38.833   0.750
28534W        W  860  24.973  15.767  14.762
28535W        W  861  29.995  15.167  12.527
28536W        W  862  31.073  32.394   2.382
28537W        W  863   9.752   8.794   2.687
28538W        W  864  11.155  31.558  14.498
28539W        W  865  14.718  29.101  14.777
28540W        W  866  34.047  16.639  10.443
28541W        W  867  22.213   3.881  11.986
28542W        W  868   3.941  24.527  10.929
28543W        W  869  35.575  30.591   2.898
28544W        W  870  20.617   5.916   1.790
28545W        W  871  23.547  39.826   5.322
28546W        W  872  24.060  44.978  11.045
28547W        W  873   6.704  14.685   0.903
28548W        W  874   1.916  22.014   0.852
28549W        W  875   7.251   4.908  14.368
28550W        W  876  30.975   2.958   1.291
28551W        W  877  44.942  37.943   1.235
28552W        W  878  21.714   8.675  11.374
28553W        W  879  30.593  19.166  13.311
28554W        W  880  15.253  16.610  14.008
28555W        W  881   8.278  35.011   0.324
28556W        W  882  26.158  27.111  11.974
28557W        W  883  18.692  34.999  10.428
28558W        W  884  38.338  11.365  11.609
28559W        W  885   4.805  19.066   1.891
28560W        W  886  19.729  20.109   0.251
28561W        W  887  25.210  37.854   2.665
28562W        W  888   7.774  16.777   2.744
28563W        W  889  14.726   0.458  13.014
28564W        W  890  42.923  32.468  14.412
28565W        W  891  17.678   9.218   0.441
28566W        W  892  10.828  31.115  13.997
28567W        W  893   2.472  41.352   1.791
28568W        W  894  44.776  30.978   3.327
28569W        W  895  21.213  27.002  11.999
28570W        W  896  20.189   2.272  13.349
28571W        W  897  32.087  44.286   0.333
28572W        W  898   4.382  30.570  13.959
28573W        W  899   0.264  25.103  12.046
28574W        W  900  10.719  14.832  11.037
28575W        W  901  16.652   1.810   4.214
28576W        W  902  43.430  35.071  11.855
28577W        W  903  24.595  32.607   3.750
28578W        W  904  37.371  33.069  10.628
28579W        W  905  35.977  10.341   1.259
28580W        W  906  22.563  37.412  10.492
28581W        W  907  20.568  32.951   4.615
28582W        W  908  13.799   9.725  11.433
28583W        W  909  18.259   2.325  12.351
28584W        W  910  39.947  27.011   3.632
28585W        W  911   3.381   3.723  13.481
28586W        W  912  33.037  30.993   1.786
28587W        W  913   3.843  27.061   2.207
28588W        W  914  40.845  25.488   0.752
28589W        W  915  33.967  34.413   5.086
28590W        W  916  44.925   1.380   1.352
28591W        W  917  36.925  22.605   3.870
28592W        W  918  23.566  13.699   1.306
28593W        W  919  24.099  40.506  12.529
28594W        W  920   2.316  20.554  14.290
28595W        W  921  24.043  10.836   3.173
28596W        W  922  27.148  27.536  10.435
28597W        W  923  29.169  37.075   4.623
28598W        W  924  25.139  16.741  10.420
28599W        W  925  42.955  30.149   2.310
28600W        W  926   9.359  36.422  11.884
28601W        W  927  19.735  25.544   2.832
28602W        W  928  19.206   4.715  11.520
28603W        W  929  40.051   7.895  11.387
28604W        W  930   4.340  34.589  12.532
28605W        W  931   4.798   2.720   2.347
28606W        W  932   4.405  32.408   3.333
28607W        W  933  14.726  13.333  10.472
28608W        W  934  12.788   7.906  12.483
28609W        W  935  22.085  34.021   2.704
28610W        W  936  42.424  26.573   1.255
28611W        W  937  30.655  42.960  12.900
28612W        W  938  28.503  36.015  12.898
28613W        W  939  35.003  24.588   4.339
28614W        W  940  43.840  17.179   0.863
28615W        W  941  39.975   4.384  11.414
28616W        W  942  33.575  13.620   4.676
28617W        W  943  38.516   9.365  12.481
28618W        W  944  40.979  23.217  14.911
28619W        W  945  36.372  23.708   4.624
28620W        W  946  28.110  13.263  11.061
28621W        W  947  29.638  31.626  12.482
28622W        W  948  39.382   0.976  14.438
28623W        W  949  42.465   2.254   1.381
28624W        W  950   8.708  19.726  14.876
28625W        W  951   0.865  15.636   3.756
28626W        W  952   2.301  22.504   0.377
28627W        W  953  11.181   0.759  14.352
28628W        W  954  40.405  25.196  13.541
28629W        W  955  37.473  41.467  11.389
28630W        W  956  27.556  14.281   2.249
28631W        W  957  35.377  15.634   3.371
28632W        W  958   0.294   4.446   3.728
28633W        W  959  30.506   5.892   1.238
28634W        W  960  27.461   7.204  11.884
28635W        W  961  30.574  34.529   2.882
28636W        W  962   2.360   8.714   4.165
28637W        W  963  41.991  21.257  10.082
28638W        W  964  40.533  27.016  10.533
28639W        W  965  41.847  27.152  11.866
28640W        W  966  36.557  42.835   1.776
28641W        W  967  24.980  17.173  10.634
28642W        W  968  10.802  28.647  10.491
28643W        W  969  34.100   7.209   5.175
28644W        W  970  40.967  35.401   1.873
28645W        W  971  34.452  19.653  14.921
28646W        W  972  20.592   6.293  13.354
28647W        W  973  31.635  25.561  10.508
28648W        W  974  13.799  32.080   1.381
28649W        W  975   3.803  27.581  13.542
28650W        W  976  38.566   5.726  10.936
28651W        W  977  30.640  38.469   3.282
28652W        W  978  22.619  39.511  14.299
28653W        W  979  15.135  42.966   3.812
28654W        W  980  10.726  28.133   0.939
28655W        W  981  29.069   9.765  14.474
28656W        W  982  33.566  26.554   1.812
28657W        W  983  35.428  23.097  12.905
28658W        W  984  35.060   3.269   3.252
28659W        W  985  33.535  36.046  13.406
28660W        W  986  39.924  31.948  11.859
28661W        W  987  40.822  29.542  13.341
28662W        W  988  29.443   4.890  14.854
28663W        W  989   6.194  36.441  12.070
28664W        W  990  14.200  29.546   4.301
28665W        W  991  25.165  26.572   2.415
28666W        W  992  29.951   5.430   1.816
28667W        W  993   4.340   5.729  12.960
28668W        W  994  18.691  37.938   2.273
28669W        W  995  24.559  31.634   2.362
28670W        W  996  13.329   5.342   1.449
28671W        W  997  39.346  18.601   2.849
28672W        W  998  23.097   9.846   4.709
28673W        W  999  32.560  24.677   4.730
28674W        W 1000   2.899  40.358   2.767
28675W        W 1001   2.816  19.547  11.931
28676W        W 1002  27.107  23.209   2.751
28677W        W 1003  42.451  28.499   3.765
28678W        W 1004   4.699   0.328   0.808
28679W        W 1005   3.260  27.484   2.858
28680W        W 1006   3.286  38.038  12.487
28681W        W 1007  15.594   9.711  14.459
28682W        W 1008  18.547  42.436  11.590
28683W        W 1009  10.312  43.509   0.742
28684W        W 1010  31.581   7.397  11.110
28685W        W 1011  17.112  36.488  13.029
28686W        W 1012  38.476   2.439   1.820
28687W        W 1013  34.606  20.159   2.852
28688W        W 1014  31.963   9.169  14.898
28689W        W 1015  15.267   6.222  14.984
28690W        W 1016  11.776  38.426  14.318
28691W        W 1017  44.817  43.343  10.946
28692W        W 1018  37.364  42.329  13.039
28693W        W 1019   9.877  28.561  14.806
28694W        W 1020  23.661  35.375   1.299
28695W        W 1021  34.495  17.275   4.791
28696W        W 1022  41.796   4.765  13.908
28697W        W 1023  13.121   9.238   4.245
28698W        W 1024  31.045  38.858   1.877
28699W        W 1025   3.869   9.190   0.822
28700W        W 1026  44.892  35.943  13.032
28701W        W 1027   5.809   2.228   4.687
28702W        W 1028   6.385  29.640  14.857
28703W        W 1029   1.362  31.434   0.743
28704W        W 1030  39.893   5.342   4.781
28705W        W 1031  41.506  15.267  12.918
28706W        W 1032  25.132   0.420  10.493
28707W        W 1033  13.790  16.583  10.899
28708W        W 1034   6.277  44.004   1.334
28709W        W 1035  17.219  32.027  11.877
28710W        W 1036  39.439  21.633   3.323
28711W        W 1037  42.330  38.545   2.213
28712W        W 1038  35.061  38.012  11.089
28713W        W 1039  33.471  28.169  14.277
28714W        W 1040   6.380  15.663  11.898
28715W        W 1041  13.770  26.104  10.638
28716W        W 1042  29.958  21.098  13.968
28717W        W 1043  14.302   2.901  12.557
28718W        W 1044   5.342  15.276   1.765
28719W        W 1045   7.709  22.015   4.651
28720W        W 1046  14.607   1.402   1.893
28721W        W 1047   0.358  27.547  11.922
28722W        W 1048   5.814   8.893   0.330
28723W        W 1049   3.755  12.618  12.859
28724W        W 1050  23.595   8.792  14.951
28725W        W 1051  27.130  31.085   4.286
28726W        W 1052  21.629  35.008   3.312
28727W        W 1053  32.086  10.826   3.377
28728W        W 1054   1.333  32.619   4.333
28729W        W 1055   0.837  40.450  12.530
28730W        W 1056   7.389  39.903   3.768
28731W        W 1057  43.769  32.971  10.460
28732W        W 1058   0.947  19.043   3.264
28733W        W 1059  30.658  10.652  11.961
28734W        W 1060  28.995   1.892  12.856
28735W        W 1061  21.624  22.634  14.965
28736W        W 1062   9.212  33.499   4.196
28737W        W 1063  13.198   4.412   3.332
28738W        W 1064   6.204  38.005  11.537
28739W        W 1065  31.129  36.092  10.404
28740W        W 1066  33.539   7.871   1.753
28741W        W 1067  34.074  17.245  10.434
28742W        W 1068  11.738   5.370   1.369
28743W        W 1069  30.607  10.695   4.284
28744W        W 1070   2.298  32.136  14.415
28745W        W 1071  30.474  19.778  13.884
28746W        W 1072  44.335  41.365  14.424
28747W        W 1073  29.979  12.655   4.789
28748W        W 1074  15.191  20.111   2.276
28749W        W 1075   4.406  14.229  11.475
28750W        W 1076  23.689  32.505  14.990
28751W        W 1077  30.089  23.700  13.999
28752W        W 1078  35.444  33.431   5.279
28753W        W 1079  43.829  22.560  14.012
28754W        W 1080  22.661  11.807  11.442
28755W        W 1081  22.091  35.005   3.698
28756W        W 1082  28.099  14.167  12.898
28757W        W 1083   3.765   0.410   1.921
28758W        W 1084   3.943  30.929  13.372
28759W        W 1085  41.894  39.064  12.985
28760W        W 1086  42.289  16.104   2.802
28761W        W 1087  26.682  33.953  10.606
28762W        W 1088   4.241  44.937   3.677
28763W        W 1089   0.917  32.094   2.215
28764W        W 1090  37.077   5.390  13.451
28765W        W 1091   0.877  12.809  11.073
28766W        W 1092  11.757  32.913  14.001
28767W        W 1093  25.001  41.453   0.857
28768W        W 1094   8.309  43.832  12.959
28769W        W 1095  19.093  40.853  11.574
28770W        W 1096  38.826  10.156   3.762
28771W        W 1097  40.852  18.590  11.551
28772W        W 1098  24.165  11.649   5.179
28773W        W 1099   6.272  14.752  14.928
28774W        W 1100  24.039   7.249  13.478
28775W        W 1101  22.085  39.380  10.927
28776W        W 1102  44.427   7.732   0.904
28777W        W 1103  20.058  30.535   1.244
28778W        W 1104  32.025  32.948   4.741
28779W        W 1105  15.638  30.935  11.609
28780W        W 1106  44.442  34.408   4.306
28781W        W 1107  32.005  10.339   2.894
28782W        W 1108   5.900  24.027   0.910
28783W        W 1109   2.377  15.086   1.403
28784W        W 1110  31.597  32.093  12.497
28785W        W 1111  19.534   3.936   3.387
28786W        W 1112  10.193  35.406   3.835
28787W        W 1113  31.066  43.446   3.223
28788W        W 1114  10.647   6.728   3.177
28789W        W 1115  38.363  13.803   1.917
28790W        W 1116  40.001   9.199   0.400
28791W        W 1117   0.915   9.758  14.770
28792W        W 1118  16.223  27.577  11.983
28793W        W 1119  23.502  18.059  10.459
28794W        W 1120  27.545   9.811  14.398
28795W        W 1121   8.279  33.928  12.841
28796W        W 1122  38.406   0.807   2.341
28797W        W 1123  16.590  38.968  11.896
28798W        W 1124  39.434   9.643   3.158
28799W        W 1125   7.741  27.483  14.834
28800W        W 1126  29.136  38.494   2.835
28801W        W 1127   4.916  42.901  11.061
28802W        W 1128  10.800  25.608  12.979
28803W        W 1129   7.880  40.018   2.744
28804W        W 1130  38.024  18.273   4.299
28805W        W 1131   0.333  10.683  10.455
28806W        W 1132  18.082  23.238  12.453
28807W        W 1133  29.587  43.935   2.274
28808W        W 1134  16.586  19.632  13.391
28809W        W 1135   8.685   2.259  13.881
28810W        W 1136  30.480  19.109  13.975
28811W        W 1137  17.760  42.982   0.947
28812W        W 1138  18.133  42.974   4.660
28813W        W 1139  17.216  42.974  12.398
28814W        W 1140  30.493   8.833  12.354
28815W        W 1141  41.444  12.336  13.795
28816W        W 1142  41.406  40.898  13.971
28817W        W 1143  23.124   0.856   2.331
28818W        W 1144   9.838  20.730   0.473
28819W        W 1145  21.666   7.709   1.793
28820W        W 1146   8.837   7.410   0.782
28821W        W 1147  22.672  15.765   3.216
28822W        W 1148  24.616  18.686  11.121
28823W        W 1149  12.836  23.204  12.501
28824W        W 1150  39.543   7.282  13.023
28825W        W 1151   5.241   0.289   1.801
28826W        W 1152  32.116  15.127  13.954
28827W        W 1153  22.100  23.138   1.238
28828W        W 1154   6.735   4.334  10.587
28829W        W 1155  14.675  23.103  11.939
28830W        W 1156  34.083   4.929   4.304
28831W        W 1157  24.667  39.522   0.432
28832W        W 1158  13.674  31.909  11.400
28833W        W 1159  16.746   4.316  14.027
28834W        W 1160  26.581  25.585  13.971
28835W        W 1161  24.555   5.786   3.779
28836W        W 1162  15.702  38.919  14.021
28837W        W 1163  16.646   4.346  12.362
28838W        W 1164  12.826   2.878  12.510
28839W        W 1165  32.114  43.875   4.792
28840W        W 1166  34.599  31.141  13.848
28841W        W 1167  36.494  31.631   0.367
28842W        W 1168   2.283  40.387   1.320
28843W        W 1169  25.032   6.861   3.639
28844W        W 1170  12.619  18.277  11.067
28845W        W 1171  30.993  31.536  10.998
28846W        W 1172   4.915  14.830  14.329
28847W        W 1173  16.236  23.576   2.845
28848W        W 1174  24.159   8.826   0.267
28849W        W 1175   5.928  30.093   2.278
28850W        W 1176  34.611  27.120   4.302
28851W        W 1177   7.218  14.820   5.198
28852W        W 1178  15.656  26.505  10.160
28853W        W 1179  19.251  17.567   3.634
28854W        W 1180   9.645  12.352  13.867
28855W        W 1181  15.206  31.975   1.305
28856W        W 1182  31.623  17.246  14.933
28857W        W 1183  21.576   7.696   3.652
28858W        W 1184  37.075  11.686   0.809
28859W        W 1185  24.616   2.422   2.315
28860W        W 1186  12.216  28.478  14.428
28861W        W 1187   9.680  16.187  14.870
28862W        W 1188  34.099  35.024  14.475
28863W        W 1189  32.612  24.484  14.906
28864W        W 1190  18.206   4.751  14.769
28865W        W 1191  43.407  15.116   0.409
28866W        W 1192  19.048  27.980  14.870
28867W        W 1193  24.134  20.658   2.856
28868W        W 1194  16.617  36.911  14.774
28869W        W 1195  14.179  14.703  13.406
28870W        W 1196   3.739  23.195   9.956
28871W        W 1197   8.727   5.864   0.829
28872W        W 1198  27.594  23.009   0.299
28873W        W 1199  10.706  28.048  12.556
28874W        W 1200   3.797  21.241   2.817
28875W        W 1201  19.630   3.910  12.534
28876W        W 1202  16.131   6.887  14.904
28877W        W 1203  15.245  26.082   0.253
28878W        W 1204  29.542  24.680   3.764
28879W        W 1205   4.854  44.857  10.618
28880W        W 1206   4.884  35.526  12.952
28881W        W 1207  40.518  30.952   0.828
28882W        W 1208   4.305   2.884   2.230
28883W        W 1209  21.546   0.303   4.181
28884W        W 1210   9.871  42.361   2.317
28885W        W 1211  10.312  24.708  13.031
28886W        W 1212   3.380   5.882   0.857
28887W        W 1213  42.359  14.318  11.478
28888W        W 1214   2.387  24.982  13.019
28889W        W 1215   7.192  36.862  13.493
28890W        W 1216   1.896   5.264  12.999
28891W        W 1217  40.846   5.714  12.566
28892W        W 1218  33.974  33.047   2.675
28893W        W 1219  35.427  29.048   0.341
28894W        W 1220  37.966   1.420  11.483
28895W        W 1221  37.868  31.510   1.889
28896W        W 1222  24.723   6.381  12.869
28897W        W 1223  26.563  34.571  12.000
28898W        W 1224  31.630   4.409   4.238
28899W        W 1225   7.781  17.649   4.816
28900W        W 1226   3.823   9.799  11.581
28901W        W 1227  43.827   4.773   4.705
28902W        W 1228  22.041  41.362  11.422
28903W        W 1229  10.332  25.492  12.565
28904W        W 1230  31.537  16.805  11.399
28905W        W 1231  14.802  41.335   9.957
28906W        W 1232  17.237  26.100  12.528
28907W        W 1233  29.571  43.934   0.422
28908W        W 1234  21.256  10.769   4.766
28909W        W 1235   6.726  30.533  11.493
28910W        W 1236   4.878  22.029   3.349
28911W        W 1237  27.128  19.277  14.886
28912W        W 1238  22.193   0.488  12.981
28913W        W 1239   4.335  37.495   2.419
28914W        W 1240   4.792  21.715   0.454
28915W        W 1241  33.581  16.619   4.148
28916W        W 1242  31.425  41.906  14.374
28917W        W 1243  31.114   3.391   1.856
28918W        W 1244  12.271  23.141   1.235
28919W        W 1245   9.197  33.055   2.813
28920W        W 1246  33.899  41.883   2.860
28921W        W 1247  18.661  17.239   0.926
28922W        W 1248   0.308   5.347  12.405
28923W        W 1249  17.679  18.599  13.917
28924W        W 1250  42.025  22.175  12.982
28925W        W 1251  20.708   5.801   3.199
28926W        W 1252  33.507  21.158   0.894
28927W        W 1253   5.395  29.158  12.836
28928W        W 1254  31.527  13.183  11.548
28929W        W 1255  44.426  41.533   1.428
28930W        W 1256   6.765  27.649  14.781
28931W        W 1257  32.013  18.686  14.284
28932W        W 1258  36.472  34.420   4.649
28933W        W 1259  17.705  32.573   2.838
28934W        W 1260  18.250   1.763   2.271
28935W        W 1261   9.834   4.815  11.524
28936W        W 1262  44.962  17.567   3.798
28937W        W 1263  14.763  34.014  10.019
28938W        W 1264  44.266   0.962  14.902
28939W        W 1265  19.203  34.477  14.989
28940W        W 1266  39.893  40.975  12.546
28941W        W 1267  25.036  36.084   0.424
28942W        W 1268  34.032  19.739  10.990
28943W        W 1269  34.425  14.249  12.930
28944W        W 1270  39.404  37.047   4.600
28945W        W 1271   2.427  31.964  10.546
28946W        W 1272  35.946  18.258   1.214
28947W        W 1273  33.404  30.505  11.459
28948W        W 1274  17.567  12.614  12.477
28949W        W 1275   3.337   8.272  12.019
28950W        W 1276  29.591  41.398  11.497
28951W        W 1277  43.500  33.581   9.988
28952W        W 1278  37.897  21.545  14.335
28953W        W 1279  18.601   3.403  14.916
28954W        W 1280   4.836  32.493  12.956
28955W        W 1281  28.054  28.158  11.996
28956W        W 1282  13.787  43.450  14.873
28957W        W 1283  44.973   7.910  13.911
28958W        W 1284  27.525   6.686   2.849
28959W        W 1285   6.877  44.981   3.672
28960W        W 1286  41.031  17.079  10.521
28961W        W 1287   2.387  15.128   0.893
28962W        W 1288  28.058  23.608  11.078
28963W        W 1289  43.341  31.629   2.415
28964W        W 1290  30.613   8.901   3.824
28965W        W 1291  28.038  42.367   1.774
28966W        W 1292  34.518  35.370   4.187
28967W        W 1293   8.218  11.261  11.535
28968W        W 1294  22.509  14.165  13.971
28969W        W 1295   8.705  22.015   4.714
28970W        W 1296  17.629  20.146  14.300
28971W        W 1297  15.814  43.410  13.849
28972W        W 1298  36.865   6.347   2.369
28973W        W 1299   5.799  43.887  12.906
28974W        W 1300  40.335  39.405   4.616
28975W        W 1301  13.816  21.244   9.959
28976W        W 1302  21.666  24.147   0.937
28977W        W 1303  12.769  20.621   1.933
28978W        W 1304  24.703  21.130   2.713
28979W        W 1305   2.964   5.348  12.823
28980W        W 1306  11.216   7.809   1.342
28981W        W 1307  39.361   7.288   4.157
28982W        W 1308  19.640   1.921  12.344
28983W        W 1309  17.762  24.148  14.413
28984W        W 1310  16.780  13.764  14.781
28985W        W 1311   1.416  41.987   3.724
28986W        W 1312   5.737  21.646   2.328
28987W        W 1313  34.373   8.398   4.260
28988W        W 1314  32.117   9.366   0.812
28989W        W 1315  15.260  22.729  11.988
28990W        W 1316  31.108  25.555   3.286
28991W        W 1317  22.666  25.122  10.105
28992W        W 1318  24.639  30.616  13.401
28993W        W 1319  17.174  22.733   1.801
28994W        W 1320  31.005  25.011  13.936
28995W        W 1321   8.301  33.950   4.803
28996W        W 1322   7.269  35.498   3.675
28997W        W 1323  41.531  37.956  13.966
28998W        W 1324  28.041  33.893   4.821
28999W        W 1325  44.972  26.557  12.375
29000W        W 1326   5.210  17.209  12.092
29001W        W 1327  26.543  17.236   1.234
29002W        W 1328   2.456   9.664  10.941
29003W        W 1329  25.671  15.741   2.695
29004W        W 1330  15.689  23.653   4.628
29005W        W 1331  29.515  21.577   3.717
29006W        W 1332  16.797  29.544  14.993
29007W        W 1333   1.883  42.516  11.975
29008W        W 1334  30.546   0.294   0.777
29009W        W 1335  10.828  35.936  13.357
29010W        W 1336   1.813  33.424  14.989
29011W        W 1337   1.866  21.592  13.000
29012W        W 1338  37.046  19.740  11.500
29013W        W 1339  24.533  11.693  14.946
29014W        W 1340   8.722  11.371  10.512
29015W        W 1341  20.029  23.035   1.342
29016W        W 1342  16.724  34.886   3.147
29017W        W 1343  22.569   9.190   2.702
29018W        W 1344  18.238  31.482   0.311
29019W        W 1345  38.034  16.117   1.215
29020W        W 1346   2.843  15.775  12.575
29021W        W 1347  29.491  30.925   1.377
29022W        W 1348  11.791  26.005  14.464
29023W        W 1349  36.053  30.531  13.375
29024W        W 1350   0.442   8.203   2.836
29025W        W 1351   3.408   1.797  12.978
29026W        W 1352  37.053  35.421   9.658
29027W        W 1353  30.435   7.781   1.837
29028W        W 1354  20.123  12.650   1.451
29029W        W 1355   1.400  34.496   4.802
29030W        W 1356   2.449  36.850  13.800
29031W        W 1357  11.842  22.097   1.358
29032W        W 1358  24.229  31.962  14.017
29033W        W 1359  25.496  12.745   0.909
29034W        W 1360  30.605  17.562  12.442
29035W        W 1361   2.437  41.487  11.933
29036W        W 1362  25.546  14.296   4.616
29037W        W 1363  22.549  18.203  11.547
29038W        W 1364  29.443  24.722  10.453
29039W        W 1365  23.533   9.390   3.242
29040W        W 1366  31.455   3.904   4.656
29041W        W 1367  43.791  31.066   3.377
29042W        W 1368   2.409   5.704  12.355
29043W        W 1369   0.446  43.806  12.581
29044W        W 1370  27.955  39.987  11.932
29045W        W 1371  21.176  16.630  11.931
29046W        W 1372   0.910  15.669   1.775
29047W        W 1373  32.467  40.525  13.866
29048W        W 1374  43.869  38.892   2.708
29049W        W 1375  21.116   1.759   1.701
29050W        W 1376  35.861  43.873   0.357
29051W        W 1377  29.530  29.096  14.373
29052W        W 1378  19.182   3.925   0.950
29053W        W 1379  35.931  41.492  10.591
29054W        W 1380  30.530  36.898   0.944
29055W        W 1381  41.019  16.126  14.469
29056W        W 1382   6.856  21.071   2.794
29057W        W 1383   4.389  15.671   0.423
29058W        W 1384   5.870   9.707   1.875
29059W        W 1385  43.469  12.229   3.815
29060W        W 1386  11.330  22.234  14.874
29061W        W 1387  26.470  28.161   1.909
29062W        W 1388  37.004  23.013  10.623
29063W        W 1389   1.280  41.967   0.270
29064W        W 1390  34.529  14.700  13.016
29065W        W 1391  37.950  13.812  11.909
29066W        W 1392  23.589   5.209  14.008
29067W        W 1393  16.224  17.778   3.676
29068W        W 1394  13.213  27.666   4.602
29069W        W 1395   0.304  23.228  14.856
29070W        W 1396  20.218   1.793  13.351
29071W        W 1397  28.050  16.103  11.993
29072W        W 1398  28.669  22.113  13.922
29073W        W 1399  11.243  34.024   1.264
29074W        W 1400  37.878  14.236  13.962
29075W        W 1401  34.612  17.132  14.881
29076W        W 1402  28.520  30.578  12.876
29077W        W 1403  44.272  19.552  14.019
29078W        W 1404  21.198  24.046   0.859
29079W        W 1405  26.561   9.878   3.219
29080W        W 1406   1.956  19.198  14.503
29081W        W 1407  31.616   4.912   4.249
29082W        W 1408  27.563  10.868  12.533
29083W        W 1409  10.235  12.831   4.635
29084W        W 1410  40.373  42.476  14.283
29085W        W 1411  11.192  13.270   4.778
29086W        W 1412   7.273  29.645  10.595
29087W        W 1413   6.219  14.296  10.414
29088W        W 1414   0.988  31.905  14.455
29089W        W 1415  16.203  10.374  11.426
29090W        W 1416   3.742  19.176   3.740
29091W        W 1417  44.795   0.825   2.200
29092W        W 1418   1.277  30.081   0.250
29093W        W 1419   1.775  42.962   0.835
29094W        W 1420  19.165   7.668   3.787
29095W        W 1421  32.519   0.755   2.265
29096W        W 1422  36.561  15.757   0.248
29097W        W 1423  42.946  15.189   1.824
29098W        W 1424  27.941   2.429   2.726
29099W        W 1425  26.201   0.279  13.417
29100W        W 1426  33.993  41.999  11.436
29101W        W 1427   2.234  25.183  12.096
29102W        W 1428  42.285  31.137  10.416
29103W        W 1429   0.444  15.661   2.257
29104W        W 1430  12.337  24.024  13.501
29105W        W 1431  31.626  22.218  13.053
29106W        W 1432   5.689  15.718  11.411
29107W        W 1433  31.931  38.904   4.143
29108W        W 1434  34.612  27.163  13.989
29109W        W 1435  32.060   3.885  11.597
29110W        W 1436   4.321  24.611   1.437
29111W        W 1437   2.955  16.582  11.438
29112W        W 1438  15.219   6.230  11.965
29113W        W 1439   6.691   7.816  11.483
29114W        W 1440  28.081   7.254  11.093
29115W        W 1441  34.036   1.410  13.508
29116W        W 1442   2.321  37.963   1.935
29117W        W 1443  32.064   2.757  14.839
29118W        W 1444  30.598  13.139  11.933
29119W        W 1445  39.963  23.234   0.868
29120W        W 1446  20.612  24.599  13.972
29121W        W 1447  14.690  18.597   0.272
29122W        W 1448  25.130   9.750   4.153
29123W        W 1449  26.686  39.519  10.430
29124W        W 1450  39.322  38.480   4.724
29125W        W 1451  24.518  30.148  12.989
29126W        W 1452  42.430   9.665  10.427
29127W        W 1453  26.030  25.163  11.901
29128W        W 1454  26.617  13.347  12.577
29129W        W 1455   9.776  41.038   0.433
29130W        W 1456   2.826  22.693   3.794
29131W        W 1457  26.113  32.133  12.827
29132W        W 1458   0.327  22.727  14.506
29133W        W 1459  17.731   6.753  12.024
29134W        W 1460   3.824  13.663   1.306
29135W        W 1461  36.869  33.958   5.292
29136W        W 1462   5.405  40.503   3.361
29137W        W 1463  23.235  23.117  14.392
29138W        W 1464  27.538  39.829   1.722
29139W        W 1465  41.442  23.736   0.885
29140W        W 1466  27.675  43.827  11.412
29141W        W 1467  15.623   0.331   2.838
29142W        W 1468  21.655  36.980  11.931
29143W        W 1469   1.756  28.452   3.792
29144W        W 1470   7.340  12.299  13.870
29145W        W 1471   2.871  36.841   0.878
29146W        W 1472  40.833  34.052  12.088
29147W        W 1473  27.971   5.434   2.855
29148W        W 1474  39.350   5.864   2.409
29149W        W 1475  19.630   9.197   0.466
29150W        W 1476   6.261  34.942  13.447
29151W        W 1477  38.853  32.105   3.818
29152W        W 1478   2.854  41.938  13.894
29153W        W 1479  30.444  30.657   3.749
29154W        W 1480  36.511  37.029  11.074
29155W        W 1481  43.504   0.861  12.555
29156W        W 1482  39.355  27.042   4.308
29157W        W 1483  43.837   1.868  14.834
29158W        W 1484  44.298   0.806  12.844
29159W        W 1485  34.982   6.779   1.891
29160W        W 1486  25.120  13.811  14.412
29161W        W 1487  19.152  21.085   4.299
29162W        W 1488  26.952   3.368  10.626
29163W        W 1489   2.793  20.564  13.508
29164W        W 1490  37.895   6.290   4.660
29165W        W 1491   0.493  43.999   3.812
29166W        W 1492   3.242  34.581  13.338
29167W        W 1493  18.769  14.132   9.932
29168W        W 1494   9.741  29.128   3.346
29169W        W 1495  19.218  10.830  13.896
29170W        W 1496  26.650   3.266  13.919
29171W        W 1497  25.202  15.152   3.168
29172W        W 1498   2.317  27.123   2.186
29173W        W 1499  42.964   5.689  11.073
29174W        W 1500  28.064  38.893  14.918
29175W        W 1501  40.875  16.670   3.306
29176W        W 1502  16.273   6.777   1.847
29177W        W 1503  19.256  38.964   1.345
29178W        W 1504  23.108  37.491   1.750
29179W        W 1505  36.550  43.017   3.365
29180W        W 1506  36.351  43.320   3.357
29181W        W 1507  21.252  18.087  11.011
29182W        W 1508   5.310  28.184   2.767
29183W        W 1509  14.598  16.681  14.915
29184W        W 1510  12.360  42.496  13.371
29185W        W 1511  23.067  35.559  10.972
29186W        W 1512  30.018  29.958   4.834
29187W        W 1513  13.224  34.374   4.636
29188W        W 1514   2.831  17.090   3.788
29189W        W 1515  29.501  38.334  10.487
29190W        W 1516  25.142  11.303   4.707
29191W        W 1517  25.468  30.610  10.546
29192W        W 1518  29.958   8.716   4.757
29193W        W 1519  25.988  37.397  13.432
29194W        W 1520  16.775  19.107   4.134
29195W        W 1521   0.442   3.459  13.343
29196W        W 1522  43.297  39.539   4.308
29197W        W 1523  13.239  18.612   2.401
29198W        W 1524  10.834  38.565  11.532
29199W        W 1525  22.123  23.215   3.184
29200W        W 1526  22.681  36.091  12.520
29201W        W 1527  35.514   1.890  10.975
29202W        W 1528  29.982  10.187  14.392
29203W        W 1529  42.003  39.000  13.431
29204W        W 1530   1.388  36.040  13.970
29205W        W 1531  43.950  15.211   1.818
29206W        W 1532  11.657   1.262  12.086
29207W        W 1533   0.299  44.430  12.427
29208W        W 1534  40.041  23.086  12.823
29209W        W 1535   5.346  38.455  14.422
29210W        W 1536  25.055  18.590   1.432
29211W        W 1537  17.740  35.488   1.882
29212W        W 1538   7.242  19.685   1.412
29213W        W 1539  35.476  14.677   0.916
29214W        W 1540   4.440  33.960   4.173
29215W        W 1541  44.010  14.741  12.537
29216W        W 1542  36.501  44.977   0.333
29217W        W 1543  38.354  29.612  12.548
29218W        W 1544  34.451  16.114   4.614
29219W        W 1545  17.681   0.984   2.400
29220W        W 1546  26.532  19.219  13.821
29221W        W 1547  24.502  35.947   4.247
29222W        W 1548  42.982  13.684   0.336
29223W        W 1549   8.321  32.002   3.811
29224W        W 1550  14.711  42.022  12.365
29225W        W 1551   4.834  24.094   0.757
29226W        W 1552   3.934   1.440  11.915
29227W        W 1553  37.892  37.904   2.746
29228W        W 1554  22.703   3.438   2.307
29229W        W 1555   5.928   0.911   1.270
29230W        W 1556   0.808  40.018   2.375
29231W        W 1557  29.461  17.114   4.339
29232W        W 1558  24.551  36.905   3.313
29233W        W 1559  29.969  37.064   0.963
29234W        W 1560  40.440  37.074   0.730
29235W        W 1561   5.437  13.770  10.581
29236W        W 1562  10.687   0.300   2.689
29237W        W 1563  35.888   1.409  11.603
29238W        W 1564   3.331  39.451   3.825
29239W        W 1565  23.048  27.148   2.309
29240W        W 1566  32.617  26.121   1.767
29241W        W 1567  10.369  11.363  10.955
29242W        W 1568  42.464  29.990  14.430
29243W        W 1569  24.682  25.642   1.811
29244W        W 1570  12.673  14.095   2.844
29245W        W 1571  22.214  12.852   3.681
29246W        W 1572  38.445  36.951  14.974
29247W        W 1573  38.386   9.291   3.248
29248W        W 1574  26.573  27.975  13.535
29249W        W 1575  15.684  29.459  14.974
29250W        W 1576  25.053   2.346   0.404
29251W        W 1577  22.662  13.628  12.857
29252W        W 1578  20.638  23.540   3.776
29253W        W 1579   1.337  31.470   4.816
29254W        W 1580  15.315  31.483  12.378
29255W        W 1581  43.482  22.715   3.661
29256W        W 1582   6.850  33.570   1.304
29257W        W 1583  24.975  31.564  11.379
29258W        W 1584  44.316  24.573  14.980
29259W        W 1585  24.682  25.617  10.887
29260W        W 1586  40.862  18.073   3.738
29261W        W 1587  25.112  33.623  14.976
29262W        W 1588  28.148   2.358   3.863
29263W        W 1589  18.546  42.387  12.837
29264W        W 1590  17.606   2.399   2.322
29265W        W 1591   7.311  29.065   2.274
29266W        W 1592  13.286  34.923   9.956
29267W        W 1593  21.568  14.781  11.057
29268W        W 1594  25.512  33.886   3.257
29269W        W 1595  41.870  23.608  11.580
29270W        W 1596  14.647  42.842  12.342
29271W        W 1597  38.403  27.086  14.890
29272W        W 1598  33.601  31.114  14.457
29273W        W 1599  21.048  22.068   0.282
29274W        W 1600  12.724  33.519  14.864
29275W        W 1601  25.024  25.643   5.184
29276W        W 1602  39.358  11.630   2.818
29277W        W 1603  42.355   8.792   2.901
29278W        W 1604  16.754  30.622   1.395
29279W        W 1605  36.429  35.586  10.980
29280W        W 1606  10.823  41.436  12.024
29281W        W 1607  39.941   3.383  13.804
29282W        W 1608  34.389  27.601   0.451
29283W        W 1609  39.831   1.922  12.398
29284W        W 1610  37.439  43.502  12.863
29285W        W 1611  44.983  23.105  11.468
29286W        W 1612  28.139  27.458  13.540
29287W        W 1613  15.237  35.392   2.779
29288W        W 1614  13.266   8.240   3.713
29289W        W 1615   5.855  39.342   0.439
29290W        W 1616  27.126  24.496   2.372
29291W        W 1617  27.967  35.064   5.262
29292W        W 1618  28.598   3.341   1.834
29293W        W 1619  39.921  18.204  12.979
29294W        W 1620  29.594  32.525  10.999
29295W        W 1621   8.833  33.113  13.792
29296W        W 1622  28.995  36.008   3.829
29297W        W 1623  39.028   7.876   2.301
29298W        W 1624  32.462  38.564  14.319
29299W        W 1625   5.740  40.544   1.415
29300W        W 1626  20.648  10.202  12.418
29301W        W 1627  30.618   2.941  13.509
29302W        W 1628   6.702  40.018  13.515
29303W        W 1629  26.609  12.179   1.742
29304W        W 1630  25.999  44.936   3.846
29305W        W 1631  36.017  31.143   2.316
29306W        W 1632  33.074   1.454  10.983
29307W        W 1633  23.672   4.218   3.209
29308W        W 1634  33.119  21.233   1.309
29309W        W 1635  44.295  11.274   0.730
29310W        W 1636  11.154  24.551   5.615
29311W        W 1637  31.531  26.690  13.353
29312W        W 1638  28.492  28.960   2.900
29313W        W 1639  25.161  30.959   2.829
29314W        W 1640  15.722  43.507   3.266
29315W        W 1641  12.213  32.441   4.141
29316W        W 1642  44.448  39.512  14.400
29317W        W 1643  23.988   4.407  11.441
29318W        W 1644  34.995  19.174  14.325
29319W        W 1645  30.528  31.063  10.443
29320W        W 1646   8.704  19.735  10.965
29321W        W 1647   4.764  35.519   2.214
29322W        W 1648   0.253   8.201   0.343
29323W        W 1649  38.990  29.957   2.756
29324W        W 1650  34.096   7.769   0.330
29325W        W 1651   6.700  15.324  11.404
29326W        W 1652  12.344  20.542  14.948
29327W        W 1653  43.451  40.953  14.804
29328W        W 1654  27.564  33.082  10.998
29329W        W 1655   8.824  17.280  14.983
29330W        W 1656  40.889   6.887  10.581
29331W        W 1657  38.428  27.071  14.498
29332W        W 1658  41.405   3.859   1.420
29333W        W 1659  34.455   9.842  13.963
29334W        W 1660   4.350  11.844   1.442
29335W        W 1661  38.429  13.346   3.761
29336W        W 1662  12.328  40.014  12.955
29337W        W 1663  29.171  31.511  14.853
29338W        W 1664  35.509  20.602  11.120
29339W        W 1665  11.285  28.534   1.838
29340W        W 1666  19.588  42.838  11.580
29341W        W 1667   9.231   1.283   4.150
29342W        W 1668  33.078  27.194  12.419
29343W        W 1669  35.582  25.548  12.936
29344W        W 1670  28.099   4.204  13.843
29345W        W 1671  33.566   9.860  14.003
29346W        W 1672  22.556  33.408  12.869
29347W        W 1673  11.827  23.995   2.897
29348W        W 1674  26.095  37.568   2.789
29349W        W 1675  16.617   2.913  14.395
29350W        W 1676  13.679  17.156  10.403
29351W        W 1677  20.185  24.605  11.456
29352W        W 1678  36.428   7.323   3.861
29353W        W 1679  40.030  30.920  11.609
29354W        W 1680  39.919  14.718   4.727
29355W        W 1681  38.520  24.128  12.578
29356W        W 1682  15.725   5.416   0.964
29357W        W 1683  29.976  24.518   3.241
29358W        W 1684  23.688  21.597  11.125
29359W        W 1685  28.970  39.376  13.994
29360W        W 1686   3.221  21.515   1.799
29361W        W 1687  18.608  21.601   1.391
29362W        W 1688  36.502  24.482   1.918
29363W        W 1689   1.384  30.970  14.954
29364W        W 1690  23.709  22.700  13.907
29365W        W 1691  34.432  28.605  12.499
29366W        W 1692  13.114  43.847   3.337
29367W        W 1693  11.753  30.644  10.160
29368W        W 1694  11.830  11.651   3.660
29369W        W 1695  30.581  41.854   2.738
29370W        W 1696   4.304  16.777  11.895
29371W        W 1697  40.548  20.565   1.330
29372W        W 1698   7.815  35.385   3.746
29373W        W 1699  24.197  40.313   0.823
29374W        W 1700  22.216  20.690  11.399
29375W        W 1701  21.717  41.004   4.124
29376W        W 1702   0.494   4.256  10.527
29377W        W 1703   9.329  42.419   3.330
29378W        W 1704  16.103  17.255  10.984
29379W        W 1705  43.318  18.231  14.890
29380W        W 1706  29.992  22.533   0.963
29381W        W 1707  40.862  43.484   3.710
29382W        W 1708  31.552   8.356  14.385
29383W        W 1709  42.786  11.188  12.971
29384W        W 1710  42.351   1.835  13.547
29385W        W 1711   5.329  30.460  14.347
29386W        W 1712  19.149   7.238  10.933
29387W        W 1713  26.971  26.031   5.657
29388W        W 1714   7.292  14.668  11.892
29389W        W 1715   7.219   6.769   0.400
29390W        W 1716  34.022  41.927  14.964
29391W        W 1717  14.689   7.265   3.342
29392W        W 1718  19.094  23.100   4.162
29393W        W 1719  34.077  25.149   1.892
29394W        W 1720   6.313  41.792   5.222
29395W        W 1721  23.048  18.697   3.311
29396W        W 1722  14.738  31.423  13.324
29397W        W 1723   0.482  16.731   1.420
29398W        W 1724  13.209  10.334   5.147
29399W        W 1725  23.492  26.133  13.874
29400W        W 1726  40.454  41.989   3.174
29401W        W 1727  24.541  37.391  10.924
29402W        W 1728  11.819  10.653   4.351
29403W        W 1729  12.804  32.954   1.898
29404W        W 1730  24.990  34.525  13.833
29405W        W 1731  36.556  29.126  10.989
29406W        W 1732  10.635   8.744   4.155
29407W        W 1733   1.368   9.265  11.876
29408W        W 1734  32.041  37.909   0.786
29409W        W 1735  39.056  13.113  13.470
29410W        W 1736  25.027  28.435   4.628
29411W        W 1737  19.266  37.029  12.002
29412W        W 1738  35.384   0.799   1.391
29413W        W 1739  12.740  11.213   0.828
29414W        W 1740  37.838  39.325  13.028
29415W        W 1741   8.324  25.469   4.674
29416W        W 1742  40.465  14.315   1.808
29417W        W 1743  19.098   0.397   1.315
29418W        W 1744  43.799   9.197   3.777
29419W        W 1745   8.884  11.724  11.573
29420W        W 1746  38.851  16.571  13.543
29421W        W 1747  16.810  29.989   1.316
29422W        W 1748  19.118  11.791  11.970
29423W        W 1749  40.344   6.721   4.234
29424W        W 1750  23.073  44.270   4.820
29425W        W 1751  19.174  24.667   1.884
29426W        W 1752   7.694  42.977  14.927
29427W        W 1753  13.274  22.183   1.931
29428W        W 1754  27.142  11.773  12.909
29429W        W 1755  40.476  15.614   4.755
29430W        W 1756  41.802   9.283  12.434
29431W        W 1757  15.239   7.788   0.880
29432W        W 1758  24.063   0.262  14.788
29433W        W 1759  17.214  15.256  12.940
29434W        W 1760  41.372  23.641   2.180
29435W        W 1761   0.282  32.003   1.796
29436W        W 1762  32.894   5.429  14.913
29437W        W 1763  27.494   7.362   0.745
29438W        W 1764  44.911  33.430  12.840
29439W        W 1765  17.173  19.147  10.161
29440W        W 1766  12.621  25.692   2.900
29441W        W 1767  27.137  40.448  13.843
29442W        W 1768   6.907  24.722   4.348
29443W        W 1769   9.329  25.006   3.782
29444W        W 1770   6.408  32.948  14.392
29445W        W 1771  23.630  14.762   9.964
29446W        W 1772  33.389  42.302   1.821
29447W        W 1773  23.729  42.916   3.782
29448W        W 1774  31.550  13.188  14.011
29449W        W 1775  23.636   6.260  13.008
29450W        W 1776  29.581  40.474  11.122
29451W        W 1777   2.281   7.334   3.373
29452W        W 1778  27.572   2.381   1.295
29453W        W 1779   8.882  35.438   3.295
29454W        W 1780   6.873  14.692  11.943
29455W        W 1781  13.249  12.781  14.414
29456W        W 1782   2.322  20.635  13.849
29457W        W 1783  34.561  10.212   2.814
29458W        W 1784  24.675  11.323  14.471
29459W        W 1785  24.658  43.369  11.421
29460W        W 1786  40.047  12.703   3.235
29461W        W 1787  10.722   5.324   2.674
29462W        W 1788  34.928  40.005   0.743
29463W        W 1789  19.225  21.673   2.900
29464W        W 1790  16.745  34.410  13.872
29465W        W 1791  14.263  18.614  11.445
29466W        W 1792  14.167  38.499   1.832
29467W        W 1793  36.909  29.646  11.603
29468W        W 1794  19.736  35.862   3.316
29469W        W 1795  11.172  24.131  10.947
29470W        W 1796  32.501  33.103   1.322
29471W        W 1797  31.933   1.872  11.472
29472W        W 1798  19.120  43.384  14.402
29473W        W 1799  35.920   2.364   0.422
29474W        W 1800  29.607  14.187   2.363
29475W        W 1801  21.106   8.324  14.809
29476W        W 1802   9.800  26.017   3.319
29477W        W 1803  38.926   9.306  14.789
29478W        W 1804  32.066   8.207  11.380
29479W        W 1805  27.109  12.750   5.183
29480W        W 1806   0.419   5.258  13.938
29481W        W 1807  31.602  44.446  12.844
29482W        W 1808  40.861   5.863  12.014
29483W        W 1809   9.663  21.082   2.750
29484W        W 1810  43.008   7.757  10.990
29485W        W 1811  27.658  43.372  14.460
29486W        W 1812   9.373  28.482   1.386
29487W        W 1813  15.229  36.088  12.544
29488W        W 1814  22.177  10.827   1.752
29489W        W 1815   9.297  39.907   1.738
29490W        W 1816  18.679   9.194  13.527
29491W        W 1817  37.428  28.094   5.167
29492W        W 1818  35.395   8.323  14.511
29493W        W 1819   1.264  36.848  10.934
29494W        W 1820  37.392  14.761  13.019
29495W        W 1821  43.425  16.276  10.504
29496W        W 1822  24.655   0.871   2.200
29497W        W 1823  37.030   4.905   0.962
29498W        W 1824  10.796  11.201  12.476
29499W        W 1825  22.576  40.012   4.822
29500W        W 1826  13.169   7.250  11.552
29501W        W 1827  27.513  28.565   2.827
29502W        W 1828  12.305  38.897  14.514
29503W        W 1829   3.391  11.184   1.398
29504W        W 1830  36.538   2.893   0.476
29505W        W 1831   6.250  22.216   3.216
29506W        W 1832  22.193  14.776   1.450
29507W        W 1833  25.164  32.090   1.221
29508W        W 1834  39.824  40.941  12.958
29509W        W 1835  37.501  38.905   5.144
29510W        W 1836  23.690   2.727   3.835
29511W        W 1837   2.920  16.612  13.844
29512W        W 1838  15.691  18.222   3.235
29513W        W 1839   0.785  18.278   4.767
29514W        W 1840  32.514   0.276  14.280
29515W        W 1841  27.976   5.259  14.016
29516W        W 1842  43.291  27.016  12.029
29517W        W 1843  17.078  40.421   1.809
29518W        W 1844  33.413  38.467   2.179
29519W        W 1845  34.922  13.642  12.059
29520W        W 1846   7.398  32.997  11.987
29521W        W 1847   3.345  22.533  12.515
29522W        W 1848  20.217  41.480  14.296
29523W        W 1849  24.058  21.622   1.880
29524W        W 1850  10.643  41.863  13.956
29525W        W 1851  34.389  10.660   0.302
29526W        W 1852   3.240  38.975   2.733
29527W        W 1853  18.653  20.089   3.299
29528W        W 1854   5.789  14.123   0.889
29529W        W 1855  37.451  25.159  12.485
29530W        W 1856  26.674   9.206  14.423
29531W        W 1857  19.214  14.109  10.508
29532W        W 1858   9.267  36.370   0.393
29533W        W 1859   2.444  24.998  11.579
29534W        W 1860  25.018  37.490   0.396
29535W        W 1861  30.537   1.440  13.826
29536W        W 1862  43.451  19.597  13.807
29537W        W 1863  10.360  34.421   2.690
29538W        W 1864  17.282   5.924   1.783
29539W        W 1865  19.240  17.723   2.350
29540W        W 1866  27.074   1.866  10.084
29541W        W 1867   3.816  20.694  13.415
29542W        W 1868   5.281  27.985   3.638
29543W        W 1869  37.949   8.272  14.399
29544W        W 1870  21.739  39.342  10.470
29545W        W 1871  39.483  24.580   1.738
29546W        W 1872  30.077  30.505  13.047
29547W        W 1873  33.056  35.878  11.590
29548W        W 1874  29.486  41.889   2.863
29549W        W 1875  37.372  26.951  14.364
29550W        W 1876  32.632  17.136  13.911
29551W        W 1877  18.726  39.387  13.862
29552W        W 1878  27.083  13.839   3.776
29553W        W 1879  20.656  14.603   3.166
29554W        W 1880  34.958  14.757   1.390
29555W        W 1881  25.184   0.951  14.429
29556W        W 1882  11.726  43.419  10.531
29557W        W 1883  39.459  32.920  12.400
29558W        W 1884  11.836  39.480  11.928
29559W        W 1885  15.134  37.988  12.512
29560W        W 1886   6.256  44.460   0.328
29561W        W 1887  32.446  34.578  11.921
29562W        W 1888   3.897  34.102  12.359
29563W        W 1889  32.489  19.770   0.271
29564W        W 1890  44.001   8.869   0.264
29565W        W 1891  44.937  35.056  12.497
29566W        W 1892  41.505  24.665   1.367
29567W        W 1893  42.315  34.990  11.921
29568W        W 1894   6.387  34.535  14.444
29569W        W 1895  34.523  41.465  13.874
29570W        W 1896  12.617  33.566   1.310
29571W        W 1897  44.504  37.084  11.436
29572W        W 1898  30.422   2.915   1.786
29573W        W 1899   8.676  32.132   0.897
29574W        W 1900  37.011  12.722  13.034
29575W        W 1901  25.039  18.550   3.713
29576W        W 1902   4.720  38.931  12.096
29577W        W 1903  23.570  16.277   1.739
29578W        W 1904  40.366  20.554  11.863
29579W        W 1905  13.209  19.162   2.692
29580W        W 1906  42.007  42.495  11.392
29581W        W 1907  26.957  33.447  11.915
29582W        W 1908  44.349  37.483  14.991
29583W        W 1909  38.021  34.404  13.522
29584W        W 1910  13.670  41.344  12.983
29585W        W 1911  42.796  33.530  11.375
29586W        W 1912  22.054   6.342  13.414
29587W        W 1913  10.138   5.202  13.808
29588W        W 1914  36.504  34.394   3.755
29589W        W 1915   4.445  41.865  14.823
29590W        W 1916  37.833  13.116   3.663
29591W        W 1917  44.995  20.581  12.944
29592W        W 1918  42.487  20.187  10.412
29593W        W 1919   1.329   8.248   0.966
29594W        W 1920  12.774  24.664  11.984
29595W        W 1921  28.152  14.199  14.432
29596W        W 1922  36.551  20.121   3.845
29597W        W 1923  41.948  31.631   4.607
29598W        W 1924  27.603  35.027   4.197
29599W        W 1925  19.263  29.434   4.203
29600W        W 1926  29.664  22.647  13.382
29601W        W 1927   0.253   0.252   3.294
29602W        W 1928  40.995  39.849   2.750
29603W        W 1929  13.127  15.807  14.444
29604W        W 1930  26.570  20.041  13.860
29605W        W 1931  44.308  27.613  10.930
29606W        W 1932   5.718  18.152  14.491
29607W        W 1933  14.252  13.251  12.889
29608W        W 1934  19.079   7.194   4.208
29609W        W 1935  14.157   2.230  12.878
29610W        W 1936  25.614  41.354  11.563
29611W        W 1937  12.162  26.975  13.988
29612W        W 1938  37.476  11.322  13.031
29613W        W 1939  41.464  39.828  13.366
29614W        W 1940  18.074  42.403   3.326
29615W        W 1941   6.210  18.132   2.300
29616W        W 1942   2.821  44.774  12.411
29617W        W 1943  10.708   8.819   0.771
29618W        W 1944   4.913  21.696   4.303
29619W        W 1945  15.802  17.257  10.505
29620W        W 1946  19.621  44.958  12.078
29621W        W 1947  41.527  13.659  13.543
29622W        W 1948  41.328   0.280   3.284
29623W        W 1949   4.396  29.611   1.244
29624W        W 1950  11.204   2.741  12.341
29625W        W 1951  27.691   8.679   2.793
29626W        W 1952  38.872   7.275  11.932
29627W        W 1953  39.398  16.194  12.433
29628W        W 1954   9.713  40.939   4.135
29629W        W 1955  22.159  40.411  10.042
29630W        W 1956   9.228  43.508   3.250
29631W        W 1957  39.462  14.827   3.806
29632W        W 1958  23.616  30.651   3.303
29633W        W 1959  11.145  44.901   4.194
29634W        W 1960  36.566  19.049  12.489
29635W        W 1961   1.265  21.656  14.920
29636W        W 1962  34.056   8.197   0.435
29637W        W 1963  10.378  24.650   1.744
29638W        W 1964  34.397   6.246   2.224
29639W        W 1965   6.313  42.922   5.317
29640W        W 1966  30.575  33.904  14.024
29641W        W 1967  41.493  24.618  12.450
29642W        W 1968  18.651  12.828   3.807
29643W        W 1969  14.765   4.862  10.539
29644W        W 1970   8.756   9.337   2.259
29645W        W 1971   2.760   6.709  14.346
29646W        W 1972  19.750  43.466  10.525
29647W        W 1973  19.178  32.086  10.457
29648W        W 1974   8.307  11.260   3.690
29649W        W 1975  26.052  19.624  10.960
29650W        W 1976  35.578  19.581  12.936
29651W        W 1977  28.150   8.346  14.328
29652W        W 1978   8.748   0.337  13.796
29653W        W 1979  12.756  13.143   2.699
29654W        W 1980  44.478  15.621   3.835
29655W        W 1981   2.427  14.743   4.253
29656W        W 1982  41.434  31.447  12.977
29657W        W 1983  28.438   3.795  13.889
29658W        W 1984  35.468  13.676  14.840
29659W        W 1985  10.225  33.534   0.443
29660W        W 1986   8.270  32.082   3.167
29661W        W 1987  27.104  42.476   0.381
29662W        W 1988   7.286   9.194  13.818
29663W        W 1989  26.555  19.603  13.443
29664W        W 1990   3.803  29.664   1.257
29665W        W 1991  42.393  13.778  13.956
29666W        W 1992   5.931  32.422  11.392
29667W        W 1993  42.808  32.098   5.144
29668W        W 1994   7.870  36.859  14.335
29669W        W 1995  43.008  26.553  10.925
29670W        W 1996  26.964  33.543  10.007
29671W        W 1997  15.254   1.761   4.298
29672W        W 1998  25.605  38.046   3.759
29673W        W 1999  21.604   0.811   0.419
29674W        W 2000  16.083  13.713   3.761
29675W        W 2001  18.651  17.167   3.241
29676W        W 2002  29.950   6.194  10.987
29677W        W 2003   8.697   3.333   0.812
29678W        W 2004   9.666  15.798  12.490
29679W        W 2005  39.918  41.016   3.335
29680W        W 2006  15.083  30.465  14.815
29681W        W 2007  42.959  19.682  14.957
29682W        W 2008  27.469  20.636  12.851
29683W        W 2009  37.361  37.339   4.780
29684W        W 2010  19.053  22.226  12.481
29685W        W 2011  38.953  23.553  11.098
29686W        W 2012   4.824  43.405   0.868
29687W        W 2013  39.945  15.310  11.935
29688W        W 2014  39.348  22.689  11.056
29689W        W 2015  17.732   9.168  11.996
29690W        W 2016  23.549  26.955  13.999
29691W        W 2017  20.174  24.141  12.446
29692W        W 2018   2.242  13.329   4.714
29693W        W 2019   6.412  13.693  11.608
29694W        W 2020  44.993  39.379  13.998
29695W        W 2021  40.804  32.581   2.300
29696W        W 2022  44.898   3.316   9.968
29697W        W 2023  34.093  17.138   4.210
29698W        W 2024  43.321  36.365  11.061
29699W        W 2025  29.175  39.065  12.431
29700W        W 2026  16.132   3.332   3.853
29701W        W 2027  35.914  41.915  11.487
29702W        W 2028  24.191  35.578   0.302
29703W        W 2029   5.764  25.049  14.376
29704W        W 2030  26.130  11.275  11.882
29705W        W 2031  12.304  25.616  12.443
29706W        W 2032  27.479   0.944   1.433
29707W        W 2033  10.804  18.642   4.638
29708W        W 2034  19.582   1.431  14.798
29709W        W 2035  10.658   6.297  14.470
29710W        W 2036  34.058  30.034  11.568
29711W        W 2037  12.230  20.182  13.885
29712W        W 2038  13.713   8.309  13.335
29713W        W 2039  32.566  22.583   2.829
29714W        W 2040   8.303  33.920   4.155
29715W        W 2041   8.697   9.384   4.250
29716W        W 2042  16.646  24.664   4.802
29717W        W 2043  37.867  44.426   1.851
29718W        W 2044  31.039  23.581  14.516
29719W        W 2045  34.389   7.859  13.927
29720W        W 2046  36.075   9.801   0.890
29721W        W 2047  39.907  37.382   3.146
29722W        W 2048  21.029  31.476   0.838
29723W        W 2049   3.737  29.555   4.779
29724W        W 2050  21.626  40.814   4.781
29725W        W 2051  29.559   1.879  14.813
29726W        W 2052  44.321  17.590   3.745
29727W        W 2053   6.283  32.084   4.741
29728W        W 2054  25.111  43.465   3.834
29729W        W 2055  27.595   8.739   3.711
29730W        W 2056   8.306  23.617   3.797
29731W        W 2057  35.403   7.338   2.824
29732W        W 2058  43.007  23.989   5.137
29733W        W 2059  41.383   1.845  10.895
29734W        W 2060  36.930   5.692   2.183
29735W        W 2061  16.190  40.386  11.035
29736W        W 2062  31.491  10.724  11.871
29737W        W 2063  19.695  12.788  12.903
29738W        W 2064  25.964   0.796   0.356
29739W        W 2065  24.047  14.802  10.460
29740W        W 2066  16.686  28.011   0.444
29741W        W 2067   6.310   6.210  13.942
29742W        W 2068  12.276  19.623  12.927
29743W        W 2069   1.258  23.614   1.831
29744W        W 2070  40.369   4.357  12.454
29745W        W 2071  27.145   9.376   4.183
29746W        W 2072   1.923   4.882   5.769
29747W        W 2073  44.873  19.625   1.904
29748W        W 2074   3.865  23.519  13.997
29749W        W 2075  28.183   7.324   1.779
29750W        W 2076  28.931  11.274  10.980
29751W        W 2077  38.434  12.242  13.402
29752W        W 2078  11.709  17.675   3.728
29753W        W 2079   6.881  17.799  12.860
29754W        W 2080  44.407  11.660   0.408
29755W        W 2081  24.666  42.815  11.999
29756W        W 2082  12.147   7.869  10.627
29757W        W 2083  27.535  31.058  11.108
29758W        W 2084  16.110   3.223   4.232
29759W        W 2085   6.393  33.016   2.252
29760W        W 2086   8.290  34.025  14.781
29761W        W 2087  31.507  34.608   3.293
29762W        W 2088   8.221  24.488  11.572
29763W        W 2089  15.681  17.784  12.376
29764W        W 2090  19.090   5.433  12.359
29765W        W 2091  41.003   6.404  12.826
29766W        W 2092  26.620  17.763   3.311
29767W        W 2093  17.084  32.469   3.289
29768W        W 2094   2.957  24.170   0.360
29769W        W 2095  24.176  28.571  12.862
29770W        W 2096   9.395  20.121   2.306
29771W        W 2097   6.751  11.127   1.319
29772W        W 2098  20.764  37.883   4.710
29773W        W 2099   9.799  15.810  13.476
29774W        W 2100  25.643  23.036   3.257
29775W        W 2101  41.503  38.077   1.840
29776W        W 2102  10.654   2.464  13.477
29777W        W 2103  27.647  37.384  14.896
29778W        W 2104  30.006  42.470  13.948
29779W        W 2105  44.776  35.940   2.718
29780W        W 2106  18.668   0.397   1.388
29781W        W 2107   4.441  25.155   1.329
29782W        W 2108  25.707  10.144  12.564
29783W        W 2109  11.735   5.430  13.920
29784W        W 2110  21.123  14.261   0.361
29785W        W 2111  27.549  43.395   0.402
29786W        W 2112  11.783   4.383  10.939
29787W        W 2113   3.839  41.415   1.337
29788W        W 2114  30.932  20.204   1.866
29789W        W 2115  14.817  19.688  14.316
29790W        W 2116   6.378  33.878  14.298
29791W        W 2117  31.123  26.131  13.502
29792W        W 2118  37.835   0.757  13.482
29793W        W 2119  37.882  17.183  10.516
29794W        W 2120  31.523   8.355   0.915
29795W        W 2121  21.687  27.631  14.774
29796W        W 2122  30.448  37.939  10.514
29797W        W 2123  40.030  32.439   2.385
29798W        W 2124  29.084  21.223   0.482
29799W        W 2125  19.614  15.108  13.830
29800W        W 2126   3.782   2.792  14.358
29801W        W 2127  14.156  31.945  13.056
29802W        W 2128  16.683  44.421  11.942
29803W        W 2129  11.844   3.821   1.876
29804W        W 2130  44.843  25.120   0.319
29805W        W 2131  43.854  17.077  12.397
29806W        W 2132  20.602  13.726  11.856
29807W        W 2133  34.910  31.133   3.207
29808W        W 2134  43.831   3.456   5.145
29809W        W 2135  41.434   7.765   2.240
29810W        W 2136  14.722   5.398  11.089
29811W        W 2137  37.429  35.529  13.503
29812W        W 2138  33.426   0.946   5.134
29813W        W 2139  19.776  26.596   0.941
29814W        W 2140  42.029  32.407  11.098
29815W        W 2141   8.185  38.518  14.902
29816W        W 2142   9.393  24.534   3.746
29817W        W 2143  35.581  19.759  10.433
29818W        W 2144  15.268   7.890  11.473
29819W        W 2145  19.718  30.538   1.410
29820W        W 2146  40.002  21.702  11.450
29821W        W 2147  13.711  10.800   2.725
29822W        W 2148  40.334  12.303  14.782
29823W        W 2149   1.321   1.819   0.953
29824W        W 2150  43.780  38.442  12.014
29825W        W 2151  13.126  14.113  11.098
29826W        W 2152  17.571   6.277  12.495
29827W        W 2153  44.993   3.804  13.012
29828W        W 2154  40.879  15.100   1.848
29829W        W 2155  29.476   5.362   3.354
29830W        W 2156   1.952   2.392   0.943
29831W        W 2157   9.171  26.638  10.539
29832W        W 2158  30.493   6.900  12.389
29833W        W 2159  40.366  11.747   4.626
29834W        W 2160  32.138   6.224  10.490
29835W        W 2161  13.651  14.334  13.819
29836W        W 2162   5.289   2.773   1.787
29837W        W 2163  42.507  32.418   1.241
29838W        W 2164  12.845   7.898  11.033
29839W        W 2165   2.455   8.853  14.939
29840W        W 2166  24.167   6.870  12.424
29841W        W 2167   5.337  11.841   2.178
29842W        W 2168  41.409  32.413   2.699
29843W        W 2169  12.136   6.696   2.188
29844W        W 2170  12.654  29.925   1.768
29845W        W 2171  19.565  13.342  13.879
29846W        W 2172  24.150  35.524  14.498
29847W        W 2173   3.933  38.429   0.408
29848W        W 2174   8.235  23.593  12.016
29849W        W 2175  14.268  40.442  14.405
29850W        W 2176  33.482  14.804  10.543
29851W        W 2177  28.573  18.287   1.795
29852W        W 2178  32.403  27.084  11.071
29853W        W 2179   5.750  27.469  13.323
29854W        W 2180  27.653  21.520  11.066
29855W        W 2181  16.089  23.134   1.426
29856W        W 2182  36.054  36.390   3.819
29857W        W 2183  32.000  11.807  14.790
29858W        W 2184  24.166  11.714   1.892
29859W        W 2185  27.178  20.129  13.919
29860W        W 2186  11.693  26.570  13.854
29861W        W 2187  23.082  34.548   3.676
29862W        W 2188  38.431  21.739  13.865
29863W        W 2189  43.463   7.734  12.899
29864W        W 2190  24.561  16.316   0.444
29865W        W 2191  25.510   0.961  10.987
29866W        W 2192  22.549  15.693   1.395
29867W        W 2193  20.568  40.812  14.490
29868W        W 2194  17.229  41.994   2.781
29869W        W 2195  44.318  21.130   3.809
29870W        W 2196  34.096  16.185   2.281
29871W        W 2197  17.088   0.388   3.655
29872W        W 2198  26.458  26.494   0.899
29873W        W 2199  14.766  29.062   4.306
29874W        W 2200   3.436  24.182   1.835
29875W        W 2201  20.554  44.488  10.157
29876W        W 2202   8.685  18.613   1.300
29877W        W 2203  42.981  37.375   5.268
29878W        W 2204  17.062  26.575   4.776
29879W        W 2205   5.714  44.875   1.290
29880W        W 2206  26.566  21.104  14.331
29881W        W 2207  11.807  40.472  11.981
29882W        W 2208  30.009  27.667   0.268
29883W        W 2209  30.120  13.150  14.882
29884W        W 2210  34.541  22.694   1.696
29885W        W 2211  13.295  35.971   1.876
29886W        W 2212  25.535  12.228  13.462
29887W        W 2213  42.338  35.010   0.249
29888W        W 2214   5.277  29.937   2.212
29889W        W 2215  23.600  21.227  10.403
29890W        W 2216  44.423  16.288  14.845
29891W        W 2217  32.413  26.021  11.586
29892W        W 2218  40.459  24.674  14.326
29893W        W 2219   1.317  39.496  14.816
29894W        W 2220  41.495  41.954   1.415
29895W        W 2221   0.349  41.433  13.358
29896W        W 2222  21.229  26.686   3.257
29897W        W 2223  13.649  43.389  11.555
29898W        W 2224  19.576   7.911  13.012
29899W        W 2225  36.864   8.872   1.845
29900W        W 2226   0.800   7.243   4.800
29901W        W 2227  18.216  13.682  12.491
29902W        W 2228   6.729  44.434   3.631
29903W        W 2229  36.936  13.241  11.484
29904W        W 2230   1.401  23.604  12.857
29905W        W 2231  20.704  21.653   2.834
29906W        W 2232  10.812  35.060  11.394
29907W        W 2233  25.503   9.183  13.018
29908W        W 2234  37.862  35.860  13.980
29909W        W 2235  43.351  37.444  12.050
29910W        W 2236  38.914   5.822  10.471
29911W        W 2237  12.207  23.189  13.858
29912W        W 2238   6.278  40.799   1.395
29913W        W 2239  23.493  22.540  11.921
29914W        W 2240  27.628  17.750   4.296
29915W        W 2241  40.958  25.037   0.443
29916W        W 2242   0.989   8.887  10.596
29917W        W 2243  28.594  37.916   4.741
29918W        W 2244   6.861  29.022  11.008
29919W        W 2245  35.950  12.176   0.946
29920W        W 2246   3.861  27.651  10.425
29921W        W 2247  11.624  24.036   2.413
29922W        W 2248   4.783  16.770   1.708
29923W        W 2249   2.301  11.280   5.183
29924W        W 2250  31.090   9.798   2.234
29925W        W 2251  40.899  15.252   3.376
29926W        W 2252   6.811  19.057   2.792
29927W        W 2253   8.778  15.092   3.645
29928W        W 2254  18.235  29.994   2.662
29929W        W 2255   1.902  10.370  11.529
29930W        W 2256  43.992   6.295   2.326
29931W        W 2257  39.978  10.773  12.069
29932W        W 2258   7.838  10.758  11.860
29933W        W 2259  11.242  19.163  12.876
29934W        W 2260   7.835  28.460   1.882
29935W        W 2261  43.421  12.672   1.777
29936W        W 2262  38.895  19.575  12.382
29937W        W 2263  44.990  15.210  11.398
29938W        W 2264  22.038  32.061   0.904
29939W        W 2265   5.197  19.074  11.096
29940W        W 2266  43.304  11.338   3.204
29941W        W 2267  31.454  34.075   4.282
29942W        W 2268  35.556  33.480  12.830
29943W        W 2269  13.768   2.417  12.420
29944W        W 2270   0.952  11.758  13.336
29945W        W 2271  11.753  30.444   0.865
29946W        W 2272  18.567  34.999  12.465
29947W        W 2273  23.537  22.625  12.546
29948W        W 2274  25.049  27.150  12.414
29949W        W 2275  44.817  26.484   2.680
29950W        W 2276  37.567  23.216   2.183
29951W        W 2277  43.768  41.431   4.253
29952W        W 2278  38.847  13.714  14.337
29953W        W 2279  26.632  32.619  12.082
29954W        W 2280   9.219  29.535  10.890
29955W        W 2281  35.908   7.247   3.807
29956W        W 2282  35.862   9.233   0.338
29957W        W 2283  36.397  16.171   1.344
29958W        W 2284  23.085  14.298  11.455
29959W        W 2285  24.150   1.279   1.763
29960W        W 2286  15.201  38.550   3.831
29961W        W 2287  32.401  23.525   4.763
29962W        W 2288  42.986  20.156   0.258
29963W        W 2289  13.675  21.749   2.405
29964W        W 2290  17.583  39.543   2.216
29965W        W 2291  15.276  33.595   0.450
29966W        W 2292  18.151  22.095   2.181
29967W        W 2293  19.134  22.220  10.644
29968W        W 2294  40.380   2.241   3.238
29969W        W 2295  31.625  37.064  14.878
29970W        W 2296  42.898  37.371  13.805
29971W        W 2297  18.263   2.884   4.253
29972W        W 2298  41.332  43.959  14.353
29973W        W 2299  42.972  41.023  11.452
29974W        W 2300  42.421   9.357  11.951
29975W        W 2301   2.294  39.920   0.294
29976W        W 2302  13.136  13.742  10.454
29977W        W 2303  28.145  15.142  14.834
29978W        W 2304   2.400  44.791  10.456
29979W        W 2305   3.816  39.344   1.230
29980W        W 2306  32.561  17.115  10.602
29981W        W 2307  25.574  44.346   9.960
29982W        W 2308  27.972   1.294  10.564
29983W        W 2309  10.678  22.505  10.513
29984W        W 2310   5.933  32.521   4.813
29985W        W 2311  43.389  32.609   4.599
29986W        W 2312  21.633  40.510   2.666
29987W        W 2313   9.751  23.672  13.332
29988W        W 2314  41.460  25.983  13.359
29989W        W 2315  11.679  24.161   3.353
29990W        W 2316  16.152   5.361  12.862
29991W        W 2317  22.142  41.989  11.531
29992W        W 2318  34.880  12.145  11.494
29993W        W 2319  25.133   6.716   4.722
29994W        W 2320   4.742  23.494   4.661
29995W        W 2321  20.249  36.871   4.717
29996W        W 2322  13.215  43.770  12.884
29997W        W 2323  43.898   8.305  10.519
29998W        W 2324  16.608   0.423   3.836
29999W        W 2325  22.646   2.423  11.513
30000W        W 2326  27.609  16.234  10.633
30001W        W 2327  37.984  15.158   0.868
30002W        W 2328   9.809   1.455   4.605
30003W        W 2329  15.314  18.188  10.928
30004W        W 2330  33.931  43.862   2.725
30005W        W 2331  43.450  34.884  13.900
30006W        W 2332  13.613  30.114   0.373
30007W        W 2333  44.282  22.220  11.904
30008W        W 2334  33.543   5.810   4.707
30009W        W 2335  23.730  13.632  11.062
30010W        W 2336   2.850  31.140   0.471
30011W        W 2337  33.420  18.145   4.135
30012W        W 2338  23.067   8.805  14.816
30013W        W 2339  26.041  26.126  13.429
30014W        W 2340   4.933  37.541   0.347
30015W        W 2341  22.647  28.064  10.593
30016W        W 2342  27.158  18.214   1.847
30017W        W 2343  16.171  35.373  12.862
30018W        W 2344  32.532  42.485  11.074
30019W        W 2345  44.411  22.113   3.306
30020W        W 2346   4.381   8.347   3.200
30021W        W 2347  30.623  43.812   3.381
30022W        W 2348  43.344   6.706   1.758
30023W        W 2349  35.544   3.753   4.264
30024W        W 2350   6.881  31.107   3.647
30025W        W 2351  32.141  20.077  14.797
30026W        W 2352  11.675  44.943   0.415
30027W        W 2353  22.578  27.136   0.434
30028W        W 2354  15.253  23.101  11.494
30029W        W 2355  16.597  29.492  13.320
30030W        W 2356  10.655  35.927  10.987
30031W        W 2357  35.911   7.334  11.978
30032W        W 2358  32.568  42.000   3.779
30033W        W 2359  26.677  27.067  11.504
30034W        W 2360  43.378   3.329   0.778
30035W        W 2361   0.779  19.632   0.863
30036W        W 2362   7.209  17.220   3.844
30037W        W 2363   9.366  26.199  11.598
30038W        W 2364  31.544  35.968  14.421
30039W        W 2365  38.856   0.836  12.445
30040W        W 2366  44.343  27.622   3.160
30041W        W 2367  43.956  40.374  12.953
30042W        W 2368  34.966  22.652   5.272
30043W        W 2369  31.598   5.394   4.821
30044W        W 2370   5.840  34.978  14.325
30045W        W 2371  31.082  27.607  14.018
30046W        W 2372   2.911  16.726   0.886
30047W        W 2373  25.999   6.752  12.074
30048W        W 2374  39.966  10.282   3.646
30049W        W 2375   0.984  44.416   3.777
30050W        W 2376  11.627  29.089   5.226
30051W        W 2377  31.916   1.468  12.357
30052W        W 2378  41.457  23.205   4.116
30053W        W 2379  41.939  28.656   1.831
30054W        W 2380  21.696   4.298   0.288
30055W        W 2381  21.225  32.495  14.984
30056W        W 2382  14.150   5.901   3.777
30057W        W 2383  22.009   9.694  10.541
30058W        W 2384  33.073  36.864  14.863
30059W        W 2385  31.949  24.216  12.548
30060W        W 2386  44.989  38.528  13.490
30061W        W 2387   8.737   1.747   4.671
30062W        W 2388  18.257  40.453   1.393
30063W        W 2389  39.323   7.291  11.962
30064W        W 2390  14.097  27.041   5.277
30065W        W 2391  37.512  21.599  14.006
30066W        W 2392  27.637  30.413  11.431
30067W        W 2393  14.127   7.674  12.379
30068W        W 2394  30.949   0.855  12.445
30069W        W 2395  34.110   3.283  11.440
30070W        W 2396  29.041  41.830  12.072
30071W        W 2397  11.680  13.817   0.394
30072W        W 2398  35.501  26.604  13.799
30073W        W 2399  37.901  12.739   3.206
30074W        W 2400  14.259  17.587   4.248
30075W        W 2401   0.815  21.603  14.914
30076W        W 2402  31.028   9.884   1.798
30077W        W 2403  20.268  15.233  13.842
30078W        W 2404  22.742   6.376  11.482
30079W        W 2405  36.521   1.825  12.973
30080W        W 2406  43.849  30.932   3.641
30081W        W 2407  27.587  17.198   0.953
30082W        W 2408  39.384  19.633  12.920
30083W        W 2409  14.594  43.834  13.844
30084W        W 2410  12.120   3.906  14.309
30085W        W 2411  30.988  11.804   4.612
30086W        W 2412  12.769   8.388  13.041
30087W        W 2413  13.138  41.478  11.009
30088W        W 2414   8.819  21.668  12.074
30089W        W 2415   7.262  28.168   0.900
30090W        W 2416  22.503   8.719  11.579
30091W        W 2417  10.634  11.764  13.317
30092W        W 2418  25.208   0.807   1.896
30093W        W 2419  41.295  24.034  11.477
30094W        W 2420  43.403  17.670   4.599
30095W        W 2421  29.099  10.856  10.619
30096W        W 2422  42.471  31.477   3.223
30097W        W 2423   8.391  22.185   1.378
30098W        W 2424  26.128   7.843  12.451
30099W        W 2425  15.313  36.926  11.870
30100W        W 2426  35.359   4.816  12.043
30101W        W 2427   0.985  18.280  12.375
30102W        W 2428   9.699   9.284   2.736
30103W        W 2429   9.205  44.493  12.566
30104W        W 2430  25.515  24.113   2.312
30105W        W 2431  23.225   8.372   4.786
30106W        W 2432   5.702  14.761  10.468
30107W        W 2433  16.183  24.005  12.874
30108W        W 2434  19.216  39.367  10.407
30109W        W 2435  25.608  30.463   0.414
30110W        W 2436  44.490  35.398   3.383
30111W        W 2437  26.051  14.823   4.672
30112W        W 2438  32.981  34.048   3.673
30113W        W 2439  25.086  43.979  14.803
30114W        W 2440  40.415  23.038   4.700
30115W        W 2441  23.158  30.971  12.899
30116W        W 2442  41.333  24.118  12.394
30117W        W 2443  29.083  18.121   4.728
30118W        W 2444  37.559   3.841  12.933
30119W        W 2445  32.560  22.533  12.371
30120W        W 2446   9.737  43.784   2.290
30121W        W 2447  39.406  29.468   1.909
30122W        W 2448  17.154  33.585  11.127
30123W        W 2449  22.670  13.664   1.336
30124W        W 2450  25.687   8.668   1.814
30125W        W 2451  10.212  43.321  11.451
30126W        W 2452  19.280   8.897  12.360
30127W        W 2453  15.581   4.756   1.895
30128W        W 2454  31.983   8.862  12.881
30129W        W 2455   7.836  38.411  10.971
30130W        W 2456  14.209  40.919  11.022
30131W        W 2457   2.272  41.837   3.383
30132W        W 2458  12.355   5.218  11.051
30133W        W 2459  23.172   1.780   4.735
30134W        W 2460  29.508  36.583   4.157
30135W        W 2461  44.815  24.100   3.816
30136W        W 2462  11.760  37.425  11.077
30137W        W 2463   3.877  43.419   3.232
30138W        W 2464  30.441   7.283  12.568
30139W        W 2465  23.509  17.069   3.189
30140W        W 2466  24.116  39.950  11.438
30141W        W 2467  43.897   5.368   3.658
30142W        W 2468  14.125  40.832   3.205
30143W        W 2469  17.766  27.129   2.859
30144W        W 2470  19.741  11.221  10.509
30145W        W 2471  35.073  42.014   3.706
30146W        W 2472  19.591   3.373   0.933
30147W        W 2473  16.284   0.827   0.454
30148W        W 2474  16.203  39.852   1.922
30149W        W 2475  16.638  14.108   3.171
30150W        W 2476  25.550  42.388  13.988
30151W        W 2477   5.337   5.303  10.533
30152W        W 2478   2.227  18.775  13.897
30153W        W 2479  35.551  34.393   2.697
30154W        W 2480  41.894   4.901  14.820
30155W        W 2481   9.831   9.683  13.475
30156W        W 2482  26.078  14.639  12.010
30157W        W 2483  10.264  29.090  10.578
30158W        W 2484  34.112  33.495  13.906
30159W        W 2485  11.764  37.391  12.977
30160W        W 2486  12.761  20.644   2.843
30161W        W 2487  40.044  18.647   3.381
30162W        W 2488  38.927  13.604   4.612
30163W        W 2489  31.468  34.870   0.317
30164W        W 2490   9.370  39.059  12.964
30165W        W 2491   7.803  40.857  13.531
30166W        W 2492  12.751  41.505   3.289
30167W        W 2493  39.818  21.164   5.255
30168W        W 2494  32.431   6.677   4.318
30169W        W 2495   5.386  13.192   0.921
30170W        W 2496  22.671  35.441   4.602
30171W        W 2497  31.059  24.163  12.440
30172W        W 2498  17.581  29.487   4.192
30173W        W 2499  32.962  40.968   2.373
30174W        W 2500  22.019   9.737   2.300
30175W        W 2501  33.460  16.298  12.444
30176W        W 2502  42.511  36.563  13.015
30177W        W 2503  21.179  22.639  11.930
30178W        W 2504  16.647   7.777  14.976
30179W        W 2505  39.431  37.367   2.306
30180W        W 2506  44.860  43.339  14.341
30181W        W 2507  32.574   8.900   2.199
30182W        W 2508   1.845  22.726   1.341
30183W        W 2509  19.584  18.749   0.289
30184W        W 2510  39.857   9.307  14.496
30185W        W 2511  30.936  24.215  11.485
30186W        W 2512  41.459  15.185   2.871
30187W        W 2513   1.914   4.822   0.469
30188W        W 2514  21.738  24.697   3.744
30189W        W 2515  23.541  41.348   3.163
30190W        W 2516   0.933  26.991  14.949
30191W        W 2517  18.270  26.027   2.873
30192W        W 2518  25.669  21.076   4.152
30193W        W 2519   4.366  14.300   2.726
30194W        W 2520   9.771  22.057  12.878
30195W        W 2521  40.985  24.988  10.588
30196W        W 2522  15.164  16.305  12.917
30197W        W 2523  17.691  18.622   0.875
30198W        W 2524  37.862  16.728  11.937
30199W        W 2525  26.482   2.340   2.779
30200W        W 2526  15.579  14.620   1.694
30201W        W 2527  39.402  10.266  13.808
30202W        W 2528  31.978   7.706  10.953
30203W        W 2529  23.238   2.757   2.803
30204W        W 2530   7.409  30.945  14.276
30205W        W 2531  13.256   6.688  13.906
30206W        W 2532   8.164  34.917   4.140
30207W        W 2533   6.730   9.820  14.936
30208W        W 2534  19.534  17.165   3.727
30209W        W 2535  38.396  31.965   2.229
30210W        W 2536  37.061   2.325  13.342
30211W        W 2537  37.374  33.592  14.771
30212W        W 2538   6.799  15.787   0.961
30213W        W 2539   5.718  11.800  11.955
30214W        W 2540  12.852  14.283  14.851
30215W        W 2541  30.961   6.301   3.834
30216W        W 2542  11.690  12.131  13.378
30217W        W 2543  44.472  36.422   1.709
30218W        W 2544  19.731   4.909   1.901
30219W        W 2545  21.049   1.836   4.195
30220W        W 2546  31.061  15.147  10.940
30221W        W 2547  32.561  29.038   3.252
30222W        W 2548   9.263  23.049   0.351
30223W        W 2549  39.957   1.909   2.729
30224W        W 2550   8.848  38.405   2.891
30225W        W 2551  14.133   7.349  10.971
30226W        W 2552   6.897   0.490   3.241
30227W        W 2553   9.706   1.907  14.025
30228W        W 2554  43.448   5.226   3.749
30229W        W 2555  31.609   9.209   0.865
30230W        W 2556  29.034  22.122   2.328
30231W        W 2557  39.422  22.657  14.952
30232W        W 2558   1.843   7.271   1.821
30233W        W 2559  39.404  12.753  10.491
30234W        W 2560  14.644  38.566  12.024
30235W        W 2561  40.306  42.290  11.449
30236W        W 2562  42.505   6.920  14.386
30237W        W 2563   6.813  33.479   4.697
30238W        W 2564  32.595  20.223   4.346
30239W        W 2565  42.392   8.830   0.805
30240W        W 2566  34.436  32.051   2.400
30241W        W 2567  35.890  17.658   3.307
30242W        W 2568   1.463  18.256   1.335
30243W        W 2569  30.649  19.763   3.740
30244W        W 2570  27.490  23.080  11.389
30245W        W 2571  25.963  13.604   4.237
30246W        W 2572  40.980  11.630  10.454
30247W        W 2573  29.555  27.154  13.324
30248W        W 2574  37.871  37.491   0.299
30249W        W 2575  22.123  41.949   2.228
30250W        W 2576   5.925   8.188  14.806
30251W        W 2577  33.967   5.434   3.780
30252W        W 2578  10.759   3.772  10.893
30253W        W 2579  32.475  21.220   3.230
30254W        W 2580  34.908  40.801   2.682
30255W        W 2581   1.431  32.560  12.391
30256W        W 2582  31.539   3.319  13.883
30257W        W 2583  24.704  43.861  14.908
30258W        W 2584   3.750  34.056   2.415
30259W        W 2585  22.637  30.636   3.652
30260W        W 2586   5.197  20.596   2.200
30261W        W 2587   2.413  33.032   1.797
30262W        W 2588   0.278   5.758  10.430
30263W        W 2589  34.553  33.951  14.825
30264W        W 2590  14.190   9.326  11.411
30265W        W 2591  11.687  14.646  10.444
30266W        W 2592   5.413  39.878  13.831
30267W        W 2593  19.232  40.882   3.183
30268W        W 2594  34.930   1.472  11.052
30269W        W 2595  11.706  20.028   3.862
30270W        W 2596  36.936  36.397   2.304
30271W        W 2597  21.119   3.426   5.134
30272W        W 2598  31.979  18.081  12.971
30273W        W 2599   0.964  42.890  10.093
30274W        W 2600  37.366  44.398  14.511
30275W        W 2601  10.320  32.493   3.836
30276W        W 2602  38.328   1.318  14.997
30277W        W 2603  11.157   3.756   1.358
30278W        W 2604  43.496   0.746  11.094
30279W        W 2605  32.011  41.426  11.438
30280W        W 2606  10.355  12.621   1.255
30281W        W 2607  38.983  24.572  14.432
30282W        W 2608  36.050  21.236  11.004
30283W        W 2609  37.991  41.965  10.536
30284W        W 2610   2.794  35.083   0.314
30285W        W 2611  19.572  25.646  11.544
30286W        W 2612  20.529  37.920  12.471
30287W        W 2613  13.618   1.769  14.868
30288W        W 2614  41.335  27.450   4.143
30289W        W 2615  16.112   9.253  14.884
30290W        W 2616   3.321  25.642  13.048
30291W        W 2617  18.622  18.692  14.307
30292W        W 2618  44.300   2.836  10.408
30293W        W 2619  12.322  21.152  13.378
30294W        W 2620   8.759  36.914  14.336
30295W        W 2621  35.436   1.818  11.397
30296W        W 2622  30.069  14.694   3.710
30297W        W 2623  13.217  37.964   0.363
30298W        W 2624  33.957  43.504   4.697
30299W        W 2625   4.715  16.282  10.438
30300W        W 2626   5.299  34.390  11.477
30301W        W 2627   8.655  18.579   4.258
30302W        W 2628  23.544  14.106  13.954
30303W        W 2629  37.037  44.851  14.007
30304W        W 2630   0.348  16.613  10.935
30305W        W 2631  10.211  17.801   0.796
30306W        W 2632  38.012  10.183  10.540
30307W        W 2633  21.241  24.716   3.249
30308W        W 2634   2.366   1.862  10.963
30309W        W 2635   2.905  24.190   3.767
30310W        W 2636  32.921  39.038  14.932
30311W        W 2637   4.914  44.383  10.585
30312W        W 2638   7.842  12.748   2.352
30313W        W 2639  15.638  17.790  11.390
30314W        W 2640  44.458  26.126  13.857
30315W        W 2641  13.670  44.454  14.898
30316W        W 2642   4.757  43.810   2.674
30317W        W 2643  22.646  16.267   5.318
30318W        W 2644  15.638  24.505  11.420
30319W        W 2645  40.370  30.553   0.358
30320W        W 2646  39.860  17.581  14.384
30321W        W 2647  11.671  31.600   0.335
30322W        W 2648   1.243  35.938   2.728
30323W        W 2649  15.668  20.183   2.198
30324W        W 2650  28.014  29.993  11.051
30325W        W 2651  34.025  38.546   2.264
30326W        W 2652  27.551   8.212   0.419
30327W        W 2653  41.923  28.435  12.547
30328W        W 2654  25.127  17.295   0.808
30329W        W 2655  15.101  16.222  10.489
30330W        W 2656  10.674  10.221  14.360
30331W        W 2657   0.925   2.440   5.611
30332W        W 2658   8.401  33.109   4.834
30333W        W 2659  39.835  16.080   3.720
30334W        W 2660  13.323  33.983   5.277
30335W        W 2661  11.331  23.154   4.253
30336W        W 2662  33.470  33.464   3.736
30337W        W 2663  16.090  32.030  11.599
30338W        W 2664  26.115  33.057   3.789
30339W        W 2665  22.195  26.666  11.466
30340W        W 2666   8.195  31.031  12.432
30341W        W 2667  17.267   6.888   3.861
30342W        W 2668   9.809   3.334   1.714
30343W        W 2669  19.608  44.432   3.374
30344W        W 2670  36.985  15.707   0.342
30345W        W 2671  37.047  27.667   2.219
30346W        W 2672   0.387   2.332   4.681
30347W        W 2673   6.356  38.407   2.685
30348W        W 2674   5.400  39.357  14.381
30349W        W 2675  24.526  37.939   1.239
30350W        W 2676   1.869   1.411  10.504
30351W        W 2677  42.527  44.849   2.380
30352W        W 2678   1.886  23.222   2.721
30353W        W 2679  24.523  37.985  13.979
30354W        W 2680   2.724   1.974   2.281
30355W        W 2681  10.678   2.909   1.880
30356W        W 2682  33.612  10.291  13.359
30357W        W 2683   8.721  12.711   1.909
30358W        W 2684   4.214  20.145   3.838
30359W        W 2685  11.626  34.010  11.069
30360W        W 2686  23.634   3.459  11.518
30361W        W 2687  25.554  36.545   0.425
30362W        W 2688  35.485  39.971  14.918
30363W        W 2689  10.859  42.814  13.875
30364W        W 2690  14.716   4.790   4.616
30365W        W 2691  25.068  21.079  13.053
30366W        W 2692  19.686   8.813  11.447
30367W        W 2693   3.754  23.217   4.821
30368W        W 2694  28.108  31.620  14.832
30369W        W 2695   2.821   8.215  12.492
30370W        W 2696  14.746  27.043   3.852
30371W        W 2697   3.815  42.453   1.260
30372W        W 2698  14.190  26.158  10.907
30373W        W 2699  38.468  19.731   0.811
30374W        W 2700  21.577  44.914   4.317
30375W        W 2701  40.950  41.524  14.407
30376W        W 2702  25.105  35.396  14.383
30377W        W 2703  35.927  14.746   3.727
30378W        W 2704  25.157   0.310   4.784
30379W        W 2705  26.465  40.385   3.708
30380W        W 2706  15.102  12.698   1.414
30381W        W 2707  32.564   5.229   1.330
30382W        W 2708  29.613   4.381   4.127
30383W        W 2709   8.200  21.613   0.269
30384W        W 2710  28.539  33.111   4.796
30385W        W 2711  22.709   2.304  13.926
30386W        W 2712  38.508  18.178   4.310
30387W        W 2713  42.829  31.631  13.370
30388W        W 2714  16.301  10.827  10.509
30389W        W 2715  31.947  24.647  12.348
30390W        W 2716  14.607  43.921   1.826
30391W        W 2717  25.697  23.508   4.145
30392W        W 2718  32.098  13.815  12.886
30393W        W 2719  19.193  43.495   2.716
30394W        W 2720  40.330  28.073  14.460
30395W        W 2721  12.200  32.135  13.387
30396W        W 2722   0.318  34.592  12.049
30397W        W 2723   4.875   9.720  10.644
30398W        W 2724  12.147  20.044   4.627
30399W        W 2725  33.022  38.370   2.838
30400W        W 2726  44.911   0.368   3.235
30401W        W 2727   9.380  20.255   1.935
30402W        W 2728  33.472  28.076   2.866
30403W        W 2729  25.659   6.880   2.874
30404W        W 2730  31.925  13.774   0.268
30405W        W 2731  18.128  30.079   0.361
30406W        W 2732  12.787  11.274  10.570
30407W        W 2733   4.384  18.730  11.432
30408W        W 2734  26.524  40.412  14.495
30409W        W 2735  29.032  37.552  11.999
30410W        W 2736   3.816  11.136  13.827
30411W        W 2737  44.779  31.015   1.341
30412W        W 2738  34.951   8.659   0.421
30413W        W 2739  36.535  30.492   9.987
30414W        W 2740   6.426  11.856   9.946
30415W        W 2741   7.797  17.731   0.436
30416W        W 2742  25.473  37.351  14.933
30417W        W 2743  30.636  44.326   0.882
30418W        W 2744  30.048  35.886  13.899
30419W        W 2745   5.407  16.143  13.005
30420W        W 2746  19.196  44.371   1.752
30421W        W 2747  43.352  28.099  13.973
30422W        W 2748   3.392   9.663   9.613
30423W        W 2749  12.346  38.364   2.213
30424W        W 2750  35.482  32.465   0.262
30425W        W 2751  19.608  17.781  11.411
30426W        W 2752  17.610  15.201  13.357
30427W        W 2753   8.381  30.915  13.003
30428W        W 2754   8.239  26.609  12.867
30429W        W 2755  40.882   1.421   2.246
30430W        W 2756  36.059  35.927  10.046
30431W        W 2757  31.940  40.433   0.736
30432W        W 2758  38.888  12.786  11.378
30433W        W 2759  21.657  27.572  10.523
30434W        W 2760  28.493  29.045  10.531
30435W        W 2761  27.533   4.731  11.075
30436W        W 2762  19.221  21.512  12.931
30437W        W 2763   3.250  38.888   5.121
30438W        W 2764  21.651  28.965  14.003
30439W        W 2765  27.502  29.977  13.485
30440W        W 2766  34.049  30.606  14.018
30441W        W 2767  40.820   6.298  13.514
30442W        W 2768  23.989  43.908   1.931
30443W        W 2769  22.011  22.219   0.866
30444W        W 2770  17.144  40.896   4.345
30445W        W 2771  10.866  39.377  13.056
30446W        W 2772  22.064  31.520   4.649
30447W        W 2773  32.917  39.976   4.316
30448W        W 2774  31.967  41.013  12.026
30449W        W 2775  22.533   2.959  10.972
30450W        W 2776  12.660  20.212   2.275
30451W        W 2777   3.748  11.703   3.702
30452W        W 2778  22.171  43.354  10.421
30453W        W 2779  20.222  30.576  12.846
30454W        W 2780  39.510  40.944  12.898
30455W        W 2781  40.319  24.715   4.776
30456W        W 2782  42.794  35.905   1.289
30457W        W 2783   4.393  30.029  12.880
30458W        W 2784  10.164  42.477  14.830
30459W        W 2785   1.808  10.724   5.104
30460W        W 2786   2.723  23.731  14.394
30461W        W 2787   6.312  26.976   0.814
30462W        W 2788  17.790   6.367  14.929
30463W        W 2789  11.207  11.653   3.236
30464W        W 2790  22.634  16.130   3.347
30465W        W 2791  35.904  30.462   4.174
30466W        W 2792  33.987  38.024  13.470
30467W        W 2793  35.490  14.218  11.549
30468W        W 2794  19.776  38.876   2.408
30469W        W 2795  43.361  35.540   0.871
30470W        W 2796  44.862  11.855   3.726
30471W        W 2797  34.417  39.967   4.644
30472W        W 2798   8.782  25.113   4.329
30473W        W 2799  44.756  11.685  14.328
30474W        W 2800  15.629  17.137   1.778
30475W        W 2801   4.226   0.772   2.219
30476W        W 2802  28.469  21.064  14.513
30477W        W 2803   0.411  22.210  10.589
30478W        W 2804  19.156  19.180   2.820
30479W        W 2805   5.346  22.512  12.824
30480W        W 2806  14.252  18.785   3.790
30481W        W 2807  15.227  37.421  13.467
30482W        W 2808   0.770  36.061   0.779
30483W        W 2809   9.385   5.327   4.754
30484W        W 2810  10.830  44.361   2.224
30485W        W 2811  29.497  19.693  10.092
30486W        W 2812  25.160  25.199   3.373
30487W        W 2813  11.167  41.388  14.339
30488W        W 2814  10.142  31.123   0.921
30489W        W 2815  28.139  32.973  11.371
30490W        W 2816  36.038  11.365  13.064
30491W        W 2817  37.360  30.596  10.969
30492W        W 2818  14.776  43.820  14.869
30493W        W 2819  17.658  33.984   0.285
30494W        W 2820   0.477  27.157  10.478
30495W        W 2821  26.678  34.549  10.064
30496W        W 2822  38.988  17.743   0.313
30497W        W 2823   0.468   4.783   2.230
30498W        W 2824  19.600  11.684   2.355
30499W        W 2825  30.117  20.576  11.454
30500W        W 2826  31.622  29.013   3.668
30501W        W 2827  41.298   5.330   4.272
30502W        W 2828  34.118  11.203   2.789
30503W        W 2829  24.199  43.282  13.353
30504W        W 2830  31.460  18.145  13.981
30505W        W 2831  40.964  38.552  13.950
30506W        W 2832  28.023  21.711  13.982
30507W        W 2833   6.184  11.198   2.665
30508W        W 2834   8.248   7.848   1.237
30509W        W 2835  18.721  21.686   1.835
30510W        W 2836  24.128  30.538   1.721
30511W        W 2837  38.562  20.141   2.272
30512W        W 2838  31.437   5.295   1.357
30513W        W 2839   5.886  30.928   2.329
30514W        W 2840  27.023  30.951  14.365
30515W        W 2841   2.361   0.479  13.794
30516W        W 2842   9.311  18.790  14.859
30517W        W 2843  16.216  33.480  10.081
30518W        W 2844  33.988  11.761   0.269
30519W        W 2845   5.249  24.617   2.666
30520W        W 2846  24.135  42.291   2.773
30521W        W 2847  20.122  35.497   1.883
30522W        W 2848  39.031  16.094  12.527
30523W        W 2849   7.754  20.602   4.603
30524W        W 2850   4.347  17.589  13.904
30525W        W 2851  36.514  19.582   0.395
30526W        W 2852  25.546   7.230   3.246
30527W        W 2853  32.449   0.852  11.542
30528W        W 2854  16.282   7.749   4.812
30529W        W 2855  35.869   4.872   2.824
30530W        W 2856   1.961   3.415  14.764
30531W        W 2857  20.705  36.033   1.696
30532W        W 2858  34.025  25.508   4.232
30533W        W 2859  34.039  30.098  12.006
30534W        W 2860  17.216  34.385  12.375
30535W        W 2861  26.133  27.158  10.052
30536W        W 2862  44.279   2.899   4.682
30537W        W 2863  29.670  25.994  12.364
30538W        W 2864  19.630  14.746   4.259
30539W        W 2865  43.449  22.562  10.455
30540W        W 2866   2.748  28.066  12.480
30541W        W 2867  10.769  20.091   2.759
30542W        W 2868  10.721  21.147  13.039
30543W        W 2869  33.022  27.102   1.330
30544W        W 2870  14.173  31.931   1.272
30545W        W 2871  33.918   5.309   0.431
30546W        W 2872   3.930  30.485   0.244
30547W        W 2873  30.455   9.192  12.077
30548W        W 2874   0.431  20.657   3.717
30549W        W 2875  25.996  37.389  11.036
30550W        W 2876  14.803  36.089  12.984
30551W        W 2877  12.792  38.566  11.585
30552W        W 2878  41.924   5.318  12.992
30553W        W 2879  12.275   1.889   4.797
30554W        W 2880  29.109   1.838  11.990
30555W        W 2881  33.625  42.476  14.920
30556W        W 2882  37.429  13.736  11.084
30557W        W 2883  37.437  28.014   3.699
30558W        W 2884  19.587  20.627  12.886
30559W        W 2885  43.419   8.803  11.056
30560W        W 2886  30.634  17.637   4.765
30561W        W 2887  29.115  44.816  14.473
30562W        W 2888   6.310  37.961  13.976
30563W        W 2889  24.615  13.105  13.868
30564W        W 2890  25.987  39.013   0.480
30565W        W 2891  39.407  11.802   2.392
30566W        W 2892  41.312   5.869  12.941
30567W        W 2893  20.751  25.064   2.729
30568W        W 2894  17.598   6.679   3.266
30569W        W 2895   8.829   1.442   0.843
30570W        W 2896  29.473  37.883  13.344
30571W        W 2897   4.850  25.631   0.457
30572W        W 2898   4.258  28.536   1.701
30573W        W 2899   0.411  31.536   3.193
30574W        W 2900  12.681  10.819  14.897
30575W        W 2901  19.697  17.187   3.326
30576W        W 2902  37.862  23.227   2.244
30577W        W 2903   5.221  43.452  14.005
30578W        W 2904  19.608  27.174   1.445
30579W        W 2905  33.493  36.020  10.592
30580W        W 2906  20.178   1.961   4.142
30581W        W 2907  35.930  35.374  11.568
30582W        W 2908   4.368  30.058  11.513
30583W        W 2909  16.254  15.735  14.879
30584W        W 2910  39.823  11.656  13.062
30585W        W 2911  17.307   5.754  11.857
30586W        W 2912  18.714  44.412  12.340
30587W        W 2913  44.009  36.465  11.943
30588W        W 2914   1.770  19.720  13.799
30589W        W 2915  35.883  28.681   1.828
30590W        W 2916  36.526  23.491   2.805
30591W        W 2917  37.967  21.113  10.088
30592W        W 2918  13.253  36.428   3.183
30593W        W 2919  35.500  34.566  14.979
30594W        W 2920  38.480  34.444   2.874
30595W        W 2921  20.045   6.215   1.848
30596W        W 2922   8.792  38.341   1.400
30597W        W 2923   7.898  25.062   0.958
30598W        W 2924  10.266   9.200  11.392
30599W        W 2925   0.299  32.029   1.258
30600W        W 2926  21.548  44.850   1.285
30601W        W 2927  41.318  28.994  10.448
30602W        W 2928  17.163  38.858   0.294
30603W        W 2929  41.446   3.441   0.278
30604W        W 2930  33.457   8.176  10.447
30605W        W 2931  40.369  38.480  14.379
30606W        W 2932  23.557  42.359  14.901
30607W        W 2933  43.892  37.388   3.339
30608W        W 2934  18.250  29.439   0.251
30609W        W 2935  18.175  18.170  10.989
30610W        W 2936  24.606   8.820   4.622
30611W        W 2937  26.520  12.768   3.169
30612W        W 2938  43.986  41.907   4.279
30613W        W 2939  33.460  38.946  11.906
30614W        W 2940  26.109  26.583   3.860
30615W        W 2941  33.954  16.806  13.508
30616W        W 2942   9.850   7.845  14.977
30617W        W 2943   5.710   5.726  13.521
30618W        W 2944   3.272  31.021   2.361
30619W        W 2945  35.076  44.915   4.635
30620W        W 2946  44.007  23.027   2.800
30621W        W 2947  13.651   8.186   1.253
30622W        W 2948  40.822  35.525   0.750
30623W        W 2949   0.384   4.853  11.466
30624W        W 2950  28.637  40.806  12.339
30625W        W 2951  28.646   3.804   3.648
30626W        W 2952  31.540   7.342   2.280
30627W        W 2953  41.920  29.611  14.011
30628W        W 2954  37.836  42.344  14.855
30629W        W 2955  26.130  24.028  13.798
30630W        W 2956   4.342  16.290  13.055
30631W        W 2957  26.181  15.581  10.144
30632W        W 2958  10.807  23.621  12.073
30633W        W 2959  26.006  14.270   2.369
30634W        W 2960  31.083  20.124   2.724
30635W        W 2961  24.109  18.662   4.636
30636W        W 2962  32.101   3.347   0.434
30637W        W 2963  29.518   7.322   9.969
30638W        W 2964  44.263  19.725  11.480
30639W        W 2965  18.181  20.239   2.283
30640W        W 2966  35.438  23.517   3.291
30641W        W 2967  29.923  17.116  13.456
30642W        W 2968  21.730  39.058   3.319
30643W        W 2969  13.776  40.941  14.477
30644W        W 2970  35.590   6.247  11.605
30645W        W 2971  23.539   6.783  12.510
30646W        W 2972  30.447  19.248   1.795
30647W        W 2973  23.082  12.305  13.831
30648W        W 2974  11.131   5.787  13.453
30649W        W 2975   2.398  29.526  14.778
30650W        W 2976  27.536  29.640   5.584
30651W        W 2977  10.255  38.856  14.996
30652W        W 2978   9.832  11.305  12.011
30653W        W 2979   9.744  17.194   3.193
30654W        W 2980  13.785  30.542   4.812
30655W        W 2981  13.197   5.687   1.265
30656W        W 2982   1.464   4.251  13.933
30657W        W 2983  21.644  25.694   3.865
30658W        W 2984  11.239  42.939   4.699
30659W        W 2985  35.453  26.656   3.693
30660W        W 2986  34.866  13.191  14.363
30661W        W 2987  11.369  17.249  12.401
30662W        W 2988  25.588  13.195  12.886
30663W        W 2989  21.540  27.015  14.450
30664W        W 2990   2.756  12.769   9.616
30665W        W 2991   5.744  32.066   4.192
30666W        W 2992   9.667  19.675   1.741
30667W        W 2993   7.698  44.920  13.323
30668W        W 2994   4.361   0.390  14.385
30669W        W 2995  11.696   0.788  11.015
30670W        W 2996  19.734  19.764   1.848
30671W        W 2997  17.735  16.596   4.759
30672W        W 2998  28.154  41.811  13.821
30673W        W 2999  44.392  22.203   1.311
30674W        W 3000  23.504  40.340   4.767
30675W        W 3001   5.775  23.609   2.268
30676W        W 3002  29.926  31.523  10.427
30677W        W 3003   6.397   3.250   4.269
30678W        W 3004   0.358   2.311   4.330
30679W        W 3005  40.936  36.063   3.177
30680W        W 3006   8.326   5.912  10.603
30681W        W 3007  44.318  41.409  13.465
30682W        W 3008   7.729  21.257   1.810
30683W        W 3009  44.382   7.737   2.377
30684W        W 3010  29.588   5.343   1.822
30685W        W 3011  35.592  28.564  10.989
30686W        W 3012  19.175  18.138   2.299
30687W        W 3013   8.202   4.827  10.071
30688W        W 3014   6.223  32.085   0.920
30689W        W 3015  39.328  34.370  11.108
30690W        W 3016  39.902  30.087   3.674
30691W        W 3017   1.760  18.727  11.030
30692W        W 3018  41.937   1.286   4.795
30693W        W 3019  29.529  42.435  12.057
30694W        W 3020  29.008  16.808   2.754
30695W        W 3021   9.168  43.005   4.252
30696W        W 3022   6.353  10.319  11.956
30697W        W 3023  20.666  30.560   1.843
30698W        W 3024  11.187  37.347  12.355
30699W        W 3025  34.588  32.613  13.038
30700W        W 3026  16.587   7.247   3.323
30701W        W 3027  41.917  25.122  12.070
30702W        W 3028  39.353  28.993   1.927
30703W        W 3029   0.481  15.299  10.542
30704W        W 3030  34.554   9.656  10.527
30705W        W 3031   4.791  43.345   2.272
30706W        W 3032  26.991   6.263  11.930
30707W        W 3033   7.810  32.056  12.473
30708W        W 3034  44.927  15.740   3.317
30709W        W 3035  17.585  11.194   3.638
30710W        W 3036  43.997  34.888  13.968
30711W        W 3037  21.029  11.699  14.493
30712W        W 3038  17.110   6.755  12.071
30713W        W 3039   1.765  12.226   3.164
30714W        W 3040  35.979  21.261   4.637
30715W        W 3041   5.205   1.744  12.943
30716W        W 3042  26.622  22.050   1.818
30717W        W 3043  12.199  31.088   1.775
30718W        W 3044  33.451   0.916   4.260
30719W        W 3045  27.122  25.670   4.718
30720W        W 3046  40.510  12.757   2.778
30721W        W 3047   2.313  13.753   4.348
30722W        W 3048   6.414  19.140  10.628
30723W        W 3049   0.355  10.693  11.569
30724W        W 3050  19.128  19.039   3.300
30725W        W 3051  11.631  14.142   5.121
30726W        W 3052  25.689  25.213   3.333
30727W        W 3053  40.392   2.817   3.331
30728W        W 3054  28.630  25.666  12.501
30729W        W 3055  35.905  40.863   2.380
30730W        W 3056  43.784  23.549   0.468
30731W        W 3057  11.313  34.550  12.938
30732W        W 3058  25.032  28.143  11.983
30733W        W 3059  25.683  17.294  13.541
30734W        W 3060  41.803  27.141  13.804
30735W        W 3061   7.716  34.563   1.835
30736W        W 3062  44.755  36.507   2.717
30737W        W 3063  29.631  15.305   1.700
30738W        W 3064  27.598  19.560   3.760
30739W        W 3065   3.917  26.178   1.389
30740W        W 3066  32.046  32.487   1.785
30741W        W 3067  33.055  41.923   3.357
30742W        W 3068   2.362  35.984  13.988
30743W        W 3069  12.809  18.777   4.660
30744W        W 3070  14.690   0.987   2.779
30745W        W 3071  33.453  40.909   1.296
30746W        W 3072  36.911  41.475  12.859
30747W        W 3073   3.380  40.479  12.922
30748W        W 3074   5.266  11.160  11.380
30749W        W 3075  36.553  21.751  13.890
30750W        W 3076  20.258  43.818  14.921
30751W        W 3077  18.596  22.746   3.190
30752W        W 3078  13.304  42.419  11.896
30753W        W 3079  21.735   1.947   4.828
30754W        W 3080  26.557  28.936   5.115
30755W        W 3081  25.176   6.766   2.357
30756W        W 3082   5.737   1.338  11.569
30757W        W 3083  39.528  32.985   1.848
30758W        W 3084  33.511  16.762   0.924
30759W        W 3085  35.387  43.802  12.063
30760W        W 3086  30.604   7.285  14.852
30761W        W 3087  28.457  28.958  14.317
30762W        W 3088  29.054  34.995   2.830
30763W        W 3089  39.380  20.624   3.296
30764W        W 3090   5.407  11.152  12.563
30765W        W 3091  14.258   5.785  11.378
30766W        W 3092  38.378   9.250   4.773
30767W        W 3093   3.442  40.032  13.016
30768W        W 3094   8.186   5.355   3.187
30769W        W 3095  34.531  34.952   3.371
30770W        W 3096  36.556  36.972   1.923
30771W        W 3097  16.223  11.665   3.840
30772W        W 3098  13.128  44.459  12.909
30773W        W 3099   2.324  44.415  14.760
30774W        W 3100  37.354   4.929   2.217
30775W        W 3101  22.741  42.813   5.302
30776W        W 3102  14.768  19.727  10.996
30777W        W 3103  26.131  26.197  11.538
30778W        W 3104   2.307  36.021  13.021
30779W        W 3105  15.314  42.365  12.580
30780W        W 3106  37.477  29.172  12.427
30781W        W 3107  12.263   2.442  11.511
30782W        W 3108   5.800  10.165   2.892
30783W        W 3109  23.118  35.071  10.096
30784W        W 3110  17.752  22.224   4.684
30785W        W 3111  43.858  22.174   2.233
30786W        W 3112  22.619   9.176   4.238
30787W        W 3113  37.516   9.769   2.824
30788W        W 3114   2.229  13.712   1.437
30789W        W 3115  23.083  17.253   1.896
30790W        W 3116  30.097  21.174   1.430
30791W        W 3117  13.321  17.068  14.853
30792W        W 3118  30.016  13.196   2.828
30793W        W 3119  39.974  24.080  13.439
30794W        W 3120  21.591  43.824  12.846
30795W        W 3121  29.457  44.351  11.064
30796W        W 3122  34.598   2.299  13.435
30797W        W 3123  38.835  41.526  13.033
30798W        W 3124  16.735  36.947   2.219
30799W        W 3125  36.916  30.149   1.863
30800W        W 3126  13.179  11.654  11.055
30801W        W 3127  13.686  16.161   3.678
30802W        W 3128  43.448   9.310  12.346
30803W        W 3129  18.662  22.647   1.220
30804W        W 3130  11.633  35.008   5.299
30805W        W 3131  39.423   2.285  11.441
30806W        W 3132  30.466  22.622   3.796
30807W        W 3133  22.542  31.077   4.251
30808W        W 3134  37.851  40.822  13.824
30809W        W 3135  18.584  32.110   0.270
30810W        W 3136   8.796  15.310  11.020
30811W        W 3137  15.609  11.702   3.651
30812W        W 3138   6.801  36.512   4.225
30813W        W 3139  14.642  31.000  11.522
30814W        W 3140  26.675  30.101   2.411
30815W        W 3141   8.296   4.399  14.359
30816W        W 3142   4.404  26.625   3.318
30817W        W 3143  11.786  17.796   0.860
30818W        W 3144  41.857  14.170  14.284
30819W        W 3145  18.659  31.643   1.892
30820W        W 3146   1.975   4.912  12.535
30821W        W 3147  12.718   0.490   0.460
30822W        W 3148  25.099  26.606   3.646
30823W        W 3149  42.476   2.419   0.414
30824W        W 3150  27.493   8.897   1.447
30825W        W 3151  19.638   6.269  11.934
30826W        W 3152  15.714  41.028  13.839
30827W        W 3153  33.457   6.761  13.810
30828W        W 3154  38.570  11.788  11.905
30829W        W 3155  15.653   9.151  13.544
30830W        W 3156  34.916  27.488   2.230
30831W        W 3157  43.418  42.951   5.260
30832W        W 3158  31.462  22.119   0.834
30833W        W 3159  20.595  27.628   1.288
30834W        W 3160   7.750  39.320   0.791
30835W        W 3161  41.473  17.085   0.328
30836W        W 3162  18.640  15.228  12.870
30837W        W 3163  26.054   0.812  11.527
30838W        W 3164   9.210  26.535  14.936
30839W        W 3165  31.500  12.257  12.382
30840W        W 3166   8.385  10.320  13.952
30841W        W 3167  35.587  41.479   1.276
30842W        W 3168  30.462   9.822  14.868
30843W        W 3169  15.612  15.615  10.076
30844W        W 3170   6.690  21.258  11.977
30845W        W 3171  32.414  37.377  11.456
30846W        W 3172   9.241  20.188  11.480
30847W        W 3173  24.092  23.617  14.805
30848W        W 3174  41.858  43.415   1.784
30849W        W 3175  31.609  18.564  13.520
30850W        W 3176  43.289  14.624   2.239
30851W        W 3177  32.484  23.991   1.337
30852W        W 3178  32.891  19.087  12.341
30853W        W 3179  37.061  20.746   2.369
30854W        W 3180  19.692  10.837  12.554
30855W        W 3181   3.227  23.117  10.479
30856W        W 3182  19.149  40.356  12.550
30857W        W 3183  19.074   0.801   0.784
30858W        W 3184  21.611  35.915   3.763
30859W        W 3185   9.358  28.077  10.037
30860W        W 3186  31.493   3.893   1.375
30861W        W 3187   9.654  12.614  13.010
30862W        W 3188  18.119  18.691   2.860
30863W        W 3189  17.645  28.040   0.454
30864W        W 3190  38.829  39.993  11.584
30865W        W 3191   6.826  32.033   1.389
30866W        W 3192  29.543  25.002   2.821
30867W        W 3193  35.949  35.520   1.881
30868W        W 3194  10.798  34.515  10.533
30869W        W 3195  16.203  27.047   4.774
30870W        W 3196  20.124  22.013  12.498
30871W        W 3197  12.346   0.278  12.849
30872W        W 3198   5.348   6.756   0.253
30873W        W 3199  23.525  33.904  11.427
30874W        W 3200  18.054  21.754   0.901
30875W        W 3201  27.179   7.198  13.967
30876W        W 3202  33.004  36.514   2.325
30877W        W 3203  27.045  15.702   2.779
30878W        W 3204  12.251  37.004  14.289
30879W        W 3205  26.030  27.167  14.311
30880W        W 3206   9.292  30.028   1.895
30881W        W 3207  13.764  20.544   3.245
30882W        W 3208  11.634  44.457  12.884
30883W        W 3209  39.412   7.361   2.329
30884W        W 3210   9.373   8.342   2.866
30885W        W 3211  19.275  26.479  11.871
30886W        W 3212  21.038  17.135   2.221
30887W        W 3213  16.633  29.056  14.443
30888W        W 3214  34.585   7.326  11.012
30889W        W 3215   6.744  32.520   2.210
30890W        W 3216  26.555  43.461  12.885
30891W        W 3217  11.196   9.291  10.481
30892W        W 3218  31.033  33.882  12.427
30893W        W 3219  22.599   2.290  13.312
30894W        W 3220  20.150  15.746  11.580
30895W        W 3221   0.911  42.995   4.331
30896W        W 3222  39.506  11.746  10.437
30897W        W 3223  38.890  16.767  14.781
30898W        W 3224  18.631  43.349   1.289
30899W        W 3225  26.560  30.610  14.844
30900W        W 3226   2.904  28.460   3.828
30901W        W 3227  21.633  16.306   3.371
30902W        W 3228   5.391  43.929  14.806
30903W        W 3229  10.212  23.009  12.514
30904W        W 3230   1.930  38.395  13.798
30905W        W 3231  35.572  29.562   0.406
30906W        W 3232  16.312  33.442   2.201
30907W        W 3233  33.029  31.482  14.838
30908W        W 3234  44.369  39.846   4.205
30909W        W 3235  25.127  27.522  13.423
30910W        W 3236  11.226  34.929   4.726
30911W        W 3237  14.725  24.992   3.847
30912W        W 3238  39.429  37.041  11.974
30913W        W 3239  12.749  43.817  10.594
30914W        W 3240  37.888  32.034  11.570
30915W        W 3241   3.226  30.482  14.442
30916W        W 3242  14.133  43.366   2.674
30917W        W 3243  38.049   5.807  14.396
30918W        W 3244  37.512  11.156  12.483
30919W        W 3245  22.120  28.668  13.380
30920W        W 3246  41.924  16.602  11.533
30921W        W 3247  30.135   6.720   3.263
30922W        W 3248  17.602  36.577  14.291
30923W        W 3249   0.972   3.292   5.687
30924W        W 3250  35.426  17.131   1.398
30925W        W 3251  30.423  16.227  11.048
30926W        W 3252  26.505  11.772   2.221
30927W        W 3253  32.048  12.680   3.291
30928W        W 3254   5.284  31.043  10.508
30929W        W 3255  43.481  32.931  10.997
30930W        W 3256  32.942  35.108   1.412
30931W        W 3257  34.941  33.117   1.264
30932W        W 3258   7.761  35.096  11.856
30933W        W 3259  42.919   5.818   4.137
30934W        W 3260  22.141  24.154   0.424
30935W        W 3261  19.052  28.674   4.680
30936W        W 3262   5.202  37.360   2.272
30937W        W 3263  24.056  34.113  12.883
30938W        W 3264  21.081  19.613   9.965
30939W        W 3265  22.061  25.112   2.882
30940W        W 3266   6.334  38.532  13.893
30941W        W 3267   0.292  31.949  10.584
30942W        W 3268   9.691  34.909  12.002
30943W        W 3269  10.679  12.796  10.541
30944W        W 3270   0.353  18.564  12.427
30945W        W 3271   2.365   3.868  12.531
30946W        W 3272   8.204  19.105   2.184
30947W        W 3273  37.481  44.863  11.895
30948W        W 3274  22.199  34.435   3.863
30949W        W 3275   9.205   5.921  12.433
30950W        W 3276  44.427  35.046   3.864
30951W        W 3277  30.433  10.204  12.496
30952W        W 3278  23.068   3.793  12.509
30953W        W 3279  42.367  24.167   3.842
30954W        W 3280  33.991  16.224  11.994
30955W        W 3281  22.108  32.984   1.875
30956W        W 3282   1.941  24.060  14.018
30957W        W 3283  19.703  42.904   0.445
30958W        W 3284   9.179  20.093  10.988
30959W        W 3285  22.503  23.179  10.913
30960W        W 3286  35.365  39.809  11.606
30961W        W 3287  30.602   1.284   1.704
30962W        W 3288  17.729  10.837  14.019
30963W        W 3289   7.871  24.579  11.091
30964W        W 3290   1.915  26.635  14.894
30965W        W 3291   3.275  22.137   5.301
30966W        W 3292  44.877  12.815  14.987
30967W        W 3293  17.281   4.861  14.418
30968W        W 3294  38.508  14.600  12.974
30969W        W 3295  34.501  40.416  10.925
30970W        W 3296  28.678  21.080  12.974
30971W        W 3297  44.915  38.450   1.804
30972W        W 3298   6.386  38.931  11.100
30973W        W 3299  31.435  25.082  10.523
30974W        W 3300  21.565  10.329   0.366
30975W        W 3301   6.216   5.795   0.866
30976W        W 3302  35.955   0.398  13.836
30977W        W 3303  20.215  11.276   4.282
30978W        W 3304  18.746  21.244   4.229
30979W        W 3305  31.134   6.706   3.733
30980W        W 3306  20.625  38.881   2.408
30981W        W 3307  25.649   3.759   2.668
30982W        W 3308  11.336   0.377   0.299
30983W        W 3309  31.582  20.539  11.069
30984W        W 3310  25.078  44.958  11.602
30985W        W 3311  38.984   1.407  14.310
30986W        W 3312  40.509  32.909   3.733
30987W        W 3313  25.640  23.165   1.419
30988W        W 3314  31.587   0.425  13.951
30989W        W 3315   3.731  11.270   1.924
30990W        W 3316  40.317  24.036  14.028
30991W        W 3317  34.035  39.817   0.412
30992W        W 3318  16.678  26.681  12.540
30993W        W 3319  30.078  10.191   0.405
30994W        W 3320   1.283  42.345   3.770
30995W        W 3321  17.184  12.175  14.014
30996W        W 3322   2.463  12.315  14.787
30997W        W 3323   4.797  22.662   4.771
30998W        W 3324   1.358  21.109   1.243
30999W        W 3325  18.624  40.913  11.929
31000W        W 3326  33.467  39.499   3.803
31001W        W 3327  18.283   3.775  14.935
31002W        W 3328   6.739  39.009   1.253
31003W        W 3329  26.493  29.498  11.916
31004W        W 3330  19.226  19.709   3.287
31005W        W 3331  19.584   2.950   3.824
31006W        W 3332  40.014   9.318   2.853
31007W        W 3333   2.255  11.635   2.764
31008W        W 3334  17.565  15.229  13.895
31009W        W 3335  22.148  34.536  10.977
31010W        W 3336  29.663  37.544  14.419
31011W        W 3337  27.971  11.826   2.352
31012W        W 3338  41.803  13.678  13.440
31013W        W 3339   5.855  36.969   1.867
31014W        W 3340   8.239  12.133   4.710
31015W        W 3341   6.421  15.322   2.811
31016W        W 3342  21.660  18.206   5.283
31017W        W 3343  19.773   5.893  10.998
31018W        W 3344   9.287  21.068  13.867
31019W        W 3345  30.554  34.901  10.587
31020W        W 3346  22.745  19.628  10.090
31021W        W 3347  21.595  40.476   0.469
31022W        W 3348  35.581  10.242  13.313
31023W        W 3349  22.520  29.568   0.812
31024W        W 3350  12.645  30.146   3.380
31025W        W 3351  22.139  14.776  11.869
31026W        W 3352  40.966  19.147   2.876
31027W        W 3353  34.572  41.500   1.731
31028W        W 3354  32.598  28.164   1.840
31029W        W 3355  32.031  20.075   3.195
31030W        W 3356  39.904  28.454  11.076
31031W        W 3357  40.934  17.297  12.846
31032W        W 3358  11.251   0.483  13.887
31033W        W 3359   0.351  36.925  11.477
31034W        W 3360  17.640  30.035   0.275
31035W        W 3361  43.392  40.530  12.998
31036W        W 3362  18.767  40.319  14.856
31037W        W 3363  42.487  31.461  12.059
31038W        W 3364  34.058  16.664   0.754
31039W        W 3365  15.815  26.568   5.184
31040W        W 3366  27.577  13.303  11.998
31041W        W 3367   6.690  14.615  13.969
31042W        W 3368  10.749  12.290   3.174
31043W        W 3369  41.498  24.666   2.181
31044W        W 3370  10.764  42.387   4.831
31045W        W 3371  30.577  21.568  14.341
31046W        W 3372  38.930  29.538  13.398
31047W        W 3373  42.001  10.814  14.277
31048W        W 3374  14.178   6.885  14.470
31049W        W 3375  40.440  29.994   1.887
31050W        W 3376  25.031  16.264   3.748
31051W        W 3377  44.452  12.350   4.699
31052W        W 3378  22.196  12.302  10.420
31053W        W 3379  40.376  28.017   3.736
31054W        W 3380  38.552   9.308  10.408
31055W        W 3381   6.785  18.745  13.508
31056W        W 3382  17.564  39.887   3.342
31057W        W 3383   8.345   6.348  11.452
31058W        W 3384   8.879  17.755  11.896
31059W        W 3385  34.917  23.708   3.705
31060W        W 3386   8.331  22.674   3.223
31061W        W 3387  19.169  41.412  11.973
31062W        W 3388  16.691  15.264  10.410
31063W        W 3389  18.735   4.745  12.008
31064W        W 3390  12.829  24.196  13.361
31065W        W 3391  12.247  29.050   1.868
31066W        W 3392  38.898  12.662   4.832
31067W        W 3393  14.181  40.010   1.926
31068W        W 3394  10.317  13.761  12.580
31069W        W 3395  14.806  16.598  10.560
31070W        W 3396  14.831  27.446   0.420
31071W        W 3397   7.294  19.215   1.337
31072W        W 3398   8.744   3.745   1.710
31073W        W 3399  39.865  38.543   0.474
31074W        W 3400  24.050  16.108  14.849
31075W        W 3401  44.314  11.821  14.393
31076W        W 3402   1.363  23.645  13.516
31077W        W 3403  21.030  38.526   0.264
31078W        W 3404   8.744  27.030   1.300
31079W        W 3405  27.948  39.332   1.764
31080W        W 3406   5.842  19.224   3.796
31081W        W 3407  15.123  18.764   4.838
31082W        W 3408   8.305  42.507   1.847
31083W        W 3409  38.864  16.569  12.529
31084W        W 3410  26.149  40.508   2.777
31085W        W 3411  23.004  28.521  13.928
31086W        W 3412   1.250  23.049   3.665
31087W        W 3413  26.985  15.723   4.726
31088W        W 3414  44.381  41.331   3.839
31089W        W 3415  13.677   4.434  13.791
31090W        W 3416  40.528  41.032  11.940
31091W        W 3417  25.110  21.720   0.737
31092W        W 3418  34.437   2.893  13.524
31093W        W 3419   7.789  41.310   2.188
31094W        W 3420  10.792  31.048   0.268
31095W        W 3421  38.928   8.747   1.383
31096W        W 3422  42.933   1.818   0.807
31097W        W 3423  33.910   1.280   4.751
31098W        W 3424  37.347  23.033   0.464
31099W        W 3425   0.440  36.884  13.861
31100W        W 3426  11.220   5.260  12.042
31101W        W 3427   0.766  32.906  12.073
31102W        W 3428  41.794  35.999   1.381
31103W        W 3429  22.573  29.564   4.598
31104W        W 3430  32.562  35.372  12.882
31105W        W 3431  33.090  37.400  14.510
31106W        W 3432  24.607  21.226  11.492
31107W        W 3433  41.811  33.409   1.326
31108W        W 3434   0.785  33.121   3.295
31109W        W 3435  10.343   7.712  14.985
31110W        W 3436  40.841  18.232   1.342
31111W        W 3437   4.362   7.272   0.830
31112W        W 3438  21.568  26.063   0.476
31113W        W 3439  31.631  29.922   0.379
31114W        W 3440  40.799   2.244   1.721
31115W        W 3441  32.492  34.519   2.729
31116W        W 3442  33.083  24.075  13.455
31117W        W 3443   6.396  34.913   9.997
31118W        W 3444   7.715  13.734   0.769
31119W        W 3445   3.402  11.237  10.972
31120W        W 3446  36.090  34.921   1.367
31121W        W 3447  34.973  35.896   2.809
31122W        W 3448  31.916  42.470   4.279
31123W        W 3449  25.014  32.138  11.020
31124W        W 3450  20.766  15.822   0.788
31125W        W 3451  23.009  23.118  13.470
31126W        W 3452  43.507  17.109   0.890
31127W        W 3453  37.430  34.107  13.007
31128W        W 3454  32.626  36.985  10.957
31129W        W 3455   9.251  34.114   1.400
31130W        W 3456  17.631  30.011  13.994
31131W        W 3457  44.368  27.685   0.810
31132W        W 3458  44.808   0.906  13.497
31133W        W 3459  35.091  34.448   0.265
31134W        W 3460   4.426  35.885   0.293
31135W        W 3461  13.240  32.430   2.701
31136W        W 3462  28.468  40.417  11.019
31137W        W 3463  32.957  43.980  13.399
31138W        W 3464  36.422  34.915   5.186
31139W        W 3465  33.928  39.499  14.981
31140W        W 3466  37.060  20.074   4.656
31141W        W 3467  19.776   4.342  14.864
31142W        W 3468  26.698  43.474   1.812
31143W        W 3469  29.124  11.676   0.293
31144W        W 3470  30.157  30.551   0.357
31145W        W 3471   7.274  13.699   4.666
31146W        W 3472   6.741  28.569   1.897
31147W        W 3473  28.453  39.060   3.808
31148W        W 3474  43.015  29.143  14.020
31149W        W 3475  15.272  35.432  12.886
31150W        W 3476   9.278  19.685  12.067
31151W        W 3477  25.985  17.661   1.801
31152W        W 3478  34.424  34.991   4.793
31153W        W 3479  10.649  44.954   4.175
31154W        W 3480  34.950  35.997  14.435
31155W        W 3481  35.980  40.028   4.253
31156W        W 3482  39.314   1.366   3.226
31157W        W 3483  26.060   6.920   1.393
31158W        W 3484  25.041  37.024   2.860
31159W        W 3485  19.677   2.959   1.819
31160W        W 3486  34.031  23.611  14.505
31161W        W 3487  29.633  42.805   1.337
31162W        W 3488  43.334  41.354  14.919
31163W        W 3489   6.323   5.212  11.546
31164W        W 3490  36.959  26.692   2.697
31165W        W 3491  38.500  13.262  13.022
31166W        W 3492  26.119  13.792  13.325
31167W        W 3493   2.732  35.595  13.815
31168W        W 3494  37.006  43.477  13.864
31169W        W 3495  29.611   4.422  12.359
31170W        W 3496  30.115  37.963   0.428
31171W        W 3497  44.942  43.287   1.325
31172W        W 3498   4.337  39.940  13.921
31173W        W 3499  30.100  35.394  11.863
31174W        W 3500   2.844  39.355  14.894
31175W        W 3501  28.050  35.401  12.010
31176W        W 3502  18.742  24.643  14.475
31177W        W 3503  41.027  37.979  14.399
31178W        W 3504  37.887  22.557   3.268
31179W        W 3505   5.289  12.633   0.284
31180W        W 3506  38.450  43.963   3.838
31181W        W 3507  17.142  13.799   0.416
31182W        W 3508   3.947   1.311   4.215
31183W        W 3509  28.044  36.538  14.442
31184W        W 3510  43.456  22.671  14.764
31185W        W 3511  24.132   6.339  11.107
31186W        W 3512   3.423  37.454  12.367
31187W        W 3513  13.627   8.171  14.777
31188W        W 3514  43.283  22.180  11.372
31189W        W 3515  22.640  21.594  14.352
31190W        W 3516  14.122  27.104   1.298
31191W        W 3517  20.155   2.926   1.902
31192W        W 3518   5.759   8.732  12.373
31193W        W 3519  23.638  25.660   0.892
31194W        W 3520  30.647  12.166   1.274
31195W        W 3521   0.254  37.388   1.376
31196W        W 3522   2.305  36.553  10.452
31197W        W 3523   4.421  44.476   0.859
31198W        W 3524  13.624  25.511   1.256
31199W        W 3525  43.446  19.223   3.176
31200W        W 3526  23.594  17.166  10.603
31201W        W 3527  40.478  17.241  12.359
31202W        W 3528  31.053  37.479  10.474
31203W        W 3529  37.393  11.190   3.295
31204W        W 3530  23.658   7.780   1.283
31205W        W 3531  19.180  13.635  10.621
31206W        W 3532  31.061  16.266  14.952
31207W        W 3533  40.515  29.616   0.384
31208W        W 3534   3.441  41.529   2.754
31209W        W 3535  37.985   3.832   2.353
31210W        W 3536  15.612   4.237  13.924
31211W        W 3537   4.380  14.205   1.425
31212W        W 3538  31.036  31.127  11.995
31213W        W 3539  37.844  19.047  12.006
31214W        W 3540   1.451  11.693   1.356
31215W        W 3541  33.013  22.566   0.750
31216W        W 3542  25.029  13.149   2.274
31217W        W 3543   8.830  24.648  12.351
31218W        W 3544   9.667  24.984   2.671
31219W        W 3545  25.190   2.736  11.089
31220W        W 3546  42.487  39.859   2.308
31221W        W 3547  13.839  41.463   0.878
31222W        W 3548  16.695  17.624  10.469
31223W        W 3549   2.923   9.242   1.333
31224W        W 3550  42.306   1.923  12.461
31225W        W 3551  43.012  34.115   3.638
31226W        W 3552   0.982  21.693   3.785
31227W        W 3553  17.625  25.658  11.933
31228W        W 3554  39.964   2.240   0.466
31229W        W 3555  22.706  21.527  11.582
31230W        W 3556  15.765  25.086   4.695
31231W        W 3557  21.606  35.938   0.955
31232W        W 3558   4.720  25.178   4.748
31233W        W 3559  34.440  23.173   3.860
31234W        W 3560  30.493  15.739  11.941
31235W        W 3561  18.573  29.139   2.857
31236W        W 3562   8.768   9.321  12.989
31237W        W 3563  42.472  21.107   0.736
31238W        W 3564  24.140  35.868   3.241
31239W        W 3565  31.929  29.560   4.270
31240W        W 3566  15.292  35.510   1.369
31241W        W 3567  40.922  18.194  14.376
31242W        W 3568  36.580  12.672  14.958
31243W        W 3569  20.096  10.369  10.579
31244W        W 3570  13.632  23.679   2.234
31245W        W 3571  35.583  34.425  11.488
31246W        W 3572  29.657  22.601   4.716
31247W        W 3573  32.920  34.422  13.514
31248W        W 3574  30.155   2.955   1.434
31249W        W 3575  33.480  29.649  14.777
31250W        W 3576  38.065  19.055  12.442
31251W        W 3577   4.254  31.569  12.865
31252W        W 3578   6.700  24.123  11.018
31253W        W 3579  22.501  13.839  10.405
31254W        W 3580  38.886  40.959   3.216
31255W        W 3581  20.144  44.341   1.789
31256W        W 3582  40.513  18.734  14.792
31257W        W 3583  36.975  43.394   1.256
31258W        W 3584  31.526  10.781   0.421
31259W        W 3585  25.122   6.804  11.437
31260W        W 3586  19.125  34.600   1.821
31261W        W 3587   9.371  19.272  12.929
31262W        W 3588  32.974  15.779   4.666
31263W        W 3589  15.586  42.937  12.087
31264W        W 3590  34.478  23.226   0.373
31265W        W 3591   8.349  40.426  13.987
31266W        W 3592  21.672   5.242   1.446
31267W        W 3593  16.273  16.300   2.239
31268W        W 3594  41.015  19.643   1.270
31269W        W 3595  32.125  26.691  14.794
31270W        W 3596   6.287  12.235  11.026
31271W        W 3597  16.216  19.194   0.729
31272W        W 3598  44.471  27.596  11.416
31273W        W 3599   0.265  19.693  14.902
31274W        W 3600  27.562  33.914   4.194
31275W        W 3601  32.082  32.014   2.820
31276W        W 3602   9.374  29.015   4.682
31277W        W 3603  31.093  10.271   0.431
31278W        W 3604  32.980  10.320   2.719
31279W        W 3605  29.508   0.821  13.053
31280W        W 3606  43.923  39.978  14.428
31281W        W 3607  31.981  27.675   3.732
31282W        W 3608  26.663  23.013   3.682
31283W        W 3609  10.343  21.653  13.997
31284W        W 3610   4.841  36.506  10.105
31285W        W 3611  44.903  26.466  11.877
31286W        W 3612  15.823   3.954   5.242
31287W        W 3613  30.551  36.853   1.768
31288W        W 3614  10.311  41.897  12.532
31289W        W 3615   0.404  35.063  12.059
31290W        W 3616  34.395   7.326   2.896
31291W        W 3617  14.734  40.819  14.904
31292W        W 3618  31.572  27.030  13.947
31293W        W 3619   0.311  31.633   0.311
31294W        W 3620   9.705  35.457  12.516
31295W        W 3621  12.235  41.035   2.701
31296W        W 3622   7.210  16.651   0.406
31297W        W 3623  41.352   0.410  14.026
31298W        W 3624  28.609  32.487  12.470
31299W        W 3625  29.664  36.537  13.910
31300W        W 3626  27.033  37.909  12.055
31301W        W 3627  11.734  38.945   1.731
31302W        W 3628  35.559  32.531   4.116
31303W        W 3629  42.393  29.123   3.632
31304W        W 3630  38.496  10.363  12.064
31305W        W 3631  13.204   4.781   1.343
31306W        W 3632  35.442  31.053   2.759
31307W        W 3633  15.306   3.912   0.814
31308W        W 3634  19.755  28.177   0.394
31309W        W 3635   7.728  39.924   3.337
31310W        W 3636   9.352   0.854  12.835
31311W        W 3637  28.467  37.957  13.313
31312W        W 3638  38.821  27.605   0.954
31313W        W 3639  36.876  40.479  11.104
31314W        W 3640  43.880  33.960   0.249
31315W        W 3641   2.389  41.393  12.922
31316W        W 3642   6.738   4.768  14.828
31317W        W 3643  26.621  23.567  10.600
31318W        W 3644  26.581  39.884  12.365
31319W        W 3645  13.163  16.776   3.684
31320W        W 3646  28.164   5.845   4.260
31321W        W 3647  41.812   6.297   2.203
31322W        W 3648  14.694  44.436  10.523
31323W        W 3649  35.413  36.583   1.749
31324W        W 3650   0.337  24.164   0.421
31325W        W 3651  44.469  27.174  12.549
31326W        W 3652  43.452  30.119  13.423
31327W        W 3653  44.470  39.415   4.315
31328W        W 3654   1.408   5.266   4.789
31329W        W 3655  16.612  26.199   1.326
31330W        W 3656  43.818  21.035   3.181
31331W        W 3657  27.079  24.978  11.907
31332W        W 3658  22.723  33.519  11.959
31333W        W 3659  33.552   2.820  10.460
31334W        W 3660  37.362   1.284   0.729
31335W        W 3661  29.659  12.819   2.265
31336W        W 3662  18.613   5.263  13.310
31337W        W 3663  28.485  41.018   4.200
31338W        W 3664  16.175   3.806  14.276
31339W        W 3665  40.917  36.555  11.503
31340W        W 3666  25.200   3.747  14.365
31341W        W 3667  40.513  11.256  12.536
31342W        W 3668  35.879  42.994  10.539
31343W        W 3669   2.253  25.513   2.823
31344W        W 3670  10.743  30.659  11.870
31345W        W 3671   0.827  33.017   0.922
31346W        W 3672  16.264  24.999  10.964
31347W        W 3673  25.219  37.557   4.609
31348W        W 3674  24.721  22.240   3.188
31349W        W 3675  36.524  37.476  13.854
31350W        W 3676  39.951  31.547  14.374
31351W        W 3677  39.397  17.193  12.947
31352W        W 3678  37.902   6.785  10.909
31353W        W 3679   9.890  39.907   2.292
31354W        W 3680  28.543  12.349   3.219
31355W        W 3681  17.701  38.043   4.164
31356W        W 3682   9.758  37.533  13.036
31357W        W 3683  33.949   3.861  14.348
31358W        W 3684  40.349   9.784  10.456
31359W        W 3685  10.733  28.547   1.431
31360W        W 3686  25.994  13.249  11.960
31361W        W 3687  22.557  32.082  10.100
31362W        W 3688  25.178  30.497  11.997
31363W        W 3689   8.344   5.337   1.841
31364W        W 3690  40.427  25.186   3.321
31365W        W 3691  17.694   4.344   0.895
31366W        W 3692  14.835  40.431   2.408
31367W        W 3693   8.700   6.706   0.820
31368W        W 3694   4.817  41.343   3.750
31369W        W 3695  42.793  13.314  11.943
31370W        W 3696  22.515   4.914   3.787
31371W        W 3697  34.962   6.251  12.371
31372W        W 3698  24.031  21.513   3.295
31373W        W 3699  35.375  36.571  13.019
31374W        W 3700  15.207   0.492  10.552
31375W        W 3701  19.568  25.214  14.479
31376W        W 3702  29.089  35.891  13.507
31377W        W 3703  12.818  16.303   2.838
31378W        W 3704  39.883   8.830   3.325
31379W        W 3705   5.233  12.216  14.881
31380W        W 3706  10.671  20.731  14.811
31381W        W 3707  31.945  39.958  13.509
31382W        W 3708  37.838  16.110  11.124
31383W        W 3709   4.251  15.710   4.757
31384W        W 3710  28.608  39.969   1.225
31385W        W 3711  38.831   4.288  11.453
31386W        W 3712  31.147  42.379   3.646
31387W        W 3713  38.978  22.140   3.767
31388W        W 3714  25.603  35.893  10.448
31389W        W 3715   3.275  10.773   9.939
31390W        W 3716   2.380  35.415  14.794
31391W        W 3717   7.865  25.559  11.920
31392W        W 3718  25.164  22.614  11.918
31393W        W 3719  33.080  22.650  13.365
31394W        W 3720  26.961  43.356   1.250
31395W        W 3721  31.937  18.585   4.252
31396W        W 3722  38.434   2.898   0.819
31397W        W 3723   7.899  22.017  10.526
31398W        W 3724  29.097  10.821  14.892
31399W        W 3725  41.879  20.690  14.021
31400W        W 3726  15.599  28.933   9.937
31401W        W 3727  11.216  43.957   1.225
31402W        W 3728  30.469   2.235   3.821
31403W        W 3729   0.389  38.344  11.576
31404W        W 3730  21.539  17.174  10.480
31405W        W 3731  13.737  33.452  12.391
31406W        W 3732  33.531  19.099   3.697
31407W        W 3733  34.978  43.336   3.642
31408W        W 3734  15.584  42.862   4.199
31409W        W 3735  29.026  32.913  10.417
31410W        W 3736  13.693  32.938   5.253
31411W        W 3737   3.455  22.193  14.937
31412W        W 3738  18.120  13.310  14.416
31413W        W 3739  10.161  12.694  13.526
31414W        W 3740  32.624   6.375   1.828
31415W        W 3741  24.197  12.349  12.024
31416W        W 3742  34.566  11.305  12.408
31417W        W 3743  17.172  19.655  10.476
31418W        W 3744  13.179  37.480  14.415
31419W        W 3745   9.287  32.040  14.804
31420W        W 3746   5.805  31.493  12.083
31421W        W 3747  24.516  43.513  13.453
31422W        W 3748  12.318  28.629  10.638
31423W        W 3749  31.412  26.046  12.536
31424W        W 3750   0.399   2.879  12.035
31425W        W 3751  44.446   2.255   0.946
31426W        W 3752   5.220  26.142  12.994
31427W        W 3753  18.674   1.371   3.285
31428W        W 3754   1.366  31.504  11.934
31429W        W 3755   4.925  36.886  13.418
31430W        W 3756   4.425  44.294   4.138
31431W        W 3757   1.422  37.409  11.601
31432W        W 3758   5.394   7.772   4.186
31433W        W 3759  39.924  24.138   1.751
31434W        W 3760  38.833  39.397   2.810
31435W        W 3761  32.515  30.050  11.431
31436W        W 3762  26.648  33.956  11.405
31437W        W 3763   3.341  33.514   0.379
31438W        W 3764  20.198   1.920   2.868
31439W        W 3765  28.638  26.625   1.295
31440W        W 3766   4.894   5.338   3.812
31441W        W 3767  26.133  33.518   1.843
31442W        W 3768  28.010  36.924  10.644
31443W        W 3769  10.173   6.825  12.909
31444W        W 3770  39.360  42.812  14.396
31445W        W 3771   4.934  38.016  14.760
31446W        W 3772   9.290  15.644  14.004
31447W        W 3773   7.717   5.424   4.695
31448W        W 3774  14.738  10.203  12.889
31449W        W 3775  14.659  13.666  14.928
31450W        W 3776  27.486  24.086   0.960
31451W        W 3777  40.449  17.555  10.518
31452W        W 3778   6.327  10.376  10.996
31453W        W 3779  44.917  11.741   0.420
31454W        W 3780  43.918   5.231   4.699
31455W        W 3781   8.697   3.844   0.751
31456W        W 3782  34.004  12.735   1.264
31457W        W 3783  32.931  29.050  10.424
31458W        W 3784  41.306  14.109   2.675
31459W        W 3785  21.019  16.083   2.767
31460W        W 3786  34.107  25.098   1.232
31461W        W 3787  12.787   5.198  12.922
31462W        W 3788  11.351  35.102   0.857
31463W        W 3789   3.717  11.696   0.366
31464W        W 3790  27.077  17.575  12.390
31465W        W 3791  13.666  15.648   1.776
31466W        W 3792   9.682   5.878   3.252
31467W        W 3793  23.117  10.650  10.586
31468W        W 3794   4.233  17.168  10.937
31469W        W 3795  33.023  16.265  11.583
31470W        W 3796   1.375  43.505   4.261
31471W        W 3797   7.834  34.461  12.986
31472W        W 3798   5.880  13.324  14.887
31473W        W 3799  16.225  34.497   0.776
31474W        W 3800  32.901  15.648  10.525
31475W        W 3801  43.412  32.095   3.677
31476W        W 3802  35.527  19.229   1.875
31477W        W 3803  30.119   3.913  11.387
31478W        W 3804  39.059  19.553   3.287
31479W        W 3805   5.845  31.956  11.046
31480W        W 3806  10.792  34.502  11.090
31481W        W 3807  24.566  39.435  12.989
31482W        W 3808  23.059  22.054  12.410
31483W        W 3809  17.084  38.012   4.216
31484W        W 3810  36.435  10.299   2.714
31485W        W 3811  25.588  35.866   3.807
31486W        W 3812  27.632  41.387  11.902
31487W        W 3813  15.658  19.194  11.890
31488W        W 3814  14.663  11.636   3.784
31489W        W 3815  34.600  37.378  13.423
31490W        W 3816  26.590  27.116   5.241
31491W        W 3817  35.532  33.401   2.698
31492W        W 3818  26.171  37.987   3.252
31493W        W 3819   7.299  31.931  14.866
31494W        W 3820  19.190  18.672  11.864
31495W        W 3821  37.575  21.736  14.310
31496W        W 3822  42.898  30.918   3.211
31497W        W 3823  16.674   3.384  13.005
31498W        W 3824  19.612   9.668  13.917
31499W        W 3825  39.451  33.421   1.290
31500W        W 3826   7.787  30.592  12.907
31501W        W 3827  10.715  33.454   3.771
31502W        W 3828   5.225   3.775  12.574
31503W        W 3829  37.971  25.577   1.242
31504W        W 3830   5.718  26.993  13.459
31505W        W 3831   1.461  30.657   1.429
31506W        W 3832  11.821  24.072  10.976
31507W        W 3833  12.703  22.188   1.322
31508W        W 3834  15.818  33.932   1.245
31509W        W 3835  38.438  16.156  13.420
31510W        W 3836  10.795  42.411   0.470
31511W        W 3837  29.549  20.267  11.520
31512W        W 3838  18.748  44.443   2.789
31513W        W 3839   1.414  39.385  11.875
31514W        W 3840  15.134  25.028  10.978
31515W        W 3841  14.314  25.473   9.940
31516W        W 3842  33.533  36.865   3.240
31517W        W 3843   7.315   1.921  11.470
31518W        W 3844   4.766  33.398  13.409
31519W        W 3845   4.787   6.364   1.385
31520W        W 3846  29.961  30.153  14.884
31521W        W 3847  18.199  41.534   3.821
31522W        W 3848  10.732  28.624   1.918
31523W        W 3849   2.457   5.313  13.373
31524W        W 3850  15.728  13.723  11.915
31525W        W 3851  14.599  36.924  14.907
31526W        W 3852   4.442   5.255   0.759
31527W        W 3853  26.512  14.250  10.495
31528W        W 3854  29.029  10.198   3.707
31529W        W 3855  37.873   2.909   1.816
31530W        W 3856  14.675  31.448  14.924
31531W        W 3857   9.713  33.041   4.301
31532W        W 3858  31.142   5.319  10.527
31533W        W 3859  13.239  32.949   5.718
31534W        W 3860   7.264  24.227  12.416
31535W        W 3861  32.122  18.073  13.946
31536W        W 3862  40.547  12.645  14.011
31537W        W 3863  13.766  24.035   1.351
31538W        W 3864  43.772  34.578  14.920
31539W        W 3865  24.145   2.450  14.802
31540W        W 3866  24.090  16.150   4.738
31541W        W 3867  13.780  13.820  14.982
31542W        W 3868  36.909  17.571   0.450
31543W        W 3869  21.711  39.965  10.619
31544W        W 3870   5.758   9.722  14.385
31545W        W 3871  11.229   3.763   3.654
31546W        W 3872  30.655  40.928   2.714
31547W        W 3873   4.764   8.357  13.914
31548W        W 3874   5.216  26.536  13.820
31549W        W 3875  11.328  20.262  12.838
31550W        W 3876  24.027   5.765  12.970
31551W        W 3877  32.531  34.985  12.432
31552W        W 3878  43.944  12.822   1.210
31553W        W 3879  31.615  44.490   3.356
31554W        W 3880  35.544  40.918   2.384
31555W        W 3881  20.574  24.015  14.759
31556W        W 3882  13.644  14.711   3.681
31557W        W 3883  13.155  39.996  13.455
31558W        W 3884  17.198  39.065  14.025
31559W        W 3885  15.755  29.985  10.514
31560W        W 3886  20.759  28.115   0.832
31561W        W 3887  35.496  41.359  10.888
31562W        W 3888  44.282   4.334   9.939
31563W        W 3889   6.885   8.740   3.186
31564W        W 3890  22.682  15.267  11.073
31565W        W 3891  10.815  22.745   2.701
31566W        W 3892  39.513  10.664  10.428
31567W        W 3893  24.998  33.987   3.865
31568W        W 3894  44.319  43.502  13.048
31569W        W 3895  34.103  26.527   0.383
31570W        W 3896  22.578  27.071   3.656
31571W        W 3897  16.658  30.541  10.623
31572W        W 3898  34.412  24.630  13.309
31573W        W 3899  20.267   0.342  14.445
31574W        W 3900  11.722  31.595   0.928
31575W        W 3901  28.999   1.265   3.363
31576W        W 3902  14.669  26.021  12.063
31577W        W 3903   9.713   4.376   0.383
31578W        W 3904  19.636   4.242  10.614
31579W        W 3905  13.816  22.151   2.286
31580W        W 3906   7.734  40.039  10.628
31581W        W 3907  10.741  22.645  13.335
31582W        W 3908   4.427  21.686  10.894
31583W        W 3909  24.096  28.023   5.262
31584W        W 3910  27.138  17.601  12.087
31585W        W 3911  38.459   4.809   0.337
31586W        W 3912  30.957   0.292   5.251
31587W        W 3913  22.140   8.332   4.734
31588W        W 3914  15.672   8.882   4.234
31589W        W 3915   4.369   6.732   1.441
31590W        W 3916   6.333   0.324   0.843
31591W        W 3917  31.622  44.319  14.878
31592W        W 3918  42.032  26.653   3.702
31593W        W 3919   9.153  37.984  11.503
31594W        W 3920  41.465  13.294  12.865
31595W        W 3921  22.038   0.961   1.261
31596W        W 3922  19.652   8.791  13.047
31597W        W 3923  20.267  33.426   2.745
31598W        W 3924  12.805  43.447  14.952
31599W        W 3925  44.820  26.967  14.986
31600W        W 3926   8.377  19.724  11.016
31601W        W 3927  26.959   5.298   2.330
31602W        W 3928   2.409  40.914  10.443
31603W        W 3929  17.602  11.779   0.742
31604W        W 3930   2.379  43.898   0.278
31605W        W 3931  44.934  21.583   1.250
31606W        W 3932   4.442   4.812   1.285
31607W        W 3933  28.582  44.915  10.902
31608W        W 3934  29.980  36.930  11.419
31609W        W 3935  38.438   2.788  14.889
31610W        W 3936  24.675  35.414   1.340
31611W        W 3937  21.214  32.463  12.888
31612W        W 3938  31.544  10.804  12.911
31613W        W 3939  24.108  24.625   4.165
31614W        W 3940  23.718  44.774   3.821
31615W        W 3941   7.679  30.101   3.387
31616W        W 3942  25.600  32.539  11.035
31617W        W 3943  24.218  40.887  12.062
31618W        W 3944   0.257  28.018   2.299
31619W        W 3945  38.995   3.868   0.885
31620W        W 3946   7.689   9.373   3.374
31621W        W 3947  36.846   3.771  12.890
31622W        W 3948   1.910  30.498   1.914
31623W        W 3949   4.902  19.241   1.449
31624W        W 3950  42.295  25.631  13.924
31625W        W 3951  20.561  16.649  13.935
31626W        W 3952   8.688  36.917  11.941
31627W        W 3953  37.351  12.358   1.778
31628W        W 3954  24.652  20.705   1.246
31629W        W 3955  11.646   0.927   1.916
31630W        W 3956  30.433   9.302   2.686
31631W        W 3957  36.564   8.326  14.857
31632W        W 3958  19.716  36.571   4.250
31633W        W 3959  24.709  17.235   0.842
31634W        W 3960   7.177  23.508   4.294
31635W        W 3961   1.333  13.346   0.268
31636W        W 3962  20.695  14.639   0.301
31637W        W 3963  29.133   4.379  14.315
31638W        W 3964  41.409  26.584  14.504
31639W        W 3965  44.264  40.864   3.281
31640W        W 3966  42.410  35.492  10.405
31641W        W 3967   7.354  11.855  12.962
31642W        W 3968  35.091   0.329  13.861
31643W        W 3969  38.014  33.548   0.243
31644W        W 3970  43.847  12.323   1.860
31645W        W 3971   8.782  22.189  13.404
31646W        W 3972  41.449   3.379  14.015
31647W        W 3973  37.459  35.866   0.455
31648W        W 3974  39.361  35.054  10.586
31649W        W 3975  31.528   6.711  13.423
31650W        W 3976  38.897  31.122  10.452
31651W        W 3977  17.297  36.364   2.746
31652W        W 3978  18.774  19.207   0.321
31653W        W 3979  34.016  28.439   4.741
31654W        W 3980  38.398  22.568   3.767
31655W        W 3981  14.821   1.900  13.466
31656W        W 3982  26.625  10.781   3.705
31657W        W 3983  43.489  44.381   0.466
31658W        W 3984  18.091  37.995  12.922
31659W        W 3985  19.598  40.315  10.459
31660W        W 3986  12.828   8.884  13.921
31661W        W 3987  35.906  27.526  12.949
31662W        W 3988   0.837  23.999  10.550
31663W        W 3989  11.282   5.887   1.389
31664W        W 3990  39.965   3.371   1.267
31665W        W 3991  26.958  19.086   2.292
31666W        W 3992  20.588  42.827  14.396
31667W        W 3993  29.075  19.266  14.414
31668W        W 3994   0.968  23.240   0.789
31669W        W 3995   1.249  16.651  12.382
31670W        W 3996  38.861  31.484  10.599
31671W        W 3997  40.820  34.921   2.823
31672W        W 3998  10.755  28.007  11.121
31673W        W 3999  20.741  12.156   0.284
31674W        W 4000   1.426  22.717  11.115
31675W        W 4001   8.276  26.656  14.384
31676W        W 4002  44.320  41.358  11.536
31677W        W 4003  22.684  18.175   4.612
31678W        W 4004  42.307   2.939   2.729
31679W        W 4005  40.843  26.596   3.363
31680W        W 4006  11.237  33.493   3.373
31681W        W 4007  14.277  20.131  13.315
31682W        W 4008   1.818  14.825  10.481
31683W        W 4009  20.137  31.472   4.775
31684W        W 4010  17.275  25.633   2.815
31685W        W 4011  22.716   8.782   1.240
31686W        W 4012   1.799  40.352   2.678
31687W        W 4013  17.799  21.709   2.336
31688W        W 4014  19.197  22.738  10.435
31689W        W 4015  27.652  19.189  14.777
31690W        W 4016   2.325   1.898   3.335
31691W        W 4017  13.350  43.405   4.818
31692W        W 4018  11.290   9.851  14.776
31693W        W 4019  28.061   4.409   4.266
31694W        W 4020  23.084  39.969  11.890
31695W        W 4021   3.901  12.693  13.979
31696W        W 4022  23.605   5.879  14.888
31697W        W 4023  31.548   8.885  14.780
31698W        W 4024  41.937   5.711  11.979
31699W        W 4025  18.288  43.515   2.231
31700W        W 4026  30.938  23.678   3.239
31701W        W 4027  34.867   6.215   4.218
31702W        W 4028  21.680  19.657  12.081
31703W        W 4029  35.059   5.906  11.940
31704W        W 4030  44.764  17.601  10.599
31705W        W 4031  27.634  42.918   4.156
31706W        W 4032  33.123  13.343   1.873
31707W        W 4033  43.840  24.515   4.344
31708W        W 4034  10.707  18.276   0.462
31709W        W 4035   2.866  15.679   4.249
31710W        W 4036  11.817  40.917   1.307
31711W        W 4037  20.216   5.323  12.981
31712W        W 4038  25.481  31.427   4.276
31713W        W 4039  18.052  36.477   2.405
31714W        W 4040  11.186   4.358  11.971
31715W        W 4041   6.680  31.123  12.962
31716W        W 4042  34.529   5.931  14.417
31717W        W 4043  22.172  32.096  12.830
31718W        W 4044  14.801  36.850   0.256
31719W        W 4045  27.586  31.089  14.498
31720W        W 4046  36.590  27.139   0.882
31721W        W 4047  18.734  40.913  10.510
31722W        W 4048  43.321  34.568  11.094
31723W        W 4049  31.417  15.668   3.740
31724W        W 4050  25.594  38.959   1.238
31725W        W 4051  19.141  24.170   4.744
31726W        W 4052  13.737  26.628  14.307
31727W        W 4053  18.131  29.636  12.410
31728W        W 4054  16.760  11.724   4.641
31729W        W 4055   8.812  10.345  11.090
31730W        W 4056  39.847  39.536   0.310
31731W        W 4057   5.808  18.606  12.093
31732W        W 4058   8.388  12.359  10.628
31733W        W 4059  19.253   8.847   2.717
31734W        W 4060   5.930  23.668   2.793
31735W        W 4061  21.062  20.148  14.278
31736W        W 4062  29.118   9.678  12.425
31737W        W 4063  13.148  13.320  13.426
31738W        W 4064  40.898  11.367  10.910
31739W        W 4065   6.758  31.586   1.829
31740W        W 4066   9.687   8.743   5.197
31741W        W 4067  19.639   3.395  14.449
31742W        W 4068  34.589  39.888   3.715
31743W        W 4069  27.628   7.666   4.330
31744W        W 4070   6.217  34.910   0.313
31745W        W 4071  38.457  31.648  11.998
31746W        W 4072  41.967  21.733  13.936
31747W        W 4073  35.381   4.737  13.336
31748W        W 4074   1.325   1.796   5.158
31749W        W 4075  17.276  44.759  11.502
31750W        W 4076  23.719   8.334   4.341
31751W        W 4077  38.944  20.098   0.288
31752W        W 4078  16.118   7.270   4.215
31753W        W 4079  18.653  16.583  12.069
31754W        W 4080   2.953  31.947   0.829
31755W        W 4081  15.680  33.508   4.618
31756W        W 4082  11.339  38.426  13.827
31757W        W 4083  19.113   1.385  14.014
31758W        W 4084   7.742  41.353   0.261
31759W        W 4085   8.845   7.827   2.203
31760W        W 4086  18.659  43.487   2.701
31761W        W 4087   5.247  39.038  12.837
31762W        W 4088  37.889  22.714   3.758
31763W        W 4089  43.799   5.883   2.758
31764W        W 4090   9.728  43.445   3.831
31765W        W 4091  42.303  33.475   4.617
31766W        W 4092  26.477   8.385  11.072
31767W        W 4093   6.243   2.733  14.389
31768W        W 4094  36.591  41.447  13.018
31769W        W 4095   1.244   5.882  13.995
31770W        W 4096  34.111  14.682  12.551
31771W        W 4097  43.794  10.189   3.350
31772W        W 4098  33.550   1.290  14.431
31773W        W 4099  15.205  35.437   4.782
31774W        W 4100  30.093  36.957   1.371
31775W        W 4101  22.075  43.984   1.434
31776W        W 4102  21.139  28.579  14.823
31777W        W 4103  43.471  20.724   1.816
31778W        W 4104  12.839  23.077  10.405
31779W        W 4105  36.381   4.390   2.409
31780W        W 4106  23.058  10.229   1.888
31781W        W 4107   9.194  14.160  11.467
31782W        W 4108  23.179  13.606  12.490
31783W        W 4109   7.854  12.687  11.114
31784W        W 4110   8.872  18.281   4.838
31785W        W 4111  18.071   2.768  14.325
31786W        W 4112  29.451  38.969   4.781
31787W        W 4113  29.086   4.767   2.843
31788W        W 4114  40.418   9.763  14.504
31789W        W 4115  13.132  37.867  12.571
31790W        W 4116  19.653  34.474   2.663
31791W        W 4117  27.073  28.547   3.239
31792W        W 4118  24.130  11.174  10.419
31793W        W 4119  23.660  34.885   4.334
31794W        W 4120  15.688  36.445  12.924
31795W        W 4121  20.136  30.912   2.740
31796W        W 4122   7.356  16.127   2.334
31797W        W 4123  18.584  33.443   1.825
31798W        W 4124  19.053  16.645   1.890
31799W        W 4125  32.611  20.189   1.236
31800W        W 4126   6.376  24.676  11.519
31801W        W 4127   6.864  41.995  13.428
31802W        W 4128  15.622  38.333  11.509
31803W        W 4129  15.695  43.876  12.358
31804W        W 4130  32.091  35.567  14.860
31805W        W 4131  44.292  42.481   3.721
31806W        W 4132  37.062  23.566  14.023
31807W        W 4133  24.164  41.394  10.607
31808W        W 4134  12.337  17.800  12.014
31809W        W 4135  24.610  30.132  10.569
31810W        W 4136  14.309  14.754  11.392
31811W        W 4137  18.657  31.509   4.667
31812W        W 4138  38.009  27.110  13.898
31813W        W 4139  13.193  37.960  11.374
31814W        W 4140  43.382   8.801  12.541
31815W        W 4141  26.564  37.408  14.794
31816W        W 4142   2.741  20.034   0.882
31817W        W 4143  31.913  42.821  10.046
31818W        W 4144  27.524  13.762   1.761
31819W        W 4145   0.360  10.834   4.602
31820W        W 4146  25.526  28.615   3.765
31821W        W 4147  21.710  26.691   1.790
31822W        W 4148   2.269  27.142   3.286
31823W        W 4149  23.634  36.075  12.529
31824W        W 4150   1.855   7.696   3.278
31825W        W 4151  27.054  13.221  13.964
31826W        W 4152  25.508  32.619  11.464
31827W        W 4153  28.626  10.166  12.452
31828W        W 4154  37.949  28.037   3.806
31829W        W 4155   5.762  10.229  12.506
31830W        W 4156  37.967  29.011  10.889
31831W        W 4157  14.684  33.933  12.985
31832W        W 4158  17.604  38.539   2.837
31833W        W 4159  10.709  26.459  10.014
31834W        W 4160   1.262  17.644  14.965
31835W        W 4161  36.445  17.678  11.400
31836W        W 4162  30.459  26.664   1.835
31837W        W 4163   4.315  16.738  10.413
31838W        W 4164   1.388  43.335   0.479
31839W        W 4165  12.711  28.600   2.695
31840W        W 4166   9.364  39.548  11.449
31841W        W 4167   6.782  34.031  11.450
31842W        W 4168   3.371  10.274  13.849
31843W        W 4169  41.292  11.696   0.317
31844W        W 4170  17.744   5.739  11.411
31845W        W 4171  16.600  34.411  11.545
31846W        W 4172  30.980   2.279   1.247
31847W        W 4173  14.280  13.842   1.375
31848W        W 4174  43.378   3.423  10.460
31849W        W 4175   8.755   8.222   2.252
31850W        W 4176  11.190  29.053   1.290
31851W        W 4177   8.239  29.918  12.536
31852W        W 4178  28.146  11.136   4.766
31853W        W 4179   2.758  42.344   3.665
31854W        W 4180   3.368   2.866  14.298
31855W        W 4181  21.231  42.390   0.360
31856W        W 4182  33.991  32.412   4.803
31857W        W 4183  19.567  29.922  10.437
31858W        W 4184   2.339  13.296   5.242
31859W        W 4185  25.635   9.667   4.304
31860W        W 4186  35.945   8.667  14.031
31861W        W 4187  24.583  43.818   3.658
31862W        W 4188  41.941  37.870   2.703
31863W        W 4189  41.978  38.075  10.552
31864W        W 4190  27.119  42.856   5.279
31865W        W 4191  23.050   9.813   1.865
31866W        W 4192  18.128  36.928   1.875
31867W        W 4193  21.652  37.941  12.040
31868W        W 4194  22.657   4.904  14.445
31869W        W 4195  28.510   8.253   1.244
31870W        W 4196  27.990   9.772   2.671
31871W        W 4197  30.527   2.919  11.509
31872W        W 4198  12.196  35.584   3.665
31873W        W 4199  35.578   8.318   4.730
31874W        W 4200  33.556  28.092   2.253
31875W        W 4201   0.844  13.223  11.009
31876W        W 4202  33.472  21.093  12.568
31877W        W 4203  43.328  43.910   1.882
31878W        W 4204   1.867  26.465   4.336
31879W        W 4205   5.200  17.580   1.915
31880W        W 4206  33.400  32.529   4.761
31881W        W 4207   9.761  34.878   3.737
31882W        W 4208  37.440  32.417  11.579
31883W        W 4209   9.286  13.110  12.476
31884W        W 4210   8.848  15.819  13.512
31885W        W 4211  22.230  24.999  10.927
31886W        W 4212  24.058  19.061   0.910
31887W        W 4213   3.340   5.431   2.666
31888W        W 4214  19.722  26.558  10.149
31889W        W 4215  37.838  40.987  13.002
31890W        W 4216  39.928  32.538  10.924
31891W        W 4217  34.110  32.563   4.200
31892W        W 4218  20.745  20.184   0.814
31893W        W 4219  14.314  44.416   0.347
31894W        W 4220  25.104  15.121   5.661
31895W        W 4221   8.348   2.468   4.801
31896W        W 4222  11.230  28.530   2.718
31897W        W 4223  29.962  40.885  12.057
31898W        W 4224  28.509   1.392  12.921
31899W        W 4225  18.050  11.172  14.784
31900W        W 4226   1.857  14.595  14.931
31901W        W 4227  35.102  32.620   4.657
31902W        W 4228  37.431  28.964   2.371
31903W        W 4229  22.514   2.471  14.395
31904W        W 4230  28.138  41.481   3.849
31905W        W 4231  36.937  42.474  14.442
31906W        W 4232  25.072   6.727  12.892
31907W        W 4233   0.962  34.973   3.827
31908W        W 4234  23.231  10.221   2.775
31909W        W 4235  39.483  19.685   2.212
31910W        W 4236  28.671   7.749   0.286
31911W        W 4237  23.049  11.687  11.102
31912W        W 4238  14.314  28.184   3.156
31913W        W 4239  38.852  43.396   4.343
31914W        W 4240  31.498  16.162  12.905
31915W        W 4241   1.466  17.247  14.483
31916W        W 4242  13.618  25.595   0.318
31917W        W 4243   9.318  25.169  14.355
31918W        W 4244  23.107  10.329   4.328
31919W        W 4245   7.812  25.145  10.459
31920W        W 4246  13.803  44.321   3.327
31921W        W 4247   4.301  14.596   2.383
31922W        W 4248  39.351  26.026  10.474
31923W        W 4249  30.620   4.430  12.928
31924W        W 4250  24.695   8.282  14.474
31925W        W 4251  38.006   0.292  11.101
31926W        W 4252  23.234  19.726   4.777
31927W        W 4253   8.248   2.763   4.716
31928W        W 4254   6.729  20.551  14.370
31929W        W 4255  33.428  10.754   4.283
31930W        W 4256   6.829  13.132   1.282
31931W        W 4257  38.891  40.321   0.861
31932W        W 4258  36.975  42.874  10.447
31933W        W 4259  22.229  32.556  11.536
31934W        W 4260  34.033  17.611  11.120
31935W        W 4261  25.496  10.830   2.681
31936W        W 4262   2.955  33.040  12.551
31937W        W 4263  20.176  34.572  12.826
31938W        W 4264   1.789  36.529  11.941
31939W        W 4265  33.525  12.172   2.678
31940W        W 4266  36.945  35.007   4.196
31941W        W 4267  16.806  26.143  14.024
31942W        W 4268  14.673  27.055   1.850
31943W        W 4269  21.743   7.786  11.968
31944W        W 4270   4.791   8.815   3.322
31945W        W 4271  15.137  38.843  11.048
31946W        W 4272  16.165  37.849  12.970
31947W        W 4273  39.364  26.603   4.175
31948W        W 4274  34.918  28.567  13.798
31949W        W 4275  23.036  42.335  10.427
31950W        W 4276  14.098  25.210   1.877
31951W        W 4277  42.459  24.665   0.452
31952W        W 4278  15.632  33.066  13.056
31953W        W 4279  24.542  27.514   1.287
31954W        W 4280  17.631  44.887   0.733
31955W        W 4281  31.636  10.756  14.796
31956W        W 4282  20.645  39.002  13.926
31957W        W 4283   5.327  42.850   3.822
31958W        W 4284  27.058  14.141   0.279
31959W        W 4285   8.659   5.701  11.483
31960W        W 4286  31.622  36.033  10.608
31961W        W 4287   3.384  16.260  13.871
31962W        W 4288  42.818  24.090  11.890
31963W        W 4289  10.344  41.805  13.821
31964W        W 4290   8.377  40.972   0.299
31965W        W 4291   9.786  32.959  13.015
31966W        W 4292  33.516  44.428  14.944
31967W        W 4293  13.130  16.098  13.994
31968W        W 4294   4.238  42.499   3.658
31969W        W 4295   4.392   9.225  14.444
31970W        W 4296   8.191  15.113  14.954
31971W        W 4297  27.189   0.780  11.061
31972W        W 4298  39.432  10.198  12.049
31973W        W 4299   9.284  31.523  14.890
31974W        W 4300  21.719  18.110  11.976
31975W        W 4301  26.127  13.686   0.885
31976W        W 4302  19.242  36.518  10.989
31977W        W 4303  20.160   7.322  14.280
31978W        W 4304   7.859  19.269   0.383
31979W        W 4305   6.210   9.150   1.700
31980W        W 4306  29.579  41.875   0.891
31981W        W 4307  25.700  16.813   0.893
31982W        W 4308  35.103  44.483  13.451
31983W        W 4309  16.264  25.206   1.772
31984W        W 4310  31.141  27.120  14.516
31985W        W 4311  26.085  25.594   1.313
31986W        W 4312   0.369  24.077  11.443
31987W        W 4313  16.656   0.399  14.348
31988W        W 4314   3.437  13.755  13.449
31989W        W 4315  33.625  16.710  14.784
31990W        W 4316  22.604  44.375  11.916
31991W        W 4317   4.914  25.532  12.563
31992W        W 4318  17.277  32.429  13.880
31993W        W 4319  18.736  40.369  13.842
31994W        W 4320   4.230   7.725  11.872
31995W        W 4321  28.027  36.481   0.787
31996W        W 4322  23.499  38.054   2.284
31997W        W 4323  37.937   8.817  13.542
31998W        W 4324  11.847  38.024  13.060
31999W        W 4325  21.151  17.767  14.383
32000W        W 4326  30.641  10.736   3.644
32001W        W 4327  40.503  30.927  11.381
32002W        W 4328   2.826  16.279   3.174
32003W        W 4329  22.679  10.696   4.795
32004W        W 4330  22.239   7.281  11.121
32005W        W 4331  18.237  33.590   2.277
32006W        W 4332  35.933  18.616  12.377
32007W        W 4333  14.116  22.643  14.822
32008W        W 4334  10.699   8.319   0.788
32009W        W 4335  38.953  16.214   4.753
32010W        W 4336  26.133  27.572   1.926
32011W        W 4337  10.159  39.029  12.084
32012W        W 4338   8.886  13.158   0.351
32013W        W 4339  35.979   2.865   4.151
32014W        W 4340   5.237  37.833  11.390
32015W        W 4341  32.478  15.625  14.395
32016W        W 4342   5.788   1.273  10.942
32017W        W 4343  14.684  42.879  12.892
32018W        W 4344  35.437  31.065   3.230
32019W        W 4345  25.577  24.193  14.374
32020W        W 4346  14.127   6.188   3.251
32021W        W 4347  36.990  37.456  14.485
32022W        W 4348  38.920  23.638   1.835
32023W        W 4349  27.446  20.628   4.276
32024W        W 4350   5.336  38.996   4.669
32025W        W 4351  32.430  44.402  13.507
32026W        W 4352  39.987  39.948   4.726
32027W        W 4353  44.853  23.632   1.786
32028W        W 4354  16.225  14.251  14.422
32029W        W 4355  33.998  37.438  13.821
32030W        W 4356  32.475  30.124  14.510
32031W        W 4357   5.389  11.137  10.530
32032W        W 4358  19.201  35.577   4.780
32033W        W 4359  25.185  43.468  10.568
32034W        W 4360  27.562  35.366   0.840
32035W        W 4361   0.304  14.107   4.617
32036W        W 4362   6.252  40.376  14.297
32037W        W 4363  25.135  15.680  13.419
32038W        W 4364  41.367  10.287  10.594
32039W        W 4365  22.725  23.228   1.709
32040W        W 4366  33.438  44.482   1.849
32041W        W 4367  36.915   3.433  14.004
32042W        W 4368  37.948  34.904   3.306
32043W        W 4369  12.654  26.133  14.894
32044W        W 4370  23.717   7.233  14.379
32045W        W 4371  32.457  31.482   1.804
32046W        W 4372   2.391  10.236   9.975
32047W        W 4373  18.140  20.045  10.431
32048W        W 4374  33.608  15.625   0.347
32049W        W 4375  24.538  40.985  11.438
32050W        W 4376  10.250   7.184  14.980
32051W        W 4377  22.111  16.154  13.909
32052W        W 4378   5.422   4.420   0.962
32053W        W 4379  24.096  12.727  12.364
32054W        W 4380  41.887  35.461  12.417
32055W        W 4381  31.481  18.667   2.322
32056W        W 4382  19.761  39.885  12.844
32057W        W 4383  30.636  15.183  14.897
32058W        W 4384  10.771  23.206   2.859
32059W        W 4385  32.464  32.396  12.532
32060W        W 4386  30.936  32.494   1.351
32061W        W 4387  19.267  35.085   2.801
32062W        W 4388  38.561  30.048  11.885
32063W        W 4389   1.971  11.302  14.963
32064W        W 4390   4.779  19.239   4.625
32065W        W 4391  29.953  33.896  12.536
32066W        W 4392  18.058  39.015   1.356
32067W        W 4393  38.841  10.367  13.378
32068W        W 4394  25.693  20.153   4.182
32069W        W 4395  22.163  14.774  13.887
32070W        W 4396  13.332  40.416  14.474
32071W        W 4397  32.443  13.207  13.438
32072W        W 4398  10.378  21.643   0.417
32073W        W 4399  35.453   6.898  13.396
32074W        W 4400  16.273   7.861  12.034
32075W        W 4401   9.243  23.572  12.978
32076W        W 4402  36.460  24.500   3.216
32077W        W 4403  27.469  35.358   3.680
32078W        W 4404  32.951  41.337   4.768
32079W        W 4405   0.861  27.646  12.387
32080W        W 4406   3.241   8.684   2.208
32081W        W 4407  28.652   7.399   3.188
32082W        W 4408  41.293  19.062  11.127
32083W        W 4409  25.491  11.637  13.999
32084W        W 4410  13.828   7.858   0.246
32085W        W 4411  12.750  34.610   1.713
32086W        W 4412  31.058  36.551  11.553
32087W        W 4413  10.188  43.422  11.884
32088W        W 4414  41.470  10.366  11.974
32089W        W 4415   1.769  12.673   2.338
32090W        W 4416  24.191  18.630   9.547
32091W        W 4417   6.392   7.773  14.351
32092W        W 4418  21.251  43.848  13.443
32093W        W 4419  34.095  28.577   0.823
32094W        W 4420  25.559   2.337   0.352
32095W        W 4421  17.148   9.674  11.961
32096W        W 4422  30.126  27.650   1.217
32097W        W 4423  21.733   4.349   1.325
32098W        W 4424  23.717  32.448  12.845
32099W        W 4425   2.357  15.306   0.406
32100W        W 4426  31.150  36.529   0.447
32101W        W 4427  16.303  20.565   0.291
32102W        W 4428  34.060  16.729  12.885
32103W        W 4429  24.002  36.064   1.255
32104W        W 4430  13.322  24.059   1.782
32105W        W 4431  16.241  34.446  14.316
32106W        W 4432  10.170  13.232   4.201
32107W        W 4433  28.034  41.957   2.332
32108W        W 4434  22.023  10.709  12.034
32109W        W 4435  21.098  18.561   2.859
32110W        W 4436   1.480  25.615   3.649
32111W        W 4437  34.055  35.507  10.472
32112W        W 4438  16.690  42.392  13.854
32113W        W 4439  14.147  28.056  14.812
32114W        W 4440  23.640  24.529   2.406
32115W        W 4441  22.196  17.304   2.728
32116W        W 4442  14.219  34.402  10.130
32117W        W 4443   7.351  19.751   3.280
32118W        W 4444   3.716  13.243  10.549
32119W        W 4445  14.326   5.878  14.456
32120W        W 4446  21.735   8.897  14.484
32121W        W 4447  28.555  20.725  14.341
32122W        W 4448  22.009  30.540  14.303
32123W        W 4449  19.674  39.923   1.813
32124W        W 4450  17.790  23.543   1.303
32125W        W 4451   0.898  27.185  11.015
32126W        W 4452  27.533  26.188   3.193
32127W        W 4453  10.229  42.001  12.025
32128W        W 4454  40.029  35.983   4.686
32129W        W 4455  20.050  30.939   4.718
32130W        W 4456   8.724   7.416  13.343
32131W        W 4457  41.958  31.564  12.466
32132W        W 4458   3.823   7.699  10.483
32133W        W 4459  36.366   5.397  11.517
32134W        W 4460  25.479  32.042   1.851
32135W        W 4461  40.890  33.067   2.266
32136W        W 4462  17.681  22.031  13.060
32137W        W 4463  19.734  39.930  14.792
32138W        W 4464  22.742  14.631   0.944
32139W        W 4465  17.301  17.567  13.853
32140W        W 4466  11.671  12.351   0.386
32141W        W 4467   1.482  37.961  14.417
32142W        W 4468  40.457  35.943  11.979
32143W        W 4469  43.913  30.606   4.136
32144W        W 4470  16.788  23.636  13.380
32145W        W 4471   7.274  32.591  12.523
32146W        W 4472  33.493   1.823   2.326
32147W        W 4473   3.874  15.796  14.372
32148W        W 4474  31.101  41.333   4.752
32149W        W 4475   0.789  32.106  11.010
32150W        W 4476  32.501  25.039  11.533
32151W        W 4477   6.418   9.201  13.867
32152W        W 4478  22.739  29.007  13.022
32153W        W 4479  21.517   9.880   1.911
32154W        W 4480  19.593   4.394   1.737
32155W        W 4481  12.306   0.295   2.682
32156W        W 4482  24.175  17.747   2.394
32157W        W 4483  34.075   6.394   4.183
32158W        W 4484  28.614  21.112   4.725
32159W        W 4485  29.090  28.045  13.356
32160W        W 4486  14.621  15.141   3.664
32161W        W 4487  33.467  11.649  13.824
32162W        W 4488   2.258  11.212   2.844
32163W        W 4489  21.549   5.376   3.381
32164W        W 4490  40.008  25.488  14.400
32165W        W 4491  25.543   0.440   0.244
32166W        W 4492  20.108  17.763  14.904
32167W        W 4493  15.695  15.237  13.951
32168W        W 4494   6.748  14.283   1.339
32169W        W 4495  29.061  10.257  12.962
32170W        W 4496  24.488  38.976  14.301
32171W        W 4497  39.868  39.988   0.940
32172W        W 4498  10.322  44.954  11.598
32173W        W 4499  44.977  14.639   2.317
32174W        W 4500  30.073  12.720  12.000
32175W        W 4501  33.022  25.612  14.990
32176W        W 4502   2.458  24.079  14.840
32177W        W 4503  16.088   3.318   0.861
32178W        W 4504  33.940   6.692  10.409
32179W        W 4505  43.958  36.495  14.802
32180W        W 4506  17.704  41.395   3.793
32181W        W 4507  20.204  34.963   0.261
32182W        W 4508  39.516  10.374  14.956
32183W        W 4509  35.015   3.757  12.485
32184W        W 4510  32.102   4.241  13.908
32185W        W 4511   4.767  44.769   1.698
32186W        W 4512  11.343  33.484  14.013
32187W        W 4513  25.561  25.523   0.296
32188W        W 4514  15.278   3.381   1.704
32189W        W 4515   7.814  16.728  14.453
32190W        W 4516   4.777  26.009  10.933
32191W        W 4517   9.295  41.862   2.852
32192W        W 4518  11.143  39.904   2.788
32193W        W 4519  32.434  16.159  11.556
32194W        W 4520  25.498  10.308   3.266
32195W        W 4521  43.504  24.493  12.578
32196W        W 4522  42.959  28.665   2.291
32197W        W 4523  19.226  15.172   3.756
32198W        W 4524   6.224  32.143  10.159
32199W        W 4525  38.001  22.075   2.357
32200W        W 4526  17.778  40.905  13.899
32201W        W 4527  27.511  19.198  10.444
32202W        W 4528  20.527  25.661  14.389
32203W        W 4529  37.892  32.955   0.313
32204W        W 4530  42.881  18.650   4.260
32205W        W 4531  26.144  34.612   2.695
32206W        W 4532  26.657  41.447   2.197
32207W        W 4533  20.066  13.693  14.862
32208W        W 4534  44.325   8.712   3.227
32209W        W 4535  12.237  30.457   0.402
32210W        W 4536  23.226  21.251  11.107
32211W        W 4537  23.134  10.687   4.260
32212W        W 4538   0.267  24.105   3.354
32213W        W 4539  15.768  23.156  13.985
32214W        W 4540  44.449  29.087  13.014
32215W        W 4541  29.614  20.609  14.762
32216W        W 4542  30.957   1.861  13.447
32217W        W 4543  19.581  41.493   0.253
32218W        W 4544  16.115   8.252   4.697
32219W        W 4545  26.196  40.327  11.076
32220W        W 4546  32.074  42.471   1.699
32221W        W 4547   5.209  22.142  12.090
32222W        W 4548   3.804  22.717  12.498
32223W        W 4549  40.847  44.493  10.612
32224W        W 4550  23.128  16.241  14.877
32225W        W 4551  28.650  37.478  12.361
32226W        W 4552  12.712   4.804  13.032
32227W        W 4553  29.662  17.235   5.220
32228W        W 4554   4.245  15.326  11.951
32229W        W 4555  11.792  36.485   0.777
32230W        W 4556  34.518  14.147   3.649
32231W        W 4557  35.426  18.282  12.374
32232W        W 4558  25.060   3.417  10.631
32233W        W 4559  10.356  31.925   2.810
32234W        W 4560  28.553   7.304   0.438
32235W        W 4561  39.038  18.244  10.620
32236W        W 4562  37.027  25.695  14.858
32237W        W 4563  28.520  29.566  14.430
32238W        W 4564  12.229  17.111  14.956
32239W        W 4565  14.310  19.151  10.480
32240W        W 4566  36.528   3.840  11.385
32241W        W 4567  10.348  40.302  14.398
32242W        W 4568  32.576  10.156   2.876
32243W        W 4569  32.957  17.202   3.260
32244W        W 4570   6.885  26.162   0.275
32245W        W 4571  17.648  19.141   4.677
32246W        W 4572  40.543   8.696   3.693
32247W        W 4573  11.254   5.209   4.255
32248W        W 4574  16.695  39.036  13.043
32249W        W 4575  36.486  43.869  10.641
32250W        W 4576  19.243  35.857  14.481
32251W        W 4577  15.173   0.890   4.329
32252W        W 4578  21.075  21.528   1.374
32253W        W 4579  35.479  44.796   0.840
32254W        W 4580  29.114  21.571   2.767
32255W        W 4581  17.252  18.681   4.305
32256W        W 4582   7.825  40.910  12.478
32257W        W 4583  23.177   2.256  14.794
32258W        W 4584  18.079  23.996  12.882
32259W        W 4585  28.995  22.671   3.845
32260W        W 4586  42.358  21.063   3.826
32261W        W 4587  44.483  31.613  10.634
32262W        W 4588  38.914   8.379   4.239
32263W        W 4589  24.693  41.786   1.785
32264W        W 4590  36.367   3.713   2.389
32265W        W 4591  37.519  31.118   4.329
32266W        W 4592  20.725  40.522  14.359
32267W        W 4593  22.145   1.373   1.777
32268W        W 4594  40.442   5.357  14.279
32269W        W 4595  15.791  18.129  13.383
32270W        W 4596   2.243  21.709   4.189
32271W        W 4597   6.705  21.695  12.580
32272W        W 4598  33.085  37.577   2.866
32273W        W 4599  16.119  44.301   0.353
32274W        W 4600  18.225  14.738  13.471
32275W        W 4601  19.044   9.198  10.614
32276W        W 4602   6.914  20.743   2.814
32277W        W 4603  11.791   1.414   2.411
32278W        W 4604  31.123  43.304  14.013
32279W        W 4605  10.146  15.163  12.490
32280W        W 4606  31.986  16.805  11.582
32281W        W 4607  11.147  14.267  14.338
32282W        W 4608  42.830   7.387   2.313
32283W        W 4609   8.330  11.235  12.964
32284W        W 4610  38.453  18.200   2.415
32285W        W 4611  42.967   6.264   5.221
32286W        W 4612  16.683  41.968  10.904
32287W        W 4613  33.082   0.966   0.416
32288W        W 4614  27.959   7.182   9.926
32289W        W 4615  23.498   4.450  11.964
32290W        W 4616   7.822  25.704  10.511
32291W        W 4617  36.951  44.266  11.517
32292W        W 4618  20.075  36.496  14.473
32293W        W 4619  29.047  27.129  14.931
32294W        W 4620  27.173   6.288   2.785
32295W        W 4621  15.746  42.478  11.513
32296W        W 4622  41.837  37.019   0.911
32297W        W 4623   6.287  37.083  11.549
32298W        W 4624  14.334  33.388  11.428
32299W        W 4625  31.930  39.556   1.233
32300W        W 4626   4.831   4.319   0.268
32301W        W 4627  38.071  13.656   3.869
32302W        W 4628  18.198  21.024  14.944
32303W        W 4629  31.003   4.927   1.419
32304W        W 4630  22.567   6.713  14.453
32305W        W 4631  14.261  10.221   1.839
32306W        W 4632  38.919  18.717   4.671
32307W        W 4633  19.561   7.301  11.585
32308W        W 4634   9.252  40.039  11.597
32309W        W 4635  16.695  43.866  11.995
32310W        W 4636  34.565  18.671  12.570
32311W        W 4637  38.365  17.756   0.739
32312W        W 4638  42.436  37.002  14.814
32313W        W 4639  18.110  39.957  11.969
32314W        W 4640  31.603  15.227  10.954
32315W        W 4641   4.902   4.756  12.006
32316W        W 4642   2.870  11.802   3.374
32317W        W 4643  17.092  36.981  11.865
32318W        W 4644   9.845  14.617  13.971
32319W        W 4645  31.920  25.123   0.297
32320W        W 4646  10.149   8.179  11.563
32321W        W 4647  12.287  27.030  12.853
32322W        W 4648  20.528  26.600  12.466
32323W        W 4649  18.567  41.792   1.804
32324W        W 4650  24.162   2.736   2.806
32325W        W 4651  12.770   1.366  12.431
32326W        W 4652  35.490  14.721  12.061
32327W        W 4653  17.094  23.108   0.867
32328W        W 4654  10.383  37.959   4.813
32329W        W 4655  13.253  29.044   4.183
32330W        W 4656  23.012  21.224   2.678
32331W        W 4657   7.321  18.156  14.326
32332W        W 4658  41.317  29.617  14.770
32333W        W 4659  39.034  25.032  13.464
32334W        W 4660  44.881   0.897   1.935
32335W        W 4661  37.439  27.449  12.011
32336W        W 4662  15.172  36.422   3.221
32337W        W 4663   2.402  29.575   4.114
32338W        W 4664  11.789  37.377  14.435
32339W        W 4665  24.221   1.348  10.578
32340W        W 4666  24.109  34.392  12.390
32341W        W 4667  18.207  37.868   4.613
32342W        W 4668  26.964  28.033   1.336
32343W        W 4669   8.396  22.196   0.848
32344W        W 4670  34.525   8.696  13.510
32345W        W 4671  31.900   9.316  10.944
32346W        W 4672  12.330  21.566  13.392
32347W        W 4673  25.980  24.172  10.896
32348W        W 4674  22.582  36.946  14.477
32349W        W 4675  20.670  28.619  12.977
32350W        W 4676  40.449  41.409   1.735
32351W        W 4677  28.153  41.507   4.763
32352W        W 4678  35.968  34.052   2.311
32353W        W 4679  33.459  18.769  11.485
32354W        W 4680  15.326  37.048   3.651
32355W        W 4681  25.548  23.545  13.426
32356W        W 4682  30.963  12.782   2.287
32357W        W 4683  41.015   3.762  10.973
32358W        W 4684   9.310  31.029   1.410
32359W        W 4685   5.208  33.900   2.202
32360W        W 4686  23.655  36.982   1.227
32361W        W 4687   8.701  24.196  11.411
32362W        W 4688  43.343  40.820   4.119
32363W        W 4689  35.883   7.174   0.312
32364W        W 4690  41.790  27.048  14.918
32365W        W 4691  33.606  27.045   3.246
32366W        W 4692  25.664  13.278  12.569
32367W        W 4693  35.597   2.740  12.455
32368W        W 4694  11.639  16.090  11.461
32369W        W 4695  22.668   4.837  12.428
32370W        W 4696  41.932  40.929   0.823
32371W        W 4697  17.604  27.002   4.775
32372W        W 4698  10.679  24.162   3.633
32373W        W 4699  30.126   0.936  12.855
32374W        W 4700  42.992  27.143  14.442
32375W        W 4701  11.816   4.255   4.723
32376W        W 4702  38.047  42.809  13.393
32377W        W 4703  39.375   4.351   4.797
32378W        W 4704  19.572  19.715  11.901
32379W        W 4705  14.648  43.281  11.020
32380W        W 4706  23.066  11.644  12.028
32381W        W 4707  10.725  27.583   0.481
32382W        W 4708  20.115   7.264  12.551
32383W        W 4709  26.985  13.698  10.605
32384W        W 4710   6.921  11.778  13.848
32385W        W 4711  43.783  35.561  13.987
32386W        W 4712  17.286  43.355   4.227
32387W        W 4713   6.833   8.220  12.558
32388W        W 4714  33.487  44.407   0.931
32389W        W 4715  18.642  12.347   3.343
32390W        W 4716   7.393  42.880  10.600
32391W        W 4717  20.672  13.154  14.865
32392W        W 4718   5.207  22.586  13.423
32393W        W 4719   2.845  13.730  14.926
32394W        W 4720  28.014   4.300   0.281
32395W        W 4721  14.620  40.470  11.103
32396W        W 4722  13.634  38.412   3.376
32397W        W 4723  41.905  17.760  11.956
32398W        W 4724  18.136  12.633   1.800
32399W        W 4725  24.037  10.344   2.671
32400W        W 4726  41.840  26.183   0.774
32401W        W 4727  16.571  39.042   0.344
32402W        W 4728  30.468  22.589   4.334
32403W        W 4729  16.767  11.252   1.888
32404W        W 4730  35.550   9.186  11.063
32405W        W 4731  40.012   5.934   1.723
32406W        W 4732  23.215  23.115   3.673
32407W        W 4733  41.951  28.577   4.156
32408W        W 4734   7.791   2.893  13.929
32409W        W 4735  39.430  33.495   4.226
32410W        W 4736   0.853  35.915  14.795
32411W        W 4737   9.291   6.332   0.841
32412W        W 4738  41.348   1.830  14.313
32413W        W 4739   1.461  43.334  13.873
32414W        W 4740   2.277  27.954   0.467
32415W        W 4741  29.955   1.258  10.513
32416W        W 4742  14.331  33.105   1.336
32417W        W 4743  34.117  39.848  10.542
32418W        W 4744  23.081  12.648   3.783
32419W        W 4745   3.230  17.306   5.240
32420W        W 4746  42.485  41.476   2.283
32421W        W 4747   5.384   1.933   5.233
32422W        W 4748  43.292  28.625   3.332
32423W        W 4749  26.181  36.873   3.662
32424W        W 4750  34.589  30.580   0.449
32425W        W 4751  39.541  41.805  13.397
32426W        W 4752  30.515  27.963   2.185
32427W        W 4753  35.398  39.374  14.804
32428W        W 4754   2.946  33.527  12.062
32429W        W 4755  33.995  16.665   3.214
32430W        W 4756  44.981  11.130  14.407
32431W        W 4757  20.171  12.130  14.965
32432W        W 4758  21.175   2.345  13.440
32433W        W 4759  32.434  37.509   0.745
32434W        W 4760  32.583  42.316  12.378
32435W        W 4761   4.414  12.657  14.818
32436W        W 4762  40.401  10.766  14.368
32437W        W 4763  12.836   6.312   3.319
32438W        W 4764  40.336  15.656  10.130
32439W        W 4765   4.876  33.516  11.011
32440W        W 4766  16.632  33.419  10.410
32441W        W 4767   4.805  36.072   2.179
32442W        W 4768  20.576   7.403  10.470
32443W        W 4769  29.959  11.179  10.459
32444W        W 4770  23.065  29.968  12.410
32445W        W 4771  21.520  16.107   4.614
32446W        W 4772  41.464   3.320   4.312
32447W        W 4773  17.169  37.580   4.724
32448W        W 4774  19.777  28.510   4.818
32449W        W 4775  15.129  35.886  10.644
32450W        W 4776  21.069  34.388   0.462
32451W        W 4777  44.401  25.677   2.265
32452W        W 4778  11.633   7.763   1.822
32453W        W 4779   9.737  31.988   2.852
32454W        W 4780   2.374   1.354  10.417
32455W        W 4781  38.953  31.614   2.234
32456W        W 4782  11.680  40.005   1.311
32457W        W 4783  20.104  10.639   3.206
32458W        W 4784  30.155  17.127  13.951
32459W        W 4785   8.219  12.692   1.758
32460W        W 4786   2.251   3.799  13.808
32461W        W 4787  28.956  33.461   3.173
32462W        W 4788  23.559  33.080   4.172
32463W        W 4789  44.490  26.075   0.374
32464W        W 4790  21.564  31.454  12.525
32465W        W 4791  30.038   1.310  12.848
32466W        W 4792   5.907   6.874   2.247
32467W        W 4793  39.445   5.794   4.215
32468W        W 4794  36.032  40.960   1.314
32469W        W 4795  22.237  40.406  13.984
32470W        W 4796  22.507  19.127  12.557
32471W        W 4797   5.328   3.421   4.329
32472W        W 4798  29.927  26.681   4.770
32473W        W 4799  41.961  12.257  11.893
32474W        W 4800  10.354   4.820   2.260
32475W        W 4801  32.472  26.965  12.580
32476W        W 4802  32.509  40.483   0.764
32477W        W 4803  30.547  30.107   1.817
32478W        W 4804  30.624  25.986  10.915
32479W        W 4805  27.469  16.243  14.885
32480W        W 4806  40.891   4.716  13.317
32481W        W 4807  18.267  33.418  12.502
32482W        W 4808  38.041  32.443   2.859
32483W        W 4809  40.528   8.360   4.166
32484W        W 4810  16.122  20.238  14.341
32485W        W 4811  41.888  30.092  12.475
32486W        W 4812  43.476  26.702  13.414
32487W        W 4813   4.933  39.522   4.350
32488W        W 4814  32.919  32.951  10.435
32489W        W 4815   4.322  13.629  14.887
32490W        W 4816   7.684  33.559  13.324
32491W        W 4817  38.989  19.186  14.895
32492W        W 4818  23.565  23.170  10.947
32493W        W 4819  37.009  13.248   1.334
32494W        W 4820  19.070  18.608   4.775
32495W        W 4821  24.218  32.516   1.814
32496W        W 4822  26.498  35.602  12.891
32497W        W 4823  44.942  12.611   0.405
32498W        W 4824  36.591  38.522  11.979
32499W        W 4825  22.125  12.330   0.452
32500W        W 4826  43.970  11.224   3.219
32501W        W 4827  30.415  26.604  11.047
32502W        W 4828   9.197  28.981   3.780
32503W        W 4829   3.731  30.548  10.001
32504W        W 4830   5.790  10.688   1.744
32505W        W 4831  12.171  17.265  11.970
32506W        W 4832  32.978  30.944   0.464
32507W        W 4833  11.727  26.120   4.789
32508W        W 4834  36.988  25.031   4.760
32509W        W 4835  44.870  34.613   1.332
32510W        W 4836  28.644  12.280   0.736
32511W        W 4837   2.936  28.580  14.859
32512W        W 4838   9.162  44.762   3.311
32513W        W 4839   0.467  10.280  14.780
32514W        W 4840  37.927  40.053   2.338
32515W        W 4841  29.060  15.198   4.597
32516W        W 4842   4.417  26.116   4.210
32517W        W 4843  44.843   5.782  12.058
32518W        W 4844   1.961  12.841   0.836
32519W        W 4845  29.113  27.562   5.124
32520W        W 4846   4.726  34.385  14.778
32521W        W 4847  43.975  19.151  13.909
32522W        W 4848  24.195   0.861  13.042
32523W        W 4849  22.073  23.047  11.574
32524W        W 4850  25.504  19.751  14.488
32525W        W 4851   8.271   0.457   3.646
32526W        W 4852  18.080  13.295   0.964
32527W        W 4853  12.746   1.949  12.000
32528W        W 4854  40.476  44.000  14.913
32529W        W 4855   8.334  11.772  12.379
32530W        W 4856   1.783  16.639   3.778
32531W        W 4857  19.230   2.449  12.863
32532W        W 4858  40.955  33.518   2.672
32533W        W 4859   0.881  14.216   0.369
32534W        W 4860   7.205  44.993  13.065
32535W        W 4861  10.179  33.537  14.954
32536W        W 4862  38.987  36.011   0.863
32537W        W 4863  35.097  12.820   4.661
32538W        W 4864  42.946   1.398  12.057
32539W        W 4865   1.927  37.445  11.899
32540W        W 4866  42.835  23.110  10.990
32541W        W 4867  36.460   3.363  11.409
32542W        W 4868  26.692  37.078  11.438
32543W        W 4869  36.580   7.298   4.159
32544W        W 4870   9.351  23.075  13.955
32545W        W 4871  35.518   5.872   1.899
32546W        W 4872  13.710  12.130  12.529
32547W        W 4873  15.288  34.116  11.923
32548W        W 4874  32.938  42.384   0.879
32549W        W 4875  31.025  19.614  11.490
32550W        W 4876  39.941  39.931  13.485
32551W        W 4877   0.980  30.133  10.606
32552W        W 4878   3.252  37.511  14.469
32553W        W 4879  11.188   8.800  14.461
32554W        W 4880  21.049  34.395   3.658
32555W        W 4881  24.118  42.810  13.017
32556W        W 4882   3.772  21.126   5.233
32557W        W 4883   0.931  14.289   4.703
32558W        W 4884  30.481  43.792  11.434
32559W        W 4885  38.507  12.146  12.554
32560W        W 4886  44.006  17.290   4.287
32561W        W 4887  30.972   5.925   0.827
32562W        W 4888   3.799  29.057   0.828
32563W        W 4889  24.168  38.363  14.956
32564W        W 4890   6.819  43.967   1.379
32565W        W 4891   0.945  38.877  10.991
32566W        W 4892  12.313  22.170  11.528
32567W        W 4893  41.029   6.909  13.897
32568W        W 4894   9.672  24.167   2.297
32569W        W 4895  44.495  31.897  10.562
32570W        W 4896   2.461   3.733   2.220
32571W        W 4897  16.597  30.451  13.863
32572W        W 4898  29.039   8.686   3.304
32573W        W 4899  35.953  39.060  13.047
32574W        W 4900  23.509   1.746   0.322
32575W        W 4901  34.577  10.845  12.094
32576W        W 4902   3.768  22.574   4.225
32577W        W 4903  32.472  25.706   0.363
32578W        W 4904  33.612  14.814  14.314
32579W        W 4905  10.861  27.003   0.736
32580W        W 4906  25.016  12.762   3.871
32581W        W 4907  27.514  32.128   1.858
32582W        W 4908  18.270  43.289  13.365
32583W        W 4909  28.082  42.516   3.275
32584W        W 4910  37.059   3.292   4.204
32585W        W 4911  18.239  26.165   3.711
32586W        W 4912  40.838  27.031   1.766
32587W        W 4913  44.775  17.569  11.110
32588W        W 4914  11.211   3.835   1.757
32589W        W 4915  33.898  25.648  14.367
32590W        W 4916  11.327  24.584   0.399
32591W        W 4917   7.762  13.267   0.423
32592W        W 4918   9.713  37.880   1.310
32593W        W 4919   7.755   6.690  10.903
32594W        W 4920  42.327  30.487   3.811
32595W        W 4921  18.095   9.713  11.974
32596W        W 4922  32.515  38.507   4.672
32597W        W 4923  39.338  29.456  13.808
32598W        W 4924  18.246  28.943   4.156
32599W        W 4925  43.401  26.087  10.999
32600W        W 4926   1.924   6.840  13.020
32601W        W 4927  35.558  18.073  14.350
32602W        W 4928   0.383   7.724  13.855
32603W        W 4929   0.450  13.222   3.284
32604W        W 4930  39.468  36.525   2.265
32605W        W 4931  19.603   8.808  14.514
32606W        W 4932  10.665  36.054  11.994
32607W        W 4933  23.041   3.385   3.251
32608W        W 4934  41.787  33.617  11.115
32609W        W 4935   4.338  44.970   2.873
32610W        W 4936  19.135  22.682  11.449
32611W        W 4937  41.806  29.071   2.840
32612W        W 4938   0.974  17.200   2.840
32613W        W 4939  33.469  20.754  11.384
32614W        W 4940  28.141  29.050  13.505
32615W        W 4941  25.658  17.642   1.829
32616W        W 4942  12.342  42.981  11.564
32617W        W 4943  42.798  42.380  13.021
32618W        W 4944   6.812  20.065   4.261
32619W        W 4945  33.048  11.262  11.086
32620W        W 4946  37.505  21.542   1.773
32621W        W 4947  41.407  36.480   2.893
32622W        W 4948  15.710  28.150  13.343
32623W        W 4949  20.674  41.841   3.721
32624W        W 4950  24.555  24.711  10.641
32625W        W 4951  20.611  19.285   2.361
32626W        W 4952   6.888  26.017   0.859
32627W        W 4953  18.155  15.154   0.946
32628W        W 4954  34.926  37.519  12.458
32629W        W 4955  26.156  16.250   2.233
32630W        W 4956   3.308  44.796  14.382
32631W        W 4957  39.317  38.343   0.340
32632W        W 4958  15.779  11.787  14.999
32633W        W 4959  43.342   2.876   3.354
32634W        W 4960  35.085  20.549   1.904
32635W        W 4961  41.819   1.872  12.507
32636W        W 4962  27.062   5.878   3.764
32637W        W 4963   7.185  39.915   4.237
32638W        W 4964  34.372  35.534  11.489
32639W        W 4965   7.340  24.602   2.704
32640W        W 4966  35.055  18.676  10.548
32641W        W 4967  20.554   9.887  14.013
32642W        W 4968  17.230   7.381   2.393
32643W        W 4969  19.622  39.318  10.933
32644W        W 4970   7.826  39.914  14.975
32645W        W 4971  33.932  13.224   1.783
32646W        W 4972  20.692  18.699  10.528
32647W        W 4973  27.657  43.369  11.906
32648W        W 4974  25.195   2.924  11.982
32649W        W 4975  28.057  32.011   4.194
32650W        W 4976   3.937  25.145  12.847
32651W        W 4977   5.368  10.737  12.846
32652W        W 4978   0.405  11.333   2.902
32653W        W 4979   3.711   1.969  14.001
32654W        W 4980  25.559  38.366   2.384
32655W        W 4981   2.955  18.156   0.293
32656W        W 4982  35.913  16.138   2.834
32657W        W 4983   9.664  19.228  11.446
32658W        W 4984  39.314  39.027   4.274
32659W        W 4985  27.087  16.280   3.312
32660W        W 4986  26.573  29.972  12.512
32661W        W 4987  10.178   6.724  14.370
32662W        W 4988  25.123  32.946  14.288
32663W        W 4989  22.133  19.661  10.968
32664W        W 4990  27.954  15.710  11.970
32665W        W 4991  29.173  28.937  13.534
32666W        W 4992  23.186   0.329   0.803
32667W        W 4993  20.527  21.131   2.381
32668W        W 4994   2.889  12.281   1.256
32669W        W 4995  26.961  25.962   5.108
32670W        W 4996  43.766   7.297   4.739
32671W        W 4997   2.368   6.729  10.454
32672W        W 4998  30.128  39.978   1.385
32673W        W 4999  16.244   7.741   4.292
32674W        W 5000  12.646  19.046   3.822
32675W        W 5001   1.285  30.593   2.355
32676W        W 5002  36.384  44.925  11.429
32677W        W 5003  40.487  32.891  14.759
32678W        W 5004  28.031  34.059   0.347
32679W        W 5005  43.793  35.097   3.256
32680W        W 5006  36.844  26.147   3.829
32681W        W 5007  36.883   5.339   0.857
32682W        W 5008  16.809  44.844  12.558
32683W        W 5009  28.577  16.617  10.563
32684W        W 5010   3.260  17.214   2.333
32685W        W 5011  32.900  32.602  12.411
32686W        W 5012  26.168  35.978   2.810
32687W        W 5013  11.271  36.568   3.858
32688W        W 5014  43.314   8.816   0.776
32689W        W 5015  38.563  11.813   3.316
32690W        W 5016  23.182   0.299  14.924
32691W        W 5017  12.654  34.467   2.371
32692W        W 5018  26.531   2.886  11.454
32693W        W 5019   5.805  26.518   5.130
32694W        W 5020  42.439  16.073  11.996
32695W        W 5021   9.672  16.128  13.950
32696W        W 5022  44.894  20.702   2.710
32697W        W 5023  42.838  19.142   0.300
32698W        W 5024   6.743  34.101   2.365
32699W        W 5025  25.666   3.241  11.517
32700W        W 5026  15.316  34.116  10.526
32701W        W 5027   8.169  21.208   0.861
32702W        W 5028   0.746  21.667  10.642
32703W        W 5029  23.208  39.907  10.088
32704W        W 5030  19.771   4.246  13.533
32705W        W 5031  22.220  15.223   2.841
32706W        W 5032  44.945   6.726   0.368
32707W        W 5033  22.151  13.248   4.765
32708W        W 5034  23.513  23.518   2.903
32709W        W 5035  33.409  18.184  12.906
32710W        W 5036  44.760  23.521   4.253
32711W        W 5037  24.688  39.934   1.723
32712W        W 5038   2.963  34.047  12.875
32713W        W 5039  12.258  14.171   1.821
32714W        W 5040  26.960   9.668  12.379
32715W        W 5041   5.343  40.425   1.357
32716W        W 5042  32.565   0.316   0.374
32717W        W 5043  36.450  16.131   4.146
32718W        W 5044  44.973  28.595   2.311
32719W        W 5045  12.647   7.714  12.823
32720W        W 5046   6.419  15.805   4.700
32721W        W 5047   9.759  34.028  11.397
32722W        W 5048  40.845  14.254   4.654
32723W        W 5049   3.291  17.570  14.788
32724W        W 5050  36.991  20.060   3.334
32725W        W 5051  32.936   8.690  11.413
32726W        W 5052   2.927  24.683   5.603
32727W        W 5053   6.251  10.749   4.599
32728W        W 5054   5.218   2.294   4.314
32729W        W 5055  13.738   0.758  13.036
32730W        W 5056   3.267   5.875   3.211
32731W        W 5057  34.569  37.936  13.940
32732W        W 5058  21.072  40.010   1.750
32733W        W 5059  29.148   4.828  14.944
32734W        W 5060  27.003  38.368  12.430
32735W        W 5061  14.714   3.953   1.325
32736W        W 5062  25.022  35.456   0.325
32737W        W 5063  31.479  27.000  13.382
32738W        W 5064  18.252  18.565  11.878
32739W        W 5065   1.736  16.316  11.412
32740W        W 5066  23.099  28.014   1.712
32741W        W 5067   4.796  31.100  13.964
32742W        W 5068   8.668  23.705  14.974
32743W        W 5069  41.313  24.507   4.632
32744W        W 5070  22.029  33.586   2.723
32745W        W 5071  19.094  17.101  14.824
32746W        W 5072  29.163  17.637   1.223
32747W        W 5073  12.761  11.241  14.421
32748W        W 5074  16.135  31.626  14.349
32749W        W 5075  44.495   6.730  13.794
32750W        W 5076   2.267   5.687   4.773
32751W        W 5077  42.463  29.496  11.377
32752W        W 5078  13.117  24.151   4.771
32753W        W 5079  40.939  22.998  12.044
32754W        W 5080   0.826  33.510   0.436
32755W        W 5081  28.459   5.890   0.929
32756W        W 5082  21.718  39.423  13.307
32757W        W 5083  32.911  36.524  11.375
32758W        W 5084  44.381  31.143  12.485
32759W        W 5085  29.445   1.460  11.970
32760W        W 5086  37.913   9.678   5.706
32761W        W 5087   3.746  11.302   4.778
32762W        W 5088  40.428  34.604   3.866
32763W        W 5089  16.634  34.443  10.447
32764W        W 5090  10.333  25.002  12.373
32765W        W 5091  35.518   0.321  11.486
32766W        W 5092  39.929  25.065  10.425
32767W        W 5093  29.054  24.539   1.708
32768W        W 5094  27.545  24.151   4.346
32769W        W 5095   8.807  30.939  14.353
32770W        W 5096  34.089  38.042   0.291
32771W        W 5097   2.364   8.216  14.772
32772W        W 5098  44.288   3.358  13.880
32773W        W 5099   2.417  18.622  10.928
32774W        W 5100  31.969  22.195  11.975
32775W        W 5101   8.285  38.976   3.347
32776W        W 5102  30.075  13.843   4.760
32777W        W 5103  12.633  27.559   0.469
32778W        W 5104  10.280   4.764  13.493
32779W        W 5105   3.849  44.349  12.873
32780W        W 5106   3.269  14.152  12.063
32781W        W 5107  14.149  19.681  14.007
32782W        W 5108  29.950  42.427  14.874
32783W        W 5109  14.136  23.986   0.329
32784W        W 5110  24.050  33.952   2.702
32785W        W 5111  43.393  39.903  10.511
32786W        W 5112   4.417  24.176   0.433
32787W        W 5113  43.391  44.274   1.444
32788W        W 5114  31.954  36.563  13.430
32789W        W 5115  14.808  11.753  11.049
32790W        W 5116   5.298  26.023   0.756
32791W        W 5117  21.578  38.999  12.021
32792W        W 5118  33.513   7.318  12.363
32793W        W 5119  14.243  42.957   0.806
32794W        W 5120   6.904  30.434   2.818
32795W        W 5121  42.372  35.467   0.731
32796W        W 5122   6.342  38.890   0.835
32797W        W 5123  40.020  21.066  11.406
32798W        W 5124   3.772  19.660   2.863
32799W        W 5125   7.859  17.589   3.720
32800W        W 5126   3.331  34.900   4.326
32801W        W 5127  41.806  32.498  12.890
32802W        W 5128  11.716  32.419  10.993
32803W        W 5129  41.003  28.542   1.885
32804W        W 5130  33.605  19.563  13.034
32805W        W 5131  19.659  41.912  10.523
32806W        W 5132  15.265  39.389  14.835
32807W        W 5133  26.086   7.369  13.427
32808W        W 5134  42.383  11.673  10.501
32809W        W 5135  26.598  34.077   1.864
32810W        W 5136  17.651  44.876  14.892
32811W        W 5137  37.370  30.543   2.204
32812W        W 5138  43.994  38.403   2.294
32813W        W 5139  32.986  25.583   4.200
32814W        W 5140  31.092  23.667   4.810
32815W        W 5141  29.044   8.304  13.485
32816W        W 5142  18.293  36.980   4.622
32817W        W 5143  13.789   2.364   3.750
32818W        W 5144  16.753   7.720  14.394
32819W        W 5145  31.916  21.065   1.427
32820W        W 5146  32.060  24.628   4.253
32821W        W 5147  44.480  19.607  10.088
32822W        W 5148  33.602  34.604  11.980
32823W        W 5149  14.708  44.354  13.530
32824W        W 5150  23.019  41.929  13.948
32825W        W 5151  38.428  35.895  14.452
32826W        W 5152  25.511  38.505   0.329
32827W        W 5153  41.354  24.009  13.032
32828W        W 5154  31.515  16.789  14.442
32829W        W 5155  42.950  38.382  10.107
32830W        W 5156   7.267  26.614   2.667
32831W        W 5157  36.954  24.577   1.368
32832W        W 5158  33.040  34.991  13.860
32833W        W 5159  29.500  37.906   4.199
32834W        W 5160  37.003   0.464  10.944
32835W        W 5161  19.598  31.924   4.125
32836W        W 5162  14.612  37.453   4.195
32837W        W 5163   0.813  44.416   4.197
32838W        W 5164  44.007  11.232   4.303
32839W        W 5165  41.400   0.863  12.840
32840W        W 5166  12.747  30.137   4.681
32841W        W 5167  15.087  37.864   4.133
32842W        W 5168  22.631  23.713   1.760
32843W        W 5169  41.352  21.157  10.951
32844W        W 5170  11.129   5.826  13.991
32845W        W 5171  42.975  19.677  10.496
32846W        W 5172  18.232  11.794  14.372
32847W        W 5173  28.649  12.809  12.504
32848W        W 5174  12.837  35.916   1.329
32849W        W 5175  20.639  40.461  14.788
32850W        W 5176  42.375  34.530  13.842
32851W        W 5177  32.051   1.482  12.996
32852W        W 5178  26.082  16.671  14.880
32853W        W 5179   4.415   4.415  13.396
32854W        W 5180   6.392  25.590  13.968
32855W        W 5181   5.894  24.663   1.363
32856W        W 5182  10.642   3.368  11.855
32857W        W 5183  28.101  25.647  12.371
32858W        W 5184   2.348   2.835   2.858
32859W        W 5185  15.161  12.828  13.012
32860W        W 5186  14.289  40.929   1.777
32861W        W 5187  32.505  31.450   0.832
32862W        W 5188  17.253   8.738  13.475
32863W        W 5189   9.771  22.624   4.241
32864W        W 5190  32.964  21.737  14.789
32865W        W 5191  19.221  29.116   2.237
32866W        W 5192  25.032   3.442   3.341
32867W        W 5193   4.792  33.952   2.255
32868W        W 5194   6.823  10.156   3.732
32869W        W 5195   8.164  36.473   4.631
32870W        W 5196  39.854  40.878  10.956
32871W        W 5197  16.696  44.455   2.705
32872W        W 5198  21.245  23.558  11.400
32873W        W 5199  16.268   5.721   0.740
32874W        W 5200  41.032  35.502   2.825
32875W        W 5201   9.377  26.112  11.990
32876W        W 5202  39.398  43.425  11.067
32877W        W 5203  14.307  20.163  12.367
32878W        W 5204   1.734  16.275   3.257
32879W        W 5205  38.915  20.680   4.282
32880W        W 5206  39.465  28.567   1.913
32881W        W 5207  23.699  15.211   2.796
32882W        W 5208  43.441  17.748  11.003
32883W        W 5209   1.469  31.008   0.845
32884W        W 5210  26.524  19.089  14.327
32885W        W 5211  42.407  44.803   3.385
32886W        W 5212  35.600   0.474  13.031
32887W        W 5213  32.397   3.759   3.275
32888W        W 5214   0.803  40.344   2.856
32889W        W 5215   5.734  24.066   4.278
32890W        W 5216  25.149  21.026   4.620
32891W        W 5217  15.162  31.921   1.866
32892W        W 5218  30.612  38.443   0.475
32893W        W 5219   1.264  30.124   1.747
32894W        W 5220  34.390  13.684  11.047
32895W        W 5221  25.706  20.613  11.004
32896W        W 5222   1.283  41.041  11.492
32897W        W 5223  36.991  35.105  13.508
32898W        W 5224  32.917  13.788  12.895
32899W        W 5225   3.788  37.068  11.025
32900W        W 5226  12.679  26.469   4.160
32901W        W 5227  15.622   4.810  14.467
32902W        W 5228   2.324  12.834  10.993
32903W        W 5229  33.104  23.608   2.295
32904W        W 5230   0.331  38.325   3.248
32905W        W 5231  32.391  22.565   2.181
32906W        W 5232  39.913  44.443   1.368
32907W        W 5233   1.386  24.094  14.430
32908W        W 5234  18.251  24.022   1.253
32909W        W 5235  34.613  35.086   5.181
32910W        W 5236  25.176  38.438   2.828
32911W        W 5237  12.827  13.268  12.967
32912W        W 5238  16.688  31.936  10.450
32913W        W 5239  42.888  21.176   1.869
32914W        W 5240   1.436  10.713  11.591
32915W        W 5241   2.436  17.794   0.790
32916W        W 5242   0.827  27.503   1.729
32917W        W 5243  33.564  35.364   3.321
32918W        W 5244  12.203  34.056   4.119
32919W        W 5245  23.150  39.855   1.859
32920W        W 5246  29.618  11.241  13.359
32921W        W 5247  16.703   5.765   2.283
32922W        W 5248   3.299  32.905  11.978
32923W        W 5249  33.979  27.952   3.317
32924W        W 5250  36.367   6.273  12.835
32925W        W 5251  36.008   0.856  14.305
32926W        W 5252   1.808  16.789   1.406
32927W        W 5253  35.540  37.866   1.314
32928W        W 5254  37.420  15.799   4.309
32929W        W 5255  11.356  40.391   3.186
32930W        W 5256   0.446   9.182   3.685
32931W        W 5257  25.213  29.083   0.482
32932W        W 5258   5.896  30.607   3.296
32933W        W 5259   8.889  13.777  11.902
32934W        W 5260   0.305  33.578   1.935
32935W        W 5261  14.639   6.334   4.184
32936W        W 5262  11.636   1.441  12.892
32937W        W 5263   3.854  33.118   1.771
32938W        W 5264  21.192  12.841   0.478
32939W        W 5265  23.035  38.523   1.906
32940W        W 5266   6.210   7.722   1.811
32941W        W 5267   6.311   2.416   2.863
32942W        W 5268  43.829  31.433   4.122
32943W        W 5269   1.462  10.201  12.368
32944W        W 5270   7.287   6.801  12.556
32945W        W 5271   7.710  14.697  12.577
32946W        W 5272  31.460  43.785   4.613
32947W        W 5273  44.292   6.814  12.017
32948W        W 5274  44.891  38.337   4.330
32949W        W 5275   1.872  41.387   2.665
32950W        W 5276  19.058  11.804   0.842
32951W        W 5277  40.320  42.426  12.983
32952W        W 5278  17.099  39.873   2.784
32953W        W 5279  34.071  26.000   3.768
32954W        W 5280  34.452  41.889  11.481
32955W        W 5281  19.050  11.808  12.409
32956W        W 5282   7.772  21.019  12.557
32957W        W 5283  44.275   2.823  12.467
32958W        W 5284   8.852   2.337  12.577
32959W        W 5285  10.353   8.827  14.452
32960W        W 5286  18.232  10.229  11.022
32961W        W 5287   5.720  38.453   2.246
32962W        W 5288  35.480  17.265   0.772
32963W        W 5289  12.826  30.154  14.810
32964W        W 5290   7.244   4.234   3.671
32965W        W 5291  24.056  14.296   5.280
32966W        W 5292  30.969  17.230  11.108
32967W        W 5293  42.455  24.645   2.829
32968W        W 5294  33.018  28.072   0.809
32969W        W 5295  28.437  35.479   3.186
32970W        W 5296  41.806  21.123  13.331
32971W        W 5297  22.032  38.436  13.395
32972W        W 5298   2.358   3.872  12.006
32973W        W 5299  32.990   0.254  13.990
32974W        W 5300  32.944  30.072  12.426
32975W        W 5301  42.884  11.295  11.960
32976W        W 5302  38.413  13.260   4.266
32977W        W 5303  25.638  24.175   4.727
32978W        W 5304  41.816  35.407  13.513
32979W        W 5305  44.944   1.368   3.274
32980W        W 5306  37.566  40.481   2.364
32981W        W 5307  17.710  11.231   4.758
32982W        W 5308  30.932  11.697   2.857
32983W        W 5309   8.344  19.569  11.436
32984W        W 5310   8.311  21.602   3.805
32985W        W 5311  32.001  37.461   1.721
32986W        W 5312  26.051  30.452   1.776
32987W        W 5313  39.026   2.350   1.231
32988W        W 5314  16.660  44.973   2.695
32989W        W 5315  23.230  30.543  12.995
32990W        W 5316  11.811   9.276  12.987
32991W        W 5317  12.248   2.422  13.798
32992W        W 5318  31.130  13.625   2.356
32993W        W 5319  33.494  34.569  10.889
32994W        W 5320   0.304  20.198   2.351
32995W        W 5321  23.235  10.153  14.447
32996W        W 5322  17.700  28.487   2.373
32997W        W 5323  19.776  13.319  12.457
32998W        W 5324  32.569   8.716  12.345
32999W        W 5325  15.656  30.456   3.720
33000W        W 5326  31.947   2.851   0.906
33001W        W 5327  41.385  13.667   2.853
33002W        W 5328  32.457  38.020  14.914
33003W        W 5329   2.471   8.335  14.289
33004W        W 5330  21.672  28.575  12.482
33005W        W 5331  10.160  13.768  11.407
33006W        W 5332  27.972  22.699   3.736
33007W        W 5333  34.903  27.463   2.779
33008W        W 5334   1.294  39.547  12.894
33009W        W 5335  37.983  23.546  13.828
33010W        W 5336   4.338  19.620  12.041
33011W        W 5337  31.578  13.126   3.348
33012W        W 5338  38.512   2.886  11.916
33013W        W 5339  13.703  31.059  14.796
33014W        W 5340  42.776  30.468  12.565
33015W        W 5341   3.713   2.791   0.961
33016W        W 5342   7.370  29.015   0.777
33017W        W 5343  27.470   4.390  10.483
33018W        W 5344  22.639   6.696   2.406
33019W        W 5345  31.629   9.730  13.853
33020W        W 5346  26.010  43.863   3.302
33021W        W 5347   8.707  38.464   3.649
33022W        W 5348  22.515   5.269  10.520
33023W        W 5349  18.606   0.418  12.570
33024W        W 5350  16.799  14.817   2.335
33025W        W 5351  26.137  19.778  10.511
33026W        W 5352  39.934  37.926  13.461
33027W        W 5353  33.005  19.284  12.961
33028W        W 5354   5.277  31.902   2.901
33029W        W 5355   2.881  43.318   3.326
33030W        W 5356  24.973  13.302  14.946
33031W        W 5357  14.791  42.293  11.072
33032W        W 5358  43.303  26.997  10.620
33033W        W 5359  28.659   7.723  13.370
33034W        W 5360  31.632  23.025   3.299
33035W        W 5361  27.995  38.934  11.559
33036W        W 5362  33.442  22.723  11.988
33037W        W 5363  12.675  17.130  14.929
33038W        W 5364  16.611  14.236   3.670
33039W        W 5365  28.086  13.618   3.771
33040W        W 5366  26.051  27.657  12.866
33041W        W 5367  29.622  38.540   4.283
33042W        W 5368  41.302  42.843   4.637
33043W        W 5369  21.250  24.052   3.277
33044W        W 5370  23.998  18.059  12.073
33045W        W 5371  42.963  43.400  11.862
33046W        W 5372  41.003  26.040   4.645
33047W        W 5373  36.405  28.960   9.963
33048W        W 5374  44.965  44.799  13.876
33049W        W 5375  39.511  13.170   1.261
33050W        W 5376   6.398  44.753  10.891
33051W        W 5377  29.662  20.522  13.893
33052W        W 5378  26.550  42.963  14.780
33053W        W 5379  12.825  37.497   0.389
33054W        W 5380  42.913  43.930  14.800
33055W        W 5381   4.920  18.718   4.191
33056W        W 5382  30.598  24.556   1.383
33057W        W 5383  41.303  39.973  12.902
33058W        W 5384  15.252  29.639   3.774
33059W        W 5385  31.644  19.049   4.303
33060W        W 5386   3.795  42.858   9.991
33061W        W 5387   4.317   5.774  14.361
33062W        W 5388  37.542  35.001   2.307
33063W        W 5389   0.288  40.921  14.307
33064W        W 5390  35.887  31.413  10.462
33065W        W 5391  13.665  13.700   4.153
33066W        W 5392  30.441  37.425   0.950
33067W        W 5393   3.222   7.287   1.732
33068W        W 5394   0.901  18.289  11.454
33069W        W 5395  40.993  33.884  10.437
33070W        W 5396   0.412  16.659   4.248
33071W        W 5397  20.623   7.327  14.779
33072W        W 5398  37.343  13.342   5.098
33073W        W 5399  28.093  43.825   4.337
33074W        W 5400  30.125  32.086  10.944
33075W        W 5401   5.339  43.868  14.350
33076W        W 5402  20.740  16.098   0.800
33077W        W 5403  40.051   2.810   3.335
33078W        W 5404  37.086  40.477   1.732
33079W        W 5405   9.233  13.337   4.235
33080W        W 5406   5.692  26.167  13.908
33081W        W 5407   4.831  36.861   1.842
33082W        W 5408  33.106  25.562  11.863
33083W        W 5409  36.947  30.651  14.503
33084W        W 5410  22.158  30.599   4.732
33085W        W 5411   7.837  11.819  12.348
33086W        W 5412  22.021   1.883  12.988
33087W        W 5413  25.578  31.424   2.250
33088W        W 5414  41.458  22.121   3.213
33089W        W 5415  30.970   7.762   0.853
33090W        W 5416  15.651  20.668   0.883
33091W        W 5417  38.500  40.959   2.675
33092W        W 5418  17.254   0.256  14.884
33093W        W 5419   7.687  22.615  14.423
33094W        W 5420  10.241  37.352   1.418
33095W        W 5421   9.266  43.373  13.834
33096W        W 5422  18.747   1.745  13.320
33097W        W 5423   1.425  15.232  11.028
33098W        W 5424   1.741   4.427   3.172
33099W        W 5425   5.828   5.834   3.668
33100W        W 5426  33.049  12.139  12.024
33101W        W 5427  24.190  19.730   0.278
33102W        W 5428   4.251  32.605  14.368
33103W        W 5429  29.029  26.649   5.126
33104W        W 5430  44.954  23.713  13.500
33105W        W 5431   0.434  37.996   3.153
33106W        W 5432  30.427  19.550  12.089
33107W        W 5433   0.841  31.591  12.381
33108W        W 5434  11.679  32.426   0.402
33109W        W 5435   8.706   7.231  10.631
33110W        W 5436   5.430  35.095   3.658
33111W        W 5437  21.264  12.754   0.848
33112W        W 5438   5.925  34.468   1.749
33113W        W 5439   9.880  28.086  14.912
33114W        W 5440   9.748  23.095  13.527
33115W        W 5441  33.532  41.480   3.630
33116W        W 5442   9.724  37.537   1.732
33117W        W 5443  22.545  27.479   4.744
33118W        W 5444  23.691  19.762  11.942
33119W        W 5445  18.219  40.547   3.785
33120W        W 5446  38.332  36.944  13.528
33121W        W 5447  26.646   6.811  11.902
33122W        W 5448  30.022   7.398  12.027
33123W        W 5449   4.292  39.818  12.971
33124W        W 5450  27.089  35.892  13.059
33125W        W 5451  14.643  33.098   2.264
33126W        W 5452   5.372  28.034  13.379
33127W        W 5453  44.877  14.196  12.866
33128W        W 5454  12.828  36.951  13.821
33129W        W 5455  28.673  14.111   0.363
33130W        W 5456  44.411  11.759   2.417
33131W        W 5457   1.873  37.359  14.292
33132W        W 5458  36.053  19.175  13.954
33133W        W 5459  44.935   8.846   4.278
33134W        W 5460  34.491  16.773  11.592
33135W        W 5461  40.892   3.336   3.715
33136W        W 5462   1.855  36.944  14.919
33137W        W 5463  32.961  18.684   3.186
33138W        W 5464  24.491  15.261  10.567
33139W        W 5465  38.419  12.314  11.949
33140W        W 5466   2.327  43.306   0.377
33141W        W 5467  26.511  25.522  14.300
33142W        W 5468  40.350  23.126  12.934
33143W        W 5469  28.514  25.969  11.999
33144W        W 5470   4.315  31.152   4.227
33145W        W 5471  18.641   7.175  10.120
33146W        W 5472  38.061  29.101   1.348
33147W        W 5473   9.761  12.815   4.147
33148W        W 5474   5.704  14.324  11.086
33149W        W 5475  43.434  24.505   4.606
33150W        W 5476  29.552  18.693  12.021
33151W        W 5477  43.934   1.872   0.410
33152W        W 5478  14.763  37.941   4.679
33153W        W 5479  32.573  22.037   4.251
33154W        W 5480  18.115   9.868  14.426
33155W        W 5481  14.183  15.684   3.175
33156W        W 5482  18.070   2.260   2.771
33157W        W 5483  28.975   5.934  14.963
33158W        W 5484  42.377   1.786   2.219
33159W        W 5485  26.181  40.996  14.962
33160W        W 5486  15.150  35.470   4.218
33161W        W 5487  26.068  42.788   5.265
33162W        W 5488  26.118  38.390  12.078
33163W        W 5489  19.614  42.830   3.371
33164W        W 5490  32.887  41.957   4.200
33165W        W 5491   9.807   4.355   2.220
33166W        W 5492  37.963   3.235  14.801
33167W        W 5493  16.204  36.981  12.830
33168W        W 5494  34.044  35.500   1.831
33169W        W 5495  16.198  17.120   4.734
33170W        W 5496  14.647  24.690  11.408
33171W        W 5497  10.791  29.139   3.864
33172W        W 5498  32.050  36.453   3.355
33173W        W 5499  18.103  26.692   0.433
33174W        W 5500  18.703   4.797   3.374
33175W        W 5501  19.125  32.605  12.460
33176W        W 5502  21.162  32.447   3.294
33177W        W 5503  33.510   7.237  11.509
33178W        W 5504  37.010  17.556   3.683
33179W        W 5505   1.846  23.591   1.744
33180W        W 5506   4.913   6.713  11.551
33181W        W 5507  29.153   0.433   4.239
33182W        W 5508  24.213  21.037   1.863
33183W        W 5509  28.083  43.835  11.065
33184W        W 5510  40.488   3.814   2.777
33185W        W 5511  11.674  18.049   1.254
33186W        W 5512  38.939  31.102   2.800
33187W        W 5513  40.386  14.238  14.811
33188W        W 5514  18.730  31.002  12.866
33189W        W 5515  43.462  28.594   1.443
33190W        W 5516  15.326   8.241  14.019
33191W        W 5517  19.634   8.314  12.450
33192W        W 5518  36.570  31.459   3.801
33193W        W 5519  27.658  19.756  13.807
33194W        W 5520   5.821  38.530   4.612
33195W        W 5521  42.463   9.195   2.785
33196W        W 5522  20.047  18.187   1.409
33197W        W 5523  34.116  17.645   0.426
33198W        W 5524  33.626   9.864   2.760
33199W        W 5525  43.013  22.102   1.437
33200W        W 5526   0.962  36.573   1.802
33201W        W 5527  27.475  18.561  11.554
33202W        W 5528  36.424   0.901   2.245
33203W        W 5529   3.388  40.427   3.230
33204W        W 5530   4.833  43.421   5.141
33205W        W 5531  31.934   2.267   3.721
33206W        W 5532   4.372   4.854   5.134
33207W        W 5533   4.337  40.821   4.772
33208W        W 5534  37.865  23.175   2.893
33209W        W 5535  18.712  31.125  12.087
33210W        W 5536  17.244   7.831  14.464
33211W        W 5537  22.630  28.175  11.988
33212W        W 5538  16.653  16.756   4.267
33213W        W 5539  42.799   9.271   4.292
33214W        W 5540  25.636  33.054   1.916
33215W        W 5541   8.334  17.229  10.898
33216W        W 5542  16.196   6.420  14.772
33217W        W 5543   4.921  42.955  12.090
33218W        W 5544  35.542  35.900  13.017
33219W        W 5545   4.428  19.047  14.812
33220W        W 5546  42.966  23.061  12.565
33221W        W 5547   3.785  10.315   4.203
33222W        W 5548  28.492  32.004   0.453
33223W        W 5549  29.655  15.714   0.284
33224W        W 5550  39.848   4.909  10.568
33225W        W 5551  13.776  15.730  10.926
33226W        W 5552  41.321   4.828   3.698
33227W        W 5553  37.462  39.927  10.912
33228W        W 5554  41.990   7.236   3.806
33229W        W 5555   1.947  12.361  13.885
33230W        W 5556  22.578  14.643  10.562
33231W        W 5557  43.955   8.214   2.881
33232W        W 5558  25.576  16.674  14.400
33233W        W 5559  32.045  17.788  14.991
33234W        W 5560   2.967  30.464  12.918
33235W        W 5561  11.866  17.149  12.496
33236W        W 5562  37.052  18.686  13.434
33237W        W 5563  37.890  23.731  14.938
33238W        W 5564  16.769   1.957   2.842
33239W        W 5565  31.977  39.887   3.658
33240W        W 5566  12.155  14.785  14.303
33241W        W 5567  11.699  30.628  12.067
33242W        W 5568  44.305  39.372  14.952
33243W        W 5569  10.173  25.474   1.870
33244W        W 5570  39.316   8.755  11.054
33245W        W 5571  32.444   3.755   1.701
33246W        W 5572   7.405   9.312   3.800
33247W        W 5573  13.737  30.579   1.726
33248W        W 5574  43.327   8.777   1.393
33249W        W 5575   3.260  11.129  13.339
33250W        W 5576  38.954  38.559   2.849
33251W        W 5577  11.340  15.735  13.064
33252W        W 5578   9.202  40.830  12.339
33253W        W 5579   1.785  40.993  11.089
33254W        W 5580  27.173  27.471  11.404
33255W        W 5581  25.698  44.264  13.011
33256W        W 5582   5.718  37.990   0.298
33257W        W 5583  23.698  41.419  11.026
33258W        W 5584  39.476  33.874  13.878
33259W        W 5585  14.631   9.718  13.820
33260W        W 5586  43.479  33.975  14.792
33261W        W 5587  43.829  21.243  11.387
33262W        W 5588  13.704   8.833  14.850
33263W        W 5589  18.762   1.784  12.535
33264W        W 5590   8.770  37.923  12.051
33265W        W 5591  34.608  42.828  14.929
33266W        W 5592  34.876  12.689   3.808
33267W        W 5593   6.770  21.042  13.051
33268W        W 5594  20.220  23.164   3.196
33269W        W 5595  40.944  20.133   4.132
33270W        W 5596  39.368  43.940  10.906
33271W        W 5597  40.472  19.057   0.785
33272W        W 5598   0.389  24.704   4.676
33273W        W 5599   6.761  13.348  13.895
33274W        W 5600  21.161  26.689  13.494
33275W        W 5601  11.862  44.857  10.120
33276W        W 5602   9.253  25.596   3.287
33277W        W 5603  23.685   0.376  10.989
33278W        W 5604  15.300  27.533  14.369
33279W        W 5605  33.552  37.394  11.431
33280W        W 5606   1.408   6.734   1.858
33281W        W 5607  36.547  26.560  12.575
33282W        W 5608  24.491  44.793   0.338
33283W        W 5609  25.627  24.521   3.814
33284W        W 5610  26.518   9.654   3.859
33285W        W 5611  36.959  12.835   2.697
33286W        W 5612  21.264  33.508   0.386
33287W        W 5613  24.671  18.667   4.150
33288W        W 5614  13.687  28.530  10.409
33289W        W 5615  33.034   2.460  14.512
33290W        W 5616  30.934  43.873   2.843
33291W        W 5617   0.447   6.843  12.521
33292W        W 5618  27.521  24.653  10.905
33293W        W 5619  40.447  11.365   1.443
33294W        W 5620  42.386  29.554   3.823
33295W        W 5621  29.476   4.713  10.064
33296W        W 5622  40.018   3.882   0.727
33297W        W 5623  36.914   9.732   4.173
33298W        W 5624  31.900  14.240  13.879
33299W        W 5625  43.783   1.948  12.415
33300W        W 5626   0.745  32.550   1.221
33301W        W 5627  44.429  43.349  10.419
33302W        W 5628  44.987  14.321   4.329
33303W        W 5629  15.140  30.157  12.045
33304W        W 5630  36.413   3.264  10.954
33305W        W 5631   6.377  22.586  11.005
33306W        W 5632  21.630   1.261   2.390
33307W        W 5633  32.593  16.128  11.893
33308W        W 5634  36.076  28.502   4.347
33309W        W 5635  23.193  18.246  14.819
33310W        W 5636  33.557  35.090  11.022
33311W        W 5637  34.434  33.913  10.446
33312W        W 5638  43.329  21.552   0.365
33313W        W 5639   2.424  32.505  12.382
33314W        W 5640  22.148   1.396  10.570
33315W        W 5641  24.980  40.476   1.867
33316W        W 5642  10.727  15.681  11.981
33317W        W 5643  28.173  34.949   4.615
33318W        W 5644  40.389  23.167   0.927
33319W        W 5645   0.976  20.160  12.370
33320W        W 5646  29.630  28.953   2.353
33321W        W 5647  17.674  30.584   2.195
33322W        W 5648   7.275  24.062   5.306
33323W        W 5649  35.947  43.889  12.388
33324W        W 5650  28.513  11.672  13.450
33325W        W 5651  17.241  12.764   3.156
33326W        W 5652  17.095  31.967   0.266
33327W        W 5653  29.961  36.424  10.505
33328W        W 5654  20.613  19.756  13.477
33329W        W 5655   7.667  17.140  12.386
33330W        W 5656  15.649  17.712   2.760
33331W        W 5657  30.950  25.576   0.817
33332W        W 5658  39.335  17.183   4.691
33333W        W 5659  36.377  24.711  10.553
33334W        W 5660  31.975  12.141   2.752
33335W        W 5661  44.855  42.820   4.612
33336W        W 5662   8.300  44.319  10.535
33337W        W 5663  42.927  37.479   2.713
33338W        W 5664   8.323  26.510   0.797
33339W        W 5665  31.080  31.052   3.313
33340W        W 5666  44.760  19.252  11.959
33341W        W 5667  25.132   9.372   1.294
33342W        W 5668  42.290   6.791  12.528
33343W        W 5669  17.621  41.040   2.857
33344W        W 5670  28.011  42.815  10.124
33345W        W 5671   9.889  43.323  14.442
33346W        W 5672  23.060  31.524   4.224
33347W        W 5673   2.914   3.293  11.924
33348W        W 5674  32.916  36.521  12.066
33349W        W 5675   8.660   5.284  12.364
33350W        W 5676  10.768  42.941   4.664
33351W        W 5677  11.185  20.545   0.954
33352W        W 5678  14.149  35.107   3.345
33353W        W 5679  30.517  30.641   3.357
33354W        W 5680  30.598  33.611   3.209
33355W        W 5681   4.718   5.709   3.739
33356W        W 5682  39.546  24.626  11.417
33357W        W 5683  35.370   0.406   2.236
33358W        W 5684  44.289  37.406  12.548
33359W        W 5685  11.311  19.743  13.349
33360W        W 5686  19.117   8.332  10.453
33361W        W 5687  38.518  22.601   2.179
33362W        W 5688  11.648  41.480  11.978
33363W        W 5689   3.806  27.676  12.928
33364W        W 5690   9.388  43.839  11.121
33365W        W 5691  37.070  15.100   2.663
33366W        W 5692   0.933  42.349  14.392
33367W        W 5693  17.124  22.556   0.370
33368W        W 5694  26.986  33.403  11.551
33369W        W 5695  24.978  16.763  12.538
33370W        W 5696  13.338  39.987   3.208
33371W        W 5697  29.020  38.425  14.456
33372W        W 5698  39.478  22.090  12.857
33373W        W 5699  26.646  28.443   1.793
33374W        W 5700   0.905  10.311   0.791
33375W        W 5701  24.993  43.013  13.803
33376W        W 5702  37.968   4.895   2.384
33377W        W 5703  19.052  18.129   3.192
33378W        W 5704  31.014  30.587  11.468
33379W        W 5705   5.401  13.343   2.202
33380W        W 5706  41.879  42.450   0.296
33381W        W 5707   0.381  26.539   5.257
33382W        W 5708  20.707  20.272  13.881
33383W        W 5709   9.215  14.117   2.397
33384W        W 5710   1.741  23.575   2.857
33385W        W 5711  41.031  10.273   1.810
33386W        W 5712  22.528   7.183  13.015
33387W        W 5713   9.214  18.292  13.330
33388W        W 5714  42.495   1.296   0.452
33389W        W 5715  29.963  33.516  14.443
33390W        W 5716  30.621  23.108  12.934
33391W        W 5717  13.282  19.775  14.472
33392W        W 5718  23.607   9.322   1.743
33393W        W 5719  34.397   5.286   4.160
33394W        W 5720  31.614  24.568   2.667
33395W        W 5721  41.034   5.743   1.730
33396W        W 5722  10.741  25.145  11.051
33397W        W 5723   3.274  13.839   4.831
33398W        W 5724  38.850  34.900   4.614
33399W        W 5725  39.420   1.759   3.721
33400W        W 5726   9.328   3.942   4.118
33401W        W 5727  28.604  20.092   3.176
33402W        W 5728  31.643  25.100  11.900
33403W        W 5729  36.521   2.327  12.949
33404W        W 5730  12.154  44.293   1.934
33405W        W 5731  39.476  24.006  10.543
33406W        W 5732   5.776   4.816  12.003
33407W        W 5733  24.713  29.476   2.362
33408W        W 5734  41.369  26.667   1.801
33409W        W 5735  10.211  12.266   1.224
33410W        W 5736  19.697  18.761   1.295
33411W        W 5737   1.295   5.849  12.061
33412W        W 5738  37.410  26.995  13.997
33413W        W 5739  15.648  15.099   4.810
33414W        W 5740  38.508  15.160  14.977
33415W        W 5741  40.967  22.052  11.574
33416W        W 5742  27.542  23.231  13.978
33417W        W 5743  24.010  38.473  11.896
33418W        W 5744   2.788  18.175   2.187
33419W        W 5745  27.000   7.290   2.813
33420W        W 5746   4.334  33.119  10.900
33421W        W 5747  10.705  11.692   1.782
33422W        W 5748  44.323  41.027  13.850
33423W        W 5749  18.050  38.555  11.910
33424W        W 5750  16.246  30.063   4.238
33425W        W 5751  29.574  21.706   1.699
33426W        W 5752  21.565  16.745   1.373
33427W        W 5753  30.644  11.635   4.264
33428W        W 5754  22.540   8.395   1.920
33429W        W 5755  40.434  41.843   5.235
33430W        W 5756   1.327  26.986  10.529
33431W        W 5757  20.642  30.642   4.188
33432W        W 5758  31.404  42.474   0.477
33433W        W 5759  35.537  31.596   1.372
33434W        W 5760  38.512  42.776  13.348
33435W        W 5761  36.526  42.380   2.261
33436W        W 5762  31.074  30.469   4.833
33437W        W 5763  22.179  27.615  14.849
33438W        W 5764  37.042  20.158   2.683
33439W        W 5765  24.171  20.649   4.206
33440W        W 5766  32.899  39.534  12.462
33441W        W 5767  39.500   7.904  13.828
33442W        W 5768  32.122  43.930   0.764
33443W        W 5769   1.428   2.381   2.303
33444W        W 5770  43.409   1.944   4.269
33445W        W 5771  38.349  12.337   5.707
33446W        W 5772  32.498  29.451  11.439
33447W        W 5773  19.655  13.668  13.437
33448W        W 5774  10.319  30.544  10.109
33449W        W 5775   1.909  26.552   0.434
33450W        W 5776  37.465  28.930  13.822
33451W        W 5777  15.668  23.187   4.307
33452W        W 5778  17.093  13.285  11.974
33453W        W 5779  35.479  37.933   4.752
33454W        W 5780  25.592   7.751  11.025
33455W        W 5781   8.884  14.739   3.162
33456W        W 5782  41.866  12.283  13.438
33457W        W 5783  20.226  42.288  13.328
33458W        W 5784  31.638   8.202   4.168
33459W        W 5785  43.905  20.057   0.902
33460W        W 5786  21.565  14.109   4.334
33461W        W 5787  22.518   3.353  10.485
33462W        W 5788  30.480  21.212   1.758
33463W        W 5789  34.026   1.357   1.217
33464W        W 5790  25.498  14.097   3.167
33465W        W 5791  44.804  11.732  14.759
33466W        W 5792  25.631   2.316  13.318
33467W        W 5793   9.867  29.140  12.865
33468W        W 5794  42.953  13.818   2.335
33469W        W 5795  25.521  41.331  11.856
33470W        W 5796  43.770   3.322  11.996
33471W        W 5797  27.991  26.660  10.121
33472W        W 5798   1.283  42.008  13.004
33473W        W 5799  12.352  22.740  12.430
33474W        W 5800  20.126  14.232  14.391
33475W        W 5801   8.317  17.122   4.156
33476W        W 5802  17.647  33.548   3.805
33477W        W 5803  41.894  22.694  13.543
33478W        W 5804   0.449  27.537   2.219
33479W        W 5805  20.268  33.085  11.082
33480W        W 5806  21.751  25.205   3.385
33481W        W 5807  21.660  33.897   1.439
33482W        W 5808  20.663  17.556  14.318
33483W        W 5809  16.157  12.241   4.311
33484W        W 5810   6.232   3.387   1.749
33485W        W 5811   0.298  27.522   4.777
33486W        W 5812  44.004  13.749   3.274
33487W        W 5813  26.461  33.597  13.335
33488W        W 5814  41.968  43.355  11.440
33489W        W 5815  10.292  19.188  14.961
33490W        W 5816  31.153  41.457   3.154
33491W        W 5817  25.694   6.335  11.127
33492W        W 5818  14.156  17.213  12.855
33493W        W 5819  26.121  26.695   3.360
33494W        W 5820  35.554  23.156  10.497
33495W        W 5821  38.994  35.580   3.177
33496W        W 5822   6.330  43.020   1.450
33497W        W 5823  35.887  35.875  14.372
33498W        W 5824  23.024   9.673  14.351
33499W        W 5825  35.448  32.600  12.057
33500W        W 5826   5.239  41.395   0.764
33501W        W 5827  35.478  24.153   0.259
33502W        W 5828  23.046  10.278  10.521
33503W        W 5829   0.248  10.197   3.385
33504W        W 5830  21.236   2.854   2.359
33505W        W 5831  13.805  41.531   2.227
33506W        W 5832   6.781  29.018  11.575
33507W        W 5833   9.852  41.374  11.560
33508W        W 5834  33.108  36.513  14.315
33509W        W 5835  19.243  11.144   0.286
33510W        W 5836   3.284  40.942  13.973
33511W        W 5837   0.977  42.496   0.273
33512W        W 5838  19.779  39.507   3.189
33513W        W 5839  31.542  18.718  11.538
33514W        W 5840  27.622  13.599  10.460
33515W        W 5841   9.367  38.048   3.355
33516W        W 5842  42.468  32.907  14.510
33517W        W 5843   6.383  32.591  12.403
33518W        W 5844  37.453   0.415  13.331
33519W        W 5845  14.131  24.669  12.399
33520W        W 5846  44.777  43.908  14.407
33521W        W 5847  39.495  16.616   4.721
33522W        W 5848  41.359  44.391   3.840
33523W        W 5849  38.833  15.110  13.975
33524W        W 5850  43.769  39.836   4.252
33525W        W 5851  32.140  20.064  14.321
33526W        W 5852  33.558   9.778   0.397
33527W        W 5853  44.457  11.346  12.933
33528W        W 5854  41.314  19.683  14.344
33529W        W 5855  36.382  43.949   2.200
33530W        W 5856  44.759  19.682  14.832
33531W        W 5857  37.480   3.743  13.940
33532W        W 5858  35.022  40.481   4.121
33533W        W 5859  36.566  27.585   2.755
33534W        W 5860  33.968  21.569  12.912
33535W        W 5861  22.584  11.634   9.961
33536W        W 5862  43.979   3.348  11.435
33537W        W 5863  14.175   1.918  14.994
33538W        W 5864  14.105  10.678  10.935
33539W        W 5865  12.127  26.643   4.306
33540W        W 5866   4.738  43.903  14.443
33541W        W 5867  31.638   8.302  11.992
33542W        W 5868  30.968  21.751  12.345
33543W        W 5869  37.461   4.244  14.996
33544W        W 5870  34.428   4.865   3.707
33545W        W 5871  39.424   8.825   3.781
33546W        W 5872  27.448   5.283  14.022
33547W        W 5873   9.369  16.292  10.599
33548W        W 5874   1.933   0.457  13.043
33549W        W 5875   2.736  20.215  12.003
33550W        W 5876  37.487  29.477   5.261
33551W        W 5877   7.375  37.925  10.965
33552W        W 5878  10.186  39.472  14.512
33553W        W 5879   3.878   4.752   3.753
33554W        W 5880  37.851  37.381   4.311
33555W        W 5881  24.154  16.734  11.386
33556W        W 5882  16.180  17.728   0.370
33557W        W 5883   2.362  34.013  14.457
33558W        W 5884  31.918  44.948   3.686
33559W        W 5885  25.713  31.046  14.302
33560W        W 5886  20.087  44.878   1.877
33561W        W 5887  35.023  41.534  10.043
33562W        W 5888  12.119  32.961  11.507
33563W        W 5889  13.612  39.340  10.553
33564W        W 5890   2.233  38.537  12.914
33565W        W 5891  35.576  12.210   4.135
33566W        W 5892  15.214  12.678  10.409
33567W        W 5893   8.892  23.581   2.675
33568W        W 5894  28.441  34.596  14.453
33569W        W 5895   8.768  12.229   0.366
33570W        W 5896   1.470  18.608   0.460
33571W        W 5897  30.072  18.189   0.759
33572W        W 5898  43.486  35.554   3.270
33573W        W 5899  24.682  15.731   0.834
33574W        W 5900  25.121  30.621  13.802
33575W        W 5901  24.036  34.933   3.658
33576W        W 5902   3.819  24.661  13.468
33577W        W 5903   7.278  42.292   1.762
33578W        W 5904  29.928  30.009  12.463
33579W        W 5905  35.105  20.679  10.642
33580W        W 5906   2.332  43.374   4.792
33581W        W 5907  36.492  31.607   2.872
33582W        W 5908  26.129  40.405  14.432
33583W        W 5909  42.816  41.332  13.997
33584W        W 5910  34.954  25.122   9.983
33585W        W 5911  44.269  25.577   0.452
33586W        W 5912  34.402   4.241  10.519
33587W        W 5913  43.864  34.534  14.470
33588W        W 5914   7.342  29.434  13.863
33589W        W 5915  11.809  30.964  14.760
33590W        W 5916   3.235   5.420  12.580
33591W        W 5917  24.130  17.171  10.911
33592W        W 5918  40.497  17.717   3.757
33593W        W 5919   7.817   6.923  13.327
33594W        W 5920  20.666  26.990  14.923
33595W        W 5921  14.714  36.570   4.810
33596W        W 5922  41.434  14.717   0.808
33597W        W 5923   7.888  10.813  13.517
33598W        W 5924  24.082  19.201  14.973
33599W        W 5925   9.704   9.295   0.479
33600W        W 5926  39.009  12.185   4.801
33601W        W 5927  16.742  23.099  14.981
33602W        W 5928  40.401   1.401  11.433
33603W        W 5929  15.325  10.377  12.484
33604W        W 5930  25.581  30.653  12.012
33605W        W 5931  14.733  37.446  11.388
33606W        W 5932   4.843  20.164   4.625
33607W        W 5933  29.014   0.765  13.981
33608W        W 5934   2.805  42.847   0.259
33609W        W 5935  20.215  23.240  13.856
33610W        W 5936  30.980  44.467   0.387
33611W        W 5937   2.455   9.743   3.233
33612W        W 5938  12.235  18.618   4.144
33613W        W 5939   3.945  40.829   1.810
33614W        W 5940  27.162  10.836   3.803
33615W        W 5941  19.253   9.202   1.242
33616W        W 5942   4.378  13.153   3.836
33617W        W 5943  21.053   1.258  10.985
33618W        W 5944  41.857  41.906  12.477
33619W        W 5945  44.369  38.486  14.424
33620W        W 5946  19.192  38.872  12.972
33621W        W 5947  26.651  24.058   2.866
33622W        W 5948  19.229  29.943  13.790
33623W        W 5949   6.293  44.270  11.887
33624W        W 5950  28.551   6.233   2.870
33625W        W 5951   9.664  24.713  12.005
33626W        W 5952  16.270  16.726  11.483
33627W        W 5953  22.552   9.346  13.506
33628W        W 5954  10.312   5.734  10.428
33629W        W 5955  24.716  37.848   0.916
33630W        W 5956  40.401  42.299   1.254
33631W        W 5957   6.811   3.332   4.666
33632W        W 5958  38.887  10.808   5.178
33633W        W 5959  31.114  38.398   1.931
33634W        W 5960  19.118  40.937  12.063
33635W        W 5961  25.036  27.615  13.907
33636W        W 5962  43.790   2.436   2.857
33637W        W 5963  10.249  30.929  11.435
33638W        W 5964  40.397  11.227  13.882
33639W        W 5965  21.589   6.752   2.752
33640W        W 5966  26.019  38.965  12.971
33641W        W 5967  27.972  17.234   1.397
33642W        W 5968  12.672  14.292   3.285
33643W        W 5969   9.237   0.482  13.394
33644W        W 5970  28.053  23.619  12.464
33645W        W 5971  21.698  25.679  11.538
33646W        W 5972  36.456   2.444   0.893
33647W        W 5973  11.170  33.463  14.342
33648W        W 5974   1.302  44.268  11.438
33649W        W 5975   4.207  39.985   2.303
33650W        W 5976   8.779  32.973   4.737
33651W        W 5977   4.880  21.102   0.905
33652W        W 5978  17.741   3.447   0.254
33653W        W 5979  38.514  39.887  11.963
33654W        W 5980  22.600  18.748   3.738
33655W        W 5981  24.155   1.917  11.080
33656W        W 5982  12.286  19.701  10.525
33657W        W 5983  19.092  41.523  10.570
33658W        W 5984  34.430  36.545   4.631
33659W        W 5985  36.468  36.981   0.807
33660W        W 5986  13.273  11.848   4.149
33661W        W 5987  41.842  31.099   3.860
33662W        W 5988  34.990  13.157  11.555
33663W        W 5989  43.317   8.391  13.971
33664W        W 5990  41.343   7.310  12.012
33665W        W 5991  24.128   6.194  12.891
33666W        W 5992  24.215   8.171   1.772
33667W        W 5993   2.911  11.834   0.794
33668W        W 5994  23.720  35.030   2.809
33669W        W 5995  24.660   7.345   2.902
33670W        W 5996  38.544  10.313   4.289
33671W        W 5997  41.320   3.440  13.051
33672W        W 5998  30.070  17.267   0.420
33673W        W 5999  36.869  14.215   0.361
33674W        W 6000  29.444  13.654   3.235
33675W        W 6001  16.669  14.162  12.560
33676W        W 6002  33.566  32.564   1.905
33677W        W 6003   0.429   2.911  11.511
33678W        W 6004  24.221   7.170  11.959
33679W        W 6005  30.501  31.471  11.123
33680W        W 6006  19.242  22.612  13.058
33681W        W 6007  29.971   2.412   2.873
33682W        W 6008  33.468  16.125   2.329
33683W        W 6009  12.228  18.571  11.009
33684W        W 6010  29.487  34.611  14.877
33685W        W 6011  11.809  29.573  13.979
33686W        W 6012  41.850   5.874  11.003
33687W        W 6013  30.560  32.491   4.353
33688W        W 6014  12.780  31.488   2.813
33689W        W 6015   7.338  13.186  11.528
33690W        W 6016  23.725  12.802   1.758
33691W        W 6017  20.104   8.749  13.811
33692W        W 6018  15.167   9.186  14.465
33693W        W 6019  22.679  24.525  14.998
33694W        W 6020  26.676  21.619  13.311
33695W        W 6021  34.002  43.280   0.411
33696W        W 6022  28.989  12.158  11.431
33697W        W 6023   8.187  31.439  14.810
33698W        W 6024   9.202  11.689  11.526
33699W        W 6025  39.994  10.357  14.917
33700W        W 6026  19.661  25.160  13.479
33701W        W 6027  10.379   2.926   1.821
33702W        W 6028  13.240  33.061  10.589
33703W        W 6029  10.156  26.004  12.845
33704W        W 6030  44.922  28.963  10.894
33705W        W 6031  16.144  23.630  11.379
33706W        W 6032   0.449  13.349   2.351
33707W        W 6033  23.092  39.011  11.979
33708W        W 6034  16.619  33.083   2.790
33709W        W 6035   3.454  25.180   3.149
33710W        W 6036  37.505  31.941  12.039
33711W        W 6037   2.468   2.763  13.404
33712W        W 6038  29.119  26.624   3.648
33713W        W 6039  14.105  21.128   0.428
33714W        W 6040  10.369  31.136  14.472
33715W        W 6041  15.231  15.317  14.512
33716W        W 6042   3.865  15.677  10.033
33717W        W 6043  26.037  36.378  11.386
33718W        W 6044  11.838  44.289  14.416
33719W        W 6045  30.077  23.020   0.807
33720W        W 6046  20.580  37.937   1.296
33721W        W 6047  30.024   7.231  13.929
33722W        W 6048  12.663  16.786  12.029
33723W        W 6049  33.446  41.810  14.005
33724W        W 6050   9.798  16.296   1.256
33725W        W 6051  12.226   5.916  13.929
33726W        W 6052  30.536  21.525  10.547
33727W        W 6053   2.851  18.085   3.189
33728W        W 6054  31.127  20.114  11.873
33729W        W 6055   2.887   9.243   2.263
33730W        W 6056   0.776  44.767  12.445
33731W        W 6057  37.914   9.863   3.331
33732W        W 6058  10.715   6.358  10.554
33733W        W 6059  19.198   8.894   1.699
33734W        W 6060  24.605  38.362   3.849
33735W        W 6061  26.087  38.883  14.012
33736W        W 6062  17.249  10.839  14.783
33737W        W 6063   0.777  20.159  13.314
33738W        W 6064   6.734  11.299   0.471
33739W        W 6065   1.333  39.856   4.765
33740W        W 6066  28.161   7.340   0.832
33741W        W 6067  36.015  34.478  12.406
33742W        W 6068  11.146  30.983  10.463
33743W        W 6069  41.009  38.423  11.911
33744W        W 6070  26.606  29.569  14.869
33745W        W 6071  34.040  14.238  11.963
33746W        W 6072  22.635  39.412   5.278
33747W        W 6073   4.728   4.718  12.363
33748W        W 6074  15.316   3.365   3.238
33749W        W 6075  44.802  31.623  13.513
33750W        W 6076   5.926   9.201   2.859
33751W        W 6077  19.104  12.750  12.897
33752W        W 6078  44.375   5.193  14.989
33753W        W 6079  31.431  40.005   2.377
33754W        W 6080  33.977   8.696   1.210
33755W        W 6081  26.145  16.100  14.451
33756W        W 6082  29.152  41.031  11.047
33757W        W 6083  18.229  15.292  11.398
33758W        W 6084  28.030   6.362  14.401
33759W        W 6085   3.927  18.719   3.190
33760W        W 6086  21.608  39.407   1.290
33761W        W 6087   7.238  35.943   1.881
33762W        W 6088  15.725   4.297   4.347
33763W        W 6089  21.240   4.307  10.585
33764W        W 6090  32.904   6.188  13.462
33765W        W 6091   3.280  38.974  11.925
33766W        W 6092  22.034  37.966   1.935
33767W        W 6093  40.916  31.050   1.928
33768W        W 6094  42.378  37.414   1.337
33769W        W 6095  26.541  26.058  14.831
33770W        W 6096  27.139  11.656   4.813
33771W        W 6097  16.710  43.326   4.602
33772W        W 6098   4.318  17.288  14.334
33773W        W 6099  43.475  41.409   5.139
33774W        W 6100  28.470  15.198  14.366
33775W        W 6101  28.042  35.472   3.767
33776W        W 6102  40.536  37.427   4.138
33777W        W 6103  34.574  38.919  12.534
33778W        W 6104  29.448   2.228  12.882
33779W        W 6105  28.009   1.739   0.749
33780W        W 6106  36.451  19.740   3.734
33781W        W 6107  32.565  11.821   2.894
33782W        W 6108  42.819  29.053  12.928
33783W        W 6109  31.985  39.883  10.925
33784W        W 6110   0.884   0.745   4.220
33785W        W 6111  32.519  33.117   2.896
33786W        W 6112  35.487  24.986   3.725
33787W        W 6113  18.217  39.009  14.765
33788W        W 6114  44.825  20.690  11.485
33789W        W 6115  31.973  23.137   2.902
33790W        W 6116  44.769  10.146   1.765
33791W        W 6117   7.355   2.798  14.343
33792W        W 6118  36.009  37.998   1.222
33793W        W 6119  39.530   3.740   1.345
33794W        W 6120  17.794  41.465  12.966
33795W        W 6121  42.001  44.950  12.364
33796W        W 6122  17.556  37.021  11.045
33797W        W 6123  12.142   6.782  10.519
33798W        W 6124  22.098  26.005   4.804
33799W        W 6125  13.303  34.567  10.557
33800W        W 6126  27.481  34.956   3.792
33801W        W 6127  37.580  42.441  14.291
33802W        W 6128  34.911  38.841   0.352
33803W        W 6129  43.771  37.027   0.359
33804W        W 6130  23.576  33.123  14.395
33805W        W 6131  19.774  40.041   3.775
33806W        W 6132  41.345  21.076   0.459
33807W        W 6133  25.077  35.404  13.340
33808W        W 6134  11.195  30.541  10.557
33809W        W 6135  31.622  23.236   2.723
33810W        W 6136  10.668   4.408   0.955
33811W        W 6137   2.364  22.660   1.271
33812W        W 6138  43.902  33.625  11.556
33813W        W 6139  35.955  44.367  13.990
33814W        W 6140   5.370   1.433   0.845
33815W        W 6141  11.160  11.742  14.026
33816W        W 6142  26.481  16.149  13.529
33817W        W 6143   4.817  43.863   4.726
33818W        W 6144   3.750  32.002  14.795
33819W        W 6145  10.157  34.953  13.991
33820W        W 6146  23.668   6.737  11.054
33821W        W 6147  28.933  44.912   4.650
33822W        W 6148  23.988   6.899   1.865
33823W        W 6149  22.556  36.561   3.241
33824W        W 6150  31.980  23.604   4.120
33825W        W 6151  10.736  31.584  12.997
33826W        W 6152   4.896  20.034  14.424
33827W        W 6153  24.018  11.241  14.996
33828W        W 6154   2.297  43.421   2.386
33829W        W 6155   7.225   1.296   0.473
33830W        W 6156  33.405  34.592   3.219
33831W        W 6157  33.506  19.273   2.348
33832W        W 6158   0.836   2.957  13.476
33833W        W 6159   0.960  30.654   4.788
33834W        W 6160  36.483  44.983  10.558
33835W        W 6161  33.426  15.230   1.746
33836W        W 6162   3.749  36.891   2.875
33837W        W 6163  25.547  24.047   3.637
33838W        W 6164  40.458  35.094   3.661
33839W        W 6165   4.344  20.668   1.306
33840W        W 6166  40.990  24.549   4.317
33841W        W 6167  33.455   7.770  10.558
33842W        W 6168  24.211  37.862  14.813
33843W        W 6169  41.469  30.607   0.963
33844W        W 6170  27.181  19.252   3.378
33845W        W 6171  41.425  30.551  13.354
33846W        W 6172  27.659  30.625  10.545
33847W        W 6173  38.000  15.636   1.760
33848W        W 6174  13.341   3.787  13.452
33849W        W 6175  43.981  40.398  11.087
33850W        W 6176   1.866  30.610  13.453
33851W        W 6177  30.023  33.030   1.349
33852W        W 6178  44.461  27.018   1.831
33853W        W 6179   6.678  20.117   0.760
33854W        W 6180  21.018  43.374   2.197
33855W        W 6181  31.937  40.464   0.435
33856W        W 6182  43.898  43.393   2.357
33857W        W 6183  11.727   4.449   3.870
33858W        W 6184   1.431   1.398   4.350
33859W        W 6185  42.381  30.000  12.089
33860W        W 6186  39.824   0.474   1.880
33861W        W 6187   7.393  16.103  14.793
33862W        W 6188  35.022  36.530   1.797
33863W        W 6189  22.636   0.492  12.498
33864W        W 6190  39.508   6.793  10.641
33865W        W 6191  33.910   6.387  13.064
33866W        W 6192   3.914  40.029   3.341
33867W        W 6193  22.713  29.968  10.419
33868W        W 6194   0.886  41.953   3.794
33869W        W 6195  35.378  24.107  12.096
33870W        W 6196  20.043   0.937  12.496
33871W        W 6197  12.666   0.913  11.451
33872W        W 6198  17.093  28.007   0.853
33873W        W 6199  27.591  25.604   4.764
33874W        W 6200  38.477  32.511   3.635
33875W        W 6201  13.834  28.590   2.664
33876W        W 6202  34.929   8.186   4.807
33877W        W 6203  29.954  10.687  13.793
33878W        W 6204  22.093  36.485   1.220
33879W        W 6205  20.237   5.700   1.869
33880W        W 6206   5.296   0.256   0.808
33881W        W 6207  34.464  41.490  12.553
33882W        W 6208  43.784  38.077  12.416
33883W        W 6209  28.505  25.121  13.800
33884W        W 6210  19.749  41.534   1.360
33885W        W 6211  26.679  12.220  10.470
33886W        W 6212  40.906  27.515  10.509
33887W        W 6213  17.246  38.074  10.986
33888W        W 6214  27.053  28.142   4.607
33889W        W 6215  41.812  40.898   4.331
33890W        W 6216  35.037  16.707  11.422
33891W        W 6217  26.459  16.127   4.640
33892W        W 6218  15.187  20.544   4.227
33893W        W 6219   9.726  11.227  12.831
33894W        W 6220   3.439   9.221   4.796
33895W        W 6221  20.743   7.212   4.632
33896W        W 6222  11.219   6.923  13.990
33897W        W 6223   5.326  17.586  11.611
33898W        W 6224   0.318  32.955   0.882
33899W        W 6225  38.043   7.360   5.249
33900W        W 6226  34.517  25.005   2.187
33901W        W 6227  14.756   8.701  10.429
33902W        W 6228  12.348  26.058  14.991
33903W        W 6229  20.736  23.085  12.959
33904W        W 6230  30.003  27.060   0.937
33905W        W 6231   8.738  34.398  14.430
33906W        W 6232  39.896  17.169  12.084
33907W        W 6233  31.608  27.549   1.211
33908W        W 6234   1.756  43.441   4.153
33909W        W 6235  10.847   1.746   3.322
33910W        W 6236  36.404  36.003   9.506
33911W        W 6237  17.735  11.868  12.353
33912W        W 6238  26.054   0.410  12.482
33913W        W 6239  36.954  12.178  13.882
33914W        W 6240   4.362  35.560  10.892
33915W        W 6241  25.678  24.180  13.332
33916W        W 6242  15.697  16.793   0.800
33917W        W 6243   4.826  22.566   3.315
33918W        W 6244  13.838  43.000   0.910
33919W        W 6245   3.358  11.775  10.987
33920W        W 6246   6.690  25.103   2.415
33921W        W 6247   1.939  41.534  13.531
33922W        W 6248  15.272  16.740  12.068
33923W        W 6249  33.047  38.913  13.804
33924W        W 6250  31.972  23.537  12.040
33925W        W 6251  28.612  41.338   2.384
33926W        W 6252  11.745  36.496   2.751
33927W        W 6253  39.519  39.385   1.290
33928W        W 6254  38.001  17.762  10.563
33929W        W 6255   7.692  15.227  14.915
33930W        W 6256   8.168   2.250  12.431
33931W        W 6257  30.940  40.482   4.619
33932W        W 6258  17.705   4.935   2.699
33933W        W 6259  41.343  26.071  12.049
33934W        W 6260  42.447  44.999   2.814
33935W        W 6261  29.098  34.087   1.926
33936W        W 6262  22.603   4.444  10.078
33937W        W 6263  32.098  10.633  10.436
33938W        W 6264  11.765  14.100   1.333
33939W        W 6265  38.837  12.247  10.594
33940W        W 6266  43.905  23.227  11.087
33941W        W 6267  16.149  22.102   2.711
33942W        W 6268   3.735  13.663  12.529
33943W        W 6269  31.453  22.251   1.221
33944W        W 6270  11.320  18.249  11.555
33945W        W 6271  43.462  12.138  12.911
33946W        W 6272   7.332   8.829   3.767
33947W        W 6273   1.830  43.498   0.735
33948W        W 6274   4.815  15.259   3.149
33949W        W 6275   8.692  13.760   2.219
33950W        W 6276  13.136   5.403   2.747
33951W        W 6277  30.558  20.631  14.370
33952W        W 6278   5.361  44.371  13.053
33953W        W 6279  31.422  39.826   3.819
33954W        W 6280  32.919   0.469  10.952
33955W        W 6281  13.775  39.349  13.945
33956W        W 6282  17.181  38.882  11.974
33957W        W 6283  19.220   4.302   1.783
33958W        W 6284  31.080  16.254   0.778
33959W        W 6285  15.692  35.503  12.398
33960W        W 6286   8.258  24.497  12.549
33961W        W 6287  11.172   2.888   3.244
33962W        W 6288  23.164   2.859  11.047
33963W        W 6289  27.101  26.492  10.614
33964W        W 6290  16.313  30.996  14.966
33965W        W 6291  13.299  35.875   4.686
33966W        W 6292  26.476  26.973   4.734
33967W        W 6293  34.923  36.542  10.154
33968W        W 6294  25.645   0.930  11.372
33969W        W 6295   2.895  41.535  13.433
33970W        W 6296  26.464  14.335   0.257
33971W        W 6297  33.614  26.628   1.370
33972W        W 6298   9.224  11.261   3.691
33973W        W 6299  37.946   1.311   3.643
33974W        W 6300   6.232  18.250  10.118
33975W        W 6301  43.839  33.905  13.997
33976W        W 6302  42.826  42.302   4.315
33977W        W 6303  40.838  28.677   4.776
33978W        W 6304  16.236  27.477   4.264
33979W        W 6305  31.922  32.504  12.986
33980W        W 6306  23.180  43.931  10.939
33981W        W 6307  41.941  24.098   3.231
33982W        W 6308  29.082  17.748   2.228
33983W        W 6309  18.132  18.720   1.428
33984W        W 6310   8.774  38.904   2.329
33985W        W 6311  28.978  34.078   0.814
33986W        W 6312   7.416  17.305   2.708
33987W        W 6313  34.079  39.877  11.005
33988W        W 6314  24.482  17.198  10.095
33989W        W 6315   3.820  10.377   1.856
33990W        W 6316  27.167  25.476  13.334
33991W        W 6317  34.097  42.819   2.809
33992W        W 6318  36.442  42.005   2.773
33993W        W 6319  10.217  44.804   4.127
33994W        W 6320  41.332  42.425   4.803
33995W        W 6321  25.599  33.073   0.446
33996W        W 6322  13.318   3.880   2.859
33997W        W 6323  41.855  15.254  11.389
33998W        W 6324  28.158  28.485   1.881
33999W        W 6325   6.785  11.137   3.370
34000W        W 6326  16.216  27.602   4.659
34001W        W 6327  29.142  25.529  12.477
34002W        W 6328  28.592   2.786   4.685
34003W        W 6329  37.420  44.978  13.484
34004W        W 6330  10.150  11.227   0.374
34005W        W 6331  37.462   4.264   1.269
34006W        W 6332   4.424  42.450  13.490
34007W        W 6333  40.949  33.913   2.250
34008W        W 6334   0.279   1.795  12.908
34009W        W 6335  42.867  39.953  12.567
34010W        W 6336  43.956  44.383   1.427
34011W        W 6337  37.032  19.610  14.899
34012W        W 6338   5.251  43.807   4.264
34013W        W 6339   5.714   3.785   0.315
34014W        W 6340  10.250  34.597   3.328
34015W        W 6341  27.569   4.874  12.580
34016W        W 6342  42.386  14.712   1.868
34017W        W 6343  20.728  38.455  12.465
34018W        W 6344  41.509  27.496   3.676
34019W        W 6345  13.255  16.641   4.256
34020W        W 6346  40.965  20.074  14.896
34021W        W 6347   6.715   0.458   4.799
34022W        W 6348   9.800  43.981   0.774
34023W        W 6349  29.082  21.663   0.748
34024W        W 6350   3.224  13.210  11.497
34025W        W 6351   2.245  27.082   0.783
34026W        W 6352  10.678  20.144   3.811
34027W        W 6353  12.726  12.205  11.002
34028W        W 6354  27.671  29.038   3.705
34029W        W 6355  29.491  28.128   9.579
34030W        W 6356  15.677  41.517   1.876
34031W        W 6357  40.910  31.083  11.861
34032W        W 6358  43.303  27.483  10.404
34033W        W 6359   5.244  12.783  11.050
34034W        W 6360   0.941   0.340  10.621
34035W        W 6361  31.907  28.114   3.666
34036W        W 6362  12.341  19.669  12.462
34037W        W 6363  40.804  18.672  11.095
34038W        W 6364  29.561   2.811  14.832
34039W        W 6365  12.260  44.412   0.259
34040W        W 6366  30.446  40.852   1.732
34041W        W 6367  44.429  28.514   1.223
34042W        W 6368  20.114   1.249   3.864
34043W        W 6369  20.163  19.554  14.315
34044W        W 6370  26.080  43.931   2.876
34045W        W 6371  38.504  29.136   0.956
34046W        W 6372  12.839  35.891  10.951
34047W        W 6373  18.592   5.857   0.793
34048W        W 6374  13.175  33.438   4.794
34049W        W 6375  40.307  19.242   0.291
34050W        W 6376  16.659  36.507   4.751
34051W        W 6377  15.311  16.618   3.344
34052W        W 6378  32.965  41.328  12.537
34053W        W 6379  20.688  13.197  12.019
34054W        W 6380  32.033  37.560  13.982
34055W        W 6381  17.607   0.747  13.892
34056W        W 6382  36.507  13.713   3.839
34057W        W 6383   3.437  37.071   3.319
34058W        W 6384  40.982  35.892   0.381
34059W        W 6385  30.482  10.343  14.989
34060W        W 6386  31.136  31.133  10.939
34061W        W 6387  16.582  29.142   2.266
34062W        W 6388  18.681  39.337   1.361
34063W        W 6389  33.556   7.903   5.319
34064W        W 6390   4.431  26.462   0.259
34065W        W 6391  41.537  24.031  13.311
34066W        W 6392  16.110  31.604   4.126
34067W        W 6393  20.068  19.556   2.251
34068W        W 6394  25.672   2.326  13.933
34069W        W 6395   7.761   2.777   0.766
34070W        W 6396  32.067  43.484   1.323
34071W        W 6397  10.784  44.795  14.908
34072W        W 6398  21.518  20.714   0.472
34073W        W 6399  14.621   3.257   3.252
34074W        W 6400  14.198  20.061   4.821
34075W        W 6401  18.618  11.815   2.412
34076W        W 6402  28.607  14.674  11.963
34077W        W 6403  19.764  31.575  14.991
34078W        W 6404  20.581  31.083  11.898
34079W        W 6405  43.870   4.255  12.540
34080W        W 6406   4.298  35.358   0.769
34081W        W 6407   1.907   7.846  11.418
34082W        W 6408   2.421   5.239  11.100
34083W        W 6409  30.627  21.041  14.338
34084W        W 6410  35.409  21.065   3.307
34085W        W 6411  21.127  10.210  10.436
34086W        W 6412  21.090   4.792   5.281
34087W        W 6413  20.735   0.444   3.270
34088W        W 6414  32.138  26.084   0.743
34089W        W 6415  44.330  40.401  13.031
34090W        W 6416  44.800   2.274  13.950
34091W        W 6417  12.186  40.903   0.295
34092W        W 6418   1.297   6.802   3.755
34093W        W 6419  21.160   5.245   4.306
34094W        W 6420  14.258  33.404   1.394
34095W        W 6421  39.040  25.499   1.847
34096W        W 6422  26.084  10.830  11.860
34097W        W 6423  30.527  15.146   2.816
34098W        W 6424   2.424  35.099   2.228
34099W        W 6425  16.570  27.586   3.844
34100W        W 6426  19.548  12.622  14.855
34101W        W 6427  12.235  24.155  12.420
34102W        W 6428  42.410  40.820   3.255
34103W        W 6429  11.163   0.457  11.519
34104W        W 6430  31.617  17.730   3.758
34105W        W 6431  37.959  26.198   1.427
34106W        W 6432  33.395  35.507   2.278
34107W        W 6433  31.646  43.777   0.299
34108W        W 6434  16.769  20.556   0.852
34109W        W 6435  37.478  32.497   1.318
34110W        W 6436  17.592   3.247   1.273
34111W        W 6437   4.243  23.115  10.897
34112W        W 6438  12.290  29.510  14.980
34113W        W 6439  34.529  24.983   1.326
34114W        W 6440  43.929  29.033   2.796
34115W        W 6441   8.220  31.936  12.074
34116W        W 6442  15.127  23.099   2.351
34117W        W 6443  22.640   7.712   4.696
34118W        W 6444   4.703  35.503  12.390
34119W        W 6445  33.407   6.728   3.303
34120W        W 6446  12.285  27.027   2.299
34121W        W 6447  15.100  12.306   3.791
34122W        W 6448  44.845  15.263   2.896
34123W        W 6449  18.175  44.881   3.256
34124W        W 6450  31.516  41.945  13.994
34125W        W 6451  28.639  43.291   3.284
34126W        W 6452  28.100  37.516  13.354
34127W        W 6453  12.347   0.844  12.087
34128W        W 6454   4.281  18.648   2.718
34129W        W 6455  27.595  11.277  11.393
34130W        W 6456  29.557  15.223   0.866
34131W        W 6457  24.494  23.554   4.182
34132W        W 6458  44.980  22.683   3.791
34133W        W 6459  29.057  17.063  13.389
34134W        W 6460  41.960  25.118   0.932
34135W        W 6461   3.819   5.338   0.918
34136W        W 6462  16.168  23.653   0.273
34137W        W 6463  16.175   8.725   0.378
34138W        W 6464  11.256  37.045  13.959
34139W        W 6465  24.058  39.056   5.163
34140W        W 6466  38.059  36.889   0.405
34141W        W 6467  33.513  24.572  14.799
34142W        W 6468   2.768  13.677  10.441
34143W        W 6469  13.686  43.016  10.458
34144W        W 6470  20.641  18.666  14.477
34145W        W 6471  23.490  20.055   2.275
34146W        W 6472  34.968  16.732   2.327
34147W        W 6473  21.609  12.150  10.511
34148W        W 6474  12.301  21.253  14.364
34149W        W 6475  13.330  33.565   2.749
34150W        W 6476  23.576  24.485   1.258
34151W        W 6477  18.582   8.864  10.016
34152W        W 6478  25.698  10.305   4.729
34153W        W 6479  16.306  26.118   4.274
34154W        W 6480  21.548  31.147   1.279
34155W        W 6481  18.736  37.581   5.113
34156W        W 6482  34.901   0.905  11.385
34157W        W 6483  38.987  31.148   4.632
34158W        W 6484   3.333  33.567  11.996
34159W        W 6485  29.443  22.501   3.672
34160W        W 6486  23.630  13.168  11.425
34161W        W 6487   2.379  25.200   0.827
34162W        W 6488  37.088  10.878  11.048
34163W        W 6489  27.547  37.465  11.906
34164W        W 6490  13.656  15.157   4.601
34165W        W 6491  39.520  25.201  14.325
34166W        W 6492  43.009  44.853   4.241
34167W        W 6493  28.490   1.407  13.949
34168W        W 6494  23.112   5.337   4.728
34169W        W 6495  20.245  15.620   2.205
34170W        W 6496  37.458  18.727   1.357
34171W        W 6497   2.254  17.724  14.387
34172W        W 6498  32.916  33.555  14.499
34173W        W 6499  24.198  10.241  10.579
34174W        W 6500  43.854  13.605   0.783
34175W        W 6501   9.878   2.402   2.252
34176W        W 6502  13.663   2.753  11.423
34177W        W 6503  23.223  15.768   9.549
34178W        W 6504   3.244   6.800  11.611
34179W        W 6505  30.418  34.441   0.859
34180W        W 6506   9.663  19.631   2.179
34181W        W 6507  41.304  25.509  10.579
34182W        W 6508  33.083  29.949   2.200
34183W        W 6509   2.282  38.046  10.519
34184W        W 6510  12.759  28.125   4.776
34185W        W 6511  23.521  30.489  13.879
34186W        W 6512  43.397  15.670  14.981
34187W        W 6513   0.922  28.160  14.914
34188W        W 6514  10.781  12.138   2.223
34189W        W 6515  24.204   1.477   4.796
34190W        W 6516  44.787  43.785   2.251
34191W        W 6517   6.679  25.599  12.876
34192W        W 6518  15.088  30.498   3.706
34193W        W 6519  28.680  36.517  12.039
34194W        W 6520   3.310  30.492  14.769
34195W        W 6521  41.796  28.142   4.223
34196W        W 6522  40.403  35.915  13.349
34197W        W 6523  16.313   8.310  11.094
34198W        W 6524  44.436  16.110   4.644
34199W        W 6525   3.337   9.192  11.417
34200W        W 6526  32.094  37.370   5.109
34201W        W 6527  26.100  41.805  12.555
34202W        W 6528   3.226  28.629   2.901
34203W        W 6529  14.281  21.207  11.061
34204W        W 6530  24.532   9.827  13.898
34205W        W 6531   6.861  37.966   0.934
34206W        W 6532   7.219   0.285  10.552
34207W        W 6533  10.361  24.052  13.473
34208W        W 6534  24.126  27.674  10.975
34209W        W 6535  40.974  11.759   1.906
34210W        W 6536  35.363   1.972  13.039
34211W        W 6537   9.208  35.476  11.502
34212W        W 6538  36.382  40.858  14.359
34213W        W 6539  25.636  17.214   4.333
34214W        W 6540   1.926  20.129   2.662
34215W        W 6541  13.213  21.588  10.920
34216W        W 6542   3.428  23.517   0.833
34217W        W 6543  11.708  12.293   0.763
34218W        W 6544  28.038  16.287  14.404
34219W        W 6545  32.073  14.692   3.274
34220W        W 6546   3.859  31.085  14.865
34221W        W 6547  34.922  23.545  13.374
34222W        W 6548   2.750   7.379   0.928
34223W        W 6549   6.406   9.185  14.824
34224W        W 6550  32.018  26.703   1.897
34225W        W 6551  17.109  30.492   1.835
34226W        W 6552  15.251   5.418   2.879
34227W        W 6553  18.208  30.641   1.421
34228W        W 6554  31.970   4.388   3.788
34229W        W 6555   5.253  24.144   0.895
34230W        W 6556   1.317  38.554  13.013
34231W        W 6557  26.980  26.593  11.009
34232W        W 6558  39.035   3.219  11.123
34233W        W 6559  26.165   2.421  12.377
34234W        W 6560  44.281  22.608   4.785
34235W        W 6561   6.229   1.762   0.470
34236W        W 6562   2.354  39.865  12.836
34237W        W 6563  38.337  19.675   1.233
34238W        W 6564  18.559  29.577   0.451
34239W        W 6565  44.983  10.270   0.446
34240W        W 6566  21.068  29.426  11.120
34241W        W 6567  20.712  10.157  14.896
34242W        W 6568  27.155  20.719  13.034
34243W        W 6569  36.047  20.261  14.985
34244W        W 6570  44.923   0.407   4.682
34245W        W 6571   4.827  22.188  11.860
34246W        W 6572  12.265  32.081   2.329
34247W        W 6573   6.725  38.864   4.746
34248W        W 6574  15.207  28.101   2.320
34249W        W 6575   7.782   3.310   2.396
34250W        W 6576   9.827  20.082   4.665
34251W        W 6577  39.925  39.994  11.126
34252W        W 6578  27.026  36.353  12.476
34253W        W 6579  30.493  34.879  11.058
34254W        W 6580  31.436  18.559  13.924
34255W        W 6581  17.563  10.840  13.037
34256W        W 6582   4.733  17.603  12.092
34257W        W 6583  20.595  36.985  12.352
34258W        W 6584  37.572  42.495   2.320
34259W        W 6585  15.578  44.898   2.267
34260W        W 6586  38.409  31.483  10.446
34261W        W 6587   3.424  24.552   3.641
34262W        W 6588  29.169   4.944   0.277
34263W        W 6589  37.879  34.055   4.698
34264W        W 6590   2.348  26.993  12.947
34265W        W 6591   3.781  32.609  14.413
34266W        W 6592   3.727  13.607   0.478
34267W        W 6593   5.252  16.626   0.429
34268W        W 6594  24.699   4.746  11.429
34269W        W 6595  14.608  35.044  10.547
34270W        W 6596  19.075  36.354  12.925
34271W        W 6597  31.587  29.519   2.316
34272W        W 6598  10.270  10.202   0.461
34273W        W 6599  20.220   7.804  13.436
34274W        W 6600  18.571   3.330  12.841
34275W        W 6601   7.723  18.552   0.821
34276W        W 6602  24.632  33.548   0.356
34277W        W 6603  19.533   1.928  10.611
34278W        W 6604   9.362  34.020  12.973
34279W        W 6605  41.804   1.376  12.000
34280W        W 6606  44.898  12.745   3.203
34281W        W 6607  25.107  37.525   3.304
34282W        W 6608   5.800  28.026  12.444
34283W        W 6609   6.777  16.574   3.705
34284W        W 6610  28.958   2.242  12.563
34285W        W 6611  16.314   4.791   3.355
34286W        W 6612  11.708   5.335  11.385
34287W        W 6613   5.413  30.490   3.304
34288W        W 6614  23.132  39.006  12.866
34289W        W 6615   7.882  35.405  13.332
34290W        W 6616  28.632  29.061  12.933
34291W        W 6617  29.982   9.794  14.438
34292W        W 6618   8.827  20.074   2.297
34293W        W 6619  28.048  21.646  10.898
34294W        W 6620  36.412  13.607  10.900
34295W        W 6621  32.915  42.483   4.344
34296W        W 6622   2.959  31.502   4.223
34297W        W 6623  22.131  27.673   3.220
34298W        W 6624  20.706  31.028  13.382
34299W        W 6625  26.674  15.233   1.237
34300W        W 6626  17.235  10.290  12.950
34301W        W 6627  22.212  37.943  12.453
34302W        W 6628  31.039  38.356  14.935
34303W        W 6629  37.076  30.946   1.239
34304W        W 6630  32.058  27.943   0.387
34305W        W 6631  14.273  23.735   4.668
34306W        W 6632  23.134  41.029   3.629
34307W        W 6633  27.058   5.244  13.944
34308W        W 6634  25.678  15.808  12.855
34309W        W 6635  19.632  44.329  13.978
34310W        W 6636   8.215  15.820   0.843
34311W        W 6637  32.063   5.315   1.808
34312W        W 6638  39.460  33.422  11.387
34313W        W 6639  10.357   1.814   0.810
34314W        W 6640  18.275  20.758   3.241
34315W        W 6641  40.548  12.615  10.010
34316W        W 6642   4.428  41.398   4.294
34317W        W 6643  28.049  26.190   4.622
34318W        W 6644  26.688  17.666  14.507
34319W        W 6645  18.205  13.728  13.502
34320W        W 6646  29.661  28.546  14.817
34321W        W 6647  38.062  29.957  10.582
34322W        W 6648  23.664  13.620  10.412
34323W        W 6649  43.444  22.239   0.780
34324W        W 6650   6.752  39.904  11.409
34325W        W 6651  21.033  34.979  13.335
34326W        W 6652  39.451  42.500  14.931
34327W        W 6653  42.907  34.536   3.163
34328W        W 6654   5.304  27.944   0.930
34329W        W 6655  14.642  18.643  12.446
34330W        W 6656  29.959  31.557   4.615
34331W        W 6657   1.280  40.905   0.397
34332W        W 6658  33.527  25.533  14.437
34333W        W 6659  41.988  17.233   4.672
34334W        W 6660  40.844  24.556  13.867
34335W        W 6661  14.247  33.901   0.736
34336W        W 6662   9.324  31.457   2.261
34337W        W 6663  39.352  29.559   2.404
34338W        W 6664  42.481  18.182   1.765
34339W        W 6665  17.228  44.840  11.013
34340W        W 6666  37.859  23.517  11.938
34341W        W 6667  12.187   5.381   0.463
34342W        W 6668  28.977  42.995   1.410
34343W        W 6669  31.508  44.812   0.841
34344W        W 6670  35.025  41.876   2.204
34345W        W 6671  13.728  34.050  14.481
34346W        W 6672  29.564  31.634   0.831
34347W        W 6673  26.698  14.183  14.304
34348W        W 6674   4.275  42.911  11.034
34349W        W 6675  43.890  31.144  10.409
34350W        W 6676  41.003  33.910   3.196
34351W        W 6677  39.909  23.138   3.306
34352W        W 6678  37.967  20.656   0.754
34353W        W 6679  18.247  43.784   1.214
34354W        W 6680   7.812  42.459  14.280
34355W        W 6681  22.556  28.985   4.188
34356W        W 6682  30.449  42.991  11.031
34357W        W 6683  18.598  43.828   3.241
34358W        W 6684  39.030  29.052   0.459
34359W        W 6685  44.789   5.690  11.483
34360W        W 6686  33.074   0.771   4.115
34361W        W 6687   0.905   4.737  14.348
34362W        W 6688  26.683  16.656  12.989
34363W        W 6689  36.896  23.605   4.611
34364W        W 6690  16.216  17.081   0.879
34365W        W 6691  20.585  42.458   2.719
34366W        W 6692   6.899  23.544  10.492
34367W        W 6693   9.382  35.414   3.223
34368W        W 6694   1.749  40.940   1.860
34369W        W 6695  23.028  29.428  13.046
34370W        W 6696  35.443   6.725  13.982
34371W        W 6697  35.504  35.926   3.856
34372W        W 6698   1.272  41.001  12.417
34373W        W 6699   7.360  40.413   3.337
34374W        W 6700   7.373  30.645  10.547
34375W        W 6701  39.343  26.172  12.517
34376W        W 6702  36.577  25.063   3.748
34377W        W 6703  21.662  17.176   0.307
34378W        W 6704   9.837  14.600   3.177
34379W        W 6705   2.769  27.508  13.452
34380W        W 6706  28.167  13.164  11.610
34381W        W 6707   8.737  35.936   2.419
34382W        W 6708   0.490  32.104  12.890
34383W        W 6709   1.966  17.180  13.839
34384W        W 6710  34.415  28.503   2.773
34385W        W 6711  11.678  29.535   0.811
34386W        W 6712  14.612  13.105   1.816
34387W        W 6713  19.218  32.049  11.597
34388W        W 6714  28.971  25.066  12.923
34389W        W 6715  32.558  32.020  10.505
34390W        W 6716  13.654  32.543  12.563
34391W        W 6717  38.970   7.257   3.635
34392W        W 6718  30.453  13.844   3.868
34393W        W 6719  34.369  34.416  14.781
34394W        W 6720  23.054  29.506  13.823
34395W        W 6721  42.898  10.166   0.796
34396W        W 6722  37.346  20.096   1.447
34397W        W 6723  19.582  15.582  11.111
34398W        W 6724  28.185   9.322   0.831
34399W        W 6725  39.352  35.087  12.847
34400W        W 6726  31.438   1.308  12.088
34401W        W 6727  11.817  18.280   2.301
34402W        W 6728   4.391  24.717  12.950
34403W        W 6729  41.349  30.497   3.639
34404W        W 6730  31.470  35.459   2.859
34405W        W 6731  43.941  16.787  12.909
34406W        W 6732  35.423  26.047  14.012
34407W        W 6733  15.141  21.550  13.478
34408W        W 6734  24.165   8.207  13.971
34409W        W 6735  10.341   9.197  11.047
34410W        W 6736  22.098   6.728  12.373
34411W        W 6737  40.466  33.049   1.313
34412W        W 6738  10.798  33.385   2.801
34413W        W 6739  13.241  19.104  10.927
34414W        W 6740  39.491  36.064   4.782
34415W        W 6741  30.157  13.708  12.845
34416W        W 6742  37.432  18.224  12.347
34417W        W 6743  17.563  25.542   2.224
34418W        W 6744  17.639  40.824   4.197
34419W        W 6745  20.194  36.566  13.892
34420W        W 6746  26.960   4.942   9.971
34421W        W 6747  11.171   1.261   2.202
34422W        W 6748  10.350  27.052   4.314
34423W        W 6749  39.315  36.026  14.028
34424W        W 6750  33.017  31.899   0.390
34425W        W 6751   5.863  42.014  11.597
34426W        W 6752   8.269  44.342   3.190
34427W        W 6753  36.485   9.649   4.764
34428W        W 6754  28.439  35.580  13.475
34429W        W 6755  15.123  24.004   1.342
34430W        W 6756  31.414   6.187   2.896
34431W        W 6757  36.413  20.089   0.883
34432W        W 6758  30.103   6.738   4.811
34433W        W 6759  14.659  33.028  12.024
34434W        W 6760  26.647  17.670  13.883
34435W        W 6761  18.753  44.311  10.413
34436W        W 6762  17.200  31.116   1.904
34437W        W 6763   4.729  12.829   4.318
34438W        W 6764  15.784   6.377   2.313
34439W        W 6765  15.181  18.691   4.119
34440W        W 6766  24.135  24.085   2.849
34441W        W 6767  19.598  44.409   0.263
34442W        W 6768  39.421  32.020  12.947
34443W        W 6769  39.985  24.685   2.900
34444W        W 6770   0.362   8.231   1.732
34445W        W 6771   7.680  17.061  11.434
34446W        W 6772  33.617  16.231  14.321
34447W        W 6773   1.454  10.230   2.873
34448W        W 6774  42.784  21.228   0.967
34449W        W 6775  18.216  35.906   2.223
34450W        W 6776  40.381  38.458   4.678
34451W        W 6777  23.596   4.353  11.057
34452W        W 6778  35.504  13.668  12.982
34453W        W 6779  17.623  15.218   0.472
34454W        W 6780   5.284  31.606  13.887
34455W        W 6781  27.638  23.154   0.790
34456W        W 6782  41.326   8.794   4.617
34457W        W 6783  15.717  30.026  14.873
34458W        W 6784  23.675  41.390  14.319
34459W        W 6785  44.275  11.372  10.578
34460W        W 6786  15.212  10.271  10.472
34461W        W 6787  13.705  26.639   4.271
34462W        W 6788   4.443   8.844   3.170
34463W        W 6789  18.657  32.063   3.232
34464W        W 6790   0.935  29.551  14.898
34465W        W 6791  19.613  11.221   3.248
34466W        W 6792  11.321  32.421  14.327
34467W        W 6793  34.467  29.001  11.874
34468W        W 6794  43.986  35.475  12.875
34469W        W 6795  28.500  23.179  13.466
34470W        W 6796  31.114  17.073   0.804
34471W        W 6797   6.368  37.494  12.909
34472W        W 6798  10.255  14.178   4.231
34473W        W 6799  35.886  34.492   0.936
34474W        W 6800  12.856  10.699   3.639
34475W        W 6801  14.634  13.165  12.889
34476W        W 6802   4.866  32.390  14.877
34477W        W 6803  23.711  15.218   4.144
34478W        W 6804  13.680  22.611  11.514
34479W        W 6805  18.584  16.716  13.384
34480W        W 6806   2.912   8.338   3.222
34481W        W 6807  32.903  11.340  12.063
34482W        W 6808  34.491   3.332  13.429
34483W        W 6809  17.752  22.101  10.612
34484W        W 6810  16.683  17.653   0.861
34485W        W 6811   4.754   4.433  11.125
34486W        W 6812   8.842   6.196  14.867
34487W        W 6813  34.118  22.631  13.475
34488W        W 6814  18.653   8.209  10.616
34489W        W 6815   4.792   2.738   4.696
34490W        W 6816  13.172   7.889   0.942
34491W        W 6817  28.541  23.719  11.070
34492W        W 6818  36.046  44.958   1.703
34493W        W 6819  20.626  33.611  11.445
34494W        W 6820  13.662  40.976  10.910
34495W        W 6821  38.075  19.560   2.837
34496W        W 6822  19.744  26.961  14.864
34497W        W 6823  39.960   4.366   3.647
34498W        W 6824  36.911  20.090  14.330
34499W        W 6825  10.354  36.909   2.235
34500W        W 6826  34.381  23.543  10.978
34501W        W 6827  15.122   9.720   0.472
34502W        W 6828  41.294  22.580   2.814
34503W        W 6829  37.958   3.247   0.806
34504W        W 6830  12.755  19.694  10.578
34505W        W 6831  35.589  19.039  13.513
34506W        W 6832  44.407  30.469   1.369
34507W        W 6833  18.186  24.091   0.867
34508W        W 6834  20.643  30.440   3.670
34509W        W 6835  28.466   3.828  10.920
34510W        W 6836  11.634  33.588   0.845
34511W        W 6837  13.162   6.766  10.580
34512W        W 6838  28.647  42.365   2.740
34513W        W 6839   4.444  20.046  11.079
34514W        W 6840   5.234  33.937   1.402
34515W        W 6841  20.618  34.499   1.705
34516W        W 6842  15.753   5.380  10.579
34517W        W 6843  39.976  38.374  13.935
34518W        W 6844  39.892  24.522   1.697
34519W        W 6845  33.958  21.184  10.548
34520W        W 6846  27.541  29.135  10.039
34521W        W 6847   2.284  35.063   3.833
34522W        W 6848   6.320  17.599   4.808
34523W        W 6849  12.191   5.875   2.811
34524W        W 6850  22.637  41.812   1.289
34525W        W 6851  24.052  14.137   3.327
34526W        W 6852  18.569  29.462  12.048
34527W        W 6853  34.055   5.718   0.419
34528W        W 6854  26.183   7.305   3.795
34529W        W 6855  19.610   9.731  11.128
34530W        W 6856  15.266   8.875   1.738
34531W        W 6857  36.430   8.751   1.784
34532W        W 6858  13.741  15.687   3.771
34533W        W 6859  37.895  40.967   3.740
34534W        W 6860  13.794  23.058   4.763
34535W        W 6861  21.671  44.376   9.921
34536W        W 6862  19.063   6.868  13.943
34537W        W 6863  39.916  18.574   2.377
34538W        W 6864   1.749  24.135   3.339
34539W        W 6865  28.186  21.750   1.808
34540W        W 6866   0.306  44.939   3.765
34541W        W 6867  37.018  34.882  11.569
34542W        W 6868   8.305  36.590  14.926
34543W        W 6869  18.645  10.298   4.799
34544W        W 6870  31.505  33.895   1.775
34545W        W 6871  43.438  31.002   4.778
34546W        W 6872  18.703  31.541   4.287
34547W        W 6873  13.614  24.160  11.967
34548W        W 6874  21.541  37.467  10.436
34549W        W 6875   2.382  11.803   5.591
34550W        W 6876  29.174  36.088   1.281
34551W        W 6877  16.299  33.117   3.777
34552W        W 6878  39.963  41.513  13.324
34553W        W 6879  14.704  31.637  10.973
34554W        W 6880  13.114   0.865  10.582
34555W        W 6881  25.093   8.762  14.491
34556W        W 6882  42.794  34.614   0.375
34557W        W 6883   7.897  37.400  12.973
34558W        W 6884  12.147  37.078  10.453
34559W        W 6885  44.351  30.077   0.328
34560W        W 6886  26.955  36.463   0.337
34561W        W 6887   3.332   4.739  13.350
34562W        W 6888  39.531  24.119  12.424
34563W        W 6889  26.048  37.354   4.665
34564W        W 6890   4.832  39.401  11.426
34565W        W 6891   2.414  36.037  12.024
34566W        W 6892   6.860   6.788   0.947
34567W        W 6893  16.093   0.878   2.185
34568W        W 6894   8.212  25.562  13.805
34569W        W 6895  27.072  42.360   4.643
34570W        W 6896   0.307   1.382   2.691
34571W        W 6897  42.523  20.116  14.349
34572W        W 6898  12.681   1.822   4.730
34573W        W 6899  17.141  24.132   4.283
34574W        W 6900  40.358   1.963   3.775
34575W        W 6901   6.756  32.896   2.229
34576W        W 6902  36.951  36.439   3.379
34577W        W 6903   6.715  40.955  11.957
34578W        W 6904  38.874  31.570   1.874
34579W        W 6905  15.237  19.775  12.874
34580W        W 6906  38.950  27.966  11.582
34581W        W 6907  44.902  34.589  10.940
34582W        W 6908  42.475  12.697  10.969
34583W        W 6909  12.284  41.951  12.921
34584W        W 6910  18.764  38.824   2.178
34585W        W 6911  18.090  11.680  13.312
34586W        W 6912   9.752   8.198  14.927
34587W        W 6913  26.464  18.246  14.006
34588W        W 6914   6.197  15.312   3.194
34589W        W 6915  29.168  30.149  12.055
34590W        W 6916   0.295  37.843  12.484
34591W        W 6917  14.653  23.684   3.839
34592W        W 6918  17.210  35.362   1.301
34593W        W 6919  42.397   5.309  13.334
34594W        W 6920  39.428  11.202   3.697
34595W        W 6921  42.311  29.974  10.951
34596W        W 6922  22.127  28.105  14.880
34597W        W 6923  24.715  39.462   1.707
34598W        W 6924  34.119   9.276  13.454
34599W        W 6925   3.374   1.463   0.332
34600W        W 6926  31.105  12.816  14.935
34601W        W 6927  14.264   0.298   4.182
34602W        W 6928  27.986  34.580   9.994
34603W        W 6929  41.940  32.393  11.434
34604W        W 6930  29.027   5.912   3.642
34605W        W 6931  32.135  33.986   0.968
34606W        W 6932   1.265  41.367  13.457
34607W        W 6933  28.477  28.450   0.907
34608W        W 6934  21.584  21.212   0.373
34609W        W 6935  11.699   5.302   2.362
34610W        W 6936  21.150  27.522  12.883
34611W        W 6937  37.058   2.370  11.885
34612W        W 6938   7.822  41.959  10.425
34613W        W 6939  14.120  39.844   0.763
34614W        W 6940  39.965   9.848   4.329
34615W        W 6941   2.844  43.797  11.120
34616W        W 6942   8.336  10.767   3.330
34617W        W 6943  13.316  38.339  13.400
34618W        W 6944  26.053  41.972   4.346
34619W        W 6945   4.881  15.658   3.687
34620W        W 6946  25.974  12.831  11.080
34621W        W 6947   7.759   5.922  13.058
34622W        W 6948  28.152   5.773   3.310
34623W        W 6949  35.105   6.862   2.192
34624W        W 6950  41.974  32.927   0.284
34625W        W 6951  12.769   5.828  13.891
34626W        W 6952  30.601   9.230  13.323
34627W        W 6953   6.186  22.725   3.237
34628W        W 6954  34.433  42.477  14.349
34629W        W 6955  42.970   0.462  14.815
34630W        W 6956  19.087  36.071  13.959
34631W        W 6957  26.200  13.755   2.721
34632W        W 6958  22.061  16.787   4.326
34633W        W 6959  34.515  19.543   2.859
34634W        W 6960  11.752  14.594  13.835
34635W        W 6961  21.524  34.889  13.851
34636W        W 6962  43.922  13.265  12.342
34637W        W 6963  15.202  25.670   0.861
34638W        W 6964  21.091  32.906   1.880
34639W        W 6965  32.514  36.898  12.485
34640W        W 6966  24.026  15.106  11.090
34641W        W 6967   5.310  16.708  10.963
34642W        W 6968  22.118  26.098  10.433
34643W        W 6969  21.724   1.906  12.094
34644W        W 6970  42.326   9.169   1.278
34645W        W 6971   8.214   1.977  14.921
34646W        W 6972   4.859  34.076   0.284
34647W        W 6973  41.884  33.912  12.070
34648W        W 6974   5.744  16.287   3.837
34649W        W 6975   2.252  10.812  12.878
34650W        W 6976  19.107  27.538  14.958
34651W        W 6977  14.792  36.006   3.823
34652W        W 6978   7.783  40.912   3.808
34653W        W 6979  42.426  21.242  13.392
34654W        W 6980   6.271  36.413  13.811
34655W        W 6981   2.396  34.078  14.007
34656W        W 6982  29.027  24.125   2.195
34657W        W 6983  42.909  41.820   1.347
34658W        W 6984  20.048   3.939  14.821
34659W        W 6985  34.537  11.754   4.727
34660W        W 6986  40.345   6.761  12.558
34661W        W 6987  30.546   7.792   4.160
34662W        W 6988   0.744  19.267   0.479
34663W        W 6989  36.543  31.534  11.429
34664W        W 6990  35.540  28.134   1.857
34665W        W 6991  30.500  22.200  10.930
34666W        W 6992  10.197  16.194   3.867
34667W        W 6993  24.982  23.139   1.439
34668W        W 6994  31.419  11.842  14.310
34669W        W 6995  32.035  24.157  14.938
34670W        W 6996  19.154  15.187  14.496
34671W        W 6997  35.029  28.122   3.359
34672W        W 6998  11.193  13.742  12.435
34673W        W 6999  22.720  21.082  13.418
34674W        W 7000  29.040   9.197   1.785
34675W        W 7001  14.225  31.000  14.302
34676W        W 7002  34.099  24.694   1.415
34677W        W 7003  10.838  35.476   2.195
34678W        W 7004  37.543  43.008   3.740
34679W        W 7005  14.281  40.887  12.417
34680W        W 7006  29.053  35.387   0.416
34681W        W 7007  34.099  22.725   0.432
34682W        W 7008  19.098  18.064   0.291
34683W        W 7009   2.851  32.604   1.746
34684W        W 7010  28.602  34.406   0.875
34685W        W 7011  16.756  13.145   4.115
34686W        W 7012  22.010  41.943  13.986
34687W        W 7013  17.146  27.532  12.477
34688W        W 7014   8.260   1.831  12.463
34689W        W 7015  17.674   9.796   3.820
34690W        W 7016  31.568  36.000   3.207
34691W        W 7017   7.328  10.711  12.404
34692W        W 7018  43.329  28.674  12.980
34693W        W 7019  23.654  20.072   4.292
34694W        W 7020  22.667  44.798  12.069
34695W        W 7021  38.014  25.545   3.161
34696W        W 7022   6.381   8.771   3.634
34697W        W 7023  15.210  35.380  11.578
34698W        W 7024  21.691  24.102  13.799
34699W        W 7025  36.536  21.105  10.152
34700W        W 7026  20.680  28.660  14.817
34701W        W 7027  31.929  28.054  13.368
34702W        W 7028   3.351  12.147   2.738
34703W        W 7029  26.507  17.672  13.406
34704W        W 7030  30.991  19.285   1.339
34705W        W 7031  20.680   1.337  10.956
34706W        W 7032  19.247   2.286   0.330
34707W        W 7033   0.415   7.749   1.749
34708W        W 7034  39.327   8.298  12.030
34709W        W 7035  37.343   9.748   5.208
34710W        W 7036  10.202  28.181  11.025
34711W        W 7037  14.609   2.461  14.369
34712W        W 7038  39.889   6.279  11.599
34713W        W 7039  12.334  18.268   0.730
34714W        W 7040  31.960  27.047   2.739
34715W        W 7041  39.473  28.094   1.370
34716W        W 7042  10.807   4.377   3.813
34717W        W 7043   8.222  10.673   2.412
34718W        W 7044  12.623  36.385  14.452
34719W        W 7045  19.102   2.356   3.350
34720W        W 7046  12.190   7.348  10.985
34721W        W 7047   7.271   2.882   0.891
34722W        W 7048  30.573  24.083  12.844
34723W        W 7049   0.388  39.382  13.327
34724W        W 7050  38.995  23.998   4.214
34725W        W 7051  24.121  21.568  10.478
34726W        W 7052  11.775  33.608   4.674
34727W        W 7053  41.032  37.443   4.318
34728W        W 7054  31.957  35.107   4.691
34729W        W 7055  19.141  24.134   2.752
34730W        W 7056  13.670  19.082   2.407
34731W        W 7057  36.459   9.160  14.806
34732W        W 7058   8.855  11.729   2.714
34733W        W 7059  43.915  42.932  13.039
34734W        W 7060   2.290  31.122   2.230
34735W        W 7061  39.320  19.217  11.898
34736W        W 7062  13.133  43.020   4.354
34737W        W 7063  19.063  39.848   0.894
34738W        W 7064  17.772   4.305   1.287
34739W        W 7065  10.724  27.470   3.762
34740W        W 7066  42.992  35.461  13.967
34741W        W 7067  13.645   1.409  10.507
34742W        W 7068   4.740  25.198  13.479
34743W        W 7069   7.243  36.474   4.218
34744W        W 7070  37.865   0.467   3.727
34745W        W 7071  16.160   2.786  14.962
34746W        W 7072  20.115  44.380  12.074
34747W        W 7073  31.018  12.779   3.834
34748W        W 7074  27.116   6.219   0.402
34749W        W 7075   2.729  22.657  10.426
34750W        W 7076  21.534  18.777   1.226
34751W        W 7077  10.290   9.176   3.743
34752W        W 7078  44.987  41.829   1.347
34753W        W 7079  35.589   1.898   3.188
34754W        W 7080  13.823  39.871   1.445
34755W        W 7081  40.009  13.734  13.964
34756W        W 7082  44.924  15.820  14.381
34757W        W 7083  34.868  34.081  11.393
34758W        W 7084  21.596   8.303   2.766
34759W        W 7085  32.058   3.353   2.805
34760W        W 7086  22.734  14.162  13.035
34761W        W 7087  22.037  24.517   0.938
34762W        W 7088  27.953   9.330  11.068
34763W        W 7089  38.982  35.044   3.769
34764W        W 7090  12.180   6.218  13.350
34765W        W 7091   1.894  11.851  14.366
34766W        W 7092  39.452   1.337  13.966
34767W        W 7093  39.427  30.101  12.477
34768W        W 7094  25.121  38.880   3.170
34769W        W 7095  21.226   8.255   2.262
34770W        W 7096   1.928  34.986   3.181
34771W        W 7097  41.421  10.737   4.742
34772W        W 7098   8.250   6.906  11.593
34773W        W 7099  43.394   5.718  13.547
34774W        W 7100  34.521  31.508  14.796
34775W        W 7101  16.211  37.398  14.877
34776W        W 7102  19.136  29.051   1.349
34777W        W 7103  38.466  44.953   2.391
34778W        W 7104  14.197  29.995   1.255
34779W        W 7105   3.356  11.287   0.812
34780W        W 7106  22.627  39.335  10.970
34781W        W 7107   0.265  27.503  14.507
34782W        W 7108  30.459   6.334  10.904
34783W        W 7109  33.588  28.449   0.363
34784W        W 7110  21.198  44.464   0.380
34785W        W 7111   7.295   1.366  12.455
34786W        W 7112  39.967  31.551   4.291
34787W        W 7113  19.252  26.997   3.160
34788W        W 7114  18.170  31.935   1.249
34789W        W 7115   2.871  20.181   3.249
34790W        W 7116  44.263  26.696   5.246
34791W        W 7117  43.870  31.153  13.970
34792W        W 7118  26.088  42.801   3.775
34793W        W 7119  16.716  26.176   3.183
34794W        W 7120  44.306  25.996   4.835
34795W        W 7121  42.283   5.213   4.652
34796W        W 7122  13.717  24.579  12.027
34797W        W 7123  34.952   3.739  13.359
34798W        W 7124  12.755  25.544   0.324
34799W        W 7125  19.205  23.566  12.581
34800W        W 7126   7.303   8.364   0.837
34801W        W 7127  40.401   0.783  12.974
34802W        W 7128   2.413   4.397   3.828
34803W        W 7129  31.102  36.520   0.852
34804W        W 7130   1.783  40.862   2.781
34805W        W 7131  18.242  28.566   0.958
34806W        W 7132   9.755  31.938  12.903
34807W        W 7133   6.682  39.915  12.380
34808W        W 7134  27.037  29.919   1.923
34809W        W 7135  23.708  14.726   0.787
34810W        W 7136  22.071   8.755   2.240
34811W        W 7137  23.997   2.420   5.297
34812W        W 7138  25.060  41.887  14.896
34813W        W 7139  39.002  20.037  12.049
34814W        W 7140  12.324  18.196  12.508
34815W        W 7141  26.032  43.970   0.851
34816W        W 7142  38.023  16.621   2.370
34817W        W 7143  14.271  25.031  10.923
34818W        W 7144  34.074   4.234   4.600
34819W        W 7145   3.224  37.838  12.879
34820W        W 7146   8.883  19.250   3.308
34821W        W 7147  44.944  32.060  14.300
34822W        W 7148  41.538  10.197   1.726
34823W        W 7149  21.072  39.517  11.553
34824W        W 7150  37.340  40.817   3.717
34825W        W 7151  40.430  14.784  13.935
34826W        W 7152  25.051  12.117  10.518
34827W        W 7153   9.371   9.800   3.357
34828W        W 7154  26.516  36.527  12.448
34829W        W 7155  12.138  14.686   3.329
34830W        W 7156  38.852   6.304   4.250
34831W        W 7157  22.575  41.810  11.937
34832W        W 7158  38.456  30.457   4.710
34833W        W 7159  30.569   6.922   3.323
34834W        W 7160   5.412  25.128  12.018
34835W        W 7161  12.619  14.284  12.833
34836W        W 7162  35.418   7.764  13.439
34837W        W 7163  37.851  26.113  14.824
34838W        W 7164  21.218  41.845  11.581
34839W        W 7165  43.841  19.742  11.445
34840W        W 7166  21.725  32.517  13.509
34841W        W 7167  41.297  15.616   4.120
34842W        W 7168   3.459   0.405   2.873
34843W        W 7169  20.182  11.226  14.912
34844W        W 7170  28.569  41.923  13.049
34845W        W 7171  20.181  12.301   2.881
34846W        W 7172  17.559  39.909   2.882
34847W        W 7173  37.571   9.773  11.519
34848W        W 7174  24.085  24.559   4.816
34849W        W 7175   7.327  19.159   0.472
34850W        W 7176  42.952   4.257   3.203
34851W        W 7177   3.421  19.656   3.186
34852W        W 7178  31.556  31.043  10.435
34853W        W 7179  34.573  36.026   2.661
34854W        W 7180  40.337  39.856   2.352
34855W        W 7181   2.817  40.323   0.459
34856W        W 7182   7.385  34.485   3.245
34857W        W 7183  20.154  24.563  10.443
34858W        W 7184   8.372  20.762   4.660
34859W        W 7185   0.871  15.608   2.692
34860W        W 7186  18.254  11.304   0.447
34861W        W 7187   6.182  29.528   4.300
34862W        W 7188  16.270  24.629  14.786
34863W        W 7189  37.515  17.307  13.513
34864W        W 7190   6.388   7.836  11.525
34865W        W 7191   5.894  41.852   0.736
34866W        W 7192  13.724  13.244   0.281
34867W        W 7193   6.352   8.293   1.335
34868W        W 7194  14.204  26.952   0.825
34869W        W 7195  30.597   9.683  10.615
34870W        W 7196  29.625  44.497  12.477
34871W        W 7197  15.589   8.789   3.717
34872W        W 7198  42.026  23.029  12.340
34873W        W 7199  34.432  44.293   2.674
34874W        W 7200   7.366  21.538  12.344
34875W        W 7201  33.626   4.384  12.972
34876W        W 7202  35.527  17.765  14.443
34877W        W 7203   5.760  10.721   3.211
34878W        W 7204  41.942  15.275   1.702
34879W        W 7205  29.619  42.429   0.325
34880W        W 7206   4.358  37.850  14.324
34881W        W 7207   7.341  36.006   2.373
34882W        W 7208  12.673  18.566   4.147
34883W        W 7209   8.315   0.285  10.565
34884W        W 7210  38.531   0.921   1.266
34885W        W 7211  12.282  25.217  11.993
34886W        W 7212   9.735  31.430  11.525
34887W        W 7213  30.500   1.766  14.329
34888W        W 7214  41.442  15.652   0.388
34889W        W 7215  28.553   1.299  14.361
34890W        W 7216  25.530  23.086  12.009
34891W        W 7217   0.494  17.227   4.277
34892W        W 7218  24.005  19.056   1.424
34893W        W 7219  15.654  28.159  14.978
34894W        W 7220   9.380  38.948  10.151
34895W        W 7221  39.352  22.235   1.418
34896W        W 7222  33.040  30.561   1.374
34897W        W 7223   6.749  19.284  11.402
34898W        W 7224  14.218   5.415  10.941
34899W        W 7225  37.931   5.816  10.641
34900W        W 7226  12.308  39.814  10.523
34901W        W 7227  30.427  39.383  10.984
34902W        W 7228  17.713  37.922   2.691
34903W        W 7229  19.058   3.915   2.718
34904W        W 7230  27.097  11.736  10.937
34905W        W 7231  21.571  43.339  11.932
34906W        W 7232  32.934   9.355   0.948
34907W        W 7233  16.225  13.346  11.056
34908W        W 7234   0.315  22.243   2.841
34909W        W 7235  26.649  41.968   2.391
34910W        W 7236  16.247  19.234   4.788
34911W        W 7237  19.558  26.062   2.732
34912W        W 7238  38.414  10.260   4.616
34913W        W 7239   9.755  17.117   4.710
34914W        W 7240  41.357  34.921   3.818
34915W        W 7241  39.019  25.597   4.214
34916W        W 7242  11.152  28.681  14.776
34917W        W 7243  12.324  39.470   2.766
34918W        W 7244  18.172   4.806   1.805
34919W        W 7245  21.714  18.178   0.727
34920W        W 7246  28.086  38.508   0.458
34921W        W 7247  32.962  39.538  11.408
34922W        W 7248  30.538   3.340  12.430
34923W        W 7249  24.168   3.776   4.605
34924W        W 7250   0.369  43.780  11.946
34925W        W 7251   0.759  13.348   0.397
34926W        W 7252   4.809  41.962  12.025
34927W        W 7253   5.862  16.718   3.151
34928W        W 7254   0.892   8.401   2.398
34929W        W 7255  28.476  13.838  14.289
34930W        W 7256  39.902  38.006  14.772
34931W        W 7257  12.775  44.392  11.869
34932W        W 7258  37.413  10.239  11.052
34933W        W 7259  14.115   5.384   0.472
34934W        W 7260  25.514   6.789   0.283
34935W        W 7261  19.039  15.804  10.108
34936W        W 7262  12.764  44.415  14.277
34937W        W 7263   8.726   1.829   3.851
34938W        W 7264  20.569  10.351   4.324
34939W        W 7265  43.488  36.037   0.439
34940W        W 7266  30.040   4.873   0.419
34941W        W 7267  13.159   4.416  11.399
34942W        W 7268   1.752  20.247  14.931
34943W        W 7269  44.837  31.958  13.976
34944W        W 7270  44.004   0.823  14.027
34945W        W 7271  15.767  37.980  12.929
34946W        W 7272  22.648   6.191   2.794
34947W        W 7273  32.109   6.373  12.564
34948W        W 7274  15.685   0.411  12.443
34949W        W 7275  32.998  36.511   2.876
34950W        W 7276  24.012   6.715  11.961
34951W        W 7277   5.795  25.194   4.648
34952W        W 7278  31.586  26.634   1.712
34953W        W 7279   9.818   9.885   4.255
34954W        W 7280   0.421  23.135   1.847
34955W        W 7281  35.378   8.400  11.126
34956W        W 7282  17.792  18.670  12.882
34957W        W 7283  32.043  36.470  12.501
34958W        W 7284  44.400   8.708   0.363
34959W        W 7285  26.011  33.026  12.525
34960W        W 7286  18.548  31.607   2.305
34961W        W 7287   0.832  35.433  13.373
34962W        W 7288   6.817  19.593   1.899
34963W        W 7289  21.534  43.863   4.672
34964W        W 7290  36.433  30.059   3.290
34965W        W 7291  36.920  26.618   3.865
34966W        W 7292  11.705  34.385  13.522
34967W        W 7293  33.895  16.611  12.510
34968W        W 7294  14.604  27.555  13.967
34969W        W 7295  34.115  21.133  14.801
34970W        W 7296  25.205  26.964   0.446
34971W        W 7297  29.948  33.592   2.182
34972W        W 7298  41.396   1.977  11.406
34973W        W 7299  26.615  38.545   3.149
34974W        W 7300  27.033   5.851   1.891
34975W        W 7301  13.762   4.823   0.382
34976W        W 7302  43.804  31.609  10.923
34977W        W 7303  14.154   1.867   0.406
34978W        W 7304  30.615  12.138   4.144
34979W        W 7305   9.774  14.767   0.727
34980W        W 7306   3.346  15.319   3.229
34981W        W 7307  17.719  30.639  11.989
34982W        W 7308  36.492  11.842   2.314
34983W        W 7309  14.284  39.860   0.266
34984W        W 7310  30.052  35.574  10.470
34985W        W 7311  22.024   1.908  14.877
34986W        W 7312  11.717  18.705   1.387
34987W        W 7313   0.777  35.565   3.152
34988W        W 7314   2.461  29.035   0.775
34989W        W 7315  26.662   5.220  11.476
34990W        W 7316  42.426  27.016   0.744
34991W        W 7317  26.643  23.544   4.265
34992W        W 7318  22.575   8.321  14.385
34993W        W 7319  16.183  13.784  13.813
34994W        W 7320   1.399  12.670  10.593
34995W        W 7321  41.448  16.270  10.504
34996W        W 7322  11.343  41.854   1.223
34997W        W 7323   5.802   3.898  13.020
34998W        W 7324  32.465  16.163   2.669
34999W        W 7325  24.133  37.493  12.035
35000W        W 7326   4.291  24.001  12.965
35001W        W 7327  33.384  36.459   3.664
35002W        W 7328  16.074  33.960  12.372
35003W        W 7329  30.591  22.528   2.348
35004W        W 7330  22.999  38.056  14.016
35005W        W 7331  19.654  25.654   2.214
35006W        W 7332  14.709  28.936   2.276
35007W        W 7333  31.012  33.059  12.458
35008W        W 7334  44.395   7.222   3.233
35009W        W 7335  12.230   5.920   0.778
35010W        W 7336   8.240  28.671   3.753
35011W        W 7337  24.002  36.900   5.130
35012W        W 7338  22.033   2.936  12.905
35013W        W 7339   6.903  37.040   3.197
35014W        W 7340  38.032  26.016   3.336
35015W        W 7341   8.175  42.335   4.349
35016W        W 7342  39.964  18.161   3.262
35017W        W 7343  23.520  36.462   2.901
35018W        W 7344   0.401  29.463   4.180
35019W        W 7345   7.217   1.947  12.031
35020W        W 7346  20.572   8.753  13.524
35021W        W 7347  35.863  36.517   9.935
35022W        W 7348  27.677  36.369   1.403
35023W        W 7349  29.498  17.088   2.898
35024W        W 7350  26.554  14.309  11.964
35025W        W 7351   7.309  29.061  10.583
35026W        W 7352   4.260  35.878  10.890
35027W        W 7353   0.937  26.502   2.746
35028W        W 7354  10.323  13.767   0.848
35029W        W 7355   2.955   0.823  10.944
35030W        W 7356  17.783  29.954   4.303
35031W        W 7357  10.290  33.498  10.955
35032W        W 7358  44.460   1.255  13.836
35033W        W 7359  23.076  11.347   3.770
35034W        W 7360  34.105  16.182  13.873
35035W        W 7361  43.280  21.149  10.906
35036W        W 7362  29.107  16.134  13.545
35037W        W 7363   4.410  36.413  11.009
35038W        W 7364  19.171  22.626  10.996
35039W        W 7365  17.161  32.452   0.266
35040W        W 7366  42.009  33.455   2.713
35041W        W 7367  29.133  39.900   3.699
35042W        W 7368  37.338  40.320  13.453
35043W        W 7369   4.913   6.282   3.717
35044W        W 7370  44.892  31.444  11.028
35045W        W 7371   4.369  26.676  12.937
35046W        W 7372  16.182  36.352   3.778
35047W        W 7373   3.749  39.813   3.744
35048W        W 7374  37.857  20.537   3.159
35049W        W 7375   0.825  12.194  12.059
35050W        W 7376  43.298  22.661   2.206
35051W        W 7377   5.197   2.379   2.323
35052W        W 7378  29.135  26.556   4.182
35053W        W 7379  18.158  19.205   0.473
35054W        W 7380  32.013  26.000  10.911
35055W        W 7381  14.236   7.223   2.367
35056W        W 7382  27.636  16.256  13.966
35057W        W 7383   3.245  24.671   0.813
35058W        W 7384  39.944  32.116   4.750
35059W        W 7385  34.954  44.766  10.989
35060W        W 7386   6.787  32.614  10.425
35061W        W 7387  16.084  43.916   1.866
35062W        W 7388  36.574   0.981  12.020
35063W        W 7389  12.648  25.136   2.696
35064W        W 7390   3.439   0.878  12.975
35065W        W 7391  41.471  38.033  14.303
35066W        W 7392  10.264  37.348   4.769
35067W        W 7393  21.121  10.675  13.880
35068W        W 7394  10.654  15.595   4.654
35069W        W 7395  18.283   2.290   3.281
35070W        W 7396   3.306  42.465  11.584
35071W        W 7397  14.206   7.253   3.350
35072W        W 7398   7.259   5.413  10.900
35073W        W 7399   9.652   2.902   2.264
35074W        W 7400   1.389  11.866   2.210
35075W        W 7401  39.433  12.658  15.000
35076W        W 7402  39.533  40.503  10.441
35077W        W 7403  20.088  44.339  11.434
35078W        W 7404  36.977   1.806   2.793
35079W        W 7405  42.353  38.542   0.911
35080W        W 7406  15.121   1.479  14.821
35081W        W 7407  21.036  44.862  10.991
35082W        W 7408  35.598  28.627  11.975
35083W        W 7409   8.734   6.392   2.268
35084W        W 7410   3.886  19.227  12.517
35085W        W 7411   5.248   0.449  12.422
35086W        W 7412   3.948  22.012   3.870
35087W        W 7413  21.093  11.309  10.898
35088W        W 7414  21.160  31.147  13.971
35089W        W 7415  22.070  25.570  11.871
35090W        W 7416  30.653  18.198   0.967
35091W        W 7417  18.265   4.833  13.465
35092W        W 7418  14.655  10.164   4.303
35093W        W 7419  44.315  30.149  14.859
35094W        W 7420  43.830  14.746  11.607
35095W        W 7421   8.804  42.788  14.032
35096W        W 7422  23.116  16.597   3.178
35097W        W 7423   4.892  29.446  13.362
35098W        W 7424   2.276   0.956   3.645
35099W        W 7425  20.543  36.093   0.443
35100W        W 7426  12.807  42.964  10.536
35101W        W 7427  14.253  26.045   0.434
35102W        W 7428  43.470  39.897   1.275
35103W        W 7429  33.473  19.726   1.400
35104W        W 7430  21.755  44.847  12.842
35105W        W 7431  27.968   5.773  13.971
35106W        W 7432  43.441  21.105   0.276
35107W        W 7433  42.409   9.878  14.349
35108W        W 7434  41.943  35.598   4.823
35109W        W 7435  27.640  37.942   2.742
35110W        W 7436   4.329   7.847   1.899
35111W        W 7437  10.167  41.948   0.470
35112W        W 7438   8.263  28.614  11.984
35113W        W 7439  15.324  38.958  11.402
35114W        W 7440  10.823   5.391   0.930
35115W        W 7441   8.791  25.205   3.316
35116W        W 7442  14.227   6.322  12.843
35117W        W 7443  20.557  15.092  12.489
35118W        W 7444   0.421   2.413   1.301
35119W        W 7445  36.871  40.374  12.553
35120W        W 7446  21.065  42.487   3.826
35121W        W 7447  20.577  18.780  14.015
35122W        W 7448  44.907   4.214  11.079
35123W        W 7449  41.504  32.630   2.185
35124W        W 7450  13.171  41.827  14.010
35125W        W 7451  27.512  15.102   3.684
35126W        W 7452  37.069  29.126  12.345
35127W        W 7453  13.727  21.544   4.791
35128W        W 7454   9.860  13.274   2.181
35129W        W 7455   1.899  22.537  10.487
35130W        W 7456  21.582  28.167   2.225
35131W        W 7457  38.496  35.564   1.437
35132W        W 7458  25.563   1.423   4.241
35133W        W 7459  31.483   9.778   4.248
35134W        W 7460  22.222  13.309  11.856
35135W        W 7461  32.893  21.720  12.964
35136W        W 7462  31.027   0.784   2.667
35137W        W 7463  12.290  29.123   0.885
35138W        W 7464   6.400  32.624   2.685
35139W        W 7465  12.288  24.574  13.447
35140W        W 7466  23.554  28.140   4.224
35141W        W 7467   1.880   6.257   2.807
35142W        W 7468  42.336  25.993   2.315
35143W        W 7469  42.033  37.416   3.659
35144W        W 7470   9.347  11.736  10.626
35145W        W 7471  31.072   2.369  12.564
35146W        W 7472  12.350  26.201  10.478
35147W        W 7473   5.736  22.078  14.914
35148W        W 7474  11.357  42.361  13.356
35149W        W 7475  14.641  38.848  12.939
35150W        W 7476  20.583  39.366  11.874
35151W        W 7477  22.016  25.505  12.843
35152W        W 7478  26.147  37.054  10.984
35153W        W 7479  29.045   5.198   2.813
35154W        W 7480  36.442  41.974  14.360
35155W        W 7481  28.024  32.546   2.825
35156W        W 7482  26.678  19.780  12.349
35157W        W 7483   3.812  12.339   2.872
35158W        W 7484  40.908  15.796   0.363
35159W        W 7485  29.533  29.503  14.781
35160W        W 7486  38.430  20.238   4.182
35161W        W 7487  18.718  32.968  10.444
35162W        W 7488  20.031  19.642   2.785
35163W        W 7489  31.020  35.034   3.348
35164W        W 7490   5.199  10.711   1.908
35165W        W 7491  25.548  22.539  11.914
35166W        W 7492  21.228   4.234  13.931
35167W        W 7493  10.755  23.118  12.384
35168W        W 7494  34.944  14.268  11.458
35169W        W 7495  24.073   6.909   2.900
35170W        W 7496  14.178  11.858   3.840
35171W        W 7497  32.131   1.348   4.297
35172W        W 7498  18.606   2.295   2.699
35173W        W 7499   7.396   9.203  13.017
35174W        W 7500  39.462  41.833   4.602
35175W        W 7501  15.642  34.527   2.416
35176W        W 7502  16.305  34.948   1.371
35177W        W 7503  13.336   8.737   0.306
35178W        W 7504   7.349  10.256   2.296
35179W        W 7505  10.283   2.748  12.441
35180W        W 7506  35.975  23.093   1.874
35181W        W 7507   9.302  32.589   2.878
35182W        W 7508  14.763  17.164  13.793
35183W        W 7509  17.788  19.754   3.838
35184W        W 7510  33.402  21.255   2.772
35185W        W 7511  19.603  21.620   0.337
35186W        W 7512  25.969  22.221   3.849
35187W        W 7513  16.219   0.900  12.351
35188W        W 7514  36.035  44.366   0.945
35189W        W 7515  43.994  42.471  10.999
35190W        W 7516  15.815  24.565  11.066
35191W        W 7517  40.024  19.182   4.663
35192W        W 7518  17.705  29.494   2.254
35193W        W 7519   2.905   6.386  11.582
35194W        W 7520  32.900   3.226   0.846
35195W        W 7521  24.668  11.827   4.271
35196W        W 7522  28.991  29.452  13.950
35197W        W 7523  11.681  26.085   0.768
35198W        W 7524  35.994  30.135   4.355
35199W        W 7525  34.609  27.507   0.919
35200W        W 7526  21.596  43.366  12.492
35201W        W 7527   6.743  12.340  11.862
35202W        W 7528   6.771   1.907   4.697
35203W        W 7529  40.985   2.835   2.881
35204W        W 7530  43.976  18.746   3.156
35205W        W 7531  29.508  11.827  12.949
35206W        W 7532  15.158  16.715  13.521
35207W        W 7533  17.214  14.721   4.732
35208W        W 7534  17.721  22.728  13.529
35209W        W 7535  20.144   9.860  12.455
35210W        W 7536  26.674   9.246   4.310
35211W        W 7537  29.506  20.599  11.377
35212W        W 7538  23.519  13.729   0.910
35213W        W 7539   0.341  16.100   0.772
35214W        W 7540   2.299   5.365   3.380
35215W        W 7541  30.961  35.493   4.662
35216W        W 7542  13.135  23.662  12.041
35217W        W 7543  20.630  24.539   3.814
35218W        W 7544  33.085  43.288   4.708
35219W        W 7545  25.170  13.763   3.292
35220W        W 7546  30.587   5.336   3.209
35221W        W 7547  16.687  43.814  10.922
35222W        W 7548  44.268  30.092   3.732
35223W        W 7549   5.353  44.365   1.798
35224W        W 7550  44.925   5.397  13.432
35225W        W 7551  19.592  28.005   2.672
35226W        W 7552  33.987  44.978   2.399
35227W        W 7553  39.857  21.679  14.843
35228W        W 7554  34.500  28.039   1.344
35229W        W 7555  38.850  34.119  11.036
35230W        W 7556  37.984  38.945   4.632
35231W        W 7557  21.123  30.977   2.245
35232W        W 7558  33.483  22.746  13.867
35233W        W 7559   6.265   0.273   2.685
35234W        W 7560  38.440  43.972  14.911
35235W        W 7561  20.736  18.602   4.143
35236W        W 7562  32.980  36.089   0.808
35237W        W 7563  41.005   7.314  11.076
35238W        W 7564   1.321  28.946   1.273
35239W        W 7565  16.639   4.885   3.254
35240W        W 7566  21.190  44.780  11.592
35241W        W 7567  20.050  35.890   5.100
35242W        W 7568  28.134  12.119  14.863
35243W        W 7569  13.268  33.079   9.484
35244W        W 7570  35.896  26.669  13.419
35245W        W 7571   8.344   6.397   4.736
35246W        W 7572  44.946  44.361   2.870
35247W        W 7573   0.468  10.238   1.822
35248W        W 7574   2.267  23.986  11.400
35249W        W 7575   8.878   8.323  11.125
35250W        W 7576  37.982  35.909  11.458
35251W        W 7577  31.064   4.851   0.457
35252W        W 7578  36.354  40.424  13.974
35253W        W 7579  36.970  11.804   4.269
35254W        W 7580  23.038  44.862   0.878
35255W        W 7581  14.230  40.436   4.798
35256W        W 7582  39.970  44.386   2.362
35257W        W 7583  15.709  21.754   2.319
35258W        W 7584   9.216  29.166  13.528
35259W        W 7585  33.085  21.751   4.635
35260W        W 7586  27.506  21.025  12.422
35261W        W 7587  21.084  23.535   0.810
35262W        W 7588  16.172  29.948   3.641
35263W        W 7589  21.684  30.063   3.220
35264W        W 7590  40.804  21.547   0.245
35265W        W 7591  33.382  22.153   3.720
35266W        W 7592  22.739  33.579  11.031
35267W        W 7593  30.975  10.284   1.749
35268W        W 7594  42.918  38.977   1.779
35269W        W 7595  36.086  24.981   4.716
35270W        W 7596  27.678   5.791   3.151
35271W        W 7597   0.323   2.350   5.688
35272W        W 7598  11.180  23.509  14.932
35273W        W 7599  13.739  20.604  11.127
35274W        W 7600   7.892   3.391   0.348
35275W        W 7601  13.742  41.501   1.223
35276W        W 7602  27.193   0.987   0.317
35277W        W 7603   6.215   5.745  10.987
35278W        W 7604  29.563  11.647   3.866
35279W        W 7605  22.623  23.117  10.469
35280W        W 7606   7.393  27.484  11.452
35281W        W 7607  30.080   9.846  10.567
35282W        W 7608  19.240  44.350  10.567
35283W        W 7609  42.485  33.574   2.823
35284W        W 7610  32.525  31.535  14.798
35285W        W 7611  39.441  29.460  13.497
35286W        W 7612  16.289   9.684   2.273
35287W        W 7613   0.755   9.158  14.307
35288W        W 7614  14.671  27.991   2.307
35289W        W 7615  36.010  26.562  14.943
35290W        W 7616  44.385  35.366   1.844
35291W        W 7617  26.086  37.933   4.712
35292W        W 7618  34.401  39.053   3.208
35293W        W 7619  11.332  18.243  14.330
35294W        W 7620  20.147  43.971   0.810
35295W        W 7621   2.405  43.912  10.937
35296W        W 7622  14.192  34.410   3.862
35297W        W 7623  14.225  17.570   0.467
35298W        W 7624  44.316  22.551   2.711
35299W        W 7625  22.079   3.250  13.530
35300W        W 7626  44.928  11.754   2.718
35301W        W 7627  29.643  27.101  13.870
35302W        W 7628  31.403   1.843  10.488
35303W        W 7629  25.700  26.032  13.865
35304W        W 7630  11.851  38.969  13.000
35305W        W 7631   9.743  29.537  14.963
35306W        W 7632   7.325   2.454  14.955
35307W        W 7633  16.179  34.065  14.988
35308W        W 7634  37.370  12.218  11.999
35309W        W 7635   3.366  27.538  11.999
35310W        W 7636  25.675   8.328   2.772
35311W        W 7637  19.073   4.403  12.003
35312W        W 7638  38.328  19.100   1.379
35313W        W 7639  16.600  27.681  13.946
35314W        W 7640  16.593   3.871  12.965
35315W        W 7641   5.841   1.370   2.799
35316W        W 7642  22.146  41.812   0.436
35317W        W 7643  30.135  20.250   4.682
35318W        W 7644  32.551  44.837   1.236
35319W        W 7645   0.423   1.338   3.752
35320W        W 7646   4.944   8.215  14.428
35321W        W 7647  27.191   3.732   1.442
35322W        W 7648  23.606  29.466  10.431
35323W        W 7649  11.224  42.401  12.842
35324W        W 7650  15.754  28.499   3.271
35325W        W 7651  38.428   0.290   4.644
35326W        W 7652  14.660  26.046   9.531
35327W        W 7653   8.828  13.686   1.226
35328W        W 7654  21.032  35.106  14.869
35329W        W 7655   9.765   5.271   4.160
35330W        W 7656  43.301  43.391  13.872
35331W        W 7657  14.796  10.150   3.296
35332W        W 7658  15.700  33.131   2.882
35333W        W 7659   0.316  37.004   3.146
35334W        W 7660  10.681   7.365   3.780
35335W        W 7661  37.574  12.611  12.063
35336W        W 7662  28.134   5.254   1.239
35337W        W 7663   9.837  11.342   2.188
35338W        W 7664  33.087  28.071   3.322
35339W        W 7665  19.241   9.183   3.808
35340W        W 7666  42.334  44.843  11.985
35341W        W 7667  38.507   0.851   4.203
35342W        W 7668  35.043   2.297   1.290
35343W        W 7669   7.800  27.630  10.951
35344W        W 7670  10.255  36.870  12.927
35345W        W 7671  20.767   3.837  13.364
35346W        W 7672  38.530  27.995   1.850
35347W        W 7673  18.690   0.372   2.794
35348W        W 7674   8.314   0.962   0.313
35349W        W 7675  35.033  28.060  14.893
35350W        W 7676  33.467  10.746  11.543
35351W        W 7677  22.679  21.051  13.884
35352W        W 7678  28.514  15.642  11.540
35353W        W 7679  23.706  13.213  13.465
35354W        W 7680  33.096  26.968   2.871
35355W        W 7681   4.221   0.291   2.714
35356W        W 7682  34.077  12.259   0.340
35357W        W 7683  22.248   4.290  14.023
35358W        W 7684  41.315   4.836  13.321
35359W        W 7685  31.526  16.715  13.899
35360W        W 7686  21.153  43.785  11.573
35361W        W 7687  40.900  34.973  13.317
35362W        W 7688  43.989   0.452  11.882
35363W        W 7689  14.153   1.286   3.298
35364W        W 7690  26.024  18.196  12.385
35365W        W 7691   6.313  21.533   0.252
35366W        W 7692   8.786   1.744  12.826
35367W        W 7693  44.962  13.757   3.263
35368W        W 7694   6.294  19.177   4.640
35369W        W 7695  32.135  13.790   4.639
35370W        W 7696  13.616  32.962   3.801
35371W        W 7697  19.671  38.903  10.577
35372W        W 7698  44.412  22.655   3.861
35373W        W 7699  36.980  13.116  13.446
35374W        W 7700   5.742  35.885   4.611
35375W        W 7701  39.445  21.743   0.306
35376W        W 7702  40.350  35.058  11.863
35377W        W 7703  18.556   9.211   0.298
35378W        W 7704  30.580   5.419  13.815
35379W        W 7705  38.548  28.116  10.535
35380W        W 7706  15.108  43.495   1.215
35381W        W 7707  12.732  16.727   0.483
35382W        W 7708   2.752   6.742  12.881
35383W        W 7709  42.361  32.954   3.864
35384W        W 7710   9.846  26.509  14.370
35385W        W 7711   5.813  31.950   4.834
35386W        W 7712   3.227  23.182  14.431
35387W        W 7713  13.827  20.736  10.432
35388W        W 7714  18.568  33.016  12.533
35389W        W 7715   1.858  24.210  13.063
35390W        W 7716  40.356  42.865   2.754
35391W        W 7717  39.357  42.414  11.014
35392W        W 7718  41.305  42.939   0.809
35393W        W 7719  37.024  42.860  12.998
35394W        W 7720  11.799  33.586   1.439
35395W        W 7721  15.613   9.301  11.403
35396W        W 7722  26.636   2.289  11.516
35397W        W 7723  27.182   5.353   3.806
35398W        W 7724  18.085  23.062   1.411
35399W        W 7725  30.993  34.937  14.953
35400W        W 7726  27.586  16.171   1.287
35401W        W 7727  21.155  40.016  13.987
35402W        W 7728  27.955  13.680  13.975
35403W        W 7729  11.224  43.000  13.893
35404W        W 7730  36.037  35.969  12.027
35405W        W 7731  26.586  37.464  11.954
35406W        W 7732  36.386  42.820  10.605
35407W        W 7733  41.357  41.494  13.841
35408W        W 7734   9.751  11.828  11.953
35409W        W 7735   3.402  24.657  11.074
35410W        W 7736   2.768  40.951   4.618
35411W        W 7737  23.995  34.458  13.918
35412W        W 7738   2.864  41.823   4.240
35413W        W 7739  40.950   9.346  13.542
35414W        W 7740   7.750  43.490  13.803
35415W        W 7741  29.944   0.391  10.617
35416W        W 7742  21.607  44.998   0.311
35417W        W 7743   0.410  36.446   0.760
35418W        W 7744   8.656  11.760   1.222
35419W        W 7745  36.941  10.349  14.278
35420W        W 7746  21.234   2.880   1.834
35421W        W 7747  32.586   0.964   0.338
35422W        W 7748  10.851  16.583  12.009
35423W        W 7749  25.560  24.537   4.631
35424W        W 7750   2.951  19.753   1.849
35425W        W 7751  11.713  18.744  11.996
35426W        W 7752  35.580  17.153   1.722
35427W        W 7753  29.081  35.575  13.008
35428W        W 7754  11.172  10.745  12.413
35429W        W 7755   6.423   6.312   9.971
35430W        W 7756   6.212  32.077   2.334
35431W        W 7757  15.697  13.772  12.394
35432W        W 7758  40.809  40.484   2.898
35433W        W 7759  27.664  24.056  11.426
35434W        W 7760  16.314   7.385  13.046
35435W        W 7761  26.476  29.529   1.845
35436W        W 7762  33.390  20.536   2.665
35437W        W 7763  29.432  32.938  14.383
35438W        W 7764  14.832  38.946  14.486
35439W        W 7765  39.397  19.074  13.512
35440W        W 7766  44.787  29.482  14.939
35441W        W 7767  43.280   4.914  13.417
35442W        W 7768  34.959  29.012   3.797
35443W        W 7769  40.303   4.714  10.471
35444W        W 7770  18.263  14.705   2.240
35445W        W 7771   4.366  41.517   4.709
35446W        W 7772  34.886  22.121   0.864
35447W        W 7773  27.089  30.959  11.957
35448W        W 7774  20.268   4.233  14.312
35449W        W 7775  26.033  19.271  13.954
35450W        W 7776   6.710  15.694   3.149
35451W        W 7777  24.079  40.003  12.939
35452W        W 7778  39.372  24.226   2.790
35453W        W 7779  38.912  41.384  14.872
35454W        W 7780  12.244  19.729   1.428
35455W        W 7781  38.982   4.366  13.517
35456W        W 7782  11.843   7.768  13.849
35457W        W 7783  27.045   4.742  11.872
35458W        W 7784  39.501  14.275   3.811
35459W        W 7785  19.695  35.362   0.951
35460W        W 7786  39.400  23.627   1.375
35461W        W 7787  39.332  44.416   0.830
35462W        W 7788  18.156   5.312   4.241
35463W        W 7789   3.731  42.492   0.921
35464W        W 7790  18.706  33.460   3.763
35465W        W 7791   8.164  23.225   0.250
35466W        W 7792  17.149  23.490  10.098
35467W        W 7793  44.862  27.601   4.230
35468W        W 7794  36.875  32.010  14.313
35469W        W 7795  21.234  34.577  14.808
35470W        W 7796  28.492   0.250  10.919
35471W        W 7797  35.496  42.002   1.262
35472W        W 7798   7.345  29.995   2.286
35473W        W 7799  22.028   3.410  11.086
35474W        W 7800  12.719  14.294   2.366
35475W        W 7801  25.593  13.222  11.586
35476W        W 7802  31.919  12.821  14.921
35477W        W 7803  26.686  21.072  12.372
35478W        W 7804   9.704  15.126   4.687
35479W        W 7805  36.953  39.934  11.452
35480W        W 7806  16.709  30.101   3.840
35481W        W 7807   7.819  42.789   0.788
35482W        W 7808  21.530  23.047   2.241
35483W        W 7809  22.040  38.890  13.845
35484W        W 7810   8.745  39.938   1.896
35485W        W 7811  36.003  16.269  10.517
35486W        W 7812  41.313  26.488  10.579
35487W        W 7813  42.842  37.882   2.252
35488W        W 7814  34.909  25.645   3.706
35489W        W 7815  34.007  15.745   4.675
35490W        W 7816  42.918  19.220   2.760
35491W        W 7817   7.682   4.261  14.418
35492W        W 7818   8.672  32.109  12.435
35493W        W 7819  30.163   3.431   3.696
35494W        W 7820  28.595  17.628   0.482
35495W        W 7821  11.149  43.484   3.271
35496W        W 7822  19.751  12.799  10.418
35497W        W 7823   1.852  33.571   3.304
35498W        W 7824  28.053   3.289   4.139
35499W        W 7825  30.982   4.270   3.222
35500W        W 7826  18.657  16.236  11.520
35501W        W 7827  43.812  30.976   4.793
35502W        W 7828  38.449  10.184   2.279
35503W        W 7829  40.418  44.348   5.237
35504W        W 7830  13.775  28.652  13.799
35505W        W 7831  11.153  44.449   3.317
35506W        W 7832  43.014   0.270   3.375
35507W        W 7833  37.991  13.746  11.472
35508W        W 7834  24.719  28.000  10.892
35509W        W 7835   8.236  35.882   3.361
35510W        W 7836  32.947  43.271  10.552
35511W        W 7837  14.650  19.166   1.332
35512W        W 7838  34.951  41.472  13.351
35513W        W 7839  31.123   2.297   4.707
35514W        W 7840   2.875  19.265   3.749
35515W        W 7841  10.633  27.639  11.976
35516W        W 7842  42.290  35.484  14.443
35517W        W 7843  25.971  10.305  13.801
35518W        W 7844  10.260  33.087  12.955
35519W        W 7845  25.499   5.846  13.405
35520W        W 7846   9.788  19.702  14.839
35521W        W 7847  31.484  39.861  14.495
35522W        W 7848  17.229  26.560  11.942
35523W        W 7849  37.416  17.747  12.504
35524W        W 7850   7.332  12.830  11.434
35525W        W 7851  21.046   4.909  10.946
35526W        W 7852  10.149  14.133   0.908
35527W        W 7853  38.976   1.369   4.245
35528W        W 7854  27.539  12.690   0.756
35529W        W 7855  40.966   0.914  10.622
35530W        W 7856  10.818  28.172   0.478
35531W        W 7857  18.147  16.595  12.022
35532W        W 7858  41.796  44.000   3.162
35533W        W 7859   2.865  28.135  11.516
35534W        W 7860  31.618  40.480  13.962
35535W        W 7861  27.006   3.756   4.719
35536W        W 7862  34.427  44.366  12.905
35537W        W 7863  10.167   8.677   0.376
35538W        W 7864  37.511  42.501   1.875
35539W        W 7865  27.070  39.432   0.727
35540W        W 7866  24.085  29.650   2.390
35541W        W 7867   9.187  15.159   3.320
35542W        W 7868  12.242  32.500   3.836
35543W        W 7869  37.526  13.768  11.405
35544W        W 7870  38.344  29.098   4.681
35545W        W 7871  20.241  25.991   2.722
35546W        W 7872  24.645  11.779  10.891
35547W        W 7873   5.735  40.994   3.239
35548W        W 7874  30.015  19.066   1.750
35549W        W 7875  14.695   1.882   1.261
35550W        W 7876   4.317  26.194  14.494
35551W        W 7877  23.072  18.682   4.118
35552W        W 7878  25.520  39.552  12.020
35553W        W 7879   6.289  41.879  13.978
35554W        W 7880  39.553  14.323   2.896
35555W        W 7881  22.007  20.133   4.638
35556W        W 7882  11.232  41.527   4.741
35557W        W 7883  36.884  32.109  13.360
35558W        W 7884  32.139  34.434   4.752
35559W        W 7885   5.721  31.101  12.560
35560W        W 7886   6.700  16.751  13.408
35561W        W 7887  36.930  38.874  12.440
35562W        W 7888  20.548   9.378  14.902
35563W        W 7889  25.032  30.955  11.483
35564W        W 7890  29.090  16.579   1.724
35565W        W 7891  38.385   5.284  14.789
35566W        W 7892   9.155   8.190   2.387
35567W        W 7893   2.843  20.707   0.430
35568W        W 7894  28.021   9.881   0.943
35569W        W 7895  42.396   6.783   1.289
35570W        W 7896   3.333  18.634  10.443
35571W        W 7897  39.473  32.508   3.222
35572W        W 7898  16.593   7.694  13.013
35573W        W 7899  34.479  31.416  13.488
35574W        W 7900   5.324  15.731   1.923
35575W        W 7901  18.122  21.731   4.606
35576W        W 7902   6.313  14.169  11.434
35577W        W 7903  29.998  37.550   4.152
35578W        W 7904  20.070   5.262  11.563
35579W        W 7905  25.977  35.979   1.311
35580W        W 7906  34.062   2.963  11.867
35581W        W 7907  25.043  44.268  11.566
35582W        W 7908  10.252   4.373   4.712
35583W        W 7909  40.838  38.956   2.755
35584W        W 7910  34.974   3.837  12.000
35585W        W 7911  12.715   2.914  13.856
35586W        W 7912  18.179  42.431   0.961
35587W        W 7913  42.776  43.275  14.981
35588W        W 7914  33.593  22.034   2.782
35589W        W 7915   8.710  36.368  10.444
35590W        W 7916  18.593   8.696  11.484
35591W        W 7917  17.621  32.518  13.977
35592W        W 7918  18.152  24.986   3.851
35593W        W 7919  20.168  38.055   1.238
35594W        W 7920   4.411  42.926   4.829
35595W        W 7921  41.878  11.670  11.053
35596W        W 7922  26.657  17.557   4.282
35597W        W 7923  13.304  34.863  12.852
35598W        W 7924  27.079  10.853  10.892
35599W        W 7925  42.352  34.000  12.432
35600W        W 7926  16.206  12.328  14.463
35601W        W 7927  41.374  37.864   4.313
35602W        W 7928  34.868  36.015  10.559
35603W        W 7929  40.317  42.031  10.907
35604W        W 7930  41.802  42.451  12.828
35605W        W 7931  41.353  30.629   1.769
35606W        W 7932  31.626  17.224  13.371
35607W        W 7933  26.668  24.202   0.391
35608W        W 7934   0.461   4.269  14.843
35609W        W 7935   3.222  37.391  14.813
35610W        W 7936   6.840  35.533  14.882
35611W        W 7937  21.063  15.620   5.158
35612W        W 7938  26.026  29.111  12.896
35613W        W 7939  11.754  16.146  10.979
35614W        W 7940  12.336  25.219   0.926
35615W        W 7941  23.202  17.763  11.110
35616W        W 7942  29.548  37.983  14.410
35617W        W 7943  19.538   0.346  12.906
35618W        W 7944  38.852  44.372  10.017
35619W        W 7945  20.125  35.063  14.364
35620W        W 7946   6.685   7.345   4.202
35621W        W 7947  21.070  21.563  12.033
35622W        W 7948  39.544  18.119   1.855
35623W        W 7949  27.545   1.910  14.387
35624W        W 7950  22.111  31.979   3.385
35625W        W 7951   9.811  40.830  11.464
35626W        W 7952  22.160  12.189   3.803
35627W        W 7953  26.101  14.745   2.824
35628W        W 7954  34.464  20.573  14.511
35629W        W 7955   7.706  36.572  13.054
35630W        W 7956  12.651  29.535  11.535
35631W        W 7957  18.279  27.451   0.479
35632W        W 7958  18.616  34.896  12.061
35633W        W 7959  33.536  44.868  12.410
35634W        W 7960  27.160  10.357   4.815
35635W        W 7961  37.404   5.890   2.180
35636W        W 7962  44.971  41.997   4.606
35637W        W 7963   1.775   0.846   4.343
35638W        W 7964  36.993  25.209   2.885
35639W        W 7965  24.693  31.934   1.245
35640W        W 7966   9.689  20.572  11.116
35641W        W 7967  30.600  39.339  10.460
35642W        W 7968  25.005   4.747   9.968
35643W        W 7969   5.423  35.990  11.986
35644W        W 7970  10.695  28.487  11.444
35645W        W 7971  13.669  36.075   0.890
35646W        W 7972  34.008  32.553   3.365
35647W        W 7973  25.488  36.991  13.028
35648W        W 7974  27.460  18.200   3.338
35649W        W 7975  31.917  22.514   5.279
35650W        W 7976  38.024  22.534   0.304
35651W        W 7977   3.307  42.779  13.320
35652W        W 7978  16.626  44.908   1.289
35653W        W 7979  23.031  16.707  14.982
35654W        W 7980   0.431  21.149   2.694
35655W        W 7981  24.060  13.645  11.407
35656W        W 7982  27.038  22.597  11.452
35657W        W 7983  38.913  26.069  10.537
35658W        W 7984  22.020  29.426   4.230
35659W        W 7985   9.667  12.632  14.954
35660W        W 7986  27.192   8.348  13.907
35661W        W 7987  13.620   7.849  11.993
35662W        W 7988  31.996   1.255  10.967
35663W        W 7989  22.544   4.821   0.787
35664W        W 7990  14.608   1.801  10.938
35665W        W 7991  17.185  25.606   0.431
35666W        W 7992  31.482  37.866  12.092
35667W        W 7993  12.673  43.776  14.979
35668W        W 7994   0.922   8.181   3.794
35669W        W 7995  33.477  22.673  11.602
35670W        W 7996  23.620  10.191  12.544
35671W        W 7997  25.150  24.995   2.315
35672W        W 7998  28.448  29.992  14.480
35673W        W 7999  25.978   0.365  12.903
35674W        W 8000   3.777  15.164   4.199
35675W        W 8001  11.850  28.561  10.452
35676W        W 8002  25.996  15.811   1.783
35677W        W 8003  28.103  20.193   3.781
35678W        W 8004  25.583  37.380  12.475
35679W        W 8005  15.206  22.502  10.912
35680W        W 8006  23.081  34.990   0.245
35681W        W 8007   7.785  43.512   0.460
35682W        W 8008  36.529  10.713   0.317
35683W        W 8009  15.093  33.908  11.443
35684W        W 8010   5.411  18.669   1.875
35685W        W 8011  17.639  36.522   2.278
35686W        W 8012  18.614  26.091  10.975
35687W        W 8013  37.346   1.439  10.918
35688W        W 8014  44.290   2.845  10.950
35689W        W 8015  21.531  29.611  14.489
35690W        W 8016  41.433  33.492  12.971
35691W        W 8017  30.491  39.035   3.329
35692W        W 8018  21.743   9.315   3.167
35693W        W 8019  31.488  24.026  12.974
35694W        W 8020  37.400  44.865   1.801
35695W        W 8021  20.740   6.273   0.953
35696W        W 8022  43.882  16.236   4.793
35697W        W 8023  30.605  31.481  11.877
35698W        W 8024  11.759  14.823  13.343
35699W        W 8025  12.303  26.475  11.504
35700W        W 8026  36.508  16.753   2.858
35701W        W 8027  31.142  17.773   0.945
35702W        W 8028  28.443  29.139   1.876
35703W        W 8029  39.003  38.372  10.468
35704W        W 8030  43.362   7.872   3.645
35705W        W 8031  15.683   1.811   1.886
35706W        W 8032  39.560   5.913  10.625
35707W        W 8033  43.406   6.254  11.588
35708W        W 8034  41.970  40.495   1.303
35709W        W 8035  31.556  21.077   2.826
35710W        W 8036  37.452  28.052   2.848
35711W        W 8037  36.855   0.983  13.962
35712W        W 8038  25.483  27.061   3.657
35713W        W 8039  25.163  33.462  12.413
35714W        W 8040  10.843  41.034  11.058
35715W        W 8041  20.170  39.541  13.414
35716W        W 8042  27.946  12.313  11.606
35717W        W 8043  23.701  40.957   2.721
35718W        W 8044  27.542   9.793  14.840
35719W        W 8045  24.198  31.631  13.531
35720W        W 8046  43.778   7.285  14.411
35721W        W 8047  14.795  25.105  13.480
35722W        W 8048  14.657   1.861   2.832
35723W        W 8049   8.161  13.252   1.903
35724W        W 8050  41.464  43.976   4.674
35725W        W 8051  39.016  22.183   1.757
35726W        W 8052   2.269  21.569   9.649
35727W        W 8053  30.973   1.365  14.933
35728W        W 8054  11.695  11.741  11.031
35729W        W 8055  38.478   4.870  14.425
35730W        W 8056  30.145  24.072  13.830
35731W        W 8057   5.787  16.081   4.198
35732W        W 8058  34.569  25.678   4.797
35733W        W 8059  13.815  26.198  13.891
35734W        W 8060  21.629   7.820   0.839
35735W        W 8061  18.554  26.960   3.857
35736W        W 8062  38.972  37.046   4.768
35737W        W 8063   6.825  28.032  12.849
35738W        W 8064   6.359  13.735   1.798
35739W        W 8065  32.887   2.964   1.898
35740W        W 8066  29.991  19.113  10.470
35741W        W 8067  30.518   1.744   1.804
35742W        W 8068  41.293  12.240  11.871
35743W        W 8069  22.525  15.159   2.412
35744W        W 8070  40.323  28.969   4.729
35745W        W 8071  41.341  42.807   4.311
35746W        W 8072  34.474  43.834   1.337
35747W        W 8073  21.670  12.186   2.310
35748W        W 8074  33.540   9.654   3.350
35749W        W 8075  40.982  30.071   0.255
35750W        W 8076  41.042  23.019  11.481
35751W        W 8077  41.813  11.311  12.442
35752W        W 8078  34.091  13.836   0.438
35753W        W 8079  41.838  40.441  13.481
35754W        W 8080  15.762   6.909   3.691
35755W        W 8081  29.013  32.458  14.362
35756W        W 8082   2.406   0.269   2.383
35757W        W 8083  38.955   2.853  12.930
35758W        W 8084  12.171  36.425  11.591
35759W        W 8085  21.641  36.849   5.756
35760W        W 8086  28.561  32.538   0.846
35761W        W 8087  26.190  15.644   0.267
35762W        W 8088  29.615  32.969   4.170
35763W        W 8089  10.757   5.746  11.529
35764W        W 8090  37.348   2.899   4.649
35765W        W 8091  42.886  10.320   4.250
35766W        W 8092  17.642  18.124   0.938
35767W        W 8093  20.093  31.596   0.303
35768W        W 8094  11.327  12.344   3.715
35769W        W 8095  33.620  24.046  10.111
35770W        W 8096  29.939  28.146  14.411
35771W        W 8097  15.228  22.623  14.382
35772W        W 8098  18.119  22.075   1.219
35773W        W 8099   4.445  15.205  10.468
35774W        W 8100  22.514  25.182   2.726
35775W        W 8101  36.881  44.468  13.370
35776W        W 8102   1.309   7.305  12.367
35777W        W 8103  44.398  33.094   3.179
35778W        W 8104   2.285   6.890   0.312
35779W        W 8105  11.682   8.188  12.996
35780W        W 8106  12.628  33.946  14.947
35781W        W 8107  30.488   8.890  13.391
35782W        W 8108   7.743  11.192  11.962
35783W        W 8109  29.937  37.539   0.387
35784W        W 8110  27.091   8.723   2.669
35785W        W 8111  25.026  38.946  14.000
35786W        W 8112  23.999  29.650   3.707
35787W        W 8113  10.380  11.341  10.058
35788W        W 8114   0.966  29.512  12.901
35789W        W 8115  33.911  37.430  11.991
35790W        W 8116  22.039  40.962   3.778
35791W        W 8117  16.207   5.792   2.781
35792W        W 8118   9.738  22.116   2.375
35793W        W 8119  39.349  20.568  12.477
35794W        W 8120  39.376  24.568   2.803
35795W        W 8121  28.105  20.103  11.507
35796W        W 8122  18.550  32.054   1.842
35797W        W 8123  26.168  19.627   2.286
35798W        W 8124  42.903  33.132   0.775
35799W        W 8125  21.091  17.291   0.395
35800W        W 8126   7.813  13.171   4.750
35801W        W 8127  36.971  38.861  10.986
35802W        W 8128   2.292  31.978   2.387
35803W        W 8129   3.395   0.252   1.279
35804W        W 8130  12.696  12.633   4.726
35805W        W 8131  30.554   6.882   0.853
35806W        W 8132  16.080  44.303  11.905
35807W        W 8133  40.304  34.043   3.195
35808W        W 8134   1.950  23.619   2.263
35809W        W 8135  38.357  13.160  11.924
35810W        W 8136  41.322  41.391   1.850
35811W        W 8137  39.883  43.306  13.857
35812W        W 8138  42.840   0.267   4.658
35813W        W 8139   0.972  13.262  11.435
35814W        W 8140  21.243  17.615   2.339
35815W        W 8141  29.100  36.477  13.876
35816W        W 8142   2.833  44.872  10.488
35817W        W 8143  12.314  24.191  12.828
35818W        W 8144  36.490  10.864  13.008
35819W        W 8145  34.375  20.633   2.270
35820W        W 8146  32.954  42.437  12.975
35821W        W 8147  18.552  43.324  11.456
35822W        W 8148  14.104  24.147   4.232
35823W        W 8149  41.815   3.844   4.210
35824W        W 8150  11.194  11.805   3.629
35825W        W 8151  13.170  40.816  13.491
35826W        W 8152   2.836  42.995  13.399
35827W        W 8153  10.876   9.183  14.008
35828W        W 8154   5.245  44.341  11.526
35829W        W 8155  14.252  26.681   5.312
35830W        W 8156  11.666  10.652   1.838
35831W        W 8157  16.629   5.287  10.896
35832W        W 8158  14.330  20.578  12.472
35833W        W 8159  38.915  12.156  10.976
35834W        W 8160  20.097   6.801   2.672
35835W        W 8161  13.210  19.724   0.423
35836W        W 8162   7.188  24.025   3.327
35837W        W 8163   1.295  38.343  11.487
35838W        W 8164   8.199  31.572   0.814
35839W        W 8165   7.801   6.227   2.230
35840W        W 8166  26.959  28.539  12.060
35841W        W 8167  17.154  18.169  14.868
35842W        W 8168  15.095   5.331  14.485
35843W        W 8169  30.471  21.065   2.369
35844W        W 8170  18.131  37.048  12.981
35845W        W 8171  11.752   3.903  11.377
35846W        W 8172  39.841  33.904  13.838
35847W        W 8173   2.371   7.702  14.305
35848W        W 8174   8.702   0.983   0.779
35849W        W 8175   3.886  44.956  12.494
35850W        W 8176  35.444   0.810  14.837
35851W        W 8177  17.609   2.448   1.233
35852W        W 8178  35.485   3.878   3.308
35853W        W 8179  12.204  30.592   3.290
35854W        W 8180  19.555  16.808   4.611
35855W        W 8181  31.420  29.931   3.189
35856W        W 8182   5.836  16.203   2.255
35857W        W 8183  35.918  13.273  13.040
35858W        W 8184  23.600  34.995   0.748
35859W        W 8185  26.206  24.584   4.635
35860W        W 8186  36.516   6.398  10.046
35861W        W 8187  44.381  42.525  10.041
35862W        W 8188  40.499  37.443  14.503
35863W        W 8189  23.123  23.071  10.531
35864W        W 8190  19.619  10.781   4.639
35865W        W 8191  17.681  29.164   3.254
35866W        W 8192  32.445  12.745  14.498
35867W        W 8193  44.849  36.031   4.791
35868W        W 8194  15.106  44.766   0.463
35869W        W 8195   9.160  32.418  13.064
35870W        W 8196  28.934   1.305   1.361
35871W        W 8197  31.038  12.336   1.297
35872W        W 8198  34.535  14.653   4.660
35873W        W 8199  38.029  31.578  11.885
35874W        W 8200  29.095  28.007  10.517
35875W        W 8201  19.733  14.109   0.333
35876W        W 8202  22.511  13.213   2.362
35877W        W 8203  39.518  36.522   3.275
35878W        W 8204  19.069  25.173  13.397
35879W        W 8205  44.922  44.781  14.860
35880W        W 8206  14.127   7.732  10.983
35881W        W 8207  20.525   7.363   2.246
35882W        W 8208  16.274  14.227   4.133
35883W        W 8209  16.180  29.514  10.601
35884W        W 8210  26.966  34.087   1.918
35885W        W 8211  10.312  22.523  12.389
35886W        W 8212  13.253  44.766  11.402
35887W        W 8213  43.371  38.966   0.935
35888W        W 8214  39.415  41.873  12.443
35889W        W 8215  27.665  12.201   1.245
35890W        W 8216  33.487  10.218   3.751
35891W        W 8217   6.736  20.542  10.997
35892W        W 8218   6.905   2.376  11.523
35893W        W 8219  28.981  12.179  11.013
35894W        W 8220  35.981  29.052   3.758
35895W        W 8221  23.015  30.636  11.568
35896W        W 8222  20.733   5.721   2.370
35897W        W 8223  29.610   1.430   1.782
35898W        W 8224  11.666  25.605   3.179
35899W        W 8225  33.475  35.945   9.924
35900W        W 8226  42.431   1.744  14.476
35901W        W 8227   2.917  34.449   2.715
35902W        W 8228  35.010  34.076  11.899
35903W        W 8229  41.891  31.898   2.709
35904W        W 8230   3.258   3.917  13.905
35905W        W 8231  30.957  34.513   3.783
35906W        W 8232  12.251  21.700  14.419
35907W        W 8233  42.466  24.506   1.361
35908W        W 8234  32.417   4.945   3.743
35909W        W 8235   6.845   9.696   3.773
35910W        W 8236  29.460  40.327  13.413
35911W        W 8237  40.014  18.663   2.748
35912W        W 8238  30.923  27.132   2.670
35913W        W 8239  15.115  12.332  10.606
35914W        W 8240   2.934  22.695  11.121
35915W        W 8241   0.931  39.831   3.767
35916W        W 8242  17.267  14.296   3.279
35917W        W 8243   0.861  33.916  11.474
35918W        W 8244  32.058  29.937  12.902
35919W        W 8245  41.435  38.378   0.293
35920W        W 8246  29.981  24.148  10.542
35921W        W 8247  21.051   8.248  11.520
35922W        W 8248   9.211  21.205  11.124
35923W        W 8249  16.589   3.385   4.620
35924W        W 8250   1.898   3.884  14.950
35925W        W 8251  16.158  32.920  12.855
35926W        W 8252  23.717  18.693   0.940
35927W        W 8253  34.581  23.091   3.252
35928W        W 8254  23.671  38.985  13.925
35929W        W 8255  31.585  25.128  13.062
35930W        W 8256  35.385  28.448   2.192
35931W        W 8257  35.445  10.806  12.074
35932W        W 8258  38.331   1.836  14.422
35933W        W 8259   2.391  23.204  10.056
35934W        W 8260  43.474  30.461  11.944
35935W        W 8261  28.649  20.242  13.383
35936W        W 8262  17.064   0.828  14.472
35937W        W 8263  32.419  10.800   2.368
35938W        W 8264  36.367   6.865  12.097
35939W        W 8265  23.089  16.237   1.736
35940W        W 8266   9.735  19.671  12.527
35941W        W 8267  12.754  24.615  14.766
35942W        W 8268  18.565   2.313  14.916
35943W        W 8269  43.850   4.798   1.280
35944W        W 8270  44.844  19.139  10.940
35945W        W 8271  31.560  30.067   4.709
35946W        W 8272   0.273  42.786  14.844
35947W        W 8273  28.955  36.445   4.704
35948W        W 8274  38.021  11.624   2.291
35949W        W 8275  29.052  23.101   2.835
35950W        W 8276  35.476   0.952  13.940
35951W        W 8277  31.610  37.430  12.539
35952W        W 8278   6.199  44.458   2.405
35953W        W 8279  15.718  12.158  14.802
35954W        W 8280  10.375  12.724  12.462
35955W        W 8281  37.918  10.634  12.870
35956W        W 8282  12.292  25.048  14.484
35957W        W 8283  42.326  25.513   1.820
35958W        W 8284  43.451  20.744   3.377
35959W        W 8285  31.491  39.388   4.338
35960W        W 8286   2.746  37.503  10.974
35961W        W 8287  37.000   7.700  11.042
35962W        W 8288   2.804  31.955  13.049
35963W        W 8289   0.882   7.296  12.880
35964W        W 8290   5.726   7.868   4.162
35965W        W 8291  22.596  23.541   3.838
35966W        W 8292  10.877  30.972   4.282
35967W        W 8293  13.668   4.938  13.393
35968W        W 8294  34.955  38.907  11.553
35969W        W 8295  43.989  13.617   2.234
35970W        W 8296  19.585   6.377  14.421
35971W        W 8297  42.906  12.249  14.999
35972W        W 8298  41.396  27.009   4.245
35973W        W 8299  16.733  32.911  11.920
35974W        W 8300  41.398  42.424  11.855
35975W        W 8301  11.256  29.062  13.824
35976W        W 8302   4.824  34.545   1.436
35977W        W 8303  25.672  18.224   2.294
35978W        W 8304  33.997  37.835   4.744
35979W        W 8305  17.092  38.466  14.848
35980W        W 8306  24.228  15.298  13.453
35981W        W 8307  18.635   6.801   3.684
35982W        W 8308  34.924  17.175   3.197
35983W        W 8309   8.751  13.161   1.351
35984W        W 8310  20.253   6.876   1.278
35985W        W 8311   1.963  41.327  14.814
35986W        W 8312  13.335  22.073   3.864
35987W        W 8313  24.978  25.615   0.337
35988W        W 8314  41.898  27.596  11.446
35989W        W 8315  11.212  11.360  14.418
35990W        W 8316   5.879  38.536  11.029
35991W        W 8317  35.994  16.722   0.323
35992W        W 8318  40.958  39.821  14.498
35993W        W 8319  15.816  36.092  13.944
35994W        W 8320  16.622  24.505  11.392
35995W        W 8321  31.544  13.161  14.354
35996W        W 8322  16.105   5.883  14.836
35997W        W 8323  41.922  13.238   2.716
35998W        W 8324  25.611  35.372   0.364
35999W        W 8325  12.184  20.144  10.984
36000W        W 8326  30.971   7.871   3.242
36001W        W 8327  32.628  19.765  10.971
36002W        W 8328  35.959  23.233   4.820
36003W        W 8329  19.270   9.675   2.735
36004W        W 8330  25.034   0.814  10.496
36005W        W 8331  35.548  29.541   4.219
36006W        W 8332  10.302  17.745  10.890
36007W        W 8333  20.556   5.420   4.697
36008W        W 8334  33.582  19.576  12.544
36009W        W 8335   5.863  17.085   2.880
36010W        W 8336  21.631   4.260   3.769
36011W        W 8337  42.387  11.268   4.781
36012W        W 8338  12.702  10.236  11.937
36013W        W 8339   9.654  40.979  14.837
36014W        W 8340  42.832  40.457  13.509
36015W        W 8341  33.114  38.427   2.198
36016W        W 8342   5.814   2.232  12.484
36017W        W 8343   6.365  25.515   2.194
36018W        W 8344  40.804  27.589   4.184
36019W        W 8345  42.506  11.250   4.324
36020W        W 8346  29.943  34.885   1.807
36021W        W 8347  16.576  18.078  12.500
36022W        W 8348  16.640   2.249   0.383
36023W        W 8349  30.151   6.882   1.822
36024W        W 8350   5.271  40.531   4.767
36025W        W 8351   0.960   7.870  13.856
36026W        W 8352  32.564  25.067  10.993
36027W        W 8353  14.802  18.053   3.805
36028W        W 8354  12.331  44.826  10.495
36029W        W 8355   9.713  35.401   1.431
36030W        W 8356  21.222  14.225   1.832
36031W        W 8357  14.592  15.764  13.445
36032W        W 8358  22.549  43.441  11.386
36033W        W 8359   7.179  27.485   4.652
36034W        W 8360   0.879  23.622   4.148
36035W        W 8361   2.327  26.459   4.227
36036W        W 8362   6.689  38.952   4.289
36037W        W 8363   5.427   7.299  12.994
36038W        W 8364  31.122  31.468   2.822
36039W        W 8365   5.837  23.510  10.623
36040W        W 8366  17.116  36.921  13.819
36041W        W 8367  42.321  20.214   2.861
36042W        W 8368  43.382  25.032   0.469
36043W        W 8369  18.279  35.901  14.021
36044W        W 8370   5.880   7.731  12.492
36045W        W 8371  35.586  36.565  10.448
36046W        W 8372  29.918  32.498  14.006
36047W        W 8373  34.545  40.882  11.392
36048W        W 8374  44.504  14.616  13.543
36049W        W 8375  38.822   8.368  11.109
36050W        W 8376   1.880  28.097  13.468
36051W        W 8377  24.079  22.163   2.340
36052W        W 8378  36.043  30.505   3.777
36053W        W 8379  11.232  35.561   1.263
36054W        W 8380  13.740  41.910   2.208
36055W        W 8381  30.995  19.169  14.470
36056W        W 8382  25.071  44.379   4.343
36057W        W 8383  38.488  32.483  12.065
36058W        W 8384  32.956  22.609   1.339
36059W        W 8385   6.894  25.034  13.483
36060W        W 8386  35.553   8.734   3.710
36061W        W 8387  10.832  44.778  13.958
36062W        W 8388   5.425  36.961   0.386
36063W        W 8389  31.137   7.199   1.348
36064W        W 8390  18.176  19.103   0.750
36065W        W 8391  44.284   3.390   1.241
36066W        W 8392  21.660  28.537   0.324
36067W        W 8393  17.613   0.301   3.666
36068W        W 8394  22.743   7.344   4.179
36069W        W 8395  15.245  37.036  12.960
36070W        W 8396   6.387  36.394   3.273
36071W        W 8397  36.445  13.632   2.245
36072W        W 8398   0.895  29.957   0.754
36073W        W 8399  23.186  24.172  11.450
36074W        W 8400  44.310  25.183  11.963
36075W        W 8401  18.096   8.188  12.986
36076W        W 8402  32.100  31.564   3.664
36077W        W 8403  21.713  23.021   4.809
36078W        W 8404  15.682  31.523  13.893
36079W        W 8405   6.879  37.570   0.941
36080W        W 8406  36.347  18.201  13.379
36081W        W 8407  33.434  18.715   0.284
36082W        W 8408  37.981   3.827  12.969
36083W        W 8409  33.044  35.562  12.871
36084W        W 8410  32.581  25.612   0.936
36085W        W 8411   1.387  42.473   4.751
36086W        W 8412  14.777  37.500  14.778
36087W        W 8413   0.883   5.828   1.904
36088W        W 8414  24.206   8.891  13.431
36089W        W 8415  38.997  20.713   2.728
36090W        W 8416   0.848   3.272  14.414
36091W        W 8417  31.984   0.754  13.018
36092W        W 8418  31.493   1.373  12.566
36093W        W 8419  24.000   4.331   2.718
36094W        W 8420   6.831  24.092  10.451
36095W        W 8421  28.496  22.103   3.766
36096W        W 8422  24.197  19.776  10.894
36097W        W 8423   8.879  17.629  12.885
36098W        W 8424  39.394   1.477   4.772
36099W        W 8425  40.009  39.540  13.965
36100W        W 8426  38.498  32.492  13.829
36101W        W 8427  38.996  22.705   2.825
36102W        W 8428  27.575   6.799  10.521
36103W        W 8429  43.333  12.795   3.281
36104W        W 8430  23.139   9.769   4.231
36105W        W 8431   6.709  16.641   1.871
36106W        W 8432  10.800  35.889   1.315
36107W        W 8433   0.369  16.703  13.507
36108W        W 8434  36.881  10.851  10.584
36109W        W 8435  44.824  23.232   2.269
36110W        W 8436  25.998  38.026   4.128
36111W        W 8437   0.281   3.831   1.449
36112W        W 8438  32.472  41.525  13.529
36113W        W 8439  27.450  27.155  14.817
36114W        W 8440  17.211  25.983  13.027
36115W        W 8441  22.509   2.445   1.309
36116W        W 8442  18.105   4.256  11.021
36117W        W 8443  23.998  38.882   3.707
36118W        W 8444  42.879   6.254  12.397
36119W        W 8445  41.408  43.844  11.420
36120W        W 8446  21.196   3.918  13.974
36121W        W 8447   1.287  13.221   2.325
36122W        W 8448  17.568  43.504  12.518
36123W        W 8449  12.286  38.490   3.171
36124W        W 8450  26.187  31.020  13.310
36125W        W 8451  18.086   8.169  13.985
36126W        W 8452  33.611   8.754  14.845
36127W        W 8453  24.085  36.960   3.166
36128W        W 8454   7.742   0.742   3.857
36129W        W 8455   2.808  38.347  10.438
36130W        W 8456  33.623  42.285   3.238
36131W        W 8457  12.255  37.387   5.301
36132W        W 8458   4.700  13.696  12.973
36133W        W 8459   2.299  24.512   9.671
36134W        W 8460   3.408   0.406  12.917
36135W        W 8461  12.840  43.799  13.339
36136W        W 8462  40.797  27.964  10.924
36137W        W 8463  28.087  40.454  12.945
36138W        W 8464  27.521  23.520  12.012
36139W        W 8465  33.996  20.568   4.759
36140W        W 8466  36.373  28.141  12.871
36141W        W 8467  19.278  36.377   2.833
36142W        W 8468  21.680  18.587   2.332
36143W        W 8469  37.577  10.649  11.480
36144W        W 8470  40.012  37.458   3.664
36145W        W 8471  39.455  34.605  13.879
36146W        W 8472  10.679  18.284   1.774
36147W        W 8473  44.393   2.779   0.322
36148W        W 8474  41.030   8.743  11.053
36149W        W 8475  31.553  39.004  12.415
36150W        W 8476  35.941  13.603  10.456
36151W        W 8477  15.127  39.993   4.707
36152W        W 8478  34.525  25.978  11.874
36153W        W 8479  15.245  26.640   2.753
36154W        W 8480  34.580  44.266   1.428
36155W        W 8481  28.967  12.187   1.425
36156W        W 8482  34.970  17.078  11.583
36157W        W 8483  16.632  33.948   2.728
36158W        W 8484  44.858  44.006   2.737
36159W        W 8485  15.713  15.102   3.819
36160W        W 8486  26.675  19.654   4.186
36161W        W 8487   7.885  23.192  13.966
36162W        W 8488   2.252  12.132  11.968
36163W        W 8489   1.339  13.746   3.229
36164W        W 8490  15.196   8.872   3.382
36165W        W 8491  10.282  11.800   2.334
36166W        W 8492  21.144  31.621  14.849
36167W        W 8493   1.973  13.815   2.829
36168W        W 8494  16.291  31.068   0.351
36169W        W 8495  42.006  33.884   4.734
36170W        W 8496   6.846  38.963  12.975
36171W        W 8497  28.068  28.008   3.170
36172W        W 8498  35.866  21.196  13.369
36173W        W 8499  44.367  40.973  14.822
36174W        W 8500  35.404  10.682  11.015
36175W        W 8501   3.411   6.683  14.866
36176W        W 8502  18.084   5.413  13.411
36177W        W 8503  10.708  33.438   4.828
36178W        W 8504  30.452  37.424  11.873
36179W        W 8505   3.453  22.694   3.365
36180W        W 8506  14.271  29.948   2.671
36181W        W 8507  37.433  28.478   2.409
36182W        W 8508   3.786  24.658   2.272
36183W        W 8509  21.081  42.869  10.481
36184W        W 8510   7.725  10.681   1.262
36185W        W 8511  18.108  44.796   2.343
36186W        W 8512  29.466   0.819   3.346
36187W        W 8513  23.006  41.510   3.309
36188W        W 8514  32.566  15.820   1.761
36189W        W 8515   2.375  38.486   3.166
36190W        W 8516   2.331  24.029   9.527
36191W        W 8517  14.630  14.767   3.181
36192W        W 8518  21.230  23.009   2.267
36193W        W 8519  38.893  30.026  11.032
36194W        W 8520  34.369  43.874   1.790
36195W        W 8521  41.478  31.516  11.540
36196W        W 8522  14.740   6.786  11.058
36197W        W 8523   6.337  15.188  12.883
36198W        W 8524   3.891  29.959  14.496
36199W        W 8525  27.942  24.616   1.420
36200W        W 8526  11.642  25.111  13.903
36201W        W 8527  24.217  39.535   5.133
36202W        W 8528   9.663  34.527  12.344
36203W        W 8529  29.446  21.198   1.236
36204W        W 8530  21.539   3.433  11.105
36205W        W 8531   7.909  43.990   0.400
36206W        W 8532  26.071  23.145  14.435
36207W        W 8533  27.590  41.966  12.372
36208W        W 8534  34.945  15.681   0.951
36209W        W 8535  29.505  35.964  12.055
36210W        W 8536  21.692  35.474   2.815
36211W        W 8537  26.014  13.275  12.443
36212W        W 8538  28.023  18.067   3.868
36213W        W 8539   9.335  43.508   2.808
36214W        W 8540   8.313  21.609  11.521
36215W        W 8541  14.627  23.987   4.813
36216W        W 8542  41.902   2.469  11.578
36217W        W 8543   1.802  28.470   0.957
36218W        W 8544   8.321   7.782  11.906
36219W        W 8545  14.260  28.020   0.960
36220W        W 8546  21.148  35.436  13.428
36221W        W 8547  10.349   2.913  10.479
36222W        W 8548  26.997  39.000  12.414
36223W        W 8549  23.605   9.247  13.987
36224W        W 8550  27.668  16.743   2.295
36225W        W 8551  31.929   9.169   1.449
36226W        W 8552  27.497  42.483  10.544
36227W        W 8553  30.540  37.403   3.700
36228W        W 8554  10.852  14.757  11.603
36229W        W 8555  29.583  41.520  10.910
36230W        W 8556  31.638  37.415  13.538
36231W        W 8557   6.688  36.941  10.610
36232W        W 8558  37.042  16.291  13.355
36233W        W 8559   8.406  28.072   4.819
36234W        W 8560  39.444  13.706   2.818
36235W        W 8561  43.505  30.589  12.448
36236W        W 8562   8.840   0.435   0.367
36237W        W 8563  40.463  43.890  13.899
36238W        W 8564  37.399   4.862  13.051
36239W        W 8565  27.499  17.778  12.544
36240W        W 8566  35.429  12.303   0.841
36241W        W 8567  38.470  41.944   1.768
36242W        W 8568  24.648  16.592   0.390
36243W        W 8569  27.162   4.938  13.837
36244W        W 8570   3.226  13.613   1.224
36245W        W 8571  37.020   4.878  14.847
36246W        W 8572  30.446  15.639  10.500
36247W        W 8573  27.641  18.180   2.363
36248W        W 8574  29.039  11.748  14.821
36249W        W 8575  23.073  39.989   4.196
36250W        W 8576  12.224  13.339  11.869
36251W        W 8577   7.808  43.940  11.973
36252W        W 8578  26.501  30.462   1.781
36253W        W 8579   4.877  40.986  13.388
36254W        W 8580  30.123  35.906   1.357
36255W        W 8581  34.563   6.199  14.911
36256W        W 8582   6.683  38.445   1.735
36257W        W 8583  33.082   6.214   3.864
36258W        W 8584  17.713   5.266  10.583
36259W        W 8585  31.575  25.564   3.727
36260W        W 8586  18.235  19.123  11.601
36261W        W 8587  19.135  22.118   1.280
36262W        W 8588  39.844  39.498  12.957
36263W        W 8589  13.270  34.615   1.865
36264W        W 8590  31.516  27.966   3.852
36265W        W 8591  28.102  35.399  14.840
36266W        W 8592  21.033  30.433   2.816
36267W        W 8593  18.572   5.910   4.793
36268W        W 8594  14.768  36.010   1.214
36269W        W 8595   7.724  20.567  13.838
36270W        W 8596   8.265  30.636   0.772
36271W        W 8597  24.563   8.265  14.995
36272W        W 8598  11.744  28.590   3.671
36273W        W 8599  43.364  31.967   2.713
36274W        W 8600  40.376   3.929   3.294
36275W        W 8601  39.359   5.195   0.314
36276W        W 8602  33.625   5.690  14.807
36277W        W 8603  24.160  23.674  13.807
36278W        W 8604  21.163  18.706  12.016
36279W        W 8605  34.486   8.892   3.694
36280W        W 8606  29.128  18.134  14.890
36281W        W 8607  34.428  20.551  11.541
36282W        W 8608   0.950  11.263  13.468
36283W        W 8609  42.488   3.407  14.496
36284W        W 8610  33.592  26.685   2.347
36285W        W 8611  12.806   9.244  12.580
36286W        W 8612  43.944  32.080   4.255
36287W        W 8613  15.808  23.713   2.215
36288W        W 8614  14.330   9.735   3.227
36289W        W 8615  30.653   7.345   3.263
36290W        W 8616  38.497   0.254   2.809
36291W        W 8617  19.269  25.505   2.734
36292W        W 8618  34.102  28.511  11.424
36293W        W 8619  24.680  16.133   1.278
36294W        W 8620   6.773  35.026   2.666
36295W        W 8621  17.224  13.759  12.383
36296W        W 8622  35.387   4.848  13.876
36297W        W 8623  12.751  20.621   4.652
36298W        W 8624  42.006  16.606   1.792
36299W        W 8625  30.923  34.541  13.050
36300W        W 8626  11.274   4.704  12.456
36301W        W 8627  39.869  12.340  11.927
36302W        W 8628   4.833  28.595  11.855
36303W        W 8629  43.920  24.024  12.575
36304W        W 8630   4.429   5.759  12.494
36305W        W 8631  37.435  13.135  12.916
36306W        W 8632   2.394  43.768   4.610
36307W        W 8633   8.788  21.677   4.602
36308W        W 8634   5.716  44.387   3.311
36309W        W 8635   1.903  34.043  10.563
36310W        W 8636  22.228   2.903  12.537
36311W        W 8637  43.937  31.606   1.873
36312W        W 8638  18.181  10.826  11.935
36313W        W 8639  32.135   5.701   1.850
36314W        W 8640  15.265  27.000   0.924
36315W        W 8641  41.840  39.502  14.012
36316W        W 8642  10.251   1.392  14.759
36317W        W 8643  40.305  39.387   1.354
36318W        W 8644  32.093   8.186   4.684
36319W        W 8645  35.925  26.159   1.425
36320W        W 8646   4.798  29.463   3.834
36321W        W 8647  22.550  25.978   4.611
36322W        W 8648  18.284  22.681   1.293
36323W        W 8649  44.369   3.923   2.735
36324W        W 8650  39.984  42.821  12.986
36325W        W 8651   9.166   6.775   1.932
36326W        W 8652  39.987  26.080   0.787
36327W        W 8653  29.010   3.303   3.739
36328W        W 8654  33.569  30.924  12.565
36329W        W 8655  43.310   6.392   0.892
36330W        W 8656  17.767  12.155  13.983
36331W        W 8657   7.850  15.665   1.292
36332W        W 8658  28.984  44.831   3.850
36333W        W 8659  29.088   5.802  11.570
36334W        W 8660  42.354  42.520  10.614
36335W        W 8661  14.588  41.475   2.329
36336W        W 8662  36.519   1.317   4.271
36337W        W 8663   7.761  29.496   3.844
36338W        W 8664  40.427   5.314  13.392
36339W        W 8665   7.290  24.612   4.192
36340W        W 8666   0.396   1.853   0.469
36341W        W 8667  28.035  37.419   3.238
36342W        W 8668   9.865   7.848   3.733
36343W        W 8669  33.099  29.539   2.249
36344W        W 8670  30.991   6.772  13.317
36345W        W 8671  13.306  32.049  12.396
36346W        W 8672  19.190  31.513   4.179
36347W        W 8673  41.332  41.044  12.855
36348W        W 8674  21.561   5.412  12.077
36349W        W 8675  15.101  29.042  11.068
36350W        W 8676  30.022  24.198   0.807
36351W        W 8677  20.746   2.305  11.083
36352W        W 8678  29.618  19.085  12.556
36353W        W 8679  34.463   3.227  14.904
36354W        W 8680  41.832  14.175  11.950
36355W        W 8681  29.979  44.344  11.055
36356W        W 8682  10.757  32.571   3.259
36357W        W 8683  16.173   2.421  14.304
36358W        W 8684  21.738   4.250   2.330
36359W        W 8685  17.707  29.928  10.546
36360W        W 8686  43.863  25.120  11.080
36361W        W 8687  40.874   1.830  12.418
36362W        W 8688  29.608   4.767  13.947
36363W        W 8689   2.889  43.972   4.354
36364W        W 8690  15.794  16.189  12.934
36365W        W 8691  14.651   6.186   3.297
36366W        W 8692  32.539  16.679  14.971
36367W        W 8693  37.900  15.601  14.768
36368W        W 8694  18.611  17.102  10.979
36369W        W 8695  18.180  30.596  14.770
36370W        W 8696   2.372   7.807   3.737
36371W        W 8697  22.718  16.808   2.205
36372W        W 8698  39.891  28.986  12.564
36373W        W 8699  13.215  39.543  14.485
36374W        W 8700  42.026  38.324  14.956
36375W        W 8701  33.118  44.343  14.354
36376W        W 8702   7.904  13.272   2.674
36377W        W 8703  10.283  26.962   1.257
36378W        W 8704  35.033  11.663  11.434
36379W        W 8705  21.680  28.494   4.676
36380W        W 8706   8.242  22.653  14.903
36381W        W 8707  40.457  21.158   0.760
36382W        W 8708  31.055  19.721   0.385
36383W        W 8709  39.860  42.437  12.377
36384W        W 8710  38.035   9.250   2.353
36385W        W 8711  27.088  12.253  11.899
36386W        W 8712  35.069  16.115  13.411
36387W        W 8713  24.134  25.059   1.760
36388W        W 8714  15.817  28.455   0.966
36389W        W 8715  27.614  29.156  11.883
36390W        W 8716  15.221  44.371   0.956
36391W        W 8717  14.638  34.491   4.303
36392W        W 8718  40.041  39.364   2.826
36393W        W 8719  16.657  22.238   2.306
36394W        W 8720  27.999   7.899   0.745
36395W        W 8721   8.824  19.230  12.919
36396W        W 8722  27.567  19.587   4.821
36397W        W 8723  34.987  42.904   4.334
36398W        W 8724  13.107  44.867  12.009
36399W        W 8725   8.297  25.508   0.272
36400W        W 8726   6.864  39.977  12.965
36401W        W 8727   8.239  35.888  14.390
36402W        W 8728   2.372  33.533   0.827
36403W        W 8729  39.961  24.525   4.246
36404W        W 8730   5.225  18.289   3.727
36405W        W 8731  39.814  28.017  12.089
36406W        W 8732  24.504  24.131  13.853
36407W        W 8733  43.460  22.177   3.199
36408W        W 8734  31.048  33.077   4.748
36409W        W 8735  20.704  39.518   3.837
36410W        W 8736  15.321  15.821  11.516
36411W        W 8737  24.691  16.219   4.299
36412W        W 8738  29.160  12.213  10.417
36413W        W 8739  12.621  11.372   2.735
36414W        W 8740  17.620   3.799  12.919
36415W        W 8741  34.581  31.040  11.873
36416W        W 8742  34.514  19.255   0.450
36417W        W 8743  18.195  21.731  14.293
36418W        W 8744  33.455  17.692   3.781
36419W        W 8745   5.752  40.515  11.439
36420W        W 8746   3.836  18.296   2.368
36421W        W 8747   3.844   7.303  14.412
36422W        W 8748   1.855  27.510   3.739
36423W        W 8749   7.902  33.003  14.858
36424W        W 8750  17.112  21.186   5.253
36425W        W 8751  41.382  14.814   2.192
36426W        W 8752   1.408  13.186   1.778
36427W        W 8753  28.164   2.302  13.989
36428W        W 8754   3.750  35.602  11.548
36429W        W 8755  44.754   7.247   2.365
36430W        W 8756   4.796  42.519   4.348
36431W        W 8757  43.812  32.453   1.792
36432W        W 8758  21.601  10.303   1.914
36433W        W 8759  11.683  35.980   1.436
36434W        W 8760  16.107  34.451  14.950
36435W        W 8761  16.607  34.615  14.797
36436W        W 8762   5.237  39.970  11.391
36437W        W 8763  12.205  32.489  14.289
36438W        W 8764  32.002  21.721   0.439
36439W        W 8765  18.777  37.885   3.281
36440W        W 8766  41.838  41.834   1.236
36441W        W 8767  30.648   8.811   4.645
36442W        W 8768  15.097  15.160  12.994
36443W        W 8769  33.529  40.847  11.987
36444W        W 8770  41.368  34.538   2.208
36445W        W 8771  36.964  42.350  12.523
36446W        W 8772  43.432  14.109   1.874
36447W        W 8773  34.952  26.515   9.924
36448W        W 8774  15.578  10.139   3.383
36449W        W 8775  32.959  14.141   1.856
36450W        W 8776  24.542  16.664   2.719
36451W        W 8777  16.622  31.933  12.865
36452W        W 8778  15.578  41.471   4.271
36453W        W 8779  29.601  28.438  10.943
36454W        W 8780   8.307  20.150  13.054
36455W        W 8781  22.555  24.654  12.978
36456W        W 8782  10.755  27.114   3.253
36457W        W 8783  14.714   0.402  11.050
36458W        W 8784  14.234  15.234  12.839
36459W        W 8785  12.191  33.385  10.046
36460W        W 8786  27.603   1.437   3.176
36461W        W 8787  34.988  36.402   2.279
36462W        W 8788  30.464  29.157   0.804
36463W        W 8789  36.586  42.292  11.994
36464W        W 8790  35.464  42.495   0.813
36465W        W 8791  41.972   0.366   4.784
36466W        W 8792  30.433  35.866   4.604
36467W        W 8793  35.074   3.942  12.838
36468W        W 8794  39.536  40.949   4.302
36469W        W 8795   1.825   2.912   2.860
36470W        W 8796  38.396  26.053  12.347
36471W        W 8797  33.056  30.106   1.897
36472W        W 8798  21.713  15.161   2.395
36473W        W 8799   1.905  27.089  11.017
36474W        W 8800  25.159  36.952  14.943
36475W        W 8801   0.429  14.593   3.295
36476W        W 8802  24.646  10.758   4.180
36477W        W 8803  27.941  19.116   0.254
36478W        W 8804  39.518  34.506   0.799
36479W        W 8805  10.327  33.974  14.496
36480W        W 8806  38.544  44.956  11.476
36481W        W 8807  12.617  15.637   3.648
36482W        W 8808   6.907  31.478  11.966
36483W        W 8809  21.122  27.193  13.345
36484W        W 8810  27.138  25.191   0.386
36485W        W 8811  15.716   2.341  12.372
36486W        W 8812  13.742  18.122  11.423
36487W        W 8813  35.536  22.557   3.741
36488W        W 8814  25.164  10.651  12.975
36489W        W 8815   2.368   4.426   5.123
36490W        W 8816  29.469  15.130  11.982
36491W        W 8817  26.121  25.188  14.362
36492W        W 8818  19.549   6.877   2.827
36493W        W 8819  25.547  32.920   3.249
36494W        W 8820  37.411  41.470   1.871
36495W        W 8821  20.747  22.132   3.214
36496W        W 8822  14.644  11.763   1.699
36497W        W 8823  44.830  25.971  14.330
36498W        W 8824  25.483  18.620   1.754
36499W        W 8825  44.894  34.580  12.417
36500W        W 8826   3.778  25.190  14.941
36501W        W 8827   6.384  38.342   4.834
36502W        W 8828   8.668  36.385   2.256
36503W        W 8829  15.270  33.998   0.246
36504W        W 8830  14.310   0.490   1.828
36505W        W 8831  40.800   2.272   4.724
36506W        W 8832  38.063  30.038  11.047
36507W        W 8833   9.154  15.798  13.403
36508W        W 8834  39.857  23.068  10.922
36509W        W 8835  29.475  26.099  14.401
36510W        W 8836  44.985  32.063   3.830
36511W        W 8837  30.108  27.627   1.724
36512W        W 8838  12.841  23.591   9.446
36513W        W 8839  29.490   6.386  11.025
36514W        W 8840  14.162   1.950   1.931
36515W        W 8841  13.323  15.823  13.355
36516W        W 8842   7.361  17.141  13.972
36517W        W 8843   6.798   5.880   4.140
36518W        W 8844  11.815  33.053  11.509
36519W        W 8845  19.562  19.142  13.035
36520W        W 8846  11.256  21.237  13.463
36521W        W 8847  16.090  27.043   4.190
36522W        W 8848   4.342  10.156   1.396
36523W        W 8849  16.283   7.706   2.314
36524W        W 8850  24.596  43.917   1.236
36525W        W 8851  43.492  11.200  12.543
36526W        W 8852  10.687  21.574   4.665
36527W        W 8853  26.536  12.631   3.664
36528W        W 8854  42.776  21.203   5.291
36529W        W 8855   8.898  11.659   4.344
36530W        W 8856  20.744  32.967  12.001
36531W        W 8857  28.492  21.632  11.451
36532W        W 8858  16.240  40.917   0.939
36533W        W 8859   5.356  34.396  13.968
36534W        W 8860  18.625  19.107   4.750
36535W        W 8861  19.174   5.695   0.925
36536W        W 8862   0.865   9.867  12.428
36537W        W 8863  34.967  13.237  11.864
36538W        W 8864   1.765  25.606  10.545
36539W        W 8865  37.075  12.141  12.998
36540W        W 8866  27.677  16.641  12.093
36541W        W 8867  24.050   1.394  14.487
36542W        W 8868  25.477  31.551  13.362
36543W        W 8869  15.225  21.063   3.822
36544W        W 8870  20.618  28.483   2.856
36545W        W 8871  40.929   4.876  14.784
36546W        W 8872   4.701  43.892  13.413
36547W        W 8873  20.659   9.309  12.054
36548W        W 8874  12.814  26.163   3.341
36549W        W 8875  15.258   6.401   4.597
36550W        W 8876  37.848  10.747  10.146
36551W        W 8877  34.074  31.068  14.005
36552W        W 8878  16.191  26.058   0.937
36553W        W 8879  41.358  28.625  10.612
36554W        W 8880  42.934  11.311   2.202
36555W        W 8881  36.045  38.943   4.761
36556W        W 8882  19.609   0.354  10.472
36557W        W 8883  32.474  34.455  10.969
36558W        W 8884   3.268   8.287   4.662
36559W        W 8885  18.615  10.187  14.347
36560W        W 8886  14.224  28.509  11.382
36561W        W 8887  32.559   0.405  11.444
36562W        W 8888   5.820  34.534  10.588
36563W        W 8889  18.565  20.768   3.296
36564W        W 8890  40.355  20.092   1.870
36565W        W 8891  17.107   9.822  13.867
36566W        W 8892  17.112  11.719   4.686
36567W        W 8893  32.047  42.951  12.359
36568W        W 8894  40.320  22.653  14.429
36569W        W 8895  29.602  12.293   3.646
36570W        W 8896  19.258   1.323   2.787
36571W        W 8897  27.173  33.125   2.886
36572W        W 8898  43.370   9.878   2.396
36573W        W 8899  11.844  34.407   5.299
36574W        W 8900  37.511  19.268  12.088
36575W        W 8901  27.473   1.798   2.303
36576W        W 8902  18.127  32.397  14.829
36577W        W 8903  23.684  31.608   4.320
36578W        W 8904  25.562  23.532  12.921
36579W        W 8905  43.915  21.050   1.364
36580W        W 8906  42.886  17.633   4.768
36581W        W 8907   3.256  29.449  12.382
36582W        W 8908  24.194  10.874  13.848
36583W        W 8909  36.891  37.905   3.834
36584W        W 8910  38.520   6.352   4.806
36585W        W 8911  13.261  35.580  14.945
36586W        W 8912   7.859  22.710  10.906
36587W        W 8913  17.240  16.647   2.880
36588W        W 8914  15.690  37.873  13.853
36589W        W 8915  42.481  37.342   1.870
36590W        W 8916  29.607  26.496   3.191
36591W        W 8917   3.403   5.397   1.780
36592W        W 8918  21.100   3.378  14.966
36593W        W 8919  41.529   1.817  14.867
36594W        W 8920  20.525  39.493   1.799
36595W        W 8921  38.907  27.450   1.779
36596W        W 8922  43.443  31.907  13.364
36597W        W 8923  37.582  14.209   0.747
36598W        W 8924  12.316  18.252  12.824
36599W        W 8925  31.020  34.413  13.889
36600W        W 8926  37.419  22.173   0.290
36601W        W 8927  36.872  39.879   4.712
36602W        W 8928  30.541  32.486   0.400
36603W        W 8929  38.042  27.110   0.298
36604W        W 8930  17.223  37.997  12.507
36605W        W 8931   2.462  10.767   1.910
36606W        W 8932  30.568   1.923  12.005
36607W        W 8933  34.884  28.946  10.544
36608W        W 8934  31.946  36.982  12.961
36609W        W 8935  27.454   6.360  12.343
36610W        W 8936   8.769  31.618  10.971
36611W        W 8937   3.904   0.950   1.783
36612W        W 8938  18.566  15.786   3.303
36613W        W 8939  32.544  19.228  12.401
36614W        W 8940  28.510  27.034   2.736
36615W        W 8941  10.162  19.536  14.289
36616W        W 8942   0.254  41.005   3.791
36617W        W 8943  43.298   0.338  11.607
36618W        W 8944  19.610   7.224   0.751
36619W        W 8945   0.429  11.864   1.333
36620W        W 8946   8.838  26.519  12.894
36621W        W 8947  18.602  29.084   3.771
36622W        W 8948   3.401  42.881   5.199
36623W        W 8949  10.168  21.697   4.308
36624W        W 8950  44.361  12.222   0.832
36625W        W 8951  27.110   1.299  14.950
36626W        W 8952   5.204   4.207   4.113
36627W        W 8953  26.140  16.315  13.952
36628W        W 8954  19.751  39.410  11.982
36629W        W 8955   5.398  10.821   3.364
36630W        W 8956  33.523   4.372   5.238
36631W        W 8957  18.188  25.110  14.505
36632W        W 8958   2.853  20.735  14.435
36633W        W 8959  15.144   3.442   4.833
36634W        W 8960   8.674   7.298  14.001
36635W        W 8961   7.224  10.382  13.345
36636W        W 8962  42.802   3.829   1.216
36637W        W 8963   8.747  12.119  13.354
36638W        W 8964  36.917  18.135   3.738
36639W        W 8965  24.176  36.844  12.414
36640W        W 8966   2.911  10.761   0.840
36641W        W 8967  21.726  28.560  13.493
36642W        W 8968  32.609  43.417   3.369
36643W        W 8969  32.521   5.927   3.151
36644W        W 8970  23.696  20.091  14.305
36645W        W 8971  43.978  42.471  13.508
36646W        W 8972  23.524   0.793   1.376
36647W        W 8973  31.497  33.456  14.780
36648W        W 8974  35.021   5.745  14.808
36649W        W 8975   8.207  13.722  10.447
36650W        W 8976  13.253  29.588   5.218
36651W        W 8977  36.963   5.425  11.602
36652W        W 8978  41.831   4.286   2.409
36653W        W 8979  38.347  24.483   2.326
36654W        W 8980  25.672  20.124  10.903
36655W        W 8981  25.592  20.240  14.508
36656W        W 8982  34.496  32.101  13.334
36657W        W 8983   0.393  32.126  14.834
36658W        W 8984  29.502  31.461   2.378
36659W        W 8985  38.539  42.451  13.971
36660W        W 8986  32.918  33.947  13.523
36661W        W 8987   3.934   1.471   0.780
36662W        W 8988  11.653  22.059  13.906
36663W        W 8989  42.488  41.496   3.724
36664W        W 8990  29.655  12.208  14.311
36665W        W 8991  19.042  11.808  14.325
36666W        W 8992   1.330  12.265   2.215
36667W        W 8993  44.783   4.905   4.604
36668W        W 8994   9.345   8.865  14.399
36669W        W 8995  38.459  21.665  14.913
36670W        W 8996  35.079  23.652  11.868
36671W        W 8997  34.581  19.055  11.548
36672W        W 8998  19.048  39.532   0.403
36673W        W 8999  39.360   4.271  11.988
36674W        W 9000  27.087  19.100   3.758
36675W        W 9001   4.296  24.663   1.796
36676W        W 9002   9.182  15.613   2.359
36677W        W 9003   4.860  16.121   2.206
36678W        W 9004  37.854   7.794  12.373
36679W        W 9005  18.685  11.328   4.139
36680W        W 9006  19.693  30.019  13.919
36681W        W 9007  28.168  13.308   0.481
36682W        W 9008  25.468   6.316  14.773
36683W        W 9009   1.934  35.039  11.031
36684W        W 9010  35.927  30.979  11.118
36685W        W 9011  17.134   8.300   0.769
36686W        W 9012  35.948   5.296  10.533
36687W        W 9013  23.516  15.309   1.225
36688W        W 9014  11.700  37.048   0.477
36689W        W 9015  29.999  23.174  14.332
36690W        W 9016  38.416  10.697   5.627
36691W        W 9017  15.707  38.381   0.443
36692W        W 9018  43.932  33.920  13.517
36693W        W 9019  12.344  32.053  12.461
36694W        W 9020   4.327   5.417   4.139
36695W        W 9021   4.751  21.222   1.809
36696W        W 9022  31.604  10.367  11.050
36697W        W 9023  24.132  11.219   2.878
36698W        W 9024   5.361   7.741  10.438
36699W        W 9025  22.710  40.893   4.120
36700W        W 9026   6.297  23.553   0.774
36701W        W 9027  42.000  19.717  11.450
36702W        W 9028  25.996  36.449   4.662
36703W        W 9029  41.494  15.791  13.462
36704W        W 9030  13.709  13.790  10.896
36705W        W 9031  38.403  18.103   1.907
36706W        W 9032  27.090   4.829   4.241
36707W        W 9033  10.240  25.022   1.753
36708W        W 9034  18.138   9.882  10.432
36709W        W 9035  28.969   3.830  13.867
36710W        W 9036   2.916  23.011   1.436
36711W        W 9037  41.474  17.725  14.454
36712W        W 9038   2.392   6.389   3.186
36713W        W 9039  28.566   8.691   4.660
36714W        W 9040  14.715   1.262  13.433
36715W        W 9041  21.102   0.385   2.770
36716W        W 9042  18.763  32.462  11.096
36717W        W 9043  19.284  13.163   1.791
36718W        W 9044  18.587  41.793   4.808
36719W        W 9045  32.463  34.455   0.958
36720W        W 9046  14.294  30.950  14.882
36721W        W 9047   6.905   1.463  12.432
36722W        W 9048  15.659  27.682  14.281
36723W        W 9049   9.385  10.369  10.590
36724W        W 9050  23.008  28.618   3.733
36725W        W 9051  16.670  43.465   2.245
36726W        W 9052  20.589  39.981  10.407
36727W        W 9053  29.506  10.239   3.838
36728W        W 9054  30.512  20.265   4.195
36729W        W 9055  41.477  33.879  12.096
36730W        W 9056   8.825   2.242   0.253
36731W        W 9057  26.191  30.428   2.714
36732W        W 9058  31.972  15.087  14.923
36733W        W 9059  20.077  13.830   3.781
36734W        W 9060   1.265  42.870  11.884
36735W        W 9061  44.439  16.789   1.219
36736W        W 9062  40.043  42.324  13.401
36737W        W 9063  38.895  31.527  13.307
36738W        W 9064  15.252   7.882   3.779
36739W        W 9065   9.157  39.456   4.162
36740W        W 9066   6.851  32.103   3.291
36741W        W 9067   2.745  13.269  11.513
36742W        W 9068   0.805  25.030  13.428
36743W        W 9069  34.099  18.108   1.285
36744W        W 9070  16.765  26.116   4.336
36745W        W 9071  41.536   1.326   0.402
36746W        W 9072  13.302  28.614   4.114
36747W        W 9073  15.818  25.499  13.360
36748W        W 9074  36.517  33.934   1.834
36749W        W 9075  16.653  26.560   4.696
36750W        W 9076  41.974  35.391  14.514
36751W        W 9077  27.613  29.077   5.651
36752W        W 9078  31.973  37.022  11.054
36753W        W 9079  44.355  15.656   0.844
36754W        W 9080  16.678  24.130   4.669
36755W        W 9081  25.480  11.846   2.192
36756W        W 9082  39.834  43.840   2.290
36757W        W 9083  19.703  35.591  12.524
36758W        W 9084  17.563  27.115  14.455
36759W        W 9085  14.283  37.012   3.253
36760W        W 9086   3.863  42.919  14.399
36761W        W 9087  12.805  20.109  12.541
36762W        W 9088  38.546  29.458   2.817
36763W        W 9089   1.954   8.189  10.473
36764W        W 9090  23.600  42.866   3.155
36765W        W 9091  18.658  34.462   2.337
36766W        W 9092  35.038   4.736   0.355
36767W        W 9093  12.795  15.188   2.823
36768W        W 9094  18.172  31.051   2.373
36769W        W 9095   0.923  14.632  11.938
36770W        W 9096  18.265  10.848   3.342
36771W        W 9097   2.287  14.806  14.485
36772W        W 9098  29.480   7.765   1.836
36773W        W 9099  30.958  37.466   2.859
36774W        W 9100  28.186  11.811  12.897
36775W        W 9101   7.785   4.845  13.010
36776W        W 9102  19.115  39.493  11.553
36777W        W 9103   7.680  40.448   0.752
36778W        W 9104  13.247   0.293  11.014
36779W        W 9105  20.746  40.449  12.986
36780W        W 9106  20.093  21.090  12.070
36781W        W 9107   0.306  13.134  11.389
36782W        W 9108  22.582  40.918  14.771
36783W        W 9109  41.942  13.601   1.928
36784W        W 9110   2.379  32.046  13.922
36785W        W 9111  37.521  39.516  11.069
36786W        W 9112  30.954  10.654   3.364
36787W        W 9113   3.942  21.566  14.823
36788W        W 9114  33.070  30.120   0.348
36789W        W 9115  19.189   6.248   0.913
36790W        W 9116  12.780  33.051  11.919
36791W        W 9117  41.810  32.940  13.026
36792W        W 9118  29.451  39.528  14.981
36793W        W 9119  29.509  14.736   3.668
36794W        W 9120  28.116  34.107   3.262
36795W        W 9121  31.404  14.222  14.810
36796W        W 9122  12.138  13.692   4.653
36797W        W 9123   4.736  42.436  10.891
36798W        W 9124  32.607   3.726  14.776
36799W        W 9125  30.090   7.777   3.179
36800W        W 9126  37.563  33.581  11.606
36801W        W 9127  19.148   9.197   3.257
36802W        W 9128   8.769  38.020   1.389
36803W        W 9129  26.134  25.064   4.192
36804W        W 9130   6.359   5.423   4.637
36805W        W 9131  36.991  27.099   0.479
36806W        W 9132  38.983   1.769   2.774
36807W        W 9133  34.459   5.763  11.057
36808W        W 9134  16.675   8.395  14.830
36809W        W 9135   6.428  44.470  14.957
36810W        W 9136   9.159  28.484  12.975
36811W        W 9137  22.574  44.854   3.737
36812W        W 9138   9.174   6.235  11.881
36813W        W 9139  38.076  34.079  12.576
36814W        W 9140  34.104  36.020  12.954
36815W        W 9141  22.199   8.747   4.192
36816W        W 9142  44.895   4.436   4.292
36817W        W 9143  11.320  15.242   2.407
36818W        W 9144  17.207  44.982   3.858
36819W        W 9145  18.269  21.242  12.407
36820W        W 9146  14.123   8.848   1.753
36821W        W 9147  31.607  35.461  10.620
36822W        W 9148  30.060  38.528   1.341
36823W        W 9149   4.215  25.577  13.408
36824W        W 9150  10.192  33.957  11.386
36825W        W 9151  34.436  33.403  12.949
36826W        W 9152  23.082   2.318  13.929
36827W        W 9153  44.470  44.980  12.544
36828W        W 9154   6.217   1.474  12.085
36829W        W 9155   9.717  42.776   1.408
36830W        W 9156  21.671   8.199  12.482
36831W        W 9157  11.679  21.656  10.429
36832W        W 9158   3.943  40.388   1.908
36833W        W 9159  12.258  25.186  12.375
36834W        W 9160   7.247  35.102  11.871
36835W        W 9161  33.920  36.391  13.035
36836W        W 9162  32.136  17.148   0.888
36837W        W 9163  32.915  29.505   4.239
36838W        W 9164  21.106  15.117   3.870
36839W        W 9165  25.974  35.563   3.227
36840W        W 9166  21.681  23.187  11.990
36841W        W 9167   0.471  39.002  10.435
36842W        W 9168   4.863   2.915  11.867
36843W        W 9169  30.965   0.399  13.790
36844W        W 9170  42.968  36.433  11.514
36845W        W 9171  10.267  27.009  14.514
36846W        W 9172  13.135  19.158   2.234
36847W        W 9173  16.680  41.421   0.881
36848W        W 9174  32.073  25.114  10.503
36849W        W 9175   3.232   4.348   4.221
36850W        W 9176  14.160  35.421   4.120
36851W        W 9177  20.552  43.282  11.003
36852W        W 9178  38.954  10.715   9.448
36853W        W 9179  26.094  34.015  13.937
36854W        W 9180   2.908  13.667   1.777
36855W        W 9181  20.252  39.888  12.417
36856W        W 9182  32.434  19.202   0.316
36857W        W 9183  40.879  23.237   2.268
36858W        W 9184  10.247  27.572  11.531
36859W        W 9185  34.947  16.768  14.984
36860W        W 9186  39.864  26.525   3.153
36861W        W 9187  17.650  28.010   4.649
36862W        W 9188   6.681  14.663  14.920
36863W        W 9189  13.795  22.735  13.509
36864W        W 9190   3.237   3.402   1.728
36865W        W 9191  22.707   8.172   0.930
36866W        W 9192  20.093  27.578  12.377
36867W        W 9193  24.120  21.651  12.421
36868W        W 9194  41.519  35.969   4.702
36869W        W 9195  14.705  33.418  14.436
36870W        W 9196  29.931  41.491   4.205
36871W        W 9197  32.521   8.664  13.010
36872W        W 9198  32.080  11.143  14.478
36873W        W 9199  25.209  29.616  13.833
36874W        W 9200  42.993   5.901   1.400
36875W        W 9201  37.044  35.441   3.173
36876W        W 9202   7.724  31.573  10.628
36877W        W 9203  41.402   1.353  13.363
36878W        W 9204   9.180  17.727  14.823
36879W        W 9205  41.949  27.574   3.651
36880W        W 9206   9.327   4.800   3.639
36881W        W 9207  32.502  21.560   3.237
36882W        W 9208  28.511  41.828  11.010
36883W        W 9209  14.104  21.616   2.245
36884W        W 9210   1.423  12.302  13.837
36885W        W 9211  18.223  30.472   3.174
36886W        W 9212  31.000   6.244  14.804
36887W        W 9213  25.157   4.892  14.884
36888W        W 9214  19.570  28.152  11.417
36889W        W 9215  42.990   9.299  14.773
36890W        W 9216  26.035  17.069   4.137
36891W        W 9217  32.078  23.060   0.410
36892W        W 9218  23.699  29.957  14.404
36893W        W 9219  31.939   9.343   3.846
36894W        W 9220   4.804  44.770   3.288
36895W        W 9221   3.709  39.510   0.774
36896W        W 9222  12.733  30.639   2.335
36897W        W 9223   8.704  26.134   1.720
36898W        W 9224   7.839   0.781  13.438
36899W        W 9225  40.411  42.466  11.862
36900W        W 9226  19.580  26.675   4.732
36901W        W 9227  39.868   6.260   1.441
36902W        W 9228  18.193  41.996  12.550
36903W        W 9229  43.445  30.468  13.417
36904W        W 9230   0.766  22.063  14.966
36905W        W 9231  27.067  12.767  14.479
36906W        W 9232  22.617   8.315  10.437
36907W        W 9233  43.937  44.860   3.846
36908W        W 9234  26.556  37.961  13.342
36909W        W 9235  38.865  27.617   0.388
36910W        W 9236  43.794  40.374  11.887
36911W        W 9237  27.507  15.277  13.797
36912W        W 9238  37.084  16.161  12.017
36913W        W 9239  29.590   9.274   3.279
36914W        W 9240   5.384  37.453   9.952
36915W        W 9241  33.562  20.586   2.236
36916W        W 9242  32.048  25.988  12.550
36917W        W 9243  32.110  19.220   2.306
36918W        W 9244  20.726  42.358  14.984
36919W        W 9245  38.035  43.292   0.790
36920W        W 9246  43.427  26.548  10.143
36921W        W 9247  12.667   6.736   3.371
36922W        W 9248  16.806   1.432  14.009
36923W        W 9249  35.889  14.804   1.774
36924W        W 9250  38.072  27.456  10.970
36925W        W 9251  37.894  35.951  10.464
36926W        W 9252  34.096  30.015   0.849
36927W        W 9253   3.383  43.947   9.953
36928W        W 9254   8.807  11.834   4.654
36929W        W 9255  33.904  33.097   0.732
36930W        W 9256   7.795  31.087   4.719
36931W        W 9257  31.616  21.527  14.990
36932W        W 9258  38.499  36.992  12.500
36933W        W 9259  35.039  33.913   0.925
36934W        W 9260  27.188  21.121   3.266
36935W        W 9261  10.354   9.884  13.956
36936W        W 9262  40.500  42.929  12.064
36937W        W 9263  36.358  40.543  12.497
36938W        W 9264  31.974   2.349   4.292
36939W        W 9265  26.470  17.567   4.807
36940W        W 9266  40.811  22.652   3.662
36941W        W 9267  20.164  15.716  13.922
36942W        W 9268   3.798   4.284   2.708
36943W        W 9269  40.891  23.051   2.672
36944W        W 9270  29.098   0.417   2.386
36945W        W 9271  33.597  44.471  12.834
36946W        W 9272  24.194  10.256   0.772
36947W        W 9273   0.762  38.010   3.273
36948W        W 9274  30.520  25.601  13.061
36949W        W 9275  44.987   0.865   4.648
36950W        W 9276  27.514  38.547   0.291
36951W        W 9277  43.321  37.376  13.963
36952W        W 9278  22.083  17.559   1.227
36953W        W 9279  39.898   8.338  10.490
36954W        W 9280   8.357  16.770  13.964
36955W        W 9281   2.418  33.595   2.318
36956W        W 9282  40.916   7.217   4.744
36957W        W 9283  39.984  33.059  10.897
36958W        W 9284  41.846  24.644   4.794
36959W        W 9285  38.854  30.068   5.263
36960W        W 9286  15.659  15.721   2.857
36961W        W 9287  39.448   1.750  11.124
36962W        W 9288   8.379  19.073  13.920
36963W        W 9289  15.138  32.955  12.367
36964W        W 9290  13.651  11.714  14.379
36965W        W 9291  41.043   0.417   0.886
36966W        W 9292  29.020  17.170   2.679
36967W        W 9293  19.675  19.751  13.402
36968W        W 9294   2.361  28.974   3.667
36969W        W 9295  42.998  12.831  14.912
36970W        W 9296  32.057  25.619  13.515
36971W        W 9297  27.654  29.425  13.824
36972W        W 9298   3.945  23.009  10.607
36973W        W 9299  43.514  13.189  10.933
36974W        W 9300  33.393   2.846   4.815
36975W        W 9301  34.911  31.617  14.941
36976W        W 9302   4.893   7.862   3.760
36977W        W 9303  28.099  22.029  12.438
36978W        W 9304  23.997  26.976  11.581
36979W        W 9305  44.906  40.877  14.321
36980W        W 9306  19.159  20.216   0.248
36981W        W 9307  18.216   2.276   4.201
36982W        W 9308   0.308  33.525   3.286
36983W        W 9309  31.013  37.975  12.089
36984W        W 9310  32.462  20.138  10.478
36985W        W 9311  28.084  28.169   0.267
36986W        W 9312  16.229  17.709  13.338
36987W        W 9313   5.750  43.356   0.367
36988W        W 9314   0.376   8.272  13.974
36989W        W 9315  19.583  21.059   0.440
36990W        W 9316  34.522  14.617   2.272
36991W        W 9317  16.779   7.291   2.885
36992W        W 9318  20.247  42.867   2.402
36993W        W 9319  34.515  10.876  12.947
36994W        W 9320  38.054  18.662   4.144
36995W        W 9321  39.036  11.807  11.432
36996W        W 9322  37.996   1.855   4.680
36997W        W 9323  41.927  14.658  13.394
36998W        W 9324   5.826  22.094  14.423
36999W        W 9325  43.318  15.325  12.523
37000W        W 9326  17.279  37.465   4.116
37001W        W 9327  22.117  38.395  14.430
37002W        W 9328  31.152  25.120  10.033
37003W        W 9329   1.797  26.187   4.646
37004W        W 9330  43.413  10.656  11.863
37005W        W 9331  44.408  43.409  14.992
37006W        W 9332  32.984  38.538   0.821
37007W        W 9333  24.055  10.237  12.360
37008W        W 9334   7.850  13.683   3.652
37009W        W 9335   6.211  35.396   3.837
37010W        W 9336  32.525  34.103   1.928
37011W        W 9337  42.987  36.941  12.092
37012W        W 9338  16.276  23.189   4.624
37013W        W 9339  25.614  40.932  13.943
37014W        W 9340   4.707   1.286  12.060
37015W        W 9341  35.361  33.946  14.833
37016W        W 9342  18.278  43.874   0.960
37017W        W 9343  30.636  17.633   4.190
37018W        W 9344  31.410   5.766  14.811
37019W        W 9345  11.836  37.858   0.869
37020W        W 9346  34.062   3.901   2.201
37021W        W 9347   3.362   9.701  11.929
37022W        W 9348  22.721   7.322  11.419
37023W        W 9349  34.863  34.406   0.916
37024W        W 9350  37.957  23.573  12.522
37025W        W 9351  28.950  13.706  14.842
37026W        W 9352  37.055  33.447  11.992
37027W        W 9353  13.811  14.315  12.446
37028W        W 9354  31.127   8.848   3.698
37029W        W 9355   7.281  27.487   3.192
37030W        W 9356   3.377  39.843  11.455
37031W        W 9357  11.710  19.065   0.928
37032W        W 9358   9.161   1.382   0.748
37033W        W 9359  31.539  40.851   2.184
37034W        W 9360  43.467  32.980   2.226
37035W        W 9361  15.761  18.200   4.302
37036W        W 9362  11.315   8.394  11.444
37037W        W 9363  26.203   3.297  14.463
37038W        W 9364  13.764   2.334  11.430
37039W        W 9365   7.274  14.691  12.850
37040W        W 9366  31.014  27.017  13.039
37041W        W 9367  28.947   4.262  12.576
37042W        W 9368   8.858  24.602   4.291
37043W        W 9369  44.443  35.531   0.247
37044W        W 9370  14.105  23.696  13.538
37045W        W 9371  22.678  11.725   0.957
37046W        W 9372  13.320   9.805  12.847
37047W        W 9373  40.514  31.148   0.284
37048W        W 9374   3.909   4.889  11.375
37049W        W 9375  12.140  16.291  11.889
37050W        W 9376  36.078  16.793   4.640
37051W        W 9377  33.078   5.221  10.587
37052W        W 9378   8.324  12.720   0.746
37053W        W 9379   5.337   9.282   0.770
37054W        W 9380  36.874  26.136  11.100
37055W        W 9381  15.665  35.998   0.292
37056W        W 9382  21.538  21.636  11.948
37057W        W 9383  15.813   5.329  12.353
37058W        W 9384  17.638   0.264   1.917
37059W        W 9385  26.658   7.685   5.275
37060W        W 9386   4.943  38.064  12.442
37061W        W 9387  15.252  36.496  11.860
37062W        W 9388  14.722  30.037   0.450
37063W        W 9389  32.455  41.433   3.181
37064W        W 9390  23.604  20.727  12.569
37065W        W 9391  35.958   2.947   2.373
37066W        W 9392  25.989  39.854   3.339
37067W        W 9393  43.412  42.421   0.378
37068W        W 9394  32.505  39.038   4.687
37069W        W 9395  17.787  34.521  11.101
37070W        W 9396  30.062  10.658  14.780
37071W        W 9397  20.091   7.775   2.390
37072W        W 9398  33.012  13.290  13.809
37073W        W 9399  40.376  25.059   1.414
37074W        W 9400  40.927  23.010   3.751
37075W        W 9401   2.271  28.961   1.695
37076W        W 9402   7.257   4.275  12.070
37077W        W 9403  29.543  12.748  13.028
37078W        W 9404   3.336  16.248  11.958
37079W        W 9405   6.688   2.349  13.060
37080W        W 9406   5.287  11.683  13.379
37081W        W 9407  36.926  10.861  14.902
37082W        W 9408  18.186   7.899   0.742
37083W        W 9409  41.855  38.390   0.363
37084W        W 9410   3.262   6.207  12.846
37085W        W 9411   0.452  40.485   4.815
37086W        W 9412  39.985  39.058   0.414
37087W        W 9413  22.735  14.828  14.333
37088W        W 9414  34.884   6.221   4.610
37089W        W 9415  18.170  33.967   0.727
37090W        W 9416  16.802   7.725   3.755
37091W        W 9417  13.630  30.024   2.765
37092W        W 9418  35.993  15.278   1.385
37093W        W 9419  42.280  23.619   1.424
37094W        W 9420  27.031  33.084   3.246
37095W        W 9421  14.747  41.335  14.946
37096W        W 9422  14.164   8.404  13.320
37097W        W 9423  44.822  24.666  14.414
37098W        W 9424  18.628  36.527  14.349
37099W        W 9425  18.661  19.579   1.247
37100W        W 9426  12.120   0.915   0.965
37101W        W 9427  30.969  44.453   3.335
37102W        W 9428   5.263  35.957   1.790
37103W        W 9429  19.609   9.234  11.925
37104W        W 9430  23.505   9.737  13.458
37105W        W 9431  36.352   6.843  11.536
37106W        W 9432  30.924  15.092  14.432
37107W        W 9433   6.347  13.183  11.545
37108W        W 9434  25.974  29.456   4.149
37109W        W 9435  22.160  35.457  11.414
37110W        W 9436  43.936   5.730   3.277
37111W        W 9437  16.212  22.741  12.387
37112W        W 9438   4.788  19.544   1.399
37113W        W 9439  27.511  28.014   1.398
37114W        W 9440  18.696  41.440  13.977
37115W        W 9441  19.701  32.468  11.419
37116W        W 9442   1.805  34.062  11.858
37117W        W 9443  27.180   9.333   1.300
37118W        W 9444  11.634  28.465   0.339
37119W        W 9445  25.499   6.905  13.546
37120W        W 9446   7.901  23.711   2.179
37121W        W 9447   8.169  44.435  14.333
37122W        W 9448   6.267   3.789   2.191
37123W        W 9449  13.750  19.221   2.777
37124W        W 9450  13.337  30.628  14.338
37125W        W 9451  26.145   7.385   1.799
37126W        W 9452   2.350  25.497  14.444
37127W        W 9453  29.048  38.437  13.938
37128W        W 9454  26.017  40.940   3.797
37129W        W 9455  40.966  37.035   3.169
37130W        W 9456   3.241   7.885   4.349
37131W        W 9457  16.241   7.706   2.799
37132W        W 9458  26.610  25.701  12.982
37133W        W 9459  43.770   1.803   2.243
37134W        W 9460  18.114   3.942  11.490
37135W        W 9461  32.078   7.873  12.919
37136W        W 9462  12.633  24.496   4.244
37137W        W 9463  23.165  17.751  12.007
37138W        W 9464  20.737  26.132   3.730
37139W        W 9465   2.435  30.090  14.393
37140W        W 9466  16.648  27.953  11.451
37141W        W 9467  10.184  13.305   4.832
37142W        W 9468  24.191  41.474   3.708
37143W        W 9469  37.419  15.750   2.730
37144W        W 9470  26.480  36.356   0.751
37145W        W 9471  33.549  28.977   3.358
37146W        W 9472  41.882  10.740  11.507
37147W        W 9473  25.982  14.735   1.333
37148W        W 9474  37.088  11.235   0.816
37149W        W 9475  22.229  15.749  11.861
37150W        W 9476  25.106  16.704  13.010
37151W        W 9477   8.801  44.830  11.981
37152W        W 9478   7.673  43.016  12.476
37153W        W 9479  17.556  12.331  12.993
37154W        W 9480   3.746  43.420   1.383
37155W        W 9481  14.658  14.308  11.072
37156W        W 9482  39.886  31.104  10.633
37157W        W 9483   7.703  10.812  10.478
37158W        W 9484   9.817  20.628  14.974
37159W        W 9485  11.777  26.501   3.712
37160W        W 9486   9.303  18.243  13.908
37161W        W 9487   0.865  13.216   1.384
37162W        W 9488  29.551  44.400   0.243
37163W        W 9489  32.516  33.437  10.014
37164W        W 9490  28.658  23.109   0.797
37165W        W 9491  20.031  12.332   3.329
37166W        W 9492  28.072  31.107   1.806
37167W        W 9493  27.484  29.634   2.832
37168W        W 9494  28.503  24.489   1.374
37169W        W 9495  10.710  37.931   0.263
37170W        W 9496   5.203  27.562  11.459
37171W        W 9497  25.121   6.898   0.845
37172W        W 9498   2.275   8.244  10.614
37173W        W 9499   8.891  22.647  14.488
37174W        W 9500  12.647  41.945   4.289
37175W        W 9501   0.417  15.272   2.364
37176W        W 9502  16.241  42.360  13.803
37177W        W 9503  22.659   8.671  12.401
37178W        W 9504  35.908  39.484   4.688
37179W        W 9505  12.344  22.615  14.830
37180W        W 9506  24.515  23.075   3.385
37181W        W 9507  16.312  15.287  14.430
37182W        W 9508  13.272  37.400  10.498
37183W        W 9509   7.332  36.494  11.400
37184W        W 9510  42.951  14.820   1.260
37185W        W 9511   5.785  23.987  13.499
37186W        W 9512  22.011  40.545   3.638
37187W        W 9513  28.492  15.157   0.411
37188W        W 9514  21.514   8.678   1.895
37189W        W 9515  17.082  29.123   2.758
37190W        W 9516  15.749  41.876   4.281
37191W        W 9517  15.263  20.223   4.136
37192W        W 9518  33.535  21.629  12.449
37193W        W 9519   5.364  12.208   3.345
37194W        W 9520  26.550  18.107  12.505
37195W        W 9521  13.732  33.545   5.171
37196W        W 9522  43.450  39.879   2.767
37197W        W 9523   4.834   9.313  10.578
37198W        W 9524   5.843  33.909  12.580
37199W        W 9525  16.630  26.614  13.503
37200W        W 9526  17.231  25.707  13.860
37201W        W 9527  33.972  39.414   1.824
37202W        W 9528  25.074   6.798  13.908
37203W        W 9529   4.935  18.608   4.717
37204W        W 9530  37.872  13.267  10.910
37205W        W 9531  11.370  11.761  11.534
37206W        W 9532  10.320  39.541   3.674
37207W        W 9533  12.197  40.452   3.331
37208W        W 9534  17.568  20.040  10.596
37209W        W 9535   4.337  22.625  12.393
37210W        W 9536   1.825  25.187  12.873
37211W        W 9537  14.259  15.244   2.794
37212W        W 9538   3.258  42.963   3.361
37213W        W 9539  19.109  30.645  10.512
37214W        W 9540  20.683  42.331   3.724
37215W        W 9541  44.885  36.515   0.301
37216W        W 9542   9.322  37.453   2.243
37217W        W 9543   0.885  26.518   3.365
37218W        W 9544  37.982   8.175   4.165
37219W        W 9545   3.766  34.541  12.057
37220W        W 9546  26.201  37.022  13.455
37221W        W 9547  43.800  27.048  13.442
37222W        W 9548  10.252  22.060   0.363
37223W        W 9549  43.772  27.124   0.449
37224W        W 9550   7.327  21.687  13.478
37225W        W 9551   8.798  23.660   1.348
37226W        W 9552  38.969  43.501  11.423
37227W        W 9553  32.067  37.868  12.382
37228W        W 9554  32.589   9.357  14.426
37229W        W 9555  14.133  42.306  14.446
37230W        W 9556   3.869  20.523   0.841
37231W        W 9557  30.648  19.057   2.362
37232W        W 9558  23.678  40.844  14.025
37233W        W 9559   6.192  37.037   4.311
37234W        W 9560  34.927  13.739   2.183
37235W        W 9561  32.099  10.777   4.218
37236W        W 9562  23.114  39.925  12.514
37237W        W 9563   7.302   9.269  14.986
37238W        W 9564  31.938  15.756   4.322
37239W        W 9565   3.729  10.211  10.123
37240W        W 9566  35.935  22.619   0.747
37241W        W 9567  28.624   2.230  11.909
37242W        W 9568  38.527   5.354  13.407
37243W        W 9569  22.024   6.787   2.183
37244W        W 9570  41.995  14.600   2.870
37245W        W 9571  40.464  18.088  11.108
37246W        W 9572  25.991  38.363   2.770
37247W        W 9573   6.360   6.744   4.146
37248W        W 9574  35.521  17.702   2.343
37249W        W 9575  44.358  27.165  10.453
37250W        W 9576  20.030  36.478   0.886
37251W        W 9577   0.390  26.471  14.017
37252W        W 9578  15.249   8.722   5.289
37253W        W 9579  27.111  44.842   4.771
37254W        W 9580  19.748  28.639  12.019
37255W        W 9581  19.646   7.892  11.941
37256W        W 9582  24.648  24.638   0.369
37257W        W 9583  27.186  41.940  10.547
37258W        W 9584  30.955   4.764  10.900
37259W        W 9585   3.925  43.417  13.532
37260W        W 9586  31.417  43.437   2.307
37261W        W 9587   5.730  15.800   4.795
37262W        W 9588  28.636  17.577  11.564
37263W        W 9589  39.865  12.295   3.748
37264W        W 9590  26.988  43.873   0.749
37265W        W 9591  17.227  36.536   4.685
37266W        W 9592  32.617  14.821   3.829
37267W        W 9593  37.920  19.267  14.331
37268W        W 9594  14.727  39.052   2.872
37269W        W 9595  39.340   6.384  11.943
37270W        W 9596   6.411   0.799   5.189
37271W        W 9597  42.896   0.907   1.380
37272W        W 9598  39.431  30.599   1.372
37273W        W 9599  43.353  21.658   1.757
37274W        W 9600  18.188  40.937   1.379
37275W        W 9601  20.669  15.799  10.434
37276W        W 9602  33.522  35.547  11.509
37277W        W 9603  18.555   8.210   0.309
37278W        W 9604  30.971  25.601   4.620
37279W        W 9605  11.183  28.516  13.454
37280W        W 9606  14.287  22.580  10.902
37281W        W 9607  27.114   6.883   1.872
37282W        W 9608  23.603  37.453  14.379
37283W        W 9609  29.668  21.663  13.454
37284W        W 9610   2.959  40.817   0.381
37285W        W 9611  35.854  22.535   1.827
37286W        W 9612  42.792  41.787   3.813
37287W        W 9613  24.685   1.336  10.613
37288W        W 9614  40.532   3.729   0.729
37289W        W 9615  35.982  25.577  12.963
37290W        W 9616  42.973  24.171  12.487
37291W        W 9617  32.604  17.208   4.158
37292W        W 9618  13.750  21.588  14.775
37293W        W 9619   5.302   0.776  13.003
37294W        W 9620  26.672   3.858  12.898
37295W        W 9621  42.854  20.035   5.270
37296W        W 9622  23.064  25.128   0.351
37297W        W 9623   6.203  21.173  14.842
37298W        W 9624   7.760  17.200  10.963
37299W        W 9625  37.384  39.544   1.736
37300W        W 9626  44.990  14.315   2.306
37301W        W 9627  35.106  17.083  13.056
37302W        W 9628  11.128  11.220   3.829
37303W        W 9629   5.710  29.019  14.839
37304W        W 9630  41.869  26.017   0.460
37305W        W 9631   4.354  25.047  12.829
37306W        W 9632  12.222  36.902   1.412
37307W        W 9633  36.867  39.344   1.396
37308W        W 9634   4.882  33.516   0.775
37309W        W 9635  31.608  30.914  12.350
37310W        W 9636  26.552  21.041  11.000
37311W        W 9637  27.119  13.307   1.882
37312W        W 9638  25.640  20.726  13.942
37313W        W 9639   3.955  23.607  10.605
37314W        W 9640  11.212  28.475  14.361
37315W        W 9641  30.541  23.574   2.862
37316W        W 9642  40.542   4.449   1.276
37317W        W 9643   0.492   6.265   4.244
37318W        W 9644  29.660  16.107   3.327
37319W        W 9645  34.074   9.328   4.726
37320W        W 9646  19.586  33.122  12.367
37321W        W 9647  27.016  31.584   4.346
37322W        W 9648  19.561   2.359  11.897
37323W        W 9649  31.612  42.473  13.880
37324W        W 9650  24.514   9.223  12.979
37325W        W 9651  35.509  14.266   4.643
37326W        W 9652  29.038  29.042   3.368
37327W        W 9653  32.546  33.121   2.416
37328W        W 9654  39.840  23.077   1.740
37329W        W 9655  13.335  44.453   0.894
37330W        W 9656   7.372  43.407  13.439
37331W        W 9657  44.959   9.731  11.867
37332W        W 9658  41.860  38.457   4.140
37333W        W 9659  24.490   0.873   0.756
37334W        W 9660  23.650  42.864   0.965
37335W        W 9661  23.606  22.075  10.981
37336W        W 9662   8.273  22.106  10.595
37337W        W 9663  32.058  12.327  11.929
37338W        W 9664   5.912  12.270  14.962
37339W        W 9665  39.979   7.222   0.474
37340W        W 9666  44.890   8.277   1.848
37341W        W 9667  35.531  27.657  11.933
37342W        W 9668  32.411   2.400  14.937
37343W        W 9669  27.473   7.848  13.038
37344W        W 9670  38.880  22.145   4.776
37345W        W 9671  18.678  15.137   1.268
37346W        W 9672   6.322   9.345  11.118
37347W        W 9673  11.839  31.958  12.096
37348W        W 9674  38.475  33.454  13.466
37349W        W 9675  22.055  37.394   0.450
37350W        W 9676  35.497  39.555  14.453
37351W        W 9677   9.680  32.071  13.883
37352W        W 9678  11.346  30.976  11.947
37353W        W 9679  37.576  13.329   1.811
37354W        W 9680  42.875  22.246  11.934
37355W        W 9681  19.202  13.677  11.974
37356W        W 9682  27.451  10.800   1.412
37357W        W 9683  33.380  44.931   4.335
37358W        W 9684  40.844  42.951   3.257
37359W        W 9685  19.595   0.743   4.137
37360W        W 9686   5.226  21.739  13.472
37361W        W 9687  34.012   4.815   2.696
37362W        W 9688  22.246  12.735   4.762
37363W        W 9689  36.916   3.434  10.098
37364W        W 9690  38.028  11.208   3.643
37365W        W 9691   4.369   7.344  13.825
37366W        W 9692  11.739  29.574  12.954
37367W        W 9693   5.827  38.005  12.898
37368W        W 9694  32.921  19.588   4.666
37369W        W 9695  27.513  17.227   1.272
37370W        W 9696  14.605  35.373  13.475
37371W        W 9697  30.954  17.713  14.379
37372W        W 9698  18.635  18.238  11.508
37373W        W 9699  32.528   9.801   4.714
37374W        W 9700  33.418  42.434  11.461
37375W        W 9701  23.068   3.317  12.514
37376W        W 9702  28.094  27.595   2.893
37377W        W 9703   6.280  31.096  12.864
37378W        W 9704  24.164  27.157  13.482
37379W        W 9705   4.370   7.346   0.417
37380W        W 9706  20.233  30.036   4.296
37381W        W 9707  43.929  28.480   2.362
37382W        W 9708   9.758   6.423  12.087
37383W        W 9709  36.428  40.424   1.316
37384W        W 9710  39.323   9.228   3.284
37385W        W 9711  37.868  27.635  10.500
37386W        W 9712  15.707  29.112  11.463
37387W        W 9713   2.761  40.423   2.369
37388W        W 9714  24.695  33.409  13.063
37389W        W 9715  37.530  30.935  11.397
37390W        W 9716  33.529  35.496  13.967
37391W        W 9717  15.241   2.332   2.805
37392W        W 9718   1.246  21.142   5.318
37393W        W 9719  35.980  29.982  14.972
37394W        W 9720  31.901  26.119  13.547
37395W        W 9721  24.987  19.709   4.717
37396W        W 9722  42.806  24.086  14.811
37397W        W 9723  38.487  44.922  13.999
37398W        W 9724  18.677  18.734   2.375
37399W        W 9725  36.916  38.337   1.274
37400W        W 9726   1.249   2.901  14.847
37401W        W 9727  10.654  31.103  11.064
37402W        W 9728   3.246   7.300   0.359
37403W        W 9729  18.721  19.733  10.522
37404W        W 9730  22.622   0.429   0.828
37405W        W 9731  13.331  10.335   3.264
37406W        W 9732  29.641   7.705  12.869
37407W        W 9733   0.844  41.372  12.092
37408W        W 9734  26.184   9.186  10.946
37409W        W 9735  19.677   1.381  12.386
37410W        W 9736  23.087  19.041  12.853
37411W        W 9737  31.126  30.638  12.948
37412W        W 9738  11.791   6.187   0.298
37413W        W 9739  35.067  42.390  12.078
37414W        W 9740  22.693  26.627   1.426
37415W        W 9741  27.523   6.864   0.266
37416W        W 9742  34.073  30.629   2.315
37417W        W 9743  33.466  39.986  10.602
37418W        W 9744   4.762  43.442   0.281
37419W        W 9745  11.305   3.721  14.866
37420W        W 9746  25.706  43.511   2.793
37421W        W 9747   9.785   7.708   2.807
37422W        W 9748  25.625   5.401   3.670
37423W        W 9749  32.938  38.545   4.830
37424W        W 9750   2.851  15.631   0.245
37425W        W 9751  33.898  39.918  11.875
37426W        W 9752   4.209  24.143   4.233
37427W        W 9753  30.476   0.976  10.550
37428W        W 9754  23.581  17.134  13.531
37429W        W 9755  38.971  22.655  14.859
37430W        W 9756  39.900  13.762  14.356
37431W        W 9757  33.120  24.086   1.302
37432W        W 9758  42.335  44.322   1.854
37433W        W 9759  44.266  14.157  12.067
37434W        W 9760  44.845  36.469  14.492
37435W        W 9761  38.890  35.892  12.558
37436W        W 9762  29.096  39.005   2.851
37437W        W 9763  27.573  23.687  14.013
37438W        W 9764  36.091  20.587  11.991
37439W        W 9765  27.966  13.107  14.787
37440W        W 9766  14.294  35.060  11.940
37441W        W 9767  26.463   7.407   2.281
37442W        W 9768  16.688   9.830  10.483
37443W        W 9769  19.557  15.173   3.346
37444W        W 9770  38.455  16.742  10.426
37445W        W 9771   0.971   9.237   0.375
37446W        W 9772   6.341  31.921   4.122
37447W        W 9773  31.917  23.530   2.383
37448W        W 9774  28.170  21.250  14.464
37449W        W 9775  12.187  11.622  10.896
37450W        W 9776  20.762  40.318   1.291
37451W        W 9777  16.642  37.447  10.475
37452W        W 9778  25.471  29.447   4.236
37453W        W 9779  23.598  18.125   1.359
37454W        W 9780  43.802  13.346   0.357
37455W        W 9781  25.187   3.385  13.489
37456W        W 9782  17.074  23.230   0.449
37457W        W 9783  29.044  15.718   2.813
37458W        W 9784  19.774  24.652  13.855
37459W        W 9785  26.182  21.182   1.409
37460W        W 9786   5.742   4.230   2.381
37461W        W 9787  43.367   0.925   3.202
37462W        W 9788  11.298  29.506   1.835
37463W        W 9789  41.437  14.304  13.976
37464W        W 9790   2.749   7.740   3.801
37465W        W 9791  19.694  23.084   0.370
37466W        W 9792   8.862  24.624   2.792
37467W        W 9793   0.869  41.002  11.476
37468W        W 9794  41.029   3.938   2.887
37469W        W 9795   6.723  30.585   3.231
37470W        W 9796  17.693  40.461   1.274
37471W        W 9797   6.361  41.495  11.471
37472W        W 9798  30.148  33.471   3.865
37473W        W 9799  27.193  35.531   2.371
37474W        W 9800  30.627  22.558  11.534
37475W        W 9801  41.487  34.550  11.511
37476W        W 9802  16.783  22.528  14.895
37477W        W 9803  42.935  30.494  11.986
37478W        W 9804   3.901  11.721  14.766
37479W        W 9805  31.481  27.050   4.626
37480W        W 9806  16.177   6.242   3.238
37481W        W 9807  29.087  19.162  11.393
37482W        W 9808  41.861   0.377  14.021
37483W        W 9809  11.322  35.896   1.714
37484W        W 9810   6.858   6.834   4.721
37485W        W 9811  35.059   1.868  12.984
37486W        W 9812  30.648  33.045   0.279
37487W        W 9813   6.781  30.043  12.060
37488W        W 9814  40.886  13.685   0.880
37489W        W 9815   7.666  23.634  10.131
37490W        W 9816  29.085  16.281  14.017
37491W        W 9817  23.624  28.034  13.949
37492W        W 9818  21.674  26.550  14.768
37493W        W 9819  13.265  11.653  13.799
37494W        W 9820  10.798   8.286  11.871
37495W        W 9821  26.986   2.247   4.303
37496W        W 9822  36.552  14.332  12.928
37497W        W 9823  42.818  40.830   0.831
37498W        W 9824  26.037  42.803   0.345
37499W        W 9825  30.585  27.083  13.518
37500W        W 9826  15.673   0.944   2.324
37501W        W 9827  20.078  30.640   9.925
37502W        W 9828  36.925  17.685   1.225
37503W        W 9829  39.975  42.491   0.255
37504W        W 9830   3.895  37.359   4.684
37505W        W 9831  23.544  38.982   2.798
37506W        W 9832  10.299  41.299  14.024
37507W        W 9833   7.281  42.023   3.299
37508W        W 9834  39.363  14.709  12.823
37509W        W 9835  36.016  27.446  12.556
37510W        W 9836   9.215  14.289  14.334
37511W        W 9837  36.962  15.173   3.747
37512W        W 9838  40.322  22.054  12.951
37513W        W 9839  12.152  28.494   0.747
37514W        W 9840  27.506   2.875   4.693
37515W        W 9841  42.443  24.199  13.509
37516W        W 9842   1.902  11.838  11.886
37517W        W 9843  38.459  19.561  14.379
37518W        W 9844   8.367  42.967  11.481
37519W        W 9845   4.287  42.463  11.576
37520W        W 9846  27.992  42.479   3.711
37521W        W 9847  39.376   6.395   0.881
37522W        W 9848  19.041  15.742   3.375
37523W        W 9849  28.169   5.227  11.872
37524W        W 9850  28.956  14.762  10.631
37525W        W 9851  17.172  31.605  14.421
37526W        W 9852  13.208  12.696  11.079
37527W        W 9853  28.602  22.542   1.374
37528W        W 9854  23.653  18.736  13.473
37529W        W 9855  22.564  39.819  12.448
37530W        W 9856  18.113   5.308   1.784
37531W        W 9857  23.222  25.188  12.942
37532W        W 9858  15.771  18.228   2.314
37533W        W 9859  30.956   0.849  14.318
37534W        W 9860  34.946   4.933   1.418
37535W        W 9861  43.017   9.791   3.312
37536W        W 9862  16.236  24.617  13.457
37537W        W 9863  12.249  11.293  13.856
37538W        W 9864   3.307  17.790   3.237
37539W        W 9865  29.965   3.913   2.730
37540W        W 9866  17.271   8.665  13.848
37541W        W 9867   9.338   5.308  11.394
37542W        W 9868  27.147  30.972  14.894
37543W        W 9869  41.499  40.378  10.645
37544W        W 9870  38.005   1.763  14.823
37545W        W 9871  12.849  24.606   0.331
37546W        W 9872   5.308  31.638  12.388
37547W        W 9873  26.537  27.941  12.063
37548W        W 9874  29.449  28.997  13.963
37549W        W 9875   0.854  40.854   4.649
37550W        W 9876  28.151   8.395  12.556
37551W        W 9877  28.538  28.453  11.471
37552W        W 9878   8.874  32.458  14.874
37553W        W 9879   2.836  11.816   5.723
37554W        W 9880   9.290  23.502   3.839
37555W        W 9881  13.648  12.807   1.875
37556W        W 9882  27.636  35.969  10.486
37557W        W 9883  25.694   3.715   2.297
37558W        W 9884  15.740  41.971  14.769
37559W        W 9885  13.684  17.758  12.834
37560W        W 9886   0.435   9.347   0.870
37561W        W 9887  11.200  29.497  12.963
37562W        W 9888  29.482  19.686   3.794
37563W        W 9889  12.744  23.588  13.893
37564W        W 9890  37.478  16.695   4.286
37565W        W 9891  23.016  19.658  13.532
37566W        W 9892   9.357   7.707   0.763
37567W        W 9893   2.741   1.452   4.154
37568W        W 9894  22.728  43.514   2.395
37569W        W 9895  15.674  19.039   0.283
37570W        W 9896  15.167  36.404  14.335
37571W        W 9897   2.736  43.319  12.836
37572W        W 9898  15.140  23.562   1.410
37573W        W 9899  31.985  37.832   4.726
37574W        W 9900  14.336  26.662   2.226
37575W        W 9901  19.722  22.589  14.382
37576W        W 9902  16.236  11.734  11.537
37577W        W 9903  41.843   8.837   5.094
37578W        W 9904   3.766  44.805   3.858
37579W        W 9905   9.874  31.404   3.646
37580W        W 9906  40.324  40.317  12.028
37581W        W 9907  25.645  19.085   4.608
37582W        W 9908  33.902  22.687   2.819
37583W        W 9909   9.705   2.905   0.471
37584W        W 9910   5.233  40.932  10.895
37585W        W 9911  15.101  35.879  11.428
37586W        W 9912  41.969   0.886   9.968
37587W        W 9913  15.779  32.397   0.753
37588W        W 9914   6.843  39.396  13.533
37589W        W 9915  28.500   8.737  14.336
37590W        W 9916  35.443  19.762  11.999
37591W        W 9917   6.379   7.783  13.839
37592W        W 9918  36.078   3.834  12.374
37593W        W 9919  27.117   3.862  12.047
37594W        W 9920  33.417  34.910   1.724
37595W        W 9921   0.963  10.856   5.587
37596W        W 9922  11.165   7.870   4.176
37597W        W 9923  19.605   3.323   2.738
37598W        W 9924  20.683  21.650   3.209
37599W        W 9925   6.841  31.562   1.447
37600W        W 9926   8.392  35.013   3.745
37601W        W 9927  28.017  20.196   2.667
37602W        W 9928  13.202  42.949  13.030
37603W        W 9929  29.481   1.917  12.491
37604W        W 9930  17.760   7.818  10.513
37605W        W 9931  32.524   9.382   2.895
37606W        W 9932   1.332  19.138  13.836
37607W        W 9933  38.038  15.791  13.547
37608W        W 9934  42.508   3.768  14.998
37609W        W 9935   1.414  18.561   2.671
37610W        W 9936   2.445  41.507  14.372
37611W        W 9937   4.757  34.442  12.906
37612W        W 9938  42.782   2.799   3.371
37613W        W 9939  13.187  41.909  11.024
37614W        W 9940  32.524   3.855  12.062
37615W        W 9941  39.915   6.317  12.412
37616W        W 9942   2.903  20.178  12.562
37617W        W 9943   1.802   1.360  12.985
37618W        W 9944  42.934   0.822   2.734
37619W        W 9945  20.224   8.790  11.863
37620W        W 9946  15.648  41.343  12.488
37621W        W 9947  20.091  28.108   2.800
37622W        W 9948  36.548  44.444   0.784
37623W        W 9949  19.748  28.504  13.331
37624W        W 9950  16.301   9.239   0.256
37625W        W 9951  29.930  37.961   3.172
37626W        W 9952  17.102   1.828  14.412
37627W        W 9953   5.854  41.985  14.871
37628W        W 9954   0.765   3.849  12.070
37629W        W 9955  26.974  35.367   0.266
37630W        W 9956  30.019  26.537  13.878
37631W        W 9957   2.382  13.134  13.874
37632W        W 9958  19.233  10.844   2.792
37633W        W 9959   0.969  30.609   2.265
37634W        W 9960   6.201   0.472  13.037
37635W        W 9961  19.083   5.237  14.865
37636W        W 9962  43.764   4.752  12.398
37637W        W 9963  24.005  42.322  12.466
37638W        W 9964  27.049  36.019  13.962
37639W        W 9965  16.778  14.788  14.370
37640W        W 9966  11.756   6.315  12.940
37641W        W 9967   7.794   4.786   0.377
37642W        W 9968  39.961  25.980  10.977
37643W        W 9969  16.712  44.957  13.524
37644W        W 9970  21.668  17.253   2.386
37645W        W 9971  10.337  10.227  13.952
37646W        W 9972   6.749  37.942   2.809
37647W        W 9973  26.036   5.811  14.970
37648W        W 9974   5.413  35.090   1.864
37649W        W 9975   9.381   8.321  13.455
37650W        W 9976  21.623  25.575   4.786
37651W        W 9977  11.652  16.307   3.702
37652W        W 9978  18.263  36.368  13.977
37653W        W 9979  39.402  19.778  13.990
37654W        W 9980  21.701  29.495  13.530
37655W        W 9981  14.298  11.678   3.287
37656W        W 9982  34.386  16.611  14.847
37657W        W 9983   7.360  10.863   2.762
37658W        W 9984  23.062   3.818  11.933
37659W        W 9985  12.837  29.521   2.721
37660W        W 9986  23.033  29.941   2.756
37661W        W 9987  29.662  40.916   3.668
37662W        W 9988  32.919   9.158  12.533
37663W        W 9989   0.972   2.336   1.766
37664W        W 9990  31.049  19.620   2.856
37665W        W 9991  42.870  17.201  13.819
37666W        W 9992  42.458  44.846  12.961
37667W        W 9993  31.456  12.281   2.857
37668W        W 9994  25.707  25.038   4.647
37669W        W 9995  20.181   4.834   2.361
37670W        W 9996  29.977   2.848   4.743
37671W        W 9997  44.495  40.362   2.848
37672W        W 9998   7.687  30.928   0.760
37673W        W 9999  15.767  22.071  14.999
37674W        W10000  44.491  20.233  11.925
37675W        W10001  41.472  19.764  13.806
37676W        W10002  34.930  28.938  11.502
37677W        W10003   8.795  34.444   2.820
37678W        W10004   9.317  33.039   3.361
37679W        W10005  20.540  20.071  12.001
37680W        W10006  33.615  39.521  14.451
37681W        W10007  22.113  24.535   3.807
37682W        W10008  21.726  23.025   1.380
37683W        W10009   3.385  15.303  11.026
37684W        W10010   4.939  31.561   3.828
37685W        W10011  43.468   0.317  10.456
37686W        W10012   8.698   8.675  11.996
37687W        W10013  32.094  23.601  13.957
37688W        W10014  16.607  16.270   0.780
37689W        W10015  18.652   0.742   4.680
37690W        W10016  16.155  27.639   1.264
37691W        W10017  21.023  28.954  12.932
37692W        W10018   2.249  23.571  10.081
37693W        W10019  25.618  22.690   3.162
37694W        W10020  10.198  40.958  10.137
37695W        W10021  17.737   3.362  11.022
37696W        W10022   2.869  26.022  14.279
37697W        W10023  10.804  21.057  14.353
37698W        W10024   5.332  23.514  12.533
37699W        W10025   3.712   1.767   1.369
37700W        W10026   5.223   0.302   4.125
37701W        W10027   5.243  11.743  10.925
37702W        W10028  41.509  13.318  13.864
37703W        W10029   4.236  42.435  10.527
37704W        W10030  10.320  41.415   1.837
37705W        W10031  26.041  36.878   3.187
37706W        W10032  10.191  14.642   4.297
37707W        W10033  12.138  16.579   3.224
37708W        W10034  35.020   0.477   3.315
37709W        W10035   3.414  37.547   4.629
37710W        W10036  25.089  30.457   4.599
37711W        W10037  34.420  25.487   2.260
37712W        W10038  31.558  10.851   4.194
37713W        W10039  30.609   1.333   3.803
37714W        W10040  14.260  41.399   4.747
37715W        W10041   7.286  17.716   2.802
37716W        W10042  30.919  15.581   0.749
37717W        W10043  14.762  40.412   4.812
37718W        W10044  19.208  21.141  12.495
37719W        W10045  22.509  13.308   0.859
37720W        W10046  34.023  28.979   2.333
37721W        W10047  27.101  31.417   2.233
37722W        W10048  38.568  32.917  14.281
37723W        W10049  18.275  15.660  13.010
37724W        W10050  18.215   8.787  12.529
37725W        W10051  31.911  34.954  14.912
37726W        W10052   6.742   0.860  12.487
37727W        W10053  30.609  17.273  10.404
37728W        W10054   2.233  38.039   2.752
37729W        W10055  10.171  29.017  14.404
37730W        W10056   3.436   3.318  10.609
37731W        W10057  25.621   6.766   1.773
37732W        W10058   7.341  44.485   2.197
37733W        W10059   7.412  19.161   2.381
37734W        W10060  14.693   1.933  14.012
37735W        W10061  28.146  37.406  10.615
37736W        W10062   3.330  42.807   2.385
37737W        W10063  13.713  43.871   2.863
37738W        W10064   5.256   8.897  14.908
37739W        W10065  12.671  43.274   2.803
37740W        W10066  41.928  17.296  14.947
37741W        W10067  30.996  30.148   1.272
37742W        W10068   9.249  16.226  14.475
37743W        W10069  24.592   0.428  13.064
37744W        W10070  23.545  43.944  12.573
37745W        W10071  31.472  40.373   1.211
37746W        W10072  24.605  42.508   3.792
37747W        W10073  24.976   1.934  11.507
37748W        W10074  17.641  39.417   1.364
37749W        W10075  38.055  27.011  13.530
37750W        W10076  11.852  28.001   2.852
37751W        W10077   2.836  36.515   1.747
37752W        W10078  16.638  39.550   2.764
37753W        W10079  26.975  40.926   1.749
37754W        W10080  22.537  38.019  11.558
37755W        W10081  31.548  15.675   2.287
37756W        W10082  26.665  21.208  13.979
37757W        W10083  44.422  15.276  10.940
37758W        W10084  28.151  31.101  13.809
37759W        W10085  35.377  35.561   0.960
37760W        W10086  24.046  44.358  13.497
37761W        W10087  15.822  10.809  14.869
37762W        W10088  29.536  17.262   0.277
37763W        W10089  39.390  12.672   3.645
37764W        W10090  33.382   3.810   1.271
37765W        W10091   9.707  11.800   4.777
37766W        W10092  42.791  27.489   4.184
37767W        W10093  38.341  39.461   0.361
37768W        W10094  44.385  38.344  13.871
37769W        W10095  13.654  23.186   1.752
37770W        W10096  10.185  28.090  10.533
37771W        W10097  18.715  42.973  12.339
37772W        W10098   4.354  24.620   3.712
37773W        W10099   3.800   6.377   3.865
37774W        W10100   8.796  32.993  14.890
37775W        W10101  29.485  21.034   1.852
37776W        W10102  34.923  35.603   1.840
37777W        W10103  34.107  31.054  11.108
37778W        W10104  36.893  40.045   2.191
37779W        W10105  41.947  12.825  10.598
37780W        W10106  30.029  25.172  11.570
37781W        W10107  14.609  41.906  13.405
37782W        W10108   5.317   6.428   2.699
37783W        W10109   3.310  43.335   4.119
37784W        W10110   3.246   9.713   1.387
37785W        W10111  18.589   0.868   4.269
37786W        W10112  37.386  22.745   1.815
37787W        W10113  32.139   5.311  13.025
37788W        W10114  26.536  39.333   3.170
37789W        W10115   2.299   4.409   9.658
37790W        W10116  37.413  37.973  13.517
37791W        W10117   4.424   3.847   0.390
37792W        W10118  40.862  40.993  14.024
37793W        W10119  26.128  27.115   3.207
37794W        W10120  42.797  28.139  14.328
37795W        W10121   1.356  27.516  13.497
37796W        W10122   4.700  27.110  14.892
37797W        W10123  23.625  27.622   2.240
37798W        W10124  24.072  28.453  12.566
37799W        W10125  20.073   1.833  11.882
37800W        W10126  31.609  12.282   0.934
37801W        W10127  36.487   9.837  11.018
37802W        W10128  11.665  38.016   4.296
37803W        W10129  35.099   7.329   0.905
37804W        W10130   8.183   9.196   4.836
37805W        W10131  33.605  25.085  14.946
37806W        W10132  23.622   1.824   4.268
37807W        W10133  42.441  21.686   4.340
37808W        W10134  36.455  25.575  13.464
37809W        W10135   3.230   1.396  11.524
37810W        W10136   0.309  22.093  13.792
37811W        W10137  44.002  12.279   2.715
37812W        W10138  41.810  38.039  14.922
37813W        W10139  43.860   0.943   3.796
37814W        W10140  11.866  33.619  13.867
37815W        W10141  27.065  33.455   2.358
37816W        W10142   0.941   9.186  13.001
37817W        W10143  20.759  37.425   4.742
37818W        W10144   2.429  28.958  12.343
37819W        W10145  13.198  42.389   2.252
37820W        W10146  41.316  11.852  14.487
37821W        W10147  40.508   8.854  14.950
37822W        W10148  19.684  24.535   2.677
37823W        W10149   0.391  22.539   3.761
37824W        W10150  18.181  28.608  10.439
37825W        W10151  19.134  37.415   4.132
37826W        W10152  33.982   1.915  12.412
37827W        W10153  28.466  44.317   4.291
37828W        W10154  20.647   8.806   0.310
37829W        W10155  40.324  34.079  13.457
37830W        W10156  24.009   0.361   3.663
37831W        W10157  44.970  14.147   2.774
37832W        W10158  29.161  21.026   1.713
37833W        W10159  18.070  13.214  10.532
37834W        W10160  23.702  40.962  12.831
37835W        W10161   3.903  17.576  10.631
37836W        W10162  15.137  36.360  13.349
37837W        W10163   4.205  10.175   4.333
37838W        W10164   5.354  26.619  14.805
37839W        W10165  44.005  14.108  13.904
37840W        W10166   0.403  23.102   5.704
37841W        W10167   3.434  26.535  14.950
37842W        W10168   4.774  20.032  10.615
37843W        W10169  34.427   0.928  10.925
37844W        W10170  11.270  22.632  10.433
37845W        W10171  18.079  15.611   4.278
37846W        W10172   2.929  40.005  13.885
37847W        W10173  16.754  10.638   3.286
37848W        W10174  32.045  38.832   3.169
37849W        W10175   6.717   9.326  11.078
37850W        W10176  33.964  10.208   4.299
37851W        W10177  10.239  42.358  11.900
37852W        W10178   8.751  41.930  10.943
37853W        W10179  17.080  40.900  12.521
37854W        W10180  12.781  15.599  10.945
37855W        W10181  28.077   9.814  11.861
37856W        W10182  26.494   5.403   3.818
37857W        W10183  11.741  19.691   1.827
37858W        W10184  13.319  43.471   3.858
37859W        W10185  37.872  10.702  14.828
37860W        W10186  35.454   3.349  11.013
37861W        W10187   4.836   0.371  11.488
37862W        W10188  43.005  23.103  14.823
37863W        W10189  18.253  30.518  14.348
37864W        W10190  33.541   0.861   0.754
37865W        W10191  14.767  25.692  11.555
37866W        W10192   0.281   4.769  12.917
37867W        W10193  44.796  36.526   1.343
37868W        W10194  40.359  20.152  14.976
37869W        W10195  28.976  22.998   1.803
37870W        W10196  41.968  20.101  13.309
37871W        W10197  39.533  40.363  13.519
37872W        W10198   6.361  20.102  12.522
37873W        W10199  29.486  26.644   2.201
37874W        W10200  23.677   6.423   4.251
37875W        W10201  12.783   1.349   3.160
37876W        W10202  41.316  11.220  14.323
37877W        W10203  16.573   1.260   1.237
37878W        W10204  12.314  42.467   4.147
37879W        W10205  43.476   6.676  14.283
37880W        W10206  11.693   1.320   1.306
37881W        W10207  20.588  35.372  12.941
37882W        W10208  20.678  10.146   0.860
37883W        W10209  20.552   3.255  11.030
37884W        W10210  37.362  40.471  14.883
37885W        W10211  38.856  19.095   2.402
37886W        W10212  16.622  22.534   1.324
37887W        W10213   9.361  18.584   2.799
37888W        W10214  32.545  44.777   2.804
37889W        W10215  41.913  41.938   0.324
37890W        W10216  28.041  42.972   5.198
37891W        W10217  28.572  17.685   1.766
37892W        W10218  19.069  28.104   4.272
37893W        W10219   7.375  16.768   1.836
37894W        W10220  14.202  26.008   3.206
37895W        W10221  22.011  21.525  14.931
37896W        W10222  43.413  15.157   1.395
37897W        W10223  20.638  19.638   1.258
37898W        W10224   9.739  40.434  12.092
37899W        W10225  34.119  23.109  14.021
37900W        W10226  17.606  17.143  11.103
37901W        W10227  39.394  39.830  13.802
37902W        W10228  42.929  40.481  12.466
37903W        W10229   1.897  33.476  10.574
37904W        W10230  42.402   8.868   4.153
37905W        W10231  32.055  16.717  13.982
37906W        W10232   8.385  34.091   2.380
37907W        W10233  44.883  17.087   1.307
37908W        W10234  35.095   3.359  10.938
37909W        W10235  11.682   3.234   4.322
37910W        W10236  28.944  41.927   1.728
37911W        W10237  28.930   3.800  11.454
37912W        W10238   4.393  21.107  11.573
37913W        W10239  23.700  34.474   3.146
37914W        W10240  29.176  25.181  14.450
37915W        W10241  35.098  35.922   1.754
37916W        W10242  43.769   6.912  14.299
37917W        W10243  38.526  14.227   0.911
37918W        W10244  28.028   3.437   3.835
37919W        W10245  13.260  21.733  10.606
37920W        W10246  43.792  26.558  10.954
37921W        W10247   6.311  39.821  13.410
37922W        W10248  42.407   6.828   4.718
37923W        W10249  26.475   9.664  14.938
37924W        W10250  15.810  37.347   0.249
37925W        W10251  29.427   2.875   4.740
37926W        W10252  23.595  20.727  14.397
37927W        W10253  44.313  15.269  13.820
37928W        W10254  43.836   9.242  12.931
37929W        W10255  31.457   3.806  14.423
37930W        W10256  22.501  16.640   2.692
37931W        W10257  21.656  41.391  12.353
37932W        W10258   8.236  39.345  14.835
37933W        W10259  23.128  35.863  14.464
37934W        W10260   5.350  24.059   1.350
37935W        W10261  29.055  25.516   1.906
37936W        W10262  21.036  28.462  12.897
37937W        W10263  34.899  21.172  14.818
37938W        W10264  31.575  41.004  12.051
37939W        W10265  11.191   8.317  14.455
37940W        W10266  26.679   1.817  12.477
37941W        W10267  20.651  19.571  14.450
37942W        W10268  31.478  26.000   4.770
37943W        W10269  29.073  38.850   4.261
37944W        W10270  19.549  19.279  14.759
37945W        W10271  14.801  27.067  10.417
37946W        W10272  42.294  39.499   4.198
37947W        W10273  27.033   9.305  12.037
37948W        W10274  15.781   5.854   1.291
37949W        W10275   2.449   4.230   1.264
37950W        W10276   2.278  44.985   1.417
37951W        W10277  10.365   3.926  10.432
37952W        W10278  27.067  44.367   1.855
37953W        W10279  25.053  33.964  12.529
37954W        W10280  37.840  35.018  14.824
37955W        W10281  39.436  25.984   2.690
37956W        W10282   9.743  30.134  14.946
37957W        W10283  32.495  40.840   0.929
37958W        W10284  13.177  27.149  13.463
37959W        W10285  12.242   6.898   4.803
37960W        W10286   9.190  15.215   1.840
37961W        W10287  33.991  44.860   2.792
37962W        W10288   9.215  25.050   0.348
37963W        W10289   4.347  22.702   2.686
37964W        W10290  23.591  24.078   1.928
37965W        W10291   2.758  19.070  13.928
37966W        W10292   6.898  14.801   2.280
37967W        W10293   5.344   4.293   1.262
37968W        W10294  23.495  16.570   1.887
37969W        W10295   5.826  30.451  12.375
37970W        W10296  29.019  29.057  10.472
37971W        W10297  21.109  25.671  10.439
37972W        W10298  44.827   4.283   1.789
37973W        W10299   6.830  30.646   0.887
37974W        W10300  27.067  39.516   2.323
37975W        W10301  31.963  14.769   4.693
37976W        W10302  33.092  38.522   4.275
37977W        W10303  42.850  25.185   2.378
37978W        W10304   5.434  13.201   0.371
37979W        W10305  21.223  30.471   1.822
37980W        W10306  28.474  16.604  12.848
37981W        W10307  29.957  42.029  10.591
37982W        W10308   1.732  21.168   0.819
37983W        W10309   3.801   6.406   2.207
37984W        W10310  33.986  37.404  10.129
37985W        W10311  11.210  43.815   3.213
37986W        W10312   6.821  33.441  12.408
37987W        W10313  16.670   7.684  10.557
37988W        W10314  43.854  22.653   2.298
37989W        W10315  42.798  24.142   0.434
37990W        W10316  25.207   1.310   0.483
37991W        W10317  35.948  16.615  14.493
37992W        W10318  40.968  30.434  11.083
37993W        W10319  20.648  26.575   2.734
37994W        W10320  26.109  44.309   0.260
37995W        W10321  12.236  38.979   1.827
37996W        W10322  24.660  19.580  11.457
37997W        W10323   6.364  18.749   3.306
37998W        W10324   1.292  36.575   0.844
37999W        W10325  28.523  25.122   2.255
38000W        W10326   0.349  10.211   1.245
38001W        W10327  41.973  22.696  10.457
38002W        W10328  15.220  26.052  10.457
38003W        W10329  40.873  24.627   0.856
38004W        W10330  38.819  34.069  12.493
38005W        W10331  33.969  32.480   1.307
38006W        W10332  43.997  24.040   1.874
38007W        W10333   7.267  35.414   1.874
38008W        W10334  13.776  12.614  13.460
38009W        W10335  11.361   4.420   4.743
38010W        W10336   8.259  42.907  10.560
38011W        W10337  43.888  41.876  10.438
38012W        W10338  44.393  40.826   2.767
38013W        W10339  25.028  44.429   0.316
38014W        W10340  42.952  21.044  10.149
38015W        W10341  12.705  15.189  12.825
38016W        W10342  33.897  33.013  12.980
38017W        W10343  41.471  41.959   2.835
38018W        W10344  21.561  36.493  10.432
38019W        W10345  43.322  32.969   0.474
38020W        W10346  29.027  17.212   1.241
38021W        W10347  15.200  23.204  11.058
38022W        W10348  35.978  20.725  12.450
38023W        W10349   0.253   3.285   4.813
38024W        W10350  15.285  19.045  14.456
38025W        W10351  39.913  30.028   3.178
38026W        W10352  18.755  41.293   0.364
38027W        W10353  14.718  30.053   2.840
38028W        W10354   6.348   9.656   2.189
38029W        W10355  40.508  15.785  13.330
38030W        W10356  26.648  32.942  13.040
38031W        W10357  42.956   8.788   4.136
38032W        W10358   1.740   1.913   1.360
38033W        W10359   0.425   6.198  13.374
38034W        W10360   9.800  12.854  14.404
38035W        W10361  42.876  19.622  11.540
38036W        W10362   3.772  34.969  13.939
38037W        W10363  44.960  12.785  11.063
38038W        W10364  10.237  34.115   4.180
38039W        W10365   7.213   8.200   2.333
38040W        W10366   2.851  19.266  14.988
38041W        W10367  24.087  39.382  14.304
38042W        W10368  28.021  27.129   1.419
38043W        W10369  29.060  11.646   2.865
38044W        W10370  32.437  11.184   3.819
38045W        W10371   8.787   7.816  11.874
38046W        W10372  20.099   6.785   3.742
38047W        W10373   2.838  37.446   4.657
38048W        W10374  38.506  34.478  12.887
38049W        W10375   4.277  30.938   2.390
38050W        W10376  43.892   5.406  13.815
38051W        W10377  25.711  12.624  10.642
38052W        W10378  30.557  30.974  11.948
38053W        W10379  15.641   7.261   2.886
38054W        W10380  39.392  36.445  12.345
38055W        W10381  44.962  29.971   4.827
38056W        W10382   6.307   4.883  11.914
38057W        W10383  37.889  10.364   5.671
38058W        W10384  20.240  42.420   3.781
38059W        W10385   8.892  14.223  14.420
38060W        W10386   2.765  30.156  11.064
38061W        W10387  43.776  28.546  12.495
38062W        W10388  29.446  24.116  12.052
38063W        W10389  27.978  27.564  13.985
38064W        W10390  16.567  22.741   4.158
38065W        W10391  13.718  27.554  10.579
38066W        W10392  30.620  24.006   0.963
38067W        W10393  15.263   3.423   4.209
38068W        W10394   4.740  20.769   3.386
38069W        W10395  24.709  25.545   1.399
38070W        W10396  23.092   7.768   1.803
38071W        W10397  25.670  22.250   2.224
38072W        W10398  17.599  27.483  11.548
38073W        W10399  26.022  33.980   4.812
38074W        W10400  27.168  29.568   3.258
38075W        W10401   8.772   8.273  10.579
38076W        W10402  41.035   1.350   2.698
38077W        W10403  20.219  39.064  13.382
38078W        W10404  30.442  24.721  12.500
38079W        W10405  30.633   0.364   2.365
38080W        W10406   4.748   5.722   0.315
38081W        W10407  28.042  40.485  11.875
38082W        W10408  42.825  10.172   2.810
38083W        W10409  27.036  28.013  13.453
38084W        W10410  28.671  30.001   2.414
38085W        W10411  23.502   2.846  11.396
38086W        W10412  33.085  17.736  11.027
38087W        W10413  43.863  17.236  14.906
38088W        W10414  11.631  43.452  11.003
38089W        W10415  35.031   0.907  13.020
38090W        W10416  38.916  12.219   5.197
38091W        W10417   2.752  15.652  11.949
38092W        W10418  11.760  41.964   1.846
38093W        W10419  16.206   4.257   2.260
38094W        W10420  30.439  29.547  11.572
38095W        W10421   5.227  23.206   2.330
38096W        W10422  32.394   7.807  13.902
38097W        W10423   1.423  36.451  10.519
38098W        W10424   2.794   4.827  10.425
38099W        W10425  13.113  34.453   2.324
38100W        W10426  32.455  21.039   0.739
38101W        W10427   4.811  10.285   3.855
38102W        W10428  16.293  44.267   3.308
38103W        W10429  20.618   7.685  14.920
38104W        W10430  11.785   6.408  14.859
38105W        W10431  34.907   0.754   1.898
38106W        W10432  40.879  41.334  12.421
38107W        W10433  42.811   6.913  11.379
38108W        W10434  17.198  16.737   3.182
38109W        W10435   0.250  36.896   0.423
38110W        W10436  39.361  17.122  13.919
38111W        W10437  20.040  23.510   1.716
38112W        W10438  18.684  37.388   0.941
38113W        W10439  39.871  32.557   3.683
38114W        W10440   4.851  36.075  11.967
38115W        W10441  41.903  23.619  10.913
38116W        W10442   7.383  13.242  14.507
38117W        W10443   9.651   3.232   1.327
38118W        W10444   2.464  24.561  12.866
38119W        W10445  40.946  18.637   2.297
38120W        W10446  14.748  40.546  11.426
38121W        W10447  13.697   8.712   2.692
38122W        W10448  26.127   2.944   3.200
38123W        W10449  25.975  34.019  10.574
38124W        W10450  44.912  13.224   4.784
38125W        W10451   2.402   2.426  10.975
38126W        W10452  39.368  18.632   1.321
38127W        W10453   4.844   7.707   0.434
38128W        W10454   8.751  37.483  10.478
38129W        W10455  14.189  15.713   1.431
38130W        W10456  19.684  36.486  11.957
38131W        W10457   0.324  36.358  11.991
38132W        W10458  23.072   1.407   1.267
38133W        W10459  44.975   8.895   3.774
38134W        W10460  33.384   2.424  12.428
38135W        W10461  22.006  20.556   4.642
38136W        W10462   2.831  42.463   0.730
38137W        W10463  34.519  31.932  13.946
38138W        W10464   5.881  23.235   4.144
38139W        W10465  16.164  24.669  11.857
38140W        W10466  29.972   6.366  13.466
38141W        W10467  44.370  13.664  13.897
38142W        W10468  11.364  40.360  12.437
38143W        W10469  34.111  35.440  12.410
38144W        W10470  34.609  19.613   3.319
38145W        W10471  44.001  35.441  14.961
38146W        W10472  32.574  25.177   1.920
38147W        W10473  17.669  20.203  14.808
38148W        W10474   9.880  32.475  14.941
38149W        W10475  34.500   4.265  14.300
38150W        W10476  16.746  38.971  13.984
38151W        W10477  32.603   1.825   1.438
38152W        W10478  37.974   3.323  11.418
38153W        W10479  13.800  28.978   2.679
38154W        W10480   1.424   3.758   5.263
38155W        W10481  23.133   9.387  11.483
38156W        W10482  43.959  23.038   0.313
38157W        W10483   1.841   3.353  13.357
38158W        W10484  34.605  20.155   3.307
38159W        W10485  30.416   2.954  14.817
38160W        W10486  39.956  41.963   4.738
38161W        W10487  35.895  34.402  13.351
38162W        W10488  16.786  31.440   1.237
38163W        W10489  28.019  30.060   4.179
38164W        W10490  31.642  39.377   3.797
38165W        W10491   0.819  44.005  14.945
38166W        W10492  24.638  24.504   3.178
38167W        W10493  32.089   6.212  11.597
38168W        W10494  27.476  15.100   1.845
38169W        W10495  41.032  20.677   1.357
38170W        W10496  31.413  22.529   0.275
38171W        W10497  29.959   8.654  12.062
38172W        W10498  33.110   4.904  10.925
38173W        W10499  42.336  11.159  14.809
38174W        W10500  12.254  20.158   2.855
38175W        W10501   9.303  24.625  11.570
38176W        W10502  29.037  27.110   0.786
38177W        W10503  24.514  27.984   1.750
38178W        W10504   2.354   0.985  13.423
38179W        W10505  26.024  29.566  14.326
38180W        W10506  27.005  32.575   4.734
38181W        W10507  28.063   9.776  10.438
38182W        W10508  34.067  25.002  10.985
38183W        W10509   8.845  41.526  12.405
38184W        W10510  13.347  11.710   1.823
38185W        W10511  10.844   0.469  13.536
38186W        W10512  37.362  33.492   4.334
38187W        W10513  41.005  26.069   0.353
38188W        W10514   1.977  24.527   0.859
38189W        W10515  20.070   4.424  11.870
38190W        W10516  40.810   1.407   3.276
38191W        W10517  36.009  43.835  11.371
38192W        W10518   7.361  13.135   3.745
38193W        W10519   9.809  17.718   3.332
38194W        W10520  44.797   6.189   0.355
38195W        W10521  32.442  13.715  12.396
38196W        W10522  24.481  23.645  14.396
38197W        W10523  39.885  10.168   4.690
38198W        W10524  42.458  16.720  11.855
38199W        W10525  33.470  27.632   0.449
38200W        W10526  24.109  14.795   2.332
38201W        W10527   6.252  11.743  12.830
38202W        W10528  38.375  43.304   0.736
38203W        W10529  13.337  42.030  10.615
38204W        W10530  25.670  17.723  10.084
38205W        W10531  26.549  44.836  14.432
38206W        W10532  26.671   0.806  11.105
38207W        W10533  39.937  31.910   0.810
38208W        W10534  44.928  22.184   3.228
38209W        W10535  23.506  23.669  13.835
38210W        W10536  24.018  20.253  12.409
38211W        W10537  11.681  10.730   2.692
38212W        W10538  44.265   3.445  11.121
38213W        W10539  34.469  38.819  12.986
38214W        W10540   7.402  30.967  10.537
38215W        W10541  36.571  43.299   3.701
38216W        W10542  25.660  39.006  10.410
38217W        W10543   1.751  27.572  14.326
38218W        W10544   6.360  14.295   0.863
38219W        W10545  18.667  23.632  12.905
38220W        W10546  19.283   5.430  10.515
38221W        W10547  39.985  17.089  13.934
38222W        W10548  21.739   1.746  10.467
38223W        W10549  37.366   8.839  13.018
38224W        W10550  40.486  32.573  12.364
38225W        W10551  38.936   6.734  10.156
38226W        W10552  23.999  16.748   5.203
38227W        W10553  10.329  33.530   5.235
38228W        W10554  29.527  33.461  12.037
38229W        W10555   1.280  29.941   3.791
38230W        W10556  43.467  40.869  11.372
38231W        W10557  17.243  26.992  11.451
38232W        W10558   3.846  10.651   1.744
38233W        W10559  18.071  29.969  12.927
38234W        W10560  13.142  22.024   1.211
38235W        W10561  30.477  12.280   1.804
38236W        W10562  30.968   7.750   1.780
38237W        W10563  18.129  26.470  11.090
38238W        W10564  23.128   9.804   0.344
38239W        W10565   2.802  38.441  11.861
38240W        W10566   3.299  42.383  12.359
38241W        W10567  20.221  41.469   4.288
38242W        W10568  37.072  14.750   2.325
38243W        W10569  30.138  12.626  12.479
38244W        W10570  36.004  34.483   2.362
38245W        W10571  16.170  27.476   2.390
38246W        W10572  11.316   9.859   2.336
38247W        W10573   5.746  34.511   2.193
38248W        W10574  37.069  20.159   1.791
38249W        W10575  11.373  31.106  12.551
38250W        W10576   8.404  41.448  11.966
38251W        W10577  34.926  30.054  11.926
38252W        W10578   2.824  24.148  12.535
38253W        W10579  22.675  18.615  11.431
38254W        W10580  37.406  29.665  11.984
38255W        W10581  37.916   6.736  14.361
38256W        W10582   9.154  34.048  12.506
38257W        W10583  44.838  29.662  13.402
38258W        W10584  30.117  25.473  14.871
38259W        W10585   1.924  13.173   1.321
38260W        W10586  12.153  18.289   4.153
38261W        W10587   1.285  27.562  11.509
38262W        W10588  15.223  41.989   4.179
38263W        W10589  44.479  21.054   0.361
38264W        W10590  12.766  16.786   2.731
38265W        W10591   3.413   9.675  10.479
38266W        W10592  29.096  41.295  14.509
38267W        W10593  43.454  27.967  10.552
38268W        W10594  36.889  38.501  13.360
38269W        W10595  36.983   4.255  13.055
38270W        W10596  21.698  43.831  11.127
38271W        W10597   6.896  23.670   3.650
38272W        W10598   5.775  42.346  12.402
38273W        W10599  42.422  39.498   3.357
38274W        W10600  35.506   0.906  12.498
38275W        W10601  20.674   8.889  13.854
38276W        W10602  25.213  21.516  14.388
38277W        W10603  18.594   8.255  12.994
38278W        W10604  11.721  12.761   5.277
38279W        W10605  36.988  11.302   1.806
38280W        W10606  15.318  29.059  13.468
38281W        W10607  17.099  24.217  13.544
38282W        W10608  31.522  39.379  10.586
38283W        W10609  11.696  10.738  13.483
38284W        W10610   0.345   2.800   0.899
38285W        W10611  42.933  38.902   4.237
38286W        W10612   9.846   4.229  13.496
38287W        W10613   6.919  25.086  12.524
38288W        W10614  20.043  29.977  13.394
38289W        W10615  23.595  34.887  12.392
38290W        W10616  29.555  28.054   5.583
38291W        W10617   9.701  10.270   2.785
38292W        W10618   7.679  33.599  11.955
38293W        W10619  22.601  18.628   2.346
38294W        W10620   7.178   0.257   0.286
38295W        W10621  25.150  23.587   1.294
38296W        W10622  33.470  14.317  12.486
38297W        W10623  22.725  44.850   4.315
38298W        W10624  19.128  32.396  13.029
38299W        W10625  12.819   2.248   4.749
38300W        W10626  23.688   2.941  12.341
38301W        W10627  33.086  37.508   1.737
38302W        W10628  33.950  28.956  11.034
38303W        W10629  38.385  24.112   3.762
38304W        W10630   0.269  26.698  10.545
38305W        W10631   8.327  30.954  12.024
38306W        W10632   8.206   6.724  11.069
38307W        W10633  21.177   7.679   3.867
38308W        W10634   6.206  14.724  12.969
38309W        W10635   3.258   8.406  12.464
38310W        W10636  42.312  14.660   0.369
38311W        W10637  11.353  39.019  14.944
38312W        W10638   5.872  19.546   4.634
38313W        W10639  27.606  40.438  13.037
38314W        W10640  22.528  38.017   0.951
38315W        W10641  17.167   0.491   0.433
38316W        W10642  14.184  13.619   4.658
38317W        W10643  11.743  19.709   3.846
38318W        W10644   7.681  15.125  11.442
38319W        W10645  38.996   6.299  13.377
38320W        W10646  25.994  11.856   4.626
38321W        W10647  11.235  23.217  13.053
38322W        W10648  42.895   7.235  14.962
38323W        W10649   3.380  43.299   0.791
38324W        W10650  37.869  30.101  14.767
38325W        W10651  37.010  40.328   4.324
38326W        W10652  26.027  34.476   3.257
38327W        W10653  35.581  28.147  12.062
38328W        W10654  29.082  20.565  13.012
38329W        W10655   2.939   0.848  13.887
38330W        W10656  11.293  11.691   1.421
38331W        W10657  29.608  27.044  10.630
38332W        W10658  28.557   6.710  10.926
38333W        W10659  37.061  14.712  12.492
38334W        W10660  36.553  15.161   3.666
38335W        W10661  35.412   5.349  13.942
38336W        W10662  32.937  38.046  14.985
38337W        W10663   8.887  37.949  12.960
38338W        W10664  24.531  26.664  10.427
38339W        W10665  13.755  24.188  10.463
38340W        W10666  16.703  24.519   0.439
38341W        W10667   0.395  34.572  14.768
38342W        W10668  21.622  42.844  10.556
38343W        W10669  42.864   1.296   3.681
38344W        W10670  41.814  29.617   4.604
38345W        W10671  39.463  26.507   0.270
38346W        W10672  12.289   2.304   0.757
38347W        W10673  39.504  15.253   4.293
38348W        W10674  17.201  16.619   0.357
38349W        W10675  40.512  33.071  12.068
38350W        W10676  14.270  12.806   2.358
38351W        W10677  20.533  29.141   0.786
38352W        W10678   2.758   2.766  14.002
38353W        W10679  32.024  20.208  11.041
38354W        W10680  27.446  23.564  12.441
38355W        W10681  31.418  20.183  14.834
38356W        W10682  26.186  18.224   2.189
38357W        W10683  12.349  21.607  13.855
38358W        W10684  20.566   9.236   0.879
38359W        W10685  23.196  17.618   4.183
38360W        W10686  34.073   1.415  14.818
38361W        W10687  13.831  25.127  11.550
38362W        W10688   5.825  36.504  13.879
38363W        W10689   0.272   9.172  10.527
38364W        W10690   9.331   7.838  11.974
38365W        W10691  33.532  21.095   3.373
38366W        W10692  24.629   9.379   3.774
38367W        W10693  21.541  28.012   3.745
38368W        W10694  19.651  40.841  12.942
38369W        W10695   9.714  39.975   0.462
38370W        W10696   3.817  15.124   4.680
38371W        W10697  41.375  29.076   1.228
38372W        W10698   4.702  23.012   4.610
38373W        W10699   6.898  35.528  11.375
38374W        W10700   0.272  14.810   4.720
38375W        W10701  40.013  30.093  14.472
38376W        W10702  11.629   1.748   4.153
38377W        W10703  42.298  23.109  14.939
38378W        W10704  11.324  33.006   1.893
38379W        W10705   1.452  18.695   1.348
38380W        W10706   2.881  10.179  10.005
38381W        W10707  39.894  13.221   4.658
38382W        W10708  14.125  36.911   2.674
38383W        W10709  14.661   4.440   4.314
38384W        W10710   0.802  41.379   3.283
38385W        W10711   5.313  41.452  11.412
38386W        W10712  23.987  36.452  11.439
38387W        W10713  22.069   8.810  14.397
38388W        W10714   2.755   3.437   9.484
38389W        W10715  36.577   9.670  11.557
38390W        W10716  38.450  30.566  14.513
38391W        W10717   6.414  42.434   2.349
38392W        W10718  21.243  22.217  12.966
38393W        W10719   7.909  12.131   0.388
38394W        W10720   4.746  11.632   3.754
38395W        W10721  35.587  25.531  12.454
38396W        W10722  31.580  16.670   1.434
38397W        W10723  11.234  16.569  14.845
38398W        W10724  18.209  11.292  10.919
38399W        W10725  42.357  34.877  13.518
38400W        W10726  13.772  20.128   4.805
38401W        W10727  19.739   4.919  13.957
38402W        W10728  40.368  28.144   3.289
38403W        W10729   3.865  42.322   2.330
38404W        W10730  29.670  31.470   1.868
38405W        W10731  25.086  28.058  13.386
38406W        W10732   3.334   4.396   5.659
38407W        W10733   1.436  10.293  11.502
38408W        W10734  24.081  43.284  13.026
38409W        W10735  27.074  35.434  13.901
38410W        W10736  27.496   1.893   1.819
38411W        W10737  15.717  17.137   5.266
38412W        W10738  17.288  15.206   1.294
38413W        W10739  19.175  12.690   2.819
38414W        W10740  34.414   8.274   3.728
38415W        W10741   2.421  25.565   3.840
38416W        W10742   7.693  34.930   4.775
38417W        W10743  44.490  41.033  11.015
38418W        W10744   5.706  42.438   3.202
38419W        W10745   8.289  19.056   4.163
38420W        W10746  17.667  39.884   0.296
38421W        W10747   1.897  30.121  11.049
38422W        W10748  17.126   6.370  13.395
38423W        W10749  35.909  13.843   4.797
38424W        W10750   9.728   6.903  13.537
38425W        W10751  16.715  21.239  14.852
38426W        W10752  35.416  35.361   4.155
38427W        W10753  34.074  31.466   1.768
38428W        W10754   9.224  35.928   1.295
38429W        W10755  14.802  23.133  11.026
38430W        W10756  14.268  16.776  14.336
38431W        W10757  40.953  16.623  12.562
38432W        W10758  13.653   3.313  12.950
38433W        W10759   1.274   9.157   1.884
38434W        W10760  16.693  10.677  10.409
38435W        W10761  13.183  25.600  12.525
38436W        W10762   0.279   9.784   3.375
38437W        W10763  29.080  35.983   2.201
38438W        W10764  42.286   2.760   4.749
38439W        W10765  35.941  31.002   1.433
38440W        W10766   2.253  28.603  10.569
38441W        W10767  26.980  21.563   3.291
38442W        W10768  24.536  25.545   3.734
38443W        W10769  14.139   4.723  12.467
38444W        W10770  25.646  35.464   1.437
38445W        W10771  17.255   0.964  14.992
38446W        W10772   8.667  33.899  10.970
38447W        W10773  14.825   5.727  13.466
38448W        W10774  43.439  40.473  10.972
38449W        W10775  44.950   4.399  11.473
38450W        W10776  19.778  29.131  10.906
38451W        W10777  42.422  36.990  10.645
38452W        W10778   0.966  36.433  14.883
38453W        W10779  27.458  12.740   4.215
38454W        W10780  39.334  16.211  12.035
38455W        W10781  31.048  35.937   3.696
38456W        W10782  17.068  41.362  14.448
38457W        W10783  25.138  13.175   4.288
38458W        W10784   5.411   8.893   1.302
38459W        W10785   0.477  33.926   3.258
38460W        W10786  40.905   4.308  11.966
38461W        W10787  15.628  35.509   2.216
38462W        W10788  42.304  42.388   1.812
38463W        W10789  42.356  28.631  11.515
38464W        W10790  38.988   5.698  10.040
38465W        W10791  22.615  43.438   3.640
38466W        W10792  30.033  33.407  10.142
38467W        W10793   4.243  15.774   0.864
38468W        W10794  24.105  12.126  14.849
38469W        W10795  36.077  11.625   0.312
38470W        W10796  19.635   8.335   0.360
38471W        W10797  12.252  36.005   0.885
38472W        W10798   5.858  29.467   1.874
38473W        W10799   9.698  21.198  14.891
38474W        W10800   4.875  11.712   0.882
38475W        W10801  12.776  22.620  11.012
38476W        W10802  38.565  39.351  11.987
38477W        W10803  16.672  16.242   2.244
38478W        W10804  37.843  11.650   1.769
38479W        W10805   2.285   0.891  14.824
38480W        W10806  32.983  24.195   4.792
38481W        W10807  23.503  25.612   3.290
38482W        W10808  10.747  32.114   0.400
38483W        W10809   2.748  18.692  12.958
38484W        W10810  20.567  10.751  13.510
38485W        W10811  19.043  15.195   3.208
38486W        W10812  44.900  44.873   0.395
38487W        W10813  19.746  17.693   3.281
38488W        W10814  22.084  31.629   1.439
38489W        W10815  33.002  28.568  10.520
38490W        W10816   9.657  31.438  14.873
38491W        W10817  42.361  25.482  12.942
38492W        W10818  37.936   3.313   1.279
38493W        W10819  36.031  30.067  12.520
38494W        W10820  26.598   3.911   2.262
38495W        W10821  10.376  19.597   2.889
38496W        W10822  20.196  43.385   2.879
38497W        W10823  18.726  25.669   1.847
38498W        W10824  12.634  25.202   3.166
38499W        W10825  21.669  14.834  10.510
38500W        W10826  18.186  31.986   4.684
38501W        W10827  41.528  21.591   4.294
38502W        W10828   3.389  36.075  11.409
38503W        W10829   9.778  30.415   4.796
38504W        W10830  14.331   1.309   0.337
38505W        W10831  15.731  32.425  14.024
38506W        W10832   9.853  32.560  12.060
38507W        W10833  18.666  38.961   3.185
38508W        W10834  37.457  25.128   1.754
38509W        W10835   3.296  32.559  12.404
38510W        W10836  35.030  25.196  13.851
38511W        W10837  34.558   8.258  13.986
38512W        W10838  11.188  14.635   3.798
38513W        W10839   0.757  38.331  10.586
38514W        W10840  11.265  36.072   3.197
38515W        W10841  39.947  23.673  12.558
38516W        W10842  35.485  41.314  12.034
38517W        W10843  14.303  28.146  13.015
38518W        W10844  13.692  43.294  11.091
38519W        W10845  33.995  35.445   0.254
38520W        W10846  13.306   8.833  11.095
38521W        W10847   9.250  37.007  13.372
38522W        W10848  27.661  43.384  13.959
38523W        W10849   6.416  31.019   1.695
38524W        W10850  39.391   8.365  10.634
38525W        W10851  32.592  36.870   3.283
38526W        W10852   8.689   7.248   3.772
38527W        W10853   0.853  39.366   0.471
38528W        W10854  17.199  21.549  13.387
38529W        W10855  42.880  33.585   1.342
38530W        W10856  13.112   5.690  10.611
38531W        W10857  11.139   2.235  13.482
38532W        W10858  18.544  23.057   4.181
38533W        W10859  16.669   5.790  11.553
38534W        W10860  10.180  44.437  10.974
38535W        W10861   7.746  24.159   0.739
38536W        W10862   6.896  13.187   4.784
38537W        W10863  12.714   4.705   1.257
38538W        W10864  35.375  24.030  12.400
38539W        W10865   9.287  17.187  14.932
38540W        W10866  22.700  25.071  11.070
38541W        W10867  39.817  25.979  13.374
38542W        W10868  30.426  31.587   4.242
38543W        W10869  21.092  21.698   3.652
38544W        W10870  38.930   7.325   4.741
38545W        W10871   3.722   6.220  11.522
38546W        W10872  34.448  11.217  14.507
38547W        W10873   5.218  14.311   0.898
38548W        W10874  23.617  41.788  13.422
38549W        W10875  27.447  43.432  10.541
38550W        W10876  33.013  32.448   0.767
38551W        W10877  28.652  29.537  12.494
38552W        W10878  35.976  37.533  14.371
38553W        W10879  15.203  21.742  12.415
38554W        W10880  28.024  15.792   4.767
38555W        W10881  15.083   0.257   4.652
38556W        W10882  15.117   0.821  14.296
38557W        W10883  12.329   9.154   2.362
38558W        W10884  27.567   4.403   0.834
38559W        W10885  13.307  33.921  11.391
38560W        W10886  19.655  22.190   0.894
38561W        W10887  32.076   5.724  11.061
38562W        W10888   3.785  24.092   5.320
38563W        W10889  11.645  28.441  14.987
38564W        W10890  39.903  24.997   0.482
38565W        W10891  34.543  21.611  13.371
38566W        W10892  27.960  22.678  14.369
38567W        W10893  29.620  41.799  11.540
38568W        W10894   9.736   1.340  13.979
38569W        W10895  44.424  38.054  13.035
38570W        W10896   9.221   1.275  13.462
38571W        W10897  34.949  42.374  12.841
38572W        W10898  34.535   2.844   4.170
38573W        W10899  40.515  43.421   1.719
38574W        W10900  43.402  33.545  10.420
38575W        W10901  27.650   0.454  14.809
38576W        W10902  26.970  19.776   3.324
38577W        W10903  17.257  27.668   1.850
38578W        W10904  24.517  32.067  11.070
38579W        W10905  24.075  19.733   5.121
38580W        W10906  25.559  31.059   4.342
38581W        W10907  14.774  44.815   0.458
38582W        W10908   9.228  11.345   4.779
38583W        W10909  32.394  27.465   0.901
38584W        W10910   1.913  36.085   4.785
38585W        W10911  35.875  12.313  14.828
38586W        W10912   9.661  25.689   4.267
38587W        W10913  43.338  23.591   3.328
38588W        W10914  38.990   1.872   1.234
38589W        W10915  30.477   8.859   2.769
38590W        W10916  19.253  43.862   0.475
38591W        W10917  31.995  13.310  14.474
38592W        W10918  34.371  19.209   2.786
38593W        W10919   5.292  43.797  12.956
38594W        W10920  36.437  13.177  12.357
38595W        W10921   3.456  40.910  11.440
38596W        W10922  31.427   1.797   4.230
38597W        W10923   0.784  35.447   1.696
38598W        W10924  34.378  13.609   1.218
38599W        W10925   7.798  24.606   2.215
38600W        W10926  41.926  14.316   0.847
38601W        W10927  42.864  11.357  13.404
38602W        W10928   9.189  20.641   0.768
38603W        W10929  32.606  39.821   1.752
38604W        W10930   4.839  42.405   1.917
38605W        W10931  22.998   8.793  13.906
38606W        W10932  26.652   9.363  11.949
38607W        W10933  19.188  18.686   4.190
38608W        W10934  42.390   5.734  11.110
38609W        W10935  29.919  32.021   3.863
38610W        W10936  42.424  15.641   0.732
38611W        W10937  11.295   4.345   3.827
38612W        W10938  18.659  29.084  11.092
38613W        W10939  16.700   2.422  13.047
38614W        W10940   4.792  35.907   0.841
38615W        W10941  32.995  10.173  12.457
38616W        W10942  28.667  37.391   2.831
38617W        W10943  42.442   5.700  11.529
38618W        W10944  24.022   2.926   4.665
38619W        W10945   4.872   0.746   2.401
38620W        W10946  36.894  33.989   0.326
38621W        W10947  33.385  20.676   3.854
38622W        W10948  30.467  10.167   2.345
38623W        W10949  31.483  11.142  11.876
38624W        W10950   1.918  14.711  14.404
38625W        W10951   7.774  30.050  12.035
38626W        W10952  43.431  41.016   3.232
38627W        W10953  21.531  22.598   2.842
38628W        W10954  34.070  39.028  11.057
38629W        W10955  30.113  20.168   3.730
38630W        W10956  16.141  41.394  12.065
38631W        W10957  44.003  12.829   4.778
38632W        W10958  37.410   9.769  10.442
38633W        W10959  40.932  25.189  12.356
38634W        W10960   7.384  26.641  14.418
38635W        W10961   4.806  27.588   4.284
38636W        W10962  42.387  25.052   4.637
38637W        W10963  24.510   5.906  14.789
38638W        W10964  13.751  12.258   1.405
38639W        W10965  16.592  38.488  13.502
38640W        W10966   0.274  24.686  14.811
38641W        W10967  17.228   5.222  13.458
38642W        W10968  24.595   9.727  12.940
38643W        W10969   6.838   1.385  10.922
38644W        W10970  15.705  15.727  12.836
38645W        W10971  14.255  35.926   2.364
38646W        W10972  28.080   3.381   2.315
38647W        W10973  16.224   5.290  12.502
38648W        W10974  39.340   1.928   4.196
38649W        W10975  11.808  24.687   2.246
38650W        W10976  20.194  28.535  11.498
38651W        W10977  35.029  33.537   2.667
38652W        W10978  13.655  12.159   4.791
38653W        W10979  14.189   0.275   2.365
38654W        W10980  28.988   7.301  10.635
38655W        W10981  28.081  14.232   0.858
38656W        W10982  12.174  31.557   4.744
38657W        W10983  35.065  16.674  10.053
38658W        W10984  41.494  36.954  14.389
38659W        W10985  41.319  35.860  13.360
38660W        W10986  24.717  22.562  13.452
38661W        W10987   4.894   7.864   1.265
38662W        W10988  26.659  26.103   1.877
38663W        W10989  17.107  24.576  13.533
38664W        W10990   6.842  30.012   4.326
38665W        W10991  13.325  42.983  12.034
38666W        W10992  22.063  39.844   2.250
38667W        W10993  41.974  43.383  11.982
38668W        W10994  29.159  17.729   4.632
38669W        W10995  32.445  29.568  12.430
38670W        W10996  35.934  39.818  12.528
38671W        W10997  23.618  37.379   4.230
38672W        W10998  16.144  21.706   3.755
38673W        W10999  35.592  17.083  10.568
38674W        W11000  20.561  43.992  12.089
38675W        W11001   1.397  33.031  13.913
38676W        W11002  19.169  30.162   1.310
38677W        W11003   4.282  16.122  12.412
38678W        W11004  12.792  32.984   2.858
38679W        W11005  38.031  28.037   2.691
38680W        W11006  36.355   4.312   0.863
38681W        W11007  16.134  10.767   0.914
38682W        W11008  33.432  31.104   2.739
38683W        W11009  17.774  30.658  14.331
38684W        W11010  22.192  28.018  14.321
38685W        W11011  29.581  16.569   4.144
38686W        W11012   1.819  12.856   4.629
38687W        W11013  24.052  14.173  13.501
38688W        W11014  24.174  41.906   4.266
38689W        W11015  28.599  43.368   2.350
38690W        W11016  35.875  19.286   3.206
38691W        W11017  22.711  22.056  14.786
38692W        W11018  11.257  39.956  13.388
38693W        W11019  12.657  19.044   1.901
38694W        W11020  35.045  38.512   1.907
38695W        W11021  39.040  19.168  10.481
38696W        W11022   5.850   1.731  12.536
38697W        W11023  37.925  41.386  13.812
38698W        W11024  34.488  43.974  11.968
38699W        W11025  16.095   7.840   0.320
38700W        W11026  14.184  24.611   1.251
38701W        W11027  31.951  28.495  12.851
38702W        W11028  28.501  27.449   3.210
38703W        W11029   2.826   9.709  13.515
38704W        W11030  34.052   8.805   3.682
38705W        W11031  10.844  24.192  12.083
38706W        W11032  33.595  41.933   0.322
38707W        W11033  12.249  24.695  12.400
38708W        W11034   6.729  40.967  11.435
38709W        W11035  39.018  24.143   4.703
38710W        W11036   5.715   6.389   1.348
38711W        W11037  22.185  40.962  11.383
38712W        W11038   2.743   6.276  12.368
38713W        W11039   5.338  41.381   0.337
38714W        W11040  43.473  29.055   2.893
38715W        W11041  30.962  19.709  14.333
38716W        W11042  25.186  22.555   0.762
38717W        W11043  30.516  32.083   0.439
38718W        W11044  16.195  25.544   4.675
38719W        W11045  43.289  20.071   4.814
38720W        W11046  25.608  36.005   5.135
38721W        W11047  20.037  21.062   3.319
38722W        W11048   0.439  24.044  14.791
38723W        W11049  26.500  16.718   0.331
38724W        W11050   6.340  11.725   4.158
38725W        W11051   4.323  10.748   3.306
38726W        W11052   7.174   6.406   3.676
38727W        W11053  33.014  44.855  11.858
38728W        W11054   0.823  13.224  13.396
38729W        W11055  38.478  17.751  14.776
38730W        W11056   0.460  28.051  11.856
38731W        W11057   4.746  37.466   1.304
38732W        W11058  17.160  21.169  12.051
38733W        W11059  19.704  39.036   5.248
38734W        W11060  19.685  30.106  11.005
38735W        W11061  24.225  42.877   9.950
38736W        W11062  40.472  42.296   3.699
38737W        W11063  34.065   7.282  13.483
38738W        W11064  10.699  23.678   3.282
38739W        W11065   5.923  38.394   2.769
38740W        W11066  36.025  29.532   3.737
38741W        W11067  20.678  31.517  13.003
38742W        W11068  32.058  42.400  10.478
38743W        W11069  34.542   2.311   1.435
38744W        W11070  41.801  29.006  12.533
38745W        W11071  40.461  34.121   1.803
38746W        W11072   1.904  40.542   3.233
38747W        W11073  25.548   6.740   2.296
38748W        W11074  24.995  38.335   3.806
38749W        W11075  21.179   0.796  11.419
38750W        W11076  30.102   6.297  10.430
38751W        W11077  14.095  22.610   5.104
38752W        W11078  26.600  24.230   4.620
38753W        W11079  10.240   0.768  14.950
38754W        W11080   6.791  20.085  14.477
38755W        W11081  44.933   0.414  13.448
38756W        W11082   0.775  33.614  10.047
38757W        W11083   7.246   3.882   1.446
38758W        W11084  33.947  15.779  10.915
38759W        W11085  42.483  43.410   0.449
38760W        W11086  21.617  29.002  13.370
38761W        W11087  28.588  31.440   0.872
38762W        W11088  15.611   0.967  10.496
38763W        W11089   9.337  27.170  12.853
38764W        W11090  27.598   4.367   2.289
38765W        W11091  29.514  21.241  14.445
38766W        W11092  15.084  21.578   0.250
38767W        W11093   7.203  34.006   3.378
38768W        W11094   6.772   2.348   4.225
38769W        W11095  13.824  41.891  10.582
38770W        W11096  12.620  24.717  11.460
38771W        W11097  30.128   1.310  14.835
38772W        W11098  25.985  14.199   4.663
38773W        W11099  18.610   4.384  12.975
38774W        W11100  36.098  21.600  12.943
38775W        W11101  27.159  26.530   1.787
38776W        W11102  44.803   7.849   0.474
38777W        W11103  27.681  31.566  14.410
38778W        W11104  28.533  19.704  10.536
38779W        W11105  27.612  23.637  13.529
38780W        W11106  20.682  33.891  10.964
38781W        W11107  11.244  16.796   1.700
38782W        W11108  15.197  39.950  12.359
38783W        W11109  32.551  43.008  12.899
38784W        W11110  33.616  21.198  14.949
38785W        W11111   6.861   8.851  14.396
38786W        W11112  25.519  14.664   0.451
38787W        W11113  28.525  42.981  14.388
38788W        W11114  38.480  28.446  11.868
38789W        W11115  18.610  18.136   2.383
38790W        W11116  18.713   0.954  13.498
38791W        W11117  22.701  21.148  11.964
38792W        W11118   0.952  10.250  12.087
38793W        W11119  38.059  33.516  13.792
38794W        W11120   3.311  32.954   3.174
38795W        W11121  42.465  25.019  14.498
38796W        W11122  14.268  21.641   3.718
38797W        W11123  39.431   8.182   0.457
38798W        W11124  22.603  38.426   4.349
38799W        W11125   2.262  37.564   3.168
38800W        W11126  11.230  31.952   3.734
38801W        W11127   0.348  43.814   4.737
38802W        W11128   9.757  25.968  12.840
38803W        W11129   7.780  14.736   0.414
38804W        W11130  39.492   9.767  11.092
38805W        W11131  39.808  14.269   2.347
38806W        W11132  35.366  24.593  11.053
38807W        W11133  24.004  34.044   0.283
38808W        W11134  12.634   3.446   1.694
38809W        W11135  20.617   5.197   3.839
38810W        W11136   7.225   0.289  11.488
38811W        W11137  26.461  42.902  11.608
38812W        W11138  11.198  38.540  12.006
38813W        W11139  25.476  40.921  12.834
38814W        W11140  21.590   3.390  14.886
38815W        W11141  35.551  22.181  13.838
38816W        W11142   7.859  28.515   4.229
38817W        W11143  42.001   0.919   2.693
38818W        W11144  12.847   5.921  12.961
38819W        W11145  25.638   4.721   1.859
38820W        W11146  10.362  41.324   2.780
38821W        W11147  43.451  23.640   4.209
38822W        W11148  11.726   6.213   3.674
38823W        W11149  36.358  28.159  12.490
38824W        W11150   1.808   4.793   1.854
38825W        W11151  15.716  24.714   0.927
38826W        W11152  16.662   0.367   0.456
38827W        W11153  30.493  40.543  11.411
38828W        W11154  13.650  15.775   4.687
38829W        W11155  34.945  43.456  11.937
38830W        W11156  29.626  12.314   0.264
38831W        W11157  23.211  39.995   0.338
38832W        W11158  41.452  14.209   0.252
38833W        W11159  25.154   3.330  14.408
38834W        W11160  14.710   8.273  10.908
38835W        W11161   8.369   8.778   0.782
38836W        W11162   5.342  28.526   4.176
38837W        W11163  28.105  33.015  13.798
38838W        W11164   6.216   6.727  13.460
38839W        W11165  16.122  26.632   0.478
38840W        W11166   2.233   9.349   2.230
38841W        W11167  33.539   5.841   0.735
38842W        W11168  39.859  39.858   2.743
38843W        W11169  20.069  27.609   2.399
38844W        W11170  21.574   0.315   3.363
38845W        W11171   6.694  21.125   3.356
38846W        W11172   7.262  34.059  10.468
38847W        W11173  32.049  42.826   3.844
38848W        W11174  13.719  36.011   5.566
38849W        W11175  43.807  44.859  11.023
38850W        W11176  32.596  30.038  12.344
38851W        W11177  44.840  13.655  10.477
38852W        W11178  14.146   9.712   4.792
38853W        W11179   1.446  16.773   1.388
38854W        W11180  39.425  44.976  12.536
38855W        W11181  16.129  25.114   1.356
38856W        W11182  12.819  34.470  14.937
38857W        W11183  10.224  24.606  11.488
38858W        W11184  32.533  19.592   1.415
38859W        W11185   4.414   4.825  12.021
38860W        W11186  19.682  12.709   2.727
38861W        W11187   1.444  16.771   0.798
38862W        W11188  23.239   0.837   4.655
38863W        W11189  27.685  37.426  12.489
38864W        W11190  20.726  27.477  11.465
38865W        W11191   1.817  35.900  13.937
38866W        W11192   5.830  28.479  14.424
38867W        W11193   7.778  28.015   1.295
38868W        W11194  39.422  40.353  11.413
38869W        W11195  17.125  29.559   5.116
38870W        W11196  18.217  26.160  12.990
38871W        W11197   1.332  31.027   3.384
38872W        W11198  17.189  30.080  14.780
38873W        W11199   9.245  29.097  12.390
38874W        W11200  23.549  18.749  14.856
38875W        W11201  39.931  31.615   0.331
38876W        W11202  21.547  39.377   2.730
38877W        W11203  32.930   3.757   1.285
38878W        W11204  18.282  25.509   3.294
38879W        W11205   2.463  26.555   4.656
38880W        W11206  19.123  28.966  14.844
38881W        W11207   8.242   5.286  11.950
38882W        W11208   5.747  23.221  13.504
38883W        W11209  41.914  28.089  12.852
38884W        W11210  38.559   0.957  12.411
38885W        W11211  41.530   8.690   3.159
38886W        W11212  43.515  32.591   2.831
38887W        W11213  28.566   5.430   1.887
38888W        W11214  25.521  24.996   1.903
38889W        W11215  14.340  35.553   2.257
38890W        W11216  36.006   7.200   3.220
38891W        W11217   4.877  32.135  13.933
38892W        W11218   8.178  38.570  14.375
38893W        W11219  29.478  28.138   1.384
38894W        W11220  27.674   7.892   2.254
38895W        W11221  19.091   7.766   1.701
38896W        W11222  27.523  28.027  10.414
38897W        W11223  27.177   6.381   3.652
38898W        W11224  39.411   1.821  11.461
38899W        W11225   0.467  27.619  11.059
38900W        W11226   6.810  37.550   4.279
38901W        W11227   3.271  35.054  10.543
38902W        W11228  11.269   8.759  10.598
38903W        W11229   1.254  32.073  13.309
38904W        W11230  25.615  41.483  12.554
38905W        W11231   9.887   0.430  14.335
38906W        W11232  34.936   7.751   1.229
38907W        W11233  17.274  36.368   0.394
38908W        W11234  13.682  11.225   2.878
38909W        W11235  10.141  36.991   2.758
38910W        W11236  30.926  37.896   4.351
38911W        W11237  44.931  14.317   1.358
38912W        W11238   8.191  42.893   1.712
38913W        W11239  19.767  37.393   4.684
38914W        W11240  32.912  22.634   3.654
38915W        W11241  15.666  14.288  13.433
38916W        W11242  18.691  30.472  13.356
38917W        W11243  13.832  34.478   1.288
38918W        W11244  18.773   8.890   3.226
38919W        W11245  37.878  29.146  14.026
38920W        W11246  23.609  28.140  12.533
38921W        W11247   2.892  42.854   1.421
38922W        W11248   2.860  21.046   5.100
38923W        W11249  43.764   0.745   2.668
38924W        W11250  31.421   5.740  10.980
38925W        W11251  20.037  41.489   4.826
38926W        W11252  35.045  42.322   0.457
38927W        W11253   9.297  34.994  13.047
38928W        W11254  41.884  18.711   3.173
38929W        W11255  33.400  44.788   1.393
38930W        W11256  44.975   3.806  14.913
38931W        W11257   0.869  33.598   2.784
38932W        W11258  35.981  36.532   4.236
38933W        W11259  11.259  25.600  12.544
38934W        W11260   3.808  31.133   2.780
38935W        W11261  30.054  34.480  13.394
38936W        W11262  11.641  15.798   4.727
38937W        W11263  24.044  27.160   2.220
38938W        W11264   5.761  14.712   1.295
38939W        W11265  26.974  41.980   1.449
38940W        W11266  18.124  30.940   3.321
38941W        W11267   3.950   9.767   5.744
38942W        W11268  30.546  21.184  11.886
38943W        W11269  14.809  43.420  12.528
38944W        W11270  39.334   2.423  10.434
38945W        W11271  19.707  42.015   0.275
38946W        W11272  42.524   5.400  11.105
38947W        W11273  29.087   3.944  10.613
38948W        W11274  42.864  29.077   3.700
38949W        W11275  44.758  29.027  12.084
38950W        W11276  37.887  33.076  13.859
38951W        W11277  39.551  30.647  11.027
38952W        W11278  14.135  44.857  14.281
38953W        W11279  36.931  36.542   2.809
38954W        W11280  12.628  32.095   3.792
38955W        W11281  40.441  10.294   2.304
38956W        W11282  37.977  12.192   0.432
38957W        W11283   2.458  37.359   4.716
38958W        W11284  35.085   0.438  12.347
38959W        W11285  28.562   5.859   2.754
38960W        W11286  39.402   3.885   4.681
38961W        W11287  15.201  35.036   9.974
38962W        W11288  31.143  24.140  12.985
38963W        W11289  17.282  32.508   0.752
38964W        W11290   2.770  20.665   3.248
38965W        W11291   3.851  12.687  10.523
38966W        W11292  31.647  35.093   0.742
38967W        W11293  17.601   6.738   2.386
38968W        W11294   0.802  16.254   0.832
38969W        W11295   1.731   8.794   4.202
38970W        W11296  37.996  28.029  12.578
38971W        W11297   0.965   0.768   0.445
38972W        W11298  41.934  36.967  12.940
38973W        W11299  40.904   4.749   0.921
38974W        W11300   9.189  15.713   4.602
38975W        W11301   3.942  12.763   3.305
38976W        W11302  23.676  13.802   1.785
38977W        W11303   4.237   4.252   2.328
38978W        W11304   8.285  18.289  11.004
38979W        W11305  23.592  25.014   1.759
38980W        W11306  21.629  23.551   3.171
38981W        W11307  11.847  42.874  11.860
38982W        W11308  30.536  26.605  13.358
38983W        W11309  27.104   4.793   3.786
38984W        W11310  13.619   9.870  11.017
38985W        W11311  42.511  41.932  11.953
38986W        W11312  20.732  34.963   1.285
38987W        W11313  16.079   8.795  10.406
38988W        W11314  27.623  15.751  10.465
38989W        W11315  34.548   9.758   3.299
38990W        W11316  18.209  29.443  11.059
38991W        W11317  23.098  38.861   4.634
38992W        W11318  41.789  42.853  13.925
38993W        W11319  21.559  18.098  10.128
38994W        W11320  44.403  35.493  14.019
38995W        W11321   1.280   1.452  14.762
38996W        W11322  29.926  30.952   4.766
38997W        W11323  22.666  38.534   4.815
38998W        W11324  25.102   1.348   0.895
38999W        W11325  26.470  39.514  12.533
39000W        W11326  32.589  14.338   3.780
39001W        W11327  13.273  18.071  11.074
39002W        W11328  21.173  38.473   1.935
39003W        W11329  11.331  23.140  13.990
39004W        W11330  36.055   1.910  12.879
39005W        W11331   3.310  39.396   0.835
39006W        W11332   6.714  32.902   2.734
39007W        W11333  44.405  32.936   2.367
39008W        W11334  39.494  42.283  14.008
39009W        W11335  18.292  10.799   4.220
39010W        W11336   4.753  29.642  14.431
39011W        W11337  29.068  36.035   2.691
39012W        W11338   7.699  20.573   1.742
39013W        W11339   1.404  44.954  11.089
39014W        W11340  21.735  19.273   0.762
39015W        W11341  33.928  34.453  14.771
39016W        W11342  30.575  43.021   3.642
39017W        W11343  13.216  43.814  12.001
39018W        W11344  30.088  29.016   4.793
39019W        W11345  22.252  35.077   4.813
39020W        W11346  35.103  11.272   0.294
39021W        W11347  34.922  33.534  11.958
39022W        W11348  41.374  17.116   4.695
39023W        W11349  33.118  26.180   0.362
39024W        W11350  32.562  30.531  12.842
39025W        W11351   4.298  19.256   1.703
39026W        W11352   2.293  29.495   4.757
39027W        W11353  10.230  36.373  13.479
39028W        W11354  39.392   0.492  12.400
39029W        W11355  40.468  31.433  13.386
39030W        W11356   9.813  31.036  12.452
39031W        W11357  24.499  24.001  12.349
39032W        W11358   2.285  19.574  10.625
39033W        W11359  28.601  29.579  14.813
39034W        W11360  40.316  36.911   1.290
39035W        W11361  21.170  25.488  14.029
39036W        W11362  37.938  18.266  10.624
39037W        W11363   7.785  10.694  13.992
39038W        W11364  18.172  25.204   0.463
39039W        W11365  13.663   3.219   4.769
39040W        W11366   5.348  25.050   5.249
39041W        W11367   8.280  41.867  14.997
39042W        W11368  22.196   6.696   4.761
39043W        W11369   0.274   9.159   3.163
39044W        W11370  31.961  28.650   2.199
39045W        W11371  18.243   8.253   0.274
39046W        W11372  44.444  16.627   4.198
39047W        W11373  27.048  13.702   0.829
39048W        W11374  27.110  19.768   2.363
39049W        W11375  13.134  42.022   3.635
39050W        W11376  41.434  32.420  12.456
39051W        W11377   3.893  26.087  12.534
39052W        W11378  43.997  42.898   1.775
39053W        W11379  15.275   5.229   4.682
39054W        W11380  36.011  19.140   2.298
39055W        W11381  33.021  16.212  10.936
39056W        W11382  25.007  32.044  12.544
39057W        W11383  31.131  34.891  14.325
39058W        W11384   0.302   2.450   2.679
39059W        W11385  40.435  24.565   0.742
39060W        W11386   0.897  39.028  11.439
39061W        W11387   7.264   2.770   2.312
39062W        W11388   3.283  29.041   1.925
39063W        W11389  19.080   9.785  14.410
39064W        W11390   0.799  14.598  13.974
39065W        W11391  21.224  27.039   0.949
39066W        W11392  32.979   1.474  13.888
39067W        W11393  23.176  18.203   3.245
39068W        W11394   1.458   4.279   0.812
39069W        W11395  37.054   5.800   1.409
39070W        W11396  38.496  38.343   3.155
39071W        W11397  29.980   0.307  12.528
39072W        W11398  41.011  34.476   4.312
39073W        W11399  29.171  30.953   4.693
39074W        W11400   8.765  27.972   0.386
39075W        W11401   3.370  29.133  11.045
39076W        W11402   3.445   4.342  11.975
39077W        W11403  22.102  20.209   2.305
39078W        W11404  11.327  24.696  14.475
39079W        W11405  43.294  14.643   4.131
39080W        W11406   9.201   8.837   1.801
39081W        W11407   3.435   4.908  11.455
39082W        W11408  28.576  29.435   0.901
39083W        W11409  33.448   5.785   2.334
39084W        W11410  39.040  29.161  10.427
39085W        W11411  31.140  36.092   1.382
39086W        W11412  32.030   4.916   4.777
39087W        W11413  35.512  36.964   1.731
39088W        W11414  26.695  40.939  10.481
39089W        W11415   9.264  13.767   0.245
39090W        W11416  33.940  18.558  14.826
39091W        W11417  32.588  42.290   2.813
39092W        W11418  22.025  11.645   1.290
39093W        W11419  36.523  13.651  10.437
39094W        W11420  36.537   0.482   2.262
39095W        W11421  38.357  21.750   2.827
39096W        W11422  28.953  30.990   3.164
39097W        W11423  38.891  36.886   5.168
39098W        W11424  23.633  35.545   0.745
39099W        W11425  23.188  29.474  13.381
39100W        W11426   2.403  13.128  12.925
39101W        W11427  39.493  29.529  11.006
39102W        W11428   7.814  25.592   1.249
39103W        W11429  30.031  12.192   2.814
39104W        W11430  32.890  27.185  10.486
39105W        W11431  18.667  39.552  14.922
39106W        W11432  41.313  42.424  12.976
39107W        W11433  14.146  25.991  14.906
39108W        W11434  27.197  42.387  10.468
39109W        W11435  40.530  40.857  10.562
39110W        W11436  19.760  40.041  13.505
39111W        W11437  23.623  39.938   3.679
39112W        W11438  30.932   0.934  10.982
39113W        W11439   3.242   3.376  12.983
39114W        W11440  25.180  22.671  12.339
39115W        W11441  12.133  39.834  14.280
39116W        W11442  24.702  33.921   0.246
39117W        W11443  18.682  25.043  12.369
39118W        W11444  25.065  41.842  13.530
39119W        W11445  39.845  26.549  14.333
39120W        W11446  35.011  14.145  14.025
39121W        W11447  21.228  20.702   3.791
39122W        W11448  21.670  26.147  10.620
39123W        W11449   4.775  40.444  14.414
39124W        W11450  44.485   7.858  12.351
39125W        W11451  17.203  28.114   4.754
39126W        W11452  35.461   3.866  13.862
39127W        W11453  23.104  13.671   1.864
39128W        W11454  21.683  30.919   1.705
39129W        W11455   4.928  39.862   3.280
39130W        W11456  14.745  14.756  14.402
39131W        W11457  11.819  15.691  14.475
39132W        W11458   6.852  35.998  14.428
39133W        W11459  12.807   3.260   4.636
39134W        W11460  10.219  18.089  13.982
39135W        W11461  10.281  32.536  13.914
39136W        W11462  38.883  44.818  14.496
39137W        W11463   8.660  28.983   1.876
39138W        W11464  28.187  34.119   2.217
39139W        W11465  25.962  15.679  14.351
39140W        W11466   3.312  38.888   2.378
39141W        W11467   0.287  29.110   3.343
39142W        W11468  19.207  36.362  11.888
39143W        W11469  24.504  33.099   4.284
39144W        W11470   5.847   3.260   2.830
39145W        W11471  23.085  36.066   4.223
39146W        W11472  11.130  40.817  12.067
39147W        W11473   2.398  17.188   4.687
39148W        W11474  29.540  29.500   0.942
39149W        W11475  28.146  26.552   1.931
39150W        W11476  16.295  32.617  13.487
39151W        W11477  25.970  40.830  14.460
39152W        W11478  36.357  24.151   1.842
39153W        W11479  16.678  38.022   2.894
39154W        W11480   3.746  38.519   0.818
39155W        W11481  10.863  34.379   4.281
39156W        W11482  39.946  18.178   0.246
39157W        W11483  16.219  43.899   3.844
39158W        W11484  39.985   3.275  13.021
39159W        W11485  21.535   0.352  13.350
39160W        W11486  42.346  20.743   1.311
39161W        W11487  14.320  38.411  10.971
39162W        W11488  38.873  24.658   0.467
39163W        W11489  28.528  12.332   1.354
39164W        W11490   0.444   4.411  12.387
39165W        W11491  30.540  23.239   4.284
39166W        W11492  26.095  21.046   2.750
39167W        W11493  14.589  36.393   0.812
39168W        W11494  25.681  38.831   5.197
39169W        W11495  41.359  12.779   1.728
39170W        W11496  43.873  24.693  13.844
39171W        W11497  29.970   8.842   4.349
39172W        W11498  44.910  18.102  10.577
39173W        W11499  13.838  35.947  13.878
39174W        W11500  33.603   5.697  12.091
39175W        W11501  25.639  26.525  12.952
39176W        W11502   7.216  29.659  10.948
39177W        W11503   4.707  32.530  10.513
39178W        W11504  35.487  15.086   3.301
39179W        W11505  33.003  26.622  14.983
39180W        W11506  11.712   3.444   9.987
39181W        W11507   1.372   2.909  11.055
39182W        W11508  11.691   8.751  14.853
39183W        W11509  10.302  37.892  14.898
39184W        W11510  23.630  29.631  12.928
39185W        W11511   4.403  14.309  13.411
39186W        W11512  19.260  13.272   3.330
39187W        W11513  34.522  22.998   0.915
39188W        W11514  38.895  15.715  12.078
39189W        W11515  32.435   8.803  11.973
39190W        W11516  34.542   0.367  10.919
39191W        W11517   8.300   7.857  11.480
39192W        W11518  26.195  14.265  10.633
39193W        W11519  32.947  37.400  13.402
39194W        W11520  38.514  36.052  12.450
39195W        W11521  20.127   4.380   1.365
39196W        W11522  28.965  37.401  14.985
39197W        W11523  18.687   9.319   1.915
39198W        W11524   3.457   3.823   0.835
39199W        W11525  19.681  21.153  14.356
39200W        W11526  19.135  44.828  13.825
39201W        W11527  14.769  14.744  11.030
39202W        W11528   8.397  11.735  14.322
39203W        W11529  25.199  44.338  13.884
39204W        W11530  39.488  28.461   4.633
39205W        W11531  29.487  22.202  13.014
39206W        W11532  25.694  40.898   3.862
39207W        W11533  34.537  35.474  10.549
39208W        W11534   3.763  23.024   0.323
39209W        W11535   0.469  18.272  13.348
39210W        W11536  36.382  19.767   5.114
39211W        W11537  31.437  26.503  12.864
39212W        W11538  40.334  24.090  12.460
39213W        W11539   6.767   1.841   2.326
39214W        W11540  23.652  12.755   3.271
39215W        W11541  22.721  28.007   3.213
39216W        W11542  29.077  41.482  14.000
39217W        W11543  40.030   5.286   3.773
39218W        W11544  13.601  14.653  14.308
39219W        W11545  43.973  43.794   3.731
39220W        W11546   7.188  34.034   1.230
39221W        W11547  42.433   2.341   4.235
39222W        W11548  18.229  39.318   2.387
39223W        W11549  40.382   0.916   2.736
39224W        W11550  34.551   9.235  13.032
39225W        W11551  37.517   0.939   0.943
39226W        W11552  26.159  20.250   1.423
39227W        W11553  17.137  35.943  11.977
39228W        W11554  21.222  18.123   4.247
39229W        W11555  24.494  25.209  11.003
39230W        W11556  29.475   8.235  14.891
39231W        W11557  13.307  24.687  11.979
39232W        W11558   2.247  25.970   4.758
39233W        W11559  35.420   7.306  11.467
39234W        W11560   7.745  20.199  14.999
39235W        W11561  43.325  37.067  13.047
39236W        W11562  28.036  23.510   1.405
39237W        W11563  13.244  25.195  14.348
39238W        W11564  30.929  36.851   3.677
39239W        W11565  19.612  35.568  11.856
39240W        W11566   4.828  43.278   4.659
39241W        W11567  13.764  37.518  14.297
39242W        W11568   5.839   5.853  14.954
39243W        W11569  30.146  10.667  12.340
39244W        W11570   2.303  44.930  11.925
39245W        W11571   6.792   1.334   1.812
39246W        W11572  44.388  36.566  13.405
39247W        W11573  41.909  36.927  11.540
39248W        W11574  42.507  13.318  12.855
39249W        W11575   1.930  22.124  11.984
39250W        W11576   9.314  13.644  14.492
39251W        W11577  35.914   8.230  13.846
39252W        W11578  35.989  10.238   0.854
39253W        W11579  22.113  24.710   1.346
39254W        W11580  39.943  12.839   3.779
39255W        W11581  40.002  28.945   1.841
39256W        W11582  20.058  40.815  11.079
39257W        W11583   1.243   2.846   0.841
39258W        W11584  40.391  29.516  12.527
39259W        W11585   3.413  21.122   2.294
39260W        W11586  37.389  15.674   2.357
39261W        W11587  28.666  35.879  11.122
39262W        W11588  25.491   4.722   3.227
39263W        W11589  15.599  16.790   1.835
39264W        W11590  20.082  25.700   2.227
39265W        W11591  39.898   7.714  10.967
39266W        W11592  29.133  18.578   1.275
39267W        W11593  38.465   0.955   2.850
39268W        W11594  24.103  31.998   3.162
39269W        W11595  33.991  22.231   3.839
39270W        W11596   7.314  32.058  13.818
39271W        W11597  32.102  11.649   0.328
39272W        W11598   7.792  28.617  14.484
39273W        W11599  31.944  23.189  13.404
39274W        W11600  43.840  12.617   3.261
39275W        W11601  27.995  16.778  14.462
39276W        W11602  23.137  28.636  14.419
39277W        W11603  11.199  17.246   4.250
39278W        W11604  21.698  16.705  12.045
39279W        W11605  20.612  22.220   3.786
39280W        W11606  22.615  19.598  13.442
39281W        W11607  28.111  21.043  12.051
39282W        W11608  43.980  31.960  11.078
39283W        W11609  30.508   4.247  11.934
39284W        W11610   8.665  32.975   1.291
39285W        W11611  36.535  33.525  11.087
39286W        W11612  16.736  36.404   0.845
39287W        W11613  29.547   9.842   4.708
39288W        W11614  23.091  43.788   4.340
39289W        W11615  30.049  19.208   4.781
39290W        W11616  17.797   8.295  10.902
39291W        W11617  32.997  23.044   0.819
39292W        W11618  42.468   0.328   2.185
39293W        W11619  31.069   9.198   2.358
39294W        W11620  27.463  25.026  12.877
39295W        W11621  43.375  30.589   1.886
39296W        W11622   7.234  13.621  11.375
39297W        W11623  14.780  34.931   3.745
39298W        W11624  19.659   1.907  13.018
39299W        W11625  42.992   1.305  14.427
39300W        W11626  35.569   3.284  10.139
39301W        W11627   1.296  20.672  13.882
39302W        W11628  42.359  29.006  10.913
39303W        W11629  20.052  34.390   0.929
39304W        W11630  33.126  38.856   0.410
39305W        W11631  23.531  15.312   3.834
39306W        W11632  28.604  36.471   1.282
39307W        W11633  10.811   7.751  12.020
39308W        W11634  41.828  37.882   1.447
39309W        W11635  36.957  41.007  14.795
39310W        W11636  34.964   3.842  14.362
39311W        W11637  20.661  17.127  14.454
39312W        W11638  36.540  25.649  14.369
39313W        W11639  19.779  33.444   1.923
39314W        W11640   5.862   4.303   0.341
39315W        W11641  34.020   6.801  11.972
39316W        W11642  18.175  43.473  11.978
39317W        W11643  16.260  44.416   2.872
39318W        W11644  10.154  33.542  12.010
39319W        W11645   6.682  16.264   3.357
39320W        W11646  38.436  40.305   1.718
39321W        W11647  28.681   3.226  10.960
39322W        W11648  37.986  26.587   3.300
39323W        W11649  26.495   7.262   4.273
39324W        W11650  13.767   2.279   1.879
39325W        W11651  15.584  20.090  11.582
39326W        W11652  33.617   2.944  11.570
39327W        W11653  36.507  20.560   4.189
39328W        W11654  36.411  28.655  11.079
39329W        W11655   1.742  16.670   1.748
39330W        W11656  19.088  14.300  13.364
39331W        W11657  28.535  35.457   3.870
39332W        W11658  14.728  17.129  11.424
39333W        W11659  36.856  33.623   2.416
39334W        W11660  12.831   5.414   1.889
39335W        W11661  32.460   4.849  12.384
39336W        W11662   4.801   0.988   0.816
39337W        W11663  15.675  42.313  14.768
39338W        W11664  24.216  36.967  14.436
39339W        W11665  25.054  32.515   0.878
39340W        W11666  23.509  41.807  10.451
39341W        W11667  22.192  43.840  13.444
39342W        W11668  25.555  26.106  11.960
39343W        W11669  42.516  16.757   0.423
39344W        W11670  28.540   3.895  14.451
39345W        W11671   9.359  31.087  12.362
39346W        W11672  11.134  39.897  11.371
39347W        W11673  18.631  13.690  11.074
39348W        W11674   0.355  24.490   1.310
39349W        W11675   1.905  38.827  10.566
39350W        W11676  13.233  30.450   4.303
39351W        W11677  36.997  11.311   1.256
39352W        W11678  15.658  43.396   2.304
39353W        W11679   3.420  29.967  11.046
39354W        W11680   6.749  35.393  14.292
39355W        W11681   1.338  36.975  13.547
39356W        W11682  31.128   8.767  13.825
39357W        W11683  35.419  24.143  14.930
39358W        W11684  19.626  29.070  11.559
39359W        W11685  26.515  10.351  11.400
39360W        W11686  27.033  11.212   3.671
39361W        W11687   7.836  38.565  11.949
39362W        W11688  13.128   8.788  11.454
39363W        W11689  28.955  35.930  12.404
39364W        W11690  13.834  42.495  10.637
39365W        W11691  40.829  13.846  10.928
39366W        W11692  13.223  33.482   3.700
39367W        W11693  11.248  34.446   1.361
39368W        W11694  41.309  19.052   3.784
39369W        W11695  19.116  10.850   1.915
39370W        W11696  29.533  16.653  13.984
39371W        W11697   9.853  36.370  12.568
39372W        W11698   5.434   4.819  12.092
39373W        W11699  15.230  32.530   2.308
39374W        W11700   3.415  20.030  13.383
39375W        W11701  44.928   3.948  10.564
39376W        W11702  16.259  32.948   4.624
39377W        W11703  38.325  17.770  12.461
39378W        W11704   8.710  25.127   2.188
39379W        W11705  27.945  15.115  12.482
39380W        W11706  13.285  31.628   4.155
39381W        W11707  43.917  11.183   4.622
39382W        W11708  33.091  40.918  10.417
39383W        W11709  15.659   3.256   1.902
39384W        W11710  39.971  10.153   3.214
39385W        W11711  21.755  26.580  13.833
39386W        W11712  11.276  39.336   1.886
39387W        W11713  12.629  14.769   4.155
39388W        W11714  38.001  34.977   2.880
39389W        W11715  12.764   0.484  11.034
39390W        W11716  12.849   0.279   1.793
39391W        W11717  43.451  11.207  11.574
39392W        W11718  14.122   0.343  12.010
39393W        W11719  12.717  31.019   0.746
39394W        W11720  19.073  26.655   3.661
39395W        W11721  31.584  35.027   1.226
39396W        W11722   5.261  29.023   2.833
39397W        W11723   3.736  20.565  12.947
39398W        W11724   3.857  41.342   1.829
39399W        W11725  11.838  21.742  11.563
39400W        W11726  20.105  33.583  14.375
39401W        W11727   6.189   2.269   1.289
39402W        W11728  40.322  13.213  12.544
39403W        W11729   3.322  24.977   4.308
39404W        W11730  44.385  43.809   5.143
39405W        W11731   0.338  25.649  11.450
39406W        W11732  32.419  20.681  14.846
39407W        W11733  20.151   7.877  12.499
39408W        W11734  38.012  20.733  10.602
39409W        W11735  38.488  18.613   3.676
39410W        W11736  24.008  39.868   2.399
39411W        W11737   5.927  44.428   2.192
39412W        W11738  30.652  21.128   2.870
39413W        W11739  33.589  15.635  13.847
39414W        W11740  10.170  42.944  12.065
39415W        W11741  10.375   6.354  13.967
39416W        W11742  21.241  31.097   1.403
39417W        W11743   1.973  19.569   1.855
39418W        W11744  12.730  28.125   0.862
39419W        W11745  36.969  12.626   5.630
39420W        W11746  39.375  23.572   0.452
39421W        W11747  40.938  35.967  13.485
39422W        W11748   3.244   5.242   0.788
39423W        W11749  13.691   3.931   0.263
39424W        W11750   3.420  35.048   2.246
39425W        W11751  38.880  15.111   2.844
39426W        W11752  40.547   2.733   1.727
39427W        W11753  17.180  14.830  10.595
39428W        W11754  23.734  16.221  12.358
39429W        W11755   7.805  37.376  14.018
39430W        W11756  22.104   6.345   1.447
39431W        W11757  25.134  40.956  13.486
39432W        W11758  35.931  10.289  11.412
39433W        W11759   3.334   1.947  11.565
39434W        W11760  21.128   7.868   0.310
39435W        W11761   7.896  15.733  13.990
39436W        W11762  32.521  22.143   3.638
39437W        W11763  26.628   7.218   0.929
39438W        W11764  22.249  19.720  13.488
39439W        W11765   3.773  34.033   0.298
39440W        W11766  17.278  31.487   3.160
39441W        W11767   1.874  10.281   9.924
39442W        W11768  36.584  13.186   0.727
39443W        W11769  32.488  15.308  13.362
39444W        W11770  13.199  14.319   0.738
39445W        W11771  29.491  30.125   3.755
39446W        W11772  18.071  41.835  13.442
39447W        W11773  32.623  15.306   3.770
39448W        W11774  14.781  26.071   2.732
39449W        W11775  19.249  25.023   3.682
39450W        W11776  35.040  17.764  14.957
39451W        W11777   3.447   3.775  11.563
39452W        W11778  38.399  43.903  13.478
39453W        W11779   8.798  37.426  14.468
39454W        W11780   8.708   0.751   3.226
39455W        W11781  38.835  20.632  10.519
39456W        W11782  44.877  27.654  12.872
39457W        W11783   5.309  35.857  14.878
39458W        W11784  12.800  28.051   3.207
39459W        W11785  11.164  24.068   3.775
39460W        W11786  13.300   3.263  10.482
39461W        W11787   3.891  42.319  14.971
39462W        W11788  29.076  10.698  12.872
39463W        W11789  12.182  22.114   0.396
39464W        W11790  17.663   5.358  11.390
39465W        W11791  16.629  36.055   4.653
39466W        W11792   1.827  39.013   4.287
39467W        W11793  40.441  13.144  10.541
39468W        W11794  31.581  41.899  13.532
39469W        W11795   6.342  39.017  11.481
39470W        W11796  11.185  31.934   2.319
39471W        W11797  29.548  10.686   1.299
39472W        W11798  23.503  23.111   0.277
39473W        W11799  11.864  27.030   3.722
39474W        W11800  22.054  11.838  12.081
39475W        W11801  34.958  17.584   0.431
39476W        W11802  44.500  43.395   0.466
39477W        W11803  19.234  17.690  12.956
39478W        W11804  14.112  39.024   0.419
39479W        W11805   0.344  31.020  14.997
39480W        W11806  43.980  16.096   2.717
39481W        W11807  15.732  21.088  11.884
39482W        W11808  42.870  34.369  14.373
39483W        W11809  44.286   3.372  11.457
39484W        W11810  27.979   5.260  12.360
39485W        W11811   0.940  32.982   2.393
39486W        W11812   0.348  29.578   3.290
39487W        W11813  42.374  31.047  12.908
39488W        W11814  13.673  18.127  14.274
39489W        W11815  24.223  11.636  12.343
39490W        W11816   3.425  19.083  14.834
39491W        W11817  24.986  37.900  12.547
39492W        W11818   7.747   3.257   3.824
39493W        W11819  18.754  32.036   2.828
39494W        W11820  41.860  44.375  10.546
39495W        W11821  27.446  37.944   1.438
39496W        W11822  18.074  12.257   2.726
39497W        W11823   3.906  39.050  11.116
39498W        W11824  11.640  14.742  12.984
39499W        W11825   1.768  11.740  10.524
39500W        W11826  31.950  42.361   0.852
39501W        W11827   4.885  29.588   3.346
39502W        W11828   9.272  10.643   0.759
39503W        W11829  28.116  35.926  14.309
39504W        W11830  39.335  17.643   2.381
39505W        W11831   2.870  44.006  14.383
39506W        W11832  41.381   8.292  10.582
39507W        W11833  13.257  11.368   1.439
39508W        W11834  20.639  14.146   0.929
39509W        W11835  12.171  21.757  11.441
39510W        W11836  27.974  42.979  10.995
39511W        W11837  28.173  40.880   1.327
39512W        W11838  26.140  10.284   3.857
39513W        W11839   8.292   2.853  12.496
39514W        W11840  33.968  26.110   0.443
39515W        W11841  35.932  35.004   3.803
39516W        W11842  32.050  44.881   0.884
39517W        W11843  23.203  37.007   4.670
39518W        W11844   8.859  28.580  10.990
39519W        W11845  36.350   0.380  11.872
39520W        W11846  23.160  11.686   1.880
39521W        W11847  28.607  21.155   0.354
39522W        W11848  31.644   0.946  13.830
39523W        W11849  20.625  40.845   2.248
39524W        W11850  33.071  21.024   4.613
39525W        W11851  41.450   8.254  12.413
39526W        W11852  36.870  42.971  10.953
39527W        W11853  16.299   0.379   1.832
39528W        W11854  21.154  40.502   4.798
39529W        W11855   6.859  14.748   4.134
39530W        W11856   0.748  38.022   0.796
39531W        W11857   7.300   2.463  14.363
39532W        W11858   5.844   3.365   3.341
39533W        W11859  38.431  19.192  12.963
39534W        W11860  13.711  39.379   1.420
39535W        W11861  35.954  27.950   4.248
39536W        W11862  38.360  23.533   0.882
39537W        W11863  23.086   4.817   3.331
39538W        W11864   4.820  27.519   1.832
39539W        W11865  21.657  34.452  11.891
39540W        W11866  38.367  36.439  12.409
39541W        W11867  39.951  29.551   4.193
39542W        W11868  43.283  42.391   1.894
39543W        W11869  33.456  11.180  14.296
39544W        W11870  28.541  27.528  14.800
39545W        W11871  28.995  28.498  14.448
39546W        W11872  30.065  43.396  14.031
39547W        W11873  10.279  13.334  14.351
39548W        W11874   3.872   1.870   4.271
39549W        W11875  39.927   8.194  14.957
39550W        W11876  17.593  11.735  12.893
39551W        W11877  44.501   6.752   2.828
39552W        W11878  26.471  26.985  14.381
39553W        W11879  26.052  17.757   2.902
39554W        W11880  25.511  28.551  11.997
39555W        W11881  11.308  37.842  12.447
39556W        W11882  44.801  27.098  13.375
39557W        W11883  14.104   7.875   1.740
39558W        W11884  13.246   7.847   3.765
39559W        W11885  15.745  43.490  10.429
39560W        W11886  14.189  44.301   2.894
39561W        W11887  42.026  17.264   2.274
39562W        W11888  44.796   5.755   1.771
39563W        W11889   6.309  37.559  12.432
39564W        W11890   2.886  23.140  11.094
39565W        W11891  43.308  31.463   3.361
39566W        W11892   8.663  43.766   1.891
39567W        W11893  28.608  23.119   0.476
39568W        W11894  26.645  12.747   4.698
39569W        W11895   1.966  36.378   2.669
39570W        W11896  29.103  14.325  12.913
39571W        W11897  14.181  37.513  12.999
39572W        W11898   5.289   7.856  14.010
39573W        W11899   3.765  43.864   0.356
39574W        W11900  14.129  24.021  13.343
39575W        W11901  41.990  23.131   4.753
39576W        W11902  11.347  40.844  13.959
39577W        W11903   2.758   2.843  12.019
39578W        W11904  21.553  30.921  13.347
39579W        W11905  41.920   7.255   2.349
39580W        W11906   9.734  35.902   4.341
39581W        W11907  27.579  18.671   3.282
39582W        W11908  14.278   7.730   4.791
39583W        W11909  15.197  41.435   1.775
39584W        W11910  22.525  22.503   0.949
39585W        W11911  18.149   6.905   2.751
39586W        W11912  15.622  39.374   0.881
39587W        W11913  30.496  19.637   3.359
39588W        W11914  10.303  11.723  12.537
39589W        W11915  39.505  23.708   2.852
39590W        W11916  37.462   2.858   2.839
39591W        W11917  43.364   1.400   3.638
39592W        W11918  41.441  19.737  10.608
39593W        W11919  36.397  39.334   1.921
39594W        W11920  41.503  21.667   2.793
39595W        W11921   2.452  14.794   0.732
39596W        W11922  12.191  17.790   2.299
39597W        W11923  38.569  28.111  11.919
39598W        W11924   6.882  13.244  11.531
39599W        W11925  21.520  19.265  13.484
39600W        W11926  34.005  34.021  12.094
39601W        W11927  25.198  29.946   4.201
39602W        W11928   9.216  31.912  10.429
39603W        W11929   9.170   4.317   1.750
39604W        W11930  24.022  20.686  11.930
39605W        W11931  29.667  14.734   1.238
39606W        W11932  12.778  37.352  14.275
39607W        W11933   8.785  38.329   3.231
39608W        W11934  43.978  37.064  12.519
39609W        W11935  22.066  28.068   3.149
39610W        W11936   7.186  41.978  14.900
39611W        W11937  26.969  44.857   1.873
39612W        W11938  11.717  27.676  11.520
39613W        W11939  41.974   1.268  13.451
39614W        W11940  10.726  44.006  11.537
39615W        W11941  11.155   1.326  11.979
39616W        W11942  20.028  31.006  12.848
39617W        W11943  41.860  14.767   1.907
39618W        W11944   3.416  21.541   2.297
39619W        W11945   8.293  13.757  14.329
39620W        W11946  40.872  25.215  12.928
39621W        W11947  36.562  20.048  10.929
39622W        W11948  40.824  34.558  10.443
39623W        W11949   2.398  27.990   2.693
39624W        W11950  20.722  13.674   3.370
39625W        W11951   3.733  13.694  11.021
39626W        W11952  12.117  23.073   4.259
39627W        W11953  26.642   0.970   0.812
39628W        W11954  25.513  35.403   4.175
39629W        W11955  28.952  18.147   0.736
39630W        W11956  30.101  12.329  12.026
39631W        W11957  17.245  36.439   3.655
39632W        W11958  18.633  20.562   1.835
39633W        W11959  27.549  11.294  13.016
39634W        W11960   9.814  21.670   1.865
39635W        W11961   6.189  28.632   2.297
39636W        W11962  17.607   6.718  14.342
39637W        W11963  29.962   8.660  13.480
39638W        W11964   3.316  22.713   2.734
39639W        W11965   5.228  16.146   1.281
39640W        W11966   0.837  38.459  14.766
39641W        W11967  30.909  27.198  12.445
39642W        W11968  41.344  15.117  11.075
39643W        W11969  33.099   9.653   2.890
39644W        W11970   0.972   6.390  11.860
39645W        W11971  18.546  31.119   3.756
39646W        W11972  37.895  21.183  12.894
39647W        W11973  13.228  20.050   2.344
39648W        W11974  20.114  35.517  12.575
39649W        W11975  38.408  32.004   1.883
39650W        W11976  11.315  29.993  11.417
39651W        W11977  29.039  42.997   2.415
39652W        W11978   1.883  21.146   0.483
39653W        W11979  44.480  39.845  12.403
39654W        W11980  19.069   6.848  11.466
39655W        W11981  25.014  40.870   3.219
39656W        W11982  38.567  35.062  13.359
39657W        W11983  14.621  43.368  12.930
39658W        W11984  20.684  39.491   3.172
39659W        W11985   7.209  42.376   2.711
39660W        W11986  11.194  25.136   4.826
39661W        W11987  19.742  14.805   3.312
39662W        W11988  33.101  31.574   0.341
39663W        W11989  34.462   6.210   3.648
39664W        W11990  32.994  16.141  12.945
39665W        W11991  38.848  31.054  11.126
39666W        W11992  40.873  23.621   0.379
39667W        W11993  27.689   9.169   1.827
39668W        W11994   9.366  39.509   0.438
39669W        W11995  41.402  13.326  14.919
39670W        W11996  12.295  24.021   2.186
39671W        W11997  16.121   5.382  12.016
39672W        W11998  33.527  23.545  11.561
39673W        W11999   1.425  12.724   3.868
39674W        W12000  30.109  37.846   1.365
39675W        W12001  20.208  23.139  11.375
39676W        W12002  12.179  15.134  11.451
39677W        W12003  33.914  14.153  11.026
39678W        W12004  37.914  18.762   1.714
39679W        W12005  42.483  24.200  12.519
39680W        W12006  24.596  40.861   4.181
39681W        W12007   2.419   5.761   2.686
39682W        W12008  22.015  31.409   3.822
39683W        W12009  40.851  31.098   4.237
39684W        W12010  29.985  14.594  11.491
39685W        W12011  34.108  13.261   3.859
39686W        W12012   1.842  33.125  11.031
39687W        W12013  17.715  43.855   0.319
39688W        W12014  29.544  24.022   2.353
39689W        W12015  18.636  29.135  13.023
39690W        W12016  37.085  17.595  10.990
39691W        W12017  32.634  17.602   3.741
39692W        W12018   3.260  43.959   0.373
39693W        W12019  25.616  24.701  14.397
39694W        W12020  36.483   1.787   4.692
39695W        W12021  40.051   0.750   1.279
39696W        W12022  10.861  32.418  14.279
39697W        W12023  34.961  32.955   4.685
39698W        W12024  21.145  27.541   0.432
39699W        W12025   4.374  30.095  12.019
39700W        W12026   6.699  18.274  14.772
39701W        W12027  35.593  14.776   2.250
39702W        W12028  16.771  19.661  12.087
39703W        W12029  22.128  23.040   2.356
39704W        W12030  27.526  23.624   1.230
39705W        W12031  30.163  15.673  12.896
39706W        W12032  17.292  20.264   3.779
39707W        W12033  31.928  33.606   4.153
39708W        W12034   3.315  40.886  11.033
39709W        W12035   3.940  11.760  10.094
39710W        W12036  38.876  11.810   0.448
39711W        W12037  11.733  39.885  12.430
39712W        W12038  30.106  31.447  13.978
39713W        W12039  26.017  34.422   1.234
39714W        W12040  36.431  12.216  12.494
39715W        W12041  33.506  14.767   4.774
39716W        W12042  42.395  40.938   1.335
39717W        W12043  40.887  37.346   1.862
39718W        W12044  11.672  35.401  14.758
39719W        W12045  31.492  20.735  13.334
39720W        W12046  32.633  12.133   1.900
39721W        W12047   7.709   0.318  14.930
39722W        W12048  35.444  28.651  13.055
39723W        W12049  39.888  13.173  11.562
39724W        W12050   0.873  10.821  13.414
39725W        W12051  14.803  37.402   1.375
39726W        W12052  32.562  10.710  10.560
39727W        W12053  30.033   5.214   1.313
39728W        W12054  34.962  34.372  11.591
39729W        W12055   4.817   8.739  11.056
39730W        W12056  19.084   7.797  11.373
39731W        W12057  40.853  33.008   4.755
39732W        W12058   4.805  42.806  10.460
39733W        W12059  42.777  36.452   1.406
39734W        W12060  12.276  16.093   1.717
39735W        W12061  36.061  30.938   1.796
39736W        W12062   6.865   9.177  13.817
39737W        W12063   1.934   4.914  14.890
39738W        W12064  20.157  42.444   4.193
39739W        W12065  17.581  37.432  12.501
39740W        W12066   3.353  13.759   3.746
39741W        W12067  38.504  11.645   2.769
39742W        W12068  20.609  33.570  14.807
39743W        W12069  36.383  14.252  10.513
39744W        W12070  32.133  21.259  11.861
39745W        W12071   9.713   8.895   3.820
39746W        W12072  20.633   3.261  10.420
39747W        W12073  17.604  18.086   3.833
39748W        W12074  11.193  24.038   2.236
39749W        W12075  27.135  12.183  10.435
39750W        W12076  40.491   9.274  11.402
39751W        W12077  27.538  41.511   3.216
39752W        W12078  10.731  13.732  14.858
39753W        W12079  40.964  16.149   3.218
39754W        W12080  18.167  11.290  10.448
39755W        W12081   2.322  23.052  12.824
39756W        W12082  38.438  25.200  13.513
39757W        W12083   3.252  39.971   4.347
39758W        W12084  37.475   5.386   2.231
39759W        W12085   7.759  18.123  13.454
39760W        W12086  44.292   8.833   2.758
39761W        W12087  39.473  40.895   1.915
39762W        W12088  17.585   6.295   3.671
39763W        W12089  19.116  17.800  13.340
39764W        W12090   9.338  26.562   1.706
39765W        W12091  32.932  16.728   0.857
39766W        W12092  17.116  14.804  11.965
39767W        W12093  28.600  22.733   2.182
39768W        W12094  20.060  21.638   2.881
39769W        W12095  34.388  12.144   4.123
39770W        W12096  40.418   3.338   3.322
39771W        W12097  44.439  13.247   1.360
39772W        W12098   3.879  35.974  14.998
39773W        W12099   5.230  20.767  11.559
39774W        W12100  41.795  35.510  12.949
39775W        W12101  42.787   0.415   1.383
39776W        W12102  26.954  36.031   4.731
39777W        W12103  38.334  36.462  12.864
39778W        W12104  42.849  10.216  12.926
39779W        W12105  36.589  40.383  11.466
39780W        W12106  21.576   0.952   2.223
39781W        W12107  41.366  28.503  14.995
39782W        W12108   4.380  18.137   4.287
39783W        W12109  34.915  43.516  11.541
39784W        W12110  22.720  19.619   3.334
39785W        W12111   5.208  23.496   1.407
39786W        W12112  19.656  20.566   1.827
39787W        W12113  17.164  10.224   3.643
39788W        W12114  40.982  41.018  11.080
39789W        W12115   4.762   1.822   4.672
39790W        W12116   6.833   3.275  14.867
39791W        W12117  10.268  31.474   1.429
39792W        W12118   8.798   4.736   1.279
39793W        W12119  34.431   7.759  12.824
39794W        W12120  22.716  16.254  14.020
39795W        W12121  16.665  33.506   1.267
39796W        W12122  35.599  39.334   3.385
39797W        W12123   6.679   4.366  13.892
39798W        W12124  27.112  18.641   4.815
39799W        W12125  22.693  40.848  14.344
39800W        W12126  21.650   4.735  14.308
39801W        W12127  21.047   4.818  10.495
39802W        W12128  40.504  44.369  11.441
39803W        W12129  11.732   4.881  14.802
39804W        W12130   1.773  11.770   5.106
39805W        W12131  37.837  12.362   5.119
39806W        W12132   3.955   6.751   0.880
39807W        W12133  31.961   1.804  14.443
39808W        W12134   9.362   4.234   3.158
39809W        W12135  15.172  35.587   0.344
39810W        W12136   5.689  29.436  11.536
39811W        W12137  32.132   8.836   0.907
39812W        W12138   1.293  24.159   5.141
39813W        W12139  15.163  31.565   4.224
39814W        W12140   3.432  22.626   3.650
39815W        W12141  15.665   0.926   0.261
39816W        W12142  42.346  14.105   3.805
39817W        W12143  37.928  40.809  14.878
39818W        W12144  37.988  16.712  11.037
39819W        W12145   1.483  17.583  11.968
39820W        W12146  16.652  39.540  14.308
39821W        W12147  26.115  21.522  11.937
39822W        W12148  27.543  26.488  10.505
39823W        W12149  33.951  34.380  12.086
39824W        W12150  44.425  16.583  10.104
39825W        W12151  23.622  35.579   3.346
39826W        W12152  41.900   2.240   1.252
39827W        W12153  26.683  29.961  10.465
39828W        W12154  42.306  17.073   2.194
39829W        W12155  41.448  34.598  14.802
39830W        W12156   2.768  44.423  12.417
39831W        W12157  30.416   0.922  14.027
39832W        W12158  21.685   7.806   4.670
39833W        W12159  32.089   0.987   1.340
39834W        W12160   0.277  17.122  14.296
39835W        W12161  19.541  43.870   0.736
39836W        W12162  28.124   4.796  11.953
39837W        W12163  21.642  27.978   9.936
39838W        W12164   6.418  12.835  11.424
39839W        W12165   1.945  24.646  10.149
39840W        W12166  40.846  39.421   1.867
39841W        W12167  27.583  25.969  12.974
39842W        W12168  22.526  43.929   0.727
39843W        W12169   5.803  18.272   4.350
39844W        W12170  44.926  39.975   1.229
39845W        W12171  40.981  38.390   4.672
39846W        W12172  39.335  20.100  13.520
39847W        W12173   9.165  24.691   4.835
39848W        W12174  37.962  34.567  13.901
39849W        W12175   7.297   8.303  13.470
39850W        W12176  40.023  13.758  10.428
39851W        W12177  43.483  13.779   4.321
39852W        W12178  33.911  31.949  12.402
39853W        W12179  18.596  19.743  13.416
39854W        W12180  31.417  24.990  12.552
39855W        W12181  18.157   9.198   3.759
39856W        W12182  11.687  18.076  10.101
39857W        W12183   4.733  13.246  14.295
39858W        W12184   5.377  12.709  13.318
39859W        W12185   6.815  43.396  10.510
39860W        W12186  43.786  38.861  14.937
39861W        W12187   4.818   5.356  10.595
39862W        W12188  29.938  13.652  14.378
39863W        W12189  34.889  26.014   1.846
39864W        W12190  26.198  35.953  12.972
39865W        W12191  27.598   4.877  12.887
39866W        W12192  37.987  27.962  11.924
39867W        W12193  16.738  39.314   2.315
39868W        W12194   4.307   4.815   0.384
39869W        W12195  27.036  18.627  12.369
39870W        W12196   5.715  37.486   2.886
39871W        W12197  22.153  34.088  14.329
39872W        W12198  18.551  10.369   1.884
39873W        W12199  43.966  10.653  13.839
39874W        W12200  38.482  39.327   2.263
39875W        W12201   1.335  38.836  14.997
39876W        W12202  43.925  22.622   4.276
39877W        W12203  10.814  38.970   2.387
39878W        W12204  14.206  26.541   1.428
39879W        W12205  33.429  22.625  13.509
39880W        W12206  14.686  15.663  11.857
39881W        W12207  16.783  39.447  13.363
39882W        W12208   5.413  42.929  13.383
39883W        W12209  12.630  38.068   0.924
39884W        W12210   3.914  33.476   1.720
39885W        W12211  39.867   7.863  13.835
39886W        W12212  18.069  39.026   1.774
39887W        W12213   8.252  40.369   0.736
39888W        W12214  44.411  20.251   2.228
39889W        W12215   3.842  21.582   3.194
39890W        W12216  32.508   2.934  10.450
39891W        W12217  20.070  23.235   3.707
39892W        W12218  11.347  34.060  10.899
39893W        W12219  44.281  20.120  13.791
39894W        W12220  19.657  33.389  12.003
39895W        W12221   4.900  19.612  14.426
39896W        W12222  24.595  36.015  11.083
39897W        W12223  18.771  41.396  13.451
39898W        W12224  16.735   1.244   3.853
39899W        W12225   3.713   8.758  14.908
39900W        W12226  33.515  22.016   3.179
39901W        W12227  13.290  42.850   3.365
39902W        W12228  16.136  44.277  13.877
39903W        W12229  20.674   5.371  11.099
39904W        W12230  23.567  11.211   4.666
39905W        W12231  12.282  14.118  11.122
39906W        W12232  30.044  31.920  10.431
39907W        W12233  24.079   6.392  12.530
39908W        W12234  33.550  25.106  14.449
39909W        W12235  23.691  36.987   0.248
39910W        W12236  39.824   1.350   0.922
39911W        W12237  20.029   1.849   0.469
39912W        W12238  39.846  25.647  14.800
39913W        W12239  15.647   4.352  10.125
39914W        W12240  16.284  17.742   2.717
39915W        W12241  19.111  27.149   2.355
39916W        W12242  24.119  17.739  12.924
39917W        W12243   0.856  33.942  13.050
39918W        W12244   6.832   7.723  14.882
39919W        W12245  27.509  41.835   0.756
39920W        W12246  41.946  40.408  11.898
39921W        W12247  43.366  39.904  13.449
39922W        W12248   0.286  40.023   3.201
39923W        W12249  35.868  30.929   0.311
39924W        W12250  34.073   6.711   1.881
39925W        W12251   4.732  28.120  14.358
39926W        W12252  35.431  43.353   2.388
39927W        W12253  24.615  11.719   1.782
39928W        W12254  23.201   6.405   2.714
39929W        W12255  19.283  23.011  11.909
39930W        W12256  38.350   1.923   4.278
39931W        W12257  33.391  20.581  10.443
39932W        W12258  37.458  16.758  11.940
39933W        W12259   8.675  18.612  10.931
39934W        W12260   8.325   0.834  11.891
39935W        W12261  15.680  19.600  14.345
39936W        W12262   7.727  38.338   2.412
39937W        W12263  39.026  28.133   5.160
39938W        W12264  28.984  36.530   3.802
39939W        W12265  12.762  41.305  10.988
39940W        W12266  14.228   0.867   2.835
39941W        W12267  15.169  38.458   2.785
39942W        W12268  33.054  11.187   4.307
39943W        W12269  35.363  16.156   1.794
39944W        W12270  33.916  26.178  10.891
39945W        W12271   2.270   1.349   4.813
39946W        W12272  22.698   6.749  10.531
39947W        W12273  42.031  40.484  14.936
39948W        W12274   1.913  33.012  11.556
39949W        W12275  24.223  20.641  14.437
39950W        W12276  23.619  44.259   4.233
39951W        W12277   6.211  30.989   2.726
39952W        W12278   7.275  19.733  12.969
39953W        W12279  28.176  38.465  12.052
39954W        W12280   6.836   6.414   1.722
39955W        W12281   6.276  33.496   1.350
39956W        W12282  27.000   4.249  10.908
39957W        W12283   9.165  43.835   0.943
39958W        W12284  17.159   5.909  13.438
39959W        W12285   7.775  15.190   1.885
39960W        W12286  29.529  36.974   1.740
39961W        W12287   6.877  40.480  10.906
39962W        W12288  16.223  22.096  14.019
39963W        W12289  27.047  19.640   2.862
39964W        W12290  18.671  30.453   0.347
39965W        W12291  25.683  16.078  11.125
39966W        W12292  23.717   1.335  12.919
39967W        W12293  42.022  16.194  11.585
39968W        W12294  30.476  12.336  11.572
39969W        W12295  10.247  35.917  12.076
39970W        W12296  39.886  27.458   1.428
39971W        W12297  16.299  38.465   4.279
39972W        W12298  35.874  25.996  10.471
39973W        W12299  28.547  34.418   0.415
39974W        W12300  21.551  38.325   0.735
39975W        W12301   5.199  21.537   4.203
39976W        W12302  31.915  18.295   1.852
39977W        W12303  27.595  24.021   0.442
39978W        W12304  13.628  26.619  11.055
39979W        W12305  32.086  27.029  14.279
39980W        W12306  28.657  29.136   0.257
39981W        W12307  33.912  36.892   3.690
39982W        W12308   3.916   5.299  11.087
39983W        W12309  12.145   1.345  10.944
39984W        W12310  28.678   6.815  14.793
39985W        W12311  34.407  12.319   0.878
39986W        W12312   1.824   9.211  14.442
39987W        W12313  26.038  43.465  14.382
39988W        W12314  12.252  23.038   0.257
39989W        W12315   1.967  29.071   0.965
39990W        W12316   1.456  24.713   2.718
39991W        W12317  26.960   0.494  12.994
39992W        W12318  44.836   2.797   2.238
39993W        W12319   7.789   5.773  11.406
39994W        W12320  24.585  33.505   4.226
39995W        W12321   8.261  36.509  13.887
39996W        W12322  24.685  24.481  11.473
39997W        W12323  27.999   9.381  12.354
39998W        W12324  40.397  36.976  13.389
39999W        W12325  22.239  11.677   2.719
40000W        W12326  29.087   7.877  11.586
40001W        W12327   5.743   1.957   1.399
40002W        W12328  19.144  30.491   2.680
40003W        W12329  10.777   2.744   3.152
40004W        W12330  32.040  41.801   1.756
40005W        W12331  36.434  29.105  12.913
40006W        W12332  24.151  11.249   2.286
40007W        W12333  18.618  38.976   5.232
40008W        W12334  32.454   7.182  11.575
40009W        W12335  26.180  17.643  12.009
40010W        W12336  19.104  24.094   2.351
40011W        W12337  14.151  15.176   0.809
40012W        W12338  42.452  43.296  13.929
40013W        W12339  43.443  22.708   9.931
40014W        W12340  35.362  25.704  11.930
40015W        W12341   4.715  32.073  11.607
40016W        W12342  13.240  15.151  12.084
40017W        W12343  39.922  40.901  12.088
40018W        W12344  44.775   6.750  10.468
40019W        W12345  29.481  36.403   3.664
40020W        W12346  36.044  32.038   4.187
40021W        W12347  33.977  30.103   1.253
40022W        W12348  28.053  29.090   9.611
40023W        W12349  37.831   9.252   2.672
40024W        W12350   1.849  11.824   0.813
40025W        W12351  16.658   7.880  12.382
40026W        W12352  29.127  31.446  11.019
40027W        W12353  20.264  37.894  10.969
40028W        W12354  34.552  34.489  10.481
40029W        W12355  21.558  35.979  10.527
40030W        W12356  43.290  16.753  11.097
40031W        W12357  32.019  27.992   0.910
40032W        W12358  36.006  33.093  14.899
40033W        W12359  39.893  16.154   2.354
40034W        W12360  16.122  20.124  13.362
40035W        W12361  42.526  23.112  14.351
40036W        W12362  11.273  38.879   3.213
40037W        W12363  29.001  30.108   4.251
40038W        W12364  38.031  40.494   3.181
40039W        W12365  24.985   8.772   2.757
40040W        W12366   9.328  22.698   3.192
40041W        W12367  44.801  34.878  10.542
40042W        W12368  23.712   8.876  12.041
40043W        W12369  41.456  27.606  13.308
40044W        W12370  36.513  17.773   0.861
40045W        W12371  34.561  33.988   1.334
40046W        W12372  28.525  19.744   3.819
40047W        W12373  28.097   0.805   3.866
40048W        W12374  20.252  44.950  14.969
40049W        W12375   2.331  26.566  11.590
40050W        W12376  30.123  15.225  11.564
40051W        W12377  41.881  37.927   1.785
40052W        W12378  44.335   6.262   2.195
40053W        W12379  27.121  16.133   4.708
40054W        W12380  17.231  18.642   9.965
40055W        W12381  14.203   7.210   1.271
40056W        W12382   1.238  17.072   1.375
40057W        W12383  40.804  21.100  13.354
40058W        W12384  21.584  39.877  11.885
40059W        W12385   6.900  37.562   2.814
40060W        W12386   3.366  27.664  10.932
40061W        W12387  24.616  44.334   1.267
40062W        W12388  14.194  43.271   4.753
40063W        W12389  25.993  14.786   0.246
40064W        W12390  33.000  30.614   4.208
40065W        W12391  12.330  25.659   1.394
40066W        W12392   7.879   8.674   3.188
40067W        W12393   9.260  37.855   0.890
40068W        W12394  19.056  25.202   2.768
40069W        W12395  42.998  35.864  14.945
40070W        W12396  10.844   9.670   3.678
40071W        W12397  28.540  32.096  10.513
40072W        W12398  36.558  20.573  14.347
40073W        W12399  20.533  31.541   2.814
40074W        W12400  15.690  28.995  14.423
40075W        W12401  13.311   1.471  12.370
40076W        W12402  39.968  14.271   3.744
40077W        W12403  39.352  10.796   1.385
40078W        W12404  11.329  23.594  13.846
40079W        W12405  19.606  36.484   4.600
40080W        W12406   0.937  28.643   3.737
40081W        W12407  16.255  16.731   3.716
40082W        W12408  32.572   5.760   4.295
40083W        W12409  23.621  38.567  12.863
40084W        W12410   0.984  40.871   0.335
40085W        W12411  20.031  33.394   3.757
40086W        W12412   3.714  31.458  12.497
40087W        W12413  24.034  26.133  14.896
40088W        W12414   0.951  25.619  13.847
40089W        W12415  35.007  19.279  13.024
40090W        W12416  30.934  40.431  12.855
40091W        W12417  37.556  38.937   2.383
40092W        W12418   1.276  15.665   1.768
40093W        W12419  18.574   5.246   4.626
40094W        W12420  11.220  35.989  12.934
40095W        W12421  26.116  40.960   4.212
40096W        W12422  40.961  26.585   2.702
40097W        W12423  13.798  20.694  13.953
40098W        W12424  40.853  19.272  14.766
40099W        W12425   9.285  39.423   4.687
40100W        W12426  33.095  20.548  14.421
40101W        W12427   7.791  30.046  14.396
40102W        W12428  14.322  31.642  13.322
40103W        W12429  17.601  25.129  10.534
40104W        W12430  20.572  28.663  11.086
40105W        W12431  31.571  31.558  13.488
40106W        W12432  28.020   4.877   4.126
40107W        W12433  44.499  34.936  11.915
40108W        W12434  11.323  34.479  10.481
40109W        W12435  41.864   8.766   0.796
40110W        W12436  33.982  29.617   1.811
40111W        W12437  20.038  30.520  14.973
40112W        W12438  21.212  39.042  10.049
40113W        W12439   1.273  41.363   3.855
40114W        W12440   7.252   0.863  13.538
40115W        W12441  29.096  11.649  11.075
40116W        W12442  38.018  40.988  12.468
40117W        W12443   4.919   8.343  13.434
40118W        W12444   9.679   0.798   4.238
40119W        W12445   7.201  44.928   3.676
40120W        W12446  36.397  17.193  14.461
40121W        W12447  23.184   0.404   4.700
40122W        W12448  28.937   7.247  11.872
40123W        W12449  32.022  26.955  12.489
40124W        W12450  17.690  27.619   0.889
40125W        W12451  44.336   1.928  11.976
40126W        W12452  12.650   7.353   3.814
40127W        W12453   7.402  33.583   2.869
40128W        W12454  23.149  25.608  11.608
40129W        W12455  34.866  16.116   2.229
40130W        W12456  29.498  25.552  11.040
40131W        W12457   5.406   2.882  10.532
40132W        W12458   9.820  39.430  14.381
40133W        W12459  26.636  37.879   2.730
40134W        W12460  42.402   1.328  11.055
40135W        W12461  43.376  25.670   1.858
40136W        W12462  31.529  17.149  12.457
40137W        W12463   4.255  25.583   3.721
40138W        W12464  33.472  44.925   0.445
40139W        W12465  32.582   7.335   2.233
40140W        W12466  29.647  24.021   1.290
40141W        W12467  30.430  28.643   3.341
40142W        W12468   3.356  27.678   2.328
40143W        W12469   1.879  21.240  10.486
40144W        W12470  15.246  42.380   0.782
40145W        W12471   9.380  28.123   4.774
40146W        W12472  40.970   5.799   1.305
40147W        W12473   7.295  22.209   4.668
40148W        W12474   3.843  10.728   4.623
40149W        W12475  33.490   3.401   1.706
40150W        W12476  34.991  29.050   1.794
40151W        W12477  19.629  36.554   1.713
40152W        W12478  12.184  34.894  13.393
40153W        W12479   5.260  12.173   2.763
40154W        W12480  26.492   7.740   2.290
40155W        W12481  32.955   9.693  12.385
40156W        W12482  12.250   5.885   2.355
40157W        W12483   0.753  15.257   2.327
40158W        W12484   7.699   8.863  13.368
40159W        W12485  39.445  42.835   0.431
40160W        W12486  39.995  41.809  12.573
40161W        W12487   9.863  30.452   3.672
40162W        W12488   6.184  27.995   4.272
40163W        W12489  34.111   5.798  13.513
40164W        W12490  42.325  36.024  11.860
40165W        W12491   4.221   8.862  13.337
40166W        W12492  42.344   2.404  14.416
40167W        W12493  29.041  10.220   3.334
40168W        W12494  27.081   6.715   4.302
40169W        W12495  17.796  30.570  13.512
40170W        W12496  29.609  44.307  11.568
40171W        W12497  23.706  28.948   0.439
40172W        W12498  15.711  13.232   3.828
40173W        W12499  26.046  16.236   5.705
40174W        W12500  14.118   2.280  14.780
40175W        W12501  43.816   7.223  11.480
40176W        W12502  32.537  14.643  14.506
40177W        W12503  30.611  42.903  12.350
40178W        W12504  32.926  43.845   2.682
40179W        W12505  39.348  29.533  12.889
40180W        W12506  34.032   7.729  13.431
40181W        W12507  36.862   7.183   3.843
40182W        W12508   5.872  30.513  10.497
40183W        W12509  30.438   0.744  14.911
40184W        W12510  22.681  24.528  11.940
40185W        W12511  44.899  34.885   0.795
40186W        W12512   4.250   3.299   3.293
40187W        W12513  12.820   2.876  10.413
40188W        W12514   4.259  18.269   1.851
40189W        W12515   2.351  10.303  11.877
40190W        W12516   5.704  34.421   3.779
40191W        W12517  17.306  37.486  13.338
40192W        W12518  42.330  22.571   3.302
40193W        W12519   4.392   8.658   0.942
40194W        W12520   3.369   5.309  11.990
40195W        W12521   6.714  41.957  13.879
40196W        W12522  14.264  35.413   3.867
40197W        W12523  22.106   3.770   3.251
40198W        W12524   6.284  24.220  14.312
40199W        W12525   2.773  25.639  14.879
40200W        W12526  34.896  44.871   0.862
40201W        W12527  20.065  23.594  10.961
40202W        W12528  41.459  33.582  14.504
40203W        W12529  30.423   3.773  11.396
40204W        W12530   5.722  32.909   4.220
40205W        W12531  24.519  28.030  13.986
40206W        W12532  23.079  23.051   0.867
40207W        W12533  24.036  10.209   2.314
40208W        W12534  43.330  28.583   3.861
40209W        W12535  18.562  21.192   2.192
40210W        W12536   6.740  23.015  13.470
40211W        W12537  33.891  10.222  14.349
40212W        W12538  44.395   6.339  13.821
40213W        W12539   7.740  29.465   2.687
40214W        W12540  26.621  21.079   2.743
40215W        W12541  17.719  22.595  10.500
40216W        W12542  13.788  34.415   4.302
40217W        W12543  29.998  39.445   4.694
40218W        W12544  25.537  34.113   3.651
40219W        W12545  44.965  19.570  14.454
40220W        W12546   3.310  10.260  12.002
40221W        W12547  34.602  41.511   2.847
40222W        W12548  19.134  34.482   4.346
40223W        W12549   6.249  24.995   3.372
40224W        W12550   7.888   7.681   4.318
40225W        W12551   0.784   9.276  11.413
40226W        W12552   5.912  29.162  10.934
40227W        W12553   4.341   1.909   4.326
40228W        W12554   7.242  42.928   0.293
40229W        W12555   0.872   2.725   2.374
40230W        W12556  28.181  24.130   5.232
40231W        W12557   7.353  39.513  13.833
40232W        W12558  41.912  26.569  12.082
40233W        W12559  21.140  15.138   4.150
40234W        W12560  20.056  19.567   1.419
40235W        W12561  20.657  19.742  11.967
40236W        W12562  26.178  35.549  13.353
40237W        W12563  26.081   3.849  11.470
40238W        W12564  30.018  24.122  12.884
40239W        W12565  30.516  30.955   5.313
40240W        W12566  43.963  10.694   4.343
40241W        W12567  14.325   6.890  11.076
40242W        W12568  22.164  17.562   3.259
40243W        W12569  38.946  37.392   0.298
40244W        W12570  42.002  43.343  13.017
40245W        W12571  40.843  13.348   0.382
40246W        W12572  26.138  38.828   3.256
40247W        W12573  14.795  12.667   5.247
40248W        W12574  44.911  31.075   2.803
40249W        W12575   5.816   2.268   3.657
40250W        W12576   6.197   6.182   0.954
40251W        W12577  28.993  15.680   0.441
40252W        W12578  37.069  41.856  14.278
40253W        W12579  16.780  21.151   3.662
40254W        W12580  40.408  38.379  12.825
40255W        W12581  18.268  43.420  10.596
40256W        W12582  10.877  30.043   2.277
40257W        W12583  43.477  18.613  10.501
40258W        W12584  27.174  12.360   1.216
40259W        W12585  42.797  36.395  14.397
40260W        W12586  17.676  32.558  11.065
40261W        W12587  25.196  34.051   4.123
40262W        W12588  19.748  23.187  13.010
40263W        W12589  29.102   0.795   3.307
40264W        W12590  16.218  35.390   3.794
40265W        W12591   8.259  19.650   3.764
40266W        W12592   3.310  36.507  11.882
40267W        W12593  20.599  27.980  12.034
40268W        W12594  21.675   6.377   1.741
40269W        W12595  19.533  10.347  13.328
40270W        W12596  38.931  32.068   5.283
40271W        W12597  19.267  23.579  14.784
40272W        W12598   1.873   6.858  10.925
40273W        W12599  10.826  22.743   0.469
40274W        W12600  25.177  34.565  10.894
40275W        W12601  19.046  23.008  10.605
40276W        W12602  10.334  21.649   4.597
40277W        W12603   5.384  32.516   3.227
40278W        W12604  31.604  38.019   1.220
40279W        W12605  19.580  37.538  14.386
40280W        W12606  23.686  17.720  10.417
40281W        W12607  44.470  26.561  12.500
40282W        W12608  11.732  17.762  11.561
40283W        W12609   2.765   2.892   1.744
40284W        W12610  42.949  13.162   0.290
40285W        W12611   8.710  40.919  12.545
40286W        W12612  39.483   2.931  11.110
40287W        W12613  40.336  29.586   4.649
40288W        W12614  21.733   3.854   0.902
40289W        W12615  24.507   2.841  13.489
40290W        W12616  11.272  38.871  14.484
40291W        W12617  26.669   4.437  14.291
40292W        W12618  37.413  21.092   2.763
40293W        W12619  27.952  10.216   2.885
40294W        W12620  35.063  26.041   3.264
40295W        W12621  29.155  28.436  13.420
40296W        W12622  25.666  14.338  10.446
40297W        W12623  40.976  25.212  14.281
40298W        W12624  35.000  32.016  12.512
40299W        W12625  44.813  12.714  10.519
40300W        W12626  40.377   9.649  12.346
40301W        W12627  42.008   7.758  11.959
40302W        W12628  13.630  23.172   3.850
40303W        W12629  38.400  33.130   4.680
40304W        W12630  16.297  25.616  12.064
40305W        W12631  25.111  27.963  10.975
40306W        W12632   1.853  33.082  13.891
40307W        W12633  21.674  28.066  11.544
40308W        W12634   6.374  27.021   1.360
40309W        W12635  17.100  20.112  12.865
40310W        W12636   0.455  22.607  12.968
40311W        W12637  12.843  32.886   4.209
40312W        W12638  44.008  36.946  14.944
40313W        W12639  25.592  33.426   2.892
40314W        W12640  24.641   8.324   2.267
40315W        W12641  36.561   3.360  11.884
40316W        W12642  16.661  26.172   2.854
40317W        W12643  24.542  22.685   2.715
40318W        W12644  38.941  33.526  10.528
40319W        W12645   5.396  32.935  12.901
40320W        W12646  14.725  23.650   1.322
40321W        W12647   2.390  21.034  11.607
40322W        W12648  22.078  38.480   3.169
40323W        W12649   7.336  24.489  10.449
40324W        W12650  31.490  19.773   1.410
40325W        W12651   3.779   0.472  11.105
40326W        W12652  15.763  29.531   0.381
40327W        W12653  24.551   2.463  12.542
40328W        W12654  39.503  21.569   1.394
40329W        W12655   1.301  23.205   1.826
40330W        W12656  42.016  31.555  14.764
40331W        W12657  17.255   5.921  12.554
40332W        W12658  11.674   7.688   4.305
40333W        W12659  16.303  37.009   3.203
40334W        W12660  22.693  36.542  14.428
40335W        W12661  12.294  32.468   2.305
40336W        W12662  32.125  21.235  12.403
40337W        W12663  13.267  15.714   3.828
40338W        W12664  18.152   3.773   3.829
40339W        W12665  39.458  16.789  13.976
40340W        W12666  38.479   3.260  10.077
40341W        W12667  40.871   8.886   2.186
40342W        W12668   1.790  23.027  13.922
40343W        W12669  10.842  41.991   2.376
40344W        W12670   2.430   2.847   1.932
40345W        W12671  19.665  41.340   3.242
40346W        W12672  12.119  32.412   4.823
40347W        W12673  44.870  16.642  11.582
40348W        W12674   7.758  10.300  14.940
40349W        W12675  17.283   9.765  12.912
40350W        W12676  23.063  19.285   2.343
40351W        W12677  16.316  31.541  14.931
40352W        W12678   7.783  29.643  10.904
40353W        W12679  33.944  28.081  14.964
40354W        W12680   0.973  32.410   4.777
40355W        W12681  29.945  37.511   1.437
40356W        W12682  30.971   0.477   0.405
40357W        W12683  18.708  37.939  14.802
40358W        W12684   1.810   1.888   2.722
40359W        W12685  16.622  13.789   0.397
40360W        W12686  13.120  38.571  12.928
40361W        W12687   5.913  28.449   4.771
40362W        W12688  13.195  35.014  10.980
40363W        W12689  38.879  18.119   0.451
40364W        W12690   7.209   1.372  13.836
40365W        W12691  10.285  27.543   3.803
40366W        W12692  33.018  29.100   2.895
40367W        W12693  31.468  40.461   0.746
40368W        W12694  24.173  32.569  10.476
40369W        W12695   5.781   9.328  11.449
40370W        W12696  44.975  28.676   0.250
40371W        W12697  39.556  32.610  14.819
40372W        W12698   7.675  19.061  11.998
40373W        W12699  11.673  18.287   0.245
40374W        W12700  38.838   9.671  11.957
40375W        W12701  35.054  39.943  13.483
40376W        W12702  40.475  10.681  14.839
40377W        W12703  34.996  33.086   4.206
40378W        W12704  40.906   5.790  13.040
40379W        W12705  29.166  17.082   0.878
40380W        W12706   5.900  15.215  10.908
40381W        W12707  26.527  23.551  14.961
40382W        W12708  37.349  11.807   1.742
40383W        W12709  24.659   5.733  10.997
40384W        W12710  34.928  23.634  10.466
40385W        W12711  40.407  22.232  11.078
40386W        W12712  40.342   4.292  13.414
40387W        W12713  10.653  17.722   1.745
40388W        W12714  40.350   5.797  13.473
40389W        W12715  28.670  22.058  14.868
40390W        W12716  20.032  10.271  10.105
40391W        W12717  38.513  13.614   4.615
40392W        W12718  42.408  38.424  11.558
40393W        W12719  21.641  43.810   0.876
40394W        W12720  16.622  43.906  13.395
40395W        W12721   0.803  26.619   2.318
40396W        W12722  15.679  19.069  10.555
40397W        W12723  37.952  13.844  14.315
40398W        W12724  28.458  16.644  14.996
40399W        W12725  10.321   6.850   4.731
40400W        W12726  39.898  42.898  11.983
40401W        W12727  22.707  21.193   5.294
40402W        W12728  18.148  33.118  14.855
40403W        W12729  33.938   9.806  14.902
40404W        W12730  18.294  27.567   2.800
40405W        W12731  34.050  26.479   3.748
40406W        W12732  24.622  30.113   3.214
40407W        W12733  42.006  20.652   4.135
40408W        W12734   1.809  37.579  14.856
40409W        W12735   2.351  37.335   0.440
40410W        W12736  40.466  43.995  13.323
40411W        W12737  23.694  25.709   4.683
40412W        W12738  28.621  15.790  11.901
40413W        W12739  19.752  44.943  13.950
40414W        W12740  37.978  38.403  12.505
40415W        W12741   3.850  44.405  14.415
40416W        W12742  33.553  11.361   4.675
40417W        W12743  13.319  24.704  14.902
40418W        W12744   8.812  38.850  12.548
40419W        W12745  32.626  44.923   4.132
40420W        W12746  15.823  11.291  11.109
40421W        W12747  12.691  24.614   2.227
40422W        W12748  30.546  33.000  10.562
40423W        W12749  10.850  28.020   1.725
40424W        W12750  27.586  24.709  11.939
40425W        W12751  35.894  10.664  11.579
40426W        W12752  17.696  13.305  10.446
40427W        W12753  12.717  22.133   1.730
40428W        W12754   2.761  23.641   4.288
40429W        W12755  41.521  21.020   4.144
40430W        W12756  37.574  27.667   4.676
40431W        W12757  34.873  28.175  12.468
40432W        W12758  38.037  11.329   4.727
40433W        W12759  34.431  15.297   4.717
40434W        W12760  13.219  11.198  13.361
40435W        W12761  33.586  39.025  14.894
40436W        W12762  42.527  26.994  10.571
40437W        W12763   7.399  28.105  11.380
40438W        W12764  24.002  40.043  11.014
40439W        W12765  23.059  11.676  13.473
40440W        W12766  18.569  38.946  12.899
40441W        W12767  19.751  19.239   2.690
40442W        W12768  14.789  11.862   3.341
40443W        W12769  32.548  41.015   3.363
40444W        W12770  30.101   3.436   2.300
40445W        W12771  22.744   1.805  13.536
40446W        W12772  10.726  14.782   2.305
40447W        W12773  33.564   3.286  10.529
40448W        W12774  42.351  37.984  11.993
40449W        W12775  35.600   1.912   2.678
40450W        W12776  16.115  43.494  10.964
40451W        W12777  24.493  28.013  12.515
40452W        W12778  23.012  24.675   0.396
40453W        W12779  13.319  24.198   0.301
40454W        W12780  27.481  42.944   1.804
40455W        W12781   3.835   1.429   2.240
40456W        W12782  12.292  36.080  12.359
40457W        W12783  44.274  11.260   4.126
40458W        W12784  12.164  27.053   2.777
40459W        W12785  42.419  39.511  13.362
40460W        W12786  35.577  44.458   0.754
40461W        W12787  34.443  11.323   4.838
40462W        W12788   8.664  18.194  10.922
40463W        W12789  22.528   2.237  10.432
40464W        W12790  22.550  40.387  10.595
40465W        W12791   1.441   6.241   3.836
40466W        W12792  33.453   1.479   1.353
40467W        W12793   8.382  10.742  14.910
40468W        W12794  23.673  18.620   1.326
40469W        W12795  28.452  13.780   2.285
40470W        W12796  15.769  20.621   2.787
40471W        W12797  35.988   4.773  10.422
40472W        W12798  20.600  44.483  10.619
40473W        W12799  11.821  30.610  12.984
40474W        W12800  14.791  25.962  13.998
40475W        W12801  24.980  28.955  13.533
40476W        W12802  43.882   1.783  12.043
40477W        W12803  35.409   5.251  11.450
40478W        W12804  34.087  34.468   2.373
40479W        W12805   4.439  11.241   1.896
40480W        W12806  40.489   8.311  12.463
40481W        W12807  36.843  16.803   1.920
40482W        W12808  10.773  36.566   2.686
40483W        W12809   5.723  35.386  14.384
40484W        W12810  38.860  26.541  10.954
40485W        W12811  34.883  41.421   4.118
40486W        W12812   7.364  16.664   4.265
40487W        W12813  34.438  41.534   3.239
40488W        W12814  23.996   5.300  13.022
40489W        W12815  30.053  31.639  11.479
40490W        W12816  25.697  42.368   1.305
40491W        W12817  37.896  34.992  12.416
40492W        W12818  23.008   8.316  14.366
40493W        W12819  28.661   3.780  11.434
40494W        W12820  27.465   3.426  12.852
40495W        W12821  21.676  30.075   2.815
40496W        W12822  19.042  13.224   4.723
40497W        W12823   6.196  23.604  10.966
40498W        W12824  14.104  27.020   1.927
40499W        W12825  19.206   8.746  12.013
40500W        W12826  10.676   2.800   0.336
40501W        W12827  10.635  23.493   0.293
40502W        W12828  10.159  32.115  12.048
40503W        W12829   7.413  31.502  14.021
40504W        W12830  18.614  16.657   1.393
40505W        W12831  13.269  35.415   3.293
40506W        W12832  31.466  16.114   3.655
40507W        W12833   4.764  40.865   2.795
40508W        W12834  31.483  23.137  10.968
40509W        W12835  29.100  14.828   0.350
40510W        W12836  44.912  16.649   1.865
40511W        W12837   5.897  34.496   4.293
40512W        W12838   7.261  26.562   1.892
40513W        W12839  17.245  34.887  14.383
40514W        W12840  18.675   5.237  13.017
40515W        W12841   9.223  24.490   2.663
40516W        W12842  20.632  31.965  13.425
40517W        W12843  21.576  43.975  10.439
40518W        W12844  20.750  12.776  13.850
40519W        W12845   3.895   2.392   5.251
40520W        W12846  20.201  25.594  11.905
40521W        W12847  34.041   4.255   1.769
40522W        W12848  30.112   8.386   4.683
40523W        W12849  11.640  20.112   4.750
40524W        W12850   9.176  25.160  13.362
40525W        W12851  23.648  24.561   0.404
40526W        W12852  43.417  41.904  12.484
40527W        W12853  17.296  40.323   0.968
40528W        W12854  16.272  43.885   0.814
40529W        W12855  34.023  36.396  13.814
40530W        W12856  30.150  41.348  12.566
40531W        W12857  40.307  18.170   1.748
40532W        W12858  13.713   0.985  10.976
40533W        W12859  28.485  27.089   0.943
40534W        W12860  25.616  26.538  13.846
40535W        W12861   3.337  30.148  11.380
40536W        W12862  27.549  15.680  10.941
40537W        W12863  31.090  20.703  13.324
40538W        W12864  11.140  26.975  13.480
40539W        W12865  30.993  11.807   4.256
40540W        W12866  30.047   7.406   1.423
40541W        W12867  42.853  21.638   4.158
40542W        W12868   2.356  28.976   2.799
40543W        W12869  32.587  12.218   3.351
40544W        W12870  31.139  11.210   2.343
40545W        W12871  10.214  25.136   2.737
40546W        W12872   7.785  23.540  14.946
40547W        W12873  38.915  27.512  14.386
40548W        W12874   5.732  15.156   2.182
40549W        W12875   9.318  41.787  10.973
40550W        W12876  39.037   4.367  12.366
40551W        W12877  13.747   3.332   5.321
40552W        W12878  11.338  38.058  10.984
40553W        W12879  15.670  21.138  11.099
40554W        W12880  40.330  36.902   2.792
40555W        W12881  24.222  12.714   5.244
40556W        W12882  16.796  18.221   3.148
40557W        W12883  43.371  30.506   2.780
40558W        W12884   7.833   2.728   3.270
40559W        W12885   3.731  44.840  14.513
40560W        W12886   6.341  40.982  13.949
40561W        W12887  42.816  39.514   4.597
40562W        W12888  31.087  28.174   3.833
40563W        W12889  37.957   6.858   4.302
40564W        W12890  39.050  20.048  14.901
40565W        W12891  33.054  22.606  10.435
40566W        W12892   4.778   3.372  14.759
40567W        W12893  20.168   3.709  14.375
40568W        W12894  12.691  13.151  14.811
40569W        W12895  31.462   0.457  14.848
40570W        W12896  12.692  44.310  13.864
40571W        W12897  44.363   4.755  10.505
40572W        W12898  43.782  37.901  13.928
40573W        W12899  19.774  20.042  14.342
40574W        W12900  18.137   4.422  10.637
40575W        W12901   8.347   9.331  13.339
40576W        W12902   0.774   1.824  12.856
40577W        W12903  32.594  32.041   1.865
40578W        W12904  29.601  20.576  12.507
40579W        W12905   6.332  38.501   3.164
40580W        W12906  23.177  31.002   4.728
40581W        W12907  17.668  14.147   4.303
40582W        W12908   8.803  11.277   0.334
40583W        W12909  28.176  32.634   3.270
40584W        W12910  29.661   5.225  11.474
40585W        W12911  30.973   8.812   4.236
40586W        W12912  33.614  41.433   2.247
40587W        W12913  34.509  14.633   4.221
40588W        W12914  36.503  13.270  12.933
40589W        W12915  12.161  33.625  11.042
40590W        W12916  28.977  14.162  12.500
40591W        W12917  20.674  40.847   3.208
40592W        W12918  36.862   8.178   2.418
40593W        W12919  35.361  37.873  10.520
40594W        W12920  43.789   5.796   4.118
40595W        W12921  30.938  13.774  13.850
40596W        W12922  29.442   7.251   1.210
40597W        W12923  15.251   6.402   0.858
40598W        W12924  34.117  40.429   3.194
40599W        W12925   6.214  11.854  14.472
40600W        W12926  25.024  23.045   4.338
40601W        W12927   2.350   8.323   2.247
40602W        W12928  14.114   0.942  11.073
40603W        W12929  40.319  29.552  14.859
40604W        W12930  23.016  13.806   1.296
40605W        W12931  19.158  30.036  14.843
40606W        W12932  24.721   7.261   2.320
40607W        W12933   2.935  15.665  13.423
40608W        W12934  15.305  44.760  10.409
40609W        W12935   3.884  37.049  14.955
40610W        W12936  21.238  19.078   1.423
40611W        W12937  23.664  14.155   3.175
40612W        W12938   6.781  35.102   3.256
40613W        W12939  10.247  11.757  13.048
40614W        W12940  27.550  41.506   2.798
40615W        W12941  10.330   2.306   1.869
40616W        W12942  21.109  36.930   1.235
40617W        W12943  40.519   0.479  10.597
40618W        W12944  20.146   0.425   3.818
40619W        W12945  27.148  39.493   0.400
40620W        W12946   5.779  24.994   1.340
40621W        W12947  13.599  21.592   0.461
40622W        W12948   6.419  41.991  11.415
40623W        W12949  19.620  41.473   4.201
40624W        W12950  43.854  28.975   1.773
40625W        W12951  17.190  15.257  13.992
40626W        W12952  42.321   9.724   3.698
40627W        W12953   9.210  20.738   3.386
40628W        W12954  34.963  18.258  11.445
40629W        W12955  12.316  17.709   2.682
40630W        W12956   3.358   1.758  13.884
40631W        W12957  14.752  21.116  11.898
40632W        W12958  40.395   8.795  10.484
40633W        W12959   2.935  35.599   3.186
40634W        W12960  11.730   1.746   2.409
40635W        W12961  16.797  13.148   4.833
40636W        W12962  38.934   8.296   2.708
40637W        W12963  27.973  24.720  10.975
40638W        W12964  37.520  14.148  13.025
40639W        W12965  44.994  32.012   4.252
40640W        W12966  10.185   3.713  11.106
40641W        W12967  39.905  18.142  10.577
40642W        W12968  34.952  38.476   0.434
40643W        W12969  20.598   7.252   0.414
40644W        W12970  14.627  27.586   1.876
40645W        W12971  27.459  24.632   3.184
40646W        W12972  26.092   1.798   4.735
40647W        W12973  30.995  42.776   3.776
40648W        W12974  16.661   2.868   2.879
40649W        W12975   0.446   0.909  14.834
40650W        W12976   5.338  25.680  13.419
40651W        W12977  32.078  41.822   3.652
40652W        W12978  28.132  18.193  11.919
40653W        W12979   7.234  12.671  14.389
40654W        W12980  31.038  29.522   3.870
40655W        W12981  41.397  11.844   2.279
40656W        W12982  36.505  40.987   3.712
40657W        W12983   3.276  13.747  12.076
40658W        W12984  40.860  25.549   4.270
40659W        W12985   1.750  15.580   1.399
40660W        W12986   3.800  18.212  13.920
40661W        W12987  25.201  11.348   2.403
40662W        W12988  24.516  16.721  12.009
40663W        W12989  17.231  15.748  14.768
40664W        W12990  28.529  18.052  13.832
40665W        W12991   5.781   2.439  10.487
40666W        W12992   0.443  25.104  10.576
40667W        W12993  29.564  17.117   2.265
40668W        W12994  41.313  42.442  10.944
40669W        W12995   9.726  17.170   2.382
40670W        W12996  11.691  23.501   2.375
40671W        W12997   7.858   6.870   0.449
40672W        W12998  37.054  36.890  12.090
40673W        W12999  22.139  43.424  12.993
40674W        W13000  33.878  40.037   0.866
40675W        W13001   7.381  11.243  13.060
40676W        W13002  33.539  31.497  12.380
40677W        W13003  36.547  39.455   1.333
40678W        W13004   4.932  40.903  11.478
40679W        W13005  19.151  10.831   2.264
40680W        W13006  43.488  31.408  10.960
40681W        W13007  25.628   0.371   4.214
40682W        W13008  38.986  39.974  11.094
40683W        W13009  43.815  36.469   2.747
40684W        W13010   5.810  15.190   4.179
40685W        W13011  44.448  17.654  11.581
40686W        W13012  41.514   4.224  10.447
40687W        W13013  29.447  25.115   1.327
40688W        W13014  31.503  14.307   2.288
40689W        W13015   0.970  16.612   9.950
40690W        W13016  15.313  32.057  12.831
40691W        W13017  42.499  18.073  13.989
40692W        W13018   6.677  32.138  11.440
40693W        W13019  10.808  37.006   3.727
40694W        W13020   2.369  33.554  14.832
40695W        W13021  20.529   4.892  14.926
40696W        W13022  17.097  38.335   4.329
40697W        W13023  12.739  23.522   1.897
40698W        W13024  10.795  43.866   2.726
40699W        W13025  33.021   9.278   0.456
40700W        W13026  43.363  33.455   1.370
40701W        W13027  15.706  28.050   3.369
40702W        W13028  28.555  32.582  13.893
40703W        W13029  21.205  34.422  10.078
40704W        W13030  28.434  42.350  11.484
40705W        W13031  30.430  31.412  12.510
40706W        W13032  18.716  10.729  13.051
40707W        W13033  29.163  33.985   2.330
40708W        W13034  20.682   2.744   4.327
40709W        W13035  36.899  24.078  13.813
40710W        W13036  33.381  34.051   2.188
40711W        W13037   9.290   3.285   0.452
40712W        W13038  40.026  26.630  13.875
40713W        W13039  26.993  36.989   3.797
40714W        W13040  13.656  33.598   0.774
40715W        W13041  33.126  41.891   0.944
40716W        W13042  39.509  26.537  11.495
40717W        W13043  22.066  39.475   3.321
40718W        W13044  28.566  24.544  10.447
40719W        W13045   0.409  25.043   2.258
40720W        W13046   1.939  13.158  10.644
40721W        W13047  25.668   3.233   0.787
40722W        W13048  22.569  44.419  13.540
40723W        W13049   5.308  15.720  13.801
40724W        W13050  11.367  26.616  11.599
40725W        W13051  23.603  44.458  14.400
40726W        W13052  12.665  36.378  11.576
40727W        W13053  43.990  41.408   2.664
40728W        W13054  34.903  10.235   0.403
40729W        W13055  43.473  11.784  12.967
40730W        W13056  23.606  28.109  13.531
40731W        W13057  13.624  17.205   0.406
40732W        W13058   1.339  19.550  14.021
40733W        W13059   6.386   3.436   4.727
40734W        W13060  14.289  33.936   4.216
40735W        W13061  23.650  36.945  10.923
40736W        W13062   8.869   0.861   2.234
40737W        W13063  22.245  16.782   1.236
40738W        W13064   0.932  23.518  10.542
40739W        W13065  12.217  34.873   3.248
40740W        W13066   6.825   1.459  12.885
40741W        W13067  11.695  22.084   3.766
40742W        W13068  27.982  29.613  10.005
40743W        W13069  13.610   8.704  13.993
40744W        W13070  16.269  23.046   3.807
40745W        W13071  24.186  25.977  14.493
40746W        W13072  26.692  13.266  11.592
40747W        W13073  38.842  13.300  10.475
40748W        W13074   4.749  17.641  12.832
40749W        W13075   8.668   7.323  11.377
40750W        W13076  28.048  39.538   9.998
40751W        W13077   4.876   5.410  13.323
40752W        W13078  42.845  35.602  14.972
40753W        W13079  26.030  18.285   0.243
40754W        W13080  15.788  20.544   3.216
40755W        W13081  39.418  25.627   3.746
40756W        W13082  10.292  29.670   0.728
40757W        W13083  44.961  30.551   4.306
40758W        W13084  19.651  12.855   3.185
40759W        W13085  25.596   6.264   1.235
40760W        W13086  22.654  31.000   4.710
40761W        W13087  14.745  29.921   4.190
40762W        W13088   6.698   2.798  14.370
40763W        W13089  44.904  21.127   0.815
40764W        W13090  44.767  37.965  10.903
40765W        W13091  11.757  23.099  12.093
40766W        W13092  10.189  17.170  14.476
40767W        W13093  14.631  34.028   4.768
40768W        W13094   9.342  19.260   0.321
40769W        W13095  44.921  13.705  11.986
40770W        W13096  12.262  34.034   1.324
40771W        W13097  16.759  13.121  14.304
40772W        W13098  12.772  38.935   4.250
40773W        W13099   8.819  33.559  14.386
40774W        W13100  10.267  31.411  12.428
40775W        W13101  13.761   0.384   0.385
40776W        W13102  11.149  34.515   4.129
40777W        W13103  20.082  21.217  13.914
40778W        W13104  41.870  38.379  13.040
40779W        W13105  10.800  36.413  12.058
40780W        W13106  41.017  19.726   2.778
40781W        W13107  11.330  41.968  11.079
40782W        W13108  22.021  10.148  14.406
40783W        W13109  20.155  23.667   0.919
40784W        W13110  16.596  43.848   4.791
40785W        W13111  20.567   1.945   3.648
40786W        W13112  28.468  25.477   1.285
40787W        W13113   9.270  44.957  13.949
40788W        W13114  14.769  31.056   3.738
40789W        W13115  24.986  39.887  14.438
40790W        W13116   6.378   1.276  14.487
40791W        W13117   8.735  24.575  13.327
40792W        W13118   2.399  14.129  13.980
40793W        W13119   0.933  14.146  10.055
40794W        W13120  10.363  40.039  10.129
40795W        W13121   4.374  28.584   3.381
40796W        W13122   2.317  43.013   3.384
40797W        W13123  21.549  21.625  13.056
40798W        W13124  15.248  26.631  12.001
40799W        W13125   3.308  41.036   4.284
40800W        W13126  20.088  29.623   0.736
40801W        W13127  13.635  15.697  10.120
40802W        W13128   7.175   6.779  11.596
40803W        W13129  40.892   1.954   2.798
40804W        W13130  10.841  44.849  10.980
40805W        W13131  28.050  28.608  10.482
40806W        W13132  30.078  37.020  14.412
40807W        W13133  28.467   4.396   1.806
40808W        W13134   2.400   9.772   5.577
40809W        W13135  24.053   7.233  11.069
40810W        W13136  10.184   0.878  14.001
40811W        W13137   0.453  11.318   2.214
40812W        W13138  16.690  31.028  13.476
40813W        W13139   8.284  19.629   2.877
40814W        W13140  21.690  42.443   3.230
40815W        W13141  40.513  20.163   3.264
40816W        W13142  36.919   1.259  10.906
40817W        W13143   9.743  14.233  10.908
40818W        W13144   1.432   1.282   1.905
40819W        W13145  14.681   4.329  13.932
40820W        W13146   1.346   5.432   2.719
40821W        W13147  30.469  39.463  14.845
40822W        W13148  35.470  33.572   3.859
40823W        W13149  22.597   2.725   1.293
40824W        W13150  14.312   0.281  14.871
40825W        W13151  22.231   5.847   0.731
40826W        W13152   2.832  23.546   3.356
40827W        W13153   6.281  30.931  10.422
40828W        W13154  12.629  40.047  11.387
40829W        W13155  43.383  38.427  14.376
40830W        W13156  35.429  25.095   0.442
40831W        W13157  30.526  41.836   3.722
40832W        W13158  13.738   4.743   4.671
40833W        W13159   9.716  27.542  12.990
40834W        W13160  34.039  41.036  11.866
40835W        W13161  37.069  30.127  13.842
40836W        W13162  43.911   0.274  10.438
40837W        W13163  23.652  34.064   1.384
40838W        W13164  38.820  24.586  10.527
40839W        W13165   6.697  20.590   0.334
40840W        W13166  17.281  13.321   2.684
40841W        W13167  18.202  41.331   4.187
40842W        W13168  26.479  30.614   0.271
40843W        W13169  39.462  32.069  11.981
40844W        W13170  40.413  40.910  13.048
40845W        W13171  35.081  42.480   2.804
40846W        W13172  12.282  17.732  14.961
40847W        W13173  27.070   7.374  12.899
40848W        W13174  14.119  32.410   4.164
40849W        W13175  28.539  32.402  12.030
40850W        W13176  10.236  18.696   1.346
40851W        W13177  32.062  38.367  12.989
40852W        W13178  11.626  14.646   4.647
40853W        W13179  11.369  22.086  10.439
40854W        W13180  33.592  14.144   2.376
40855W        W13181  17.219  31.532   3.719
40856W        W13182  10.225  15.156  14.458
40857W        W13183  15.271   0.867   3.794
40858W        W13184  33.557  16.578   1.321
40859W        W13185  36.493  36.375   2.391
40860W        W13186  22.719  23.508   4.152
40861W        W13187  34.086  41.359  14.786
40862W        W13188  36.966  15.170   4.350
40863W        W13189  40.315  44.759   3.311
40864W        W13190  19.590  16.730  11.015
40865W        W13191  44.405  20.609  12.403
40866W        W13192   9.717  39.015  12.902
40867W        W13193  10.677  34.085   4.672
40868W        W13194  40.474  21.022  14.824
40869W        W13195  11.306  36.044  13.807
40870W        W13196  34.378   8.280   1.888
40871W        W13197  17.242   5.280  10.437
40872W        W13198  14.102  20.638   3.670
40873W        W13199  11.667  26.610  13.320
40874W        W13200  34.388   9.658  12.359
40875W        W13201  16.307  26.641  10.541
40876W        W13202   7.731  29.597  14.995
40877W        W13203   0.431  19.178   4.190
40878W        W13204   7.328  39.375   4.169
40879W        W13205   8.163  20.538   3.722
40880W        W13206  13.733  12.358  11.027
40881W        W13207  43.820   3.774  10.999
40882W        W13208  34.078   0.466  13.513
40883W        W13209  20.700   2.419  13.009
40884W        W13210  31.049  43.443  11.046
40885W        W13211  15.247  27.193  10.544
40886W        W13212  39.932  27.498   2.736
40887W        W13213  42.973  14.187  12.381
40888W        W13214  31.592   6.893   0.260
40889W        W13215  28.173  23.669   0.963
40890W        W13216  12.732  23.218   3.859
40891W        W13217  20.152  22.629  10.960
40892W        W13218   9.756  17.645  10.617
40893W        W13219  36.847  44.961   2.822
40894W        W13220  14.287   3.376   3.258
40895W        W13221  27.521  40.842   1.891
40896W        W13222  27.065  42.789   2.874
40897W        W13223  34.400  12.265  11.863
40898W        W13224  39.351  25.031   0.760
40899W        W13225  36.900  29.553   3.832
40900W        W13226  43.967  11.703   1.261
40901W        W13227  32.968  42.918  13.540
40902W        W13228  15.630  36.492  13.368
40903W        W13229  31.064  43.768  14.306
40904W        W13230  32.451  11.296   1.793
40905W        W13231  36.905  19.041   3.646
40906W        W13232   6.202   2.821   3.370
40907W        W13233  36.432   8.363   1.761
40908W        W13234  19.613  26.550  14.770
40909W        W13235  35.447  23.050   4.294
40910W        W13236  36.049  41.299  11.026
40911W        W13237  31.135  39.485   4.323
40912W        W13238   0.934   0.262  13.039
40913W        W13239  35.907   4.390   4.209
40914W        W13240  12.778   5.388   1.266
40915W        W13241   8.841  13.630  11.394
40916W        W13242   9.195   0.417   0.440
40917W        W13243  34.929  13.746  14.875
40918W        W13244  14.133   3.286  11.945
40919W        W13245   1.379  39.416  14.409
40920W        W13246   1.788  14.829  10.943
40921W        W13247   0.294  33.058   3.730
40922W        W13248  22.129  27.049   2.683
40923W        W13249   3.277  14.192   2.253
40924W        W13250  29.996  32.605   4.124
40925W        W13251  37.926   0.941  14.306
40926W        W13252   9.340   9.811  13.808
40927W        W13253  40.424   6.295   3.224
40928W        W13254  10.230  34.984  14.906
40929W        W13255   7.387  35.037  12.512
40930W        W13256  44.940   3.815   4.800
40931W        W13257  18.744  27.945   4.606
40932W        W13258  33.583  34.052   3.385
40933W        W13259  41.357  42.450  13.435
40934W        W13260  10.677   7.802   2.349
40935W        W13261   6.862  11.862  14.891
40936W        W13262  32.536  26.107  10.488
40937W        W13263   7.231   8.755   2.383
40938W        W13264  16.239   7.887  12.358
40939W        W13265  39.022  15.274   2.311
40940W        W13266  30.086   8.197   2.664
40941W        W13267  42.451  10.735   0.773
40942W        W13268  20.075  38.963   9.977
40943W        W13269  35.598  44.888  13.820
40944W        W13270   0.483  36.996   3.691
40945W        W13271   5.241  35.524   1.212
40946W        W13272  26.630  20.031   0.443
40947W        W13273  31.632  16.684   3.239
40948W        W13274  42.486  18.550   0.907
40949W        W13275  19.215   6.284  14.896
40950W        W13276   0.978  12.182   2.225
40951W        W13277   0.276   4.814   1.855
40952W        W13278  25.021  43.404   4.246
40953W        W13279  16.608  10.358  13.531
40954W        W13280  19.137  28.951  14.473
40955W        W13281   4.206   9.705  14.490
40956W        W13282   6.229  16.660  12.472
40957W        W13283  10.367  25.067  14.987
40958W        W13284   8.800  21.144  14.772
40959W        W13285   5.908  24.577   3.760
40960W        W13286   4.824  37.407  14.028
40961W        W13287  40.888   5.342  14.332
40962W        W13288  25.041  25.546   3.640
40963W        W13289  22.584  23.587   3.305
40964W        W13290  21.558  33.880  12.539
40965W        W13291  22.011   9.207   2.902
40966W        W13292  21.046  44.282   1.253
40967W        W13293   2.869   8.382  10.552
40968W        W13294  29.556  17.671   1.738
40969W        W13295   5.345   8.295  12.073
40970W        W13296  34.108  42.330  12.031
40971W        W13297  16.680   0.493  12.054
40972W        W13298  19.187  32.076   1.927
40973W        W13299  18.071  44.387   3.847
40974W        W13300   2.739   9.158   9.636
40975W        W13301   9.394  12.309  12.495
40976W        W13302  21.085  29.517   4.800
40977W        W13303  22.580  20.054   4.694
40978W        W13304   9.866   5.220  11.573
40979W        W13305  42.901  28.949  12.052
40980W        W13306  28.025  24.174   1.803
40981W        W13307  30.550  27.168   3.864
40982W        W13308  13.757  32.515  13.791
40983W        W13309   0.890   6.731   1.901
40984W        W13310  18.087   2.762  13.918
40985W        W13311  26.470   3.745   4.777
40986W        W13312  24.165  20.168  13.851
40987W        W13313  44.827  21.048   4.199
40988W        W13314   6.703  31.957  13.414
40989W        W13315   2.386  37.438  11.572
40990W        W13316  34.017  23.031   4.785
40991W        W13317   0.392  11.645  13.807
40992W        W13318  35.874  26.647   3.248
40993W        W13319  18.584   4.856   3.783
40994W        W13320   0.301  31.490  10.944
40995W        W13321  42.958  42.863  10.090
40996W        W13322  26.656  19.257  13.338
40997W        W13323  22.703  41.970   4.293
40998W        W13324  39.532  23.068   1.335
40999W        W13325  43.324  31.013  13.975
41000W        W13326  12.705  36.943   4.795
41001W        W13327  43.292   6.336   1.418
41002W        W13328  27.674  36.880   2.389
41003W        W13329  38.970  23.003   0.286
41004W        W13330  29.460  29.646  14.474
41005W        W13331  29.969  18.259   3.795
41006W        W13332  44.462  41.955   5.309
41007W        W13333  41.906  23.564   3.253
41008W        W13334  41.495  32.134  12.530
41009W        W13335   6.265  18.091   0.275
41010W        W13336  24.486   7.172  12.493
41011W        W13337   0.865   0.864  12.393
41012W        W13338  35.875  36.457  11.503
41013W        W13339   5.427   5.858   3.788
41014W        W13340  31.407   2.868  11.982
41015W        W13341  14.745  14.243   5.190
41016W        W13342  36.484  24.995  13.810
41017W        W13343  40.832   9.257  13.863
41018W        W13344  31.532  12.138  12.907
41019W        W13345  27.174  16.661  11.610
41020W        W13346  15.130  38.428  10.436
41021W        W13347  42.435   9.722  11.126
41022W        W13348  10.204  11.185   3.188
41023W        W13349  37.385  34.418  13.906
41024W        W13350  18.150  11.366   3.380
41025W        W13351  30.012   4.919  14.801
41026W        W13352  18.691  42.840   1.899
41027W        W13353   5.264   5.825  12.370
41028W        W13354   7.687  38.039  14.409
41029W        W13355   8.322  42.893  13.868
41030W        W13356  27.498  26.142  14.784
41031W        W13357  12.837   1.950  14.871
41032W        W13358  41.890  11.813   2.783
41033W        W13359   3.282  42.514   1.870
41034W        W13360  29.506  41.020   1.737
41035W        W13361  29.623  24.084   3.385
41036W        W13362  11.796  34.435   3.824
41037W        W13363  29.163   7.323  10.901
41038W        W13364  26.532  40.042  14.951
41039W        W13365  44.344  13.648  14.410
41040W        W13366  41.915  16.227   1.890
41041W        W13367  19.616  35.976  14.979
41042W        W13368  40.407  29.095   2.310
41043W        W13369   2.752  13.123   1.751
41044W        W13370  10.782  40.308  12.431
41045W        W13371  41.813   2.291  14.468
41046W        W13372  14.755  27.537   3.263
41047W        W13373  26.505  13.818  11.522
41048W        W13374  25.596  24.523  13.451
41049W        W13375   8.859   2.897  14.898
41050W        W13376  20.054  10.637   3.683
41051W        W13377   7.890  41.828   0.346
41052W        W13378   9.672   4.849  13.389
41053W        W13379  29.055  34.039  12.074
41054W        W13380  13.605   3.370   1.731
41055W        W13381  27.090  39.974  12.489
41056W        W13382  35.502  13.219  12.022
41057W        W13383  18.581  13.610   3.227
41058W        W13384  12.732  24.217   9.532
41059W        W13385   7.881  44.933   1.357
41060W        W13386  39.980   0.337   0.413
41061W        W13387  31.566  22.235  11.442
41062W        W13388   7.278  30.986  12.557
41063W        W13389  29.111   6.327   3.273
41064W        W13390  23.580   4.826   2.339
41065W        W13391   7.668  43.292   4.303
41066W        W13392  26.119  28.471   0.337
41067W        W13393  31.117  27.176   3.319
41068W        W13394  30.521  10.815  12.522
41069W        W13395  14.273  33.107  11.967
41070W        W13396  37.531  23.684  13.316
41071W        W13397  24.509  32.992   4.674
41072W        W13398   0.893  21.605   0.746
41073W        W13399  13.163  20.682   1.223
41074W        W13400  44.365  36.537  14.483
41075W        W13401  30.436   2.371  11.870
41076W        W13402  15.659  28.024  13.795
41077W        W13403   7.707  36.963   4.608
41078W        W13404   7.386   7.323   2.752
41079W        W13405  21.021  17.274   3.812
41080W        W13406  39.030  25.969  11.932
41081W        W13407  22.682  43.901  11.948
41082W        W13408   0.804  22.027   4.171
41083W        W13409  21.628  42.393   0.907
41084W        W13410  30.649  40.369   5.247
41085W        W13411  12.286  27.962   2.708
41086W        W13412  39.838  26.701   2.224
41087W        W13413   3.757  24.533   1.288
41088W        W13414  30.101  27.056   4.838
41089W        W13415   8.313  21.043   2.256
41090W        W13416  11.217  13.215  11.129
41091W        W13417  41.430  32.035   2.376
41092W        W13418  16.113  15.792   0.760
41093W        W13419  26.054  20.715  11.560
41094W        W13420  29.160  40.877  10.545
41095W        W13421  41.896  28.546   1.297
41096W        W13422  14.098  11.149  12.947
41097W        W13423  41.966  30.975   0.422
41098W        W13424  39.401  27.486   2.894
41099W        W13425  33.929  18.252  14.509
41100W        W13426  10.777  25.530  14.871
41101W        W13427   8.687   5.855   2.744
41102W        W13428  43.419  36.588  11.906
41103W        W13429   2.408  11.810   9.612
41104W        W13430  20.717   4.320   1.276
41105W        W13431  36.514   9.368  10.553
41106W        W13432  36.845  44.921  14.850
41107W        W13433   1.925  22.661  13.424
41108W        W13434  39.968   4.938  13.404
41109W        W13435  32.000  15.220   1.826
41110W        W13436  34.011  10.255   0.950
41111W        W13437   8.180  38.449   3.768
41112W        W13438   9.886  21.136   3.178
41113W        W13439   5.430  26.050  13.422
41114W        W13440  36.508  28.059   3.700
41115W        W13441  16.572  26.957   4.757
41116W        W13442  38.396   2.811  11.475
41117W        W13443  10.167  25.161   3.705
41118W        W13444   8.654  34.110  11.380
41119W        W13445  21.130  14.791  11.955
41120W        W13446   3.281   8.211   2.192
41121W        W13447  18.119  23.638   3.736
41122W        W13448  30.925  42.430   4.151
41123W        W13449  40.014  28.098  10.522
41124W        W13450  32.482  43.374   4.209
41125W        W13451  11.272  30.026   0.856
41126W        W13452   1.365  14.134  14.799
41127W        W13453  38.461  42.935   3.276
41128W        W13454   9.731   9.226   1.891
41129W        W13455   2.427  19.710  14.827
41130W        W13456  33.460   2.374  14.294
41131W        W13457  24.667  13.220   0.964
41132W        W13458  34.598  31.403  12.896
41133W        W13459  16.789  35.000   4.682
41134W        W13460  12.235  39.043   4.315
41135W        W13461  23.612  33.552   1.728
41136W        W13462  18.678   9.760  11.473
41137W        W13463  24.026  36.064   4.779
41138W        W13464  10.357  33.896   2.340
41139W        W13465  12.673  39.533  12.867
41140W        W13466  16.781  19.278  12.052
41141W        W13467  26.517  42.389  10.930
41142W        W13468  43.463  29.039  13.378
41143W        W13469   9.822  15.169   1.758
41144W        W13470  17.682   4.913   4.166
41145W        W13471  25.633  22.554  14.298
41146W        W13472  22.678  34.963   3.785
41147W        W13473   3.419   3.231   4.192
41148W        W13474  22.613  24.066  14.847
41149W        W13475  20.062  15.165   3.320
41150W        W13476  31.585  23.207  12.398
41151W        W13477  19.620  31.967  10.951
41152W        W13478  34.024  21.126   2.862
41153W        W13479   3.842   6.410  12.073
41154W        W13480  21.101  25.478  12.502
41155W        W13481  42.874  41.890   1.783
41156W        W13482  10.338  16.592  13.944
41157W        W13483   9.256   5.759   2.289
41158W        W13484   4.385  38.019   0.477
41159W        W13485  17.082  14.738   3.688
41160W        W13486  22.507  31.411  12.407
41161W        W13487  39.879   8.780   2.252
41162W        W13488  25.140  25.047   0.263
41163W        W13489   1.894  35.064   4.337
41164W        W13490  27.681   6.327   1.774
41165W        W13491  14.781  12.855  10.918
41166W        W13492  43.450  44.756  11.886
41167W        W13493  16.250  33.031  11.114
41168W        W13494  33.492   0.440  10.113
41169W        W13495  37.517   7.911   3.268
41170W        W13496  36.989  27.015  14.319
41171W        W13497  39.519  35.992  14.432
41172W        W13498  32.933  43.322  13.977
41173W        W13499  23.613   8.832  12.352
41174W        W13500  40.501  22.542  10.938
41175W        W13501  44.846   9.256  12.496
41176W        W13502   9.313   5.832  12.039
41177W        W13503  44.976  20.192  14.445
41178W        W13504   4.819  12.145   0.943
41179W        W13505  41.433  30.131   4.158
41180W        W13506  19.141  18.632  11.469
41181W        W13507  43.439  14.652   0.929
41182W        W13508  38.326  44.353  11.413
41183W        W13509  14.816  14.670  11.468
41184W        W13510  19.091  24.587  13.500
41185W        W13511  32.011  18.687  10.492
41186W        W13512   6.373   0.460   4.828
41187W        W13513  29.455  21.664   0.469
41188W        W13514  16.121  36.469  14.902
41189W        W13515  30.040  23.528   0.795
41190W        W13516  35.095   3.430  10.027
41191W        W13517  31.606  31.523  14.985
41192W        W13518  39.470  23.175  13.900
41193W        W13519  25.663  19.726  11.490
41194W        W13520  34.032   2.763  13.856
41195W        W13521  11.649   6.847  13.998
41196W        W13522   0.452  27.984  10.915
41197W        W13523  29.573  14.185  12.925
41198W        W13524  21.240  36.485   0.960
41199W        W13525  17.303  36.977   3.806
41200W        W13526  34.411   1.314  14.397
41201W        W13527  24.576  29.595   1.358
41202W        W13528   7.763   8.266  12.469
41203W        W13529  13.201  11.832   0.377
41204W        W13530  23.125  42.943  14.828
41205W        W13531  30.518  30.633   1.299
41206W        W13532  13.196  24.104  14.323
41207W        W13533   0.794  22.703  14.879
41208W        W13534  41.022   4.210   0.481
41209W        W13535  43.308  44.463   3.178
41210W        W13536  41.452  28.054  14.514
41211W        W13537   2.855  42.305  14.456
41212W        W13538  30.613  26.957   3.224
41213W        W13539  27.638  33.507  11.908
41214W        W13540  35.053  24.175  13.859
41215W        W13541  13.112  43.993  11.041
41216W        W13542  39.447  31.429  13.901
41217W        W13543   2.747  24.203  13.428
41218W        W13544   8.852  25.217   0.736
41219W        W13545  37.915  40.361  14.774
41220W        W13546   7.854  27.068   1.215
41221W        W13547  38.842  42.331   1.319
41222W        W13548  21.631  29.154   3.633
41223W        W13549  30.099  14.223  11.959
41224W        W13550  28.495  13.221   2.762
41225W        W13551   0.408  40.331  14.989
41226W        W13552  27.563  13.774  14.825
41227W        W13553  31.965  37.883  14.834
41228W        W13554  23.044  29.483   0.454
41229W        W13555  44.888  43.499   2.752
41230W        W13556  26.619   3.297  14.767
41231W        W13557  32.421  36.532   4.769
41232W        W13558  26.181  16.271  11.900
41233W        W13559  15.101   3.431  12.512
41234W        W13560   9.291  31.114   2.844
41235W        W13561  30.603  23.191   4.709
41236W        W13562  22.714  25.163   1.253
41237W        W13563  33.540   5.360   1.787
41238W        W13564  17.589   1.373  13.354
41239W        W13565  28.593  36.425   2.851
41240W        W13566  12.264  21.546  12.076
41241W        W13567   6.745  28.157   0.820
41242W        W13568   5.812  10.358   1.876
41243W        W13569  35.574   3.419   5.142
41244W        W13570  31.591  42.842   3.228
41245W        W13571  13.245  23.193  12.492
41246W        W13572  10.802   0.818  10.543
41247W        W13573  42.340  37.921   4.829
41248W        W13574   3.425  22.673  11.105
41249W        W13575   4.414  20.626  14.951
41250W        W13576  35.986   8.180  11.403
41251W        W13577  30.149  28.561   9.670
41252W        W13578  39.011  44.862  12.861
41253W        W13579  25.057  39.343   0.399
41254W        W13580  32.454  17.194  12.413
41255W        W13581  22.244  38.403  11.074
41256W        W13582  13.116  10.279  11.398
41257W        W13583  26.960   7.774  10.621
41258W        W13584  13.313  31.060  11.517
41259W        W13585  14.625  13.799   3.225
41260W        W13586  10.735  19.742  10.452
41261W        W13587   0.494  25.478  12.574
41262W        W13588   1.269  42.370  13.883
41263W        W13589  29.115  17.720  11.009
41264W        W13590  33.879  36.024   3.766
41265W        W13591   1.926  41.032   0.437
41266W        W13592  15.114  35.536  14.879
41267W        W13593  30.917  20.677   0.320
41268W        W13594  27.044  24.095  12.377
41269W        W13595   0.780  27.176   0.462
41270W        W13596  40.458  11.230  11.562
41271W        W13597  17.298  32.094  14.425
41272W        W13598  44.843  32.491   2.300
41273W        W13599  39.017  21.040  13.514
41274W        W13600  34.979  25.148   3.870
41275W        W13601  42.957  23.675   3.867
41276W        W13602  10.266   6.215  11.035
41277W        W13603   3.772  25.991   1.800
41278W        W13604   0.793   2.387  10.630
41279W        W13605  24.519  37.351  10.440
41280W        W13606  35.065  10.265   1.249
41281W        W13607   5.801   1.845   1.705
41282W        W13608  38.419  23.733   3.225
41283W        W13609  11.311  12.224   2.810
41284W        W13610   4.353  43.845   4.197
41285W        W13611   0.782  22.637   0.797
41286W        W13612   4.326  27.449  10.970
41287W        W13613   1.926   9.202   3.229
41288W        W13614  44.925  30.432  13.009
41289W        W13615  26.682  29.490  13.802
41290W        W13616  11.212   7.852   0.805
41291W        W13617  20.524  28.125  14.004
41292W        W13618   1.304  13.232  12.455
41293W        W13619  40.312  25.665   2.865
41294W        W13620  27.103  14.726   3.775
41295W        W13621  26.637  12.340   1.321
41296W        W13622  22.740   7.867   1.226
41297W        W13623  11.250  36.371   0.476
41298W        W13624   0.924  31.559   3.836
41299W        W13625  33.990  15.716  14.029
41300W        W13626   7.703  14.182  10.608
41301W        W13627  18.643  24.223  11.995
41302W        W13628  26.463  35.026   3.655
41303W        W13629  10.213   1.830  10.580
41304W        W13630  30.013   2.779  13.821
41305W        W13631  25.133  14.721  13.933
41306W        W13632  18.656  33.907  14.471
41307W        W13633  34.409  36.963  13.511
41308W        W13634  36.554  34.993  13.481
41309W        W13635  42.520  40.845  14.767
41310W        W13636  39.025  13.833   3.810
41311W        W13637  19.768  42.884  14.901
41312W        W13638  32.116   5.739   3.752
41313W        W13639  22.702   8.224   2.311
41314W        W13640  20.234  41.819  11.465
41315W        W13641  11.704   2.306   4.321
41316W        W13642  22.191  32.929   3.169
41317W        W13643  37.461  18.275   1.719
41318W        W13644  37.526  34.492   0.843
41319W        W13645  36.882  28.104   0.871
41320W        W13646   5.262  19.089   1.705
41321W        W13647  34.120   1.426   1.877
41322W        W13648  27.559  30.595  13.969
41323W        W13649  25.706  10.869   0.304
41324W        W13650  37.935  13.135   2.235
41325W        W13651  43.315  15.316  11.030
41326W        W13652  42.384  26.033   1.438
41327W        W13653  10.278  26.655  12.931
41328W        W13654   6.745  32.985  14.000
41329W        W13655   8.741  29.636   0.255
41330W        W13656  44.269   8.853  11.945
41331W        W13657  32.948  20.266   4.746
41332W        W13658  40.488  20.586   4.283
41333W        W13659  10.739  23.009  14.510
41334W        W13660   0.848  20.269   3.797
41335W        W13661  13.649  33.489  14.967
41336W        W13662  18.676  15.738   9.994
41337W        W13663  39.343   7.267  13.353
41338W        W13664   9.359  11.178   2.777
41339W        W13665  28.135  42.980   3.652
41340W        W13666  43.392   5.439  13.495
41341W        W13667   3.855   4.415  11.559
41342W        W13668  17.197  10.160  10.902
41343W        W13669  33.448  17.669   2.812
41344W        W13670   8.299  27.499  13.879
41345W        W13671  44.856  16.145  12.354
41346W        W13672  25.181   8.304   4.119
41347W        W13673  27.986  19.635  12.989
41348W        W13674  11.308   0.277  12.418
41349W        W13675   0.852  44.948  13.824
41350W        W13676  37.053  17.742   1.817
41351W        W13677  22.598  42.888   2.253
41352W        W13678  17.196   6.724  10.518
41353W        W13679  44.474  13.604  11.936
41354W        W13680  27.455  16.306  11.948
41355W        W13681  27.954   2.262  11.012
41356W        W13682  31.960  39.522   2.329
41357W        W13683  38.409   2.457  11.575
41358W        W13684  14.650  22.644  13.390
41359W        W13685  31.038   6.305  13.910
41360W        W13686  37.549  11.203  14.862
41361W        W13687  33.127   3.776   2.260
41362W        W13688  36.899  32.947  13.850
41363W        W13689  10.342  12.153  14.300
41364W        W13690  31.938   6.417  14.462
41365W        W13691  13.770  44.771   0.464
41366W        W13692  21.621  10.237   0.761
41367W        W13693  22.745  33.911   0.810
41368W        W13694  15.105  38.923   1.316
41369W        W13695  23.138  30.463   3.320
41370W        W13696  18.270  35.047   4.212
41371W        W13697   3.412  24.517  13.390
41372W        W13698  24.985  17.189   2.212
41373W        W13699  17.627  34.540   0.763
41374W        W13700  21.044   6.694  13.057
41375W        W13701   6.255  23.233   2.385
41376W        W13702  37.450   9.805  11.994
41377W        W13703   0.898  16.172   2.395
41378W        W13704  29.431  29.442  11.860
41379W        W13705  20.590  13.230   1.327
41380W        W13706  13.609   7.766   1.282
41381W        W13707  28.491   3.733   4.629
41382W        W13708  29.104  38.023   3.195
41383W        W13709   6.228  18.273  11.883
41384W        W13710   1.925   0.855   2.684
41385W        W13711  34.938  20.618  13.859
41386W        W13712   6.873  22.638   3.814
41387W        W13713  26.005  18.555   0.744
41388W        W13714  12.709  27.041   4.354
41389W        W13715  39.338  17.070  11.903
41390W        W13716   6.812  28.545   2.800
41391W        W13717   6.261  12.661   1.802
41392W        W13718   2.421  13.184   1.382
41393W        W13719  38.369  41.528   0.838
41394W        W13720  41.527  21.541  14.858
41395W        W13721  39.345  18.773  14.764
41396W        W13722  34.394  20.702   2.795
41397W        W13723   7.206  30.562  12.414
41398W        W13724  44.292  36.935  12.503
41399W        W13725   6.922  21.231  12.509
41400W        W13726  12.813   5.269  11.467
41401W        W13727  19.728   6.390   3.718
41402W        W13728  16.619  24.584  13.527
41403W        W13729  30.581  19.152   4.666
41404W        W13730  44.503  41.918  13.917
41405W        W13731  27.670  23.235  14.353
41406W        W13732  37.484  42.809  10.092
41407W        W13733  33.418  38.469   2.840
41408W        W13734  22.052  31.145   4.702
41409W        W13735  23.012  10.296  10.154
41410W        W13736  39.006  38.569   0.938
41411W        W13737  14.219  28.520   2.252
41412W        W13738   8.776  16.209  12.854
41413W        W13739  11.697  20.609   4.342
41414W        W13740  31.534   1.381   3.366
41415W        W13741  34.918   1.281  13.400
41416W        W13742  44.351  21.254   1.304
41417W        W13743   1.298  38.369   4.252
41418W        W13744  10.683  23.622  13.445
41419W        W13745  12.781  10.824   3.232
41420W        W13746  15.197  22.704  10.512
41421W        W13747  19.704  40.802  13.930
41422W        W13748  27.561  17.234   1.830
41423W        W13749  30.913   4.714   4.198
41424W        W13750  31.064  38.926   0.363
41425W        W13751   1.464  28.104   2.812
41426W        W13752  36.050  24.059   3.274
41427W        W13753  36.567  38.970  12.401
41428W        W13754  23.644  31.080   0.786
41429W        W13755   7.353  43.477  14.315
41430W        W13756   2.470   5.925  13.861
41431W        W13757  13.273  43.295  12.408
41432W        W13758  39.020  29.636  11.522
41433W        W13759  12.658   8.770   2.671
41434W        W13760  21.240   6.836  11.579
41435W        W13761  23.605  24.645   1.760
41436W        W13762  29.061  19.703   2.186
41437W        W13763  19.184  22.021  14.492
41438W        W13764  38.958   7.236  12.526
41439W        W13765  27.638  44.405   0.954
41440W        W13766  16.241  31.996  13.985
41441W        W13767  33.054  32.887   0.482
41442W        W13768  18.059  32.396   3.858
41443W        W13769   9.378  30.424   2.893
41444W        W13770  11.759  37.030   1.267
41445W        W13771  23.669  39.376   5.316
41446W        W13772  21.258  36.050  12.525
41447W        W13773   2.249  38.457  12.489
41448W        W13774  17.777  12.667   2.296
41449W        W13775  26.683  18.588  10.445
41450W        W13776   3.806   0.907  11.880
41451W        W13777  32.564  34.971   4.686
41452W        W13778  40.893   2.266   0.299
41453W        W13779  44.830  12.343  14.843
41454W        W13780  15.257   7.672  10.451
41455W        W13781   4.828  31.066  13.025
41456W        W13782  32.011  33.472  13.487
41457W        W13783   5.885  25.193   1.834
41458W        W13784  21.057  16.717   3.306
41459W        W13785  43.375  11.726   4.148
41460W        W13786  15.248   9.702  10.478
41461W        W13787  30.443   9.214  14.967
41462W        W13788  35.493   3.345   2.827
41463W        W13789  10.831  25.515  13.857
41464W        W13790  28.157   2.861  10.604
41465W        W13791  10.198  23.986  14.912
41466W        W13792   7.696  33.018  10.520
41467W        W13793  29.142  40.496  13.419
41468W        W13794   4.766  16.194   0.728
41469W        W13795   5.743  30.445  11.863
41470W        W13796  28.042  17.667   2.843
41471W        W13797  33.960   4.853  12.577
41472W        W13798  26.956  24.072  11.472
41473W        W13799  30.926  31.993   1.240
41474W        W13800  25.996  17.264   3.249
41475W        W13801  14.313  15.634   5.112
41476W        W13802  10.331   3.870   4.225
41477W        W13803   9.383  16.632   4.305
41478W        W13804  29.072  12.343   0.769
41479W        W13805   0.838  38.522   0.882
41480W        W13806  25.201  41.985  14.014
41481W        W13807  38.893   4.803  10.897
41482W        W13808  34.595  35.415   3.637
41483W        W13809  36.585  14.821  10.467
41484W        W13810  21.095   3.808   2.323
41485W        W13811  28.460  23.141   1.702
41486W        W13812  36.936  36.871   3.806
41487W        W13813   5.783  28.953  11.988
41488W        W13814   2.883   4.226  10.015
41489W        W13815  16.271   9.653  11.508
41490W        W13816  23.207  39.827  13.382
41491W        W13817  42.847  14.279   1.759
41492W        W13818  31.539   0.761  13.493
41493W        W13819   8.374   0.926  13.504
41494W        W13820   9.370  13.618  14.814
41495W        W13821  17.703   5.273   3.651
41496W        W13822  37.456   5.706  13.937
41497W        W13823   1.438  26.183   2.260
41498W        W13824  15.104  17.662   4.636
41499W        W13825   2.235   2.802  11.405
41500W        W13826  16.132  10.797  14.937
41501W        W13827  22.536  15.798  11.515
41502W        W13828   5.215   1.822   2.261
41503W        W13829  33.528  11.742   0.453
41504W        W13830  38.053  20.712  13.321
41505W        W13831  15.236   6.848  13.479
41506W        W13832   6.866  10.847  12.897
41507W        W13833  25.521  14.177  13.481
41508W        W13834  42.919  23.162  12.890
41509W        W13835   2.346  17.242   1.346
41510W        W13836   7.740  43.838  13.864
41511W        W13837  32.606  12.757   2.324
41512W        W13838  13.302  12.752  13.540
41513W        W13839  32.914   5.407  13.036
41514W        W13840  43.331  11.141   2.357
41515W        W13841  23.717  28.666   1.324
41516W        W13842  24.082  30.162   1.899
41517W        W13843  22.518   9.210   1.291
41518W        W13844  21.188  24.997  11.040
41519W        W13845   6.875  44.830   1.734
41520W        W13846   9.299  32.613   3.290
41521W        W13847  24.008  17.652  11.007
41522W        W13848  34.034   4.882   3.654
41523W        W13849  29.628  20.604  12.890
41524W        W13850  38.331   4.216  12.852
41525W        W13851  29.480  15.708   3.347
41526W        W13852  30.657  40.886  13.479
41527W        W13853  42.820  13.165  12.571
41528W        W13854  23.017  33.938  10.568
41529W        W13855   0.326  35.567  12.982
41530W        W13856  20.719  22.558   0.243
41531W        W13857  39.348  34.374   4.290
41532W        W13858  11.172  40.824   4.176
41533W        W13859  44.392  16.089   4.156
41534W        W13860   7.229  28.990   2.685
41535W        W13861  33.528  32.510  12.519
41536W        W13862  15.141  39.000   4.676
41537W        W13863  12.199  30.950   2.414
41538W        W13864   5.432   1.960   1.278
41539W        W13865  24.143  31.121   2.842
41540W        W13866  36.477  11.263  10.529
41541W        W13867  27.569   5.372  13.441
41542W        W13868  11.138   2.807   4.286
41543W        W13869  13.641  19.194   3.364
41544W        W13870  32.403   0.412  12.844
41545W        W13871  18.228  20.646   1.223
41546W        W13872  35.559  35.553   1.907
41547W        W13873  20.069  44.847   4.730
41548W        W13874   0.435  30.580   0.374
41549W        W13875  21.675  24.136  10.928
41550W        W13876   3.406  36.989  13.811
41551W        W13877  20.695  25.493   0.394
41552W        W13878  31.430  20.247   2.319
41553W        W13879  16.605  39.004  11.072
41554W        W13880  14.594  26.121   2.254
41555W        W13881  30.983   4.240  10.468
41556W        W13882   3.871   3.349   0.868
41557W        W13883  10.713  43.824   1.806
41558W        W13884  10.372  12.282  13.522
41559W        W13885  18.622  22.234  12.013
41560W        W13886  20.617   5.350  12.539
41561W        W13887   5.931  44.491  12.980
41562W        W13888  18.194   1.940  14.406
41563W        W13889  27.997  30.015  12.874
41564W        W13890  41.369  43.810   0.289
41565W        W13891  23.106  33.938   2.260
41566W        W13892  29.563  14.616  11.551
41567W        W13893  19.238  34.958  14.289
41568W        W13894  34.040  10.789   2.373
41569W        W13895   1.930  29.079   4.809
41570W        W13896  13.287  20.533   4.196
41571W        W13897  44.820  44.287   2.377
41572W        W13898  24.569  41.936   0.275
41573W        W13899   4.732  14.709   1.739
41574W        W13900  32.454   9.680   0.354
41575W        W13901  39.872  37.855   2.774
41576W        W13902  27.001  32.519  13.522
41577W        W13903  13.763  34.443   2.335
41578W        W13904   5.374  38.458  12.881
41579W        W13905  43.822   9.774  13.516
41580W        W13906  19.731  26.640   5.174
41581W        W13907  10.782   9.156  14.959
41582W        W13908  27.993  35.981   3.760
41583W        W13909  38.532  18.293  12.826
41584W        W13910  28.944  14.682   4.291
41585W        W13911   9.799   3.333  13.388
41586W        W13912   2.300  21.591   3.311
41587W        W13913   7.883  27.054  12.856
41588W        W13914  23.097  23.504   2.318
41589W        W13915   2.875  44.004  12.522
41590W        W13916  24.998   2.271   4.197
41591W        W13917  32.405  23.506  13.015
41592W        W13918  31.964  27.514   4.129
41593W        W13919   4.413   8.754   4.293
41594W        W13920  11.820  37.440   2.403
41595W        W13921  26.173  41.868  13.005
41596W        W13922  24.140   2.406   0.938
41597W        W13923  11.784  16.165  13.368
41598W        W13924  40.516  40.315  11.510
41599W        W13925   6.771   2.342  11.865
41600W        W13926   0.761  30.650   0.376
41601W        W13927  32.467   1.301  12.094
41602W        W13928  34.907  10.373   5.185
41603W        W13929  12.617   3.909   3.242
41604W        W13930  37.878  42.348   4.680
41605W        W13931   7.758  15.821  10.013
41606W        W13932  10.794  43.472   4.656
41607W        W13933   2.366   4.803  10.613
41608W        W13934  36.405  26.691   2.692
41609W        W13935  10.760   4.868  10.015
41610W        W13936  18.613  18.073   0.850
41611W        W13937   3.896  37.526  12.044
41612W        W13938   0.344  28.591  14.947
41613W        W13939  15.659  31.505  11.974
41614W        W13940   3.256  14.250  14.504
41615W        W13941  33.566   9.259   2.839
41616W        W13942  10.655   7.183   3.234
41617W        W13943  16.211   8.662   5.142
41618W        W13944  15.179  39.381   0.253
41619W        W13945   0.857   3.240   0.891
41620W        W13946  21.039   7.277  12.408
41621W        W13947  23.612  11.775  14.319
41622W        W13948  21.534  18.202  10.951
41623W        W13949  27.020  18.681   1.290
41624W        W13950  26.665   3.751  12.086
41625W        W13951   2.369  35.500   1.700
41626W        W13952  26.182  41.390   4.624
41627W        W13953  40.803   6.187  10.445
41628W        W13954  15.605  28.592  10.579
41629W        W13955  12.823  36.434   0.371
41630W        W13956   9.369  13.327   3.665
41631W        W13957  43.844   4.843  14.974
41632W        W13958  23.734  19.543   2.747
41633W        W13959  21.164  14.745   2.762
41634W        W13960  22.580  23.023  13.322
41635W        W13961   8.400   5.250  14.459
41636W        W13962  37.564  31.441   3.704
41637W        W13963  26.534  15.732  12.533
41638W        W13964   3.285  29.082   2.301
41639W        W13965   9.251   7.743   4.201
41640W        W13966  28.988  11.779  11.991
41641W        W13967   8.759  40.863  13.468
41642W        W13968  29.108  24.198   1.738
41643W        W13969  24.572  30.103   1.290
41644W        W13970  16.272  32.483  12.423
41645W        W13971  39.881  38.854   2.765
41646W        W13972  11.176  39.990   1.893
41647W        W13973  41.922  44.806  14.909
41648W        W13974  12.752  40.055   4.675
41649W        W13975  10.828   6.707   2.833
41650W        W13976  33.084  28.581   2.832
41651W        W13977  29.020  36.872  11.876
41652W        W13978  38.444   1.476   4.609
41653W        W13979  20.180   7.683   2.763
41654W        W13980   7.801  13.121  13.902
41655W        W13981  19.653  26.474  11.537
41656W        W13982  44.991   3.253   1.279
41657W        W13983  14.672  39.041  10.890
41658W        W13984  33.542  43.376  12.348
41659W        W13985  15.087  10.812  11.857
41660W        W13986   5.424  38.495   4.274
41661W        W13987   3.911   2.422   4.825
41662W        W13988   3.380  40.900   1.799
41663W        W13989   7.200  11.330   4.815
41664W        W13990  43.947   8.171  13.012
41665W        W13991  38.391  10.208  12.374
41666W        W13992  43.321  32.907  12.056
41667W        W13993  15.809   1.449  10.451
41668W        W13994   4.424   0.427   4.811
41669W        W13995  41.459  32.554  10.562
41670W        W13996   7.239  41.360   3.315
41671W        W13997  38.940   2.283  11.118
41672W        W13998  28.172  43.948   3.855
41673W        W13999   8.244  29.086   3.343
41674W        W14000  20.703  18.098  13.841
41675W        W14001   5.298  42.970   2.280
41676W        W14002  40.917  16.122   1.789
41677W        W14003  22.186  17.295  10.032
41678W        W14004   1.741   2.874   4.612
41679W        W14005  25.016  41.521   3.348
41680W        W14006  13.313  11.177  11.933
41681W        W14007  25.079  18.781  14.290
41682W        W14008  14.743  27.538   2.287
41683W        W14009   6.357  42.924   9.961
41684W        W14010  19.705   1.925   1.342
41685W        W14011  20.178  26.652   2.397
41686W        W14012  15.131  20.605  14.306
41687W        W14013  20.729  36.524   4.717
41688W        W14014  16.603  12.742   0.452
41689W        W14015  36.901  37.473   0.417
41690W        W14016   0.793  30.040  12.886
41691W        W14017  15.816  18.268   3.836
41692W        W14018   1.888  41.034   2.240
41693W        W14019  31.100  32.433   4.287
41694W        W14020  17.071  32.116  12.505
41695W        W14021   4.215  43.945   4.805
41696W        W14022   1.456  36.010  10.627
41697W        W14023  36.969  43.372   3.744
41698W        W14024   9.315  27.605  13.330
41699W        W14025  31.460  25.172   2.354
41700W        W14026  29.134  28.131   2.336
41701W        W14027  20.686  42.923  11.492
41702W        W14028  32.404   0.432  13.386
41703W        W14029  38.469   9.815  10.931
41704W        W14030  13.139   9.770  11.103
41705W        W14031   2.898  21.687  14.799
41706W        W14032  34.928  41.037  11.084
41707W        W14033  38.066  41.958   1.314
41708W        W14034  40.814  18.087   2.216
41709W        W14035  34.012  22.626   0.754
41710W        W14036   6.348  30.010  13.523
41711W        W14037   1.407  11.285  12.064
41712W        W14038  22.592  39.448   4.209
41713W        W14039  33.565  35.941   1.236
41714W        W14040   2.941  12.763  10.411
41715W        W14041  13.620  31.058  11.445
41716W        W14042  10.770  19.630  12.440
41717W        W14043  44.759  13.625   1.422
41718W        W14044  13.714  40.471  10.989
41719W        W14045  36.893  40.041  11.051
41720W        W14046  29.070   1.403  14.910
41721W        W14047  33.978  10.793  13.374
41722W        W14048  32.104   7.785  14.921
41723W        W14049  15.794   9.379  12.360
41724W        W14050  42.331  15.281   3.243
41725W        W14051  11.790   3.294  13.330
41726W        W14052  44.324  17.755   2.760
41727W        W14053   6.385  13.654   4.211
41728W        W14054   9.170  41.940  14.490
41729W        W14055  18.782   8.881  14.944
41730W        W14056   2.329  31.105   2.725
41731W        W14057  21.705  23.984   0.324
41732W        W14058  26.540   1.835   0.920
41733W        W14059  43.376  30.036   2.737
41734W        W14060   1.757   5.331  11.980
41735W        W14061  21.660  14.332   1.335
41736W        W14062  36.438  31.926  12.002
41737W        W14063   0.952  23.210  11.465
41738W        W14064   7.190  41.866   1.424
41739W        W14065  41.509  16.083   2.847
41740W        W14066  13.106  16.265   0.887
41741W        W14067  29.038  23.610   3.172
41742W        W14068  10.800   5.904  10.602
41743W        W14069   4.704  40.541   4.183
41744W        W14070   1.292  44.758  12.877
41745W        W14071   0.289  15.679   5.203
41746W        W14072  31.448  11.350  10.964
41747W        W14073  13.747  27.960  14.341
41748W        W14074  31.648   6.794  14.809
41749W        W14075  34.451  15.147  13.498
41750W        W14076   8.674   6.852  12.455
41751W        W14077  41.034  31.017  11.006
41752W        W14078  40.490  44.858  13.422
41753W        W14079   3.301  42.492   4.822
41754W        W14080  15.088  11.357   0.350
41755W        W14081  41.932  10.210  14.380
41756W        W14082  28.502  28.036  14.504
41757W        W14083   6.894   6.394  13.948
41758W        W14084  39.495  10.225  10.633
41759W        W14085   8.675   5.696  14.992
41760W        W14086  17.179  29.146  12.851
41761W        W14087   9.376  38.961   0.273
41762W        W14088  16.226  16.196  11.106
41763W        W14089  19.559  18.153   4.806
41764W        W14090  10.791  40.317  13.398
41765W        W14091  24.629  10.243  12.850
41766W        W14092  32.010  36.074  11.389
41767W        W14093   8.780  27.994  11.903
41768W        W14094  18.790  18.148   4.173
41769W        W14095  25.029  12.168  14.020
41770W        W14096   6.754  18.675   2.718
41771W        W14097  32.456   8.367  13.409
41772W        W14098  36.873  25.971  13.845
41773W        W14099  16.739   0.751  12.091
41774W        W14100  36.514   2.842  12.974
41775W        W14101  42.324  41.984  14.924
41776W        W14102   6.728  26.507  12.911
41777W        W14103  36.989   5.926   0.330
41778W        W14104  10.715  32.503  13.422
41779W        W14105  17.556  18.670   4.289
41780W        W14106   4.849  21.705  11.918
41781W        W14107  11.300  27.109   1.769
41782W        W14108  33.456  39.935  13.480
41783W        W14109  34.041  44.498   1.791
41784W        W14110  21.583  24.667   4.724
41785W        W14111  10.776  38.390  11.087
41786W        W14112  32.029  28.669   0.875
41787W        W14113  44.474  19.686  12.521
41788W        W14114  43.436   7.230  11.471
41789W        W14115  32.107  15.776  11.398
41790W        W14116  38.013  16.129   0.945
41791W        W14117  21.610   1.390  10.930
41792W        W14118  27.636  32.612  11.591
41793W        W14119  27.586  24.224  13.975
41794W        W14120  39.404  30.040   1.903
41795W        W14121   0.477  15.265  10.948
41796W        W14122   2.841  40.023  11.519
41797W        W14123  20.687  32.097   0.758
41798W        W14124  33.072  17.595   0.746
41799W        W14125  14.800  13.669  14.394
41800W        W14126  16.238  42.514   1.904
41801W        W14127  37.348  24.643  11.577
41802W        W14128  22.175  33.029   2.398
41803W        W14129  10.831  28.951   0.385
41804W        W14130   2.305  24.212  10.628
41805W        W14131   8.834  17.747  11.449
41806W        W14132  10.798  13.772   1.305
41807W        W14133  16.161   1.407   1.420
41808W        W14134  13.624   5.873   2.833
41809W        W14135   4.847   6.883   4.193
41810W        W14136  36.503  28.530   4.676
41811W        W14137  30.931  26.143   4.704
41812W        W14138  14.130  13.712   2.364
41813W        W14139  41.808  41.305   2.736
41814W        W14140  33.555  11.693   2.712
41815W        W14141  37.000   0.325   2.233
41816W        W14142  44.875  30.090   3.827
41817W        W14143  39.447  27.003  13.479
41818W        W14144  20.152  37.838   2.348
41819W        W14145  27.188   7.404  13.401
41820W        W14146  25.600   0.256   1.275
41821W        W14147  21.176  19.583  12.560
41822W        W14148   4.447  34.391  12.864
41823W        W14149  39.866   5.699   3.153
41824W        W14150  19.640   8.169   4.631
41825W        W14151   1.426   8.889   2.343
41826W        W14152  19.190  27.692   0.732
41827W        W14153  26.202  16.118   3.372
41828W        W14154  38.528  35.052  12.823
41829W        W14155  15.221  42.979  10.961
41830W        W14156  20.096  34.972   2.819
41831W        W14157  23.220  22.671  12.421
41832W        W14158  21.727  38.847  10.411
41833W        W14159  35.099  18.187  14.796
41834W        W14160  42.886  14.787  14.982
41835W        W14161  24.205  44.993  14.333
41836W        W14162   5.196  11.340   5.675
41837W        W14163   6.870  12.283  14.356
41838W        W14164   1.276  21.106   1.924
41839W        W14165   9.306  18.636  13.845
41840W        W14166   5.774   3.812  13.987
41841W        W14167  27.984  18.621  12.014
41842W        W14168   9.268   7.336   1.401
41843W        W14169  35.907  17.081   3.158
41844W        W14170  10.273  38.513   0.904
41845W        W14171  35.406  16.595  14.383
41846W        W14172  11.817  43.857   0.897
41847W        W14173  17.699  23.223   4.294
41848W        W14174  35.937  33.419  10.062
41849W        W14175  43.864  12.657   2.900
41850W        W14176   5.695  14.284   1.358
41851W        W14177  14.312  15.106  12.447
41852W        W14178  40.394  34.117   0.745
41853W        W14179  14.292  43.359   4.240
41854W        W14180  34.001  13.294  13.380
41855W        W14181  25.523  11.829   4.334
41856W        W14182  35.034  43.777   0.874
41857W        W14183  32.620  28.055   0.809
41858W        W14184  27.097  19.279  12.572
41859W        W14185  27.129  11.768  14.999
41860W        W14186  34.120  27.109  11.592
41861W        W14187  41.961  41.292   4.835
41862W        W14188  33.419  32.420   2.359
41863W        W14189   7.379  43.459   3.782
41864W        W14190  36.457  21.585  12.045
41865W        W14191  27.591   8.342  10.608
41866W        W14192  19.543  30.111   1.326
41867W        W14193  22.204   8.255   1.800
41868W        W14194  12.158  14.237   0.939
41869W        W14195  34.594  26.957  14.878
41870W        W14196  26.676  24.007   3.355
41871W        W14197   8.683  22.740  11.482
41872W        W14198  39.546  20.612   0.422
41873W        W14199  23.719  17.744   4.810
41874W        W14200  43.379  23.169  10.540
41875W        W14201   7.337  10.227  11.444
41876W        W14202   0.772  12.659   1.246
41877W        W14203   1.257  15.804  14.804
41878W        W14204  16.239  22.172   1.320
41879W        W14205  24.712  10.253  13.374
41880W        W14206  23.122  40.019   4.631
41881W        W14207  18.285  28.015   0.763
41882W        W14208  40.305  44.298   0.782
41883W        W14209  28.170  15.206   2.248
41884W        W14210  21.215  27.616  10.505
41885W        W14211  19.046  30.418  11.088
41886W        W14212   9.280  37.078   2.221
41887W        W14213  32.426  37.919  11.438
41888W        W14214  43.952  37.337  12.030
41889W        W14215  43.499  32.908   3.155
41890W        W14216  19.648  12.156   3.379
41891W        W14217   5.265   6.347  11.461
41892W        W14218   3.728  40.813   3.784
41893W        W14219   9.278   2.416   0.742
41894W        W14220  15.191  13.242  13.347
41895W        W14221   2.227  25.201   1.337
41896W        W14222  31.648  39.504   4.638
41897W        W14223  33.550  28.124   1.313
41898W        W14224  30.654  20.031   3.321
41899W        W14225  42.359  28.017  14.443
41900W        W14226   5.864  19.046  10.451
41901W        W14227  40.352  34.461   0.754
41902W        W14228   3.325  35.953  13.054
41903W        W14229  40.983   5.413  13.801
41904W        W14230  23.182  37.528  10.128
41905W        W14231  24.015  44.485   4.249
41906W        W14232   9.185  15.732  14.339
41907W        W14233  44.768  36.859   2.666
41908W        W14234  32.091  15.327  12.369
41909W        W14235  19.572  38.470   0.309
41910W        W14236  22.652  14.606   4.149
41911W        W14237  17.113   9.221   3.163
41912W        W14238  40.493  17.658  14.914
41913W        W14239   2.430  35.434  10.948
41914W        W14240  22.252  32.923  10.526
41915W        W14241  23.091  16.140  12.852
41916W        W14242   1.938  31.110  11.922
41917W        W14243  44.390  32.128   0.765
41918W        W14244  41.934  44.468  10.056
41919W        W14245  29.053  31.075   0.385
41920W        W14246   1.743  20.704   2.364
41921W        W14247  36.029  15.698  11.578
41922W        W14248   0.885  38.419   1.723
41923W        W14249  33.921   9.870   1.215
41924W        W14250   2.857  44.348  10.496
41925W        W14251  43.857  34.029   3.808
41926W        W14252  28.478  27.143   4.823
41927W        W14253  21.077  19.682  13.943
41928W        W14254  34.926   2.832   4.264
41929W        W14255   4.383   0.325  13.360
41930W        W14256  14.813  31.431  12.374
41931W        W14257   2.935  23.138   2.747
41932W        W14258   3.384   4.858   2.897
41933W        W14259   2.240   1.317   3.742
41934W        W14260  36.912  17.698  13.920
41935W        W14261   2.836   4.914   2.239
41936W        W14262   9.878  22.684  14.010
41937W        W14263  42.905  10.848  14.899
41938W        W14264  27.042  31.943  12.912
41939W        W14265  38.019  39.952  12.828
41940W        W14266  41.020  16.582   3.766
41941W        W14267  32.513  28.165   2.232
41942W        W14268  27.682  25.195  13.375
41943W        W14269  26.699  33.470  14.343
41944W        W14270  38.354  32.436   4.620
41945W        W14271  36.571  31.003   3.290
41946W        W14272  23.587  17.734   1.760
41947W        W14273  27.614   9.159  14.986
41948W        W14274   5.362  34.061  11.982
41949W        W14275  12.191  26.209   4.716
41950W        W14276  20.228  16.767  11.440
41951W        W14277  26.164  32.427  14.297
41952W        W14278   1.269  16.622   2.322
41953W        W14279  21.262  37.050  10.916
41954W        W14280  43.271  21.135  13.478
41955W        W14281  14.602  28.014   3.301
41956W        W14282  41.903  31.487   0.922
41957W        W14283  44.920   7.906   2.243
41958W        W14284   3.736  26.703   1.328
41959W        W14285  18.717  38.026  10.528
41960W        W14286  34.438  15.703   0.921
41961W        W14287  10.230  30.649  14.019
41962W        W14288  29.565  41.039  13.803
41963W        W14289  23.691  23.006  13.480
41964W        W14290  36.456  16.731  14.810
41965W        W14291  44.338  39.442   4.806
41966W        W14292  34.487  29.577   3.320
41967W        W14293  43.772  19.594  12.933
41968W        W14294  33.568  16.100  13.365
41969W        W14295  32.961  22.208  14.300
41970W        W14296  44.882  37.474   3.362
41971W        W14297  16.097   8.749   3.819
41972W        W14298  12.321  37.347  12.036
41973W        W14299  16.733  41.833   4.704
41974W        W14300   4.857  12.750  13.354
41975W        W14301  40.807  20.212  13.979
41976W        W14302  17.224   6.763  14.405
41977W        W14303   9.387  14.786  12.503
41978W        W14304   8.796   4.448  10.948
41979W        W14305  43.463  12.171  10.498
41980W        W14306  38.479  13.822   1.265
41981W        W14307  39.322  38.022   0.966
41982W        W14308  32.896   9.301   4.255
41983W        W14309  43.428  23.001   4.346
41984W        W14310  10.281  22.562  14.444
41985W        W14311   6.401  41.867   2.210
41986W        W14312  43.331  37.351  11.113
41987W        W14313  24.598   6.386  11.522
41988W        W14314   5.903  20.759   3.245
41989W        W14315  38.543  28.931  12.920
41990W        W14316  40.806  43.374  11.106
41991W        W14317  36.462  16.120   1.890
41992W        W14318  38.565  20.139  12.877
41993W        W14319  33.943  21.748   2.758
41994W        W14320  10.264  28.460   2.815
41995W        W14321  37.503   6.916  12.981
41996W        W14322  17.237  28.005  12.883
41997W        W14323  40.815  22.602   1.767
41998W        W14324   3.379  41.794  11.066
41999W        W14325  29.425  42.890  13.548
42000W        W14326  17.630  15.096  14.363
42001W        W14327  12.771  27.121   5.584
42002W        W14328  14.624  16.798  12.509
42003W        W14329  16.105   2.234  11.413
42004W        W14330   9.647  28.478  12.079
42005W        W14331  33.908  11.335  11.898
42006W        W14332  13.193   4.293  14.445
42007W        W14333  26.055  33.626  11.873
42008W        W14334  40.409   6.291   5.111
42009W        W14335  23.183  38.362  11.382
42010W        W14336   5.336  31.118  14.907
42011W        W14337  37.878  11.658  12.030
42012W        W14338  39.819  28.465   0.895
42013W        W14339  31.934  25.607  11.959
42014W        W14340  14.330  17.275   0.397
42015W        W14341  40.329  21.716   2.353
42016W        W14342   5.886  39.343  11.888
42017W        W14343  44.495  16.670   3.701
42018W        W14344   2.247  31.956   4.323
42019W        W14345  20.754  11.790  11.433
42020W        W14346  11.243   9.242  12.505
42021W        W14347  17.702  24.107  12.087
42022W        W14348   0.395  42.368  14.963
42023W        W14349  31.521  27.515   4.748
42024W        W14350  15.128  25.146   1.237
42025W        W14351   9.395  42.457   2.781
42026W        W14352  31.924  27.559  14.436
42027W        W14353  23.515  35.379   0.257
42028W        W14354  44.451  22.506  13.310
42029W        W14355  41.414  40.354  12.019
42030W        W14356  40.930  16.174   1.385
42031W        W14357  26.094  39.520   4.213
42032W        W14358  38.474  18.239   2.803
42033W        W14359   3.879  21.693  11.864
42034W        W14360  39.479  28.629  10.947
42035W        W14361  31.104  17.115  11.588
42036W        W14362   4.789   9.184   2.352
42037W        W14363  21.104  21.090   9.956
42038W        W14364  43.364   1.243  14.978
42039W        W14365  13.163  41.389   4.347
42040W        W14366  17.173   3.754  11.604
42041W        W14367  26.180  11.829  13.468
42042W        W14368   4.918   4.743  11.433
42043W        W14369  23.081  10.158  12.060
42044W        W14370   0.486  17.794   4.284
42045W        W14371   9.676  36.414   3.794
42046W        W14372  41.494  15.259   3.804
42047W        W14373  31.530  13.290   2.716
42048W        W14374  11.674   3.339   0.327
42049W        W14375  18.261  25.097   2.752
42050W        W14376  34.492   5.720   4.212
42051W        W14377  24.175  17.696   0.903
42052W        W14378   4.751   4.232  10.561
42053W        W14379  25.562  11.222  11.122
42054W        W14380  29.057   7.892  11.911
42055W        W14381  25.153  26.521  12.850
42056W        W14382  24.522  10.277   4.730
42057W        W14383   4.747   2.285  10.571
42058W        W14384   6.824   1.466  13.525
42059W        W14385  41.440   9.860   1.804
42060W        W14386  37.990  26.688  13.479
42061W        W14387  20.606   1.336  13.992
42062W        W14388  18.763  23.676  14.943
42063W        W14389  39.817   0.923  14.864
42064W        W14390  44.435   4.445   3.315
42065W        W14391  42.429   4.405   2.354
42066W        W14392   9.652  35.571   2.850
42067W        W14393   0.408  23.634  13.345
42068W        W14394  38.353  43.919   0.883
42069W        W14395   6.707  30.958  13.531
42070W        W14396  24.482  14.769  14.297
42071W        W14397  16.211  21.257  10.640
42072W        W14398  31.613  18.622  10.593
42073W        W14399  11.836  12.615  12.505
42074W        W14400  16.233  23.635  12.557
42075W        W14401  16.102   5.234   2.263
42076W        W14402  19.205  41.966  14.871
42077W        W14403  21.650  25.607  10.600
42078W        W14404  44.463  44.893   1.333
42079W        W14405  31.453   2.385  12.418
42080W        W14406  41.495   7.863  10.452
42081W        W14407  21.250  10.242   5.121
42082W        W14408  36.531  30.594  14.933
42083W        W14409  36.483  22.650   3.804
42084W        W14410  19.139  15.591  14.275
42085W        W14411  40.540   9.780  13.311
42086W        W14412  12.675  33.901   0.813
42087W        W14413  39.839  24.651  12.558
42088W        W14414  30.038  39.018  14.962
42089W        W14415  41.822  19.611  10.068
42090W        W14416  35.557   1.774  12.450
42091W        W14417  44.342  26.593   3.258
42092W        W14418  19.054  41.326  13.025
42093W        W14419  25.547  14.804   2.361
42094W        W14420  20.203   3.710  10.945
42095W        W14421  27.025  29.650  14.962
42096W        W14422  30.945  39.411  11.072
42097W        W14423  22.180   9.296   2.313
42098W        W14424  24.483   2.435  10.420
42099W        W14425  15.726  27.566  12.930
42100W        W14426  23.675  23.015   4.720
42101W        W14427  22.205  17.734   3.642
42102W        W14428  43.947  17.635  12.862
42103W        W14429  42.320   5.399   1.245
42104W        W14430   5.782  44.853  12.966
42105W        W14431  40.375   1.735  12.543
42106W        W14432  27.614  25.128   4.603
42107W        W14433  41.792  21.544   1.880
42108W        W14434  31.589  26.966  10.480
42109W        W14435   8.780  20.677  12.388
42110W        W14436  29.971   7.316   2.751
42111W        W14437   7.864   8.349  13.477
42112W        W14438  15.124  40.506  13.048
42113W        W14439   7.769  31.411  14.282
42114W        W14440  40.815   4.734   1.278
42115W        W14441  42.330  18.557  12.495
42116W        W14442  22.100  37.490   2.693
42117W        W14443   0.264  16.270  14.409
42118W        W14444  26.010  43.342  11.469
42119W        W14445  43.361  41.009   3.684
42120W        W14446  24.086  12.125   0.818
42121W        W14447  42.990  34.965   3.304
42122W        W14448  21.021  12.653  12.075
42123W        W14449  18.708  37.338  12.852
42124W        W14450  31.957  32.117   1.901
42125W        W14451   3.828  10.735  10.641
42126W        W14452   2.426  16.252  13.046
42127W        W14453  24.161  39.856  10.501
42128W        W14454   2.397  29.547  11.412
42129W        W14455  38.044  10.199   2.310
42130W        W14456   7.302  29.507  11.382
42131W        W14457  32.476  17.680   0.335
42132W        W14458   6.899  22.634   2.374
42133W        W14459  35.392   6.866   3.342
42134W        W14460  22.247  43.981   3.800
42135W        W14461   4.245  25.539  14.296
42136W        W14462  32.462   5.914   2.796
42137W        W14463  29.026   0.266   1.272
42138W        W14464  30.143  34.106  12.996
42139W        W14465  19.659  42.001  14.351
42140W        W14466  37.357  13.268  11.377
42141W        W14467   8.662  10.214   0.910
42142W        W14468  29.524  39.423   1.417
42143W        W14469  37.901  26.628   2.323
42144W        W14470   5.409  10.748  10.481
42145W        W14471  27.451  23.519  10.453
42146W        W14472  16.787  37.361   1.926
42147W        W14473   9.279  37.902  12.570
42148W        W14474   1.324  25.643  13.535
42149W        W14475  24.988   9.700   3.698
42150W        W14476  32.571   1.782   0.949
42151W        W14477   2.874   2.241  14.803
42152W        W14478  37.517   2.374   2.212
42153W        W14479  37.515  22.590   2.702
42154W        W14480   5.415   7.873   0.872
42155W        W14481  15.304   6.428  13.851
42156W        W14482   5.744   3.353   4.128
42157W        W14483  37.039   7.396  14.871
42158W        W14484  15.307  37.465   3.339
42159W        W14485  20.125  40.511  12.370
42160W        W14486   8.207  11.284   2.276
42161W        W14487   7.281  30.137   4.724
42162W        W14488  21.261  31.437  12.452
42163W        W14489  17.289  24.639  10.959
42164W        W14490  11.739  18.225  11.882
42165W        W14491   6.368  11.675   0.726
42166W        W14492  27.090  44.299  11.089
42167W        W14493  24.578  31.505   0.804
42168W        W14494  29.637  13.649  11.921
42169W        W14495  33.029   1.914  13.988
42170W        W14496  11.132  15.270   0.284
42171W        W14497  30.077  19.554   2.840
42172W        W14498   6.358  19.244   0.443
42173W        W14499  26.649  33.123   4.158
42174W        W14500  24.498  14.671  11.531
42175W        W14501  13.280   7.328  14.916
42176W        W14502  43.988  18.082   1.846
42177W        W14503  18.788  36.037   1.874
42178W        W14504  20.729  17.689  10.942
42179W        W14505   0.266   7.295  14.331
42180W        W14506  39.890  15.312   0.274
42181W        W14507   3.954  39.033   3.862
42182W        W14508  31.445  25.592   4.691
42183W        W14509  28.116  25.084   1.731
42184W        W14510  26.612   1.818  10.508
42185W        W14511  28.526  44.308  10.477
42186W        W14512  32.986  33.473   4.321
42187W        W14513   0.803  41.370   4.163
42188W        W14514  17.697  37.416  11.977
42189W        W14515  33.078  41.459  13.498
42190W        W14516  12.277  26.032  11.020
42191W        W14517   2.270  24.579   0.770
42192W        W14518   9.256  13.223  13.964
42193W        W14519  14.158  26.470  10.913
42194W        W14520  35.420   3.860  12.389
42195W        W14521  22.531  18.181  14.375
42196W        W14522  21.257  10.675   2.412
42197W        W14523  23.155  20.154  13.014
42198W        W14524   5.866  10.271   2.360
42199W        W14525  14.713  14.250  14.482
42200W        W14526   0.317  14.253  10.426
42201W        W14527   4.374  28.017  10.512
42202W        W14528   2.957  17.168  10.423
42203W        W14529  44.876  44.446   4.601
42204W        W14530  40.530  42.864   1.292
42205W        W14531  28.506  17.594  14.382
42206W        W14532  37.359  35.101   1.741
42207W        W14533  36.349  26.163   3.836
42208W        W14534  29.542  30.961  10.556
42209W        W14535  29.935  18.123   0.265
42210W        W14536  34.583   0.333  12.887
42211W        W14537  35.371   6.371   3.371
42212W        W14538   1.397  15.612   3.159
42213W        W14539  43.985   1.791   2.820
42214W        W14540   6.823  33.947  10.577
42215W        W14541   1.949   2.387  12.381
42216W        W14542   7.726  17.744  14.927
42217W        W14543  39.424   7.346  11.455
42218W        W14544  12.148  22.208   1.416
42219W        W14545  32.448  24.109   0.478
42220W        W14546  13.805   8.751   0.905
42221W        W14547  12.160   2.760  13.367
42222W        W14548  40.530   3.309  14.848
42223W        W14549  40.411  19.040   2.773
42224W        W14550  16.234  44.835  11.072
42225W        W14551  22.213  18.212   3.769
42226W        W14552  37.558  43.953  14.398
42227W        W14553  24.517  32.574   2.341
42228W        W14554  42.029  29.076  11.915
42229W        W14555  37.408   6.848   2.227
42230W        W14556  33.011  32.083   4.794
42231W        W14557  22.185  36.486   4.319
42232W        W14558  41.939   0.284  14.318
42233W        W14559  38.050  21.618  11.562
42234W        W14560  44.855  31.910   4.721
42235W        W14561  43.322  18.693  14.365
42236W        W14562   5.399  27.138   2.389
42237W        W14563  38.030  25.054  12.061
42238W        W14564  12.135   2.872   2.410
42239W        W14565   6.413   5.802   3.760
42240W        W14566   7.761  29.108  14.324
42241W        W14567  25.142  31.443  10.599
42242W        W14568   2.915  25.587   4.289
42243W        W14569  10.837  27.103  10.557
42244W        W14570  35.560   5.382   4.249
42245W        W14571  43.316  36.990  10.592
42246W        W14572  17.582  31.098   0.265
42247W        W14573  42.339  42.005  11.123
42248W        W14574  27.635   2.307   3.639
42249W        W14575  28.061  42.517  10.937
42250W        W14576  20.195  12.835   1.867
42251W        W14577  38.519  35.105  10.497
42252W        W14578  10.664  25.047  11.943
42253W        W14579  14.282   3.823  10.497
42254W        W14580  16.310  29.556   3.327
42255W        W14581  30.461  22.537   1.230
42256W        W14582  25.085  32.551   1.390
42257W        W14583  14.761   0.249  14.781
42258W        W14584  12.789  40.881   0.251
42259W        W14585   1.817  26.549   2.867
42260W        W14586  42.955  20.584  12.092
42261W        W14587  32.039  40.002   0.757
42262W        W14588  43.455   0.803  12.850
42263W        W14589  11.161  24.512   3.202
42264W        W14590  44.882   3.458  14.437
42265W        W14591  19.713  20.146   2.728
42266W        W14592  19.045  15.325  12.376
42267W        W14593  26.520  26.189  10.569
42268W        W14594  26.026   0.903   3.799
42269W        W14595  42.393  39.444   0.313
42270W        W14596  36.020  12.768   0.345
42271W        W14597  38.033  37.493   1.867
42272W        W14598  39.991  38.450   3.153
42273W        W14599  14.144  11.857  12.927
42274W        W14600  15.594   2.389  13.997
42275W        W14601  22.700  34.018  13.054
42276W        W14602  36.514  18.626   0.251
42277W        W14603  10.228  25.215  10.427
42278W        W14604  30.419  32.625   0.762
42279W        W14605  40.447  42.784  11.117
42280W        W14606  26.015  16.219   2.754
42281W        W14607  12.309  41.836  11.449
42282W        W14608  23.727  27.970   3.283
42283W        W14609  29.570   1.903   1.931
42284W        W14610  11.285  30.982   2.393
42285W        W14611  13.782  43.866   0.955
42286W        W14612  23.659  12.756   3.821
42287W        W14613  24.099  40.317   5.253
42288W        W14614  23.030  10.778  13.528
42289W        W14615  29.559  26.607  13.877
42290W        W14616   2.917  11.678   9.464
42291W        W14617  12.289   9.716  14.515
42292W        W14618  31.508  21.045  14.917
42293W        W14619   7.805  10.683   3.157
42294W        W14620  37.984   2.841  11.084
42295W        W14621  32.602  33.626  10.486
42296W        W14622   2.769  33.074  14.313
42297W        W14623   6.727  27.689   3.236
42298W        W14624  19.644  10.288  13.045
42299W        W14625   4.893  30.040  13.942
42300W        W14626  17.764  42.798  11.441
42301W        W14627  43.475  28.065  12.996
42302W        W14628  41.884   2.354   2.288
42303W        W14629  37.936  37.388   3.652
42304W        W14630   1.337  17.076   0.735
42305W        W14631  31.616  13.297  12.554
42306W        W14632   3.885  19.675  13.490
42307W        W14633  10.211  29.945   2.704
42308W        W14634  21.735   6.821  11.084
42309W        W14635  18.115  18.700   3.713
42310W        W14636  28.555  27.658   1.364
42311W        W14637   6.921  17.166  11.121
42312W        W14638  13.625   0.970   0.737
42313W        W14639   0.442  42.922  14.304
42314W        W14640  41.983  20.140  12.424
42315W        W14641  18.680  10.324  13.503
42316W        W14642   6.384  32.069  11.061
42317W        W14643  34.401  30.150   3.632
42318W        W14644  30.143  10.876  11.391
42319W        W14645   6.709  41.356   0.752
42320W        W14646  29.654   3.460   9.955
42321W        W14647  28.555  27.029  13.379
42322W        W14648  17.064  44.986   1.394
42323W        W14649   5.750   1.278  13.864
42324W        W14650  38.351   5.295   2.233
42325W        W14651  36.039   7.840  12.562
42326W        W14652   4.448  35.072   2.806
42327W        W14653  10.246  24.724   2.813
42328W        W14654   4.413  37.039  13.887
42329W        W14655  26.623  22.160   2.869
42330W        W14656   1.835  27.094   4.698
42331W        W14657  26.563   2.927  12.937
42332W        W14658  39.378   4.282  11.561
42333W        W14659  32.009  33.610  14.356
42334W        W14660  18.249   9.779   4.668
42335W        W14661  20.168  32.407   0.477
42336W        W14662  42.805  22.534  13.003
42337W        W14663  20.679  21.051  11.917
42338W        W14664  42.781  28.632  12.038
42339W        W14665  19.758  43.421  11.869
42340W        W14666  39.509  35.400  13.545
42341W        W14667  19.098  16.085  11.128
42342W        W14668  18.104  14.182  10.481
42343W        W14669  28.583  38.567   4.687
42344W        W14670  19.579   7.740   2.376
42345W        W14671  44.389  20.553   0.358
42346W        W14672  11.179  27.012  14.974
42347W        W14673  24.491  39.930   5.572
42348W        W14674   9.794  13.610   1.253
42349W        W14675  33.402   6.816  12.873
42350W        W14676  41.370  17.747   0.474
42351W        W14677  30.459  41.408  12.059
42352W        W14678   0.337  11.660  10.438
42353W        W14679  15.306  36.950   2.666
42354W        W14680  19.689  36.983   2.803
42355W        W14681  24.612   2.910  13.842
42356W        W14682  32.046  22.620  14.820
42357W        W14683   9.818  25.484   3.800
42358W        W14684  25.016  19.240   0.443
42359W        W14685  32.938   1.470  11.454
42360W        W14686   8.773  17.771  12.340
42361W        W14687  19.588   0.849   3.343
42362W        W14688  36.997  31.126  14.893
42363W        W14689   4.849  15.292  10.560
42364W        W14690  37.947  31.128   1.300
42365W        W14691  26.110  44.851  12.946
42366W        W14692   6.890  40.432  10.583
42367W        W14693   4.332   4.254   5.641
42368W        W14694  37.414   4.251   3.365
42369W        W14695  36.955  27.618   4.167
42370W        W14696  20.609   0.308   1.730
42371W        W14697  43.406   3.220  10.020
42372W        W14698  16.729  21.171   0.478
42373W        W14699   3.883  34.545   4.617
42374W        W14700  32.451   4.770   4.305
42375W        W14701  25.134  43.922   4.810
42376W        W14702  15.583  30.523   1.777
42377W        W14703  22.653  21.706  10.051
42378W        W14704  24.703  20.572  13.408
42379W        W14705  25.119   6.283  11.482
42380W        W14706  16.150   2.346   0.748
42381W        W14707  10.844   6.809   1.880
42382W        W14708  11.208  35.598   4.172
42383W        W14709  35.955  26.703   1.697
42384W        W14710  31.896  15.087  11.111
42385W        W14711  16.761  30.950  12.955
42386W        W14712  17.689  36.452  11.071
42387W        W14713  35.368  23.736   0.769
42388W        W14714   2.312   3.379  13.417
42389W        W14715   1.828   1.747  13.325
42390W        W14716   1.375  23.174   1.243
42391W        W14717  40.325  13.223  13.414
42392W        W14718   1.380   0.799  14.385
42393W        W14719  33.435   2.254   0.952
42394W        W14720  40.367  42.474   4.815
42395W        W14721  34.864  20.587  11.031
42396W        W14722  37.360  44.807  13.826
42397W        W14723  13.189  12.287   4.169
42398W        W14724  22.030  44.494   1.731
42399W        W14725  40.359  16.261   4.171
42400W        W14726   1.433   0.361  11.552
42401W        W14727  29.648  34.478   0.838
42402W        W14728  24.592  39.323   4.194
42403W        W14729  39.832  23.685  14.934
42404W        W14730  16.622   8.794   3.663
42405W        W14731  36.464   6.258   2.705
42406W        W14732  31.997  30.449  12.982
42407W        W14733  38.473  19.738   2.846
42408W        W14734  33.506   5.195   3.722
42409W        W14735  34.475  16.111  11.004
42410W        W14736  32.431  43.493   0.930
42411W        W14737   8.188   1.394   3.342
42412W        W14738  21.728  11.662  10.121
42413W        W14739  32.108   2.345  10.592
42414W        W14740  20.104  20.733  11.860
42415W        W14741  42.988   1.251   0.372
42416W        W14742  11.310  34.520   0.955
42417W        W14743   1.949  40.903  12.838
42418W        W14744   4.220  21.596   4.171
42419W        W14745  17.705  11.664  14.343
42420W        W14746  14.653  21.536   0.787
42421W        W14747  42.010  16.722  14.401
42422W        W14748  32.440  20.671  13.925
42423W        W14749  33.115  40.469  14.444
42424W        W14750  10.778  14.754  10.460
42425W        W14751   6.865  43.901  12.874
42426W        W14752  21.524   6.297   4.739
42427W        W14753  14.340  17.555  11.928
42428W        W14754   0.910  20.607  11.883
42429W        W14755  38.411  15.678  10.948
42430W        W14756   4.210  21.231   2.370
42431W        W14757  10.318  20.719  13.368
42432W        W14758  21.088  21.180  13.962
42433W        W14759   4.301  17.655  11.102
42434W        W14760  33.896  25.995  12.367
42435W        W14761  13.775   9.246   3.842
42436W        W14762  16.269  15.577   4.688
42437W        W14763  36.491   3.836   3.304
42438W        W14764  21.148  41.870  14.405
42439W        W14765   4.780  38.343  14.414
42440W        W14766   1.976  39.354  13.036
42441W        W14767  17.208  32.605  14.401
42442W        W14768  42.981  32.480  13.930
42443W        W14769   5.361  36.371   4.621
42444W        W14770  36.935  14.167   0.757
42445W        W14771  41.028   9.243  12.053
42446W        W14772  17.796  12.776   3.846
42447W        W14773   0.932  27.131  12.398
42448W        W14774   0.926   5.817  11.524
42449W        W14775  41.511  13.741   4.240
42450W        W14776  42.984  39.853  10.505
42451W        W14777   0.414  13.642  10.955
42452W        W14778  39.506  24.648  11.051
42453W        W14779   3.737  22.099   1.841
42454W        W14780  27.114   1.367  10.967
42455W        W14781  17.656  41.900  14.971
42456W        W14782  39.813  23.083  14.416
42457W        W14783  32.974  20.538  11.425
42458W        W14784  25.658  42.978   5.191
42459W        W14785  23.681  29.033   0.908
42460W        W14786  27.477  21.557   3.313
42461W        W14787  33.986   9.164   0.864
42462W        W14788  19.162  25.692   0.367
42463W        W14789  41.356   7.736   3.186
42464W        W14790  27.182   1.338  11.519
42465W        W14791   7.252  33.604   4.255
42466W        W14792  41.030   6.370   2.786
42467W        W14793  38.996   7.762   3.253
42468W        W14794  32.901   2.865   2.301
42469W        W14795   9.784  18.152   0.267
42470W        W14796  18.129  36.033   0.792
42471W        W14797  42.990  25.647  11.023
42472W        W14798  11.326  30.539  12.835
42473W        W14799  13.741  34.494  14.873
42474W        W14800  20.091  18.726   2.836
42475W        W14801   5.211  13.295   3.271
42476W        W14802  30.457   7.687   5.212
42477W        W14803  25.555  40.923  14.799
42478W        W14804  35.920  14.701   0.341
42479W        W14805  44.388  17.190  12.376
42480W        W14806  28.946  26.148   5.603
42481W        W14807  38.041  33.921  14.275
42482W        W14808  26.023  18.098  14.938
42483W        W14809  28.116   3.713  12.569
42484W        W14810   1.789   9.359   2.187
42485W        W14811   3.749  15.746  13.791
42486W        W14812  35.536  31.526   4.182
42487W        W14813  24.170  42.431   1.874
42488W        W14814  24.648  25.622  13.063
42489W        W14815  25.175   9.716   1.826
42490W        W14816  19.633  19.128   2.345
42491W        W14817  13.693   2.319   1.437
42492W        W14818  31.012  23.223   1.255
42493W        W14819  12.257  39.026   1.333
42494W        W14820  15.731   8.801  13.380
42495W        W14821   5.355  19.744   4.605
42496W        W14822   3.268  37.405   0.283
42497W        W14823   6.380  16.772  13.486
42498W        W14824   3.864  23.719   1.705
42499W        W14825  42.857   2.381  10.438
42500W        W14826  15.794  10.351  11.580
42501W        W14827  13.603   4.433  11.413
42502W        W14828   8.700  16.805   2.415
42503W        W14829  17.556  42.977  10.438
42504W        W14830   2.770   4.278  14.923
42505W        W14831  22.144   8.758   1.286
42506W        W14832  18.229   7.771  14.362
42507W        W14833  37.448  32.416   3.327
42508W        W14834  27.455  15.671   1.314
42509W        W14835  13.336  18.646  12.464
42510W        W14836   9.725  41.966   2.334
42511W        W14837  12.167  21.657   1.933
42512W        W14838  36.505   2.895  13.432
42513W        W14839  36.052   3.442  14.847
42514W        W14840   4.796  14.188  12.847
42515W        W14841  10.310  41.536   0.897
42516W        W14842  28.142   5.373   4.605
42517W        W14843  34.453   6.407  10.930
42518W        W14844  18.655  41.922   4.328
42519W        W14845  20.562  37.921   4.191
42520W        W14846  24.713   9.708  10.569
42521W        W14847  31.528  44.413  12.466
42522W        W14848  38.366  21.073   2.200
42523W        W14849  10.364  30.632   3.854
42524W        W14850   0.310  43.396  14.438
42525W        W14851   3.279  42.837   4.733
42526W        W14852  19.733  35.852   2.376
42527W        W14853  30.457  14.815   2.737
42528W        W14854  42.010  30.031   2.302
42529W        W14855   4.436  36.568  12.477
42530W        W14856   8.351  19.733  10.639
42531W        W14857  15.792   7.416   5.244
42532W        W14858  21.557  41.449  13.996
42533W        W14859  33.932   9.242   2.828
42534W        W14860  18.120   5.763   2.762
42535W        W14861  13.675   7.801   0.938
42536W        W14862  30.159  37.901   2.742
42537W        W14863  39.323  30.556   0.444
42538W        W14864   4.379  20.751   3.363
42539W        W14865  44.983  30.475  14.402
42540W        W14866  30.014  42.491  10.988
42541W        W14867   8.338  15.291  12.559
42542W        W14868  18.145  24.180   2.221
42543W        W14869  14.289  23.143  12.504
42544W        W14870  18.275  22.109  14.889
42545W        W14871  22.181   9.858  11.001
42546W        W14872  33.064  18.657   1.903
42547W        W14873   4.795  11.372  13.499
42548W        W14874  27.149  33.934  10.989
42549W        W14875  43.977  30.531   2.719
42550W        W14876   9.245   7.320  10.064
42551W        W14877  10.150  16.606   1.756
42552W        W14878   0.765  26.668  13.525
42553W        W14879   4.826  42.977   4.682
42554W        W14880  32.392   5.201  14.335
42555W        W14881  43.982  15.299   0.727
42556W        W14882  39.395   1.938  12.367
42557W        W14883  20.570  36.425   1.829
42558W        W14884  21.021  35.471  12.999
42559W        W14885  29.114   5.792  13.907
42560W        W14886  41.530  41.872   0.446
42561W        W14887  43.887  20.535  14.510
42562W        W14888  27.654  22.711  12.993
42563W        W14889  36.509  14.746  12.375
42564W        W14890  14.793  28.955   3.651
42565W        W14891   5.396  38.837   2.701
42566W        W14892  43.004   2.404  10.979
42567W        W14893  16.243  28.649   4.219
42568W        W14894  35.100  40.809  14.927
42569W        W14895   1.892   3.942   5.223
42570W        W14896  30.558  38.887  11.898
42571W        W14897  16.096  44.997  10.600
42572W        W14898  22.045  33.998   2.417
42573W        W14899  22.540  44.502  14.871
42574W        W14900  16.134   5.280   2.858
42575W        W14901  21.211  44.282   5.269
42576W        W14902  35.096  35.101   9.507
42577W        W14903   6.199  24.994   1.228
42578W        W14904   1.321   9.685  11.124
42579W        W14905  19.563  30.456   3.301
42580W        W14906  37.046   1.746   0.419
42581W        W14907  27.004   7.406   4.815
42582W        W14908  12.174  28.115  12.427
42583W        W14909  33.896  21.560   1.258
42584W        W14910  30.097  29.970  13.924
42585W        W14911  26.609  12.854   0.756
42586W        W14912  29.430   4.783  10.601
42587W        W14913  24.132  31.427   2.864
42588W        W14914   6.270  21.039  11.939
42589W        W14915  36.088  23.627  10.895
42590W        W14916  37.571  29.171   0.935
42591W        W14917  31.520  12.174  13.992
42592W        W14918   6.328   9.770  11.059
42593W        W14919  40.510  26.638   0.326
42594W        W14920  23.608  34.042   2.874
42595W        W14921  15.628  27.175   1.784
42596W        W14922  34.458  24.175   4.166
42597W        W14923  39.849   5.820  12.830
42598W        W14924  19.759  35.858   3.763
42599W        W14925   3.856  11.334   3.834
42600W        W14926  43.281  30.054   0.727
42601W        W14927  21.640  39.411  11.114
42602W        W14928  10.173  23.532   1.711
42603W        W14929  37.453  32.135   2.363
42604W        W14930  39.482  25.472  12.023
42605W        W14931  21.091  21.519   4.822
42606W        W14932  40.053   6.815  13.035
42607W        W14933   0.969  35.965  14.292
42608W        W14934  24.978   7.314   3.267
42609W        W14935  42.316  43.938  13.327
42610W        W14936  18.275  14.172  13.978
42611W        W14937  44.832  42.526   4.142
42612W        W14938  32.553  42.932   5.222
42613W        W14939  21.115  44.924   4.630
42614W        W14940  15.153  15.779  12.578
42615W        W14941  23.089   2.851   1.325
42616W        W14942  16.785  41.293  11.921
42617W        W14943   8.279   2.459  13.356
42618W        W14944  30.559  15.121  12.541
42619W        W14945  26.552  43.887  14.925
42620W        W14946  34.019   8.806  13.503
42621W        W14947   5.257   5.910  10.524
42622W        W14948  43.514   3.881   3.724
42623W        W14949  42.420   9.266   4.236
42624W        W14950  39.955  29.040   4.687
42625W        W14951  25.577  39.824   3.357
42626W        W14952  22.541  21.733   1.316
42627W        W14953  31.486  20.128  14.461
42628W        W14954  10.636   5.357  11.094
42629W        W14955   4.218  27.121  10.407
42630W        W14956   8.214  24.161  12.569
42631W        W14957  22.566  29.652   4.150
42632W        W14958  28.960  33.489  12.065
42633W        W14959  22.561  31.637   2.684
42634W        W14960  25.508  44.955  13.934
42635W        W14961  13.166  13.338  12.078
42636W        W14962  19.676  25.027  10.593
42637W        W14963   0.882  15.324   1.296
42638W        W14964   8.210  37.953   0.249
42639W        W14965   5.313  27.047  11.879
42640W        W14966   1.258  18.714   3.724
42641W        W14967  17.671   7.291  13.433
42642W        W14968  30.994  25.529  14.876
42643W        W14969  40.980  44.981  11.101
42644W        W14970  30.117   8.190  10.937
42645W        W14971   5.293  11.286   1.279
42646W        W14972   3.435  13.673   1.738
42647W        W14973  12.725  40.507  12.500
42648W        W14974   1.429  42.022   4.173
42649W        W14975  35.571  42.367  14.406
42650W        W14976  10.719  23.126  13.494
42651W        W14977  22.525  26.558  13.461
42652W        W14978   3.337  33.454   2.254
42653W        W14979  13.774  16.096   3.265
42654W        W14980   4.419   3.331   5.724
42655W        W14981  42.018  27.157  12.955
42656W        W14982  14.697  26.511   4.768
42657W        W14983  39.443  25.996   0.819
42658W        W14984  30.072  30.938  13.061
42659W        W14985  20.750  20.647  11.945
42660W        W14986  32.635   7.247   4.805
42661W        W14987  44.487  37.369  10.551
42662W        W14988  28.184  42.003  14.896
42663W        W14989   8.270  12.795   0.463
42664W        W14990  41.031  41.843  12.930
42665W        W14991  30.962  10.156  12.976
42666W        W14992   1.963   6.752   4.137
42667W        W14993  22.022  28.665  14.397
42668W        W14994   2.808   4.888   9.641
42669W        W14995  18.194  24.540  14.949
42670W        W14996  25.177  14.266  11.408
42671W        W14997  15.280  12.827  11.079
42672W        W14998  14.831  39.061   1.703
42673W        W14999  43.368   0.358   1.395
42674W        W15000  16.136   2.923  13.522
42675W        W15001  32.479  39.424   4.184
42676W        W15002  40.835  33.577  13.913
42677W        W15003   4.926  19.547   1.914
42678W        W15004  18.590   8.326   3.337
42679W        W15005  10.692   3.437   2.395
42680W        W15006   8.874  29.576   0.824
42681W        W15007  18.118  26.103   0.817
42682W        W15008  36.059  41.442   1.852
42683W        W15009  22.674  34.566  12.830
42684W        W15010  42.496  43.955   4.351
42685W        W15011  17.073  25.100  13.791
42686W        W15012  21.229  19.146  10.624
42687W        W15013   0.400  36.096   1.213
42688W        W15014  28.958  19.278   1.800
42689W        W15015  22.550  25.552  10.990
42690W        W15016   0.290  15.683  12.410
42691W        W15017  24.510  19.187   2.247
42692W        W15018  25.517  43.427  14.429
42693W        W15019   6.730  36.578   1.286
42694W        W15020  10.368  41.498   3.710
42695W        W15021   2.910   4.280   0.760
42696W        W15022  32.470  42.478  14.422
42697W        W15023  25.092  26.970  13.874
42698W        W15024  36.443   0.326   2.895
42699W        W15025  40.314  19.594  13.837
42700W        W15026  14.335  12.326  11.013
42701W        W15027  39.416  16.316  13.374
42702W        W15028  11.320   0.976  11.610
42703W        W15029  28.670  16.574   1.408
42704W        W15030  31.430  21.669  13.012
42705W        W15031  21.646  44.354   4.815
42706W        W15032  25.027  23.627  13.835
42707W        W15033  32.046   3.248   2.343
42708W        W15034  38.007  15.628   4.771
42709W        W15035  40.398  19.606   1.712
42710W        W15036  34.566  15.175   1.721
42711W        W15037  25.964  11.757  10.595
42712W        W15038  34.071  44.489  10.124
42713W        W15039  24.145  17.245   3.819
42714W        W15040  20.542  15.802  14.971
42715W        W15041  43.012  27.978  13.952
42716W        W15042   4.362  36.995   3.316
42717W        W15043  25.192  26.590  10.005
42718W        W15044  10.203  22.551   2.811
42719W        W15045   8.730  25.162  11.999
42720W        W15046  26.181  33.892   0.828
42721W        W15047  30.487  21.599  12.568
42722W        W15048  43.295  36.415   0.376
42723W        W15049  39.918  27.629   0.360
42724W        W15050  12.122  38.000   2.374
42725W        W15051  20.248  14.126   0.263
42726W        W15052   3.451   2.866   0.473
42727W        W15053  35.397  33.104   9.501
42728W        W15054   0.320  32.504  13.466
42729W        W15055  29.603  32.637  14.789
42730W        W15056   1.780  36.907  13.820
42731W        W15057  20.639  23.652  12.438
42732W        W15058  29.531   4.259  14.421
42733W        W15059  34.991   2.876   1.278
42734W        W15060   6.692  13.106   2.769
42735W        W15061  24.171   3.789   0.243
42736W        W15062   9.798  20.064  10.410
42737W        W15063  10.335   4.258  11.500
42738W        W15064   2.281   8.775   1.890
42739W        W15065  31.141  10.636  10.588
42740W        W15066  18.240   6.392  11.864
42741W        W15067   1.897  28.033  11.888
42742W        W15068  35.075   3.216  13.893
42743W        W15069   4.289  37.862   4.680
42744W        W15070  21.113   1.430   2.795
42745W        W15071  16.603  31.462  12.392
42746W        W15072   4.714  21.174   1.360
42747W        W15073   3.433  27.520  10.506
42748W        W15074  17.296   6.393  13.900
42749W        W15075  12.296  23.036  11.092
42750W        W15076  28.526  44.388  10.077
42751W        W15077  22.240  22.048  14.794
42752W        W15078   2.801  33.109   3.207
42753W        W15079   0.342   3.902   2.779
42754W        W15080   3.246  13.209   0.415
42755W        W15081  22.168  17.634  13.872
42756W        W15082  32.055  24.510   3.370
42757W        W15083  33.996  33.612  12.823
42758W        W15084  24.607  15.680   4.802
42759W        W15085  24.574  20.032   3.168
42760W        W15086   3.338  42.896   0.853
42761W        W15087  18.070  17.693   4.803
42762W        W15088   6.302  23.072   0.839
42763W        W15089  40.983  36.366   1.401
42764W        W15090  17.256  25.552  10.962
42765W        W15091  41.498   8.370   3.189
42766W        W15092  41.864  44.009   4.744
42767W        W15093   1.276  35.406   2.896
42768W        W15094  36.994  43.811   1.361
42769W        W15095  16.797  44.404   0.764
42770W        W15096  17.142  33.442  14.422
42771W        W15097  30.615  28.634  11.604
42772W        W15098  14.761  11.280   1.751
42773W        W15099  33.381  16.659  10.642
42774W        W15100   2.388  28.502  11.011
42775W        W15101   4.425  20.055  13.389
42776W        W15102  35.415  10.816  12.900
42777W        W15103  17.772  39.423  12.040
42778W        W15104   1.451  23.080  13.944
42779W        W15105  20.229  18.118  10.426
42780W        W15106  33.070  41.479  12.019
42781W        W15107  27.048  30.549   3.270
42782W        W15108  43.397   8.762   1.869
42783W        W15109  22.114  21.153  13.385
42784W        W15110  19.676   4.699   0.790
42785W        W15111  39.329  26.693   1.851
42786W        W15112  22.671  44.821   2.234
42787W        W15113   6.296   5.342  10.539
42788W        W15114  24.522   9.711   0.480
42789W        W15115  14.334  28.073  11.975
42790W        W15116  15.205   7.206   4.130
42791W        W15117  36.899   2.940  11.125
42792W        W15118  10.334  26.046  14.448
42793W        W15119  11.234   2.836  14.418
42794W        W15120  26.048  30.027  12.347
42795W        W15121  21.242  12.287  12.418
42796W        W15122   5.874  13.253   4.261
42797W        W15123  24.637   5.905   3.209
42798W        W15124  25.622  10.237  14.771
42799W        W15125  39.477   9.371  11.997
42800W        W15126  35.869  28.075   1.742
42801W        W15127  31.577  18.572  14.942
42802W        W15128  38.031   4.432  10.922
42803W        W15129  44.957  12.321   4.275
42804W        W15130  26.066  15.654  12.903
42805W        W15131  29.627  24.159  13.404
42806W        W15132  15.677  37.515   3.183
42807W        W15133  24.546  10.745   3.236
42808W        W15134  33.965  37.362  14.929
42809W        W15135  38.980  35.565   2.837
42810W        W15136  23.665  11.677   1.435
42811W        W15137   4.256  34.388   0.951
42812W        W15138  40.316  13.841   1.349
42813W        W15139   8.819  39.364   1.322
42814W        W15140  42.985  16.072   3.193
42815W        W15141  44.414  33.002  10.433
42816W        W15142  28.103  44.488   1.826
42817W        W15143  35.529  12.837  13.951
42818W        W15144  20.741  12.823  11.419
42819W        W15145  24.649   1.955   4.645
42820W        W15146  22.097  18.287  13.509
42821W        W15147  30.032   1.251  12.388
42822W        W15148  15.199  44.007   3.681
42823W        W15149  19.251   6.682  12.890
42824W        W15150  35.905   2.933   2.818
42825W        W15151  39.941  14.101  14.001
42826W        W15152  38.978  38.476  14.873
42827W        W15153  13.214   9.761  11.568
42828W        W15154   9.174  41.395   1.881
42829W        W15155  33.585  42.007   1.280
42830W        W15156  11.804   8.657   2.842
42831W        W15157  17.194  42.349   3.784
42832W        W15158   7.750  10.705   1.869
42833W        W15159  34.444  10.823   3.379
42834W        W15160   3.905   3.287   2.282
42835W        W15161  16.265  44.807   2.838
42836W        W15162  37.084  19.704  12.010
42837W        W15163  23.715  44.308   1.799
42838W        W15164  33.506   3.948   0.913
42839W        W15165  21.231  26.172   3.376
42840W        W15166   8.378   1.747  11.402
42841W        W15167   1.269  29.149  12.554
42842W        W15168   4.714   0.961  13.796
42843W        W15169   7.904   0.985  12.432
42844W        W15170  37.913  14.754  13.853
42845W        W15171  39.814  32.924   0.816
42846W        W15172  10.211   1.410  12.420
42847W        W15173   5.867  32.397  12.496
42848W        W15174  21.082  23.026   0.362
42849W        W15175  35.058   0.803   4.140
42850W        W15176   1.866  32.412   1.703
42851W        W15177  20.145  32.885   2.197
42852W        W15178  39.545  44.964  11.077
42853W        W15179   9.790  13.764   2.663
42854W        W15180  13.785  20.050  11.445
42855W        W15181  17.295  13.647   4.138
42856W        W15182   6.791  14.180   4.330
42857W        W15183   5.336  29.934  14.359
42858W        W15184  27.992  43.391  12.891
42859W        W15185  21.668  13.185  14.814
42860W        W15186  35.887  30.458   3.239
42861W        W15187  40.420   4.418   0.317
42862W        W15188  22.621  40.848  12.358
42863W        W15189  20.250   4.766   1.276
42864W        W15190  33.618  21.179  12.836
42865W        W15191   1.904  38.023   4.739
42866W        W15192  23.023  39.977   5.306
42867W        W15193  29.145  28.544  10.485
42868W        W15194  17.793  17.681   0.774
42869W        W15195  43.433   3.808  12.824
42870W        W15196   8.211  43.968   4.655
42871W        W15197  22.526  23.557   9.949
42872W        W15198  13.149   2.756   1.350
42873W        W15199  30.156   2.426   4.657
42874W        W15200  35.998  39.858  11.028
42875W        W15201   0.433  37.834  13.050
42876W        W15202  12.732  31.644  13.523
42877W        W15203   6.712  37.378   4.611
42878W        W15204  33.508  36.424   0.778
42879W        W15205  37.894  30.539   2.181
42880W        W15206  23.551   0.937  11.569
42881W        W15207  36.383  24.707   0.743
42882W        W15208  26.504  27.650   2.801
42883W        W15209  14.608  12.766   1.868
42884W        W15210  35.459  34.504  11.056
42885W        W15211   0.267  23.594  12.823
42886W        W15212  10.225  30.926   4.805
42887W        W15213  26.134  14.282   1.316
42888W        W15214  26.000  10.297  10.957
42889W        W15215  12.762  31.556   3.308
42890W        W15216  38.434  42.858  14.872
42891W        W15217  38.513   3.955   4.328
42892W        W15218   7.812  18.178   1.885
42893W        W15219  31.552  29.540   1.807
42894W        W15220   6.250  30.464  11.989
42895W        W15221  28.944  15.233   4.203
42896W        W15222  10.877  23.985  11.535
42897W        W15223  23.638  44.483  13.995
42898W        W15224  16.216  43.949   2.734
42899W        W15225  18.774  22.135  13.842
42900W        W15226  41.516   9.307   4.757
42901W        W15227   6.286  42.856  14.394
42902W        W15228  39.501  30.563  13.956
42903W        W15229  43.820  29.475  14.814
42904W        W15230  34.442  39.955  13.361
42905W        W15231  26.200   7.689   0.845
42906W        W15232  14.311  14.116  10.623
42907W        W15233  18.163  37.547  11.035
42908W        W15234  36.974  22.598   2.884
42909W        W15235  11.731  35.390   2.193
42910W        W15236   9.658  36.955  10.632
42911W        W15237  13.281  36.053   5.203
42912W        W15238  30.052   5.693  11.533
42913W        W15239  24.510   4.259  10.460
42914W        W15240  21.044  44.958  14.452
42915W        W15241  21.169   6.278   1.420
42916W        W15242  25.545   8.318  11.567
42917W        W15243  11.692  26.173  11.995
42918W        W15244  34.566  32.619  10.504
42919W        W15245  19.273  13.110   0.877
42920W        W15246  33.989   5.435  13.944
42921W        W15247  40.871  15.744   2.376
42922W        W15248  31.130  14.640   3.651
42923W        W15249  26.105  22.249   4.310
42924W        W15250  29.063  17.639  13.999
42925W        W15251  29.970  31.599  10.909
42926W        W15252  11.742  43.391  13.063
42927W        W15253  11.815  41.813   3.280
42928W        W15254  29.483   5.365   3.662
42929W        W15255  34.034  42.916   3.276
42930W        W15256   3.785  10.157   0.291
42931W        W15257  36.955   6.365  14.296
42932W        W15258  32.611  26.652  13.515
42933W        W15259  39.381  41.890  11.977
42934W        W15260   8.779   8.848   1.241
42935W        W15261   5.768  38.395  12.009
42936W        W15262  37.922  22.234   0.917
42937W        W15263  33.491  36.497   2.376
42938W        W15264  25.203  15.145  11.985
42939W        W15265   8.215  24.621  14.400
42940W        W15266  20.108  19.141   0.464
42941W        W15267  37.442  35.442   0.367
42942W        W15268  23.720  12.754   0.297
42943W        W15269  44.001  32.970  14.809
42944W        W15270  31.460  41.497  13.904
42945W        W15271   9.210   1.337  10.990
42946W        W15272  22.029  13.319   1.240
42947W        W15273  41.532  32.079   0.823
42948W        W15274  42.782  35.481   1.275
42949W        W15275  33.132   5.751   4.263
42950W        W15276  17.174   8.657   1.356
42951W        W15277   7.343   4.885  13.846
42952W        W15278  23.168   4.754   4.191
42953W        W15279  11.169  41.363  11.561
42954W        W15280  41.416  21.107  11.484
42955W        W15281  28.954  34.392   1.430
42956W        W15282  39.335  23.538   4.305
42957W        W15283  27.022  42.464   3.709
42958W        W15284  39.504  41.836   0.940
42959W        W15285  20.168  24.512   3.800
42960W        W15286   9.249   3.221   4.660
42961W        W15287  18.726   6.248  10.977
42962W        W15288  24.721   5.760  14.486
42963W        W15289  25.983  10.674  14.376
42964W        W15290  16.713  20.574   3.653
42965W        W15291  37.945  34.036  11.500
42966W        W15292   7.210  10.338  12.032
42967W        W15293  38.451  18.071   1.390
42968W        W15294  39.887  10.829  14.294
42969W        W15295  44.490   3.396   3.254
42970W        W15296  29.084   0.323   0.284
42971W        W15297   1.473   6.216  12.987
42972W        W15298  12.662  31.109  14.814
42973W        W15299   5.311  28.123   3.318
42974W        W15300  37.460  30.142  12.934
42975W        W15301   4.427  32.940   2.703
42976W        W15302  22.165   3.859   1.240
42977W        W15303  34.405  18.294   1.371
42978W        W15304  21.682  37.937   5.097
42979W        W15305  25.501  18.670  14.882
42980W        W15306  34.401   2.788   1.391
42981W        W15307  29.479  43.333   4.343
42982W        W15308  19.285  44.424   2.354
42983W        W15309   9.244  25.706   1.743
42984W        W15310  27.645  41.790  14.810
42985W        W15311  14.751  43.298  10.419
42986W        W15312  32.004  33.109   0.739
42987W        W15313   1.392  18.122   1.793
42988W        W15314  42.414   5.274   3.843
42989W        W15315  19.188  11.295   0.814
42990W        W15316  37.079  41.325   0.440
42991W        W15317  22.105   9.198  10.643
42992W        W15318   0.953  11.822  10.138
42993W        W15319   9.218  10.238   1.817
42994W        W15320   8.674   8.700   0.879
42995W        W15321  11.811  18.593   2.901
42996W        W15322  21.042  38.016  13.009
42997W        W15323   2.761   1.868  13.380
42998W        W15324   1.942  31.586   0.912
42999W        W15325   0.423  16.247  10.606
43000W        W15326  29.966   9.833  12.497
43001W        W15327  33.985  32.004   1.799
43002W        W15328  41.533  19.661  12.447
43003W        W15329  25.977   2.723  12.948
43004W        W15330  38.017   9.782  13.996
43005W        W15331  35.991  29.139  14.358
43006W        W15332  17.778  13.615  14.812
43007W        W15333  27.476  39.813   4.766
43008W        W15334   1.315  27.492   1.416
43009W        W15335  28.028  24.974   2.242
43010W        W15336  34.565  21.698  11.550
43011W        W15337  36.960  43.319   0.381
43012W        W15338  16.697   3.931   3.821
43013W        W15339   7.405  15.672   0.293
43014W        W15340   3.396  15.301  14.374
43015W        W15341  44.477  15.249   3.816
43016W        W15342  32.447  20.612   4.702
43017W        W15343   5.308   4.758   0.417
43018W        W15344   4.882  18.141   0.963
43019W        W15345  44.930  40.357  14.981
43020W        W15346  35.556  13.186   0.751
43021W        W15347  37.467   4.740  14.418
43022W        W15348  42.393   9.352   2.357
43023W        W15349  41.438  28.951  14.949
43024W        W15350  22.729   0.782  10.511
43025W        W15351  21.204  37.545   1.394
43026W        W15352  17.564  10.296  11.483
43027W        W15353  10.304   2.413   4.603
43028W        W15354  34.891   5.824   2.327
43029W        W15355   1.320  36.526   4.266
43030W        W15356  42.311  26.075   3.298
43031W        W15357   3.729  31.951   4.655
43032W        W15358  34.606  24.595  11.519
43033W        W15359  37.072  25.635  14.302
43034W        W15360  21.134   0.418  11.919
43035W        W15361  33.062  18.733   1.238
43036W        W15362  32.514  28.559   1.788
43037W        W15363  14.279  44.778   1.911
43038W        W15364  41.397   8.266  11.023
43039W        W15365   8.282  13.612   1.273
43040W        W15366  14.631  39.485   4.736
43041W        W15367  38.336   0.459  12.077
43042W        W15368   2.910  14.644   2.762
43043W        W15369  36.424   3.249   5.175
43044W        W15370   7.908  36.506   1.750
43045W        W15371  36.989  27.038   1.257
43046W        W15372  44.755  40.414  11.067
43047W        W15373  30.078  43.871   0.278
43048W        W15374  25.156  27.990   3.148
43049W        W15375  22.083  12.687   1.415
43050W        W15376  44.344   6.393   4.695
43051W        W15377  14.318  33.599  14.995
43052W        W15378  22.604  22.571  12.855
43053W        W15379   1.823  26.612  13.992
43054W        W15380  19.170  43.951   3.359
43055W        W15381  35.459  40.464   0.404
43056W        W15382  23.028  20.647  10.536
43057W        W15383  27.966  27.061  14.353
43058W        W15384  23.730   4.839  12.401
43059W        W15385  21.207   8.849  11.589
43060W        W15386  30.133  34.014   3.644
43061W        W15387  41.361  35.503   4.756
43062W        W15388   3.857   7.845  11.887
43063W        W15389  20.596  37.974  14.922
43064W        W15390  30.980  25.215   0.350
43065W        W15391  41.489   7.697  14.327
43066W        W15392  20.152  31.401   4.139
43067W        W15393  29.440  37.898   0.397
43068W        W15394  29.522  22.515  14.986
43069W        W15395  26.072  18.085  11.981
43070W        W15396  41.867  20.156   1.764
43071W        W15397  27.527   8.176   2.707
43072W        W15398  18.132  27.145   0.866
43073W        W15399  41.387   4.916   1.330
43074W        W15400  13.655  26.659   3.848
43075W        W15401   5.437  38.911  10.598
43076W        W15402  20.547   3.351   4.243
43077W        W15403  16.674   6.380   3.335
43078W        W15404   7.231   4.435   3.378
43079W        W15405   6.225  10.337  12.908
43080W        W15406   0.250  26.124   3.153
43081W        W15407  11.352  25.037  14.897
43082W        W15408   9.224  34.460  13.870
43083W        W15409   8.191  40.998   1.719
43084W        W15410  37.907  28.628  14.937
43085W        W15411  13.188  35.858   5.597
43086W        W15412  12.230  32.431   1.361
43087W        W15413  21.624  20.620   4.818
43088W        W15414  14.743   8.742  10.926
43089W        W15415  17.093   2.303   4.162
43090W        W15416  27.553  40.895   3.358
43091W        W15417   1.748  15.186  12.437
43092W        W15418   5.355   0.298  11.016
43093W        W15419  33.500  12.267   0.429
43094W        W15420  25.154  29.656   1.705
43095W        W15421  31.576  34.381  14.887
43096W        W15422  42.307   8.667  13.865
43097W        W15423  21.022  40.359  12.926
43098W        W15424   8.233  16.108  13.004
43099W        W15425  42.415  27.648   3.796
43100W        W15426   8.234  24.661   2.201
43101W        W15427  29.641  11.262  12.535
43102W        W15428  32.077  38.521   2.240
43103W        W15429  23.652   0.363  10.493
43104W        W15430   7.253  22.029  11.454
43105W        W15431   0.835   2.921  12.531
43106W        W15432  40.510  19.115  10.604
43107W        W15433  31.090  36.929   2.184
43108W        W15434   9.711   7.409   3.353
43109W        W15435  41.453  42.996  12.401
43110W        W15436  16.092  39.337  13.916
43111W        W15437  39.058  44.775  14.864
43112W        W15438  13.787  28.981  10.505
43113W        W15439  20.581  39.885  12.426
43114W        W15440  34.864  24.513   1.775
43115W        W15441  15.119   0.272   2.851
43116W        W15442   4.816  41.949   1.445
43117W        W15443  38.353  23.148   0.773
43118W        W15444  28.530  21.711  14.406
43119W        W15445  44.300  24.722   9.944
43120W        W15446  34.066  41.312   4.264
43121W        W15447  20.721  20.033  13.492
43122W        W15448  22.727  18.106  10.901
43123W        W15449  40.906  28.497  12.537
43124W        W15450  27.665   5.933  13.433
43125W        W15451  18.728  43.006   4.816
43126W        W15452  32.898  16.098  10.407
43127W        W15453  12.645   2.745  11.031
43128W        W15454  29.510  12.223   2.288
43129W        W15455  15.604  29.562  13.047
43130W        W15456  17.676  24.116   2.751
43131W        W15457  11.644  19.062  14.483
43132W        W15458  39.414  27.087   1.249
43133W        W15459  29.109   5.687  10.447
43134W        W15460  36.404  42.912  12.430
43135W        W15461  42.022  40.457  11.491
43136W        W15462   9.351  44.978   2.371
43137W        W15463  42.299   6.789  13.382
43138W        W15464  43.793  16.631   1.268
43139W        W15465  38.020  43.423   4.661
43140W        W15466  26.200  26.634   1.402
43141W        W15467   7.688  43.975   4.740
43142W        W15468   6.682  12.255   0.400
43143W        W15469  32.577  23.508  11.534
43144W        W15470  43.399  23.724   1.880
43145W        W15471  37.081  32.472  11.945
43146W        W15472  10.711  20.061   4.319
43147W        W15473  34.483  21.733  14.381
43148W        W15474   6.373  34.083  12.829
43149W        W15475  35.450  13.685   3.796
43150W        W15476  38.932  19.096  14.401
43151W        W15477  21.555  23.611   2.232
43152W        W15478   0.279  41.488  12.407
43153W        W15479   4.721   2.779  13.469
43154W        W15480  28.573  39.380   2.179
43155W        W15481  42.013  18.612   0.917
43156W        W15482  10.836  12.641   3.641
43157W        W15483   3.290  15.198   1.226
43158W        W15484  32.414  27.672  10.973
43159W        W15485  37.552  30.548  12.985
43160W        W15486  10.250   3.331  11.104
43161W        W15487  20.631  15.142   2.684
43162W        W15488  28.542   3.257  11.405
43163W        W15489  15.789  10.726   0.778
43164W        W15490  24.205  18.568  14.970
43165W        W15491  38.526  19.204   2.809
43166W        W15492  39.361  34.885  14.028
43167W        W15493  33.930  23.220  11.593
43168W        W15494  15.198  35.071   2.229
43169W        W15495  44.767  14.124   0.796
43170W        W15496  11.664  26.640   3.225
43171W        W15497  32.537  10.850  12.017
43172W        W15498  26.560  43.769  13.011
43173W        W15499   4.756  30.522   2.879
43174W        W15500   0.931  12.633  12.036
43175W        W15501  16.792  42.418   2.675
43176W        W15502  23.998  40.339   4.263
43177W        W15503  10.848  12.346  14.767
43178W        W15504  32.083  34.990  13.963
43179W        W15505  19.585  23.126   1.423
43180W        W15506  28.518  40.331  13.942
43181W        W15507   0.285  41.402  11.036
43182W        W15508  19.067  43.857  11.547
43183W        W15509  14.813  35.053  12.478
43184W        W15510  32.085  12.684   2.234
43185W        W15511  21.067  28.174   2.305
43186W        W15512   1.474  43.340  11.040
43187W        W15513   0.863   8.817   3.294
43188W        W15514  20.685  16.760  11.454
43189W        W15515  41.474  11.761   3.295
43190W        W15516   8.245  34.044  11.127
43191W        W15517   3.215  11.818   3.700
43192W        W15518  38.048  17.188  14.023
43193W        W15519  10.304  38.056  12.949
43194W        W15520  43.326  12.242  11.048
43195W        W15521  40.453  16.097   2.252
43196W        W15522  10.304  27.446   1.381
43197W        W15523   5.899   1.372   0.868
43198W        W15524  18.642   5.763   0.458
43199W        W15525  40.434   5.779   4.781
43200W        W15526   0.291  27.012   1.241
43201W        W15527  24.034  18.666  14.319
43202W        W15528  37.395  21.212  10.574
43203W        W15529  40.404  23.546   2.299
43204W        W15530  23.118  44.866   1.355
43205W        W15531   6.287  26.185  10.628
43206W        W15532  12.665  22.235  13.421
43207W        W15533  27.194  21.625   2.335
43208W        W15534  42.918   1.437  13.807
43209W        W15535   6.777  13.766   3.829
43210W        W15536  19.711  43.280  11.493
43211W        W15537  40.942  13.670   2.830
43212W        W15538   2.958  31.971  14.316
43213W        W15539  27.507  21.742  13.049
43214W        W15540  28.435  36.476  11.420
43215W        W15541  24.998  15.271   5.087
43216W        W15542  10.839  40.912  11.914
43217W        W15543  32.529   4.378   2.396
43218W        W15544   7.188   1.840   4.316
43219W        W15545  38.513  26.155   2.363
43220W        W15546   3.745  11.194   5.203
43221W        W15547  22.052  30.426  10.427
43222W        W15548  14.191  25.106  14.462
43223W        W15549  25.569   7.316   4.262
43224W        W15550  12.217  29.610   1.814
43225W        W15551  33.064  40.399  12.345
43226W        W15552  17.062  40.537   2.887
43227W        W15553  30.104  25.642   4.260
43228W        W15554   9.378  31.439   3.861
43229W        W15555   3.749  34.571   2.230
43230W        W15556  41.472  29.477  12.031
43231W        W15557   1.865   5.713   4.342
43232W        W15558  41.402  32.933   3.242
43233W        W15559  20.202  37.489  12.892
43234W        W15560   1.470  25.584  12.022
43235W        W15561  44.289   2.850  14.508
43236W        W15562  23.211  44.875   3.225
43237W        W15563   8.855   0.317  11.037
43238W        W15564  21.145  30.611   3.356
43239W        W15565  21.097  25.072   3.672
43240W        W15566  13.317  14.721   4.270
43241W        W15567  39.923   7.194  14.332
43242W        W15568   9.819  30.151   3.270
43243W        W15569   5.874   1.920   0.326
43244W        W15570  30.494   5.380   2.738
43245W        W15571  24.586  21.150  12.830
43246W        W15572   0.964  40.543  14.948
43247W        W15573  25.026  23.735  12.873
43248W        W15574  22.072  18.268  10.619
43249W        W15575  21.162  19.105   3.220
43250W        W15576  38.917  44.485   2.862
43251W        W15577  10.347  33.887   3.218
43252W        W15578   3.891  24.524   4.792
43253W        W15579  19.768  18.140  12.835
43254W        W15580  13.194  23.199  11.045
43255W        W15581  31.951  41.486  10.061
43256W        W15582  27.132   5.909  10.469
43257W        W15583   0.893  34.433   1.831
43258W        W15584  23.054  28.974   3.670
43259W        W15585  30.639  34.904  13.483
43260W        W15586  29.620   3.409  14.275
43261W        W15587   3.333  21.131  12.431
43262W        W15588  23.053  42.805  13.878
43263W        W15589  17.713   5.719   4.599
43264W        W15590  43.381  43.271   0.327
43265W        W15591  42.512   3.854   0.882
43266W        W15592  14.291  43.959   2.416
43267W        W15593  33.948  15.659   1.290
43268W        W15594  25.024  41.998   0.354
43269W        W15595  20.204  18.692  14.836
43270W        W15596  31.097  20.260  13.892
43271W        W15597  42.004  35.995   2.318
43272W        W15598  22.571  11.313  13.933
43273W        W15599  29.146  18.213  11.374
43274W        W15600   0.801  22.561  10.645
43275W        W15601  10.871  43.897   4.130
43276W        W15602  14.250  12.299   0.453
43277W        W15603  43.003  18.560  11.126
43278W        W15604  36.927  29.069  11.997
43279W        W15605   2.796   4.892  14.373
43280W        W15606   4.723  23.992   3.798
43281W        W15607  22.209  44.857  11.575
43282W        W15608  23.139  31.017   0.310
43283W        W15609  11.675  36.502   4.832
43284W        W15610  22.708  24.608  10.551
43285W        W15611  25.711  44.900  14.454
43286W        W15612  33.435  39.931  14.901
43287W        W15613  32.022  41.920  14.499
43288W        W15614  22.181  15.182  13.914
43289W        W15615   4.887  40.311  12.037
43290W        W15616   5.695  42.410   1.805
43291W        W15617  31.433  18.067  12.038
43292W        W15618  16.777  14.601   4.648
43293W        W15619  24.636  42.348   1.824
43294W        W15620  12.358  42.503   1.758
43295W        W15621  31.929  21.723  13.342
43296W        W15622   0.817   0.399   4.647
43297W        W15623  23.132  24.056   2.240
43298W        W15624  10.371  19.678  12.017
43299W        W15625   5.252  37.005  11.010
43300W        W15626  29.623   5.384  13.012
43301W        W15627  43.489  33.919   3.778
43302W        W15628  43.956  30.913  10.896
43303W        W15629  19.271  38.836  12.056
43304W        W15630  19.558  37.034  12.474
43305W        W15631  36.932   0.862   2.774
43306W        W15632  30.556  43.900  11.990
43307W        W15633   8.798  18.583   3.790
43308W        W15634  32.492  34.407   0.341
43309W        W15635  20.227   5.926  11.473
43310W        W15636  13.780  44.992  12.893
43311W        W15637  25.042  18.710   0.883
43312W        W15638  30.111  12.326  10.553
43313W        W15639  22.655  41.379  13.492
43314W        W15640   0.832  43.426   2.851
43315W        W15641  26.620  31.588  11.884
43316W        W15642   8.333  31.454   3.240
43317W        W15643  32.603   4.377   3.344
43318W        W15644  15.785  38.894   3.721
43319W        W15645   1.937   8.343   2.664
43320W        W15646  40.950  42.859  11.937
43321W        W15647  23.993   7.281   2.361
43322W        W15648   5.219  17.792   2.810
43323W        W15649   5.844  13.349   4.616
43324W        W15650  21.065   3.266  12.399
43325W        W15651   5.762  33.481   2.846
43326W        W15652  13.316  16.580   1.292
43327W        W15653  38.067  35.389  12.461
43328W        W15654  44.318  21.174  10.078
43329W        W15655   3.796  22.109   3.235
43330W        W15656   3.315   6.402  13.501
43331W        W15657   4.891  23.238  14.956
43332W        W15658  11.152  28.077  14.013
43333W        W15659  21.535   4.283  11.068
43334W        W15660  27.060   5.870   0.363
43335W        W15661  18.240  27.679   1.413
43336W        W15662  14.321   6.379  10.546
43337W        W15663  21.203  24.654  14.483
43338W        W15664  24.572  21.037   0.340
43339W        W15665   2.412  42.371   1.425
43340W        W15666  28.552  15.245  13.333
43341W        W15667   4.352  24.152  11.008
43342W        W15668   0.425  13.617   3.679
43343W        W15669  34.987  31.031  11.124
43344W        W15670  22.053  31.108  14.870
43345W        W15671  33.905  36.868   2.347
43346W        W15672   3.819  42.514  13.060
43347W        W15673   5.354   0.848  12.468
43348W        W15674  25.525  28.132   0.400
43349W        W15675  42.341  21.710   2.293
43350W        W15676  15.242   1.288  11.916
43351W        W15677  29.620  35.438  11.428
43352W        W15678  13.701  37.836  14.421
43353W        W15679  30.447  33.943   1.216
43354W        W15680   7.738  18.754   1.287
43355W        W15681   2.227  21.227  13.435
43356W        W15682  16.153  27.055   3.663
43357W        W15683  25.188  14.099   2.225
43358W        W15684   3.829  32.032   0.920
43359W        W15685  29.008  28.501   3.306
43360W        W15686  43.332  37.401  12.410
43361W        W15687   9.792  15.166  12.061
43362W        W15688  15.114  26.460  14.350
43363W        W15689  28.449  19.135   4.320
43364W        W15690  23.046  21.752  10.469
43365W        W15691   3.753   4.929   4.272
43366W        W15692   9.674  28.091   3.855
43367W        W15693  17.173  20.551  12.856
43368W        W15694   9.358  39.883   3.148
43369W        W15695  17.641   4.281  14.993
43370W        W15696   9.222   3.902   0.389
43371W        W15697  24.184  40.379  11.380
43372W        W15698  36.391  38.399  12.975
43373W        W15699  25.578  18.705  14.030
43374W        W15700  29.937  20.263   2.706
43375W        W15701  16.166  30.423   0.332
43376W        W15702  21.612  16.136   1.695
43377W        W15703  30.499  31.905   3.310
43378W        W15704  39.015  38.018   4.206
43379W        W15705  13.276  24.123   2.342
43380W        W15706  15.313  28.975   2.341
43381W        W15707   9.258  33.971   3.661
43382W        W15708  16.609  15.670  10.930
43383W        W15709   4.698  10.278   0.386
43384W        W15710   9.692  13.111  12.967
43385W        W15711  25.192  27.078   2.252
43386W        W15712  13.716  11.344   2.416
43387W        W15713   2.237  10.362  14.968
43388W        W15714  38.532   8.273  11.021
43389W        W15715  30.975   6.883  12.994
43390W        W15716  26.072   7.327  14.007
43391W        W15717  11.129  26.972  12.357
43392W        W15718   9.271   7.299   4.668
43393W        W15719   9.741   6.408   4.300
43394W        W15720  32.984  44.758  10.948
43395W        W15721  35.046   9.813   2.664
43396W        W15722   1.904  19.065   3.369
43397W        W15723  40.798  37.874   0.825
43398W        W15724  19.687  16.793  12.475
43399W        W15725  15.807   6.792   4.785
43400W        W15726  44.871  11.680  13.834
43401W        W15727  16.775  11.239   0.749
43402W        W15728  17.096  27.458  14.380
43403W        W15729   3.758  34.002  10.971
43404W        W15730   2.373  15.125  13.485
43405W        W15731  19.720  16.144   2.221
43406W        W15732   0.809  44.456  11.968
43407W        W15733  17.238   8.186  10.949
43408W        W15734  12.207  40.906  11.923
43409W        W15735  25.142   1.854   2.664
43410W        W15736  38.478  27.564  10.630
43411W        W15737  35.105  38.995   4.604
43412W        W15738  19.191   6.689   0.931
43413W        W15739  10.358  14.272  14.328
43414W        W15740   2.345  12.850   4.823
43415W        W15741  16.574  41.908  10.644
43416W        W15742  19.247  23.549   1.850
43417W        W15743  39.859   8.870   4.232
43418W        W15744   9.289   7.344  11.098
43419W        W15745  13.312  24.048  10.058
43420W        W15746  17.692  36.063  12.540
43421W        W15747  18.184  25.644  10.556
43422W        W15748  16.583  29.642  13.943
43423W        W15749  10.866  14.240  13.490
43424W        W15750  18.090  43.340  13.868
43425W        W15751  39.318  27.507  10.520
43426W        W15752  38.998  14.820  11.486
43427W        W15753  30.470  27.167   2.713
43428W        W15754  16.202  21.249   1.305
43429W        W15755  16.164  12.718  10.464
43430W        W15756  40.439  28.547   2.851
43431W        W15757  22.122  14.659  13.445
43432W        W15758   2.419  30.633   9.962
43433W        W15759  12.735  35.457  14.935
43434W        W15760  10.707  41.372  13.524
43435W        W15761   3.244  13.119   1.294
43436W        W15762   7.171   8.289  14.951
43437W        W15763   8.319   5.335   1.295
43438W        W15764  30.007  25.040  10.988
43439W        W15765  34.414   3.447   1.362
43440W        W15766  36.960   7.270  11.871
43441W        W15767  41.367  16.734   3.347
43442W        W15768  41.925  29.944   1.416
43443W        W15769  10.264  15.088   0.361
43444W        W15770  35.858   9.196  10.585
43445W        W15771   4.269  39.945   3.645
43446W        W15772  30.140  41.519  11.405
43447W        W15773  19.284  14.642  11.481
43448W        W15774  41.873   7.851  12.539
43449W        W15775  28.181   2.939   0.450
43450W        W15776  34.447  39.526   1.325
43451W        W15777  16.748  35.491  14.294
43452W        W15778  43.280  12.705   2.287
43453W        W15779  41.378  44.777  12.537
43454W        W15780   7.802  18.109  13.032
43455W        W15781  24.634  31.952   2.332
43456W        W15782   7.856  11.355  11.540
43457W        W15783  25.518  39.812  11.516
43458W        W15784   0.801  40.835   0.911
43459W        W15785   4.346  14.152  11.988
43460W        W15786  31.940   6.691   0.962
43461W        W15787  21.514  20.141  12.897
43462W        W15788  28.930  32.519   0.466
43463W        W15789  33.027  25.538   3.676
43464W        W15790  38.045   4.877  14.388
43465W        W15791  30.155  29.129  12.346
43466W        W15792  25.146  28.136  12.361
43467W        W15793  17.178  10.247  14.315
43468W        W15794  35.930   6.770  13.548
43469W        W15795  34.470  32.555   5.118
43470W        W15796  40.884  22.683  14.932
43471W        W15797   1.271  28.122  12.526
43472W        W15798  36.091   1.258  10.417
43473W        W15799   2.434   7.755   5.097
43474W        W15800  26.516  20.125  10.888
43475W        W15801   0.808   4.444  12.914
43476W        W15802  29.666  24.626  11.589
43477W        W15803   0.913  36.564  14.490
43478W        W15804  17.778  26.122  12.890
43479W        W15805  14.668  12.144  11.057
43480W        W15806  37.063  31.517  14.287
43481W        W15807   8.834   5.362  12.031
43482W        W15808  15.812  34.482   1.387
43483W        W15809  42.911   7.385   4.331
43484W        W15810   3.433  22.203  11.880
43485W        W15811  40.882   9.809  14.315
43486W        W15812   5.279   1.375  12.389
43487W        W15813  23.077  24.164   0.427
43488W        W15814  11.138  40.418   4.793
43489W        W15815   1.934  32.401  14.446
43490W        W15816  43.341  35.897   5.159
43491W        W15817   8.324  18.667   3.307
43492W        W15818  17.071  18.288  10.929
43493W        W15819  33.101  31.938   2.708
43494W        W15820   9.156  18.167  10.412
43495W        W15821  29.641  23.228  11.001
43496W        W15822  15.189   8.701  14.849
43497W        W15823  43.358   9.885   3.851
43498W        W15824  18.237   4.766   2.392
43499W        W15825   3.316  28.990   2.888
43500W        W15826  32.954  24.612   1.283
43501W        W15827  37.343  27.660   2.675
43502W        W15828  21.261  21.618  10.642
43503W        W15829   9.750   7.200   0.469
43504W        W15830  42.465  32.528  10.567
43505W        W15831  36.953  24.100  14.298
43506W        W15832   7.810  33.022   3.176
43507W        W15833  20.703  40.352   3.329
43508W        W15834  24.172  35.360   3.665
43509W        W15835  22.172  18.187   3.222
43510W        W15836  35.506   4.824   1.385
43511W        W15837  36.375  14.335  14.018
43512W        W15838  15.775  11.709  10.431
43513W        W15839  44.003  27.106  11.488
43514W        W15840  17.711  39.477  12.873
43515W        W15841  21.050   5.697  12.823
43516W        W15842  11.651  39.931  11.988
43517W        W15843  30.077  29.030   4.335
43518W        W15844  19.586  25.485  11.956
43519W        W15845  18.650  37.519  13.396
43520W        W15846  17.177  15.729   5.220
43521W        W15847  15.722  31.534  12.549
43522W        W15848  39.499  20.068  13.060
43523W        W15849  12.857  44.952   1.299
43524W        W15850  10.175  12.672   2.697
43525W        W15851  22.185  42.412   1.294
43526W        W15852  10.720  35.869  10.451
43527W        W15853  27.520  37.485  11.416
43528W        W15854  39.927  28.095   2.412
43529W        W15855  20.659   4.250  13.314
43530W        W15856   2.400  30.511   1.249
43531W        W15857  43.427  31.124   3.679
43532W        W15858  16.658  17.186  13.825
43533W        W15859  25.672  15.092   5.296
43534W        W15860  35.545  40.363  14.335
43535W        W15861  28.077  21.185  10.526
43536W        W15862  13.248   0.907   2.767
43537W        W15863  29.116  15.656   4.240
43538W        W15864   1.890   2.259   1.710
43539W        W15865  36.079   5.926  13.496
43540W        W15866  21.085  31.411  13.064
43541W        W15867  23.546   1.825  14.831
43542W        W15868  13.332  20.139  13.968
43543W        W15869  36.483  42.460  10.440
43544W        W15870  43.834  12.747   0.438
43545W        W15871  30.929  43.446   1.734
43546W        W15872  27.471  16.087   1.897
43547W        W15873  34.018  37.336   0.754
43548W        W15874  27.163   7.783  13.873
43549W        W15875  30.464  35.511   4.311
43550W        W15876  19.277  43.340  12.485
43551W        W15877  14.262  44.373  14.924
43552W        W15878  15.768  21.254  14.411
43553W        W15879  29.149   7.759   0.860
43554W        W15880  31.588  20.712  13.971
43555W        W15881  18.164  19.200   2.774
43556W        W15882  27.617  27.580   1.853
43557W        W15883  43.840   3.932  10.432
43558W        W15884   5.750  36.071   3.382
43559W        W15885  37.556  26.091  14.832
43560W        W15886  35.598   6.323   4.301
43561W        W15887  25.188  15.215   4.767
43562W        W15888  23.106  24.598  11.964
43563W        W15889  15.293  13.184   4.706
43564W        W15890  23.994  22.161  10.984
43565W        W15891  22.068  25.018   0.290
43566W        W15892  32.895   8.679   3.259
43567W        W15893  16.263  11.729  14.955
43568W        W15894  14.682   3.416   5.173
43569W        W15895  21.092  41.902   3.364
43570W        W15896  42.392   6.869  10.897
43571W        W15897   8.302  28.536  11.518
43572W        W15898   9.889  35.051   1.422
43573W        W15899   1.747  38.432  14.330
43574W        W15900  32.408   1.741   4.236
43575W        W15901  15.280   2.928  10.919
43576W        W15902  15.602  28.142  10.895
43577W        W15903  39.509  14.121   0.967
43578W        W15904   0.804  32.021  11.450
43579W        W15905   9.153  40.996   3.784
43580W        W15906  24.051  31.618  14.791
43581W        W15907  31.426  34.427   0.796
43582W        W15908   0.489  30.423   3.307
43583W        W15909  23.609  32.548  11.858
43584W        W15910  42.988  15.599  12.477
43585W        W15911  43.008   5.765   0.267
43586W        W15912   9.170  30.517   3.334
43587W        W15913  30.108   5.832  13.389
43588W        W15914   0.408  40.354   3.736
43589W        W15915  20.586  25.581   1.700
43590W        W15916  40.426  43.896   0.926
43591W        W15917  20.753  39.556  11.574
43592W        W15918  32.404   9.220   3.671
43593W        W15919  29.647  43.956  14.006
43594W        W15920   4.377  43.959  13.421
43595W        W15921  22.076   3.952  14.360
43596W        W15922  10.797  16.152   4.666
43597W        W15923  13.782  25.489  12.462
43598W        W15924   8.832  44.810   3.189
43599W        W15925   7.213   6.191  13.946
43600W        W15926  28.118  17.108  11.985
43601W        W15927  33.500  36.925  13.009
43602W        W15928   3.323  21.682   4.174
43603W        W15929   2.785  18.222  14.294
43604W        W15930  38.373  38.471  12.481
43605W        W15931   1.414  21.110  13.054
43606W        W15932  29.464   1.334   3.694
43607W        W15933  10.769  26.566   2.715
43608W        W15934  31.599  18.153  12.853
43609W        W15935  22.112  43.366   4.650
43610W        W15936  28.011  20.529  10.465
43611W        W15937  23.049  29.145   4.307
43612W        W15938  22.617   2.933  11.596
43613W        W15939  35.402  34.867  14.938
43614W        W15940  42.336  11.356  13.934
43615W        W15941  32.398   8.202  10.506
43616W        W15942  15.321   1.915  14.845
43617W        W15943   8.275  31.496   4.286
43618W        W15944  28.530  20.697  12.405
43619W        W15945  10.311  37.374   9.972
43620W        W15946  41.962  37.559   2.342
43621W        W15947  23.085  38.564   2.741
43622W        W15948  12.836  12.148  12.485
43623W        W15949   6.912  22.585  13.349
43624W        W15950  15.640  23.076  11.858
43625W        W15951   9.801  14.662  11.061
43626W        W15952  23.575  24.660  10.905
43627W        W15953  10.320  21.537   0.742
43628W        W15954  24.000  20.632   4.671
43629W        W15955  28.480  21.514   2.248
43630W        W15956  14.200  20.128   0.789
43631W        W15957  12.169   3.893  13.987
43632W        W15958  27.655  41.935   3.811
43633W        W15959   0.841   8.843  14.443
43634W        W15960  18.768  41.842  14.433
43635W        W15961  37.558   3.447  11.540
43636W        W15962  16.224   3.389   4.725
43637W        W15963  16.164   3.833   2.334
43638W        W15964  12.757  30.544   0.480
43639W        W15965  11.709  12.170  12.011
43640W        W15966  24.520  20.252  13.358
43641W        W15967  38.928  27.011  13.384
43642W        W15968  35.428  42.288   1.921
43643W        W15969  17.745  24.141   3.826
43644W        W15970  11.296  14.279   1.887
43645W        W15971  13.197  27.611  14.365
43646W        W15972  11.743  27.976   0.298
43647W        W15973  13.132  27.014   4.238
43648W        W15974  31.607   1.395   1.371
43649W        W15975  30.073  38.846   3.147
43650W        W15976   4.410  23.025   3.812
43651W        W15977  21.661  23.649   2.845
43652W        W15978   5.393  43.349   4.242
43653W        W15979  34.587  37.026   2.188
43654W        W15980  44.377  16.654   0.252
43655W        W15981  30.118  27.188  11.032
43656W        W15982  34.975   8.350  12.964
43657W        W15983  20.562  22.065  14.935
43658W        W15984   3.301   4.862   3.335
43659W        W15985  13.613  10.822   4.207
43660W        W15986  29.158  37.968  10.581
43661W        W15987  11.683  43.859  14.401
43662W        W15988  32.089  18.164  14.304
43663W        W15989   1.872  42.289   1.264
43664W        W15990  31.120  40.851  11.920
43665W        W15991  26.998  20.065   3.784
43666W        W15992  22.174  15.131   3.331
43667W        W15993  13.774  14.672   4.628
43668W        W15994  34.901  32.886   5.293
43669W        W15995  36.079  40.921  13.911
43670W        W15996  33.458  30.540  13.031
43671W        W15997   8.835   6.832   4.136
43672W        W15998   4.306  11.337  13.336
43673W        W15999  35.960   2.907   3.220
43674W        W16000  13.205  43.894   2.340
43675W        W16001  13.633  30.121  11.968
43676W        W16002  27.115  15.181  14.470
43677W        W16003  19.676  37.950   1.307
43678W        W16004  35.888  22.516  13.383
43679W        W16005  23.490  38.346  14.479
43680W        W16006  19.581  43.405   5.178
43681W        W16007   2.880  38.495  14.890
43682W        W16008   5.849  30.099   4.190
43683W        W16009   8.299   2.819  12.855
43684W        W16010  32.439  15.293  11.593
43685W        W16011  33.551   1.879   3.181
43686W        W16012  21.575  15.603   1.787
43687W        W16013   9.768  38.395   2.696
43688W        W16014  22.031  15.578  14.482
43689W        W16015  25.062  26.030   3.688
43690W        W16016  16.184   9.274  12.429
43691W        W16017  33.990  35.853   4.625
43692W        W16018  24.162  38.067  11.000
43693W        W16019  11.235  44.376  13.915
43694W        W16020  10.352  18.274  12.883
43695W        W16021  28.059  17.290  12.874
43696W        W16022  22.173   7.193   2.265
43697W        W16023  22.665  15.219   4.806
43698W        W16024  17.151  15.712  11.460
43699W        W16025  31.437  43.791  12.019
43700W        W16026  32.130   3.268   4.647
43701W        W16027  42.329   7.673   3.725
43702W        W16028  25.623   8.782  14.977
43703W        W16029   8.218  22.995  14.305
43704W        W16030  22.132   5.879   3.682
43705W        W16031  25.596  32.441   0.421
43706W        W16032   3.456  16.253  14.389
43707W        W16033  42.416  44.798  11.609
43708W        W16034   6.815  19.192   4.637
43709W        W16035  34.457  29.560   3.720
43710W        W16036  24.074  18.685   1.884
43711W        W16037  28.972   6.272  13.308
43712W        W16038   7.904  33.952   2.812
43713W        W16039  44.799  22.617   2.296
43714W        W16040  16.297   0.957   4.626
43715W        W16041   4.845  39.040   0.962
43716W        W16042   5.714   8.250  11.560
43717W        W16043  25.574  26.509   2.295
43718W        W16044  40.800   2.418  13.958
43719W        W16045  44.853  25.146  12.945
43720W        W16046  25.090  41.314  12.452
43721W        W16047  11.710  43.825  13.854
43722W        W16048  41.437  36.486  12.546
43723W        W16049   9.239   7.831   3.185
43724W        W16050  11.318  14.831   4.220
43725W        W16051   5.771  14.795   4.117
43726W        W16052  12.346  43.932   2.689
43727W        W16053   9.643  33.585  12.864
43728W        W16054  39.545   1.454  12.080
43729W        W16055   6.799  37.080   1.756
43730W        W16056   3.326  15.725   0.815
43731W        W16057  43.453  42.826  11.947
43732W        W16058  12.290  31.404   3.836
43733W        W16059   8.403  31.022   1.718
43734W        W16060   8.790   1.903  12.382
43735W        W16061  20.537  10.824   3.700
43736W        W16062   4.326  35.531   2.180
43737W        W16063  39.472  33.059   0.733
43738W        W16064  14.806  33.010   3.250
43739W        W16065  25.507   8.852  13.852
43740W        W16066  21.680  10.380  11.867
43741W        W16067  43.390  25.151  12.908
43742W        W16068   8.889  36.463   5.086
43743W        W16069  18.057  39.537  11.976
43744W        W16070  42.315  27.450   4.288
43745W        W16071  34.512  33.465   3.182
43746W        W16072  27.614  39.330   4.130
43747W        W16073  27.616  34.583   1.307
43748W        W16074  20.180  23.115   2.872
43749W        W16075  25.532  12.341   0.462
43750W        W16076  17.241  28.539   2.382
43751W        W16077   0.308  38.955  12.058
43752W        W16078  40.436  33.470  13.987
43753W        W16079  12.196  28.171   1.705
43754W        W16080  36.091  20.246  10.533
43755W        W16081  14.308  25.486   0.339
43756W        W16082   1.910   5.308   2.830
43757W        W16083  36.851   4.316   2.760
43758W        W16084  34.413   2.960   4.712
43759W        W16085   6.262   4.283   2.262
43760W        W16086  12.178  27.682   9.922
43761W        W16087  12.300  37.999   1.374
43762W        W16088  38.902   5.390   1.717
43763W        W16089   1.739   3.797  12.872
43764W        W16090   3.919   2.819  13.376
43765W        W16091  42.377   6.722  13.843
43766W        W16092  27.590  41.322  12.565
43767W        W16093  39.044  32.471   3.672
43768W        W16094  29.055  13.133  10.615
43769W        W16095  36.911  29.920  12.930
43770W        W16096  14.766  21.198   5.151
43771W        W16097  11.140   2.758  14.969
43772W        W16098  10.723  19.616   4.744
43773W        W16099  32.429  14.674  11.936
43774W        W16100  37.427   3.755  11.897
43775W        W16101  29.112  34.946   0.883
43776W        W16102  30.018  43.839  11.988
43777W        W16103  16.649  28.051   0.864
43778W        W16104  38.949  29.066   5.242
43779W        W16105  31.516  12.183   1.708
43780W        W16106  42.305  37.535  13.529
43781W        W16107  24.498  16.228   0.827
43782W        W16108  28.547  20.749   0.369
43783W        W16109  40.500   3.859  13.535
43784W        W16110  30.435  40.327   4.784
43785W        W16111  30.477   5.932   0.429
43786W        W16112   1.238   0.398   1.256
43787W        W16113  35.359  21.525   2.827
43788W        W16114   2.931  34.501  12.972
43789W        W16115  33.586  23.733   4.695
43790W        W16116   1.795  24.133  11.602
43791W        W16117  19.215   1.286   3.829
43792W        W16118  18.746  44.471   3.679
43793W        W16119  11.274  25.624   5.140
43794W        W16120   1.860  25.185  11.037
43795W        W16121  14.114  37.848  13.367
43796W        W16122  31.975  29.456   1.411
43797W        W16123  19.089  44.357  12.951
43798W        W16124   1.952   5.212   1.804
43799W        W16125  13.156  29.618  10.528
43800W        W16126  22.636  35.367  13.026
43801W        W16127  19.153  37.903   2.845
43802W        W16128  42.399  32.108  13.881
43803W        W16129  23.506  26.672  14.013
43804W        W16130  17.669  36.031  10.906
43805W        W16131  23.621  44.767  13.473
43806W        W16132  25.118  27.605  11.976
43807W        W16133   1.878  10.329   2.233
43808W        W16134  12.334  15.582   2.802
43809W        W16135  26.536  35.090  12.463
43810W        W16136  34.921  19.725   0.878
43811W        W16137  44.491   6.767   4.139
43812W        W16138  35.974  16.265   0.800
43813W        W16139  40.426  18.217   1.265
43814W        W16140  37.486  39.953   1.272
43815W        W16141  28.440  19.640   2.722
43816W        W16142  34.468  19.050   1.778
43817W        W16143  23.171  37.017  14.763
43818W        W16144  10.350  13.734   2.783
43819W        W16145   1.901  31.648  10.639
43820W        W16146  22.152  19.127  11.386
43821W        W16147  30.508  15.760  11.069
43822W        W16148  27.951  26.498  11.448
43823W        W16149  43.837  25.018   3.752
43824W        W16150  40.531  16.776   3.244
43825W        W16151  44.452  42.304  12.564
43826W        W16152   3.290  42.889   3.753
43827W        W16153  11.214  31.438  14.959
43828W        W16154  11.633  24.574  13.967
43829W        W16155   4.781  28.541   0.329
43830W        W16156  30.480  44.368   3.327
43831W        W16157  15.696   1.252  13.063
43832W        W16158   7.770  40.958  14.369
43833W        W16159  11.654  29.128  12.418
43834W        W16160  20.223   0.822  14.873
43835W        W16161  23.144  42.434  14.369
43836W        W16162  39.976  12.730  10.962
43837W        W16163  43.800   7.260   1.315
43838W        W16164   7.792  34.398  10.061
43839W        W16165   8.200   0.758   0.817
43840W        W16166  32.608  18.255  12.495
43841W        W16167  33.028  40.475  11.017
43842W        W16168   4.732  27.052   0.450
43843W        W16169  10.266  22.211  10.993
43844W        W16170  31.526  18.658  11.885
43845W        W16171   5.359  38.489   1.862
43846W        W16172  13.289  30.987   4.677
43847W        W16173  11.754  11.762   1.806
43848W        W16174  15.756   9.835   1.427
43849W        W16175  33.077   0.398  14.310
43850W        W16176  14.104  21.642  12.085
43851W        W16177  35.868  44.490  13.039
43852W        W16178   3.730   0.382   0.863
43853W        W16179  41.918  34.108   2.308
43854W        W16180  14.602  29.980   0.917
43855W        W16181  36.360  41.369  14.783
43856W        W16182  31.558  11.861   1.333
43857W        W16183  18.211  29.139   3.842
43858W        W16184  37.836  31.042  11.857
43859W        W16185  42.454  29.465  14.430
43860W        W16186   6.831  14.756   1.781
43861W        W16187  15.236   8.258   1.707
43862W        W16188  34.554  14.757   3.819
43863W        W16189  41.517   1.267   2.794
43864W        W16190  16.690  34.373  13.468
43865W        W16191   6.201  22.562  14.017
43866W        W16192  14.233  36.434   1.390
43867W        W16193  19.250  10.191   9.960
43868W        W16194  16.213   3.855   3.306
43869W        W16195  22.089  43.516   1.309
43870W        W16196  39.467  30.987   1.263
43871W        W16197  18.248  43.960   1.732
43872W        W16198  13.777  40.356   4.629
43873W        W16199  19.193  34.510  12.027
43874W        W16200  34.400  26.547   4.347
43875W        W16201   8.380   1.352  12.889
43876W        W16202  42.011  20.241  10.568
43877W        W16203  26.685  40.359  11.882
43878W        W16204   2.894  40.413  10.979
43879W        W16205  29.948   3.312  14.333
43880W        W16206   0.364  16.246  13.021
43881W        W16207   1.906  42.315  12.884
43882W        W16208   4.309  19.589   4.741
43883W        W16209  25.544   8.864   3.365
43884W        W16210  28.493  31.153   3.835
43885W        W16211  32.934  29.073  13.962
43886W        W16212  38.021  22.702   4.212
43887W        W16213  30.507  10.227   0.952
43888W        W16214  23.717  27.640  13.370
43889W        W16215   4.243  36.405   3.328
43890W        W16216  43.787  35.931   2.377
43891W        W16217  15.749  16.215   1.321
43892W        W16218  26.015  19.696   2.704
43893W        W16219   2.813  13.317  14.937
43894W        W16220  30.922  40.025   3.222
43895W        W16221  23.698   0.955   0.848
43896W        W16222  14.693  17.624   4.711
43897W        W16223   8.767   2.882  12.905
43898W        W16224  20.605  36.003  11.494
43899W        W16225  37.896  30.508   4.753
43900W        W16226  18.170  40.444  14.493
43901W        W16227  14.602  28.066   4.218
43902W        W16228  30.508  14.738  10.526
43903W        W16229  27.182  12.212   0.731
43904W        W16230  41.992   7.409  13.341
43905W        W16231  29.517  43.924  13.346
43906W        W16232   3.298  31.027  14.985
43907W        W16233   3.789  25.616   0.291
43908W        W16234  18.146  19.129  10.917
43909W        W16235  41.807  41.006  14.967
43910W        W16236  33.485   2.468   2.891
43911W        W16237  24.601  44.911   0.901
43912W        W16238  29.924  34.562  13.021
43913W        W16239  38.049  11.861  14.310
43914W        W16240   2.442  39.446   2.720
43915W        W16241  24.570   8.700  13.348
43916W        W16242   5.251  37.895  11.119
43917W        W16243  21.705  16.206  11.978
43918W        W16244   3.223   9.783   4.284
43919W        W16245   5.282  27.671   1.365
43920W        W16246  14.815  18.260  14.428
43921W        W16247  24.976  14.171  12.073
43922W        W16248  21.674   9.723  11.027
43923W        W16249  25.593  38.463  12.906
43924W        W16250  25.514  16.117  11.412
43925W        W16251  11.360  34.937  12.495
43926W        W16252  22.137  18.113  12.345
43927W        W16253  36.454  41.530   4.778
43928W        W16254   1.944   4.359  12.530
43929W        W16255   1.410  37.997  10.581
43930W        W16256  41.830  12.352   3.262
43931W        W16257  42.301  40.977  11.993
43932W        W16258  22.553  42.304  13.845
43933W        W16259  33.053  33.540   0.739
43934W        W16260  24.704  22.734  14.933
43935W        W16261   6.257   0.885   2.709
43936W        W16262  42.289   2.818   0.820
43937W        W16263  14.200  33.086  12.979
43938W        W16264   4.704  38.406  11.119
43939W        W16265  12.119  40.022  11.378
43940W        W16266   4.294  29.163  10.583
43941W        W16267  32.523  35.493   2.325
43942W        W16268  13.618  26.463   2.213
43943W        W16269  41.032  33.123   4.204
43944W        W16270  26.561  16.252  14.813
43945W        W16271   2.802  27.491  12.981
43946W        W16272   6.394   8.792  12.091
43947W        W16273  37.392   5.254   4.342
43948W        W16274   6.188  44.799  11.592
43949W        W16275  44.441  28.036  14.932
43950W        W16276  22.157  29.604   1.761
43951W        W16277   5.790  35.935  13.375
43952W        W16278  38.859  28.076  14.487
43953W        W16279  27.945  37.474   1.853
43954W        W16280  16.584   4.877  12.556
43955W        W16281   4.352  41.310  10.564
43956W        W16282   6.391  16.742  14.482
43957W        W16283  18.700  41.381  12.937
43958W        W16284  38.406   7.253  14.374
43959W        W16285  24.494  10.747   0.740
43960W        W16286   7.259  38.446   4.830
43961W        W16287  40.493  42.487  12.574
43962W        W16288  26.060  44.328  11.979
43963W        W16289  20.039  31.611   2.398
43964W        W16290   8.311   2.821  13.354
43965W        W16291  11.334  42.487   0.779
43966W        W16292  42.447  31.054   0.949
43967W        W16293   0.353  25.621   4.241
43968W        W16294  18.176   1.354  13.407
43969W        W16295  15.643  14.237   3.671
43970W        W16296  19.235  24.684  10.958
43971W        W16297  21.042  23.106  14.340
43972W        W16298  30.478  28.082  14.855
43973W        W16299  22.727  28.596  14.944
43974W        W16300  38.031  10.312   9.612
43975W        W16301  30.455  23.672   1.345
43976W        W16302   2.824   6.746   0.313
43977W        W16303   1.931  34.442   1.386
43978W        W16304  26.483   0.337  13.475
43979W        W16305   0.931  21.042   1.915
43980W        W16306  44.381  32.040   2.761
43981W        W16307   3.326  17.611   4.752
43982W        W16308  25.591  15.796  14.277
43983W        W16309   2.271  11.251  11.116
43984W        W16310  39.021  40.527  11.409
43985W        W16311   7.891  19.247  12.414
43986W        W16312   0.484  43.301   1.217
43987W        W16313   1.375  26.983   4.821
43988W        W16314  20.059   3.841   4.132
43989W        W16315  19.608  10.355  10.070
43990W        W16316  26.159  42.800  11.604
43991W        W16317  38.915  29.072  11.551
43992W        W16318  43.873  41.317  10.616
43993W        W16319  19.231  35.941  10.555
43994W        W16320   3.793  33.990   2.784
43995W        W16321   2.353  20.611  10.643
43996W        W16322   1.381   5.219   4.349
43997W        W16323  12.649  24.035   3.723
43998W        W16324  35.895  29.976  11.416
43999W        W16325  16.299  39.949  12.539
44000W        W16326  37.579  21.062   2.325
44001W        W16327   4.416   9.765   5.095
44002W        W16328  14.602   3.734  11.515
44003W        W16329  40.956  39.888   0.311
44004W        W16330  24.201   1.378  13.026
44005W        W16331  24.002   1.280   1.418
44006W        W16332  12.684   6.790   4.247
44007W        W16333  19.633  28.626   1.731
44008W        W16334  32.491  12.782   0.362
44009W        W16335  34.422  37.048  11.506
44010W        W16336  15.210  32.993  13.971
44011W        W16337  39.443  10.833   5.086
44012W        W16338   5.813  23.193  10.459
44013W        W16339  13.113  26.994  12.388
44014W        W16340   8.880  32.450   1.420
44015W        W16341   8.803   2.855  13.896
44016W        W16342  16.606  40.828   3.867
44017W        W16343   8.834   5.382  14.464
44018W        W16344  42.031  44.927   0.762
44019W        W16345  10.321  40.984  10.526
44020W        W16346   6.732  21.105   4.272
44021W        W16347  18.095  20.102  14.850
44022W        W16348  11.239  44.821  14.314
44023W        W16349  40.968   7.817  13.475
44024W        W16350   0.430  12.337   2.728
44025W        W16351  21.757  34.381   4.727
44026W        W16352  17.207   7.345  14.418
44027W        W16353   1.805  33.513   4.743
44028W        W16354  14.115  26.468  13.855
44029W        W16355   6.679  34.524   2.788
44030W        W16356   6.361   8.669  13.848
44031W        W16357  34.384  22.502   2.778
44032W        W16358  27.953  38.400  12.544
44033W        W16359   8.190  23.691  11.376
44034W        W16360  13.749  25.968   3.848
44035W        W16361  26.111  42.526   3.384
44036W        W16362  39.037  22.186   3.202
44037W        W16363   3.883   9.750   5.308
44038W        W16364  43.496   7.209   1.389
44039W        W16365  43.865  17.623   0.730
44040W        W16366   3.310  37.546   4.198
44041W        W16367   8.866  26.148  12.829
44042W        W16368   6.215  26.061  11.424
44043W        W16369  16.100  28.632   0.320
44044W        W16370  13.724  31.624   4.298
44045W        W16371  30.929  40.904   2.794
44046W        W16372  31.541  43.274   1.865
44047W        W16373  18.125  21.067   1.833
44048W        W16374  23.185  26.489  14.822
44049W        W16375  35.999   7.185  10.407
44050W        W16376  12.185  41.965   3.728
44051W        W16377  12.336  39.399   4.759
44052W        W16378  30.531  36.409   1.896
44053W        W16379  15.607   1.807   2.884
44054W        W16380  26.969  28.550   2.899
44055W        W16381   8.325  10.241   1.912
44056W        W16382   7.764  16.213   2.331
44057W        W16383  19.663  28.460   1.325
44058W        W16384  17.184   3.336  10.003
44059W        W16385  11.180  22.572   4.807
44060W        W16386  22.035  24.077  13.840
44061W        W16387  30.468  20.169  11.890
44062W        W16388  16.604   7.841   4.155
44063W        W16389   4.262  10.314   3.288
44064W        W16390  37.554  32.123   2.883
44065W        W16391  23.231  33.997   3.342
44066W        W16392   3.373  21.662   5.796
44067W        W16393  10.725  29.039   1.914
44068W        W16394  10.200  32.496  14.462
44069W        W16395  26.066  19.122  13.029
44070W        W16396  10.361  30.958   0.288
44071W        W16397  22.032  35.363   0.345
44072W        W16398  13.296  31.050   2.419
44073W        W16399   4.765  37.045  13.980
44074W        W16400  43.949   0.958  13.453
44075W        W16401  32.424  43.945  11.491
44076W        W16402   8.325  37.546   0.791
44077W        W16403  30.042  27.168   2.818
44078W        W16404  29.628  19.664  13.316
44079W        W16405  15.714  43.299  14.471
44080W        W16406  31.948  37.385   2.187
44081W        W16407  26.986  26.196  10.489
44082W        W16408  38.436  11.195   3.742
44083W        W16409   2.831  43.801   3.739
44084W        W16410  10.740  33.884   3.787
44085W        W16411   8.865  17.165  11.859
44086W        W16412  11.291  36.564  13.381
44087W        W16413  41.866  33.574   2.279
44088W        W16414  39.485  36.894  13.496
44089W        W16415  42.896  19.134  10.923
44090W        W16416  26.019  19.048   4.661
44091W        W16417  31.953   9.776  10.573
44092W        W16418  42.831   2.933  11.018
44093W        W16419   1.934  36.526  14.281
44094W        W16420  13.163  34.608   0.427
44095W        W16421   4.752  42.802  13.029
44096W        W16422  28.028  17.279   0.870
44097W        W16423  24.683  35.926  13.405
44098W        W16424  32.507  31.583   0.308
44099W        W16425  26.633   4.271  14.965
44100W        W16426   5.727   3.395  12.954
44101W        W16427  18.257   7.365   1.391
44102W        W16428  17.276  14.094   5.236
44103W        W16429  26.037  41.934  11.952
44104W        W16430  36.073   6.800  14.474
44105W        W16431   8.288  38.558   4.223
44106W        W16432  37.992   8.889   0.770
44107W        W16433   7.190  34.479   1.784
44108W        W16434  35.071  38.915  13.869
44109W        W16435  36.946  20.266  12.863
44110W        W16436  21.199  23.098  12.917
44111W        W16437  15.169  18.085   3.707
44112W        W16438  22.521  11.726  10.634
44113W        W16439  13.168  26.556   0.875
44114W        W16440  41.980  28.061   5.224
44115W        W16441   0.942  38.891  10.419
44116W        W16442  41.520  17.198   3.241
44117W        W16443  37.484  40.999  12.359
44118W        W16444  15.180  30.461  11.993
44119W        W16445  32.480   7.730  12.949
44120W        W16446  35.854  24.518   0.774
44121W        W16447  23.128  14.198  11.072
44122W        W16448  19.534  40.384  13.903
44123W        W16449  20.094   1.870   4.606
44124W        W16450  11.798  25.036   1.342
44125W        W16451  38.985  29.161  13.456
44126W        W16452  16.742  13.171  13.430
44127W        W16453   2.751   8.242  12.043
44128W        W16454  19.680  25.093  11.927
44129W        W16455   0.976  11.851  12.047
44130W        W16456  15.183   8.184  11.532
44131W        W16457  29.016  40.313  13.909
44132W        W16458  40.373  29.484  10.412
44133W        W16459   1.854   2.302  14.516
44134W        W16460   9.868  13.784   0.843
44135W        W16461  41.357   5.835   1.844
44136W        W16462   8.295  13.240  13.889
44137W        W16463  24.704   9.839   1.795
44138W        W16464   6.235   9.279  13.352
44139W        W16465  22.211  11.134  13.396
44140W        W16466   5.275   8.241   4.790
44141W        W16467  34.970  12.310  13.441
44142W        W16468  39.920  17.591   2.895
44143W        W16469   5.229  21.163  10.469
44144W        W16470  25.987   7.321  12.478
44145W        W16471   6.203   4.905  11.056
44146W        W16472  15.735  16.635  13.451
44147W        W16473  15.192  23.006  11.875
44148W        W16474  28.526  34.472  13.818
44149W        W16475  20.747  26.677   0.407
44150W        W16476  14.784  31.570  14.296
44151W        W16477  33.398  42.928   5.270
44152W        W16478  25.077  10.754  13.916
44153W        W16479  28.169  11.823  12.479
44154W        W16480  10.200   1.409  11.431
44155W        W16481  14.806  36.880   3.852
44156W        W16482  39.373   7.841   2.362
44157W        W16483  17.647  38.431   1.275
44158W        W16484  14.128  40.919  13.472
44159W        W16485  23.526  11.720  12.490
44160W        W16486  42.419  21.610  13.007
44161W        W16487  12.662  10.236   3.800
44162W        W16488  20.169  24.174   0.802
44163W        W16489  36.517  17.578  10.993
44164W        W16490  25.127  13.133   1.920
44165W        W16491  40.311   6.284   2.354
44166W        W16492  28.072  16.079   2.263
44167W        W16493  39.972   3.792   3.359
44168W        W16494  27.579   1.736   3.386
44169W        W16495  28.143  26.639  12.898
44170W        W16496  37.392  43.468   3.784
44171W        W16497  15.597   0.350   3.829
44172W        W16498  14.215   8.348   4.169
44173W        W16499  20.757  11.633  14.843
44174W        W16500   8.259  21.079  11.094
44175W        W16501   8.753  35.580  11.383
44176W        W16502  42.281   9.199   0.965
44177W        W16503  23.601  12.220  11.954
44178W        W16504  30.986  44.399   4.672
44179W        W16505   4.916  10.639   4.611
44180W        W16506  39.342  38.527  11.927
44181W        W16507   0.850  29.641   2.266
44182W        W16508  28.949  34.423   2.829
44183W        W16509   6.783  24.978  10.891
44184W        W16510  19.285  30.648   1.741
44185W        W16511  29.502   7.280   0.840
44186W        W16512  38.428  32.103  12.930
44187W        W16513  37.928  24.538   0.897
44188W        W16514   8.377  38.906   4.723
44189W        W16515  19.768   2.336   4.338
44190W        W16516  23.720  43.773   2.313
44191W        W16517  29.100   9.163   4.160
44192W        W16518  43.427   0.845  11.867
44193W        W16519  13.761   3.300   2.322
44194W        W16520  12.122  27.551  14.389
44195W        W16521  13.191  34.551  14.840
44196W        W16522  33.590  27.497   4.274
44197W        W16523  14.281  33.514   0.395
44198W        W16524  38.506  35.409  12.914
44199W        W16525  27.176  43.385  11.915
44200W        W16526  24.204   1.305   2.218
44201W        W16527   8.371   9.157   0.325
44202W        W16528  26.465   9.750   2.189
44203W        W16529  21.133  15.779  12.495
44204W        W16530  15.685  25.015   2.881
44205W        W16531   7.242  15.658  12.402
44206W        W16532  43.417  32.925  14.403
44207W        W16533  16.271  27.941  10.582
44208W        W16534  31.900   6.716  14.478
44209W        W16535   7.208  32.121   0.301
44210W        W16536  23.533   7.846   3.155
44211W        W16537   9.362   2.961   3.264
44212W        W16538  40.438  41.427  13.984
44213W        W16539  21.125  11.755  13.994
44214W        W16540  17.062   0.969  10.083
44215W        W16541  18.169  14.164   0.438
44216W        W16542  22.222   0.924  12.454
44217W        W16543  14.829   1.925   3.253
44218W        W16544   5.702  39.839  12.953
44219W        W16545  44.962  25.162   5.263
44220W        W16546  33.905   1.342  11.099
44221W        W16547  30.999  25.572  13.929
44222W        W16548  41.837  13.218  12.536
44223W        W16549  37.486  22.074   3.633
44224W        W16550  43.475  19.275   1.313
44225W        W16551   4.870  27.942   4.823
44226W        W16552  10.837   7.697  10.976
44227W        W16553  32.918  26.664  12.426
44228W        W16554   9.765  16.785  11.492
44229W        W16555  36.535   2.853  14.277
44230W        W16556  40.516  14.589   2.815
44231W        W16557   9.841  34.919  11.381
44232W        W16558   3.375  24.138   5.745
44233W        W16559   1.870  17.271  15.000
44234W        W16560   1.284  35.524  13.548
44235W        W16561  39.446   5.285  13.934
44236W        W16562  34.524   9.224   1.325
44237W        W16563  14.770   8.192   1.438
44238W        W16564  41.025  32.557   3.244
44239W        W16565  42.907  33.051   2.675
44240W        W16566   6.682   9.759   0.745
44241W        W16567  24.576  15.270   2.378
44242W        W16568  27.607  25.511   9.462
44243W        W16569  41.022  13.756  11.968
44244W        W16570  24.033  11.663   4.692
44245W        W16571  30.957  36.927   0.329
44246W        W16572  16.301  22.575   0.432
44247W        W16573  21.554   5.801   0.784
44248W        W16574  13.776  26.642   1.372
44249W        W16575  21.643   4.716  14.934
44250W        W16576   0.334  32.097   4.140
44251W        W16577  19.103  25.582   3.768
44252W        W16578  25.708  31.920   1.304
44253W        W16579   7.175  43.938  11.464
44254W        W16580  36.874   6.879  12.403
44255W        W16581  10.732  24.061   4.633
44256W        W16582  27.628  25.490  11.572
44257W        W16583   5.343   6.301  10.000
44258W        W16584  21.550   8.225  13.924
44259W        W16585  44.309  38.471  14.904
44260W        W16586  21.208  32.897  11.974
44261W        W16587  13.843  26.513  14.008
44262W        W16588  15.637  24.143   3.732
44263W        W16589  33.005   2.327   0.350
44264W        W16590  34.997  24.149  10.510
44265W        W16591  14.320  42.465  12.917
44266W        W16592  29.504  42.510  12.381
44267W        W16593  22.626  20.112   9.921
44268W        W16594  36.521  17.257   0.817
44269W        W16595  35.578   9.744  13.799
44270W        W16596   5.256   7.230   4.597
44271W        W16597  20.091  23.689  13.347
44272W        W16598  16.616  36.581   3.869
44273W        W16599   1.278  11.253  14.328
44274W        W16600  18.616  41.408   0.922
44275W        W16601  31.051   8.772  11.520
44276W        W16602   2.870  30.023   3.381
44277W        W16603  38.970   9.755  14.909
44278W        W16604  12.762  30.552   1.283
44279W        W16605  26.478  38.884   3.685
44280W        W16606   4.875  36.403  12.391
44281W        W16607  18.250  13.148   4.677
44282W        W16608   6.301  15.714  10.608
44283W        W16609  16.159   3.237   2.777
44284W        W16610  44.937  36.865  10.547
44285W        W16611  14.670   5.878   2.675
44286W        W16612  33.002  25.510   2.750
44287W        W16613  27.119  32.492  12.998
44288W        W16614   8.876   4.724  13.856
44289W        W16615  28.099  24.515   2.787
44290W        W16616  39.896  34.023   0.365
44291W        W16617  20.185  19.117  11.900
44292W        W16618  21.526  37.050   0.320
44293W        W16619  35.076  21.609  14.962
44294W        W16620  33.507  14.689  11.529
44295W        W16621  17.202   5.713   3.155
44296W        W16622   7.899  33.465   3.204
44297W        W16623  39.053  10.320  11.922
44298W        W16624  12.354  35.394   0.935
44299W        W16625  38.441  40.825   2.419
44300W        W16626  42.498  28.584  13.318
44301W        W16627  20.528  43.925  14.307
44302W        W16628  32.601  37.035   1.425
44303W        W16629  37.375   9.736   1.925
44304W        W16630  13.660   1.778   1.290
44305W        W16631  29.432  19.158   1.866
44306W        W16632  24.047  40.801  13.902
44307W        W16633  20.108  12.143  12.049
44308W        W16634  33.031  27.012   4.332
44309W        W16635   4.750  21.089   0.341
44310W        W16636  35.881   1.779  12.504
44311W        W16637  16.613  40.388   1.753
44312W        W16638  33.125  27.014   0.742
44313W        W16639  36.578  20.672  14.773
44314W        W16640  11.862  10.756  12.389
44315W        W16641  17.266  33.118  13.843
44316W        W16642  33.038  42.806   4.610
44317W        W16643  40.410  15.096   1.863
44318W        W16644  13.820   4.843   3.148
44319W        W16645  10.333   9.802  10.511
44320W        W16646   2.361  26.122   4.157
44321W        W16647   6.687   3.819   4.784
44322W        W16648  16.290  19.271   2.758
44323W        W16649  34.608   1.239   1.354
44324W        W16650  16.803  23.219   1.877
44325W        W16651   4.824   1.829   4.267
44326W        W16652  27.979  18.232   1.848
44327W        W16653  34.976  22.228  13.844
44328W        W16654  28.662  34.013  12.455
44329W        W16655  25.542  37.022  10.456
44330W        W16656   8.711  21.151  12.462
44331W        W16657  40.333  20.130  10.562
44332W        W16658  23.725  38.854  10.976
44333W        W16659  43.928  41.516  12.894
44334W        W16660  39.876   6.285   4.648
44335W        W16661   3.800  37.885  12.570
44336W        W16662  29.658   1.372  10.601
44337W        W16663  42.825   6.881  10.947
44338W        W16664  16.157   8.730  13.548
44339W        W16665  44.976   3.284  12.884
44340W        W16666  42.373   8.871  10.987
44341W        W16667  17.635  27.045  12.554
44342W        W16668   7.320   3.840   2.314
44343W        W16669  10.828  32.110   1.893
44344W        W16670  25.966   7.817   1.310
44345W        W16671  41.810  30.603   2.801
44346W        W16672  24.597  36.895  12.900
44347W        W16673  42.366  27.943   2.842
44348W        W16674   2.252   1.959  14.025
44349W        W16675  44.311  18.643  13.974
44350W        W16676  41.479   2.814   2.238
44351W        W16677  41.808  23.632   2.211
44352W        W16678  14.735  37.975  12.560
44353W        W16679  39.039  23.111   4.276
44354W        W16680   0.329  30.002  12.022
44355W        W16681  28.989  27.563  14.007
44356W        W16682  17.580  36.420  14.800
44357W        W16683  20.733  41.800  14.293
44358W        W16684   1.399   0.414  13.491
44359W        W16685  39.835  24.016  10.891
44360W        W16686   1.745  30.620   2.863
44361W        W16687   8.730   8.730  13.045
44362W        W16688  23.722  14.118  12.437
44363W        W16689  27.670  11.145   1.345
44364W        W16690  26.469   5.281   1.414
44365W        W16691  42.502   3.397  12.075
44366W        W16692   0.449  42.352   4.221
44367W        W16693  32.075  16.121  14.950
44368W        W16694  16.145  25.509  12.521
44369W        W16695  39.338  11.305  12.040
44370W        W16696  33.444  36.039  13.838
44371W        W16697  17.141  30.981  13.034
44372W        W16698   3.749  30.532  14.972
44373W        W16699   9.698  44.264   2.806
44374W        W16700  14.160  26.605   9.921
44375W        W16701  37.511  40.046   4.289
44376W        W16702  25.657  40.038  11.958
44377W        W16703  26.596  26.616   5.620
44378W        W16704  22.248  20.611   3.646
44379W        W16705  39.822  17.683  12.996
44380W        W16706  16.577  29.588   1.257
44381W        W16707  38.547  33.465   3.315
44382W        W16708  29.551  29.612  12.536
44383W        W16709  16.103  35.545   0.465
44384W        W16710   7.754  32.494   4.156
44385W        W16711  16.625   7.738   1.219
44386W        W16712  13.223  22.675  13.545
44387W        W16713   7.306  12.320   0.296
44388W        W16714  42.314   1.443  13.003
44389W        W16715  27.987   0.280  12.568
44390W        W16716  12.138  16.677   0.791
44391W        W16717  33.987   2.804   3.267
44392W        W16718  30.012  17.169   3.306
44393W        W16719  21.726  13.764   2.338
44394W        W16720  20.571  15.204   2.232
44395W        W16721  21.727  11.672  11.989
44396W        W16722  10.255  31.999  11.448
44397W        W16723  25.094  25.693   4.196
44398W        W16724  39.018  29.489   0.258
44399W        W16725  26.618   8.187  12.579
44400W        W16726  10.230  43.844  14.958
44401W        W16727  10.186   2.423  12.039
44402W        W16728  10.261   1.332   2.324
44403W        W16729  20.566  19.119   3.277
44404W        W16730  40.523  36.944  13.881
44405W        W16731  35.431   3.785   1.282
44406W        W16732  41.373   5.913  10.533
44407W        W16733  15.748  11.628  12.553
44408W        W16734  30.433  26.538   3.742
44409W        W16735  36.435   2.300  13.471
44410W        W16736  13.694  44.276   2.736
44411W        W16737  30.989  34.088  13.386
44412W        W16738  41.528   3.391   9.968
44413W        W16739  28.481  20.141  14.807
44414W        W16740   2.917  35.994   3.295
44415W        W16741  33.101  40.313   3.836
44416W        W16742  26.982  10.764  14.974
44417W        W16743  15.240  13.336   4.333
44418W        W16744  30.044  10.200  12.552
44419W        W16745  43.815  26.986  11.996
44420W        W16746  21.659  36.887   9.481
44421W        W16747  41.305  25.206  14.027
44422W        W16748  12.238  36.079   2.368
44423W        W16749   4.778  32.493   0.820
44424W        W16750  39.019  30.043  14.390
44425W        W16751  25.489  38.864   4.220
44426W        W16752   3.406  11.271  14.983
44427W        W16753  19.634   9.805  10.521
44428W        W16754  20.738  20.253  10.618
44429W        W16755  44.989  38.874  13.894
44430W        W16756  23.046  32.497   3.318
44431W        W16757   8.664  14.826   0.847
44432W        W16758  12.217  20.220  10.609
44433W        W16759   4.396  39.889  11.412
44434W        W16760  28.008  39.826  12.473
44435W        W16761   5.364  22.168   2.749
44436W        W16762   5.851  23.144   4.745
44437W        W16763  34.421  10.213   1.285
44438W        W16764   6.803   4.397  13.410
44439W        W16765  24.025  15.675  10.124
44440W        W16766  10.834  22.552   1.306
44441W        W16767   7.352   5.856  13.903
44442W        W16768   6.336  37.968  12.384
44443W        W16769   5.310  30.499  11.917
44444W        W16770  25.122  33.470   1.845
44445W        W16771   5.748  15.225   1.412
44446W        W16772   3.222  22.723  13.542
44447W        W16773  33.938  16.082   1.872
44448W        W16774  30.079  11.812   4.792
44449W        W16775   5.920  21.166  10.643
44450W        W16776   6.191  38.416   0.934
44451W        W16777  19.692  33.430  13.919
44452W        W16778  29.603  12.824   3.150
44453W        W16779  44.977  43.827   3.669
44454W        W16780   3.215  21.609   2.748
44455W        W16781   0.402   7.242  10.551
44456W        W16782  25.964   4.376  13.470
44457W        W16783  27.115  14.259   3.639
44458W        W16784   2.883  31.575  12.831
44459W        W16785  25.601   1.873  13.377
44460W        W16786   0.949  21.558  14.406
44461W        W16787  36.551  21.679  12.387
44462W        W16788  21.033  41.869  14.785
44463W        W16789  33.437  27.088   0.293
44464W        W16790  12.787   7.271  11.875
44465W        W16791   4.399   8.673   0.396
44466W        W16792  14.205  41.440   2.232
44467W        W16793   5.708  36.854   1.250
44468W        W16794  32.538   3.422  12.461
44469W        W16795   3.929  39.007  12.999
44470W        W16796  28.439   4.785  12.044
44471W        W16797  37.563   1.899  12.450
44472W        W16798  23.169  32.635   1.745
44473W        W16799  22.233   2.285   2.901
44474W        W16800   0.978  20.159  10.424
44475W        W16801  44.266  22.020   2.189
44476W        W16802  44.945  18.146  11.497
44477W        W16803  34.508  29.029  11.556
44478W        W16804  40.879  37.409  14.976
44479W        W16805  22.669  27.468  11.115
44480W        W16806  13.738  35.493   1.882
44481W        W16807  20.649  35.867  14.824
44482W        W16808  22.587  43.420  13.959
44483W        W16809  33.913  36.458  11.500
44484W        W16810  41.948   2.937   1.395
44485W        W16811  12.770   0.362   3.212
44486W        W16812  34.998  30.421   0.839
44487W        W16813  27.561  23.188   1.280
44488W        W16814  35.921   0.484  14.972
44489W        W16815  15.096  43.419   2.374
44490W        W16816  17.669  39.339   3.663
44491W        W16817  10.144  43.773   2.211
44492W        W16818   4.797  27.478  13.499
44493W        W16819  34.914  14.133   0.726
44494W        W16820  15.686   2.747   4.605
44495W        W16821  12.193  39.822   4.607
44496W        W16822   1.944  27.642  11.473
44497W        W16823  11.193  18.238  14.016
44498W        W16824  13.169  26.672   4.773
44499W        W16825  31.443  33.510  13.059
44500W        W16826  12.206   4.828   1.282
44501W        W16827   9.808  24.649   0.736
44502W        W16828  20.768   1.787   2.767
44503W        W16829  36.490  29.564  13.451
44504W        W16830  11.213  42.280   3.262
44505W        W16831   4.738  18.163   4.196
44506W        W16832   4.897  16.133  13.804
44507W        W16833   2.813  33.901   0.736
44508W        W16834   0.323  13.609   0.340
44509W        W16835  41.355  43.409   0.780
44510W        W16836  14.314  21.612   2.792
44511W        W16837  10.340  18.050  14.487
44512W        W16838  41.920   2.393   2.686
44513W        W16839  20.160   6.317  12.411
44514W        W16840  30.936  29.071  12.835
44515W        W16841  25.557  24.170  14.769
44516W        W16842   0.417  32.045   4.603
44517W        W16843  34.957  19.737   3.760
44518W        W16844   1.318  25.579   1.720
44519W        W16845  36.367  33.499  10.585
44520W        W16846   1.446  20.737  11.464
44521W        W16847  31.623   4.244   0.938
44522W        W16848   4.424  23.558   9.940
44523W        W16849  15.283  22.221   4.152
44524W        W16850   4.848   7.796   2.836
44525W        W16851  14.734   1.844   4.633
44526W        W16852  34.891  33.591  13.393
44527W        W16853  27.597  44.999  13.410
44528W        W16854  24.679  37.544   0.328
44529W        W16855  23.090   0.286  12.958
44530W        W16856  16.108  30.483  13.540
44531W        W16857  15.318  18.200   2.412
44532W        W16858  40.396  29.620  11.925
44533W        W16859  11.675  35.057  13.360
44534W        W16860  16.106  26.120   4.675
44535W        W16861  27.002  13.789  14.319
44536W        W16862  42.415  24.597  12.483
44537W        W16863  24.587  17.200  14.813
44538W        W16864  20.067   7.822  11.003
44539W        W16865  20.073  40.509  13.864
44540W        W16866  16.680  38.978   1.758
44541W        W16867  10.179  20.604   0.955
44542W        W16868  27.689  17.286  11.398
44543W        W16869   3.231   3.876   2.707
44544W        W16870  32.071  16.236   3.277
44545W        W16871  34.055  34.051   3.831
44546W        W16872  17.764  31.019   2.214
44547W        W16873   4.304  24.197   3.292
44548W        W16874  41.474  35.074   4.169
44549W        W16875  33.441  40.533   3.252
44550W        W16876  36.483   2.766  10.476
44551W        W16877   5.309  32.409  10.609
44552W        W16878  26.954   0.877  12.907
44553W        W16879  15.713  12.845   3.165
44554W        W16880  21.112  11.796   2.813
44555W        W16881  34.895  41.513  14.960
44556W        W16882   1.890  10.300   3.853
44557W        W16883   1.749   2.357  12.854
44558W        W16884  24.079  44.971  10.596
44559W        W16885  25.995  34.911  10.910
44560W        W16886  39.845  10.694  10.569
44561W        W16887  32.568  28.601  11.587
44562W        W16888  34.008  30.574   4.795
44563W        W16889   7.241  14.302   1.812
44564W        W16890  19.712   5.874  14.308
44565W        W16891  34.011  43.827  14.308
44566W        W16892  26.122  31.617   0.772
44567W        W16893  12.651  13.279   3.837
44568W        W16894  37.438  23.126   3.687
44569W        W16895  20.198  14.138   5.210
44570W        W16896  34.488  23.518   2.693
44571W        W16897  37.952  11.797  11.437
44572W        W16898   8.717  19.585  14.459
44573W        W16899  36.047  12.219   4.352
44574W        W16900   5.413  14.274  14.902
44575W        W16901   9.667  11.650  14.419
44576W        W16902  44.389  32.885   5.101
44577W        W16903  27.073  41.366   2.744
44578W        W16904  29.598   3.344   5.255
44579W        W16905  42.285   8.323  14.380
44580W        W16906  18.624  35.381   0.403
44581W        W16907   1.253  29.097   2.848
44582W        W16908  26.955  17.728  12.939
44583W        W16909  26.145   0.421   1.403
44584W        W16910   6.391  43.356   1.258
44585W        W16911  22.742  25.529  12.999
44586W        W16912  44.381  12.731   4.808
44587W        W16913  34.613   7.817   0.349
44588W        W16914  29.949  33.085   4.123
44589W        W16915   0.952  20.690   2.229
44590W        W16916   3.268  12.197  13.996
44591W        W16917  36.015   5.433  12.899
44592W        W16918   0.800   4.786   3.838
44593W        W16919   6.237   7.863   0.859
44594W        W16920  20.043  30.159  14.772
44595W        W16921  21.667  21.153   3.786
44596W        W16922  38.927  33.117  10.621
44597W        W16923  32.993  43.513  12.085
44598W        W16924  36.542  20.200  14.985
44599W        W16925   8.317  11.286   1.226
44600W        W16926   8.763  18.249   0.409
44601W        W16927  40.955  19.074  14.451
44602W        W16928  25.049  44.343   1.280
44603W        W16929  29.572  28.651  11.887
44604W        W16930  24.053   2.766  13.469
44605W        W16931  17.301  29.613  13.356
44606W        W16932   1.252  19.704   1.349
44607W        W16933  12.142  30.446   4.251
44608W        W16934  11.624  39.048  11.509
44609W        W16935   5.866  22.658  12.396
44610W        W16936  33.423  28.437   2.190
44611W        W16937  37.060   8.866   2.215
44612W        W16938  16.191   1.308   0.778
44613W        W16939  17.285  41.978  12.070
44614W        W16940   4.893  33.580   0.335
44615W        W16941   5.227  30.950  11.377
44616W        W16942   4.876  42.427  12.540
44617W        W16943   9.768   1.254   4.149
44618W        W16944   0.397   6.233  12.930
44619W        W16945  14.798  40.985  13.809
44620W        W16946  35.559  25.186  13.406
44621W        W16947   2.756  32.523   2.830
44622W        W16948  39.344  22.055   3.651
44623W        W16949   6.383   0.764  14.784
44624W        W16950  38.822  29.489  12.007
44625W        W16951  16.184  17.173  11.473
44626W        W16952  39.868   0.418   4.686
44627W        W16953   8.715  14.695   2.818
44628W        W16954   1.295   9.341  10.589
44629W        W16955  12.244  19.590   0.791
44630W        W16956   5.798   0.757  10.609
44631W        W16957  25.707  20.530   1.852
44632W        W16958  19.203   9.247  13.830
44633W        W16959  43.804  20.625  13.451
44634W        W16960  20.180  29.067   2.676
44635W        W16961  37.873  38.493  13.974
44636W        W16962   4.228  21.111  13.390
44637W        W16963  29.017  15.680  14.366
44638W        W16964  21.539  37.943  13.948
44639W        W16965   0.819  12.276  14.009
44640W        W16966  44.985  36.518  12.506
44641W        W16967  22.080  30.091  11.050
44642W        W16968  29.611  35.954   5.263
44643W        W16969   9.304  40.467   4.826
44644W        W16970  36.514  22.551   0.906
44645W        W16971  41.492  27.099  14.951
44646W        W16972  21.130  40.522   5.225
44647W        W16973  37.390   8.865  11.934
44648W        W16974   8.862  28.487   3.239
44649W        W16975  40.044  29.512   2.189
44650W        W16976  30.074  13.705  12.546
44651W        W16977  37.485  30.417  13.468
44652W        W16978  15.262  29.144  12.515
44653W        W16979  38.475  31.083  10.913
44654W        W16980  44.009  35.441  12.404
44655W        W16981  44.949  33.453   2.257
44656W        W16982  30.061  22.157   1.902
44657W        W16983  12.713  24.701  11.088
44658W        W16984   1.822  38.491  10.986
44659W        W16985  15.106  41.987   1.923
44660W        W16986  28.438   5.204   4.208
44661W        W16987   5.916  29.977  12.372
44662W        W16988  39.554  39.879   3.811
44663W        W16989   8.656  34.120   2.256
44664W        W16990   1.837  24.516  13.847
44665W        W16991  35.072  40.022   3.175
44666W        W16992  43.826   4.904  11.080
44667W        W16993   1.737  28.597  13.433
44668W        W16994  16.178  42.416   0.762
44669W        W16995  15.302  14.717  14.930
44670W        W16996  21.252  10.297   1.445
44671W        W16997   2.893   8.381  14.977
44672W        W16998  40.473  29.087  11.485
44673W        W16999  27.144  35.857  11.492
44674W        W17000  42.335  26.016   1.798
44675W        W17001  42.877  34.868   4.115
44676W        W17002  19.136  15.805  10.460
44677W        W17003  35.855  29.569   4.728
44678W        W17004  38.531   3.873  10.490
44679W        W17005   9.878   4.349  14.762
44680W        W17006  33.119  36.376  12.494
44681W        W17007  35.922  27.685  13.896
44682W        W17008  11.854  30.011   4.188
44683W        W17009  33.557   0.423   1.369
44684W        W17010  12.336   2.961   0.294
44685W        W17011  27.138   0.333   1.789
44686W        W17012  15.709   4.256   3.302
44687W        W17013  26.951  24.702   1.847
44688W        W17014  37.868  23.191   4.256
44689W        W17015   2.298   0.317  11.443
44690W        W17016  13.724  31.428   0.383
44691W        W17017  33.903  39.040   0.314
44692W        W17018  21.054  44.383   2.817
44693W        W17019  33.015   1.443   3.733
44694W        W17020  32.403  16.289   1.400
44695W        W17021  10.341  33.507  14.464
44696W        W17022  27.108  37.855  10.525
44697W        W17023  38.500  36.933   0.810
44698W        W17024  39.809  15.766  12.068
44699W        W17025  24.038  34.410   0.964
44700W        W17026  33.970   2.873  11.104
44701W        W17027  26.554  23.707   5.100
44702W        W17028  17.753   6.690   0.917
44703W        W17029  18.547  19.198  12.887
44704W        W17030   1.756   0.430   2.339
44705W        W17031   4.347  37.011   1.707
44706W        W17032  32.907  21.245  10.497
44707W        W17033   9.710  20.569  11.871
44708W        W17034  10.782  28.968  11.522
44709W        W17035  14.793  25.971  10.461
44710W        W17036  24.002  43.784   4.599
44711W        W17037  13.825   2.944   4.711
44712W        W17038  28.577   5.905  13.985
44713W        W17039  14.804  31.999   4.780
44714W        W17040   4.822   4.398  14.403
44715W        W17041  17.795  24.560   4.803
44716W        W17042  28.157  25.644   2.311
44717W        W17043   2.779  21.558   1.707
44718W        W17044  38.568  30.545  14.761
44719W        W17045  30.486  37.562   1.265
44720W        W17046  39.382  42.516  10.560
44721W        W17047  25.553  38.526   3.747
44722W        W17048  34.966  22.696  11.514
44723W        W17049   2.394  35.974  11.408
44724W        W17050  22.589  43.996   2.850
44725W        W17051  18.183   0.480  12.971
44726W        W17052  39.894  41.483  14.275
44727W        W17053  44.301  39.970  11.465
44728W        W17054  19.589   3.921  14.314
44729W        W17055  19.612   6.314   3.159
44730W        W17056   0.394   7.179  12.061
44731W        W17057  12.287  29.176  11.065
44732W        W17058  17.726   1.470   4.229
44733W        W17059  22.103  28.668   1.402
44734W        W17060   1.470  22.550  14.443
44735W        W17061  36.368   1.448  13.826
44736W        W17062   3.395  10.665  14.448
44737W        W17063  16.099  32.971   1.711
44738W        W17064  29.156  22.226  14.281
44739W        W17065  15.709  23.239  14.863
44740W        W17066   1.892  37.448   0.763
44741W        W17067  12.836  13.300  12.035
44742W        W17068  13.165   6.738   2.237
44743W        W17069  11.760   3.948   4.654
44744W        W17070  30.579  25.068   2.413
44745W        W17071  39.832  10.179   1.310
44746W        W17072   1.868  44.759  11.578
44747W        W17073  32.030  29.981   0.871
44748W        W17074  24.602   9.394   4.828
44749W        W17075  39.983   7.853   4.618
44750W        W17076  24.119   9.169   3.640
44751W        W17077  37.896  36.966   1.394
44752W        W17078  40.044   2.767  11.435
44753W        W17079  10.314  18.787   2.319
44754W        W17080   6.311  33.504  11.998
44755W        W17081  24.091   1.316   0.435
44756W        W17082  33.417  27.532   9.962
44757W        W17083  25.693  24.655   1.842
44758W        W17084  17.730   1.402  13.994
44759W        W17085  39.916  38.832  13.966
44760W        W17086  14.215  36.500   4.715
44761W        W17087   3.395  33.952   2.685
44762W        W17088  20.645  44.800   0.963
44763W        W17089  38.472  22.551   3.248
44764W        W17090  24.100  40.025   3.197
44765W        W17091  28.008   5.746   3.862
44766W        W17092  42.314  11.640   2.798
44767W        W17093  28.087  19.728   3.339
44768W        W17094  27.526  27.517   4.329
44769W        W17095  35.376  31.434  13.420
44770W        W17096  18.197  16.766   0.889
44771W        W17097  44.827   7.757   3.354
44772W        W17098  41.810   3.838  10.476
44773W        W17099  27.566  32.603  10.427
44774W        W17100  29.929   2.724   4.209
44775W        W17101  28.103  21.184   5.127
44776W        W17102   1.467   9.812   3.290
44777W        W17103  10.788  41.986  10.499
44778W        W17104   0.953   5.926  13.401
44779W        W17105  16.683  30.917  14.493
44780W        W17106  27.555  24.592  12.515
44781W        W17107  42.803  43.375  14.386
44782W        W17108  41.532  10.204  10.972
44783W        W17109  43.781  31.467   0.452
44784W        W17110  38.035   0.379  11.426
44785W        W17111  31.541   6.921  13.947
44786W        W17112  15.703  36.056  10.939
44787W        W17113  34.498   6.772   1.901
44788W        W17114   5.414  28.068  14.982
44789W        W17115  23.624  10.252  14.803
44790W        W17116  44.322  13.212  13.438
44791W        W17117   7.903  41.293  10.579
44792W        W17118  37.404  23.619   4.212
44793W        W17119   4.436   1.898   0.886
44794W        W17120   6.339  35.896  11.404
44795W        W17121  15.186  37.483   1.702
44796W        W17122   4.837   7.202  12.351
44797W        W17123  44.884  26.542  14.871
44798W        W17124  16.811   1.786   3.795
44799W        W17125  13.651  12.851  14.423
44800W        W17126  13.155  12.358   2.890
44801W        W17127  17.573  32.030  13.998
44802W        W17128  40.979   1.940  10.582
44803W        W17129  15.652  17.264   1.235
44804W        W17130  40.874   5.816  13.408
44805W        W17131  30.544  30.443  11.520
44806W        W17132  42.383   7.746  13.314
44807W        W17133   4.820  16.195  10.969
44808W        W17134  14.114   4.396  14.509
44809W        W17135  15.325  21.048   2.821
44810W        W17136  31.547  16.776  12.364
44811W        W17137  19.104  19.655   2.396
44812W        W17138  29.431  19.145   1.319
44813W        W17139  33.876  13.734   0.824
44814W        W17140  21.176  41.407   3.325
44815W        W17141   9.268  42.435  11.402
44816W        W17142  17.135   0.356  13.487
44817W        W17143  29.568  31.944  13.370
44818W        W17144   0.842   9.836  14.387
44819W        W17145  37.842  28.543  12.533
44820W        W17146   1.243   9.647  11.887
44821W        W17147  37.043   9.371   4.831
44822W        W17148  15.218  21.042  13.897
44823W        W17149  32.577   1.860  11.564
44824W        W17150  18.630  15.652   1.406
44825W        W17151   4.312  14.180   2.285
44826W        W17152  36.878  11.361   4.300
44827W        W17153   5.904  17.654   1.286
44828W        W17154  20.618   1.784  13.971
44829W        W17155  26.642  40.896  12.058
44830W        W17156  15.756   1.842  14.784
44831W        W17157  28.064  25.471   3.337
44832W        W17158  35.494  26.073   2.727
44833W        W17159  19.675   3.423   0.432
44834W        W17160  27.589  15.699  13.442
44835W        W17161  33.994  11.761   2.243
44836W        W17162  28.180  35.510   4.322
44837W        W17163   9.747  33.519  14.875
44838W        W17164  20.685   0.468  11.470
44839W        W17165  35.005  44.378  13.974
44840W        W17166  18.568  38.880   1.791
44841W        W17167  37.537  20.108  12.505
44842W        W17168  17.741  44.871   3.257
44843W        W17169  34.587  10.817   2.689
44844W        W17170  22.023  15.163   0.394
44845W        W17171  41.352   4.883   0.827
44846W        W17172   1.857   7.243  14.345
44847W        W17173  28.502  35.964   3.151
44848W        W17174  42.802  27.165   1.256
44849W        W17175  41.956   6.290   3.783
44850W        W17176  33.561  16.122  10.129
44851W        W17177  35.378   2.867   4.640
44852W        W17178   7.390  31.497  14.385
44853W        W17179  19.121   5.794   1.886
44854W        W17180  17.127  39.824   0.398
44855W        W17181  35.019  23.197  12.526
44856W        W17182   0.430  31.928  13.917
44857W        W17183  10.373  31.992  13.952
44858W        W17184  28.479   1.817   1.398
44859W        W17185  18.125  22.629  11.118
44860W        W17186  38.977   6.852   2.409
44861W        W17187  11.851  11.158  11.035
44862W        W17188   6.828  22.578   4.340
44863W        W17189   3.409  16.718  11.535
44864W        W17190  33.995   5.304   2.743
44865W        W17191  22.058   4.359  12.451
44866W        W17192  44.857   0.939  12.033
44867W        W17193  30.566  39.036   4.344
44868W        W17194  36.431  19.200  13.355
44869W        W17195  15.608   3.385  11.494
44870W        W17196  25.969  14.745   4.152
44871W        W17197  18.717  41.946  13.433
44872W        W17198   6.225  40.313  11.449
44873W        W17199   4.300  40.943  14.909
44874W        W17200  34.396   9.156  13.448
44875W        W17201   7.349  31.609  12.033
44876W        W17202  14.779  44.967  13.938
44877W        W17203  18.268  26.160   1.390
44878W        W17204  38.845   8.707   5.106
44879W        W17205  43.418  39.881   4.248
44880W        W17206  24.531  13.236   2.813
44881W        W17207  21.072   0.842   1.391
44882W        W17208  11.760  10.162   2.408
44883W        W17209  39.902  13.673  12.442
44884W        W17210   5.297  16.737   0.792
44885W        W17211  10.687  19.605   2.860
44886W        W17212  20.235  21.533   1.809
44887W        W17213  24.211  41.414   1.705
44888W        W17214   0.342  32.545  11.950
44889W        W17215  20.189  28.460   4.246
44890W        W17216  34.370  23.146  12.473
44891W        W17217  25.532  19.613   1.294
44892W        W17218   5.259  34.994  10.423
44893W        W17219  39.005  42.293   9.985
44894W        W17220   7.762  20.180  13.429
44895W        W17221  39.053  38.532   9.933
44896W        W17222  28.529  12.775  10.457
44897W        W17223  35.398  31.995   2.833
44898W        W17224  39.354  16.580   2.385
44899W        W17225   3.359   4.384   0.406
44900W        W17226  12.292  16.159   2.186
44901W        W17227  37.905  15.153  10.969
44902W        W17228  31.141  39.061  12.938
44903W        W17229  39.500  15.726  13.449
44904W        W17230   2.388  26.953   3.764
44905W        W17231  17.252   8.736  11.950
44906W        W17232  30.556  27.108  13.908
44907W        W17233  28.993  37.387   2.406
44908W        W17234   6.747   1.758  13.891
44909W        W17235  19.221  36.863  12.492
44910W        W17236  28.496  10.816  11.610
44911W        W17237   5.762  27.574   4.650
44912W        W17238  16.703  24.185  13.942
44913W        W17239  10.860  24.496   4.198
44914W        W17240   3.948  14.299  13.489
44915W        W17241  12.778   0.742   4.821
44916W        W17242  42.002  22.094   2.267
44917W        W17243  19.754  34.953  10.981
44918W        W17244  34.437   7.313  10.462
44919W        W17245  26.990   4.922   3.177
44920W        W17246   9.391  36.558  13.423
44921W        W17247   2.940  22.235  12.997
44922W        W17248  22.547  37.505  11.123
44923W        W17249  20.084   3.934  13.433
44924W        W17250  23.086  25.213   5.100
44925W        W17251  43.390  42.454  11.088
44926W        W17252   6.701   5.430  13.918
44927W        W17253  25.034  15.636   5.311
44928W        W17254  26.645   6.683   2.273
44929W        W17255   0.479  37.395   0.962
44930W        W17256   0.379  15.197   1.931
44931W        W17257   7.840  13.772  10.931
44932W        W17258  37.060   2.959  10.628
44933W        W17259  39.485  32.108  14.435
44934W        W17260  32.030  42.944   4.679
44935W        W17261  16.805  28.048  13.392
44936W        W17262  40.887  40.332   1.835
44937W        W17263  19.572  43.410   3.204
44938W        W17264  31.943   4.907   1.819
44939W        W17265   5.218  16.253  14.516
44940W        W17266  43.372   4.860  10.954
44941W        W17267  34.091   0.832  12.928
44942W        W17268  35.580  23.010   1.742
44943W        W17269  30.028  35.572  11.456
44944W        W17270  16.578  31.453  11.540
44945W        W17271   3.261  12.359  14.478
44946W        W17272  41.324  18.697   4.679
44947W        W17273  32.998   9.243  10.990
44948W        W17274  26.973  27.172   2.418
44949W        W17275  15.722   5.891  12.840
44950W        W17276  40.528  17.708   2.391
44951W        W17277  31.514  19.056   3.750
44952W        W17278  17.299   2.897  14.019
44953W        W17279  43.421  23.095   3.846
44954W        W17280  35.425   1.418   2.765
44955W        W17281  38.389  36.498  13.508
44956W        W17282   1.831  20.583   0.844
44957W        W17283  32.569  18.574  12.876
44958W        W17284  37.937   6.710   0.916
44959W        W17285  23.169  38.559   9.999
44960W        W17286  28.034  42.988  11.908
44961W        W17287  34.959  39.053  10.032
44962W        W17288  31.573  11.804  11.430
44963W        W17289  18.572  14.773   2.830
44964W        W17290  15.731  19.231  14.442
44965W        W17291  44.797   0.405   1.380
44966W        W17292  33.936   6.382   4.792
44967W        W17293  16.178  34.894  11.463
44968W        W17294   9.851  20.612   0.834
44969W        W17295  38.897  41.460   0.820
44970W        W17296  33.465  25.615   3.763
44971W        W17297  22.142  22.080   3.750
44972W        W17298  13.727  44.390   1.744
44973W        W17299  20.155  34.981  12.020
44974W        W17300  30.504  41.809  12.353
44975W        W17301   0.306  21.183  10.586
44976W        W17302  37.497   0.248   1.877
44977W        W17303   4.930  43.941   1.278
44978W        W17304  27.463  14.298  13.508
44979W        W17305  37.870  31.912   5.135
44980W        W17306  28.971  18.677   0.430
44981W        W17307  35.528   4.444  13.791
44982W        W17308  22.737  42.024  14.481
44983W        W17309  23.988  10.836   0.316
44984W        W17310  15.723  34.532  11.007
44985W        W17311  41.832  20.252   1.436
44986W        W17312  29.655  11.305   4.208
44987W        W17313  43.432  28.131   9.973
44988W        W17314  22.180  44.389  13.914
44989W        W17315   2.790  40.878   2.319
44990W        W17316  21.144   2.764   3.180
44991W        W17317  14.653   3.317  10.000
44992W        W17318  13.189   0.951   4.699
44993W        W17319  38.506  19.578  13.997
44994W        W17320  19.187  33.464   3.229
44995W        W17321   3.278  14.643  11.399
44996W        W17322  39.825  15.251  14.300
44997W        W17323  43.795  42.886   2.835
44998W        W17324  12.323   7.396   1.698
44999W        W17325  35.061  29.650   1.413
45000W        W17326  42.527  14.152  14.810
45001W        W17327  15.309  25.625  10.935
45002W        W17328  35.869  37.372   4.821
45003W        W17329   2.298   6.309  14.928
45004W        W17330  15.313  36.923   2.339
45005W        W17331  21.684  35.899   0.359
45006W        W17332   8.349   1.441  14.388
45007W        W17333  32.056  43.811  14.944
45008W        W17334  39.394  38.841  14.395
45009W        W17335  16.297  11.270  13.516
45010W        W17336  37.921   2.234  10.962
45011W        W17337  12.645  35.966   3.210
45012W        W17338  26.969   2.865  14.356
45013W        W17339  19.639  25.043   2.284
45014W        W17340   4.251  11.659   3.208
45015W        W17341  21.586  31.068  13.059
45016W        W17342  35.030  11.676   4.228
45017W        W17343  31.114  31.473  11.944
45018W        W17344  23.068   7.221  10.617
45019W        W17345  24.175  43.991  10.519
45020W        W17346  22.538  14.623   1.887
45021W        W17347  24.482  26.115  10.444
45022W        W17348   1.837  12.140   4.146
45023W        W17349  21.657   6.241   2.312
45024W        W17350  14.286  12.809  14.020
45025W        W17351  34.121  13.336   0.836
45026W        W17352  31.467  28.938  13.859
45027W        W17353   9.730  38.913   3.321
45028W        W17354  24.066  38.558  10.566
45029W        W17355   2.856  36.053  13.526
45030W        W17356  33.585  34.514  14.955
45031W        W17357  10.769  40.026   0.924
45032W        W17358   3.950  28.440  14.001
45033W        W17359  13.186  39.492   0.943
45034W        W17360  22.634  28.458   1.927
45035W        W17361  10.178  28.107   4.140
45036W        W17362  43.796  24.506   1.249
45037W        W17363  39.916   4.790   4.793
45038W        W17364  33.897  24.682  11.389
45039W        W17365  10.148  15.788  11.001
45040W        W17366   6.871  31.015   0.376
45041W        W17367   4.445  16.242   1.914
45042W        W17368   7.679  39.473   1.904
45043W        W17369  37.506  19.079   4.270
45044W        W17370  19.691  19.068  14.276
45045W        W17371  39.002   8.879   2.831
45046W        W17372  10.286   6.842   2.804
45047W        W17373   8.851  39.014  12.886
45048W        W17374  41.998  32.392  13.984
45049W        W17375   5.916   8.318  12.901
45050W        W17376  44.300  10.800  13.416
45051W        W17377  38.479   0.486  13.821
45052W        W17378  14.317  34.101   3.843
45053W        W17379  19.600   5.200  14.004
45054W        W17380  12.809  31.035   3.307
45055W        W17381  44.266  33.463   3.870
45056W        W17382  30.456  26.208   2.360
45057W        W17383   8.369  28.992  14.870
45058W        W17384  42.855  24.572   2.717
45059W        W17385   7.686  26.613  13.378
45060W        W17386  15.649  11.148  10.632
45061W        W17387  15.595  30.563  11.517
45062W        W17388   6.760   9.847  14.024
45063W        W17389  27.546  40.431  11.986
45064W        W17390  38.563  18.550  11.554
45065W        W17391  32.444  11.189   2.676
45066W        W17392  10.650  19.079  13.802
45067W        W17393  21.606   1.739   1.224
45068W        W17394   8.851  12.138   1.383
45069W        W17395   9.253  26.994   4.134
45070W        W17396  12.637  26.501  13.359
45071W        W17397  15.180  20.185  10.579
45072W        W17398  22.057  22.100   1.239
45073W        W17399  35.572  31.502   2.757
45074W        W17400  27.141  31.438  13.991
45075W        W17401  42.461  42.339  11.446
45076W        W17402   0.367   0.787  12.020
45077W        W17403  26.698  44.766   3.219
45078W        W17404  12.284   4.436  14.284
45079W        W17405  19.250  21.632   4.721
45080W        W17406  43.383  35.897  13.958
45081W        W17407  19.587  32.481   4.713
45082W        W17408  12.354  31.401   1.309
45083W        W17409   2.308  33.566   3.686
45084W        W17410  15.585  37.454  12.361
45085W        W17411  10.210  30.640  12.076
45086W        W17412   7.869  42.958  12.031
45087W        W17413   5.393  23.559  13.841
45088W        W17414  21.570  34.918  10.629
45089W        W17415  14.668  44.275  14.997
45090W        W17416  11.234  34.533   5.767
45091W        W17417  16.655  39.474  10.942
45092W        W17418  37.353  21.721   4.706
45093W        W17419  32.935  36.456   1.699
45094W        W17420   4.788  34.945   2.203
45095W        W17421  20.123   5.858   0.965
45096W        W17422  33.494  27.460   1.217
45097W        W17423   4.716  36.053  12.970
45098W        W17424  42.863  23.015  10.586
45099W        W17425  41.467  42.284  13.834
45100W        W17426  14.651   5.699   2.193
45101W        W17427  36.994  17.144   1.354
45102W        W17428  10.195  23.022   2.220
45103W        W17429  15.118  22.668   1.353
45104W        W17430  44.480   5.197   2.666
45105W        W17431  16.252  40.411  10.637
45106W        W17432  23.684  13.840  14.501
45107W        W17433  28.593   2.721   2.742
45108W        W17434  44.843  35.361   0.454
45109W        W17435  10.341  12.821  14.463
45110W        W17436  12.628  35.545   0.447
45111W        W17437  43.919   8.311   2.323
45112W        W17438  22.176  10.859  13.456
45113W        W17439   4.432   5.733  14.773
45114W        W17440  17.621   2.274   2.899
45115W        W17441  34.380  14.718  13.359
45116W        W17442  29.618  44.953  14.956
45117W        W17443  23.644   9.659   4.807
45118W        W17444  32.507  26.614  11.540
45119W        W17445  31.497  41.390  12.954
45120W        W17446   2.337  17.569  10.464
45121W        W17447   1.417  20.055   1.836
45122W        W17448  17.646  10.242   4.199
45123W        W17449  34.058  23.692  13.900
45124W        W17450   3.283  13.157   0.859
45125W        W17451  31.039  43.970  13.473
45126W        W17452   7.831  14.635  11.983
45127W        W17453  25.660  14.289  13.985
45128W        W17454  22.645  36.957   4.664
45129W        W17455  25.683  13.201  12.055
45130W        W17456  41.801   9.296   2.194
45131W        W17457  31.605  40.916   0.847
45132W        W17458  25.166  25.987   0.387
45133W        W17459  30.156   2.267   1.309
45134W        W17460  40.810  35.418   3.195
45135W        W17461  28.454  21.231  10.975
45136W        W17462  32.072  16.083   0.264
45137W        W17463   8.382  16.576  11.594
45138W        W17464  20.615  24.054   1.909
45139W        W17465  21.205  16.726  14.781
45140W        W17466   5.858  15.245  10.521
45141W        W17467   2.461  10.867  13.821
45142W        W17468  28.616  18.625  14.890
45143W        W17469  36.982  22.565  12.840
45144W        W17470  43.879  11.839  11.013
45145W        W17471  37.928  36.084   0.444
45146W        W17472  18.770   5.417   3.750
45147W        W17473  44.939  22.678   3.289
45148W        W17474  37.426  39.422  13.494
45149W        W17475   4.426  30.450   2.267
45150W        W17476  13.626  14.275   3.782
45151W        W17477  29.470  43.497   3.348
45152W        W17478   3.753   9.685   3.825
45153W        W17479  17.566  31.449  13.987
45154W        W17480  40.973  14.817   1.935
45155W        W17481  13.309  24.136   2.880
45156W        W17482   8.782  41.323   0.746
45157W        W17483  22.551  37.932   3.635
45158W        W17484  20.724  18.098  12.442
45159W        W17485  31.978  21.701   1.895
45160W        W17486   8.208  37.347  11.119
45161W        W17487  26.464  24.685  10.556
45162W        W17488  28.586  15.714   0.458
45163W        W17489   8.730  39.031   3.273
45164W        W17490  39.345  10.335  10.925
45165W        W17491   9.814  19.609  11.586
45166W        W17492  13.840   5.793   4.808
45167W        W17493  28.545   1.395   1.324
45168W        W17494  15.128  44.363  12.050
45169W        W17495  16.256  41.481  12.486
45170W        W17496  15.777  14.266   2.350
45171W        W17497  32.587  43.004  14.410
45172W        W17498  43.428  28.054  10.990
45173W        W17499  36.992  26.618   3.375
45174W        W17500  33.436  28.543   2.689
45175W        W17501   6.293  36.098   0.821
45176W        W17502   4.301  13.731   3.372
45177W        W17503  30.415  10.255  10.573
45178W        W17504   9.174  24.108  10.963
45179W        W17505  37.964  15.314  13.012
45180W        W17506  21.534   4.229  13.319
45181W        W17507  16.617  22.665  12.997
45182W        W17508  37.878   5.244  12.379
45183W        W17509  44.871   1.447  11.498
45184W        W17510   0.421  34.474   4.228
45185W        W17511  44.782  33.444   1.823
45186W        W17512  20.183  22.161   0.943
45187W        W17513  43.281   2.780   2.903
45188W        W17514   0.932  12.784   2.742
45189W        W17515  41.866  42.398  11.890
45190W        W17516  16.639  44.985   0.451
45191W        W17517  14.239  23.181   1.838
45192W        W17518  25.127   2.757   3.759
45193W        W17519  15.797  12.239  10.577
45194W        W17520  42.515  25.215  12.943
45195W        W17521  30.598  18.057   1.908
45196W        W17522  20.726  10.351  11.056
45197W        W17523   7.844  31.919   2.745
45198W        W17524  38.894  43.806  10.415
45199W        W17525  27.170  28.959   3.704
45200W        W17526   1.291  21.161  11.574
45201W        W17527  12.289  36.900  14.818
45202W        W17528   0.775  22.080   5.144
45203W        W17529  42.874   7.269   4.610
45204W        W17530   2.881   0.348   2.249
45205W        W17531  22.693   8.897  12.954
45206W        W17532  25.156  36.506   1.802
45207W        W17533   3.713  38.872   1.371
45208W        W17534  38.968  21.659   3.726
45209W        W17535  16.607  32.046   0.281
45210W        W17536  25.985  32.927  14.933
45211W        W17537  35.107  20.089  14.826
45212W        W17538  11.137  31.001   0.289
45213W        W17539  15.296  21.032   3.267
45214W        W17540  30.554  43.937   2.251
45215W        W17541  11.629   1.241  10.529
45216W        W17542  14.214  12.766  10.608
45217W        W17543  16.680  18.158   0.420
45218W        W17544  11.209  39.867  11.910
45219W        W17545  14.835  33.611  11.910
45220W        W17546   8.374  32.520  10.574
45221W        W17547   4.891  27.948  11.106
45222W        W17548  39.480  10.646  12.347
45223W        W17549  38.557  27.099   2.692
45224W        W17550   1.278  10.808   4.700
45225W        W17551  11.849  32.996  14.469
45226W        W17552  24.005   9.297  14.861
45227W        W17553  39.411  19.670   1.770
45228W        W17554  31.622  15.707  12.371
45229W        W17555  10.161  17.307  12.411
45230W        W17556  42.373  43.945   1.393
45231W        W17557  41.975  16.684   0.432
45232W        W17558  21.514  40.801   1.873
45233W        W17559  35.464  19.644   0.480
45234W        W17560   8.392  29.469   3.227
45235W        W17561  35.429  28.968  12.856
45236W        W17562   9.741  25.018   3.693
45237W        W17563  28.605  16.205  11.986
45238W        W17564  10.376   3.341   3.816
45239W        W17565   3.352  41.957  12.988
45240W        W17566  15.639  17.758   1.857
45241W        W17567  41.807   7.730   2.842
45242W        W17568  10.149  32.891   1.706
45243W        W17569  35.424  15.263   2.332
45244W        W17570  34.966   8.798  13.423
45245W        W17571   4.927   8.233  11.122
45246W        W17572  43.332  43.953   0.894
45247W        W17573   8.820  29.617   3.838
45248W        W17574  16.242  10.366  10.408
45249W        W17575   6.283  21.719   1.841
45250W        W17576  42.911  35.879   4.227
45251W        W17577  29.665   9.737   4.117
45252W        W17578  39.465   2.397   1.299
45253W        W17579  14.604  44.371   0.262
45254W        W17580   0.314  33.572   3.653
45255W        W17581  43.361   2.435  13.483
45256W        W17582  12.755  26.191  12.339
45257W        W17583   1.287  40.491  11.018
45258W        W17584  28.525  35.883  14.311
45259W        W17585  23.146  14.099   2.885
45260W        W17586  10.708  28.004   3.675
45261W        W17587  21.600   4.229   2.718
45262W        W17588   0.817  19.063   0.951
45263W        W17589  38.344   9.326   3.760
45264W        W17590  11.686   8.220   0.334
45265W        W17591   0.474   4.814  10.607
45266W        W17592  31.439  26.093  14.379
45267W        W17593  20.605  16.597   1.248
45268W        W17594   4.270  10.814   0.258
45269W        W17595  12.151  31.019   2.843
45270W        W17596  13.186  24.697   2.690
45271W        W17597   7.294  19.725  13.919
45272W        W17598  23.597  26.078  12.373
45273W        W17599  38.830  22.669   5.208
45274W        W17600  24.198  25.684  12.970
45275W        W17601  17.255  21.102  14.833
45276W        W17602  12.135  32.099  11.427
45277W        W17603  12.750  21.647   1.451
45278W        W17604   6.391  27.667  12.925
45279W        W17605  35.941  25.033  11.878
45280W        W17606  24.042  12.330  14.425
45281W        W17607  41.489  14.775  11.574
45282W        W17608  37.447  11.625   9.961
45283W        W17609  20.134  34.451   1.306
45284W        W17610  19.134  36.538  13.986
45285W        W17611  33.039   9.150  14.328
45286W        W17612   8.377  17.701   2.258
45287W        W17613  38.898  42.897   1.399
45288W        W17614  13.192  25.029   0.934
45289W        W17615  23.140  22.527   2.382
45290W        W17616  20.596  38.564  13.834
45291W        W17617  11.862   2.751   0.441
45292W        W17618  30.025  40.018  11.880
45293W        W17619  34.897  15.300   1.885
45294W        W17620   6.736  30.581  13.876
45295W        W17621  22.544  23.601   5.142
45296W        W17622  17.614  24.174  13.836
45297W        W17623   9.369   7.763   1.314
45298W        W17624  18.585  13.249  14.987
45299W        W17625   4.919  28.444  10.614
45300W        W17626  24.198  25.082  13.356
45301W        W17627   4.390  23.727  13.406
45302W        W17628  18.259  35.458   3.866
45303W        W17629  24.555  25.077   4.209
45304W        W17630  17.670  14.188  14.844
45305W        W17631  34.005  19.114   4.737
45306W        W17632  44.417  39.534   1.758
45307W        W17633  24.479  19.604  12.578
45308W        W17634  43.991  36.472  12.574
45309W        W17635  28.678  17.717   0.855
45310W        W17636  12.167  23.678  12.948
45311W        W17637  13.250  29.668  11.007
45312W        W17638   1.795  20.673   4.622
45313W        W17639   6.738  31.410   0.444
45314W        W17640  40.406   0.855  10.583
45315W        W17641  28.004  20.545   1.744
45316W        W17642  24.652   7.792   2.193
45317W        W17643   0.261   3.450  11.409
45318W        W17644  36.898  16.196   1.262
45319W        W17645   6.713  17.716   1.890
45320W        W17646  44.753  23.160   0.434
45321W        W17647  14.321  10.382   4.158
45322W        W17648  22.607  40.310   2.902
45323W        W17649  38.940  42.510  13.423
45324W        W17650  23.066  27.990  14.861
45325W        W17651  13.742  24.690  13.907
45326W        W17652  18.682  13.288  12.553
45327W        W17653  33.589  23.066   4.249
45328W        W17654   8.761  30.454   3.262
45329W        W17655   9.785  15.817  13.823
45330W        W17656   1.866  36.559  10.534
45331W        W17657  40.848  44.759  12.891
45332W        W17658  12.837  26.679   0.407
45333W        W17659  14.798   4.840   2.307
45334W        W17660  23.205   8.321   1.241
45335W        W17661  40.874  29.922  13.530
45336W        W17662  10.865  43.459  10.417
45337W        W17663  29.986  14.710  12.526
45338W        W17664  10.718  44.445  12.467
45339W        W17665  41.476  25.543   4.752
45340W        W17666  31.926  38.415   0.316
45341W        W17667   3.873  15.610  10.928
45342W        W17668  30.020   8.314  14.326
45343W        W17669  16.274  36.033  14.499
45344W        W17670  13.312  44.959  12.375
45345W        W17671  29.116  44.822   1.919
45346W        W17672   0.462   0.909   4.342
45347W        W17673  23.493  19.204  12.987
45348W        W17674  29.119  41.475   3.676
45349W        W17675   9.809  21.608   2.797
45350W        W17676  21.524  18.616  14.454
45351W        W17677  41.493   8.313   2.240
45352W        W17678   2.884  16.191  12.525
45353W        W17679   5.301  39.834   1.895
45354W        W17680  33.611  14.315   1.812
45355W        W17681  39.877  11.653  13.341
45356W        W17682  21.113  31.587  13.875
45357W        W17683  30.460   1.313  10.554
45358W        W17684  38.554   3.812  13.889
45359W        W17685  18.068  26.670   2.272
45360W        W17686  15.582  16.715  13.979
45361W        W17687  44.419  35.908   0.822
45362W        W17688  29.429   1.241  11.544
45363W        W17689  41.399   9.171   4.177
45364W        W17690  23.623  41.492   4.349
45365W        W17691   8.231   6.701   0.856
45366W        W17692  16.616  13.106  14.902
45367W        W17693  34.009  37.843  14.832
45368W        W17694  40.434  19.109   1.907
45369W        W17695  40.400  39.869   2.732
45370W        W17696  21.675  34.876   1.732
45371W        W17697  33.076  12.768   4.754
45372W        W17698  44.265  21.701   4.670
45373W        W17699  32.914  42.340  14.902
45374W        W17700  19.772  26.469  13.950
45375W        W17701  31.633  33.472   2.287
45376W        W17702  17.740   6.787   1.229
45377W        W17703  42.300  22.075  11.586
45378W        W17704  13.838  19.229   1.341
45379W        W17705  21.096  37.387  13.883
45380W        W17706  43.805  12.284  14.029
45381W        W17707  26.197   8.799   4.824
45382W        W17708   6.372  31.032  11.113
45383W        W17709   3.461  37.995   0.731
45384W        W17710  17.592   1.879  12.351
45385W        W17711  24.719  22.232   3.736
45386W        W17712  43.357  16.185  13.951
45387W        W17713   3.802  17.785  10.954
45388W        W17714  30.592  19.550  10.996
45389W        W17715  27.534  19.205   4.643
45390W        W17716  32.006  16.623  14.318
45391W        W17717   8.690   9.723  12.917
45392W        W17718  29.018  38.551   1.358
45393W        W17719  15.782  40.439  12.828
45394W        W17720   2.771  36.376   2.248
45395W        W17721  32.940  30.953  12.037
45396W        W17722  28.659   4.256  13.986
45397W        W17723  37.910  14.636  14.423
45398W        W17724   2.360  33.899   2.236
45399W        W17725  43.340  16.659  14.481
45400W        W17726  31.102  31.639  11.555
45401W        W17727  20.126   8.300   1.819
45402W        W17728   2.946  13.247  14.374
45403W        W17729  27.452   3.422  11.390
45404W        W17730  35.465   6.713   0.262
45405W        W17731  32.416  40.423  14.484
45406W        W17732  35.980   7.206  14.952
45407W        W17733  22.056  15.670  10.425
45408W        W17734  15.741  27.016   1.261
45409W        W17735  44.938   8.864  11.602
45410W        W17736   3.371  35.989  10.996
45411W        W17737  38.840  22.622   4.815
45412W        W17738  13.232   2.955  14.282
45413W        W17739  30.628  32.622  14.306
45414W        W17740  27.052  39.538  11.116
45415W        W17741  43.835  15.285  13.380
45416W        W17742   0.965   0.869   3.321
45417W        W17743  16.768  31.503  14.772
45418W        W17744  41.413  24.555   0.417
45419W        W17745  31.472   7.799   3.217
45420W        W17746   8.299  34.863   3.285
45421W        W17747  29.424  28.998  13.029
45422W        W17748  21.686  13.646   1.221
45423W        W17749  28.524  33.116  13.432
45424W        W17750  24.571  32.020   4.278
45425W        W17751  44.477  29.918  12.944
45426W        W17752   9.815  14.157  12.011
45427W        W17753  21.244  10.798  13.538
45428W        W17754   0.308  19.050  13.793
45429W        W17755  26.667  18.160  11.412
45430W        W17756  19.741  23.035   2.383
45431W        W17757  18.704  29.925  14.015
45432W        W17758  30.452  30.977   2.189
45433W        W17759  28.975  39.982   0.343
45434W        W17760  35.084  18.070   9.925
45435W        W17761   3.406  34.575  12.015
45436W        W17762  33.876  31.578   1.307
45437W        W17763  28.073  23.071   4.821
45438W        W17764  16.178   3.887  12.440
45439W        W17765  40.951  13.282  14.983
45440W        W17766  25.693  44.841   0.781
45441W        W17767  32.617  44.791   4.834
45442W        W17768  42.407  36.008   2.280
45443W        W17769  36.883  33.011  12.555
45444W        W17770  19.104  26.606   4.160
45445W        W17771  30.009  12.813  13.924
45446W        W17772  34.409  20.261  11.031
45447W        W17773  33.959  21.519   3.181
45448W        W17774  23.556   7.321  12.830
45449W        W17775  36.560   6.916  10.984
45450W        W17776   6.897  44.938   4.137
45451W        W17777  25.127  28.437  14.853
45452W        W17778  33.009  29.951  14.023
45453W        W17779  28.455  42.950   1.338
45454W        W17780  33.013   7.791  11.503
45455W        W17781  17.303   0.809   1.298
45456W        W17782  40.545   3.393   2.401
45457W        W17783   4.782  21.212   5.246
45458W        W17784   2.265  10.341  13.370
45459W        W17785   0.793   3.819  13.439
45460W        W17786   7.229  28.954  12.537
45461W        W17787   7.245  42.460   3.224
45462W        W17788  38.866  16.649  12.003
45463W        W17789   0.823  25.616   4.641
45464W        W17790  17.132  18.285  12.435
45465W        W17791  27.690  27.137   3.723
45466W        W17792  15.719  42.364   3.291
45467W        W17793   4.876  35.998   1.247
45468W        W17794  19.762  43.438   0.827
45469W        W17795  28.034  14.121   2.677
45470W        W17796  28.072  25.610   0.422
45471W        W17797  10.192   4.407   0.314
45472W        W17798   5.342  15.579  13.042
45473W        W17799  26.148  37.007   1.801
45474W        W17800  31.025  41.390  13.896
45475W        W17801   9.391  18.069   5.148
45476W        W17802   7.211  19.082  11.053
45477W        W17803  17.106  22.671   2.335
45478W        W17804  41.891  23.098   1.286
45479W        W17805   0.863   2.785   0.249
45480W        W17806  13.745  20.604   1.760
45481W        W17807  13.254  44.869   2.349
45482W        W17808   9.237  25.078   0.897
45483W        W17809   9.323  26.650   4.180
45484W        W17810  21.211  30.638  14.482
45485W        W17811  39.852   3.222  13.527
45486W        W17812  17.770  22.515  14.481
45487W        W17813  39.926  14.589  13.419
45488W        W17814  36.502   3.824  13.912
45489W        W17815   8.395   9.739  11.518
45490W        W17816  13.831  42.507   2.808
45491W        W17817  30.655  28.480  12.045
45492W        W17818  21.712  21.260  12.544
45493W        W17819  32.393   9.782   0.790
45494W        W17820   9.271   1.442   2.371
45495W        W17821  21.742  34.563  13.417
45496W        W17822  25.053  17.783  13.871
45497W        W17823  41.419  25.557   3.153
45498W        W17824  10.324   2.835  13.428
45499W        W17825  17.098  27.608  14.883
45500W        W17826  19.717  22.098   3.237
45501W        W17827  28.030  42.460  11.422
45502W        W17828  42.325  15.700   2.220
45503W        W17829  23.651   1.458   4.790
45504W        W17830  30.966  21.049  14.926
45505W        W17831  28.474  42.415  11.097
45506W        W17832  28.000   2.362   1.759
45507W        W17833   3.903  35.381   0.390
45508W        W17834  26.984  26.996   3.735
45509W        W17835  40.390  13.237  14.956
45510W        W17836  19.051  26.097  11.993
45511W        W17837  21.111  42.010  11.126
45512W        W17838  44.856   8.354   2.877
45513W        W17839  25.008  31.909   4.674
45514W        W17840  31.601   7.868   1.345
45515W        W17841  11.206  36.350  11.992
45516W        W17842  34.968  34.934  12.891
45517W        W17843  21.182  17.579   0.291
45518W        W17844  28.951   2.425   2.672
45519W        W17845  29.104  11.723   1.912
45520W        W17846  27.462   2.945  11.094
45521W        W17847  28.600  11.185   1.790
45522W        W17848  13.340  16.659  10.924
45523W        W17849   1.798  44.451   2.794
45524W        W17850  39.000  15.685   1.705
45525W        W17851  27.143  24.659  14.326
45526W        W17852  11.256   5.324  10.502
45527W        W17853  33.086   8.382  11.393
45528W        W17854  11.302  13.114  11.909
45529W        W17855  30.110  15.773   4.211
45530W        W17856  13.830  20.240  12.568
45531W        W17857  44.423  38.414   1.732
45532W        W17858  29.997   1.813  14.925
45533W        W17859  16.666  19.540  13.944
45534W        W17860  39.371  20.680   1.346
45535W        W17861   9.801   2.362  13.015
45536W        W17862   7.176   2.721  10.589
45537W        W17863  34.467  21.581  14.935
45538W        W17864   2.955  14.157   1.320
45539W        W17865   3.731   7.863  14.933
45540W        W17866   6.422  10.146  14.899
45541W        W17867  37.407   1.914  10.623
45542W        W17868  43.323   3.831   0.871
45543W        W17869  19.637  12.207  14.770
45544W        W17870  36.488  39.833   1.252
45545W        W17871  40.968  31.983   3.666
45546W        W17872  43.843  14.677   0.848
45547W        W17873   4.426  38.834  11.568
45548W        W17874  41.854  28.164   1.811
45549W        W17875  12.774  27.633   4.275
45550W        W17876  40.494   2.841   0.390
45551W        W17877  44.490  35.551  13.438
45552W        W17878  32.490  27.018  13.940
45553W        W17879  23.501   7.761   4.739
45554W        W17880   9.754  13.187   0.802
45555W        W17881  11.205  36.418  14.914
45556W        W17882  33.897   4.398   0.271
45557W        W17883  18.738  30.959  14.967
45558W        W17884  31.406  30.078  14.873
45559W        W17885  19.764  20.711   1.342
45560W        W17886  26.460  35.873  12.006
45561W        W17887  12.243  21.188   4.788
45562W        W17888  36.418  10.335   0.888
45563W        W17889  23.987   7.401  11.521
45564W        W17890   5.888  27.004   1.296
45565W        W17891  25.628  31.061   3.676
45566W        W17892   7.238   3.263   2.892
45567W        W17893  43.805  34.048   4.780
45568W        W17894  34.009   1.789  13.881
45569W        W17895  37.899   6.809  12.516
45570W        W17896  33.504  28.647  12.984
45571W        W17897  36.844  14.320  12.373
45572W        W17898  13.605   5.206   1.376
45573W        W17899  43.398  13.142  12.989
45574W        W17900  13.147  40.311  11.119
45575W        W17901  21.684   8.242   1.873
45576W        W17902  18.717   4.780  14.409
45577W        W17903   0.743  17.105  13.808
45578W        W17904  21.584  13.791  10.474
45579W        W17905  37.484  23.581   1.748
45580W        W17906  25.056   0.386   3.758
45581W        W17907  17.709  13.209  13.811
45582W        W17908  44.801  29.539  13.834
45583W        W17909  26.155  26.055  10.915
45584W        W17910   2.432  41.956   4.349
45585W        W17911   5.202  22.590  12.557
45586W        W17912  41.371  29.505   4.259
45587W        W17913  43.815  21.147  12.435
45588W        W17914  42.853  36.988  12.420
45589W        W17915   5.323  38.414   4.610
45590W        W17916  11.230  15.614  14.290
45591W        W17917  11.127  25.669  10.976
45592W        W17918  29.090  26.985   1.903
45593W        W17919  27.088  33.021   4.345
45594W        W17920   4.430  28.568  13.339
45595W        W17921   9.731  17.192   1.214
45596W        W17922  24.482   4.900  14.449
45597W        W17923  32.636   9.346   1.763
45598W        W17924  12.235  13.704   1.822
45599W        W17925  26.053  25.206   4.740
45600W        W17926   7.864  30.154   0.911
45601W        W17927   1.426  35.437  10.404
45602W        W17928  36.576  21.074   4.829
45603W        W17929  39.560   2.375  11.111
45604W        W17930  42.439  15.648  12.937
45605W        W17931  15.745  17.773   0.749
45606W        W17932  32.133  22.592  14.415
45607W        W17933  35.413  35.448   9.977
45608W        W17934  22.054  16.168  14.476
45609W        W17935  34.478  27.088   3.789
45610W        W17936   4.837  12.819   9.958
45611W        W17937  22.064  26.019   2.299
45612W        W17938  16.691  11.804  13.408
45613W        W17939  30.557   9.219   1.341
45614W        W17940  14.284  35.560   3.226
45615W        W17941  29.651  14.774  11.914
45616W        W17942  11.635  23.032  14.014
45617W        W17943  39.539  31.929  11.550
45618W        W17944  39.363   8.229  12.570
45619W        W17945  44.839  35.487   2.795
45620W        W17946  23.228  11.285   4.217
45621W        W17947  27.566  19.268   3.749
45622W        W17948  42.892  14.201  13.000
45623W        W17949  13.714  41.306   0.474
45624W        W17950  38.349  25.581   2.418
45625W        W17951  38.500  44.434  11.863
45626W        W17952   6.704  24.526  12.369
45627W        W17953  40.476  16.649  14.508
45628W        W17954  42.516  16.645  12.942
45629W        W17955  10.359   3.882   2.356
45630W        W17956  35.891  22.175  13.933
45631W        W17957  39.855   4.907   2.323
45632W        W17958  25.096  23.655  11.545
45633W        W17959  44.381   4.443   0.781
45634W        W17960  20.078  33.904   1.239
45635W        W17961  29.019   4.743  14.028
45636W        W17962  31.053   8.731   3.303
45637W        W17963  18.276  27.028   1.433
45638W        W17964  22.646  38.033   1.284
45639W        W17965  35.056   4.792  14.781
45640W        W17966  43.945  37.429  13.319
45641W        W17967  41.511  25.121  11.411
45642W        W17968  27.097   2.888  12.085
45643W        W17969  37.351   7.856  10.637
45644W        W17970  16.598  31.456  12.060
45645W        W17971  19.719  38.442  11.375
45646W        W17972  33.611  24.557  11.010
45647W        W17973  12.127   5.717  13.530
45648W        W17974  25.052   7.231   0.351
45649W        W17975  19.617  18.768   3.849
45650W        W17976   8.710  38.470   0.800
45651W        W17977  26.205  24.711   3.249
45652W        W17978   9.814  43.339   0.252
45653W        W17979  42.290  21.122  10.990
45654W        W17980   5.912  15.605   1.245
45655W        W17981  30.027   6.308   2.334
45656W        W17982  33.580   6.389  10.532
45657W        W17983   4.265   2.772   0.445
45658W        W17984  12.659   0.479   2.748
45659W        W17985  27.476  36.451   4.632
45660W        W17986  37.049   2.325   0.379
45661W        W17987  39.346  32.572   1.269
45662W        W17988  10.801  12.702  11.069
45663W        W17989  16.790  29.019  13.939
45664W        W17990   7.732  29.087  13.369
45665W        W17991  21.210  29.088  11.477
45666W        W17992  32.052  10.703   2.765
45667W        W17993  37.885  37.446  13.506
45668W        W17994  17.247  18.716  12.909
45669W        W17995  14.279  17.797   1.401
45670W        W17996  42.911  18.160   1.782
45671W        W17997  10.275  38.866   5.309
45672W        W17998  31.466  35.457  12.357
45673W        W17999   9.824  18.079  13.422
45674W        W18000   4.448  13.285  11.867
45675W        W18001  24.118  32.997  13.988
45676W        W18002  44.977  10.818  10.469
45677W        W18003  40.004  23.636  10.440
45678W        W18004  29.466  25.054  14.300
45679W        W18005  44.471  35.873  10.644
45680W        W18006  31.491  43.956   3.817
45681W        W18007   1.397  29.562  14.404
45682W        W18008  23.194  39.894  10.416
45683W        W18009   5.800  16.629   3.786
45684W        W18010   8.395  36.520   2.835
45685W        W18011  10.196   7.683   3.203
45686W        W18012  42.003  42.523  13.925
45687W        W18013  43.466  35.439   2.873
45688W        W18014   2.899  15.599  14.452
45689W        W18015   7.879  38.563   2.760
45690W        W18016   1.852  36.999  12.399
45691W        W18017   0.407  27.555   0.275
45692W        W18018  31.926  31.584   4.283
45693W        W18019  21.564   7.332   1.821
45694W        W18020   8.726  23.159   4.633
45695W        W18021   1.349   9.787   5.773
45696W        W18022  25.054  25.134   0.829
45697W        W18023  14.243   0.848  12.998
45698W        W18024   7.315  40.811  12.917
45699W        W18025  24.484  35.906   2.298
45700W        W18026  38.054  12.291   2.812
45701W        W18027  13.274   2.921   3.775
45702W        W18028  30.988  28.965  11.610
45703W        W18029  10.190  41.312   3.193
45704W        W18030  10.766  36.382  13.918
45705W        W18031  18.126  19.577  11.447
45706W        W18032  27.481  20.143   3.638
45707W        W18033  17.677  15.276   4.724
45708W        W18034   0.339  29.490   2.189
45709W        W18035  38.848  13.838  12.575
45710W        W18036   3.444  25.214   3.756
45711W        W18037  26.144  26.546  13.354
45712W        W18038   9.646   4.378  13.041
45713W        W18039  41.805  40.344  10.520
45714W        W18040  42.307   6.906   0.804
45715W        W18041   0.798  15.173  12.861
45716W        W18042  23.147  28.500  11.952
45717W        W18043   9.760  15.626  12.866
45718W        W18044  41.369  39.034  11.536
45719W        W18045  26.003  23.559   0.296
45720W        W18046   9.889   6.881   2.255
45721W        W18047   7.889   9.844  14.302
45722W        W18048   9.793  29.568   0.726
45723W        W18049   0.251  21.260   1.442
45724W        W18050   2.799   3.310  11.410
45725W        W18051   5.918   1.240  12.930
45726W        W18052  15.615  13.605  13.829
45727W        W18053  29.091   3.881   1.402
45728W        W18054  16.642  35.422  11.879
45729W        W18055  22.719  39.460  13.329
45730W        W18056  32.438  24.498   4.160
45731W        W18057  37.571  41.954   0.276
45732W        W18058  33.949  11.724  10.591
45733W        W18059   6.863  21.242   4.782
45734W        W18060  24.146  21.686  13.447
45735W        W18061  29.480  17.256   3.278
45736W        W18062  14.339  33.485   4.254
45737W        W18063  13.647  43.398  12.006
45738W        W18064  14.291  28.546   4.218
45739W        W18065  23.061  12.728  11.040
45740W        W18066  44.833  43.456  10.589
45741W        W18067  32.521  32.963   4.783
45742W        W18068  30.605  34.888   3.316
45743W        W18069  18.248  28.149  13.370
45744W        W18070  24.713  11.748   2.243
45745W        W18071  44.290  17.182  14.509
45746W        W18072  22.588  25.692  14.001
45747W        W18073   6.775  44.898  12.985
45748W        W18074  14.762  44.860  13.451
45749W        W18075  22.202  15.588   3.331
45750W        W18076  38.031  28.604  10.446
45751W        W18077   8.170  14.625  11.545
45752W        W18078   2.329  18.197   4.686
45753W        W18079  34.008  26.674   1.302
45754W        W18080   8.353  25.550   2.877
45755W        W18081  34.475   7.263  14.987
45756W        W18082  23.159  24.102   1.790
45757W        W18083  32.499  13.770   4.214
45758W        W18084  25.027  34.055   4.816
45759W        W18085  14.206  33.049   4.118
45760W        W18086  10.669  16.762   0.313
45761W        W18087  19.762  38.958  11.900
45762W        W18088  17.672   7.234  12.992
45763W        W18089  23.154  29.559   1.271
45764W        W18090   4.387  24.118   2.738
45765W        W18091   7.738  17.110  14.309
45766W        W18092  26.967  27.580   1.272
45767W        W18093  32.112  19.653   3.848
45768W        W18094   9.686  29.979   3.742
45769W        W18095  35.038   2.929   0.745
45770W        W18096  33.615  14.165   1.265
45771W        W18097   1.412  11.312  14.992
45772W        W18098   4.817  36.015   4.256
45773W        W18099   1.767  17.206   0.733
45774W        W18100  33.061  32.393   3.704
45775W        W18101  25.641  17.703   0.355
45776W        W18102  43.488  26.975  13.863
45777W        W18103   1.461  14.262  13.046
45778W        W18104  39.981  22.069   4.172
45779W        W18105   9.796  30.648   3.354
45780W        W18106  44.315   8.666   4.714
45781W        W18107  19.754   7.254  14.009
45782W        W18108  40.045  12.217   4.255
45783W        W18109  14.631  34.429  10.633
45784W        W18110   2.295  34.969  11.925
45785W        W18111  42.025   6.250  14.897
45786W        W18112  14.791   9.693   2.211
45787W        W18113  10.777  27.123   2.840
45788W        W18114  35.507   0.456  13.964
45789W        W18115  18.698  16.694   4.202
45790W        W18116   4.788  29.532   4.267
45791W        W18117  24.992  20.216  11.388
45792W        W18118  29.640  28.006   2.814
45793W        W18119  36.865  18.265   2.402
45794W        W18120  24.722  15.758   0.316
45795W        W18121  37.077  19.714   0.406
45796W        W18122  32.558  19.547   3.668
45797W        W18123  36.079  12.325  13.798
45798W        W18124  40.823  18.253   3.377
45799W        W18125  42.807  12.798  11.444
45800W        W18126   0.851   6.922  11.521
45801W        W18127   6.184  34.571   3.799
45802W        W18128  34.460  34.398   4.266
45803W        W18129  40.827  10.671   0.794
45804W        W18130  44.792  34.924   2.885
45805W        W18131  39.397  20.203   1.349
45806W        W18132  19.587  38.994  14.383
45807W        W18133   0.754   2.443   2.237
45808W        W18134  35.587  39.869  13.535
45809W        W18135  27.180  27.975  12.534
45810W        W18136  12.773  26.677  10.120
45811W        W18137  35.506  41.815   0.755
45812W        W18138  38.933  35.914   2.336
45813W        W18139  26.607  42.823  14.353
45814W        W18140  32.034   9.746   1.724
45815W        W18141  44.843  33.383   1.308
45816W        W18142   4.772   4.354   0.951
45817W        W18143   2.310  23.655  10.911
45818W        W18144  19.059   5.384   1.323
45819W        W18145  17.558  16.073  13.863
45820W        W18146  43.313  37.458  13.523
45821W        W18147   4.339  38.061   3.738
45822W        W18148  12.644  29.551   3.863
45823W        W18149  18.277  30.926  12.440
45824W        W18150  33.462  12.356   3.858
45825W        W18151  15.279  24.619  14.001
45826W        W18152  32.467  39.457   0.740
45827W        W18153   6.856  44.876   0.938
45828W        W18154  28.047  42.446  14.439
45829W        W18155  44.894  26.561  11.460
45830W        W18156  41.959   4.877   3.156
45831W        W18157   5.206  10.188  12.534
45832W        W18158  19.080  31.016   1.244
45833W        W18159   4.743  21.715  12.888
45834W        W18160   5.809  26.491  11.491
45835W        W18161  29.131  25.505   2.357
45836W        W18162  10.302  44.427   5.295
45837W        W18163   4.397  38.406   3.359
45838W        W18164  14.330   7.181   0.865
45839W        W18165   5.891   7.309  13.802
45840W        W18166   8.243  14.300   1.244
45841W        W18167  33.593  22.233   1.407
45842W        W18168  20.750   3.799   2.288
45843W        W18169  38.430  27.575  11.071
45844W        W18170  36.495  38.831   2.267
45845W        W18171  19.565  13.324  10.626
45846W        W18172  23.497   1.407  11.053
45847W        W18173  21.693  31.907  14.830
45848W        W18174   2.858  29.997   1.780
45849W        W18175  41.868  25.713   4.205
45850W        W18176   4.730  44.849   0.464
45851W        W18177  38.980   8.658   1.865
45852W        W18178  20.651  19.738   0.777
45853W        W18179   5.789  25.174  10.499
45854W        W18180   2.254  44.413  13.835
45855W        W18181  37.343   6.720  13.377
45856W        W18182  37.895  18.765   4.834
45857W        W18183  44.338   0.322  10.129
45858W        W18184  11.801   0.368  14.805
45859W        W18185  35.943  24.631  11.931
45860W        W18186   5.832  24.047   1.724
45861W        W18187  41.842   9.178  11.423
45862W        W18188  17.799  32.425   1.305
45863W        W18189  26.135  35.991   0.731
45864W        W18190  12.305  11.864   4.210
45865W        W18191  18.772   7.313  13.967
45866W        W18192  15.609  18.692   4.249
45867W        W18193  32.595  37.866  11.898
45868W        W18194  15.203  40.020   1.308
45869W        W18195  26.666  36.469  13.063
45870W        W18196  37.442  27.109  11.413
45871W        W18197  38.351  29.141   1.296
45872W        W18198  16.736  11.184   2.903
45873W        W18199  42.937   9.866  10.435
45874W        W18200   4.381  42.413  14.790
45875W        W18201   7.361  36.925   3.737
45876W        W18202  23.623  27.168  13.369
45877W        W18203  43.318   7.173   3.806
45878W        W18204   2.245  18.102   2.327
45879W        W18205  35.929  28.160   2.858
45880W        W18206  37.496  26.460  14.355
45881W        W18207  33.596   6.222  11.021
45882W        W18208  24.563   0.922  13.807
45883W        W18209  16.075  10.196   4.123
45884W        W18210  34.369  14.227  14.465
45885W        W18211  42.510  15.308   2.824
45886W        W18212  26.647  41.924  12.479
45887W        W18213  44.967  37.365  14.778
45888W        W18214  15.194  35.986   3.857
45889W        W18215  16.313   6.831  10.979
45890W        W18216  29.141  41.907  12.954
45891W        W18217   8.676  14.805  12.871
45892W        W18218   7.364  23.541  11.481
45893W        W18219  42.400  30.626  12.379
45894W        W18220  44.282   8.824   3.668
45895W        W18221  11.744  11.302   1.345
45896W        W18222   7.207   3.409  14.450
45897W        W18223  11.634  41.034  14.466
45898W        W18224  23.161   7.345  14.032
45899W        W18225  31.420  40.984  13.986
45900W        W18226  44.811  31.988  11.590
45901W        W18227   4.940   6.329  14.776
45902W        W18228  19.267  32.100   0.821
45903W        W18229   0.939   3.458  10.991
45904W        W18230  16.759  29.569   4.121
45905W        W18231  29.461   5.318   4.676
45906W        W18232   2.453  23.181   0.378
45907W        W18233  38.526  21.187   1.927
45908W        W18234   5.889   6.737   2.709
45909W        W18235   5.354   9.720  12.395
45910W        W18236  16.090  29.523  12.412
45911W        W18237  37.548  23.590  11.889
45912W        W18238  35.981  13.765   3.670
45913W        W18239  20.261  29.617   1.338
45914W        W18240  31.074  18.735   2.383
45915W        W18241  13.271  24.683   0.355
45916W        W18242  24.554   8.160  14.032
45917W        W18243  31.057  17.757  11.859
45918W        W18244  36.552   0.313  10.898
45919W        W18245  40.906   8.852   4.805
45920W        W18246  18.623   8.805   4.803
45921W        W18247   0.375  34.936   2.390
45922W        W18248  43.469  41.434   1.404
45923W        W18249   9.864  40.942  12.052
45924W        W18250  27.519   8.189   3.171
45925W        W18251   1.907  19.082  13.005
45926W        W18252  16.124  44.294   1.345
45927W        W18253  20.191  37.448  14.832
45928W        W18254  26.640  28.957   0.374
45929W        W18255   6.839  17.600  13.891
45930W        W18256  27.958   5.766  10.119
45931W        W18257  23.627   9.234   2.797
45932W        W18258  34.378  30.938   0.347
45933W        W18259   5.927  29.045   1.862
45934W        W18260   6.686   3.297  11.584
45935W        W18261  26.038   8.237  14.286
45936W        W18262  32.564  44.768  13.426
45937W        W18263  36.550   0.285  11.589
45938W        W18264  24.996  13.276   0.468
45939W        W18265  22.094  20.629   3.207
45940W        W18266  16.577   5.325   0.476
45941W        W18267  13.243  27.025  13.972
45942W        W18268  38.550   5.229  13.829
45943W        W18269  43.498  43.790  13.542
45944W        W18270  13.158  37.943  13.468
45945W        W18271   3.737  23.204   0.834
45946W        W18272  13.698  11.132  10.522
45947W        W18273  35.367   7.195   3.859
45948W        W18274  44.396  41.467   2.345
45949W        W18275   7.813   2.723  12.476
45950W        W18276   0.257  35.433  12.415
45951W        W18277  18.122   9.282   0.935
45952W        W18278  20.231  11.671   3.293
45953W        W18279   8.226  17.208   2.808
45954W        W18280  33.127  24.190   3.331
45955W        W18281  29.571  35.977  11.079
45956W        W18282  31.405  40.927  10.950
45957W        W18283  23.527  26.141  11.067
45958W        W18284  11.623  18.204   3.799
45959W        W18285  28.105  10.804   3.320
45960W        W18286  14.134  44.430  14.457
45961W        W18287  15.810  34.069   0.462
45962W        W18288   4.301   2.770   1.707
45963W        W18289  25.708  21.163  12.947
45964W        W18290  34.027   9.195   1.345
45965W        W18291  14.809  19.070  12.013
45966W        W18292  26.668   7.671  12.076
45967W        W18293   9.781  44.466  12.455
45968W        W18294  38.824   1.932  11.572
45969W        W18295  27.636  27.502   3.632
45970W        W18296   4.207  27.081   1.854
45971W        W18297  34.952  39.928   3.823
45972W        W18298   0.984  29.599  13.911
45973W        W18299  37.019  10.183  14.833
45974W        W18300   1.356  42.342   0.735
45975W        W18301  14.331  39.945  10.550
45976W        W18302   2.455  28.522  12.034
45977W        W18303  15.694  21.561  13.541
45978W        W18304   7.880   1.744   3.376
45979W        W18305  30.013   3.895  14.793
45980W        W18306  17.112  42.794   5.241
45981W        W18307   7.802  36.361   3.269
45982W        W18308  38.942  18.637  14.022
45983W        W18309  15.748   6.910  11.399
45984W        W18310  41.434  11.325  13.484
45985W        W18311  12.720  12.205   2.223
45986W        W18312  29.508   7.409  13.501
45987W        W18313  22.743  19.154   4.707
45988W        W18314  25.141  39.065  11.385
45989W        W18315  42.527  12.149  13.863
45990W        W18316  19.547  30.076   4.720
45991W        W18317  19.733   2.961  13.041
45992W        W18318   5.374  21.633   0.778
45993W        W18319  29.539  24.644  14.966
45994W        W18320  36.553  11.230   3.355
45995W        W18321   2.839  23.163  12.517
45996W        W18322  21.056  18.746   4.220
45997W        W18323  10.168  27.039  11.963
45998W        W18324  36.588   8.387   3.264
45999W        W18325  21.247   2.835   3.793
46000W        W18326  14.712  12.205  12.981
46001W        W18327  13.347   7.781  11.949
46002W        W18328  36.005  42.385   3.220
46003W        W18329  20.564  31.018   4.209
46004W        W18330  43.322  37.532  14.924
46005W        W18331   2.901   0.450  13.416
46006W        W18332  14.698   7.320  12.868
46007W        W18333  44.832  23.512  11.069
46008W        W18334   2.453  24.103  13.510
46009W        W18335   1.835   3.867  14.290
46010W        W18336  44.314   1.783   4.232
46011W        W18337   4.312  43.286  14.507
46012W        W18338  15.121   2.412   3.830
46013W        W18339  20.547   1.844   3.383
46014W        W18340  15.621  37.859   0.340
46015W        W18341  21.651   2.776   2.187
46016W        W18342   4.292  11.296   2.275
46017W        W18343   3.806  32.456  11.019
46018W        W18344  40.824   6.372   3.849
46019W        W18345  19.762  28.065   4.159
46020W        W18346  30.921  26.198  12.402
46021W        W18347  25.195  13.841  13.062
46022W        W18348  30.117  24.717   0.324
46023W        W18349  12.296  34.036   3.813
46024W        W18350   8.182  14.692  12.930
46025W        W18351   1.393  20.220   4.310
46026W        W18352   7.211  21.646   4.297
46027W        W18353  35.077  44.492  11.932
46028W        W18354   8.703  44.471  13.840
46029W        W18355  12.844  20.039   0.955
46030W        W18356  20.697   0.431   3.769
46031W        W18357   4.450  42.809   0.827
46032W        W18358  44.472  40.423   5.160
46033W        W18359  36.359  34.971   3.698
46034W        W18360  22.625  44.309  10.429
46035W        W18361   4.279  22.679   1.856
46036W        W18362  30.028  35.976   3.329
46037W        W18363  41.821  19.229  14.970
46038W        W18364  14.787  22.711   3.207
46039W        W18365  21.591  13.144  12.027
46040W        W18366  33.513  14.150   3.847
46041W        W18367  17.765   3.322   4.173
46042W        W18368   2.245  42.913   2.901
46043W        W18369  41.968   0.402   0.461
46044W        W18370  20.655  27.671  12.921
46045W        W18371  12.741  28.655  11.487
46046W        W18372  39.472  32.921   4.692
46047W        W18373   5.335  22.725  10.579
46048W        W18374  10.839  30.001   3.192
46049W        W18375  25.113  16.786  11.883
46050W        W18376  17.652  28.670  12.580
46051W        W18377  33.079  40.048  13.023
46052W        W18378  34.546   2.310  13.032
46053W        W18379   2.392  44.788  14.950
46054W        W18380  12.281  16.227  12.471
46055W        W18381  30.910   8.322   2.207
46056W        W18382  18.081   1.456  10.959
46057W        W18383   2.325  40.958   4.819
46058W        W18384  43.301  10.260  12.411
46059W        W18385  32.450  14.250  12.875
46060W        W18386  28.652  20.224   4.681
46061W        W18387  44.456  24.513   2.858
46062W        W18388  30.935  39.916  14.350
46063W        W18389  39.414  15.328  14.406
46064W        W18390  33.619   0.395   1.920
46065W        W18391  35.601  11.290   3.279
46066W        W18392   1.358  22.022   0.320
46067W        W18393  43.992  40.042   1.815
46068W        W18394  42.918  25.562   1.245
46069W        W18395  38.923  35.514  11.891
46070W        W18396  27.161  10.317  14.386
46071W        W18397  19.219  40.992  13.311
46072W        W18398  18.699  25.988  12.397
46073W        W18399  26.112  41.340  10.896
46074W        W18400  22.233  35.459  12.877
46075W        W18401  44.899  34.931   4.320
46076W        W18402   2.291  37.355   2.273
46077W        W18403  30.526  34.080   0.461
46078W        W18404  37.990  30.137   2.855
46079W        W18405  36.904   5.718   3.316
46080W        W18406  16.799  44.819  11.565
46081W        W18407  29.920  43.441  10.508
46082W        W18408  28.092  30.096  13.810
46083W        W18409  24.052  34.461  14.978
46084W        W18410  27.450  39.980  11.120
46085W        W18411   5.705   2.783  11.964
46086W        W18412  20.643  43.991  12.847
46087W        W18413  37.867  29.950   4.825
46088W        W18414   0.493  42.484  11.428
46089W        W18415  17.647  16.076   2.715
46090W        W18416  24.676  25.101  12.416
46091W        W18417  25.963  12.342  11.861
46092W        W18418   4.374  15.251   3.783
46093W        W18419  24.612  17.150   3.680
46094W        W18420  38.911  16.706   2.342
46095W        W18421  22.083   2.456  14.845
46096W        W18422  35.375  36.548  11.516
46097W        W18423  17.709  42.823   2.827
46098W        W18424   6.411  18.219   4.271
46099W        W18425  40.014  35.531   0.939
46100W        W18426  44.490   9.790  13.363
46101W        W18427  21.527  43.327   0.256
46102W        W18428  36.463  33.994   5.698
46103W        W18429   8.357  30.978   2.304
46104W        W18430  35.463   3.887  11.474
46105W        W18431  38.561  13.680  13.542
46106W        W18432   2.453   0.744  11.372
46107W        W18433   6.216  26.605  12.977
46108W        W18434   5.279  39.985   1.374
46109W        W18435   4.833  28.013  11.965
46110W        W18436  25.532   5.364   0.748
46111W        W18437  31.423  33.052   1.700
46112W        W18438  20.087  39.851  11.444
46113W        W18439  44.781  30.146   0.381
46114W        W18440   1.246  41.925  11.027
46115W        W18441   6.219  28.959   3.699
46116W        W18442  19.087  36.065  11.027
46117W        W18443  35.073   5.711  11.594
46118W        W18444  12.195  16.715  12.931
46119W        W18445   0.768  12.301   2.824
46120W        W18446  36.908   9.801   4.797
46121W        W18447  10.313  40.878  12.525
46122W        W18448  43.343  21.221  10.546
46123W        W18449  29.624  21.149   2.273
46124W        W18450  25.504  11.622   1.716
46125W        W18451   7.262  41.490  10.451
46126W        W18452   7.671  29.498  12.399
46127W        W18453  19.228   8.281  11.958
46128W        W18454  19.538  37.442  14.876
46129W        W18455  24.618   6.907   3.175
46130W        W18456   7.400  10.707   3.686
46131W        W18457  17.605   3.398  13.986
46132W        W18458   0.372  37.026   4.764
46133W        W18459  25.592  25.656  14.457
46134W        W18460  26.692  22.615  13.944
46135W        W18461   4.882  15.156   3.736
46136W        W18462   6.890  22.702   4.737
46137W        W18463  29.974  34.518   1.377
46138W        W18464   8.732  16.257  14.790
46139W        W18465  12.203   6.801   1.369
46140W        W18466  24.228  35.560   2.367
46141W        W18467  22.196  16.612   2.259
46142W        W18468  34.605  15.735  13.418
46143W        W18469  40.808   8.264  12.351
46144W        W18470  12.294  24.511  10.152
46145W        W18471  28.487  36.849  14.489
46146W        W18472  20.549   5.274  13.858
46147W        W18473  14.339  26.682   4.116
46148W        W18474  35.074   1.417   0.255
46149W        W18475  10.253  42.868  14.908
46150W        W18476   4.799  10.140   4.270
46151W        W18477  18.602  18.546   1.360
46152W        W18478  25.988  37.070  10.450
46153W        W18479  44.353  28.491  12.951
46154W        W18480  12.645  42.859  14.026
46155W        W18481  18.264  20.104   2.724
46156W        W18482  35.086   4.278  13.435
46157W        W18483  36.067  14.731  13.932
46158W        W18484  19.546  37.065   3.687
46159W        W18485  14.331  38.828   3.370
46160W        W18486  23.996  35.095   4.678
46161W        W18487  14.803   4.802   1.713
46162W        W18488  11.310  41.920   2.682
46163W        W18489  44.959   1.467   3.650
46164W        W18490  33.398  20.061  11.062
46165W        W18491  11.865  10.142  10.466
46166W        W18492  15.788  35.590   2.772
46167W        W18493  41.866  27.997   2.730
46168W        W18494  36.496  10.264  10.916
46169W        W18495  34.541  31.410  13.872
46170W        W18496   2.449  10.719   1.368
46171W        W18497  37.953  42.972   5.292
46172W        W18498  17.703  35.514  11.894
46173W        W18499  11.809  32.548  11.431
46174W        W18500  31.103  11.291  12.893
46175W        W18501  33.402   4.803   3.262
46176W        W18502  44.851   6.779  14.301
46177W        W18503  40.318  18.113   0.778
46178W        W18504  28.664   9.171   3.261
46179W        W18505  11.198  24.696  11.589
46180W        W18506   9.692  28.065  10.576
46181W        W18507  38.869  13.623  12.873
46182W        W18508  33.941  39.471   2.266
46183W        W18509  40.341  28.158   4.726
46184W        W18510  44.872  12.765  13.538
46185W        W18511  18.743  34.070  14.967
46186W        W18512  14.117  11.295  12.038
46187W        W18513   1.764  34.888   2.182
46188W        W18514  44.003  18.184   3.341
46189W        W18515  16.097  30.555  14.362
46190W        W18516  38.341  37.408   4.757
46191W        W18517  21.669   3.790   4.120
46192W        W18518   1.813  11.323   4.676
46193W        W18519  26.571  17.165  10.581
46194W        W18520   0.366   1.919  13.990
46195W        W18521  28.969  23.231   1.241
46196W        W18522  24.992  21.709   2.709
46197W        W18523  44.852   5.351   3.866
46198W        W18524  38.028   2.913  13.327
46199W        W18525  44.427  30.477  11.937
46200W        W18526  23.019   8.268  13.340
46201W        W18527  25.532   1.973  14.399
46202W        W18528  16.302   3.777   3.643
46203W        W18529   6.856  38.480   0.793
46204W        W18530   6.846   3.789  13.340
46205W        W18531  26.635  29.572   2.862
46206W        W18532  35.474  22.229  11.908
46207W        W18533  10.715  25.521   1.232
46208W        W18534  36.912  10.190  10.452
46209W        W18535  40.949  33.946  13.946
46210W        W18536  18.629  44.922  11.418
46211W        W18537   8.756   9.309  10.636
46212W        W18538  23.570  30.024  10.940
46213W        W18539  23.654  28.667  11.031
46214W        W18540   1.442   3.912  13.363
46215W        W18541  33.453  18.200   1.757
46216W        W18542  32.988  27.678  12.008
46217W        W18543   9.153   8.406  12.980
46218W        W18544  36.871  10.361   1.428
46219W        W18545   5.410   7.803   3.272
46220W        W18546  40.304  18.676   2.751
46221W        W18547  25.062  24.673   0.278
46222W        W18548  32.619  19.624  13.518
46223W        W18549   7.768  31.148   1.355
46224W        W18550   6.900   3.802   3.706
46225W        W18551   4.212  30.112   3.782
46226W        W18552  10.370  34.056  13.860
46227W        W18553  13.750  34.870   0.339
46228W        W18554  10.326  24.154  10.945
46229W        W18555  25.012  43.764   2.893
46230W        W18556   1.961  11.831   5.635
46231W        W18557  40.869  14.179  11.447
46232W        W18558   1.941  26.139  12.474
46233W        W18559   4.752  32.547   2.732
46234W        W18560  26.689  32.978  13.913
46235W        W18561  40.331  40.357   4.207
46236W        W18562  29.455   0.851  10.426
46237W        W18563  16.080  27.045  13.459
46238W        W18564  40.837   3.860  13.382
46239W        W18565  16.654  40.313  13.934
46240W        W18566  26.204  11.129  12.409
46241W        W18567   1.810  26.567   2.342
46242W        W18568  33.415   3.461  13.983
46243W        W18569  43.474  43.363  12.371
46244W        W18570  12.640  34.011  11.127
46245W        W18571  25.500  38.908   3.792
46246W        W18572   8.838  21.207   0.883
46247W        W18573  30.155   8.747  10.497
46248W        W18574   5.802  21.172   0.875
46249W        W18575   1.328  10.353  13.041
46250W        W18576  35.074  10.703  14.479
46251W        W18577  10.278  17.761   3.287
46252W        W18578  28.111  44.779  11.128
46253W        W18579   6.423  23.072  11.453
46254W        W18580  13.163  28.451  13.536
46255W        W18581  17.153  36.066   3.231
46256W        W18582  26.023  23.716   4.737
46257W        W18583   2.851  27.072  12.974
46258W        W18584  35.099  11.229   3.373
46259W        W18585   5.812   1.409   4.666
46260W        W18586  19.715  28.143   3.146
46261W        W18587  21.673  19.224  14.031
46262W        W18588  27.152  37.451   1.320
46263W        W18589  25.142  27.975   0.242
46264W        W18590   4.211  14.188   4.683
46265W        W18591  13.228  38.866   3.149
46266W        W18592  26.205  16.721   0.907
46267W        W18593  40.324  28.485  10.610
46268W        W18594  15.109  20.709  13.808
46269W        W18595  19.728  26.475  12.454
46270W        W18596  21.613  21.668  11.398
46271W        W18597  34.875  44.287   5.114
46272W        W18598  26.169  40.799   0.377
46273W        W18599  16.262  14.169   3.377
46274W        W18600  38.049   3.858   4.192
46275W        W18601  28.658  10.304  12.020
46276W        W18602  30.915  38.489   0.961
46277W        W18603  44.828  20.680  14.326
46278W        W18604  31.577  21.233   0.439
46279W        W18605  42.822  10.172  14.031
46280W        W18606  36.050  29.083  11.458
46281W        W18607  18.775   5.338  12.362
46282W        W18608  22.019  34.098   3.300
46283W        W18609  20.541  31.569  14.773
46284W        W18610   2.465  44.335  13.007
46285W        W18611  15.606  18.126   4.638
46286W        W18612   9.342  13.314   3.204
46287W        W18613  39.872  43.470   4.656
46288W        W18614  29.960  39.448   0.965
46289W        W18615  16.719  38.436   0.777
46290W        W18616  17.204  39.324   0.798
46291W        W18617   6.325  15.169  12.450
46292W        W18618  18.624  33.606  11.975
46293W        W18619  37.463  44.858   0.862
46294W        W18620   6.864   9.202  11.955
46295W        W18621   2.289   9.847  13.374
46296W        W18622   7.684  33.599   0.417
46297W        W18623  23.496  21.126  13.994
46298W        W18624  12.636   4.423   4.607
46299W        W18625  20.156  30.636  13.889
46300W        W18626  30.417  40.396   4.279
46301W        W18627  12.817   2.465   1.851
46302W        W18628  20.266   2.362  11.613
46303W        W18629   5.391   5.192  11.484
46304W        W18630  16.575  15.114  14.783
46305W        W18631  33.037  35.531   4.705
46306W        W18632  32.992  31.421  13.478
46307W        W18633  34.066   0.409   3.334
46308W        W18634  33.031  42.503   1.433
46309W        W18635  20.142  35.073   4.278
46310W        W18636  29.954   5.343   2.674
46311W        W18637  29.650  42.297  11.066
46312W        W18638   0.914  34.119  13.403
46313W        W18639  36.876  17.586   3.345
46314W        W18640  15.727  21.533   3.219
46315W        W18641  15.610  26.681   2.686
46316W        W18642  10.179  32.471   0.807
46317W        W18643  23.573  25.039  11.411
46318W        W18644  20.243   6.378  11.604
46319W        W18645  19.055  12.193   3.805
46320W        W18646  16.189  29.116  13.995
46321W        W18647   8.871   9.385   1.897
46322W        W18648   9.323  17.269   2.409
46323W        W18649  32.456  19.738   1.844
46324W        W18650  44.338  14.663   2.846
46325W        W18651  32.061  35.601  12.468
46326W        W18652  27.004  36.940   4.671
46327W        W18653  11.212  19.534  12.907
46328W        W18654  22.535  20.043  10.467
46329W        W18655  40.889  14.795   2.228
46330W        W18656   6.871  26.597   0.840
46331W        W18657  25.990  36.545  10.437
46332W        W18658  37.464  40.492  10.582
46333W        W18659   6.324  22.578  10.502
46334W        W18660  33.579  29.927   3.264
46335W        W18661  34.558   8.342   2.394
46336W        W18662  34.895  12.854  14.871
46337W        W18663  22.151  43.375  13.473
46338W        W18664  16.769  13.226   1.216
46339W        W18665   1.902  38.496  14.989
46340W        W18666  29.522  30.119  13.363
46341W        W18667  35.533  10.289   9.987
46342W        W18668   4.801  19.609   2.725
46343W        W18669  18.703  43.335   4.244
46344W        W18670  12.843   0.265  12.419
46345W        W18671  16.622  22.641   0.917
46346W        W18672   7.327   4.850   2.688
46347W        W18673  28.532  44.428  11.441
46348W        W18674   7.767  19.738   5.110
46349W        W18675  13.195   2.453   2.369
46350W        W18676  17.275   0.445  12.523
46351W        W18677  41.929  28.676   4.758
46352W        W18678  17.770  14.324  12.079
46353W        W18679  21.120  14.153   1.224
46354W        W18680   1.738   2.754  11.127
46355W        W18681  22.110  41.882   3.647
46356W        W18682   5.868  12.300  10.895
46357W        W18683   4.936  44.439   0.786
46358W        W18684  17.219  11.210   1.331
46359W        W18685  17.745  16.773  13.042
46360W        W18686  34.928   8.375  14.384
46361W        W18687  28.014  27.454  10.091
46362W        W18688  20.164  37.968   3.334
46363W        W18689   5.295   7.316  10.426
46364W        W18690  22.073   6.910  12.984
46365W        W18691  30.491  29.980  11.997
46366W        W18692  16.690  36.561  13.029
46367W        W18693  12.158  16.654  11.002
46368W        W18694   5.440   1.396  13.007
46369W        W18695  24.037  37.429   9.980
46370W        W18696  22.580  10.646   0.788
46371W        W18697  29.136  21.078  11.919
46372W        W18698  44.504  18.624  11.011
46373W        W18699  34.070  36.424   9.965
46374W        W18700  32.599  28.538  11.125
46375W        W18701  15.754  25.014  12.911
46376W        W18702  23.683  32.571  13.473
46377W        W18703   7.873   9.713   1.260
46378W        W18704  42.381  18.748   2.866
46379W        W18705   4.448   3.321   4.619
46380W        W18706  17.788  31.128   2.745
46381W        W18707  21.534   6.419  14.795
46382W        W18708  10.851  33.914  11.043
46383W        W18709   9.765  24.644  13.878
46384W        W18710  18.730  32.452   4.757
46385W        W18711  27.077  27.548  14.021
46386W        W18712  21.605   6.320  13.911
46387W        W18713  35.454  41.879   4.288
46388W        W18714  18.209  20.166  12.985
46389W        W18715  16.130   7.785   3.870
46390W        W18716  12.297  17.176   0.810
46391W        W18717   3.734  23.701  11.403
46392W        W18718   5.894  13.600  11.967
46393W        W18719  15.244  17.181  13.966
46394W        W18720  44.831  22.129   3.637
46395W        W18721  18.287  26.461   1.279
46396W        W18722  18.257   8.282  10.890
46397W        W18723  43.288  14.670   0.303
46398W        W18724  15.130  39.317   1.333
46399W        W18725  32.404  10.353   4.167
46400W        W18726  41.298  12.792  13.323
46401W        W18727  24.037  33.545  14.321
46402W        W18728  12.246  30.156   3.223
46403W        W18729  30.145  17.209   0.943
46404W        W18730  22.587  10.295   0.457
46405W        W18731  27.634  44.309  10.531
46406W        W18732  33.883   0.851   4.341
46407W        W18733  38.056  44.323   2.858
46408W        W18734  21.020  16.124   1.860
46409W        W18735  29.538   5.753   1.340
46410W        W18736   2.363  10.728  12.398
46411W        W18737  11.826  33.042   2.818
46412W        W18738  30.941  22.544   1.892
46413W        W18739  13.276  11.345   2.255
46414W        W18740  10.779  17.586  12.039
46415W        W18741   9.797  16.721   4.259
46416W        W18742  12.361  30.544   2.347
46417W        W18743   8.887  21.653  14.014
46418W        W18744  18.241  26.492  12.358
46419W        W18745   9.887  36.965   0.408
46420W        W18746   2.893  26.457  12.036
46421W        W18747  21.541  15.723  14.913
46422W        W18748  39.540  14.740  14.930
46423W        W18749  24.977  34.592   1.833
46424W        W18750   0.253  16.128   2.801
46425W        W18751  29.143  19.722  10.998
46426W        W18752  33.462  28.159   0.830
46427W        W18753  19.702   4.240  12.512
46428W        W18754  25.668  25.680  11.610
46429W        W18755  15.750  10.261   1.320
46430W        W18756  33.493  25.086  11.559
46431W        W18757  43.985  35.357   0.918
46432W        W18758  19.224  15.145  13.952
46433W        W18759  30.563   1.422  10.987
46434W        W18760  38.917  37.393  14.333
46435W        W18761  24.129  30.557  10.063
46436W        W18762  14.227  13.166   1.308
46437W        W18763   0.337  20.650   1.908
46438W        W18764  38.487  33.949   1.739
46439W        W18765  36.572  23.123   3.166
46440W        W18766  19.284  43.011  10.974
46441W        W18767  30.458  34.867  14.780
46442W        W18768  39.932  21.735   4.783
46443W        W18769  18.289  15.161   0.479
46444W        W18770  40.800  34.095  14.288
46445W        W18771   0.367  27.160   4.605
46446W        W18772  30.612   9.306  13.904
46447W        W18773  12.621  31.431   4.193
46448W        W18774  12.851  35.429   4.626
46449W        W18775  24.223   2.268  13.363
46450W        W18776  40.805   5.212   4.148
46451W        W18777  22.526  28.062   4.195
46452W        W18778  35.470   2.257  10.964
46453W        W18779  39.553  36.877   2.770
46454W        W18780  22.231  37.545  10.587
46455W        W18781  10.327  23.104   0.781
46456W        W18782  10.357  13.643   4.221
46457W        W18783  10.852  23.566   2.350
46458W        W18784  14.591  24.988   4.615
46459W        W18785  22.505  24.231  10.543
46460W        W18786  18.124  22.581  14.467
46461W        W18787  10.184   5.301   0.924
46462W        W18788  12.701  22.185   4.202
46463W        W18789  43.963  17.093  14.403
46464W        W18790  42.903  27.590   2.266
46465W        W18791  15.196  23.221  13.892
46466W        W18792   2.847  18.669   1.727
46467W        W18793  37.894   9.888   0.330
46468W        W18794  37.535  23.591   0.747
46469W        W18795  42.503  22.025  10.554
46470W        W18796   2.878  40.928   3.280
46471W        W18797  26.134   9.268   1.360
46472W        W18798   1.303  18.761  13.804
46473W        W18799  10.697  33.454  13.848
46474W        W18800  25.012  11.179   4.250
46475W        W18801  28.972  32.509  14.000
46476W        W18802   3.410  20.699  13.383
46477W        W18803  18.126  42.900   0.863
46478W        W18804   8.883  19.686   0.726
46479W        W18805  12.232   5.293   0.882
46480W        W18806  18.666  31.975  10.118
46481W        W18807  31.934  18.066   3.793
46482W        W18808  21.564  12.347  14.839
46483W        W18809  13.337  10.788   0.266
46484W        W18810  22.628  41.499   4.282
46485W        W18811  28.563  26.483  12.847
46486W        W18812  38.978  37.397   0.875
46487W        W18813   4.858   2.724  11.105
46488W        W18814  38.402  24.655  14.786
46489W        W18815  39.065  38.529  11.445
46490W        W18816  33.042  37.006  10.907
46491W        W18817  26.694  41.488   5.310
46492W        W18818  36.960  29.498  12.008
46493W        W18819  33.993  34.509  13.457
46494W        W18820   6.269  22.066   4.741
46495W        W18821  43.769  35.487   1.352
46496W        W18822  21.566   1.470   1.435
46497W        W18823  40.012  28.040   0.345
46498W        W18824  28.601  13.173   0.800
46499W        W18825  18.597  14.607  13.521
46500W        W18826  18.639  21.672  12.540
46501W        W18827   3.763  16.606  12.006
46502W        W18828  33.498  18.754   0.742
46503W        W18829  40.979   3.262   0.861
46504W        W18830   1.371  40.899  12.884
46505W        W18831  42.323  24.710  13.983
46506W        W18832  22.741  11.824   3.803
46507W        W18833  32.080  35.536   3.381
46508W        W18834  16.584  13.255   3.173
46509W        W18835  16.269  10.734  10.968
46510W        W18836  35.960  22.651  11.607
46511W        W18837  43.490  42.776  13.867
46512W        W18838  17.285  11.624  12.830
46513W        W18839   7.226   6.903   2.406
46514W        W18840  37.019  30.470   1.890
46515W        W18841   4.357  31.437   4.302
46516W        W18842   5.689  13.719   1.380
46517W        W18843  26.575  39.061   4.830
46518W        W18844  28.649   0.492  13.540
46519W        W18845  26.972  30.946   1.790
46520W        W18846  12.229   2.740   4.631
46521W        W18847  10.814  36.026   4.748
46522W        W18848  34.957  31.544   4.302
46523W        W18849  24.704  25.151  13.481
46524W        W18850  25.471   1.890   4.759
46525W        W18851  21.581  25.981  12.401
46526W        W18852  37.856   6.751  10.523
46527W        W18853  17.245  28.565   2.704
46528W        W18854  11.781  32.621   4.799
46529W        W18855  32.086  19.204   0.277
46530W        W18856  31.441  23.708  12.084
46531W        W18857  37.439  32.426   2.706
46532W        W18858   4.220  43.912  12.417
46533W        W18859  32.063   0.902   0.734
46534W        W18860  21.137  27.049   5.249
46535W        W18861  16.670  23.651   4.185
46536W        W18862  14.266  14.694  11.039
46537W        W18863  22.068  11.259  12.884
46538W        W18864  28.129  32.999   4.122
46539W        W18865  26.602  37.578   1.252
46540W        W18866   1.394   2.425  10.508
46541W        W18867   2.794  17.188   4.297
46542W        W18868   1.334  41.895  10.584
46543W        W18869   1.386  10.298  10.641
46544W        W18870  13.336  17.558   1.339
46545W        W18871   5.245  43.474  11.425
46546W        W18872   9.846  44.956  13.860
46547W        W18873   5.758  20.692  10.540
46548W        W18874  24.045  17.635   9.478
46549W        W18875  24.140  33.524   1.795
46550W        W18876  19.678   6.751  11.916
46551W        W18877  22.099  16.089  12.848
46552W        W18878  40.856  39.822  13.824
46553W        W18879  38.361  18.658  13.531
46554W        W18880  42.878  36.381  13.009
46555W        W18881  39.534  33.613  11.928
46556W        W18882  23.655   1.401  12.051
46557W        W18883   5.217   8.712  12.476
46558W        W18884  30.648  23.524   4.821
46559W        W18885  37.444  13.702   9.924
46560W        W18886  36.878  35.429  10.956
46561W        W18887  25.057  24.088  12.536
46562W        W18888  36.378   2.348  10.422
46563W        W18889  38.549  27.946   2.302
46564W        W18890  28.642   9.755   1.697
46565W        W18891   8.339   3.752   1.775
46566W        W18892   0.327  13.702  12.864
46567W        W18893  27.553   3.334   4.287
46568W        W18894  26.194   9.874  12.050
46569W        W18895   4.783  25.994   0.432
46570W        W18896  22.999  41.313  13.401
46571W        W18897  25.484  38.480   4.304
46572W        W18898  42.329  28.057   3.295
46573W        W18899  43.996  11.860  13.921
46574W        W18900  29.934   9.816  14.976
46575W        W18901  34.524  42.411   3.666
46576W        W18902  36.969  23.558  11.482
46577W        W18903  14.656  15.212  13.400
46578W        W18904  31.516  34.935   2.294
46579W        W18905  34.959   2.808   1.737
46580W        W18906  44.818  22.635  11.970
46581W        W18907  17.770  14.713   4.708
46582W        W18908  42.426  40.433   3.808
46583W        W18909  21.560  26.008   4.744
46584W        W18910   3.779  11.244  13.494
46585W        W18911   4.809  12.259  14.438
46586W        W18912  43.805  19.699   0.355
46587W        W18913  24.545  36.085   2.819
46588W        W18914   0.332  44.982  11.992
46589W        W18915  10.638  10.689   3.165
46590W        W18916   1.336   6.832   4.831
46591W        W18917  31.915   6.375  13.947
46592W        W18918  18.740  14.599  10.438
46593W        W18919   8.896  44.940  12.851
46594W        W18920   9.211  23.580   1.330
46595W        W18921  42.995   8.813   1.775
46596W        W18922  23.529  28.173  14.791
46597W        W18923  22.715  14.276   3.735
46598W        W18924  33.100  44.802  13.998
46599W        W18925  28.520  39.046  10.994
46600W        W18926   3.783  25.164   2.318
46601W        W18927   7.175   3.414  11.545
46602W        W18928  30.990  37.867  12.886
46603W        W18929   2.360  29.036   5.197
46604W        W18930   6.723  39.542   0.475
46605W        W18931  15.782  42.311  13.896
46606W        W18932  20.127  38.513  10.454
46607W        W18933   7.858   4.448   1.391
46608W        W18934   4.422  13.144   0.465
46609W        W18935  41.501   5.195  14.343
46610W        W18936  13.221   8.739  13.533
46611W        W18937  31.944  33.984  10.473
46612W        W18938  35.940  38.050  11.057
46613W        W18939  22.149  32.949   4.166
46614W        W18940   8.669  38.919  13.984
46615W        W18941  27.992  18.553  10.407
46616W        W18942  29.504   7.698  11.438
46617W        W18943  24.544  31.444  13.419
46618W        W18944   7.864  34.969   1.735
46619W        W18945   1.974   7.392   0.810
46620W        W18946  36.553  25.985   2.663
46621W        W18947  29.450  25.148  12.049
46622W        W18948  32.085  39.349   1.799
46623W        W18949   1.929  27.983   4.597
46624W        W18950  34.536  27.593   3.241
46625W        W18951  25.966   4.265  14.781
46626W        W18952  24.209   0.402  12.427
46627W        W18953  34.604   9.723   2.751
46628W        W18954  41.017   2.349  14.854
46629W        W18955  16.649  19.753   2.836
46630W        W18956  31.531  40.039  13.054
46631W        W18957  35.384   4.446   0.257
46632W        W18958   2.232  15.823  12.875
46633W        W18959  34.466  25.486   4.133
46634W        W18960  26.037  16.590   5.151
46635W        W18961  41.874  25.038  13.416
46636W        W18962  37.568   0.967   2.860
46637W        W18963  19.137  23.490   4.658
46638W        W18964  20.713  16.646   2.299
46639W        W18965  31.547  33.900   1.341
46640W        W18966  31.454  31.447  11.534
46641W        W18967  35.880  11.768  14.298
46642W        W18968  37.941  24.597  11.030
46643W        W18969   6.795  31.135   0.956
46644W        W18970  35.586  12.178  12.458
46645W        W18971  18.208  23.077   0.362
46646W        W18972  34.562  37.907  13.404
46647W        W18973  43.773  13.703  12.373
46648W        W18974  15.804  16.709   2.276
46649W        W18975  40.364  17.732  12.968
46650W        W18976  33.606  19.594  11.430
46651W        W18977   2.257  32.948   1.286
46652W        W18978   9.758  43.997   2.666
46653W        W18979  42.801   2.795  12.450
46654W        W18980  17.725   1.856   4.182
46655W        W18981  13.654  44.371  13.062
46656W        W18982  14.265   6.335   4.766
46657W        W18983  15.616   5.399   4.322
46658W        W18984   9.355   6.236   3.364
46659W        W18985  10.692   1.741   4.789
46660W        W18986   8.791   4.400  13.309
46661W        W18987  31.639  13.144  12.854
46662W        W18988  28.553  32.475  14.900
46663W        W18989  22.064  10.713  10.947
46664W        W18990  17.208  35.488  12.473
46665W        W18991  33.479  20.155   4.136
46666W        W18992  24.110  18.108  12.421
46667W        W18993  25.613   9.274  14.459
46668W        W18994  33.011  17.063  12.930
46669W        W18995   6.821  16.757   4.710
46670W        W18996  37.348   1.332  13.980
46671W        W18997   8.372   3.941  14.785
46672W        W18998  23.191  33.982  14.277
46673W        W18999  19.087  29.141  13.943
46674W        W19000   1.332  14.266   1.727
46675W        W19001  31.584  25.011   3.329
46676W        W19002  34.889  12.238   2.841
46677W        W19003  24.647  10.282  10.088
46678W        W19004  32.936  16.180   0.828
46679W        W19005  29.093   5.798  12.929
46680W        W19006  36.417  31.119  13.447
46681W        W19007   0.814  42.840   1.850
46682W        W19008  20.028  39.392  10.529
46683W        W19009  37.894   6.890  14.923
46684W        W19010  17.193   8.714   2.300
46685W        W19011  30.958  20.191  11.560
46686W        W19012   1.937  22.729  12.577
46687W        W19013  36.417   4.809   0.308
46688W        W19014   5.912  24.568   0.418
46689W        W19015  20.246   1.965  12.454
46690W        W19016  12.299   9.203   1.325
46691W        W19017  19.144  11.351  11.956
46692W        W19018   9.344  27.057  12.354
46693W        W19019  25.712  44.760   1.794
46694W        W19020  19.701  26.019  10.901
46695W        W19021  12.259   4.262  12.952
46696W        W19022  16.647   0.747  10.510
46697W        W19023  44.009  44.996   3.250
46698W        W19024  32.112  20.640  12.899
46699W        W19025  35.984   9.680  14.777
46700W        W19026  41.415   6.426  11.896
46701W        W19027   2.795   0.362   3.650
46702W        W19028  37.411   3.318  14.476
46703W        W19029   8.276  32.552   3.730
46704W        W19030  23.206  40.394   1.745
46705W        W19031  12.159  22.053  10.451
46706W        W19032  23.629  42.404  11.448
46707W        W19033  10.739  44.901  13.417
46708W        W19034  31.997  28.670   4.311
46709W        W19035  27.611  38.469  13.309
46710W        W19036  31.118   9.842   2.757
46711W        W19037   9.792  27.555  13.358
46712W        W19038   7.854  34.479   0.741
46713W        W19039  28.440  18.559  12.343
46714W        W19040  43.010  18.619   0.841
46715W        W19041  15.241  21.612   2.330
46716W        W19042  27.579  35.071  14.335
46717W        W19043   3.897  31.488   1.316
46718W        W19044  10.375   8.379   4.124
46719W        W19045  32.890   2.801   3.249
46720W        W19046  10.771  26.480   3.325
46721W        W19047  38.429  34.544  11.569
46722W        W19048   2.292  24.490   1.250
46723W        W19049  22.568  17.099  10.952
46724W        W19050  41.495  41.912   3.749
46725W        W19051  42.486   2.845  12.575
46726W        W19052  40.870  29.625  12.003
46727W        W19053   6.786  29.052  13.526
46728W        W19054  39.003  35.484  14.505
46729W        W19055  26.701  11.298  12.916
46730W        W19056  31.591  24.977  13.808
46731W        W19057  36.986  14.318   2.346
46732W        W19058  27.504  19.139   1.412
46733W        W19059  10.204  34.382  12.895
46734W        W19060   8.757  29.111   0.911
46735W        W19061  29.670   6.291  14.317
46736W        W19062  13.306  35.062  14.930
46737W        W19063  26.024  44.291   2.853
46738W        W19064  13.771  33.077  14.489
46739W        W19065  17.238   4.769   9.967
46740W        W19066  16.592  13.695   2.719
46741W        W19067  29.535  25.534  11.502
46742W        W19068  33.591   7.209   4.651
46743W        W19069  41.335  28.673   2.677
46744W        W19070   9.786  35.855  10.486
46745W        W19071  36.072  33.471  10.468
46746W        W19072  42.361  31.054   4.679
46747W        W19073  16.582  12.290  13.791
46748W        W19074  30.622  38.386   1.240
46749W        W19075  44.296   7.250   1.793
46750W        W19076  36.490  15.731   1.719
46751W        W19077  22.515   5.879   3.810
46752W        W19078  13.116  33.426   5.169
46753W        W19079  22.114  22.104  13.868
46754W        W19080  13.766  41.434   4.767
46755W        W19081   0.396  12.704  14.493
46756W        W19082  23.681  21.691   0.380
46757W        W19083  21.695  15.704   0.902
46758W        W19084   6.216  26.501  12.551
46759W        W19085  20.181  22.038   3.358
46760W        W19086  18.080   6.239  13.916
46761W        W19087   0.861   0.807   2.876
46762W        W19088  23.097   0.446  10.989
46763W        W19089   8.393   9.832   1.749
46764W        W19090  30.107   5.870  14.905
46765W        W19091   9.198   4.355  11.079
46766W        W19092  13.308  12.282   1.327
46767W        W19093   7.897  38.984   2.183
46768W        W19094   4.403  12.695   2.890
46769W        W19095  42.469  15.110  12.384
46770W        W19096  40.374   3.761  10.552
46771W        W19097  19.542  33.398   3.214
46772W        W19098  38.532  26.600   3.711
46773W        W19099  11.228  13.610  10.948
46774W        W19100  14.156   2.315  10.968
46775W        W19101  37.502  14.802  14.872
46776W        W19102  27.978  18.197   0.392
46777W        W19103  33.578  40.033  13.853
46778W        W19104  39.506  43.868  12.009
46779W        W19105  21.658  20.180  12.074
46780W        W19106  10.843  41.930   1.352
46781W        W19107  32.600   5.220  12.429
46782W        W19108  10.676  31.573  13.311
46783W        W19109   6.295   0.480  10.159
46784W        W19110  44.317  15.679  13.010
46785W        W19111  16.650  37.343   1.365
46786W        W19112  40.473  31.505   4.805
46787W        W19113   4.231  23.013   0.245
46788W        W19114  12.850  34.528  12.999
46789W        W19115   2.960  41.521  14.795
46790W        W19116   4.246   1.397   0.739
46791W        W19117  24.677  33.592  14.987
46792W        W19118  17.083   1.311  14.306
46793W        W19119   6.377  26.482  10.512
46794W        W19120  21.633  13.660   4.180
46795W        W19121   0.832   2.292  11.460
46796W        W19122  29.485  33.508   5.204
46797W        W19123  11.146   1.360   0.355
46798W        W19124  16.090  28.085   2.226
46799W        W19125  25.050  42.779  11.567
46800W        W19126   4.363  18.568   0.317
46801W        W19127  22.229   1.454  11.060
46802W        W19128  13.154  39.877   2.892
46803W        W19129   7.886   6.832   1.699
46804W        W19130  18.160   4.408  13.385
46805W        W19131  15.134  16.792  11.384
46806W        W19132  39.435  16.572   0.889
46807W        W19133  17.104  38.823   4.602
46808W        W19134   6.719  28.533   3.802
46809W        W19135  21.263  42.393   1.302
46810W        W19136  11.844  19.742   3.331
46811W        W19137   0.884   3.310  12.832
46812W        W19138  16.638  19.691  14.996
46813W        W19139  36.404  34.481   2.723
46814W        W19140  34.032  27.032  13.970
46815W        W19141  22.034  12.211  13.534
46816W        W19142  42.454  43.448   2.745
46817W        W19143  30.986  38.346   1.442
46818W        W19144  11.821  41.954  12.579
46819W        W19145  13.611  30.531   2.196
46820W        W19146  19.754  16.127  13.957
46821W        W19147  35.097  39.960  12.340
46822W        W19148  24.225  36.400   3.212
46823W        W19149  10.837  10.303   0.763
46824W        W19150  34.978  26.078   2.316
46825W        W19151  44.971  11.782  11.470
46826W        W19152   1.337  30.937  10.611
46827W        W19153  36.957  15.600   3.149
46828W        W19154  23.541  16.135  13.505
46829W        W19155  31.021  13.304  11.476
46830W        W19156   7.675   5.854   3.821
46831W        W19157  29.990  33.063   2.799
46832W        W19158  21.130  33.396   5.141
46833W        W19159  44.463  21.139  12.843
46834W        W19160  29.134  44.284   2.320
46835W        W19161   5.368   2.768   4.741
46836W        W19162   3.925  28.572  12.950
46837W        W19163  39.811  21.238  12.489
46838W        W19164  17.249  34.458  14.824
46839W        W19165  36.397  15.252  14.503
46840W        W19166  13.763   6.236  10.568
46841W        W19167   4.241  40.955  11.007
46842W        W19168  22.587  42.898  14.514
46843W        W19169  35.086  41.538  11.126
46844W        W19170  16.780   4.867   2.334
46845W        W19171   8.178  29.611   1.405
46846W        W19172  36.493  33.098  13.335
46847W        W19173  38.983   9.340  14.020
46848W        W19174   1.739  17.704  12.517
46849W        W19175  40.912  44.898  13.324
46850W        W19176   1.947  43.811   0.965
46851W        W19177  33.414   7.344   0.390
46852W        W19178  33.509   3.456  11.481
46853W        W19179  40.490   7.177   2.263
46854W        W19180  31.612   2.416   0.446
46855W        W19181  34.579  22.217  10.529
46856W        W19182  37.065  15.783   1.745
46857W        W19183  20.604  41.432  11.912
46858W        W19184  17.265  39.390   0.444
46859W        W19185  21.706  27.470   1.367
46860W        W19186  24.137  10.339   3.172
46861W        W19187  18.576   3.215   0.921
46862W        W19188  19.686  23.140   2.666
46863W        W19189  25.156  39.432   5.160
46864W        W19190  12.133  29.989  10.933
46865W        W19191  33.885   1.906  14.914
46866W        W19192   1.397  19.584   1.696
46867W        W19193  41.037  19.246   0.371
46868W        W19194  27.952   6.352   4.794
46869W        W19195  25.078  27.101  14.443
46870W        W19196  43.786  30.499  12.980
46871W        W19197  12.297  29.450   0.781
46872W        W19198  42.317  12.699   4.719
46873W        W19199  31.506   6.399  13.437
46874W        W19200   2.746  27.598  11.105
46875W        W19201  10.319   4.744   1.908
46876W        W19202  26.505   5.851  14.988
46877W        W19203  37.494   1.271  12.390
46878W        W19204   1.241  11.678   0.801
46879W        W19205  44.838  17.241  14.995
46880W        W19206   3.912  11.255  12.545
46881W        W19207  10.796  13.759  13.348
46882W        W19208  40.930  17.301   2.252
46883W        W19209  22.044   4.905  13.309
46884W        W19210  27.474  27.000  13.862
46885W        W19211  13.171  25.012  11.899
46886W        W19212  21.079  11.650   3.853
46887W        W19213   3.451  20.754  13.940
46888W        W19214  20.119   9.807  10.896
46889W        W19215   9.859   1.355  12.845
46890W        W19216  21.560  41.896   4.809
46891W        W19217  31.470  30.596  14.348
46892W        W19218  30.568  28.094  11.059
46893W        W19219  32.045  30.954  12.911
46894W        W19220  39.911  41.833  14.335
46895W        W19221  38.954  32.098   4.722
46896W        W19222  40.939  37.408   0.370
46897W        W19223   5.225  36.470  10.512
46898W        W19224  19.280  35.071  10.934
46899W        W19225  22.155  18.658  11.003
46900W        W19226   1.772   4.437   0.312
46901W        W19227  27.983  29.090  11.416
46902W        W19228  33.874  40.323   1.386
46903W        W19229  22.144  26.129  14.809
46904W        W19230  38.899   1.317   1.837
46905W        W19231  39.902  36.980   4.670
46906W        W19232  26.498  30.061  14.874
46907W        W19233  38.384  28.569  14.407
46908W        W19234  17.711  37.501   0.398
46909W        W19235  37.379  20.045   4.800
46910W        W19236  22.212  28.476   4.324
46911W        W19237   9.264   0.843  14.845
46912W        W19238  12.688   2.886   2.302
46913W        W19239  29.629  19.196  10.986
46914W        W19240  25.176  18.593  11.978
46915W        W19241   6.733  28.031   4.144
46916W        W19242  42.003  34.567   0.756
46917W        W19243  14.832  16.201  11.919
46918W        W19244  22.601  28.063  14.946
46919W        W19245  30.970  32.441   3.640
46920W        W19246   8.678  13.216  10.988
46921W        W19247  20.708  17.570   3.856
46922W        W19248  32.544  31.596   1.425
46923W        W19249  23.220  27.631  13.856
46924W        W19250  20.152  16.157   3.266
46925W        W19251   3.725  22.646  11.006
46926W        W19252   9.352   1.936   1.262
46927W        W19253  23.043  35.478   4.741
46928W        W19254  37.373  14.188  13.396
46929W        W19255   7.414  10.228   1.896
46930W        W19256  27.080  40.919  13.949
46931W        W19257  17.755  32.120   3.169
46932W        W19258  32.920   6.801   0.736
46933W        W19259  29.005  23.702  14.459
46934W        W19260  12.177  43.850   3.248
46935W        W19261  15.732  14.170  10.098
46936W        W19262  33.042  38.040   0.288
46937W        W19263  10.830   4.868   0.430
46938W        W19264   6.711  36.466   4.740
46939W        W19265   7.259   3.757  14.489
46940W        W19266  28.995   6.315   2.301
46941W        W19267  44.450  18.760  12.982
46942W        W19268  16.299  18.595  10.916
46943W        W19269  44.963  15.822  12.923
46944W        W19270  16.743  21.045  11.970
46945W        W19271  26.103  15.130  12.069
46946W        W19272  22.186  30.999   1.762
46947W        W19273   4.727   9.647   3.792
46948W        W19274   2.450  36.530   0.941
46949W        W19275   5.278  31.447   4.282
46950W        W19276  27.674  18.754  10.545
46951W        W19277  29.992   6.881   3.771
46952W        W19278  36.933   7.812   1.816
46953W        W19279  41.931  34.975   4.350
46954W        W19280   0.928  40.928  10.639
46955W        W19281   9.354  10.702   2.828
46956W        W19282  12.143   2.257   4.259
46957W        W19283  12.270  18.664  13.842
46958W        W19284  16.687  34.084   0.767
46959W        W19285  22.246  16.245  11.862
46960W        W19286   3.754  37.430   4.170
46961W        W19287  43.006   9.830   0.905
46962W        W19288  44.837   4.224   2.851
46963W        W19289  39.887  34.115  13.441
46964W        W19290  28.622  12.200   4.769
46965W        W19291  42.014  21.214   5.308
46966W        W19292  11.842  28.177  11.076
46967W        W19293  18.051  22.007   4.837
46968W        W19294  11.756  15.324   0.472
46969W        W19295  21.724  40.951   0.852
46970W        W19296   5.401  10.801  14.467
46971W        W19297  26.165  26.640   5.163
46972W        W19298  13.611  32.128   4.602
46973W        W19299  25.036  23.547  12.426
46974W        W19300  21.052  16.798   0.456
46975W        W19301  36.590  40.479  14.867
46976W        W19302  24.148  15.214   3.309
46977W        W19303  12.709  14.188   3.752
46978W        W19304  25.700  34.988   0.941
46979W        W19305  28.041  11.139  10.990
46980W        W19306  32.121  26.675   3.259
46981W        W19307   5.282   9.652  11.931
46982W        W19308  30.575  17.210   0.804
46983W        W19309  26.609  11.283   2.317
46984W        W19310   1.329  20.228  10.927
46985W        W19311  41.908  26.140  13.849
46986W        W19312  27.115  29.139  10.495
46987W        W19313  42.891   1.852   0.300
46988W        W19314  31.530  42.901  13.007
46989W        W19315  32.551   9.394  10.959
46990W        W19316   5.842  24.697  14.500
46991W        W19317   0.905  30.970   1.731
46992W        W19318  29.039  40.352  12.848
46993W        W19319  12.800   8.855  12.980
46994W        W19320   7.703   5.278  14.421
46995W        W19321  22.135  42.885  14.856
46996W        W19322  21.567  14.745   2.744
46997W        W19323  33.624   3.236   1.351
46998W        W19324  29.992  26.072   5.123
46999W        W19325  42.971   6.749  13.489
47000W        W19326   5.225   6.698   4.307
47001W        W19327  36.063  44.348   1.779
47002W        W19328  37.576  36.082   4.330
47003W        W19329   4.881   7.291  12.079
47004W        W19330   1.934  19.202   2.671
47005W        W19331  43.767  16.665   4.810
47006W        W19332  16.188   5.234  11.491
47007W        W19333  26.039  22.020  10.627
47008W        W19334  35.553  40.451   0.793
47009W        W19335   2.761  44.988   1.229
47010W        W19336  35.075  14.821  14.344
47011W        W19337  31.469  28.518   3.361
47012W        W19338   4.909  10.815  11.465
47013W        W19339   3.917  44.850  13.531
47014W        W19340   7.341  43.824   4.825
47015W        W19341  16.107  38.546   1.835
47016W        W19342   1.382  28.965   1.796
47017W        W19343  19.547  13.781   3.317
47018W        W19344  14.620  33.580   1.762
47019W        W19345  42.347  19.571  14.851
47020W        W19346  40.977  12.334   1.356
47021W        W19347   4.836  14.108  14.795
47022W        W19348   5.345  15.170   3.655
47023W        W19349   8.305   6.827  13.308
47024W        W19350  18.263  13.643   1.429
47025W        W19351  42.410  27.643  13.455
47026W        W19352  35.857  35.520   4.209
47027W        W19353  22.048   6.682   4.253
47028W        W19354  34.965   2.825  12.834
47029W        W19355   5.430  12.850  12.511
47030W        W19356  36.902  13.606   2.271
47031W        W19357  38.919  19.573  13.518
47032W        W19358  27.124  27.125  12.562
47033W        W19359   2.238   9.307   3.770
47034W        W19360  26.987  13.322   0.269
47035W        W19361   3.457  41.538   4.624
47036W        W19362  25.607  17.167  11.946
47037W        W19363  26.473  10.850   1.797
47038W        W19364  12.348  37.397  14.384
47039W        W19365  16.173  20.604  11.566
47040W        W19366  14.683  17.568  12.420
47041W        W19367  12.338   1.919   2.782
47042W        W19368  17.155  34.579   3.851
47043W        W19369   2.905  30.639   0.425
47044W        W19370  18.225  11.309   0.739
47045W        W19371  42.361  40.923   2.877
47046W        W19372   4.937  10.703   2.315
47047W        W19373  40.880  25.482  13.015
47048W        W19374   9.158  16.692   0.254
47049W        W19375   1.308  35.026   2.880
47050W        W19376  17.190  40.006   1.732
47051W        W19377   3.352   6.322   1.252
47052W        W19378  22.059   3.266  11.472
47053W        W19379  30.114   5.923  13.027
47054W        W19380  10.147  10.346   4.352
47055W        W19381  25.676  22.657  14.018
47056W        W19382  21.710  36.034  11.997
47057W        W19383  17.786  19.160  13.527
47058W        W19384  33.945   9.816   4.248
47059W        W19385  44.910  25.478  11.442
47060W        W19386   2.331  18.684   3.815
47061W        W19387  10.271  44.375   2.739
47062W        W19388  15.322  23.622  13.417
47063W        W19389   4.750  35.593   3.306
47064W        W19390  17.796  28.048  11.443
47065W        W19391  15.664  13.829  10.946
47066W        W19392   4.302  33.896   2.401
47067W        W19393   2.856  26.968   1.726
47068W        W19394  44.498  41.967  10.018
47069W        W19395   4.416  30.069   2.903
47070W        W19396  32.430  30.579   3.378
47071W        W19397  16.612   0.763   1.269
47072W        W19398  15.625  10.725   3.816
47073W        W19399  19.669  21.694  11.548
47074W        W19400   9.826  24.489   1.859
47075W        W19401  23.707   0.465   3.740
47076W        W19402  40.476  35.966   1.377
47077W        W19403  18.217  42.363  11.455
47078W        W19404  38.997  43.016  13.834
47079W        W19405   5.210  29.059   4.212
47080W        W19406  24.116  38.486  13.973
47081W        W19407  16.567  25.676   3.642
47082W        W19408  31.006  21.084   2.335
47083W        W19409   1.320  33.036  14.426
47084W        W19410  12.631  41.912   3.852
47085W        W19411  43.916  12.764  11.941
47086W        W19412   0.814  13.774  10.565
47087W        W19413  27.533   1.253  13.007
47088W        W19414  22.234  13.254  10.441
47089W        W19415  30.001  43.886   0.829
47090W        W19416  24.572  14.618  10.161
47091W        W19417   9.662  11.830   0.293
47092W        W19418   0.966  17.741   2.217
47093W        W19419  29.570  16.074   4.780
47094W        W19420  20.210  41.373  11.567
47095W        W19421  27.692  16.294   4.245
47096W        W19422   6.188   1.355  10.564
47097W        W19423   5.918  39.824   3.654
47098W        W19424  19.645  19.579  14.387
47099W        W19425  24.596   5.393  14.462
47100W        W19426   5.841   7.850   2.413
47101W        W19427  38.370  17.107   2.704
47102W        W19428  44.431  29.048   3.801
47103W        W19429   8.763   2.732  10.905
47104W        W19430  32.095   8.861  14.282
47105W        W19431  36.478  11.303  13.452
47106W        W19432  40.854   9.878  11.906
47107W        W19433  10.207  17.272  12.906
47108W        W19434  42.427  16.659  12.410
47109W        W19435  16.666  35.852   3.854
47110W        W19436  21.214  38.985   2.249
47111W        W19437  33.075  31.549  13.925
47112W        W19438   3.723   0.331   2.737
47113W        W19439  21.518  17.562   2.287
47114W        W19440  31.147   7.699  14.513
47115W        W19441  41.454  32.476   1.425
47116W        W19442  16.721  42.383  14.490
47117W        W19443  12.332  23.602  14.294
47118W        W19444  12.821  24.536  13.953
47119W        W19445  13.127  43.475  10.613
47120W        W19446  11.674  17.246   3.634
47121W        W19447  39.968  41.511   1.275
47122W        W19448  29.482  41.917  10.455
47123W        W19449   9.236  33.989  10.643
47124W        W19450  35.459   9.291   3.319
47125W        W19451  31.645   2.274  10.612
47126W        W19452  38.827  16.809   4.638
47127W        W19453  30.542  36.579   1.237
47128W        W19454  23.128  25.097  12.088
47129W        W19455   8.348  20.671   2.231
47130W        W19456  24.089  40.978   1.350
47131W        W19457  36.555   5.244  14.912
47132W        W19458  28.057  28.521   0.942
47133W        W19459   8.357  24.571   4.767
47134W        W19460  41.323  25.579  10.965
47135W        W19461  29.924  28.083   1.717
47136W        W19462  11.714  22.516   2.256
47137W        W19463   4.756  43.426  12.387
47138W        W19464  32.523  41.436  12.877
47139W        W19465  17.286  18.208  12.050
47140W        W19466  12.228  20.573   4.624
47141W        W19467  11.152  20.562  10.644
47142W        W19468  10.246  16.793  14.804
47143W        W19469  14.171   0.444   0.732
47144W        W19470  18.266   3.275   4.185
47145W        W19471   0.353  36.079   2.270
47146W        W19472  44.796  39.936  12.994
47147W        W19473  10.717  35.040   1.241
47148W        W19474  12.139  24.629  11.519
47149W        W19475  39.907  12.676  11.578
47150W        W19476  17.244  27.018  11.897
47151W        W19477  38.847  32.614   0.297
47152W        W19478  18.638  22.584   2.383
47153W        W19479  19.636  27.565   2.711
47154W        W19480  35.509  22.217   4.210
47155W        W19481   6.707  21.583  11.612
47156W        W19482   5.348  19.242  13.344
47157W        W19483  28.067  44.838  12.451
47158W        W19484  13.217  39.971  12.844
47159W        W19485  24.116  36.547  14.456
47160W        W19486  13.605  33.577   0.405
47161W        W19487   7.295  41.949   5.107
47162W        W19488  44.757  38.539   1.315
47163W        W19489  14.282  33.485  10.491
47164W        W19490  24.502  43.417  11.981
47165W        W19491  27.589  43.875  14.332
47166W        W19492   6.781   0.745  11.867
47167W        W19493  28.450  36.843   3.182
47168W        W19494  14.211  31.531  10.908
47169W        W19495   3.892  16.794   0.357
47170W        W19496   0.929  28.051   1.363
47171W        W19497  40.889   7.773   0.757
47172W        W19498   9.849  35.479  14.777
47173W        W19499  32.094  20.542  11.373
47174W        W19500  15.597   2.893  10.424
47175W        W19501   4.802   0.385   4.224
47176W        W19502  40.548  19.265   4.710
47177W        W19503  16.611   8.375   2.178
47178W        W19504  18.780   4.225  12.393
47179W        W19505  41.831  26.623   0.811
47180W        W19506  40.355  42.917  14.427
47181W        W19507  44.352  29.665  13.506
47182W        W19508  23.596  24.651   0.729
47183W        W19509  32.485  30.476  14.417
47184W        W19510  15.758  19.098   2.682
47185W        W19511  11.829  36.548  14.959
47186W        W19512   3.815  20.693  10.449
47187W        W19513   2.823  18.121  13.387
47188W        W19514  42.509   6.893  14.992
47189W        W19515  43.319  38.064  10.942
47190W        W19516  14.682  20.615   4.618
47191W        W19517  41.530  16.159  11.985
47192W        W19518  11.735  31.055  13.988
47193W        W19519  28.436   8.319   0.312
47194W        W19520   1.455  10.372   5.625
47195W        W19521  21.054  35.531   0.482
47196W        W19522  36.061  24.567  12.355
47197W        W19523  24.561  31.005  14.427
47198W        W19524  35.399  19.046  11.601
47199W        W19525   0.930  42.881   1.342
47200W        W19526  23.602  42.341  13.909
47201W        W19527  40.014  30.449   1.430
47202W        W19528  31.983   3.415  10.009
47203W        W19529  18.779   1.864  13.866
47204W        W19530  31.443   5.836  12.039
47205W        W19531  21.061  34.083   1.809
47206W        W19532  22.131  30.518   0.377
47207W        W19533   4.719   0.476  10.037
47208W        W19534  22.205  12.716  10.494
47209W        W19535  39.855   2.769   1.428
47210W        W19536  23.209  21.640   0.900
47211W        W19537  24.560  25.521  14.385
47212W        W19538   0.788  44.372  12.434
47213W        W19539  41.816  12.816   3.737
47214W        W19540  28.125   8.276  12.957
47215W        W19541  44.454  40.460   1.398
47216W        W19542  40.006   5.900  14.923
47217W        W19543  36.538   7.398  10.431
47218W        W19544  25.047  18.068   1.834
47219W        W19545   9.235  28.608   4.127
47220W        W19546   4.871  35.372   0.397
47221W        W19547   6.342   6.697  10.905
47222W        W19548  39.366  16.678   2.740
47223W        W19549   9.315  18.196   0.398
47224W        W19550   1.954  33.105   2.826
47225W        W19551  12.298  12.353   2.334
47226W        W19552  23.175  37.503   1.215
47227W        W19553  32.078  43.326  14.886
47228W        W19554  43.770  37.025   1.733
47229W        W19555  40.443   5.821  14.905
47230W        W19556  11.777   8.847   3.651
47231W        W19557  18.098   3.718   1.922
47232W        W19558  29.634  39.036   0.399
47233W        W19559  34.430  44.294   2.372
47234W        W19560   5.369  12.306   3.769
47235W        W19561  12.126  16.756   0.369
47236W        W19562  21.652  37.504  11.110
47237W        W19563  24.083   0.324  10.529
47238W        W19564  35.054  23.566  14.350
47239W        W19565  10.220  32.890  13.986
47240W        W19566   2.751   8.876   1.912
47241W        W19567  42.785  17.762  12.987
47242W        W19568  22.726   6.202   0.470
47243W        W19569  14.205  22.682  13.543
47244W        W19570  21.578  31.531  10.562
47245W        W19571   5.705  43.901  13.506
47246W        W19572   9.372   7.806   2.393
47247W        W19573   5.422  29.018   4.819
47248W        W19574  14.610  34.462  12.906
47249W        W19575  31.065  34.997   4.637
47250W        W19576   9.784   2.799   4.761
47251W        W19577  10.311   3.883  12.844
47252W        W19578  27.529  25.092  10.051
47253W        W19579  27.141  43.019  11.025
47254W        W19580  33.114  30.958  10.573
47255W        W19581  26.161  43.835  13.442
47256W        W19582  11.128  34.110  13.827
47257W        W19583  27.508  36.517  13.340
47258W        W19584  39.900   0.850  13.970
47259W        W19585  23.724  18.597   4.787
47260W        W19586  35.479  39.359   0.960
47261W        W19587  19.748  22.175  11.447
47262W        W19588  29.983  44.870  11.571
47263W        W19589  25.206  44.261  10.558
47264W        W19590  11.740  25.143  14.515
47265W        W19591  31.955  33.496  12.998
47266W        W19592  31.586   5.902   2.205
47267W        W19593  17.617  13.283   4.720
47268W        W19594  43.506  40.867   0.431
47269W        W19595  24.544  24.147   3.762
47270W        W19596  27.128  42.978  11.583
47271W        W19597   6.359  23.652  12.417
47272W        W19598  28.466   3.282  12.840
47273W        W19599  13.137  13.251  12.371
47274W        W19600  11.227  18.652   3.792
47275W        W19601  36.349  29.613   0.396
47276W        W19602  36.975  31.640  13.973
47277W        W19603   5.254  21.565  11.503
47278W        W19604  31.982  38.863  12.349
47279W        W19605  18.089  34.450   1.722
47280W        W19606  30.933  29.034   9.994
47281W        W19607  17.676  37.560   3.858
47282W        W19608  31.443  37.517  10.553
47283W        W19609  20.758  29.619  11.952
47284W        W19610  42.473   3.356   3.763
47285W        W19611  11.367  27.137   4.823
47286W        W19612   9.290   1.743  14.420
47287W        W19613   8.797  22.208  14.404
47288W        W19614   5.302  25.053   3.302
47289W        W19615  24.016   1.241  11.033
47290W        W19616  37.454  29.583   0.245
47291W        W19617   9.264   1.298  10.606
47292W        W19618  18.204  10.875   2.253
47293W        W19619   1.283  34.563   3.257
47294W        W19620   2.817   7.686   1.276
47295W        W19621  37.020  13.663  11.550
47296W        W19622  28.101  15.302  14.404
47297W        W19623  24.161   8.795   1.924
47298W        W19624  25.193  17.108   1.314
47299W        W19625  27.674  40.366   3.693
47300W        W19626  11.355  28.576   0.794
47301W        W19627  29.949  14.141  10.477
47302W        W19628  21.587  40.433  13.816
47303W        W19629  37.385   3.743   3.846
47304W        W19630  23.596   7.212  12.410
47305W        W19631  11.216  26.027   5.610
47306W        W19632  41.819  39.336   2.379
47307W        W19633  41.012   2.364   2.723
47308W        W19634   9.263  26.591  11.120
47309W        W19635  11.150   4.330  11.518
47310W        W19636  42.464  28.043  11.123
47311W        W19637   6.750  16.102  11.430
47312W        W19638  15.160  20.684   3.740
47313W        W19639  31.082  44.973   0.360
47314W        W19640  19.212  42.809   4.150
47315W        W19641  32.995   4.392  13.853
47316W        W19642  27.031  25.074  13.333
47317W        W19643   2.390   4.229  14.389
47318W        W19644  30.990  13.791   0.884
47319W        W19645  40.911  17.716  14.959
47320W        W19646  10.702   9.667  12.011
47321W        W19647  26.148   9.813  11.071
47322W        W19648  22.061  40.485  11.511
47323W        W19649  43.933   5.906  11.915
47324W        W19650  20.553  30.484  13.343
47325W        W19651  19.064  11.157  14.801
47326W        W19652   2.793  12.357   9.945
47327W        W19653  27.670  14.725   1.854
47328W        W19654  21.218  28.119  13.806
47329W        W19655  12.126  30.472   1.413
47330W        W19656  27.570  19.542  11.927
47331W        W19657  12.311  24.486   1.834
47332W        W19658  32.401   6.819   0.440
47333W        W19659  28.972  30.131  10.583
47334W        W19660  31.472  21.645  10.621
47335W        W19661  22.125  23.629  14.451
47336W        W19662  41.399  44.010  12.043
47337W        W19663  28.125  28.675   9.485
47338W        W19664  35.568  14.696  11.476
47339W        W19665   6.415  32.138   3.280
47340W        W19666   9.151  27.527  11.446
47341W        W19667  16.688  41.035   0.392
47342W        W19668   4.417  40.481   2.367
47343W        W19669  22.555  22.541  11.945
47344W        W19670  18.127  12.266   1.900
47345W        W19671  30.508   6.727  10.910
47346W        W19672  33.412  41.467  10.907
47347W        W19673   7.373  27.470   0.727
47348W        W19674  35.083  14.632  10.925
47349W        W19675  19.560  11.766   5.242
47350W        W19676  42.917  37.467  12.483
47351W        W19677  33.602  13.111   2.360
47352W        W19678   8.669  40.470  11.858
47353W        W19679  39.533  39.878  11.568
47354W        W19680   1.798  42.387   1.894
47355W        W19681  44.851  43.375  14.834
47356W        W19682  33.504  14.825   0.750
47357W        W19683   1.366  22.043   3.313
47358W        W19684   2.800  21.708   3.635
47359W        W19685   1.922   0.297   1.934
47360W        W19686  22.996  24.201  12.051
47361W        W19687  42.339  26.184   4.150
47362W        W19688  34.430  17.179  14.000
47363W        W19689  43.855   9.861   2.227
47364W        W19690   9.372  40.394   1.328
47365W        W19691  31.000   1.773   0.461
47366W        W19692   4.928  38.521   1.734
47367W        W19693  30.067  43.389  12.004
47368W        W19694  29.144  42.295   2.753
47369W        W19695  38.948  24.226  11.894
47370W        W19696   9.757  43.972   1.897
47371W        W19697  37.434  33.008  13.984
47372W        W19698  24.663  16.268   3.269
47373W        W19699  24.703  21.720  12.064
47374W        W19700  16.264  27.983  12.517
47375W        W19701  27.601  12.693  14.020
47376W        W19702  43.773  33.465   3.741
47377W        W19703  17.593  11.251  14.354
47378W        W19704  42.791  35.025   4.686
47379W        W19705  30.465  14.133   4.165
47380W        W19706  34.397  42.022  14.497
47381W        W19707  42.473  39.040  13.917
47382W        W19708  38.967  42.030   3.679
47383W        W19709  39.522  19.715   0.838
47384W        W19710  34.866  21.183   4.264
47385W        W19711   1.973  29.461   2.271
47386W        W19712   2.389  34.464   1.923
47387W        W19713  11.757  18.242   2.844
47388W        W19714  14.594   9.191   4.647
47389W        W19715  44.341   7.260   4.830
47390W        W19716  24.005   2.409   4.132
47391W        W19717  14.193   0.938   2.203
47392W        W19718  10.672  13.627  10.916
47393W        W19719  41.026  35.379   2.378
47394W        W19720  19.135  41.462   3.280
47395W        W19721   5.212  36.462   4.240
47396W        W19722  37.005  24.187   0.271
47397W        W19723   6.731   3.440  12.969
47398W        W19724   7.341  20.134  14.459
47399W        W19725  35.883  40.361   5.171
47400W        W19726   4.896  16.210   1.809
47401W        W19727  28.495  16.719   2.847
47402W        W19728  44.304  27.582  13.044
47403W        W19729  17.584   1.371  10.917
47404W        W19730  25.668  42.490   0.895
47405W        W19731  37.898  29.053  13.353
47406W        W19732  25.034  31.972  14.880
47407W        W19733  27.986  35.049  10.616
47408W        W19734  40.540  33.963  11.865
47409W        W19735  17.180   7.856   4.729
47410W        W19736  17.684  43.949   2.709
47411W        W19737   1.320  22.087  13.419
47412W        W19738  28.068  23.116  14.483
47413W        W19739  33.036   0.433   1.403
47414W        W19740  38.498   9.233  13.880
47415W        W19741  40.432  36.925   0.390
47416W        W19742  34.578  42.943  10.492
47417W        W19743  42.824  13.175  12.836
47418W        W19744  25.043  10.215   0.936
47419W        W19745  21.244  20.665  14.459
47420W        W19746  18.618  37.380   3.340
47421W        W19747  44.905  32.391   1.357
47422W        W19748  43.354   3.270  13.461
47423W        W19749   2.911  37.372   3.705
47424W        W19750  38.841  44.949  12.033
47425W        W19751  34.516  29.103   0.455
47426W        W19752  16.218  40.832   2.737
47427W        W19753  27.463   1.345  10.921
47428W        W19754   5.401  21.714   1.850
47429W        W19755  38.872   8.225  12.341
47430W        W19756  18.670   9.355  14.960
47431W        W19757  20.069   7.883   0.296
47432W        W19758   6.684  26.995   4.693
47433W        W19759  28.487  34.556   4.130
47434W        W19760   1.957  30.459  12.389
47435W        W19761   9.647   0.254  12.825
47436W        W19762  31.031  35.917   4.612
47437W        W19763  44.998  18.144   2.735
47438W        W19764  43.420  44.876   1.360
47439W        W19765   8.161   1.269  11.411
47440W        W19766  21.112  24.540   3.789
47441W        W19767   0.794  23.615  11.483
47442W        W19768  40.889  30.658  14.957
47443W        W19769  38.869  19.090  12.353
47444W        W19770  29.932  34.060  14.301
47445W        W19771  33.616  33.557   2.295
47446W        W19772  20.711  14.336  12.541
47447W        W19773  40.924   1.838   4.225
47448W        W19774   7.792  37.560  12.464
47449W        W19775  16.752   5.784  10.488
47450W        W19776  44.378  18.650   3.285
47451W        W19777  15.801  44.499   3.206
47452W        W19778  21.633  17.675   3.353
47453W        W19779   7.240  21.019   3.823
47454W        W19780  25.010   9.179   3.716
47455W        W19781  21.202  27.651  11.936
47456W        W19782  33.438  39.812   4.765
47457W        W19783  13.685  35.568  13.801
47458W        W19784  16.767  19.047  14.849
47459W        W19785  15.678  29.941   1.856
47460W        W19786  20.145  42.991   3.830
47461W        W19787  30.430  30.121   3.819
47462W        W19788   0.393  41.973   0.759
47463W        W19789  40.315  13.719   4.221
47464W        W19790  32.902  37.529   3.732
47465W        W19791  20.742   7.411   1.411
47466W        W19792  40.883  22.712   0.250
47467W        W19793  15.793  44.941  14.320
47468W        W19794  12.803  15.298   3.736
47469W        W19795  10.778  17.799  12.569
47470W        W19796  40.476  38.971   3.644
47471W        W19797  15.169  11.201   1.694
47472W        W19798  27.608  24.004  13.404
47473W        W19799  29.586   4.717  10.962
47474W        W19800  35.865  34.920  11.404
47475W        W19801  19.217   5.741  11.898
47476W        W19802  44.398  20.742   1.442
47477W        W19803   3.303  30.908   4.253
47478W        W19804  26.632  28.477   2.232
47479W        W19805  38.951   4.846  10.599
47480W        W19806   8.396  24.622   3.837
47481W        W19807  34.501  26.181   0.357
47482W        W19808  36.528  31.464   4.147
47483W        W19809  10.320  20.169  11.914
47484W        W19810  44.845  25.168   4.717
47485W        W19811  11.140   9.690   4.637
47486W        W19812  26.978  29.599   4.163
47487W        W19813   7.304  13.840   1.282
47488W        W19814  37.339  27.561  11.427
47489W        W19815  43.020  27.636   1.370
47490W        W19816   8.716  36.924   1.784
47491W        W19817  16.735  33.055   0.938
47492W        W19818  29.099  25.202   2.739
47493W        W19819  14.792  10.756  14.402
47494W        W19820  13.268   5.785  10.892
47495W        W19821  11.783  15.224  14.839
47496W        W19822  13.149   7.851   4.611
47497W        W19823   1.734  19.155   3.830
47498W        W19824  13.600  19.566  10.568
47499W        W19825   9.647  26.994   3.153
47500W        W19826  38.865  38.987  13.355
47501W        W19827  17.668   6.812  11.406
47502W        W19828   2.390  14.263  10.890
47503W        W19829  16.687  17.222  14.999
47504W        W19830  42.409  13.777  12.900
47505W        W19831  18.723  31.921  12.507
47506W        W19832   3.804   7.203   5.288
47507W        W19833  17.686  35.087   2.203
47508W        W19834  19.568   0.828  13.951
47509W        W19835   6.372  41.939   1.801
47510W        W19836  14.161   2.248  14.491
47511W        W19837  21.621  25.594  12.829
47512W        W19838  15.717  33.538  12.858
47513W        W19839  43.860  41.915  11.965
47514W        W19840  23.025   7.312   2.764
47515W        W19841  43.825  16.597  12.352
47516W        W19842  32.598  43.955   4.353
47517W        W19843  37.976  36.857  12.372
47518W        W19844   1.931  30.516   3.656
47519W        W19845  39.011  20.217   3.697
47520W        W19846   9.803  23.583   4.353
47521W        W19847  15.233   7.757  14.972
47522W        W19848  25.149  43.288  12.017
47523W        W19849   2.848   0.432   1.816
47524W        W19850  43.836  11.165  11.083
47525W        W19851  17.086  33.925  12.886
47526W        W19852  35.551  34.921   1.767
47527W        W19853  42.840  23.639   0.363
47528W        W19854  31.614  41.977   1.227
47529W        W19855   0.856  40.494   1.392
47530W        W19856  21.747  12.179   3.726
47531W        W19857  42.795  21.543   0.252
47532W        W19858  23.155  40.527   2.679
47533W        W19859  33.114  10.724  10.939
47534W        W19860  18.211   5.689  13.464
47535W        W19861  17.738  40.453  14.786
47536W        W19862  35.365  33.874   1.814
47537W        W19863  34.545  28.020   0.420
47538W        W19864  15.673   0.788   1.864
47539W        W19865  15.237   0.837  14.770
47540W        W19866   8.655  23.542  10.563
47541W        W19867  31.008  27.609   2.292
47542W        W19868  34.866   4.292   3.203
47543W        W19869   1.854   3.912   1.805
47544W        W19870  42.914  42.922  14.302
47545W        W19871  31.031   3.241  12.864
47546W        W19872  18.750   0.466   3.755
47547W        W19873  15.318  42.867  12.966
47548W        W19874  40.013  15.639  12.431
47549W        W19875  21.058  12.827   4.660
47550W        W19876  29.929   7.778  13.415
47551W        W19877   7.799  34.013   1.348
47552W        W19878  42.976  34.539   1.867
47553W        W19879  35.482  19.686   2.242
47554W        W19880   2.270  43.871  14.933
47555W        W19881  21.111  30.114   3.834
47556W        W19882  14.635   5.378  14.778
47557W        W19883  36.064   1.400   2.662
47558W        W19884  17.750  36.926  12.937
47559W        W19885  38.436  12.284  10.131
47560W        W19886  11.854  22.095  14.504
47561W        W19887  16.581  28.037  14.973
47562W        W19888   1.279   8.351  10.568
47563W        W19889  34.986  21.219   3.216
47564W        W19890  10.835  40.009  10.895
47565W        W19891   4.928  34.378  12.003
47566W        W19892  25.201  28.171   2.810
47567W        W19893  26.181  36.480   1.891
47568W        W19894   8.235   9.770   3.226
47569W        W19895  22.745  44.425   2.187
47570W        W19896  19.630  42.325   3.295
47571W        W19897  41.789  27.158   1.270
47572W        W19898   6.239   0.848   1.831
47573W        W19899  15.622  13.731   0.793
47574W        W19900   5.400  40.890  11.539
47575W        W19901  43.286  35.012   3.649
47576W        W19902  39.535  20.712  11.119
47577W        W19903  14.294  23.230  13.516
47578W        W19904  23.159  43.903  14.003
47579W        W19905  36.941   3.788  11.921
47580W        W19906  41.402  16.196   0.475
47581W        W19907  19.612  11.862   0.447
47582W        W19908   9.318  33.467   1.887
47583W        W19909  38.902   7.824  14.877
47584W        W19910  43.972  22.238  14.970
47585W        W19911  27.668  20.762   1.715
47586W        W19912  24.164  39.541   5.757
47587W        W19913  18.054  40.397   0.424
47588W        W19914   0.922  34.555  10.154
47589W        W19915  12.772  18.680   2.323
47590W        W19916  41.847  13.718  12.992
47591W        W19917  31.077  41.313  10.549
47592W        W19918  34.960   8.896   3.194
47593W        W19919  18.288  39.030  10.454
47594W        W19920  25.663  39.961  14.840
47595W        W19921   8.784  30.541  13.401
47596W        W19922  17.763  30.033   2.775
47597W        W19923  39.060  34.117   0.919
47598W        W19924  13.701  31.500   1.362
47599W        W19925   3.853  25.633  14.318
47600W        W19926   5.281   6.833   2.396
47601W        W19927   0.987  10.157   2.675
47602W        W19928  37.921  30.623  11.571
47603W        W19929  14.742  12.746   0.392
47604W        W19930  11.150  37.940   2.325
47605W        W19931  44.909  44.787   1.812
47606W        W19932   1.860  22.178   4.275
47607W        W19933  39.359  35.462  12.524
47608W        W19934   5.225   8.203  12.960
47609W        W19935  23.500  36.889   3.186
47610W        W19936   1.424  32.095  11.925
47611W        W19937  32.098  37.386  10.519
47612W        W19938  14.709   8.867  13.452
47613W        W19939  20.202  11.314  12.385
47614W        W19940  14.613  30.007   1.290
47615W        W19941  34.426  39.369  14.489
47616W        W19942  26.572   0.929  13.920
47617W        W19943  17.117  13.817  12.958
47618W        W19944  11.188  16.728  10.573
47619W        W19945  35.422  44.309   1.884
47620W        W19946  25.585   5.804   1.242
47621W        W19947  18.551  28.648   1.882
47622W        W19948  28.971   0.828   4.163
47623W        W19949  18.155   2.394   1.233
47624W        W19950  39.875  20.051  11.545
47625W        W19951  42.488   2.433  12.444
47626W        W19952  13.306  39.421  14.832
47627W        W19953   8.360  13.648   2.840
47628W        W19954   4.258  40.405   1.768
47629W        W19955  13.745   3.375  11.921
47630W        W19956   1.322  13.179  13.969
47631W        W19957  32.614  39.507  13.494
47632W        W19958  31.129  17.094   3.776
47633W        W19959  35.858  43.939   3.222
47634W        W19960  37.546  38.545  12.092
47635W        W19961  12.189  10.825   3.318
47636W        W19962  38.075  22.509  14.968
47637W        W19963  44.996   8.323  10.444
47638W        W19964  25.990  21.218   2.400
47639W        W19965   5.839  33.535  13.904
47640W        W19966  24.622  24.065  10.964
47641W        W19967  20.759  31.036   1.332
47642W        W19968  40.967  12.299  13.811
47643W        W19969   2.264  11.787  11.453
47644W        W19970   0.912   2.875   3.706
47645W        W19971  41.439  26.188   0.444
47646W        W19972  20.581  34.529   4.736
47647W        W19973  28.010  42.335   4.183
47648W        W19974  42.835  35.988  13.045
47649W        W19975  34.488   4.399   4.661
47650W        W19976  39.829  10.208   0.928
47651W        W19977  13.625   0.330  10.421
47652W        W19978  32.469  37.040   3.861
47653W        W19979   0.450  41.507  14.313
47654W        W19980  37.031   4.426   1.233
47655W        W19981  38.336  13.295  10.511
47656W        W19982  29.590   4.809   5.160
47657W        W19983  11.655  28.531   4.174
47658W        W19984  14.218  16.619  11.453
47659W        W19985  35.386  31.620   3.860
47660W        W19986   3.380  42.501   2.330
47661W        W19987  40.470   2.464   1.869
47662W        W19988  19.754  20.065  13.367
47663W        W19989   6.784  23.097  14.801
47664W        W19990  16.280  35.852  11.052
47665W        W19991  31.936   6.386   2.879
47666W        W19992   6.871   3.864  10.947
47667W        W19993   7.172   1.767   1.877
47668W        W19994  36.046  20.061   3.355
47669W        W19995  16.615  30.475   3.205
47670W        W19996   0.373  11.221   3.320
47671W        W19997  16.250  35.089   2.330
47672W        W19998  32.505   4.290   0.440
47673W        W19999  29.638  27.484   1.254
47674W        W20000  28.955  19.618  13.029
47675W        W20001  42.011  10.326   4.256
47676W        W20002   4.442  40.949  14.438
47677W        W20003  27.617  24.112   1.884
47678W        W20004  22.509   4.768   3.221
47679W        W20005   7.265  44.875   4.192
47680W        W20006  23.559  18.639   3.375
47681W        W20007  24.993  20.225   5.135
47682W        W20008  19.231   7.774   4.740
47683W        W20009  14.297   0.439   0.342
47684W        W20010  41.017  30.552   0.430
47685W        W20011  25.694  22.547   5.276
47686W        W20012  14.278  34.440   0.869
47687W        W20013  38.838   1.947  11.064
47688W        W20014  28.636   9.827  10.921
47689W        W20015  13.298  40.002   9.972
47690W        W20016   6.326   9.262  12.349
47691W        W20017  19.577   4.297   3.263
47692W        W20018  41.492  44.860   3.849
47693W        W20019   7.682  21.739   4.817
47694W        W20020  42.914  32.124  10.410
47695W        W20021   5.850  21.624  10.467
47696W        W20022   6.268   8.871  12.952
47697W        W20023  37.920   1.385   1.372
47698W        W20024  17.616  32.046   4.825
47699W        W20025  41.877  43.900   2.180
47700W        W20026   2.942  29.039   2.271
47701W        W20027  34.885  10.747   4.807
47702W        W20028  43.290  17.224   0.423
47703W        W20029  24.497  32.020   3.185
47704W        W20030  37.519   4.903   3.665
47705W        W20031  13.619   6.393   2.264
47706W        W20032  31.107  32.508   1.771
47707W        W20033  31.976  22.140  13.482
47708W        W20034  17.577  14.711   2.289
47709W        W20035  10.795   6.400   2.350
47710W        W20036  16.127   0.945  10.915
47711W        W20037   6.711  27.672  11.009
47712W        W20038  17.294   1.394   4.353
47713W        W20039  15.666  41.820  12.893
47714W        W20040   8.883  24.100   1.219
47715W        W20041  14.105  17.246  13.380
47716W        W20042  17.784   9.835  13.358
47717W        W20043  21.120  29.999   2.244
47718W        W20044   5.259  25.160  13.428
47719W        W20045  20.267  21.044  12.932
47720W        W20046  18.223   0.867  13.419
47721W        W20047  14.101  16.583   0.856
47722W        W20048  33.450   6.306   2.779
47723W        W20049  42.870  19.076  13.801
47724W        W20050  34.547  19.585   3.844
47725W        W20051   9.671  22.598  14.457
47726W        W20052  41.401  10.715  12.550
47727W        W20053   3.371  13.842  14.026
47728W        W20054  19.153   1.451  11.970
47729W        W20055   4.284  35.545  12.496
47730W        W20056   0.968  20.614  14.000
47731W        W20057  24.585  31.959   3.700
47732W        W20058  29.596  12.802   4.237
47733W        W20059  35.912  14.174  10.994
47734W        W20060  20.603  23.239   0.296
47735W        W20061  30.595  18.265  11.518
47736W        W20062  36.983  18.160  13.344
47737W        W20063  34.039  20.647   0.393
47738W        W20064  23.575  24.977  11.098
47739W        W20065  21.582  42.331  14.017
47740W        W20066   8.882   8.378  13.455
47741W        W20067  13.641  41.430  10.488
47742W        W20068  32.602  22.073  14.794
47743W        W20069  14.188   0.834  12.024
47744W        W20070  33.455   9.182   3.258
47745W        W20071  28.024   7.897   2.306
47746W        W20072  26.476  25.027  10.975
47747W        W20073  34.441   6.879  13.354
47748W        W20074  27.622  32.536  12.405
47749W        W20075  14.778  39.850   1.381
47750W        W20076   5.266  37.932  13.940
47751W        W20077  13.604  20.626  13.391
47752W        W20078  18.650  12.149   2.875
47753W        W20079  37.560  19.120  12.527
47754W        W20080  26.527  15.086  12.502
47755W        W20081  44.768  33.001   4.210
47756W        W20082  28.584  28.944   3.318
47757W        W20083  34.906  15.190  14.457
47758W        W20084   2.791   1.463   0.441
47759W        W20085  10.664  16.141  11.612
47760W        W20086  20.215   6.839  13.031
47761W        W20087  24.714   1.768   3.197
47762W        W20088  26.582  24.503  13.803
47763W        W20089   1.731  13.684   3.824
47764W        W20090  28.142  11.203  14.446
47765W        W20091  23.563  38.359  12.349
47766W        W20092  36.902   0.882   0.759
47767W        W20093  30.019  33.122  12.860
47768W        W20094  41.447  38.554   1.906
47769W        W20095  16.305  40.478  13.930
47770W        W20096  16.798  11.767  12.538
47771W        W20097  17.581  27.107  11.915
47772W        W20098  33.051  11.740  11.095
47773W        W20099  37.839  28.527   3.315
47774W        W20100  30.490  37.486  14.281
47775W        W20101  22.052  24.720  12.865
47776W        W20102  19.642  18.183   1.709
47777W        W20103   5.747   1.904  11.554
47778W        W20104  23.516  31.499   1.283
47779W        W20105  20.170  31.536  13.486
47780W        W20106  15.143  12.759   3.365
47781W        W20107  38.329  35.967   1.754
47782W        W20108   1.912  29.454  13.464
47783W        W20109   5.373  15.263   1.359
47784W        W20110   6.365  41.521   2.705
47785W        W20111   6.892  36.485  14.490
47786W        W20112  13.185  25.160  11.104
47787W        W20113  24.668  20.232  11.049
47788W        W20114  33.069   6.876   3.779
47789W        W20115   6.337  28.965  14.834
47790W        W20116  12.754   8.707   0.923
47791W        W20117  24.165  22.567   2.799
47792W        W20118   3.945  20.062   2.839
47793W        W20119  13.754  12.244  14.878
47794W        W20120   5.885  36.412   4.665
47795W        W20121  21.687  38.011  12.496
47796W        W20122  15.226  19.689  13.918
47797W        W20123  38.879   6.768   1.846
47798W        W20124  30.504  44.986  13.015
47799W        W20125  28.497  21.033   1.409
47800W        W20126  10.327   4.703  14.016
47801W        W20127   9.767   0.940  13.389
47802W        W20128   8.405  31.947   4.328
47803W        W20129   8.764  38.513  11.450
47804W        W20130  44.808  32.445  13.872
47805W        W20131  29.549  36.996   2.220
47806W        W20132  21.608  30.644  10.512
47807W        W20133  44.270  35.080  11.576
47808W        W20134  20.223  30.970   0.300
47809W        W20135  37.021  34.962   0.923
47810W        W20136  13.841  22.580  10.621
47811W        W20137  14.229  38.975  11.025
47812W        W20138   9.266  14.269  11.054
47813W        W20139  25.095  12.160  11.572
47814W        W20140   1.366  43.988  12.488
47815W        W20141  14.700  37.884   1.843
47816W        W20142  13.632  30.486   0.277
47817W        W20143   9.802  22.058   4.719
47818W        W20144  30.608  41.435   3.216
47819W        W20145  37.967  43.895   1.343
47820W        W20146  27.989  14.634  10.435
47821W        W20147   8.768   6.308   2.793
47822W        W20148   5.802  21.603  11.467
47823W        W20149  30.541  13.194   4.673
47824W        W20150  34.580  36.046   9.448
47825W        W20151  23.109  22.602  11.021
47826W        W20152  25.516  21.259  13.961
47827W        W20153  23.493  25.498  12.075
47828W        W20154  18.683  19.712   0.773
47829W        W20155  44.278  22.025  10.031
47830W        W20156  27.632  22.011  10.946
47831W        W20157  31.140   4.916  11.428
47832W        W20158  16.126  14.161   2.693
47833W        W20159  24.479  22.168  13.349
47834W        W20160  40.339   5.258   0.845
47835W        W20161  44.983  28.590  14.831
47836W        W20162  41.508  20.076   4.717
47837W        W20163  39.419  25.996   2.331
47838W        W20164  16.203  11.367   0.455
47839W        W20165  13.706  25.705   2.887
47840W        W20166  15.741  35.551  11.419
47841W        W20167  18.672  32.975   4.227
47842W        W20168   8.163  43.411   2.361
47843W        W20169  20.724  12.256  13.958
47844W        W20170   1.443  34.439  12.855
47845W        W20171  40.808   7.216   2.341
47846W        W20172  28.061  29.139   2.883
47847W        W20173  14.718  18.744   2.743
47848W        W20174  44.325  27.955   3.332
47849W        W20175   7.391  40.893   3.312
47850W        W20176  18.180  27.625   3.827
47851W        W20177  43.489  27.078  11.109
47852W        W20178  16.175  43.867  10.507
47853W        W20179  26.188  24.506  14.867
47854W        W20180   7.891  14.256  13.497
47855W        W20181  42.827  24.148  10.605
47856W        W20182  25.085  38.366   3.220
47857W        W20183  23.512  43.486   1.420
47858W        W20184   2.324  16.082   4.837
47859W        W20185  19.771   4.448  10.927
47860W        W20186  15.577  44.336   2.320
47861W        W20187  38.540  31.944  10.521
47862W        W20188  42.425  42.922   3.670
47863W        W20189  31.981  32.054  13.489
47864W        W20190  24.147   3.244   0.277
47865W        W20191  43.905   5.336  12.496
47866W        W20192  24.484   6.376   1.872
47867W        W20193  12.241  32.016  13.977
47868W        W20194  33.006  40.874   4.148
47869W        W20195   6.322  39.534   2.832
47870W        W20196  18.762  34.388  14.981
47871W        W20197  37.059  13.112  14.331
47872W        W20198  16.139  33.983   1.296
47873W        W20199  17.183  34.589  14.007
47874W        W20200  35.049   0.746   0.309
47875W        W20201  10.691   1.471  13.920
47876W        W20202  16.244  19.726   1.264
47877W        W20203  35.569  39.908  13.856
47878W        W20204  40.906  31.435   1.802
47879W        W20205  22.574   2.804   1.794
47880W        W20206  15.167   6.784   3.825
47881W        W20207  22.578  36.552   1.364
47882W        W20208  37.080  15.787   1.283
47883W        W20209  37.086  15.167   0.420
47884W        W20210  11.337  17.574   4.227
47885W        W20211  17.222   1.837   2.698
47886W        W20212  19.693   2.264  10.919
47887W        W20213   0.855  42.415   4.244
47888W        W20214  43.423  13.173   4.688
47889W        W20215  36.414  41.401   1.382
47890W        W20216  21.249  16.668  10.979
47891W        W20217  12.683  26.010  14.356
47892W        W20218  15.734  42.467   0.786
47893W        W20219  28.533  13.843  12.427
47894W        W20220  39.394  39.508   0.777
47895W        W20221  10.690  16.186  13.340
47896W        W20222  43.792  28.537  11.475
47897W        W20223   0.424  36.919  11.073
47898W        W20224  21.198  26.490  10.976
47899W        W20225   8.781   4.412   4.783
47900W        W20226   7.715   5.877   2.268
47901W        W20227  32.502   4.837  14.849
47902W        W20228   2.774   7.254  12.449
47903W        W20229  37.895  30.558  13.966
47904W        W20230   6.328  22.089   1.748
47905W        W20231  34.610  35.968  14.373
47906W        W20232   8.377  40.499   2.344
47907W        W20233   7.853  31.474   4.330
47908W        W20234  23.152   3.761   3.335
47909W        W20235  38.325  24.102   4.289
47910W        W20236  44.274  31.127   1.781
47911W        W20237  11.330  13.647  14.377
47912W        W20238  27.096  21.076   0.419
47913W        W20239  42.328   2.864   2.292
47914W        W20240  35.492  31.086  10.504
47915W        W20241   1.409  13.261   2.685
47916W        W20242   3.270   1.957   2.245
47917W        W20243   6.835  14.271  12.097
47918W        W20244  39.355  44.287   0.371
47919W        W20245   8.852  28.608   4.125
47920W        W20246   9.370  16.791  10.998
47921W        W20247  30.538  31.966   1.805
47922W        W20248  16.592  29.174   1.932
47923W        W20249  42.337  23.628  13.882
47924W        W20250  37.581  25.585   0.742
47925W        W20251   6.351  35.942   4.743
47926W        W20252  21.541  13.672   3.213
47927W        W20253  43.384   4.929   4.791
47928W        W20254  27.578  16.264   2.678
47929W        W20255   4.272   0.987  11.579
47930W        W20256  17.711  21.110   3.382
47931W        W20257  25.025   7.414  11.905
47932W        W20258   0.346  19.589  12.899
47933W        W20259  34.964  26.646   4.607
47934W        W20260  30.139  29.992  12.891
47935W        W20261  34.456   2.789  10.404
47936W        W20262  30.572   0.808  13.539
47937W        W20263  41.797  34.600   0.431
47938W        W20264  24.022  31.552   0.431
47939W        W20265  12.805  41.417  13.037
47940W        W20266   5.310  22.007  12.400
47941W        W20267  25.699  36.038   0.314
47942W        W20268  41.471  10.370   4.266
47943W        W20269   3.295  44.471   3.798
47944W        W20270  17.229   9.883   2.794
47945W        W20271  41.388  34.035  10.910
47946W        W20272  43.853  13.795  13.968
47947W        W20273  38.345  39.491   0.801
47948W        W20274   2.227   2.304  12.375
47949W        W20275  17.801  20.131   1.375
47950W        W20276  25.467  20.131  10.586
47951W        W20277  20.090  23.538  13.002
47952W        W20278  29.440  44.491  14.982
47953W        W20279  20.710  19.758   3.654
47954W        W20280  21.638  27.100   0.329
47955W        W20281  25.708  29.161   3.808
47956W        W20282  42.861  39.959   4.328
47957W        W20283  26.611  22.671   2.193
47958W        W20284  39.062   7.205  14.483
47959W        W20285  29.987  33.496  12.903
47960W        W20286  13.773  10.763   3.211
47961W        W20287  25.538   5.819   1.793
47962W        W20288  13.338  14.778   3.300
47963W        W20289  16.129   7.249  10.496
47964W        W20290  18.136  14.181  13.055
47965W        W20291  30.534  36.870  13.995
47966W        W20292  24.563   3.352   1.282
47967W        W20293   8.207   6.394   2.401
47968W        W20294  23.158  41.837  11.860
47969W        W20295  13.774  44.011  11.937
47970W        W20296  22.531  40.515   1.722
47971W        W20297  38.953  32.040  13.898
47972W        W20298   1.301  38.003  11.507
47973W        W20299   1.389  44.782   4.203
47974W        W20300  42.935  24.597  13.915
47975W        W20301   4.704   6.684   0.323
47976W        W20302  29.958  36.554  14.911
47977W        W20303  14.213  19.580   1.214
47978W        W20304  18.756   2.445   4.684
47979W        W20305  16.640   2.422  11.590
47980W        W20306  40.855  24.154  10.975
47981W        W20307  28.936  30.646   4.138
47982W        W20308  10.733  26.698   4.181
47983W        W20309  21.118  25.043   0.266
47984W        W20310  30.987  24.610   4.137
47985W        W20311  34.501  17.217  10.422
47986W        W20312  28.078   5.229  12.946
47987W        W20313  17.126  39.933  11.423
47988W        W20314   5.403  20.608   4.341
47989W        W20315   6.818  32.920  13.481
47990W        W20316   3.831   3.923  12.559
47991W        W20317  38.375  34.071   4.817
47992W        W20318  43.360  39.496  11.863
47993W        W20319   0.839  20.203   0.843
47994W        W20320  40.985  13.809   1.223
47995W        W20321  21.209  37.973  14.997
47996W        W20322  35.445  36.522   2.886
47997W        W20323  41.471   2.372  14.777
47998W        W20324   0.774  22.731   3.771
47999W        W20325  33.948  29.099   0.432
48000W        W20326  14.766  44.478   1.313
48001W        W20327  11.670   5.810  10.053
48002W        W20328   4.210  33.974  13.985
48003W        W20329  18.289  26.200  11.381
48004W        W20330  37.535  36.001  12.432
48005W        W20331  22.688  39.930  14.769
48006W        W20332  35.904  43.340  11.118
48007W        W20333   0.428  18.603   2.839
48008W        W20334  44.789  35.358   1.366
48009W        W20335  18.204  11.239   2.408
48010W        W20336  42.918  18.644  12.351
48011W        W20337  11.238  38.028   0.755
48012W        W20338  29.657  44.396   2.799
48013W        W20339  42.896  18.071  11.875
48014W        W20340  42.868  24.595  13.538
48015W        W20341  15.719   5.797   3.155
48016W        W20342  34.398  22.566  13.507
48017W        W20343  36.997  23.148  12.083
48018W        W20344  26.097  17.598  14.424
48019W        W20345  40.325   7.371   1.403
48020W        W20346  11.230  10.350   4.698
48021W        W20347  39.409  25.599   4.264
48022W        W20348  19.073  11.258   4.823
48023W        W20349  32.023  27.508   3.332
48024W        W20350  17.138  38.460  13.968
48025W        W20351   5.199   9.823   1.287
48026W        W20352  26.130  36.002   3.650
48027W        W20353  37.006  30.021   3.698
48028W        W20354   7.383  28.486  10.973
48029W        W20355  21.525  28.597  11.522
48030W        W20356   2.270   4.446   5.685
48031W        W20357  26.074  10.699  11.118
48032W        W20358  44.852  12.237   1.431
48033W        W20359  31.094  29.475  11.553
48034W        W20360  18.566  25.967  10.514
48035W        W20361   0.975   9.836   1.356
48036W        W20362  38.902  18.622   1.245
48037W        W20363   4.920  37.579  10.925
48038W        W20364  27.030  36.841   4.191
48039W        W20365  26.590   0.895  13.034
48040W        W20366  44.385  10.290  14.817
48041W        W20367  14.621  16.741   4.295
48042W        W20368  13.749  42.929  11.395
48043W        W20369  40.438  22.729   1.772
48044W        W20370  31.125   3.451   3.702
48045W        W20371  11.297  24.609   4.613
48046W        W20372  40.492  11.777   3.179
48047W        W20373   8.189  29.604  13.503
48048W        W20374  32.010  32.094   5.137
48049W        W20375  10.326  23.577   2.736
48050W        W20376   7.402  42.822   3.382
48051W        W20377   1.947  12.355   1.895
48052W        W20378   0.483  42.869   4.258
48053W        W20379  39.451  30.140  13.978
48054W        W20380   7.858  20.158  12.909
48055W        W20381   4.866  40.476   3.765
48056W        W20382  18.657   2.307  12.986
48057W        W20383  12.754  25.019  13.475
48058W        W20384  26.136  26.540  12.928
48059W        W20385  35.388  37.396   4.710
48060W        W20386  13.792  24.686   0.457
48061W        W20387  11.709  16.167   1.251
48062W        W20388  44.967   1.767   5.281
48063W        W20389  40.543  16.736  14.864
48064W        W20390  31.524  36.346   4.346
48065W        W20391   4.914  29.151  11.577
48066W        W20392   9.718  23.239  14.814
48067W        W20393  37.491  33.050  14.417
48068W        W20394  26.047  19.096  10.568
48069W        W20395  15.670  25.209  14.512
48070W        W20396  43.451  24.193   0.794
48071W        W20397   3.461  34.505  13.860
48072W        W20398  33.563   5.370   0.729
48073W        W20399  35.475   6.349  12.826
48074W        W20400  15.317  24.075  10.404
48075W        W20401  35.929  29.123  10.975
48076W        W20402  10.855  10.756  12.577
48077W        W20403  36.052  42.479  13.307
48078W        W20404   5.792  41.851  10.618
48079W        W20405  32.536  39.967  13.421
48080W        W20406  28.087  27.567  14.442
48081W        W20407   6.240  21.603  12.005
48082W        W20408  18.700  42.852   0.454
48083W        W20409  29.001  29.962  14.795
48084W        W20410   4.784   4.717   4.698
48085W        W20411  14.702  21.237   3.323
48086W        W20412   2.903  31.080  11.954
48087W        W20413  34.913  38.834  14.513
48088W        W20414  36.869  36.942   4.823
48089W        W20415  24.553  38.054   5.779
48090W        W20416   6.897   5.427  10.472
48091W        W20417  20.651   6.727   3.210
48092W        W20418  24.600   1.875  14.834
48093W        W20419  16.077  17.682   1.363
48094W        W20420  42.405  16.073  11.117
48095W        W20421  33.453  17.758  13.866
48096W        W20422   5.758  33.008  12.361
48097W        W20423  36.428  20.652   1.404
48098W        W20424  16.810  12.205   2.738
48099W        W20425  18.290  34.106  14.456
48100W        W20426  23.104  25.656   1.738
48101W        W20427  17.113  38.959   3.677
48102W        W20428   3.734   8.279  14.481
48103W        W20429   5.431  27.645   3.307
48104W        W20430   7.347  19.078  12.965
48105W        W20431  25.537  38.448  11.034
48106W        W20432  21.569  16.721  10.488
48107W        W20433  38.893  42.787  12.869
48108W        W20434  24.973  22.666  10.544
48109W        W20435  16.607  18.179   2.669
48110W        W20436  23.019  17.226   2.347
48111W        W20437  21.080  34.936   4.191
48112W        W20438  14.745   1.363  14.504
48113W        W20439  25.504  37.008  13.957
48114W        W20440  37.572  42.360  12.435
48115W        W20441   6.718   6.191  11.897
48116W        W20442  18.275   9.720   2.210
48117W        W20443  19.562   6.293   0.273
48118W        W20444   9.852  36.570   0.780
48119W        W20445   9.168   8.771   1.224
48120W        W20446  28.567  13.811   1.700
48121W        W20447  15.144  36.086  13.440
48122W        W20448   7.370  22.665  10.487
48123W        W20449   9.304  44.823   0.872
48124W        W20450  23.157  29.152   1.407
48125W        W20451  14.288   5.868  14.862
48126W        W20452  11.352   4.931   2.391
48127W        W20453  44.845  44.813   3.369
48128W        W20454  17.253   7.234   5.180
48129W        W20455  33.051  34.554   3.199
48130W        W20456   7.346  40.510  14.383
48131W        W20457  16.574  24.701   1.375
48132W        W20458  29.139   1.895   0.293
48133W        W20459  28.535  23.731  10.559
48134W        W20460  19.153  17.715   1.362
48135W        W20461  39.392  42.376   4.603
48136W        W20462  29.014   1.447  13.990
48137W        W20463  36.485  36.980   1.219
48138W        W20464  35.918  17.676   1.397
48139W        W20465  23.069  15.327  12.850
48140W        W20466   8.176  25.703  11.479
48141W        W20467  30.445  33.489   2.795
48142W        W20468  29.135  35.086  10.993
48143W        W20469  12.289  20.208   1.835
48144W        W20470  26.563  31.006  14.765
48145W        W20471   1.365  28.117   4.837
48146W        W20472   2.832  10.247  10.572
48147W        W20473  43.353  31.028  13.000
48148W        W20474  21.166  32.622   2.835
48149W        W20475   5.741  42.990  13.491
48150W        W20476  20.029  40.450   4.668
48151W        W20477  17.258   8.211   3.306
48152W        W20478  44.866  28.018   1.281
48153W        W20479  26.543  39.415  12.987
48154W        W20480  15.639  41.320  14.019
48155W        W20481  14.642  33.046  13.812
48156W        W20482  18.561  39.027   3.743
48157W        W20483  16.247  13.314   2.886
48158W        W20484   6.876  39.056   2.262
48159W        W20485  37.831  10.803   2.292
48160W        W20486   8.323  20.059   3.724
48161W        W20487  11.370  37.845   3.351
48162W        W20488  23.200  41.025  12.943
48163W        W20489  13.812  13.754  13.917
48164W        W20490  23.587   1.413   4.170
48165W        W20491  13.786  38.341  12.884
48166W        W20492  44.428  11.689   5.250
48167W        W20493  14.636  35.600   4.258
48168W        W20494  17.685   6.193  13.471
48169W        W20495  39.048  24.532  11.007
48170W        W20496  21.181  14.251  13.833
48171W        W20497  22.237   8.368   0.794
48172W        W20498  18.758  34.483  14.502
48173W        W20499  14.109  25.697   3.362
48174W        W20500  21.649  22.734  11.869
48175W        W20501  31.136  42.958   3.219
48176W        W20502  13.173  42.524   1.859
48177W        W20503  37.567  26.022  13.970
48178W        W20504  40.474  13.718   2.325
48179W        W20505  26.072  35.098  12.928
48180W        W20506  33.980  33.034  14.351
48181W        W20507   8.733  18.734  11.985
48182W        W20508   7.888   9.853  11.049
48183W        W20509   3.804  41.357  11.080
48184W        W20510   7.899  33.025   2.307
48185W        W20511  15.585  34.877   1.343
48186W        W20512  22.543   9.836   1.307
48187W        W20513  15.712  38.932  12.870
48188W        W20514  42.381  30.966  13.803
48189W        W20515  44.421  22.598   2.342
48190W        W20516  43.479   8.768   4.629
48191W        W20517  24.559  35.047   4.753
48192W        W20518  12.179  21.605  12.831
48193W        W20519   0.818  20.527  14.849
48194W        W20520  14.175  30.439  10.602
48195W        W20521   1.912  42.793   4.723
48196W        W20522   5.368  42.007  14.926
48197W        W20523   5.327  28.941   1.832
48198W        W20524  23.549  26.555   2.755
48199W        W20525   3.320  30.125   3.848
48200W        W20526  10.737  43.412   3.205
48201W        W20527   3.441  17.593   4.137
48202W        W20528  17.800  32.580  14.425
48203W        W20529  26.148  33.438   4.694
48204W        W20530  30.121   5.435   4.813
48205W        W20531   2.431  30.429  10.530
48206W        W20532   6.259  12.764  12.373
48207W        W20533  26.189   5.767   3.826
48208W        W20534  13.638  18.595   4.153
48209W        W20535   3.460  29.433  13.936
48210W        W20536  42.329  24.025   3.154
48211W        W20537  34.010  21.625  12.012
48212W        W20538   0.946  25.992   4.202
48213W        W20539  26.988  32.135   0.386
48214W        W20540  41.336  15.115   1.913
48215W        W20541  42.331  28.637   4.123
48216W        W20542  29.631  16.605  13.012
48217W        W20543  35.880  10.378  10.517
48218W        W20544  33.016  19.696  12.547
48219W        W20545  30.920  33.594   1.434
48220W        W20546  17.778  13.748   1.432
48221W        W20547  29.541  37.503   2.842
48222W        W20548  30.531  44.760   3.297
48223W        W20549  41.379  10.161   2.719
48224W        W20550  24.168   2.725  10.540
48225W        W20551  20.269  37.383  10.964
48226W        W20552  27.131  20.683   1.401
48227W        W20553  37.008  39.552   0.921
48228W        W20554  31.049   5.800   2.809
48229W        W20555  33.889  17.180  13.419
48230W        W20556  21.681   0.814  13.920
48231W        W20557   8.283  31.600  11.020
48232W        W20558  33.521  42.999  11.897
48233W        W20559  18.091  44.280   0.833
48234W        W20560  15.808  26.676  14.841
48235W        W20561  18.714  42.388   1.777
48236W        W20562  37.020  17.798   0.840
48237W        W20563  29.489  25.076  13.514
48238W        W20564  16.632  29.090  11.977
48239W        W20565   3.843  38.510  12.457
48240W        W20566  42.464  44.352  10.525
48241W        W20567   9.860  28.973   3.713
48242W        W20568   4.804  24.217   0.262
48243W        W20569   2.439  21.742   5.210
48244W        W20570  42.321   6.331   1.260
48245W        W20571  14.098  16.273  12.020
48246W        W20572  40.038  38.847   1.907
48247W        W20573  24.034  42.976   4.267
48248W        W20574  34.415  34.110   3.701
48249W        W20575  18.101  42.931  13.827
48250W        W20576  18.248  36.534   0.842
48251W        W20577   1.396   1.927  12.915
48252W        W20578   9.297  18.282  14.299
48253W        W20579  34.498  36.418   0.260
48254W        W20580   9.806  35.464   2.404
48255W        W20581  14.761  36.406  12.495
48256W        W20582  30.996   5.798   3.267
48257W        W20583  36.454  23.128  11.992
48258W        W20584  21.169   7.834   2.248
48259W        W20585  14.290  26.597   3.656
48260W        W20586  44.336   2.386   5.312
48261W        W20587  32.946  32.424  11.014
48262W        W20588   9.803  39.328  13.531
48263W        W20589  26.616  18.573  13.955
48264W        W20590  13.841  21.095  13.512
48265W        W20591  24.220  38.378   5.143
48266W        W20592   2.341  11.669   4.306
48267W        W20593  10.866   0.272   2.375
48268W        W20594  36.511  13.334  11.994
48269W        W20595  36.552  21.128   1.822
48270W        W20596   6.749   1.904  14.834
48271W        W20597  37.863  16.236  14.927
48272W        W20598  29.615   3.952  13.028
48273W        W20599  32.024  13.341  12.412
48274W        W20600   5.906  25.100  11.991
48275W        W20601  35.004   6.762   0.280
48276W        W20602   8.824   1.896  10.637
48277W        W20603  44.978  44.322  14.939
48278W        W20604  34.968  37.965  13.461
48279W        W20605   6.877  15.629   4.192
48280W        W20606   7.384  14.174   3.350
48281W        W20607   2.281  19.610   2.841
48282W        W20608  21.249   5.339  12.989
48283W        W20609  42.522   7.850   0.832
48284W        W20610  18.633  18.066  13.320
48285W        W20611  24.090  16.708   0.286
48286W        W20612   4.808  41.912  12.487
48287W        W20613   8.767  43.279   0.311
48288W        W20614  16.122  43.512   1.418
48289W        W20615  12.279  44.952   3.717
48290W        W20616  37.953   3.340  12.930
48291W        W20617   5.912  10.753  11.584
48292W        W20618   5.370  32.475  11.519
48293W        W20619  26.203  37.940  13.359
48294W        W20620  27.689   1.859   2.889
48295W        W20621  20.606  16.662   0.890
48296W        W20622  36.061  36.857  12.404
48297W        W20623  11.737  38.027  12.416
48298W        W20624  41.306  20.538  11.607
48299W        W20625  30.917  11.812  10.059
48300W        W20626  23.139  26.013  11.895
48301W        W20627  10.201  14.727   3.806
48302W        W20628  28.533  28.512   2.383
48303W        W20629  13.149  14.750   0.456
48304W        W20630  16.123  21.262   0.393
48305W        W20631   6.182   7.831  10.445
48306W        W20632  22.045  35.941   4.271
48307W        W20633  20.575   6.318   3.666
48308W        W20634  10.317  40.416   0.470
48309W        W20635  10.186  12.783   0.731
48310W        W20636  38.992  43.954   0.309
48311W        W20637  22.615  24.579   0.778
48312W        W20638  29.936  19.610   3.673
48313W        W20639  43.430  18.139   2.415
48314W        W20640  34.119  29.971   4.318
48315W        W20641  44.864  39.048  12.524
48316W        W20642  31.998  29.110  12.578
48317W        W20643   6.371   4.251  10.538
48318W        W20644  11.262  19.041  13.987
48319W        W20645  25.542   3.423   4.340
48320W        W20646   2.292  22.237  11.111
48321W        W20647  28.447   2.466  12.534
48322W        W20648  27.041  40.050  13.533
48323W        W20649  12.614   0.471   4.774
48324W        W20650  23.506  15.139  13.001
48325W        W20651  32.936   5.356   4.192
48326W        W20652  44.293  28.566  14.402
48327W        W20653  18.164   9.341   2.418
48328W        W20654  30.055  40.457   0.376
48329W        W20655  39.873  24.615  11.571
48330W        W20656  39.982  44.304  13.316
48331W        W20657  32.934  42.022  14.378
48332W        W20658  36.393   8.883  11.935
48333W        W20659  37.347  12.276  14.868
48334W        W20660  44.304   7.678   1.321
48335W        W20661  42.294  30.560  14.830
48336W        W20662  20.244  10.313  11.494
48337W        W20663  40.538  38.998  12.535
48338W        W20664  34.945  37.905   1.876
48339W        W20665  42.876   1.287  12.416
48340W        W20666  22.526  30.013   4.684
48341W        W20667  23.525   8.764   2.383
48342W        W20668  36.962  19.249  10.450
48343W        W20669  30.123  37.072  11.085
48344W        W20670   9.223  42.914  12.979
48345W        W20671  41.314   9.321  13.362
48346W        W20672  37.888  42.777  12.910
48347W        W20673  14.730   4.806   3.692
48348W        W20674  23.124  11.663   3.667
48349W        W20675  41.882   4.848   2.752
48350W        W20676  10.799  16.154  12.488
48351W        W20677  26.972  13.828  13.340
48352W        W20678  22.612  38.992   2.683
48353W        W20679   1.754  33.513   1.702
48354W        W20680   0.295  29.503  13.534
48355W        W20681  10.195  40.025  14.962
48356W        W20682  28.078  34.587  13.386
48357W        W20683  30.422  10.638   0.298
48358W        W20684  31.101  38.068  12.442
48359W        W20685  37.385  38.839   4.338
48360W        W20686  38.953   5.912   2.355
48361W        W20687  11.744   0.284   4.648
48362W        W20688  11.623   2.382  10.905
48363W        W20689  14.664   1.378   2.280
48364W        W20690  22.176  14.179   3.640
48365W        W20691  34.496  35.401   0.280
48366W        W20692   1.415  21.568   2.262
48367W        W20693  16.684  40.437   0.452
48368W        W20694  38.851  32.058  14.489
48369W        W20695  17.088  12.819  11.083
48370W        W20696  44.765  13.816   0.863
48371W        W20697  21.211  42.316  10.615
48372W        W20698  20.029  16.751   3.844
48373W        W20699  36.497  19.121   0.469
48374W        W20700  17.198  27.469   2.323
48375W        W20701  30.559  38.061   0.922
48376W        W20702  31.453  19.069  10.902
48377W        W20703  24.093  24.193  11.564
48378W        W20704   7.817   4.440   3.174
48379W        W20705  12.673  11.688   1.368
48380W        W20706   1.433  25.063   3.180
48381W        W20707  28.552  38.405   0.945
48382W        W20708  33.940  33.056   3.750
48383W        W20709  28.998  12.244  12.533
48384W        W20710   0.817  13.196   4.144
48385W        W20711  19.266  21.740   0.790
48386W        W20712  30.435  43.403   1.766
48387W        W20713   3.239   8.329  10.642
48388W        W20714  30.478   6.702   3.801
48389W        W20715  43.487  35.561  11.080
48390W        W20716  30.433  27.114  14.988
48391W        W20717  12.285  27.669  11.570
48392W        W20718  12.613  44.930   1.868
48393W        W20719  40.834  17.610  13.529
48394W        W20720  17.291  13.675  10.628
48395W        W20721   4.221  25.486   4.692
48396W        W20722  35.443  40.522   4.599
48397W        W20723   3.715  37.934   2.396
48398W        W20724  13.776  23.529  13.432
48399W        W20725  36.505  23.043   0.383
48400W        W20726  31.443  32.091  10.576
48401W        W20727   8.682   2.783  11.978
48402W        W20728  41.517  31.028  13.403
48403W        W20729  19.272  18.690  13.351
48404W        W20730  22.203  34.557  14.826
48405W        W20731  22.137  24.678   2.210
48406W        W20732  30.968  26.673  12.350
48407W        W20733   7.763  44.862  14.315
48408W        W20734   9.854  27.166  14.858
48409W        W20735  28.642  29.167  13.978
48410W        W20736  35.486  16.101  10.566
48411W        W20737  35.103  20.054   3.330
48412W        W20738   9.253  41.399  13.048
48413W        W20739  41.485  13.724  11.993
48414W        W20740   0.398  41.401   1.430
48415W        W20741  24.151  32.459   0.384
48416W        W20742  19.624  27.544  12.883
48417W        W20743  43.014  33.451   4.730
48418W        W20744  44.396  10.172   4.743
48419W        W20745  10.796  32.076   4.714
48420W        W20746  31.930  38.377  13.456
48421W        W20747  12.634  28.083  11.006
48422W        W20748  41.812  33.537   1.783
48423W        W20749  35.383  22.245  14.991
48424W        W20750  44.971  27.649  11.970
48425W        W20751  22.207  20.061   4.187
48426W        W20752  18.616  40.015  10.935
48427W        W20753  16.286   2.728   0.369
48428W        W20754  31.908  20.211  10.604
48429W        W20755  20.128  39.024  10.597
48430W        W20756  43.510  38.489  11.406
48431W        W20757  29.508  17.723  13.821
48432W        W20758  43.796  15.174  12.870
48433W        W20759  43.810  33.625   2.407
48434W        W20760  27.513  13.710  11.048
48435W        W20761  13.797  32.104   4.185
48436W        W20762  27.680  15.704   1.882
48437W        W20763  17.265  17.763  12.467
48438W        W20764  33.435   2.431   1.374
48439W        W20765   7.336  37.559  14.283
48440W        W20766  10.266  16.085  13.414
48441W        W20767  22.147  25.585   1.900
48442W        W20768  44.929  36.576   3.757
48443W        W20769  38.333  22.556  11.590
48444W        W20770  32.589  25.585  14.923
48445W        W20771  16.093  20.687   3.222
48446W        W20772  39.521  16.218   4.821
48447W        W20773  23.077  27.580   2.775
48448W        W20774   9.306   2.753  14.854
48449W        W20775  44.963   1.300  12.958
48450W        W20776  38.877  23.147  10.958
48451W        W20777  10.382  43.975  13.462
48452W        W20778  29.148  41.951  14.894
48453W        W20779   8.897  28.165  11.450
48454W        W20780   8.684   0.436   2.232
48455W        W20781  12.171  41.441  11.527
48456W        W20782   6.707  21.521  13.392
48457W        W20783   4.261  27.955  12.000
48458W        W20784  15.725   3.800  12.026
48459W        W20785   0.748  39.953  11.535
48460W        W20786  36.918  13.829  10.455
48461W        W20787  37.936  23.649   2.370
48462W        W20788  22.080  38.849   0.303
48463W        W20789  22.744   3.298   1.436
48464W        W20790  38.881   4.339   4.794
48465W        W20791  27.071  11.144  11.961
48466W        W20792  26.076   3.828   3.334
48467W        W20793   8.706  11.843  14.445
48468W        W20794  30.427  20.660  10.975
48469W        W20795  29.122  11.800   3.203
48470W        W20796  33.512   1.927   0.337
48471W        W20797  36.085   0.281   1.442
48472W        W20798  40.462  15.145  11.402
48473W        W20799  41.428  35.440  10.507
48474W        W20800  34.025  44.396  11.386
48475W        W20801  31.994  32.987  13.857
48476W        W20802  34.073  20.245  13.030
48477W        W20803  43.992  34.369   3.359
48478W        W20804  28.964  15.224   3.810
48479W        W20805   9.305  33.090  12.913
48480W        W20806  25.165   0.457   1.754
48481W        W20807   6.374  13.765  14.312
48482W        W20808   4.205  31.019   2.717
48483W        W20809   6.365  19.586  13.901
48484W        W20810   1.317  43.392   3.640
48485W        W20811  30.157  13.735   4.150
48486W        W20812   3.369   6.211   3.764
48487W        W20813   5.885  33.419   2.327
48488W        W20814  11.842  42.031   4.234
48489W        W20815   0.903  22.124   1.824
48490W        W20816  40.891  43.406  12.422
48491W        W20817  39.414  34.933   1.399
48492W        W20818  13.822  11.205  11.466
48493W        W20819  15.129  37.884  12.841
48494W        W20820  23.221  28.534  12.833
48495W        W20821  14.803  12.259   3.244
48496W        W20822  10.161  44.364   1.752
48497W        W20823  12.717  34.876   4.314
48498W        W20824  28.555  33.979  14.393
48499W        W20825  26.022  10.200  14.500
48500W        W20826   5.845  28.467  12.541
48501W        W20827   1.919  13.281   2.724
48502W        W20828   5.242  11.233   5.116
48503W        W20829   3.279  10.809  12.344
48504W        W20830  24.104  25.101  14.898
48505W        W20831   6.425  17.078  10.083
48506W        W20832  11.159  13.619   0.802
48507W        W20833  42.409   9.329  11.083
48508W        W20834  23.542  43.317   0.399
48509W        W20835  28.933  36.992   0.928
48510W        W20836   5.712  17.249  11.550
48511W        W20837  23.035  31.616   1.833
48512W        W20838  44.443  36.481   2.192
48513W        W20839  41.410  32.889  13.999
48514W        W20840   4.300  33.580  12.961
48515W        W20841  11.188  34.870   0.417
48516W        W20842  15.639  17.088  12.496
48517W        W20843  32.636  18.189  11.011
48518W        W20844  41.513  42.470   2.238
48519W        W20845   4.759  32.521   3.190
48520W        W20846  27.541  17.742  14.998
48521W        W20847  43.912  11.781  12.014
48522W        W20848  24.085  42.883   1.376
48523W        W20849  11.744  10.694  12.828
48524W        W20850   3.805  38.532   3.377
48525W        W20851  12.167  39.928  12.056
48526W        W20852  22.241   8.877   3.264
48527W        W20853  12.748   6.869  12.472
48528W        W20854  44.399  33.060   1.740
48529W        W20855  28.141  30.638   2.340
48530W        W20856   8.228  16.135   4.275
48531W        W20857   8.707  16.675   3.302
48532W        W20858  40.894  27.482   4.602
48533W        W20859  43.278  16.100   1.862
48534W        W20860  11.707   9.737   2.389
48535W        W20861   7.238   3.320   3.791
48536W        W20862  32.920  13.275  11.579
48537W        W20863  21.706   9.379   0.832
48538W        W20864  11.203  21.130   5.259
48539W        W20865  13.300  30.599   9.971
48540W        W20866  13.122  12.342  10.642
48541W        W20867  37.866  23.642   0.759
48542W        W20868  27.461  28.456  11.939
48543W        W20869  11.853  37.384  13.821
48544W        W20870  32.402  28.166   3.640
48545W        W20871   9.184  35.560  12.550
48546W        W20872  27.193  37.856  12.826
48547W        W20873  26.092  14.820  12.556
48548W        W20874  30.945  19.696  10.511
48549W        W20875   3.858  27.951   2.815
48550W        W20876  38.843  19.242   4.200
48551W        W20877  33.545   1.862   1.905
48552W        W20878  38.874  27.116  14.416
48553W        W20879  12.825   9.853  10.562
48554W        W20880  29.592   7.848  14.427
48555W        W20881  21.686   4.791   4.747
48556W        W20882   1.789  25.535   3.387
48557W        W20883   1.857  25.657   1.707
48558W        W20884  17.292  21.212  10.618
48559W        W20885  23.073   8.798  12.377
48560W        W20886  14.741  15.146   4.241
48561W        W20887   9.796  27.946  11.075
48562W        W20888  14.129  13.749  14.365
48563W        W20889   0.975  32.086   1.237
48564W        W20890  14.765   8.775   4.648
48565W        W20891  34.569  23.498   2.230
48566W        W20892   9.850  13.817  13.895
48567W        W20893  36.099  37.831  12.025
48568W        W20894  25.133  26.646  13.548
48569W        W20895  17.116   3.350  12.530
48570W        W20896  33.919   1.741  10.946
48571W        W20897   2.424  34.387  11.529
48572W        W20898  25.004  37.418  11.864
48573W        W20899  44.351  44.411  14.394
48574W        W20900  40.528  36.499   2.284
48575W        W20901  10.151   5.247   3.652
48576W        W20902  21.567   4.768  12.961
48577W        W20903   2.457  22.099   3.213
48578W        W20904  31.991  24.668   4.656
48579W        W20905   7.698  34.026   4.116
48580W        W20906   7.676  43.993  11.520
48581W        W20907   6.694  44.367  11.006
48582W        W20908  30.914  21.214  13.399
48583W        W20909  22.183  33.989   4.232
48584W        W20910  33.599  23.722   2.223
48585W        W20911  15.300  44.847   4.764
48586W        W20912  41.945  10.744  13.439
48587W        W20913  13.636   7.309  10.435
48588W        W20914  37.861   9.764  10.630
48589W        W20915  10.231  17.714  13.953
48590W        W20916  28.986  39.822   3.348
48591W        W20917  44.967  10.771   3.849
48592W        W20918   6.774  37.027  11.460
48593W        W20919  22.705  25.202   4.138
48594W        W20920  35.009  10.318  11.862
48595W        W20921  26.479  44.353   0.482
48596W        W20922  15.661  41.041  11.074
48597W        W20923   4.872   4.351   1.769
48598W        W20924  30.092   3.398   0.273
48599W        W20925  33.066  30.428  14.792
48600W        W20926  17.770  28.540  10.997
48601W        W20927  44.443  30.068  13.393
48602W        W20928  14.794  16.259  11.508
48603W        W20929  22.528   9.688   1.837
48604W        W20930  39.356   7.239  12.339
48605W        W20931  43.420  38.983  13.941
48606W        W20932  38.374  42.890  10.418
48607W        W20933   2.736  29.090  10.587
48608W        W20934   4.213  22.532  13.392
48609W        W20935  17.734  31.558   0.808
48610W        W20936   9.275  41.340  12.012
48611W        W20937  38.521   0.829  11.948
48612W        W20938  18.601  25.983  12.031
48613W        W20939  41.000  40.967   4.838
48614W        W20940  22.092  36.977   4.278
48615W        W20941  14.273   5.249   3.153
48616W        W20942   9.865  17.674   2.847
48617W        W20943  26.487   9.161  12.847
48618W        W20944  10.326  27.685   4.309
48619W        W20945  23.545  42.382   1.860
48620W        W20946   4.791  30.420  10.889
48621W        W20947   9.352  30.563   2.240
48622W        W20948  34.911   4.787   3.674
48623W        W20949  14.285  31.128  12.028
48624W        W20950  18.713  35.895  11.872
48625W        W20951  40.980  37.953  12.441
48626W        W20952   9.298  34.083  12.048
48627W        W20953  44.972  11.772   0.791
48628W        W20954   3.455   9.220  14.913
48629W        W20955   4.444  23.143   0.837
48630W        W20956  43.908  17.747   0.371
48631W        W20957  28.520  15.107  14.893
48632W        W20958   6.299  30.432  13.822
48633W        W20959   8.767  17.224  14.486
48634W        W20960  28.082  19.761   5.210
48635W        W20961   2.844   9.272   3.255
48636W        W20962  18.101   5.285  14.487
48637W        W20963  28.119  16.314   3.742
48638W        W20964  11.226  12.335  10.518
48639W        W20965  10.171  36.950   4.137
48640W        W20966  21.649   1.477  10.499
48641W        W20967  28.586  32.949   2.289
48642W        W20968  43.981  28.488  14.473
48643W        W20969  17.761   0.296   2.389
48644W        W20970  23.707   3.278  10.541
48645W        W20971  15.176  36.402  10.053
48646W        W20972   4.287   4.904  10.063
48647W        W20973  40.480  28.169  10.551
48648W        W20974   9.790  35.602  13.856
48649W        W20975  10.795  29.163  10.425
48650W        W20976  25.977  33.932   3.231
48651W        W20977  37.025  11.680   2.415
48652W        W20978  17.276   5.757   0.800
48653W        W20979  40.799  14.197   0.801
48654W        W20980  15.157  28.979   0.729
48655W        W20981  14.138  36.084   2.680
48656W        W20982  27.016  16.288  10.993
48657W        W20983   6.333  20.221  11.047
48658W        W20984  20.702  26.636   0.769
48659W        W20985  26.971   1.759   0.896
48660W        W20986   9.792  11.786   1.727
48661W        W20987  24.687   9.235  14.012
48662W        W20988  35.939  35.034  12.521
48663W        W20989  39.476  20.547   4.756
48664W        W20990  44.874   0.841   2.674
48665W        W20991  42.521  44.998  14.922
48666W        W20992  10.803  14.160   4.142
48667W        W20993   1.261  15.134  11.567
48668W        W20994  44.430   1.862   3.690
48669W        W20995  10.665   1.333   0.786
48670W        W20996  28.661  11.242   4.651
48671W        W20997  16.763  15.317   0.953
48672W        W20998  35.560  38.951  12.344
48673W        W20999  39.545  43.018   3.825
48674W        W21000  27.012  31.054  13.026
48675W        W21001   6.860  20.191   1.325
48676W        W21002  29.137  39.847  12.423
48677W        W21003  22.200  40.366  14.433
48678W        W21004  14.104   6.742  12.969
48679W        W21005  39.968  24.169   3.244
48680W        W21006   0.964  43.017   2.786
48681W        W21007   2.755  11.740   9.965
48682W        W21008  21.206   5.307  12.542
48683W        W21009   9.221  41.304   2.766
48684W        W21010   6.747  20.622  11.606
48685W        W21011  16.723  15.638  12.048
48686W        W21012  37.435   3.258   2.216
48687W        W21013   4.255  35.953  12.557
48688W        W21014  44.471  21.202   5.282
48689W        W21015   1.800   2.902  14.340
48690W        W21016  35.900  33.500   1.815
48691W        W21017   4.390  23.092  14.992
48692W        W21018  17.762  26.634  13.535
48693W        W21019   5.420   6.303  12.539
48694W        W21020  41.377  33.995   2.746
48695W        W21021  35.937  21.630  14.772
48696W        W21022  39.847  17.645   0.436
48697W        W21023  35.091   8.695   1.731
48698W        W21024  22.544  43.888   3.846
48699W        W21025  25.110  13.830   0.959
48700W        W21026  26.466   6.292  12.374
48701W        W21027  32.549  23.158   2.789
48702W        W21028  17.072   9.850   3.304
48703W        W21029  38.998  32.620  10.895
48704W        W21030  27.065  11.757  10.590
48705W        W21031  28.179  24.639  11.511
48706W        W21032   1.829  11.699   9.643
48707W        W21033  21.139  43.477  10.625
48708W        W21034   1.271  35.034  11.405
48709W        W21035  24.109  20.056  11.051
48710W        W21036  24.192  23.126   2.259
48711W        W21037  26.626  27.510  14.469
48712W        W21038  10.225  27.447  10.036
48713W        W21039   9.180  36.094  12.981
48714W        W21040   1.968   3.946   0.810
48715W        W21041  42.505   2.871  11.078
48716W        W21042  27.987  26.171   3.357
48717W        W21043   9.868  31.580  10.606
48718W        W21044   6.769  20.102   2.226
48719W        W21045  13.771  27.028  14.903
48720W        W21046  33.102  20.112  12.437
48721W        W21047  32.985  21.198   3.811
48722W        W21048  37.478  18.173  14.765
48723W        W21049  14.163   7.691  10.512
48724W        W21050  41.898  22.230  14.880
48725W        W21051  40.879   5.282   4.660
48726W        W21052  34.017  39.339   0.254
48727W        W21053   9.865  16.670  13.448
48728W        W21054  26.486  38.397   1.741
48729W        W21055  26.695  41.361   0.888
48730W        W21056  31.565  18.138  11.074
48731W        W21057  13.777   9.209   1.829
48732W        W21058   6.883  24.041   4.776
48733W        W21059  20.651  13.779  14.777
48734W        W21060   7.183  31.116  13.913
48735W        W21061  10.379  36.371   5.159
48736W        W21062   0.884  15.268  12.466
48737W        W21063  10.178  24.210   3.210
48738W        W21064  21.671  32.555  11.111
48739W        W21065   4.308  37.362  11.017
48740W        W21066   6.894   4.244  14.808
48741W        W21067  14.184  32.395  13.931
48742W        W21068  12.720   8.238  11.388
48743W        W21069  17.168  23.133   2.372
48744W        W21070  20.161  26.539  10.644
48745W        W21071  27.605  43.278   2.397
48746W        W21072   5.712   8.302  11.966
48747W        W21073  23.638  11.767  14.032
48748W        W21074  39.825  13.702  13.421
48749W        W21075  38.422   4.889  11.914
48750W        W21076  31.088   3.311   0.748
48751W        W21077   0.918  29.616   1.286
48752W        W21078   3.823  21.128  12.491
48753W        W21079  14.115   7.229  11.587
48754W        W21080  43.018  39.361  10.983
48755W        W21081   5.427  25.587  11.378
48756W        W21082  25.066   1.844   3.324
48757W        W21083  34.950  32.478  13.407
48758W        W21084  19.150  24.187   4.147
48759W        W21085  11.298  25.082   1.791
48760W        W21086  34.410  17.108   1.812
48761W        W21087   4.230   9.766  10.056
48762W        W21088  38.895  42.299  14.998
48763W        W21089  31.057  25.529   1.237
48764W        W21090  39.984  19.279  11.596
48765W        W21091  33.077  35.373   9.477
48766W        W21092   4.406  41.293   1.840
48767W        W21093  41.877  39.536   4.130
48768W        W21094   0.861  16.295  12.938
48769W        W21095   5.845  20.183  11.483
48770W        W21096   7.870   2.225  14.953
48771W        W21097  28.951  31.575  12.840
48772W        W21098  37.870  38.975   2.213
48773W        W21099  43.834  32.943   0.305
48774W        W21100   5.742   7.274   3.282
48775W        W21101  13.348  11.741  12.945
48776W        W21102   2.856  26.661  14.326
48777W        W21103  23.047  38.828   3.730
48778W        W21104   0.295  34.440  11.431
48779W        W21105  10.712  43.419   3.795
48780W        W21106   5.926   3.718  11.928
48781W        W21107  17.566  16.616   0.458
48782W        W21108   2.750   3.926   9.452
48783W        W21109  42.886  14.718   0.852
48784W        W21110  33.487  35.990  14.825
48785W        W21111   5.317  44.883   1.870
48786W        W21112  40.840  20.033   3.738
48787W        W21113   0.308   6.183   1.822
48788W        W21114  38.549   2.762   4.260
48789W        W21115  41.868   9.783   1.261
48790W        W21116  42.822  25.081   4.725
48791W        W21117  34.889  19.629   1.815
48792W        W21118  38.440  15.308  14.384
48793W        W21119   6.844   8.795   3.803
48794W        W21120  34.951   8.378   1.919
48795W        W21121  41.806  22.586  10.159
48796W        W21122  10.198  21.646  11.885
48797W        W21123   4.705  25.212  12.365
48798W        W21124  16.678  39.839   3.761
48799W        W21125  14.747  35.364   1.343
48800W        W21126  18.100   6.352  11.117
48801W        W21127  34.908  36.424   1.234
48802W        W21128  34.085  28.993  14.767
48803W        W21129   4.718   9.287   4.770
48804W        W21130  38.019   8.254  10.947
48805W        W21131   6.794  41.536   0.451
48806W        W21132   4.723  40.466   2.284
48807W        W21133  38.357   7.843   0.864
48808W        W21134  26.521  35.557   2.194
48809W        W21135  33.109  36.920  14.400
48810W        W21136  43.939   7.670   2.234
48811W        W21137  39.898  27.607  13.423
48812W        W21138  25.499  12.334   4.673
48813W        W21139  25.019  32.886   1.413
48814W        W21140  29.926  40.862   4.729
48815W        W21141  42.921  15.622   0.442
48816W        W21142  23.716  18.155  11.536
48817W        W21143   8.403  26.986  14.778
48818W        W21144  28.002  22.132   0.862
48819W        W21145  24.086  32.095  14.481
48820W        W21146  11.290  11.811  14.763
48821W        W21147  40.393  22.589  13.546
48822W        W21148   0.773  39.037   2.252
48823W        W21149  26.580   6.751  11.577
48824W        W21150   7.671   3.862   1.706
48825W        W21151  28.128  18.591   4.287
48826W        W21152  26.961  34.998   3.329
48827W        W21153  23.615  29.990  13.345
48828W        W21154  37.965  32.618  11.010
48829W        W21155  40.052  12.700  13.797
48830W        W21156  12.821  22.617  13.895
48831W        W21157  43.788  16.217  14.961
48832W        W21158  17.653   4.431  11.023
48833W        W21159  22.698  12.790  12.531
48834W        W21160  19.746  35.543   3.354
48835W        W21161  39.925  27.478   4.239
48836W        W21162   4.921  17.071   4.648
48837W        W21163  38.923   0.419   0.924
48838W        W21164  44.502   2.299   4.736
48839W        W21165  28.943  41.973  13.548
48840W        W21166  37.534  15.645  13.955
48841W        W21167  36.372  12.810   2.332
48842W        W21168   3.378  26.494  11.446
48843W        W21169  25.480  18.664  14.336
48844W        W21170  21.619   7.191  12.006
48845W        W21171  17.112  42.805  11.899
48846W        W21172   6.810  36.541  13.957
48847W        W21173  11.224  31.945  12.398
48848W        W21174   2.781  36.530  12.527
48849W        W21175  22.706   8.858   2.300
48850W        W21176  43.821  21.613   3.195
48851W        W21177  27.545   0.793   0.793
48852W        W21178   7.308  12.319  11.860
48853W        W21179  31.075   6.226   1.281
48854W        W21180  20.717   0.902   2.278
48855W        W21181  22.667  11.737   5.234
48856W        W21182  17.242  40.817  13.328
48857W        W21183  29.096   2.890   2.807
48858W        W21184  38.417  10.712  10.061
48859W        W21185   1.322   6.256  13.935
48860W        W21186   7.832  19.736  11.000
48861W        W21187  28.480  28.482   5.229
48862W        W21188   4.311  23.226   4.257
48863W        W21189  14.807   4.856   9.959
48864W        W21190   7.266  30.625   4.281
48865W        W21191   5.898   6.240  12.069
48866W        W21192  37.047  29.648  12.414
48867W        W21193  10.788  29.637  13.964
48868W        W21194  24.080  25.124   4.319
48869W        W21195   3.736   9.744   3.189
48870W        W21196  33.390  14.687   3.635
48871W        W21197  27.126  14.241  10.424
48872W        W21198   9.336  14.601   4.281
48873W        W21199  41.921   5.310   3.635
48874W        W21200  40.907  43.475   4.271
48875W        W21201  26.092   3.451  10.595
48876W        W21202   8.198  30.654  13.019
48877W        W21203  12.647  11.307   3.169
48878W        W21204  44.361  11.757   4.745
48879W        W21205   8.318  22.147  13.805
48880W        W21206   8.287  25.184   4.348
48881W        W21207  36.505  32.082   0.926
48882W        W21208  32.924  14.764   4.312
48883W        W21209   7.349  40.344  14.800
48884W        W21210  35.524   1.973   4.288
48885W        W21211  34.096   8.175  11.531
48886W        W21212  35.856  43.419  11.983
48887W        W21213  10.335  17.699   1.900
48888W        W21214  24.029   7.387  10.087
48889W        W21215   3.826  28.956   2.800
48890W        W21216  20.665   0.278  12.912
48891W        W21217  42.802  24.516   0.779
48892W        W21218  15.153  28.468   2.672
48893W        W21219   9.648  12.239   4.314
48894W        W21220   1.321  14.217   1.323
48895W        W21221  24.023  35.974  11.409
48896W        W21222  29.447  11.232   4.637
48897W        W21223  25.970  37.086   4.250
48898W        W21224  12.718  24.004  14.361
48899W        W21225  21.585  12.743   3.236
48900W        W21226   7.882   6.805   1.450
48901W        W21227  12.697  20.745  13.908
48902W        W21228  20.086  20.644  13.800
48903W        W21229  11.850   2.920  12.526
48904W        W21230   5.288  25.195  14.399
48905W        W21231  34.552  40.459   4.190
48906W        W21232  35.529   1.774   0.790
48907W        W21233  37.890  12.750   3.672
48908W        W21234  18.087  30.989   0.263
48909W        W21235  20.047  38.827   0.895
48910W        W21236  15.256   0.466   1.217
48911W        W21237  22.079  40.834   4.798
48912W        W21238  25.599  15.124   2.737
48913W        W21239  13.650   0.411  10.922
48914W        W21240  22.612   4.848   2.776
48915W        W21241  33.469  10.854   1.216
48916W        W21242   1.304  26.549  14.781
48917W        W21243  29.149  14.749   0.907
48918W        W21244   1.244  29.455  10.511
48919W        W21245   0.292  38.333  13.453
48920W        W21246  13.700  37.932  13.843
48921W        W21247  17.687  13.189   2.859
48922W        W21248  19.260  23.707   3.366
48923W        W21249  17.066  35.458   3.194
48924W        W21250  41.915  42.316  14.335
48925W        W21251   9.341   9.350  11.452
48926W        W21252  40.882  41.499   1.337
48927W        W21253  12.716  34.378  14.447
48928W        W21254  15.653  30.048  11.416
48929W        W21255   5.837  16.772  13.895
48930W        W21256   5.428   4.286  11.461
48931W        W21257  29.935  28.480  12.450
48932W        W21258  21.606   4.902  11.378
48933W        W21259   4.442  28.661  14.919
48934W        W21260  29.049  43.809  11.406
48935W        W21261  37.936  44.444  10.984
48936W        W21262   0.362  22.245   0.778
48937W        W21263  12.851   8.288  14.362
48938W        W21264  21.044  38.548   0.861
48939W        W21265  39.511   5.753   4.830
48940W        W21266  20.768  22.564   0.904
48941W        W21267  29.938  11.263   2.335
48942W        W21268   9.190  15.176  14.509
48943W        W21269  18.158   4.423   1.374
48944W        W21270  26.469  27.672  10.577
48945W        W21271  26.525   8.822  14.773
48946W        W21272  36.972  40.871   3.657
48947W        W21273   4.430  28.981  14.344
48948W        W21274  42.858  37.565   9.954
48949W        W21275  33.534  40.377  12.419
48950W        W21276  19.704  31.635   4.617
48951W        W21277  30.119  12.662  11.604
48952W        W21278  13.234   3.367   1.337
48953W        W21279  23.212  28.449   0.311
48954W        W21280  17.661  20.192  11.932
48955W        W21281  33.510   5.874   3.704
48956W        W21282   0.344  22.097  13.464
48957W        W21283  26.988   2.771  10.435
48958W        W21284  25.114   8.887   3.188
48959W        W21285  22.184  39.442  12.529
48960W        W21286  36.042   8.782  10.480
48961W        W21287  10.809   1.840   1.315
48962W        W21288  13.765   3.942   3.747
48963W        W21289  10.825   2.347  14.320
48964W        W21290   6.371  25.013  10.054
48965W        W21291   6.343  14.610   2.708
48966W        W21292   4.789  36.055   5.231
48967W        W21293   5.868   9.806   1.448
48968W        W21294  10.235  41.364  14.440
48969W        W21295  11.765   7.277   0.364
48970W        W21296  19.265   8.790  14.989
48971W        W21297  14.688  36.871  13.376
48972W        W21298  44.405   2.255  10.583
48973W        W21299  36.046  32.422  10.624
48974W        W21300   1.753  10.753  12.919
48975W        W21301  17.736  17.177   0.262
48976W        W21302  39.522  27.114   2.847
48977W        W21303  22.572  24.612   3.795
48978W        W21304  34.004  40.411  13.543
48979W        W21305  28.562  36.011  11.983
48980W        W21306   0.320   8.746  14.391
48981W        W21307  10.228  25.028   5.130
48982W        W21308  27.139   9.783   1.894
48983W        W21309  27.994  22.729   2.240
48984W        W21310   4.819  26.529  11.082
48985W        W21311  36.413   4.848  12.553
48986W        W21312  18.661   2.301   0.324
48987W        W21313   7.736   0.748  14.978
48988W        W21314  44.330  30.053  12.354
48989W        W21315   1.830  17.196  14.404
48990W        W21316  17.206  15.130  13.443
48991W        W21317   1.412  38.416  14.407
48992W        W21318  28.049  12.743  11.431
48993W        W21319  35.989   4.253   2.728
48994W        W21320   7.836  31.916  10.558
48995W        W21321  23.585  30.000   2.266
48996W        W21322  26.029   2.466   3.208
48997W        W21323   1.925  31.013  13.394
48998W        W21324  40.365   2.256  14.993
48999W        W21325   1.441  23.073  11.127
49000W        W21326  35.051   0.964   2.295
49001W        W21327  40.306  26.071  12.533
49002W        W21328  25.489  14.152  11.932
49003W        W21329   6.401   8.369  14.914
49004W        W21330  23.498  43.907   4.723
49005W        W21331  26.642  43.883   2.259
49006W        W21332  13.629  33.080   0.817
49007W        W21333  35.357  13.724   0.433
49008W        W21334  28.043  15.143   0.769
49009W        W21335  14.802  16.601   4.817
49010W        W21336   0.773  35.435  10.442
49011W        W21337  20.151  32.023  10.906
49012W        W21338  10.197  20.191  13.378
49013W        W21339  19.566   5.243  10.452
49014W        W21340  25.058  13.214  12.565
49015W        W21341  27.989  35.475  12.574
49016W        W21342  44.001  43.318  12.850
49017W        W21343  26.668  39.388   0.360
49018W        W21344  13.843  14.798   2.788
49019W        W21345  40.837  16.705   0.904
49020W        W21346  18.161  13.192  14.824
49021W        W21347  11.671  41.345   4.149
49022W        W21348  22.658   3.284   2.802
49023W        W21349   1.762  15.647   3.263
49024W        W21350  37.833   0.448   1.330
49025W        W21351  26.658   4.894  12.936
49026W        W21352  38.936  14.769  13.391
49027W        W21353  29.938  29.080  11.920
49028W        W21354  26.562  10.221  11.982
49029W        W21355  17.687  33.403   2.233
49030W        W21356  28.448   4.908  13.515
49031W        W21357  30.482  26.181  11.498
49032W        W21358  31.002   1.479   0.367
49033W        W21359  20.150  36.960   3.146
49034W        W21360  42.955  29.489  10.629
49035W        W21361  14.324  21.135  11.466
49036W        W21362  12.129  40.316   1.439
49037W        W21363   8.749  36.558   1.315
49038W        W21364   4.796  44.415  11.858
49039W        W21365  12.638  29.052  12.976
49040W        W21366  35.379   7.673  12.952
49041W        W21367  11.355  28.071  11.971
49042W        W21368  25.059   6.203   1.228
49043W        W21369   5.414  43.384  12.015
49044W        W21370  22.535  19.138   2.337
49045W        W21371  21.677   5.374  14.487
49046W        W21372   8.352  43.457  14.896
49047W        W21373  15.653  23.202  13.032
49048W        W21374   8.867  14.145   3.212
49049W        W21375   6.304  11.277   1.302
49050W        W21376  12.662  32.455  14.912
49051W        W21377  35.866  42.833  11.997
49052W        W21378  34.025   0.966   3.341
49053W        W21379  15.608  33.584   0.801
49054W        W21380  30.939  21.018   0.892
49055W        W21381   1.820  23.632   0.807
49056W        W21382  29.145  44.333  14.032
49057W        W21383  22.538   0.743  10.940
49058W        W21384  17.146  34.914  12.554
49059W        W21385  26.649  12.171  14.815
49060W        W21386  33.498   7.258  10.639
49061W        W21387   2.821  36.576   0.317
49062W        W21388  40.355  40.514   0.484
49063W        W21389  18.164  25.981  12.406
49064W        W21390   1.898  17.754  13.821
49065W        W21391   2.225   3.431   2.316
49066W        W21392  43.495   7.306   2.846
49067W        W21393  18.062  29.167  10.415
49068W        W21394  23.015  18.180  11.968
49069W        W21395  40.953   8.370   3.214
49070W        W21396  24.518  25.592   2.789
49071W        W21397  12.694  20.704   3.352
49072W        W21398  27.959  17.289  12.387
49073W        W21399  17.570  28.566   3.813
49074W        W21400  11.832  43.942   3.734
49075W        W21401  29.505   4.433  12.088
49076W        W21402   2.859  32.422  10.547
49077W        W21403  42.918  43.950  13.804
49078W        W21404  42.478  11.227   3.276
49079W        W21405   0.874   5.263   2.744
49080W        W21406  16.136  38.901   9.960
49081W        W21407  24.159  40.885  11.392
49082W        W21408  16.668   0.830  13.496
49083W        W21409  38.922  33.432   1.877
49084W        W21410   9.336   8.190   4.767
49085W        W21411  39.501   8.866   1.930
49086W        W21412  30.965  17.782  13.853
49087W        W21413  18.183   7.335   0.790
49088W        W21414  28.991  15.738  14.936
49089W        W21415   7.353  24.976  11.435
49090W        W21416  13.303  39.406  11.521
49091W        W21417  14.114  22.139   3.167
49092W        W21418  19.221  38.509  11.908
49093W        W21419  25.995  10.257   4.195
49094W        W21420  40.346  20.125   2.803
49095W        W21421  15.142  20.249   3.243
49096W        W21422  44.285  32.483  12.578
49097W        W21423  19.176  19.555  10.613
49098W        W21424  22.248  26.525  13.989
49099W        W21425  44.424  42.280  11.903
49100W        W21426  19.192  10.232  12.364
49101W        W21427  32.415  14.787   2.315
49102W        W21428  39.998  37.540   2.708
49103W        W21429  20.701  41.453  13.050
49104W        W21430  24.126  28.087  12.030
49105W        W21431  43.983  34.610  10.997
49106W        W21432  38.441  30.474  11.899
49107W        W21433  37.524  16.638   4.673
49108W        W21434  26.493  22.533   5.310
49109W        W21435   2.725   1.736   1.727
49110W        W21436   0.351  43.768  12.894
49111W        W21437  36.877  21.560   3.241
49112W        W21438   8.764  20.544  11.040
49113W        W21439  20.067  27.640   3.738
49114W        W21440  18.053  17.304  11.126
49115W        W21441   9.176   1.953  12.856
49116W        W21442  41.473  25.543  14.970
49117W        W21443  44.791   5.194   0.417
49118W        W21444   2.398   8.874  11.977
49119W        W21445  23.503  13.107   2.855
49120W        W21446  10.314  35.410  11.405
49121W        W21447  36.386  12.794  10.517
49122W        W21448  26.087  27.072   1.368
49123W        W21449  16.096  31.643   4.822
49124W        W21450  37.838  21.751   4.191
49125W        W21451   0.873  16.768  10.419
49126W        W21452  35.878  25.550   4.653
49127W        W21453  21.113  21.048  14.323
49128W        W21454  19.236   2.800  11.512
49129W        W21455  37.420  11.146   1.861
49130W        W21456  43.951   7.884   3.655
49131W        W21457  42.422  11.270  12.371
49132W        W21458  21.063  30.983   2.754
49133W        W21459  16.680  15.645   9.947
49134W        W21460  24.180   6.310   4.230
49135W        W21461  23.716  24.210  13.398
49136W        W21462  16.665  26.088  10.631
49137W        W21463   0.879   0.314   0.254
49138W        W21464  32.584  43.503  13.856
49139W        W21465  21.693  41.345   3.234
49140W        W21466   8.165   3.800   2.822
49141W        W21467   3.387  13.791   3.292
49142W        W21468  18.647  33.076  14.864
49143W        W21469  17.247   2.840   0.830
49144W        W21470  13.730  40.914   3.752
49145W        W21471   9.152  37.557   1.801
49146W        W21472  29.481  37.338  13.962
49147W        W21473  43.482  27.181   4.817
49148W        W21474  22.056  29.039   0.442
49149W        W21475  15.660  29.589  11.128
49150W        W21476  19.622  11.698   4.117
49151W        W21477  36.947  28.529   4.757
49152W        W21478  10.801  32.070  14.315
49153W        W21479  34.098  14.749  14.451
49154W        W21480  28.538  14.187   1.386
49155W        W21481  27.990  17.577  11.458
49156W        W21482  18.775  32.975  13.040
49157W        W21483  20.573  25.647  13.448
49158W        W21484  38.976  33.454  12.003
49159W        W21485  20.233  20.657   4.600
49160W        W21486   0.491   9.766  12.042
49161W        W21487  23.527  44.948   3.154
49162W        W21488  24.567   1.952   1.849
49163W        W21489  30.657  22.514   1.748
49164W        W21490  15.655  28.565   1.340
49165W        W21491   8.193  22.531  13.795
49166W        W21492  22.147   9.250   1.235
49167W        W21493  35.898  18.159   4.665
49168W        W21494  17.282  11.289   4.250
49169W        W21495  12.643  13.663  14.337
49170W        W21496  16.103  30.119  14.926
49171W        W21497  20.537  12.255  13.024
49172W        W21498   4.775  32.962   1.419
49173W        W21499   8.841  29.120  14.472
49174W        W21500   5.407  16.640   4.785
49175W        W21501  15.601  19.249   1.302
49176W        W21502  23.671  20.658   3.376
49177W        W21503   9.282   3.878  14.812
49178W        W21504  11.255  18.182   4.165
49179W        W21505   7.251  19.212  11.948
49180W        W21506   8.371   0.760  14.794
49181W        W21507  25.986  30.548  13.430
49182W        W21508  39.494  12.623   2.332
49183W        W21509  24.056  34.081  14.791
49184W        W21510   7.385  41.008  11.480
49185W        W21511  32.959  34.566   5.243
49186W        W21512   3.437  24.148   3.348
49187W        W21513  26.175  26.641  10.141
49188W        W21514  35.406  32.123  10.151
49189W        W21515   1.421  35.441  14.846
49190W        W21516  17.243  37.039  11.022
49191W        W21517   1.376  32.126   4.708
49192W        W21518  23.509   1.448  12.362
49193W        W21519  41.012  33.465   3.717
49194W        W21520  39.349  23.731  13.406
49195W        W21521  13.672  42.458  10.934
49196W        W21522  40.451  22.025  13.858
49197W        W21523  17.686   3.745   4.827
49198W        W21524  18.225  43.004  11.120
49199W        W21525   9.193   5.732  10.447
49200W        W21526  16.152   9.355   1.827
49201W        W21527  41.015  21.513  13.832
49202W        W21528  16.644  31.930  14.346
49203W        W21529   0.830  31.587   0.937
49204W        W21530  34.020   9.713  13.487
49205W        W21531  18.757   7.756  13.860
49206W        W21532  15.798   6.759  12.499
49207W        W21533   6.740   7.366  14.002
49208W        W21534  18.786  29.143   0.309
49209W        W21535   8.180  43.007   1.443
49210W        W21536  37.356  25.521  10.973
49211W        W21537  17.120  30.430   5.086
49212W        W21538  17.661  18.146  12.435
49213W        W21539  38.331  20.649   2.866
49214W        W21540   6.869  39.857  13.829
49215W        W21541  25.119  21.019  14.360
49216W        W21542   5.700  26.976   4.632
49217W        W21543  14.197  41.518  11.063
49218W        W21544  25.035  44.950   3.755
49219W        W21545  42.845   8.767   2.740
49220W        W21546  40.981   6.405   0.949
49221W        W21547  33.890  21.022   0.880
49222W        W21548   8.188  34.535  14.446
49223W        W21549  26.055   1.928  11.534
49224W        W21550   5.212  36.847  11.496
49225W        W21551  39.431  15.650   0.268
49226W        W21552  42.432  44.937  13.961
49227W        W21553  38.952  24.052   3.782
49228W        W21554   3.289  41.345  10.418
49229W        W21555  11.632   4.774   2.179
49230W        W21556  33.422   2.356   5.307
49231W        W21557   0.423   8.198  11.413
49232W        W21558  16.666  34.442   0.849
49233W        W21559  26.972  44.455   0.456
49234W        W21560  18.098  10.196   3.249
49235W        W21561   3.867  44.436   2.873
49236W        W21562  26.458   1.387   3.317
49237W        W21563   5.257  23.084  12.387
49238W        W21564  10.231  44.459  11.575
49239W        W21565   5.795   5.900  11.054
49240W        W21566  27.493  12.244   3.719
49241W        W21567  22.673  16.708  14.355
49242W        W21568   9.814  21.071   1.855
49243W        W21569  24.024  32.561  14.864
49244W        W21570  17.157  36.994   4.263
49245W        W21571  36.365  11.246   0.408
49246W        W21572  23.628  12.206  14.848
49247W        W21573  28.005  35.969   1.441
49248W        W21574  38.044  10.712  11.057
49249W        W21575  14.588  28.009  14.363
49250W        W21576  29.613   3.381   2.727
49251W        W21577  33.537  29.079   0.444
49252W        W21578   7.276   6.215  14.881
49253W        W21579  37.420  11.312  10.620
49254W        W21580  20.555  36.453  12.442
49255W        W21581   8.810  36.973  11.549
49256W        W21582   8.832  12.343   3.645
49257W        W21583  43.878  26.187   2.841
49258W        W21584  38.479  40.013   0.835
49259W        W21585   2.230   3.775  14.365
49260W        W21586  16.720  41.847   2.708
49261W        W21587  21.742  41.940   2.756
49262W        W21588  15.214  15.089   2.790
49263W        W21589  30.498  23.201   0.786
49264W        W21590  34.496   2.918   2.216
49265W        W21591   1.776   6.696  12.552
49266W        W21592   2.396  23.991   4.688
49267W        W21593  24.598  25.543   3.261
49268W        W21594  34.558  26.628   0.804
49269W        W21595  22.156  41.923  10.559
49270W        W21596  34.999   6.747  12.944
49271W        W21597   6.853   2.297  14.323
49272W        W21598  15.647   6.790  14.925
49273W        W21599  37.837  24.609   1.369
49274W        W21600  32.424  39.037   3.240
49275W        W21601  13.143  36.874   9.552
49276W        W21602  18.109   5.827   3.737
49277W        W21603  32.484  28.444   3.195
49278W        W21604  38.987  41.983   0.750
49279W        W21605   0.391  21.597   0.301
49280W        W21606   5.270  25.479  14.415
49281W        W21607  28.641  15.601  13.395
49282W        W21608  25.569  37.953   2.395
49283W        W21609  20.712  17.752  10.590
49284W        W21610  38.019   2.787  12.989
49285W        W21611  27.147   5.893   0.893
49286W        W21612  12.793  23.115   0.727
49287W        W21613   1.791  11.638   3.222
49288W        W21614  15.167  18.133  11.601
49289W        W21615  41.538  18.555  13.987
49290W        W21616  32.906  43.351  12.433
49291W        W21617   1.244  24.132  12.955
49292W        W21618  26.042  21.696  12.546
49293W        W21619   5.734  30.468   2.888
49294W        W21620  39.973   3.759  13.902
49295W        W21621  25.053   6.791   1.918
49296W        W21622  37.480  15.216   0.956
49297W        W21623   4.714  10.833   1.324
49298W        W21624  26.047  34.940  12.462
49299W        W21625  23.507  32.635  11.607
49300W        W21626  33.879  18.254  11.015
49301W        W21627   2.231   6.874   2.305
49302W        W21628  12.842  23.631   0.841
49303W        W21629   7.856  38.980   3.773
49304W        W21630  19.584   5.828   3.848
49305W        W21631  28.144  17.561  12.855
49306W        W21632   7.383  38.550   3.640
49307W        W21633   3.332  28.629  14.005
49308W        W21634  36.516  39.013  13.977
49309W        W21635   8.870  14.252  13.955
49310W        W21636   5.820   8.720   4.237
49311W        W21637  28.497   0.300  11.491
49312W        W21638  39.895  36.082  14.383
49313W        W21639  23.017   8.704   2.258
49314W        W21640  29.484   5.891   0.827
49315W        W21641  43.779   8.737  12.573
49316W        W21642  18.567  19.154  11.609
49317W        W21643  25.055   7.742  10.405
49318W        W21644  12.334   4.422   4.252
49319W        W21645  32.633  35.570   1.347
49320W        W21646  23.549  29.576  13.468
49321W        W21647  24.043  32.558   0.859
49322W        W21648  37.346   7.794  11.861
49323W        W21649  28.938   9.252   3.362
49324W        W21650   0.899  37.365  10.894
49325W        W21651  22.669  34.969  11.531
49326W        W21652   7.780   5.772   1.871
49327W        W21653  17.679  19.098   0.959
49328W        W21654  34.040  24.539   0.756
49329W        W21655   0.980  10.876   4.163
49330W        W21656  42.817  41.993   4.681
49331W        W21657  32.898  44.269  10.408
49332W        W21658  27.577  38.533  14.444
49333W        W21659  42.794  16.275  11.868
49334W        W21660   9.166  41.923   0.395
49335W        W21661  14.743   4.884  11.969
49336W        W21662  17.644  19.703   2.401
49337W        W21663  24.208  19.661  12.834
49338W        W21664  22.023   6.833  14.889
49339W        W21665  13.771   8.892   1.337
49340W        W21666  42.482   7.840  14.995
49341W        W21667  32.939  38.982  11.427
49342W        W21668  30.618  24.068  12.035
49343W        W21669  35.073   8.893   4.783
49344W        W21670  38.014  12.652   1.702
49345W        W21671  34.041  21.237   3.253
49346W        W21672  34.399  14.796   0.836
49347W        W21673  40.037  19.533  10.927
49348W        W21674   2.743  10.838   2.363
49349W        W21675  39.550  35.991  13.523
49350W        W21676  25.650   8.748   9.923
49351W        W21677  29.041  36.365  12.077
49352W        W21678  21.748  18.231   2.217
49353W        W21679   9.306  36.369  14.846
49354W        W21680  25.559  40.371   4.183
49355W        W21681  15.634  28.635  11.427
49356W        W21682  32.395  13.623  11.052
49357W        W21683  11.246  11.216   4.116
49358W        W21684  35.861  38.570  12.910
49359W        W21685   8.722  30.444  10.489
49360W        W21686   1.354  23.629   3.672
49361W        W21687  18.594  17.106   1.342
49362W        W21688  18.074  27.460  11.046
49363W        W21689   5.387  29.028   1.450
49364W        W21690  42.303  33.997   0.430
49365W        W21691  31.637   3.854   0.930
49366W        W21692  23.668   0.337   0.359
49367W        W21693  35.100  31.124   1.451
49368W        W21694   8.772  12.140  13.060
49369W        W21695  19.554  44.501   5.228
49370W        W21696  12.297   1.895   2.231
49371W        W21697   7.206  22.243  14.413
49372W        W21698  43.389  39.058   3.185
49373W        W21699  33.435  40.478   3.684
49374W        W21700  17.612  10.695   1.410
49375W        W21701  11.865  32.413  14.362
49376W        W21702  25.204  40.935  11.372
49377W        W21703  20.135  44.292  10.894
49378W        W21704  22.617  25.682  12.487
49379W        W21705  22.521  30.591   2.325
49380W        W21706  29.950  32.134  14.999
49381W        W21707  44.936  20.130  12.003
49382W        W21708  26.110   7.897   4.726
49383W        W21709  35.438  37.957   0.902
49384W        W21710  37.391  29.664  14.807
49385W        W21711  17.711  36.574  13.318
49386W        W21712  28.436  23.560  13.932
49387W        W21713  12.736  34.435   9.940
49388W        W21714  29.657  18.781  13.524
49389W        W21715  18.250  31.962  13.060
49390W        W21716  12.166  19.199   3.245
49391W        W21717   7.257   8.790  12.094
49392W        W21718  14.830  18.676  14.970
49393W        W21719   8.736  15.816   2.740
49394W        W21720   5.213  28.022  11.041
49395W        W21721  14.660  42.947  11.093
49396W        W21722  33.993  26.528   2.743
49397W        W21723  35.578  22.635   2.791
49398W        W21724   9.360  15.295  13.060
49399W        W21725  40.424  23.033  10.479
49400W        W21726  40.524  11.739   3.777
49401W        W21727   4.781  28.186   5.229
49402W        W21728   8.241   3.848  10.525
49403W        W21729   2.348  11.766   0.275
49404W        W21730   0.940   4.287   3.306
49405W        W21731  33.048  40.984   3.655
49406W        W21732  41.353  41.536   3.188
49407W        W21733  22.141  30.062   2.214
49408W        W21734  40.939  14.653  14.882
49409W        W21735   5.423  21.680  12.985
49410W        W21736  27.509   4.822   4.628
49411W        W21737  30.545   7.802   4.652
49412W        W21738  13.659  36.446  13.407
49413W        W21739  21.055  17.771  12.568
49414W        W21740  21.095  24.691  13.949
49415W        W21741  12.719  12.749  14.276
49416W        W21742  24.599  41.381   0.417
49417W        W21743   8.776  41.878   0.819
49418W        W21744  25.674  14.717   0.733
49419W        W21745  21.597   0.421   4.759
49420W        W21746  33.080  25.649   3.244
49421W        W21747  15.759  30.916  14.029
49422W        W21748  12.237  25.971  14.339
49423W        W21749  15.302  18.697  12.964
49424W        W21750   3.761  17.190   3.754
49425W        W21751  17.761  37.952  12.578
49426W        W21752  28.440   6.682   3.802
49427W        W21753  35.878  28.950  11.897
49428W        W21754  19.074  37.905   0.847
49429W        W21755  13.228  41.902   2.219
49430W        W21756  43.322  26.206  13.439
49431W        W21757  29.107  12.301  13.869
49432W        W21758  22.006   9.694  13.952
49433W        W21759  42.400  24.684   0.893
49434W        W21760  39.470  34.523  14.875
49435W        W21761   6.278  20.606   3.183
49436W        W21762  25.542  27.119  11.913
49437W        W21763  25.195  28.060  12.886
49438W        W21764  24.010  12.181   3.790
49439W        W21765  28.111  26.528  14.457
49440W        W21766   3.952  44.464   0.910
49441W        W21767  18.741  15.600  14.405
49442W        W21768  20.734  38.461  14.298
49443W        W21769  16.235   7.724  11.034
49444W        W21770  38.064  29.445   4.809
49445W        W21771  36.561  34.875   4.683
49446W        W21772  28.043  32.025   4.740
49447W        W21773  18.778  43.909   2.815
49448W        W21774  17.575  33.520   4.720
49449W        W21775  17.759  28.485   2.883
49450W        W21776  42.436  42.387  12.938
49451W        W21777  30.635  24.116   1.262
49452W        W21778  43.946  12.610  13.996
49453W        W21779  28.050   6.763  10.411
49454W        W21780  34.461  26.966   0.739
49455W        W21781  34.930   4.350   4.728
49456W        W21782  44.283  10.144  14.477
49457W        W21783   7.701  35.916   2.804
49458W        W21784  24.188  18.547   3.168
49459W        W21785   8.893  13.811   1.781
49460W        W21786  13.621  35.483   0.278
49461W        W21787  35.525  11.262   0.951
49462W        W21788  16.262   1.270  13.449
49463W        W21789  13.284  31.635  12.092
49464W        W21790  12.739  27.025  12.026
49465W        W21791   5.908  19.116   2.733
49466W        W21792  36.026  26.537   1.273
49467W        W21793  23.613  17.302  11.024
49468W        W21794  28.078  31.470   4.664
49469W        W21795  28.948   1.352  11.125
49470W        W21796   5.814  30.164   0.242
49471W        W21797  12.317  35.879  14.354
49472W        W21798  28.997  15.166  13.001
49473W        W21799  29.994  12.127  13.540
49474W        W21800  20.032  17.161   3.168
49475W        W21801   8.291  19.167  11.570
49476W        W21802  17.739  31.904  14.498
49477W        W21803  27.977   2.323  12.028
49478W        W21804  17.175   4.405   3.172
49479W        W21805  28.973  31.410  13.315
49480W        W21806  30.581  33.579   4.670
49481W        W21807  31.898   4.278  12.017
49482W        W21808   0.336  11.174   4.771
49483W        W21809  22.153   6.413   2.378
49484W        W21810   7.820   3.350   1.435
49485W        W21811  21.603  39.520   3.652
49486W        W21812  32.466  18.737  11.391
49487W        W21813  38.429  21.236  11.887
49488W        W21814  13.158  30.557  12.906
49489W        W21815  36.433  15.608   4.598
49490W        W21816  36.532  22.633   1.694
49491W        W21817  36.568  24.579  11.477
49492W        W21818  10.342   2.895   2.768
49493W        W21819  27.048  42.454  11.567
49494W        W21820  28.094  14.833   2.820
49495W        W21821  19.670  13.290  11.976
49496W        W21822  39.057  29.984  10.427
49497W        W21823  24.090  40.376   3.769
49498W        W21824  35.969   0.858  12.077
49499W        W21825  15.189  40.533   0.254
49500W        W21826  17.791  32.469   1.792
49501W        W21827  44.462  41.453  11.120
49502W        W21828  30.479  43.859   1.874
49503W        W21829   7.179  17.173  11.010
49504W        W21830  28.071   3.724   5.167
49505W        W21831   5.887  42.356   1.326
49506W        W21832   4.353  11.158  11.066
49507W        W21833  15.789  31.469   1.723
49508W        W21834  37.930  19.717   4.277
49509W        W21835  31.093  43.434   3.658
49510W        W21836  23.493  12.276   3.275
49511W        W21837  40.047  38.838   1.373
49512W        W21838   4.397  44.457  11.455
49513W        W21839  40.805   9.772   0.794
49514W        W21840  33.582  22.246   0.246
49515W        W21841   3.306  23.610  11.041
49516W        W21842   6.832   7.274   2.314
49517W        W21843  22.711  12.612   0.771
49518W        W21844  11.638  14.267   4.730
49519W        W21845  25.538   7.293   2.900
49520W        W21846  40.919  43.974  10.575
49521W        W21847  11.796  21.069   3.723
49522W        W21848   3.876  33.432   0.455
49523W        W21849  32.614  20.149   1.790
49524W        W21850  25.662  17.602   4.350
49525W        W21851   1.458  41.919   4.731
49526W        W21852  15.694  39.397   3.251
49527W        W21853   2.267  44.931  10.919
49528W        W21854   5.255  14.290   0.292
49529W        W21855  17.684   1.945   0.943
49530W        W21856   6.865   5.913   1.798
49531W        W21857   6.420  34.542   0.855
49532W        W21858   8.678  13.110  13.425
49533W        W21859  32.541  14.136  10.997
49534W        W21860  12.701  32.419   3.178
49535W        W21861  37.580   2.415   0.950
49536W        W21862   2.953  35.107   0.897
49537W        W21863   8.770  32.908  13.312
49538W        W21864   4.796  35.448  14.448
49539W        W21865  38.559  29.624  11.106
49540W        W21866  34.577  28.941  14.350
49541W        W21867  41.302  17.789  11.505
49542W        W21868   5.227  25.572   2.287
49543W        W21869   8.779  16.077  14.384
49544W        W21870  41.022  34.592   3.219
49545W        W21871  23.551   1.960   3.725
49546W        W21872  44.357  21.128  14.315
49547W        W21873  35.046   0.987   5.183
49548W        W21874  15.650  31.934  12.511
49549W        W21875  22.014  40.404  14.951
49550W        W21876  11.211  31.537  12.867
49551W        W21877  38.520   8.356  14.822
49552W        W21878  41.353  40.327  11.401
49553W        W21879   2.349  16.275  11.428
49554W        W21880  21.582  19.548   2.818
49555W        W21881  33.991  42.496  14.978
49556W        W21882  44.421  38.828  10.520
49557W        W21883  15.756  17.696   0.279
49558W        W21884  10.283  23.599   0.860
49559W        W21885   7.710   4.259   3.715
49560W        W21886  33.970   3.910   3.660
49561W        W21887   2.292   0.483   4.160
49562W        W21888  16.680  18.608   2.804
49563W        W21889  27.023   6.335   1.875
49564W        W21890  41.427  15.752  13.034
49565W        W21891  18.148  34.471  14.837
49566W        W21892  10.735  31.918   2.345
49567W        W21893   3.755  39.395   3.192
49568W        W21894  32.576  16.696   1.394
49569W        W21895  10.749  23.003  11.864
49570W        W21896  34.445  42.899   3.308
49571W        W21897   1.769  24.567  12.375
49572W        W21898  24.123  13.350  11.565
49573W        W21899  40.009  28.561  12.487
49574W        W21900  10.151  43.303  14.952
49575W        W21901  25.597  27.108   0.383
49576W        W21902   8.274  26.009   3.757
49577W        W21903  20.242  18.182  11.079
49578W        W21904  14.139  19.047  10.926
49579W        W21905   9.162  17.165   0.274
49580W        W21906  12.359  39.456   1.888
49581W        W21907  44.997   8.190   2.318
49582W        W21908   4.850  22.250   4.668
49583W        W21909  14.178   0.833   5.113
49584W        W21910   9.815  27.159  12.033
49585W        W21911   9.238  12.154   1.357
49586W        W21912  15.778  39.353  13.357
49587W        W21913  20.529  39.441   2.339
49588W        W21914  21.542  17.264   1.280
49589W        W21915  26.642  20.571  13.940
49590W        W21916  32.098  43.453  11.857
49591W        W21917  19.765   5.743  13.471
49592W        W21918  12.149   0.371   1.349
49593W        W21919  41.462   3.440  11.056
49594W        W21920  38.860   8.815   9.990
49595W        W21921  26.960  40.006   4.757
49596W        W21922   0.918  32.557  14.290
49597W        W21923   8.361   3.844   4.252
49598W        W21924  12.787  20.192  10.540
49599W        W21925  15.203  42.789  10.423
49600W        W21926  44.389  17.306  13.362
49601W        W21927  42.435  16.723  11.497
49602W        W21928  40.377  19.194   3.287
49603W        W21929   9.661   6.773  12.870
49604W        W21930   7.844  16.674   1.260
49605W        W21931   3.301  23.549  14.853
49606W        W21932   9.385  18.248   3.634
49607W        W21933  25.589  20.591   2.846
49608W        W21934  44.428  16.246   0.484
49609W        W21935  16.693  28.457   0.328
49610W        W21936   0.431  35.473  10.423
49611W        W21937  16.280  35.467   2.736
49612W        W21938   8.301   7.678   4.672
49613W        W21939  12.701  27.062  10.970
49614W        W21940  16.676   6.736  14.418
49615W        W21941  33.492   6.890  13.526
49616W        W21942  27.477   8.814   3.255
49617W        W21943  18.162  24.182  11.091
49618W        W21944  20.063  38.004  14.300
49619W        W21945  30.933  12.303  13.964
49620W        W21946  19.254  43.351   2.252
49621W        W21947  33.955  14.703   4.238
49622W        W21948  20.682  40.826   1.847
49623W        W21949  16.663  42.016  14.364
49624W        W21950  17.149  43.370  12.475
49625W        W21951   0.747   0.261   3.713
49626W        W21952   1.908   0.358  11.603
49627W        W21953  35.604   1.735   0.321
49628W        W21954  14.330  26.086   2.262
49629W        W21955  15.810  40.361   0.845
49630W        W21956  25.075  37.002   2.313
49631W        W21957  30.544   6.279   2.241
49632W        W21958   0.319  15.760   3.832
49633W        W21959  11.785   7.290  10.950
49634W        W21960  37.449  37.066  12.454
49635W        W21961  31.600   6.761  12.928
49636W        W21962   9.787  36.050   0.793
49637W        W21963  30.974  21.244   5.283
49638W        W21964  28.027   2.861   2.680
49639W        W21965  25.088   8.317   1.304
49640W        W21966   8.217  33.448   0.854
49641W        W21967  25.639  26.609  14.808
49642W        W21968  35.469   2.418   0.870
49643W        W21969  16.149  23.041   2.231
49644W        W21970  12.132  15.643  13.051
49645W        W21971  32.957  39.528   3.669
49646W        W21972  28.550   7.262  14.415
49647W        W21973   7.810  12.734  10.591
49648W        W21974  14.153  31.919  14.868
49649W        W21975   0.884  24.990   4.716
49650W        W21976  33.030   6.390  14.471
49651W        W21977  30.513  40.509   1.412
49652W        W21978   2.784  22.056  13.496
49653W        W21979  12.360   6.221   4.121
49654W        W21980  17.561  31.477  10.404
49655W        W21981  25.577  33.398  10.971
49656W        W21982  33.916  37.832   0.874
49657W        W21983  36.923  30.059   2.706
49658W        W21984  10.164  42.423   5.110
49659W        W21985   4.727   9.376   4.266
49660W        W21986  25.061  40.972   0.897
49661W        W21987  24.012  27.054   1.815
49662W        W21988  16.694  37.554  14.412
49663W        W21989  37.920  38.363  11.118
49664W        W21990  20.562  37.951  13.933
49665W        W21991  12.720   4.415  12.457
49666W        W21992   4.846  31.550  12.478
49667W        W21993  10.845  16.181   3.252
49668W        W21994  16.668  41.853  14.798
49669W        W21995  12.318  26.019   2.254
49670W        W21996  12.760  36.498   4.231
49671W        W21997  43.805  39.917  11.982
49672W        W21998  25.040   4.726  14.508
49673W        W21999   9.246   0.808   3.364
49674W        W22000  21.681  19.053  12.060
49675W        W22001  33.485  20.165  12.356
49676W        W22002  27.011  44.283   2.265
49677W        W22003  30.576  40.359   0.470
49678W        W22004  12.639  26.076  10.062
49679W        W22005  30.928  12.339  11.957
49680W        W22006  37.565  29.944  13.897
49681W        W22007  38.858  44.992  11.035
49682W        W22008  24.181  25.007  14.507
49683W        W22009  24.024  30.991  11.860
49684W        W22010   4.256  18.735  15.000
49685W        W22011  39.364  26.700   2.856
49686W        W22012  31.952  31.585   2.735
49687W        W22013  31.470  30.414   2.768
49688W        W22014  30.065  32.902  14.279
49689W        W22015  10.852  11.216  11.091
49690W        W22016  29.555  33.077  11.473
49691W        W22017  13.706   9.764   4.817
49692W        W22018   5.688  19.193   3.196
49693W        W22019  16.787  12.268  11.917
49694W        W22020  33.910  38.947   4.755
49695W        W22021  14.822  30.957  14.514
49696W        W22022  40.309   7.221   4.712
49697W        W22023  32.503  28.937  13.951
49698W        W22024  39.862  36.924   1.935
49699W        W22025  26.075   9.179  12.998
49700W        W22026  38.956   1.827  12.085
49701W        W22027  23.665   5.830  12.896
49702W        W22028   2.813  14.812   2.226
49703W        W22029  33.474  38.068  14.492
49704W        W22030   7.909  38.423  12.479
49705W        W22031   0.829   6.797   1.429
49706W        W22032   5.779  28.648  14.025
49707W        W22033  33.011  18.161   1.343
49708W        W22034  25.708   9.849  12.441
49709W        W22035  42.965   3.234  10.608
49710W        W22036  34.468  25.205   0.804
49711W        W22037  32.508   6.374   2.382
49712W        W22038  44.963  35.926  12.359
49713W        W22039  23.580   4.279  10.587
49714W        W22040  44.868  38.075   2.258
49715W        W22041  43.445  24.546   2.687
49716W        W22042  30.545  32.434   2.740
49717W        W22043  23.060  31.617   2.756
49718W        W22044  34.420  15.228   3.668
49719W        W22045  27.007  36.529  10.577
49720W        W22046   5.217  32.052   0.266
49721W        W22047  39.932  20.524   2.217
49722W        W22048  41.511  33.103   4.169
49723W        W22049  24.048  29.665  14.919
49724W        W22050  15.326  42.314  13.314
49725W        W22051  12.266  26.546   2.813
49726W        W22052  36.862  33.903   5.659
49727W        W22053  36.084   3.392   4.244
49728W        W22054  10.357  43.798   2.762
49729W        W22055  23.588  36.048   1.426
49730W        W22056   6.866  28.135   2.856
49731W        W22057  19.741  14.591   2.726
49732W        W22058   4.369  23.037   2.676
49733W        W22059  40.915  20.744  14.491
49734W        W22060  24.487  16.754   3.223
49735W        W22061   4.284  18.786  11.883
49736W        W22062  38.334   2.261  14.892
49737W        W22063  29.132  34.946   3.652
49738W        W22064  11.242   5.792   0.311
49739W        W22065  26.022  10.691  12.989
49740W        W22066  14.151  28.619   1.368
49741W        W22067  33.078   9.674   1.796
49742W        W22068  27.664  28.557   9.927
49743W        W22069  40.980  20.719  12.490
49744W        W22070  35.979   4.380   2.370
49745W        W22071  12.188   8.321   1.346
49746W        W22072  33.041   7.679   1.385
49747W        W22073   3.866  10.289   4.795
49748W        W22074   1.977  41.031  12.096
49749W        W22075  37.868  28.678   1.377
49750W        W22076  11.868  37.355  10.537
49751W        W22077  29.545  18.090   1.721
49752W        W22078  26.141  29.939   0.810
49753W        W22079  13.785  12.840   4.747
49754W        W22080  10.829   3.874  14.485
49755W        W22081  11.131  44.363  10.968
49756W        W22082   9.765  29.044   2.272
49757W        W22083   3.341  37.344  10.544
49758W        W22084   2.294   3.332  12.917
49759W        W22085  11.714   7.816  12.375
49760W        W22086  32.420  37.337   3.826
49761W        W22087  32.630  15.806  10.972
49762W        W22088  15.139  42.480   2.366
49763W        W22089  22.011  17.083  14.362
49764W        W22090  41.809  12.351   1.895
49765W        W22091  42.496   1.832  10.915
49766W        W22092  26.056   0.819   1.320
49767W        W22093  44.499  24.989   4.703
49768W        W22094  29.104  18.261  13.984
49769W        W22095   6.235  27.965  14.980
49770W        W22096   2.957  42.980  11.538
49771W        W22097  26.633  13.631   0.841
49772W        W22098  25.618  41.516  14.888
49773W        W22099   9.813  10.640   0.918
49774W        W22100  17.776  19.285   3.686
49775W        W22101   7.832  34.000   4.779
49776W        W22102   6.357  40.813  13.483
49777W        W22103   0.441   7.311  11.406
49778W        W22104  21.618   9.187  14.437
49779W        W22105  29.171  39.868   0.967
49780W        W22106  15.671  24.087  10.479
49781W        W22107   5.716  23.575   1.310
49782W        W22108  41.882   0.845   1.224
49783W        W22109  18.661   6.375   1.901
49784W        W22110  41.804  21.081   3.302
49785W        W22111  29.086  42.316   1.776
49786W        W22112  23.640  20.676   1.797
49787W        W22113  39.406  27.559   0.784
49788W        W22114   6.322  28.626  12.437
49789W        W22115  13.300  19.200   4.619
49790W        W22116  31.401   3.800   4.335
49791W        W22117  14.740  44.911  12.517
49792W        W22118  28.056  38.913   1.747
49793W        W22119  11.195   8.302   4.149
49794W        W22120  34.015  29.517   3.233
49795W        W22121  28.943  29.470  10.975
49796W        W22122  34.972  10.741   3.285
49797W        W22123  36.463   4.342   3.333
49798W        W22124  40.914  11.794   2.879
49799W        W22125  39.475  40.349  11.872
49800W        W22126  14.626  28.549   4.217
49801W        W22127  16.280  11.659  10.440
49802W        W22128  19.777  37.932  10.428
49803W        W22129  22.669  12.845   3.689
49804W        W22130  41.481  26.603   0.929
49805W        W22131  11.783   5.727  10.511
49806W        W22132  39.498  32.060  13.337
49807W        W22133  33.570   7.376   3.276
49808W        W22134  44.299  12.268   3.322
49809W        W22135  16.222  24.985   5.081
49810W        W22136  24.063  42.357  10.512
49811W        W22137   9.779  23.591  10.448
49812W        W22138  14.208  26.052   1.734
49813W        W22139  44.413  22.729  14.893
49814W        W22140  39.924  15.156   1.352
49815W        W22141  38.519  36.557   3.787
49816W        W22142  33.053  33.386  14.770
49817W        W22143  22.661  24.149   2.731
49818W        W22144  28.437  24.108  11.970
49819W        W22145  16.622  31.932  13.425
49820W        W22146  23.120   1.818   0.876
49821W        W22147   9.736   0.901  14.788
49822W        W22148  28.031  43.825  11.971
49823W        W22149  41.007  13.724  10.551
49824W        W22150  35.935  34.077  13.367
49825W        W22151   6.296  37.407  10.896
49826W        W22152  19.281  20.545  13.818
49827W        W22153  37.382  40.870  13.909
49828W        W22154  13.630  40.465  13.842
49829W        W22155  28.025   6.712   1.236
49830W        W22156  38.847  32.123   0.425
49831W        W22157  42.869  40.840  12.874
49832W        W22158   0.309  15.162   0.767
49833W        W22159  11.284  34.029  11.887
49834W        W22160  13.197   4.925   4.635
49835W        W22161  26.191  28.584   2.800
49836W        W22162  23.035  20.242  11.440
49837W        W22163  19.145  42.792  13.321
49838W        W22164  33.065  12.347   3.662
49839W        W22165   7.766  28.955   4.350
49840W        W22166   1.344   4.411   4.687
49841W        W22167   3.893   3.794   0.789
49842W        W22168  41.468   1.259   4.336
49843W        W22169  34.867  34.092  14.964
49844W        W22170   1.876  14.672  11.874
49845W        W22171  17.746  17.761   1.846
49846W        W22172  44.413   0.317  11.436
49847W        W22173  38.856  14.174   1.834
49848W        W22174  34.066  11.656   4.839
49849W        W22175  26.627   5.330  14.288
49850W        W22176  26.027  36.349  11.008
49851W        W22177  44.959   0.342  11.074
49852W        W22178   9.798  44.846  14.363
49853W        W22179  14.618  19.730  12.826
49854W        W22180  15.772  41.520  14.862
49855W        W22181  21.212  23.503  12.448
49856W        W22182  43.806  10.226   2.311
49857W        W22183  27.665   9.261   4.237
49858W        W22184  10.290   9.741  11.972
49859W        W22185  13.719  31.483  10.590
49860W        W22186  10.685   7.406  11.029
49861W        W22187  33.953  26.557   0.892
49862W        W22188   1.445  22.151  10.034
49863W        W22189   5.854  29.156  13.840
49864W        W22190  23.058  12.309  11.468
49865W        W22191  31.138  31.918  11.455
49866W        W22192  44.372  10.843   3.859
49867W        W22193  41.533   9.684   2.725
49868W        W22194   0.474  12.246   1.368
49869W        W22195  25.535  17.274  14.412
49870W        W22196  12.273  22.625  14.427
49871W        W22197   9.153  16.249  11.535
49872W        W22198  18.560  44.789   4.117
49873W        W22199  11.361  15.317  12.968
49874W        W22200  33.408   6.256   4.647
49875W        W22201  38.912  18.258   9.975
49876W        W22202  29.640  26.172   0.460
49877W        W22203   3.765   7.289  11.475
49878W        W22204  41.486  20.098   1.263
49879W        W22205  35.467  25.099  10.576
49880W        W22206  30.445  38.382  11.010
49881W        W22207  43.419  37.558  12.854
49882W        W22208  31.100  34.491   0.888
49883W        W22209  29.424  14.204  11.475
49884W        W22210  24.189  21.241   0.424
49885W        W22211  18.608  32.887   1.898
49886W        W22212  37.922  18.547  13.819
49887W        W22213  34.410  21.661   1.284
49888W        W22214   3.811  42.437   3.266
49889W        W22215  43.928  40.847  11.471
49890W        W22216  38.976   3.357  10.424
49891W        W22217  35.921  32.922  13.862
49892W        W22218  20.236  13.331   4.117
49893W        W22219  14.322  25.053  12.829
49894W        W22220  25.029  43.503   2.723
49895W        W22221  27.578  19.624   2.800
49896W        W22222  32.918   7.737   3.324
49897W        W22223  43.400  37.428  10.403
49898W        W22224  14.256   8.326   0.294
49899W        W22225  12.664  28.152   2.718
49900W        W22226  21.752  18.609  13.338
49901W        W22227   4.715   6.252   5.112
49902W        W22228  18.742  30.574   1.408
49903W        W22229  16.299   4.811  13.426
49904W        W22230  28.102  10.209   2.268
49905W        W22231  28.656   6.763  11.590
49906W        W22232  38.474  25.613   0.779
49907W        W22233  13.297  35.853   4.137
49908W        W22234  30.581  19.728   1.814
49909W        W22235  40.047  42.364   2.680
49910W        W22236  15.145  34.516  14.914
49911W        W22237  40.441  31.544  11.876
49912W        W22238   8.808   9.320  12.019
49913W        W22239  44.299  32.142   3.171
49914W        W22240  32.899  24.056   0.469
49915W        W22241  24.219  21.086   3.722
49916W        W22242  26.035  42.850  14.902
49917W        W22243  32.588  23.039   2.377
49918W        W22244  10.218  32.617   1.724
49919W        W22245   6.832  35.988  11.519
49920W        W22246  42.944  17.264   5.279
49921W        W22247  13.787  32.573   2.726
49922W        W22248  33.023  18.147  11.427
49923W        W22249  18.149  29.473   2.334
49924W        W22250  17.572  40.048   1.338
49925W        W22251  22.635  27.574   2.838
49926W        W22252  30.919  39.910   2.853
49927W        W22253  36.515  33.468   3.672
49928W        W22254   7.239   6.354  13.330
49929W        W22255  37.085  34.436  10.624
49930W        W22256  23.220  36.056   1.327
49931W        W22257  35.507  12.308  10.448
49932W        W22258  34.992  36.924   4.711
49933W        W22259   2.316   9.218  10.568
49934W        W22260  14.168   2.466   1.451
49935W        W22261  31.057  24.498  14.791
49936W        W22262   2.333  43.438  14.418
49937W        W22263  10.793  17.572   2.699
49938W        W22264  15.320  25.993  12.926
49939W        W22265  38.837  34.513  13.545
49940W        W22266  23.125   7.841   3.655
49941W        W22267   3.225  26.968  14.898
49942W        W22268  34.381  32.960   5.766
49943W        W22269  40.308  39.549   2.326
49944W        W22270   6.743  11.845  12.577
49945W        W22271  17.082  28.142  10.127
49946W        W22272  29.477   5.755  10.960
49947W        W22273  16.613  31.030  12.376
49948W        W22274  39.341  35.553   4.626
49949W        W22275   2.461  19.040   3.645
49950W        W22276   5.873  36.867  13.335
49951W        W22277  27.994  38.879  12.424
49952W        W22278  12.688  33.950  11.511
49953W        W22279  14.751   1.301   3.367
49954W        W22280   1.375  43.474  12.974
49955W        W22281  15.088  15.276   3.147
49956W        W22282  37.522  41.841  13.374
49957W        W22283  16.252  44.420  12.539
49958W        W22284  21.733  44.993   0.834
49959W        W22285  38.508  10.290  14.804
49960W        W22286  14.613  44.409   4.327
49961W        W22287  30.015  36.004   0.925
49962W        W22288  16.316   4.418   1.731
49963W        W22289   0.265  22.550   1.925
49964W        W22290  37.946  35.964  11.931
49965W        W22291  26.148   5.868   4.601
49966W        W22292  20.049   5.781  10.533
49967W        W22293  26.951  37.973   4.342
49968W        W22294  16.624  37.073  12.018
49969W        W22295   6.333  20.259  12.934
49970W        W22296  11.265  38.567  11.507
49971W        W22297  37.897  21.515   0.948
49972W        W22298  29.528   6.235   9.933
49973W        W22299   3.318  17.573  11.545
49974W        W22300  14.124   2.803  13.914
49975W        W22301  44.382  38.559   1.404
49976W        W22302  39.858  42.006   2.328
49977W        W22303  39.365  22.671  11.914
49978W        W22304  19.601   2.348   4.822
49979W        W22305  30.551  12.115  10.464
49980W        W22306  43.273  33.499  13.374
49981W        W22307  44.311   7.200   2.364
49982W        W22308  23.995  31.569  11.499
49983W        W22309   9.256  22.197  14.777
49984W        W22310  37.939   1.367  12.998
49985W        W22311  28.545  34.872   0.761
49986W        W22312  26.072  38.017   1.799
49987W        W22313  15.094  36.905  10.955
49988W        W22314  24.997  10.343   5.268
49989W        W22315   2.747  20.107  14.506
49990W        W22316   3.285  39.358   4.830
49991W        W22317  32.131  22.247  13.887
49992W        W22318  25.109  13.206  14.475
49993W        W22319  19.252   7.187   1.750
49994W        W22320  16.717   7.779  13.377
49995W        W22321  15.264  17.270   1.326
49996W        W22322  25.586  44.323  14.886
49997W        W22323  24.223  27.185   4.658
49998W        W22324  25.981  30.628  11.460
49999W        W22325  31.590  36.411   1.844
50000W        W22326  16.590  41.413   4.283
50001W        W22327  22.061  23.120   4.734
50002W        W22328   4.860  41.441   0.944
50003W        W22329  39.968  24.100   4.278
50004W        W22330  28.070  37.487  11.899
50005W        W22331   0.918  35.417   2.297
50006W        W22332   9.283  35.587  14.484
50007W        W22333   9.867  20.068   3.162
50008W        W22334   3.344  44.942   3.666
50009W        W22335   2.442  25.599  14.014
50010W        W22336   5.200  39.026   4.284
50011W        W22337  15.169  17.301   0.339
50012W        W22338  34.908   8.900  12.479
50013W        W22339  42.951  36.546  12.393
50014W        W22340  42.975  26.576  11.969
50015W        W22341   5.688   1.854   3.344
50016W        W22342   2.468  24.489  10.073
50017W        W22343  14.320   4.353   1.265
50018W        W22344  18.055   7.290  11.078
50019W        W22345   4.930  23.120   0.269
50020W        W22346  33.953  39.918  12.444
50021W        W22347  38.468  25.543  11.946
50022W        W22348  11.812  12.760  13.909
50023W        W22349   5.922  29.554  11.094
50024W        W22350   6.861   0.285  14.942
50025W        W22351   2.365  43.459  13.818
50026W        W22352  14.735  24.148   1.296
50027W        W22353  43.322  40.001   0.911
50028W        W22354  23.708  34.890   0.432
50029W        W22355   8.731  43.502  13.391
50030W        W22356  40.455   9.199  13.867
50031W        W22357   5.338  12.703   2.229
50032W        W22358  17.718  36.437  10.601
50033W        W22359  14.792  31.032  14.913
50034W        W22360  21.629  20.550  14.927
50035W        W22361  30.606  27.547   1.326
50036W        W22362   0.483  32.894   2.360
50037W        W22363  26.471  19.171   3.284
50038W        W22364  10.645   3.790   1.283
50039W        W22365  33.558  27.675   1.879
50040W        W22366  35.458   8.814  13.988
50041W        W22367  24.660   7.226   4.346
50042W        W22368  21.029   4.914   1.315
50043W        W22369  33.999  43.455  12.456
50044W        W22370  32.108   4.445   1.881
50045W        W22371  18.227  44.381  13.958
50046W        W22372  14.238   0.345  13.843
50047W        W22373   6.725  37.919  14.937
50048W        W22374  23.492   8.328   4.690
50049W        W22375  14.217  32.056   2.691
50050W        W22376  28.057   4.292   3.272
50051W        W22377   0.810  28.008  11.530
50052W        W22378  21.632  38.411  13.409
50053W        W22379   0.943  30.632   5.206
50054W        W22380  30.612  13.280  13.025
50055W        W22381   0.957  29.166  14.031
50056W        W22382  11.318  10.634   0.797
50057W        W22383  21.690  17.751  14.851
50058W        W22384  20.660  34.118   1.833
50059W        W22385  11.771  21.699  13.346
50060W        W22386  36.012  11.284  11.856
50061W        W22387   0.390  28.491   1.752
50062W        W22388  40.910   1.473  10.925
50063W        W22389  22.573  38.845   3.723
50064W        W22390  25.016  34.993  10.626
50065W        W22391  44.355  43.013   3.640
50066W        W22392  11.838   6.878  14.436
50067W        W22393  21.202  41.974   3.818
50068W        W22394  33.545  42.804   3.285
50069W        W22395  11.135  40.487   2.680
50070W        W22396  32.985  36.572   0.922
50071W        W22397  34.983  42.463  11.498
50072W        W22398  42.887   3.364   5.171
50073W        W22399  35.454  19.613   3.286
50074W        W22400  38.534  39.550  10.932
50075W        W22401  12.316  10.748   0.470
50076W        W22402  26.489  17.716   0.930
50077W        W22403  41.007  41.397  10.509
50078W        W22404  38.499   6.401   0.745
50079W        W22405  32.039  11.673   0.895
50080W        W22406   5.395   5.763   1.276
50081W        W22407   9.375  22.206  13.937
50082W        W22408  40.832  26.553   1.415
50083W        W22409  20.263  11.347   3.290
50084W        W22410  23.588  33.058  10.907
50085W        W22411  32.955   6.360  14.803
50086W        W22412  32.587  24.130   2.206
50087W        W22413   0.288  28.588   2.312
50088W        W22414   2.374   8.893   4.748
50089W        W22415  19.668  23.011   1.847
50090W        W22416  30.625   5.369   1.824
50091W        W22417  41.359   1.853  11.911
50092W        W22418   9.858  12.287   3.631
50093W        W22419  42.927  44.433  13.456
50094W        W22420  29.640  24.635  12.432
50095W        W22421   7.224  40.352  12.911
50096W        W22422  33.004  17.286   4.181
50097W        W22423  38.065   5.723   1.755
50098W        W22424   4.403  41.812  11.919
50099W        W22425  35.438  11.226  14.897
50100W        W22426  17.300  41.025  13.848
50101W        W22427  27.626   0.914  14.767
50102W        W22428  17.111  18.742  13.486
50103W        W22429  37.909   1.872  11.984
50104W        W22430  35.037  33.474  11.532
50105W        W22431   9.701   8.799  13.515
50106W        W22432  32.052  39.047   1.935
50107W        W22433   5.241  37.536  11.411
50108W        W22434   2.228  18.642  10.458
50109W        W22435  18.678  24.720   0.757
50110W        W22436  31.149  36.577  14.795
50111W        W22437  10.730  21.709  13.525
50112W        W22438   6.742  28.124  11.461
50113W        W22439   9.201   1.878   5.126
50114W        W22440  31.638  27.081  11.570
50115W        W22441  35.496  31.538  13.048
50116W        W22442  40.906  20.756  11.019
50117W        W22443  28.169  43.835   3.229
50118W        W22444  31.897  28.172   5.247
50119W        W22445   5.417  33.466   3.753
50120W        W22446   9.351   7.331   1.730
50121W        W22447   1.864  17.714   3.740
50122W        W22448  30.963  17.686   2.897
50123W        W22449   3.402   8.689   5.137
50124W        W22450  40.938   9.370   2.288
50125W        W22451  10.784  17.725  13.389
50126W        W22452  43.310  10.694   1.392
50127W        W22453  36.063  10.681   0.299
50128W        W22454  19.224   2.821   1.707
50129W        W22455  15.153  22.061  12.557
50130W        W22456  31.142  10.360   1.308
50131W        W22457   4.422  32.040   0.343
50132W        W22458   0.419   2.783  13.476
50133W        W22459   0.780  30.491  13.862
50134W        W22460   3.914  34.605  10.522
50135W        W22461   5.247  21.518  14.018
50136W        W22462  10.771  42.930   2.234
50137W        W22463  23.518   3.802  11.945
50138W        W22464   8.719  19.162   1.771
50139W        W22465   5.249   2.249  12.908
50140W        W22466   0.456  33.610   0.308
50141W        W22467  22.633   2.805   2.230
50142W        W22468  23.731  18.197   4.268
50143W        W22469  21.102  40.016   2.725
50144W        W22470  38.889  13.624   4.166
50145W        W22471  34.486   8.344   0.279
50146W        W22472  18.171  13.174  11.066
50147W        W22473  31.563  34.411  11.107
50148W        W22474   6.412  23.697   0.442
50149W        W22475  40.005   8.769  11.580
50150W        W22476  34.386  19.620   4.172
50151W        W22477  30.586  43.940  13.372
50152W        W22478   8.684   0.873  11.095
50153W        W22479  42.346  44.758   1.365
50154W        W22480  33.499   9.184   0.262
50155W        W22481  42.313  37.875   2.282
50156W        W22482   0.300  10.246   3.849
50157W        W22483  38.990  18.289   0.846
50158W        W22484  35.531   7.856  10.553
50159W        W22485  26.667   2.896   0.894
50160W        W22486  31.535  30.526   4.769
50161W        W22487  34.956   2.415   1.728
50162W        W22488  23.727   7.229  13.447
50163W        W22489  17.780  36.948  14.928
50164W        W22490  41.504  30.942   4.597
50165W        W22491   0.833  37.022  11.866
50166W        W22492  11.127  14.221   3.794
50167W        W22493  27.493  14.735  11.573
50168W        W22494  11.184   8.682   3.177
50169W        W22495  20.102  10.643  12.355
50170W        W22496   6.684  37.945  11.023
50171W        W22497  29.433  23.172   2.887
50172W        W22498  13.128  43.333   2.861
50173W        W22499   5.715  29.567  14.861
50174W        W22500  25.712   1.360   2.313
50175W        W22501  28.015  44.347   3.379
50176W        W22502   7.911   6.758  14.324
50177W        W22503  42.471  40.892   3.780
50178W        W22504  22.553  22.123  10.927
50179W        W22505  15.794  27.614  12.437
50180W        W22506  34.061  36.868  12.508
50181W        W22507  24.059  14.099  12.551
50182W        W22508  25.503  35.858  13.367
50183W        W22509  17.784  23.091   1.217
50184W        W22510  44.978  27.561  10.606
50185W        W22511   0.353  33.445  13.464
50186W        W22512  31.113   5.899   4.190
50187W        W22513  15.224  16.116   0.397
50188W        W22514  26.586  31.477   0.791
50189W        W22515  43.481   9.789  14.854
50190W        W22516  24.679  20.649  12.453
50191W        W22517  24.490  35.082   1.696
50192W        W22518  30.645  25.155  10.464
50193W        W22519  42.794   6.835   3.352
50194W        W22520  12.704  20.236  12.962
50195W        W22521  28.532  34.392   2.777
50196W        W22522  39.019  32.911   0.807
50197W        W22523  39.995   3.238  10.556
50198W        W22524   7.706  24.525  12.025
50199W        W22525   3.905   4.330   3.847
50200W        W22526   2.960   8.670  11.000
50201W        W22527   4.800  33.562  10.526
50202W        W22528   0.850  43.850  10.990
50203W        W22529   6.235   4.806   3.354
50204W        W22530  28.050  38.459   3.340
50205W        W22531  42.837  35.532   0.396
50206W        W22532  16.797  11.745   2.752
50207W        W22533  37.551  18.210   4.618
50208W        W22534  14.750  39.524  13.886
50209W        W22535   4.277  26.011   3.148
50210W        W22536  14.827  25.554  10.985
50211W        W22537   3.746  28.952  12.541
50212W        W22538  25.088  24.519  11.471
50213W        W22539  23.490  34.991  13.462
50214W        W22540  44.408  10.673  12.077
50215W        W22541  31.029  18.765   0.437
50216W        W22542  11.721   0.878  14.309
50217W        W22543  12.170  34.870   3.707
50218W        W22544  13.167   5.266  13.364
50219W        W22545  30.562  20.048   2.317
50220W        W22546  23.011  13.139   2.720
50221W        W22547  19.558  25.146  10.960
50222W        W22548  10.243  28.487  11.473
50223W        W22549   2.318  37.468   0.939
50224W        W22550  44.806  39.873   0.937
50225W        W22551  20.144  30.911  11.973
50226W        W22552  43.334  29.580  12.087
50227W        W22553  15.206  36.989   0.477
50228W        W22554  43.961   5.932  12.428
50229W        W22555  38.843  22.220  13.444
50230W        W22556  26.955  21.573  12.412
50231W        W22557  37.074  30.615   0.860
50232W        W22558   3.417  25.579  11.427
50233W        W22559   0.403   3.724   3.367
50234W        W22560  15.191   2.960  11.598
50235W        W22561  37.933  27.143  10.894
50236W        W22562  11.841  18.747   4.603
50237W        W22563  17.094  25.090  11.381
50238W        W22564  28.536  38.457  10.514
50239W        W22565   8.813  32.063   2.270
50240W        W22566  22.221  30.559  14.887
50241W        W22567   8.733  31.481  12.894
50242W        W22568  26.029   4.298   1.840
50243W        W22569  11.696  19.716  14.776
50244W        W22570  16.130   4.833   0.266
50245W        W22571  16.672  29.040  12.889
50246W        W22572   1.832   8.188  11.996
50247W        W22573  21.033  44.796  13.823
50248W        W22574  22.155  31.964  14.491
50249W        W22575   2.272  21.751  10.514
50250W        W22576   3.716  31.035   1.920
50251W        W22577  23.665  14.807   4.165
50252W        W22578  32.444  32.032  10.136
50253W        W22579   3.323  39.323   2.894
50254W        W22580  24.016  19.673  12.012
50255W        W22581  13.756   1.878   0.817
50256W        W22582  44.941  41.938  11.005
50257W        W22583  44.461  13.150   5.261
50258W        W22584  17.755  24.189  13.332
50259W        W22585   6.699  30.931   3.173
50260W        W22586   0.328  16.571   0.430
50261W        W22587   1.872  34.949   0.313
50262W        W22588  37.456  25.489  10.617
50263W        W22589  40.506  27.558  11.022
50264W        W22590  13.712   7.871  14.460
50265W        W22591  33.124  18.778   0.862
50266W        W22592  31.084  39.003   1.222
50267W        W22593  43.984   5.861   1.746
50268W        W22594  29.597  14.791  13.906
50269W        W22595   3.227  38.820  12.829
50270W        W22596  32.129  39.521  14.951
50271W        W22597  18.618   7.801  10.503
50272W        W22598  38.923   3.414  12.495
50273W        W22599  38.983   3.916  10.624
50274W        W22600  31.095  16.185   0.422
50275W        W22601  15.285  28.166  11.954
50276W        W22602  44.262  13.252  11.461
50277W        W22603   0.435  25.177   1.238
50278W        W22604  31.126  12.351   2.773
50279W        W22605   4.756   4.808   2.849
50280W        W22606  42.886   7.265   3.272
50281W        W22607  27.179  39.825   3.686
50282W        W22608  11.782  10.167   9.943
50283W        W22609  19.614  10.236   4.186
50284W        W22610   2.445  12.198   2.178
50285W        W22611  16.769  43.008  11.002
50286W        W22612  14.592  28.518   3.202
50287W        W22613  28.975  28.172  10.082
50288W        W22614  44.458  28.649   2.292
50289W        W22615  18.774  24.215   2.372
50290W        W22616  18.213  22.605   2.406
50291W        W22617  32.990  21.575   1.735
50292W        W22618  13.297  10.814  14.997
50293W        W22619   6.270  36.350   1.279
50294W        W22620  12.730  42.873   2.196
50295W        W22621  31.968  27.038  14.887
50296W        W22622   5.761  14.735   2.784
50297W        W22623  14.219  39.875  14.308
50298W        W22624  19.051  24.084  12.947
50299W        W22625  11.728  35.480   9.639
50300W        W22626   3.433  12.762   1.786
50301W        W22627  10.353  10.744   1.751
50302W        W22628  22.049  17.663  13.432
50303W        W22629  39.401  13.321  12.457
50304W        W22630  16.218  35.861   3.165
50305W        W22631  39.972  37.532  10.910
50306W        W22632  10.722  40.334   4.281
50307W        W22633  22.147   1.450   3.380
50308W        W22634  26.679  19.178   4.315
50309W        W22635  38.509  44.400  13.508
50310W        W22636  39.031  24.047  14.016
50311W        W22637  44.356  26.464   0.377
50312W        W22638  44.006  29.497   2.666
50313W        W22639  15.714  15.167   1.345
50314W        W22640  42.961  18.780   3.382
50315W        W22641  23.620  34.091  13.796
50316W        W22642  14.185  43.855   4.630
50317W        W22643   7.364  27.064   1.729
50318W        W22644   1.288   8.288  13.903
50319W        W22645  38.026  33.516   4.301
50320W        W22646  20.662  35.090  11.058
50321W        W22647   2.959  39.431  11.534
50322W        W22648  38.342  30.501  10.908
50323W        W22649  18.196  34.433   0.797
50324W        W22650  41.392   6.236   2.226
50325W        W22651  10.202  44.850  12.856
50326W        W22652  36.448  31.914   3.172
50327W        W22653   1.477  33.621   0.464
50328W        W22654  31.444  44.842  12.871
50329W        W22655   2.309  20.714  11.932
50330W        W22656  37.458  19.250  12.923
50331W        W22657  38.965  18.289  12.562
50332W        W22658  31.028  31.043   3.747
50333W        W22659  19.754  20.599   0.757
50334W        W22660  42.864  32.446  10.948
50335W        W22661  31.463  25.702   2.342
50336W        W22662  43.904  15.715   0.882
50337W        W22663   7.179  35.978   2.810
50338W        W22664  16.178  16.651  14.377
50339W        W22665  32.627   5.881   0.445
50340W        W22666  31.567  19.242   1.912
50341W        W22667   4.424   0.491  11.958
50342W        W22668  21.189   2.319   4.819
50343W        W22669  10.328   9.386  14.780
50344W        W22670  31.583  21.656   2.208
50345W        W22671  38.823  30.652   2.201
50346W        W22672   1.363  30.986  14.492
50347W        W22673  10.261  44.375   1.310
50348W        W22674  43.995  43.462  11.124
50349W        W22675  40.398  12.362  12.824
50350W        W22676  30.608   8.774   4.308
50351W        W22677  27.497  36.449   0.314
50352W        W22678  34.077  21.695  12.508
50353W        W22679  18.058  18.563  11.519
50354W        W22680  34.543  25.477   1.387
50355W        W22681   4.327  35.382  14.915
50356W        W22682   2.803  23.637   0.276
50357W        W22683  38.345   7.280   1.301
50358W        W22684  12.694   3.927   4.815
50359W        W22685  32.544   3.389  14.322
50360W        W22686  13.673   4.866  12.993
50361W        W22687  24.146  23.534   1.896
50362W        W22688  21.023  25.124   3.382
50363W        W22689  39.405  10.768  11.419
50364W        W22690  40.868  15.808  10.924
50365W        W22691  11.267  38.910  10.487
50366W        W22692  10.721  29.557   0.461
50367W        W22693   0.787  41.479  10.437
50368W        W22694  29.957  39.894  13.349
50369W        W22695   5.923  30.039  13.858
50370W        W22696   6.216  28.164   2.392
50371W        W22697  44.893   1.242   2.235
50372W        W22698  36.454  24.648  12.841
50373W        W22699  43.944  19.270  11.404
50374W        W22700  36.972  23.165  13.814
50375W        W22701  23.565  43.401   2.205
50376W        W22702  11.176  42.937  12.961
50377W        W22703  11.630  20.188   2.830
50378W        W22704  34.993  40.403   0.270
50379W        W22705  23.198  36.355   4.773
50380W        W22706  41.982  22.232  12.375
50381W        W22707  17.221  44.308  12.047
50382W        W22708  33.529   4.712   0.428
50383W        W22709  14.180   8.326   3.789
50384W        W22710  21.573  31.046   4.750
50385W        W22711  31.427  26.978   0.942
50386W        W22712  11.127  24.650   9.471
50387W        W22713  18.197  38.450  12.897
50388W        W22714  10.237  30.916  10.992
50389W        W22715   1.238   8.396   1.733
50390W        W22716  38.042  10.183   5.105
50391W        W22717   5.782  25.978   3.285
50392W        W22718  31.038  44.405  13.060
50393W        W22719   7.773  34.588   2.389
50394W        W22720  27.594  22.057   1.300
50395W        W22721  11.797   8.294   4.620
50396W        W22722  39.454  22.682   0.744
50397W        W22723  14.593  28.586  14.436
50398W        W22724  26.532   5.271   0.453
50399W        W22725  24.481  20.187  12.851
50400W        W22726  39.937  22.031   1.930
50401W        W22727  34.605  34.982  12.511
50402W        W22728  31.484  26.056   0.799
50403W        W22729  10.224  41.936  11.526
50404W        W22730  18.624  12.200   2.189
50405W        W22731  16.685  12.644  12.092
50406W        W22732  38.424  17.079  13.009
50407W        W22733   4.433   2.826   4.282
50408W        W22734   0.964   1.297  11.073
50409W        W22735  14.777  24.094  13.827
50410W        W22736  33.095   1.480   0.800
50411W        W22737  34.462   5.688   0.770
50412W        W22738  20.739  19.598  13.843
50413W        W22739  30.565  38.570   2.189
50414W        W22740   8.323  24.640   1.264
50415W        W22741   1.392  31.426  10.424
50416W        W22742  44.888  12.854  14.380
50417W        W22743  39.428  16.732   0.395
50418W        W22744  17.726  41.869  12.002
50419W        W22745  19.129  38.411  12.914
50420W        W22746   6.322  16.597  13.939
50421W        W22747  11.675  19.695  10.083
50422W        W22748  29.465  12.266   4.689
50423W        W22749   9.183  18.633  12.371
50424W        W22750   7.269  22.051   0.321
50425W        W22751  17.174  24.079   3.317
50426W        W22752  34.119  31.502  14.500
50427W        W22753  17.078   2.778  11.987
50428W        W22754  27.488   3.722  11.026
50429W        W22755  18.069  29.149  13.349
50430W        W22756  18.551  11.162   1.214
50431W        W22757  36.912   4.806   1.406
50432W        W22758  34.035   6.852   1.354
50433W        W22759  31.070  14.119  13.852
50434W        W22760  17.693  32.592  10.603
50435W        W22761  25.999  41.922  13.906
50436W        W22762  27.105  41.464   1.305
50437W        W22763  14.265  37.579   0.321
50438W        W22764  37.029  13.688   1.791
50439W        W22765  34.042  33.079  12.341
50440W        W22766  39.062  15.083  10.901
50441W        W22767   8.202  11.191   2.701
50442W        W22768   9.651  42.881  12.077
50443W        W22769  35.066  38.549   2.347
50444W        W22770   0.827  35.082   3.324
50445W        W22771  42.948   4.892  12.042
50446W        W22772  44.758  24.207   2.744
50447W        W22773  15.325   6.887  10.915
50448W        W22774   4.444   0.897  12.474
50449W        W22775  32.085  21.210  13.445
50450W        W22776  16.185  44.819  14.012
50451W        W22777  28.099  12.614   4.743
50452W        W22778   2.778  17.745   2.862
50453W        W22779  11.812  33.078   2.411
50454W        W22780   3.423   3.299  12.521
50455W        W22781  12.686  17.231   4.627
50456W        W22782  25.525  22.110   3.683
50457W        W22783  36.346  30.131   3.795
50458W        W22784  24.198  38.912  13.456
50459W        W22785  38.053  37.497   3.360
50460W        W22786   8.234  21.236  12.923
50461W        W22787  29.593   9.351   0.803
50462W        W22788  27.535  21.202   3.179
50463W        W22789  29.604  21.170   3.830
50464W        W22790  13.117  10.286   4.126
50465W        W22791  34.430  12.803  10.465
50466W        W22792  14.147   8.207  12.391
50467W        W22793  17.587  44.405   2.901
50468W        W22794  30.446  26.483  13.911
50469W        W22795  27.554  22.083  14.858
50470W        W22796  34.597  38.443   2.186
50471W        W22797  40.469  25.974   4.329
50472W        W22798  23.551  25.596   2.722
50473W        W22799  41.821   4.391   3.248
50474W        W22800   3.754   1.464  13.819
50475W        W22801  43.481  39.852   0.401
50476W        W22802  29.529  17.135  11.027
50477W        W22803   4.790  11.833   3.284
50478W        W22804  29.506  15.188  14.511
50479W        W22805  29.172  24.198  10.494
50480W        W22806  19.778  37.387  13.934
50481W        W22807  18.566   1.287  12.922
50482W        W22808   4.340  39.529   4.160
50483W        W22809  36.391  11.190  13.008
50484W        W22810   0.314  30.646  12.377
50485W        W22811   5.740  33.448   3.638
50486W        W22812  17.186  28.149   3.320
50487W        W22813   3.244   4.369   5.153
50488W        W22814  34.581  13.301   0.877
50489W        W22815  22.524  16.629  11.901
50490W        W22816   2.248  31.608   4.689
50491W        W22817   5.416   3.235   1.725
50492W        W22818   5.316   1.829   3.820
50493W        W22819  34.009  19.184   3.833
50494W        W22820  34.435   7.334   3.738
50495W        W22821  16.253  37.574   3.323
50496W        W22822   7.224  37.993  10.587
50497W        W22823  35.568  27.056  11.121
50498W        W22824  17.646   0.492  11.577
50499W        W22825   1.816  11.636   1.379
50500W        W22826  24.990  12.212   1.266
50501W        W22827   1.334  42.981  12.551
50502W        W22828   6.192   4.307  11.064
50503W        W22829  25.011  22.597  12.995
50504W        W22830  22.075  43.837  11.543
50505W        W22831  41.512   6.753   0.357
50506W        W22832  16.193  40.929  12.069
50507W        W22833  25.107   7.386   4.801
50508W        W22834  21.562  35.892  11.572
50509W        W22835   9.391  12.220  14.358
50510W        W22836   0.833  14.173   2.723
50511W        W22837  19.173  29.653   1.403
50512W        W22838  23.097  21.202   4.187
50513W        W22839  36.885  40.987   1.841
50514W        W22840  15.732  27.512  10.596
50515W        W22841   4.828  24.040  14.780
50516W        W22842  33.474  42.409  12.463
50517W        W22843   9.839  44.480  11.945
50518W        W22844  41.019  21.547  12.954
50519W        W22845  33.562  14.260   0.770
50520W        W22846  13.200  19.075  13.901
50521W        W22847  11.346  39.015  10.900
50522W        W22848  22.631  16.242   9.963
50523W        W22849  34.923  44.816   3.663
50524W        W22850  35.028  20.542   3.283
50525W        W22851  30.149  32.481   3.325
50526W        W22852  27.527  42.988  12.865
50527W        W22853   7.197  32.629   4.177
50528W        W22854  21.674  30.910  10.555
50529W        W22855  16.263  38.471  14.920
50530W        W22856  31.634   9.382  14.814
50531W        W22857  32.981   0.316   4.710
50532W        W22858  23.512  17.754  11.379
50533W        W22859  42.466  11.624   1.331
50534W        W22860  30.531  25.967   4.319
50535W        W22861  35.537  37.335  13.964
50536W        W22862  33.086  35.358  14.398
50537W        W22863   1.373  41.951  12.093
50538W        W22864  33.108   7.182  13.940
50539W        W22865  40.985  25.515   1.806
50540W        W22866  14.104  23.156  14.820
50541W        W22867   7.405  18.290   4.355
50542W        W22868   2.442  16.156  10.957
50543W        W22869  37.981  39.491   2.712
50544W        W22870   6.684  39.065  13.913
50545W        W22871  17.669  25.614   3.825
50546W        W22872  42.961   2.445   3.639
50547W        W22873   5.889   7.828  14.459
50548W        W22874  16.190   6.923   3.201
50549W        W22875   2.832  17.179  11.573
50550W        W22876  25.623  43.903  13.517
50551W        W22877  22.642   0.382   1.753
50552W        W22878  15.628  20.077   4.780
50553W        W22879   9.176  14.805  11.398
50554W        W22880  19.599  26.989   3.825
50555W        W22881  38.076   1.320   3.167
50556W        W22882   4.813  36.998  11.076
50557W        W22883  25.166   7.278   0.933
50558W        W22884  38.341  35.475   0.871
50559W        W22885   2.456   8.683  10.461
50560W        W22886   4.255   2.782   5.121
50561W        W22887  41.463   9.796  13.034
50562W        W22888  32.439  39.836  14.912
50563W        W22889  26.532  23.710   3.773
50564W        W22890  16.215  24.485  12.948
50565W        W22891  30.097   2.838  11.049
50566W        W22892  37.411  37.490  10.564
50567W        W22893  19.110  20.146  13.930
50568W        W22894   8.321  11.213   4.213
50569W        W22895  24.524  18.776   3.347
50570W        W22896  34.440   4.710   1.832
50571W        W22897  35.011  25.536  12.355
50572W        W22898  20.538  13.690   1.360
50573W        W22899  44.420  33.456  13.543
50574W        W22900  18.775   6.422  11.944
50575W        W22901  21.036   7.697   4.178
50576W        W22902  14.185  12.763   2.718
50577W        W22903  18.254  28.077  14.433
50578W        W22904  18.239  27.055   4.325
50579W        W22905  26.674  30.041  11.376
50580W        W22906  16.774   2.318  14.432
50581W        W22907  30.535   0.785  12.417
50582W        W22908   5.240  22.639  10.937
50583W        W22909  18.205  20.140   0.317
50584W        W22910  41.368   7.779   1.298
50585W        W22911  31.033  34.022  11.081
50586W        W22912  14.318  14.290   1.322
50587W        W22913  23.175  12.340   2.310
50588W        W22914   1.315  25.564   2.685
50589W        W22915  26.098  30.484  14.932
50590W        W22916  33.024   1.336  12.855
50591W        W22917  16.716   6.872   2.238
50592W        W22918  18.587  34.478  13.476
50593W        W22919   1.840  15.763   5.291
50594W        W22920  17.639  10.660   4.156
50595W        W22921  16.705  31.462  10.642
50596W        W22922  34.909  29.140   0.462
50597W        W22923  24.111  42.349  11.418
50598W        W22924   7.222  33.602   3.735
50599W        W22925   5.226   0.899  11.613
50600W        W22926   8.263   8.310   4.310
50601W        W22927  37.447  10.228  10.108
50602W        W22928  16.711   2.885   4.178
50603W        W22929  30.908  27.975   1.435
50604W        W22930  29.117  38.988   3.776
50605W        W22931  35.888  35.891   2.738
50606W        W22932  35.387  35.541  12.547
50607W        W22933  43.958   1.823   4.758
50608W        W22934   3.781   4.275  12.372
50609W        W22935  22.030  27.055   0.276
50610W        W22936  36.510   1.849  11.007
50611W        W22937  39.422   7.272  10.913
50612W        W22938   4.934  12.312  10.640
50613W        W22939   7.356  21.136   4.720
50614W        W22940   3.922  14.251   3.252
50615W        W22941   0.269  14.817   1.379
50616W        W22942   4.385  13.840   0.338
50617W        W22943  34.920  35.979  13.344
50618W        W22944  13.310  22.573  11.515
50619W        W22945  30.150  38.843   2.417
50620W        W22946  44.367  44.326  10.912
50621W        W22947   3.726  43.787  13.892
50622W        W22948  20.036  38.516  11.897
50623W        W22949  34.571   5.700  10.481
50624W        W22950  13.667   9.328  13.323
50625W        W22951   5.234   0.377  10.585
50626W        W22952   4.390  16.640  10.972
50627W        W22953  30.054  39.540   3.847
50628W        W22954  28.089  25.013  11.895
50629W        W22955  26.179  18.661   1.877
50630W        W22956  26.099  30.004   0.463
50631W        W22957  32.137  42.993   4.251
50632W        W22958  14.742  11.139   4.236
50633W        W22959  15.620  38.507  14.499
50634W        W22960  21.671   6.722  12.505
50635W        W22961  15.696  22.130  12.955
50636W        W22962   5.734  42.465   0.382
50637W        W22963  14.794  42.306   1.330
50638W        W22964  14.291  31.538   1.809
50639W        W22965  12.328  36.880   2.763
50640W        W22966   9.648  38.959   2.368
50641W        W22967   2.232  35.991  11.123
50642W        W22968  25.604   9.668   0.892
50643W        W22969   4.892  12.666  12.376
50644W        W22970  30.062   2.330  12.411
50645W        W22971  26.009  13.638  10.439
50646W        W22972   4.333  43.018   2.282
50647W        W22973   5.286  37.335  12.454
50648W        W22974  16.308  18.718  11.512
50649W        W22975  35.504  22.023  11.006
50650W        W22976  33.591  39.500   3.343
50651W        W22977  35.359  42.378  11.515
50652W        W22978  29.117  11.741   1.220
50653W        W22979   2.933   2.854  12.419
50654W        W22980   7.377  30.118  13.473
50655W        W22981  12.227   2.427  13.360
50656W        W22982   8.260  34.413   4.336
50657W        W22983  29.547  24.698   4.304
50658W        W22984  11.250  41.957   0.276
50659W        W22985  25.604  24.157  10.462
50660W        W22986  33.904   6.728  13.410
50661W        W22987  10.854  43.827  14.900
50662W        W22988  41.440  19.099  11.431
50663W        W22989   8.314  20.222  13.831
50664W        W22990  42.814  37.448  14.277
50665W        W22991  29.613  40.926  13.494
50666W        W22992  13.837  12.267  12.952
50667W        W22993   7.865  28.575  12.839
50668W        W22994   2.323  44.951   3.246
50669W        W22995   9.210  39.840   1.378
50670W        W22996   7.278  13.146  11.050
50671W        W22997  27.530  35.045  11.404
50672W        W22998   9.785  22.173  12.505
50673W        W22999  27.155  35.372   4.813
50674W        W23000  44.859  35.099  11.038
50675W        W23001   0.836   1.319  14.328
50676W        W23002  22.509  41.981   2.757
50677W        W23003  14.613  33.459   2.376
50678W        W23004   0.463  29.934   0.824
50679W        W23005  10.801   9.843  13.345
50680W        W23006  33.498   2.328  10.893
50681W        W23007  27.992  17.122  13.806
50682W        W23008  17.624  11.372  12.394
50683W        W23009  37.409  20.699   3.757
50684W        W23010  29.480  19.677  14.952
50685W        W23011  23.578  39.336   2.813
50686W        W23012  41.792   8.169   2.180
50687W        W23013   1.258  12.229  14.986
50688W        W23014  18.585  27.085  13.436
50689W        W23015  14.755   2.408  13.057
50690W        W23016   3.341   5.385  10.541
50691W        W23017   6.676  26.097   4.169
50692W        W23018  44.424  44.351   1.783
50693W        W23019  16.576  33.123  13.015
50694W        W23020  21.544  29.595   0.906
50695W        W23021  11.227  22.050  14.390
50696W        W23022  31.074   9.273   0.456
50697W        W23023  26.672  40.343   4.166
50698W        W23024  13.804  17.193   4.629
50699W        W23025  43.301  13.297  13.899
50700W        W23026  29.524  13.763  12.440
50701W        W23027  44.961   2.842  12.886
50702W        W23028  34.033  40.862  11.454
50703W        W23029  40.033  38.819  13.346
50704W        W23030   2.311  12.128  12.916
50705W        W23031  15.727  13.843   2.796
50706W        W23032  30.463  15.641   3.778
50707W        W23033   2.434  44.969  12.518
50708W        W23034  14.647  39.435   3.305
50709W        W23035   9.223  31.627  12.466
50710W        W23036  33.035  35.943  11.879
50711W        W23037   9.265  40.421   3.246
50712W        W23038  27.643  14.231   1.702
50713W        W23039   8.318  14.139  14.847
50714W        W23040  10.210  26.608  12.448
50715W        W23041  34.073   8.321  14.503
50716W        W23042  23.516   5.279   1.430
50717W        W23043   3.865  13.129   4.745
50718W        W23044  23.700  14.335  10.494
50719W        W23045  34.546  30.970   1.699
50720W        W23046  17.087  11.314   2.327
50721W        W23047  38.883  14.764  14.953
50722W        W23048  17.105   9.879   1.711
50723W        W23049  15.131  13.126  14.395
50724W        W23050   1.795  34.036   2.183
50725W        W23051  19.607  34.076   0.744
50726W        W23052  35.418  16.703   4.171
50727W        W23053   1.280  17.202   4.202
50728W        W23054   6.687  22.150  10.600
50729W        W23055  31.126   4.752  14.338
50730W        W23056  12.784   2.231  11.954
50731W        W23057  12.338  42.401   4.672
50732W        W23058   4.388  21.745  11.444
50733W        W23059  15.273  41.989  12.083
50734W        W23060  44.295  37.406  13.890
50735W        W23061  24.100   8.180   4.778
50736W        W23062   4.741  40.913   2.224
50737W        W23063  35.519   1.930   3.867
50738W        W23064   7.717  10.870   0.358
50739W        W23065  36.559  38.002  14.974
50740W        W23066  31.546  32.448   2.748
50741W        W23067  42.436  17.249   3.175
50742W        W23068  40.543   4.323  11.024
50743W        W23069  36.937  36.095  13.961
50744W        W23070  44.442  10.679   4.788
50745W        W23071  10.325  43.977   0.469
50746W        W23072  12.720   7.846  11.405
50747W        W23073   4.833  12.676   3.708
50748W        W23074   1.797  32.615   3.642
50749W        W23075   8.871   7.705   4.679
50750W        W23076  33.591  24.045   0.472
50751W        W23077  31.996  41.873   1.390
50752W        W23078  40.885  38.877   0.246
50753W        W23079  42.513  11.209   0.397
50754W        W23080  11.359  13.122   3.347
50755W        W23081  22.160   4.417   0.854
50756W        W23082   8.346  40.870   4.789
50757W        W23083  19.163  32.024  13.938
50758W        W23084  16.142  17.287   4.247
50759W        W23085  21.150  19.780   4.290
50760W        W23086  26.185  28.026   2.414
50761W        W23087  22.605  24.053  11.081
50762W        W23088  15.808  29.151   1.425
50763W        W23089   9.764  14.777  12.411
50764W        W23090  23.234  30.587  14.275
50765W        W23091  43.803  35.372   2.846
50766W        W23092  36.027  22.127  14.337
50767W        W23093   9.200   4.738   4.186
50768W        W23094  13.252   7.261  13.541
50769W        W23095  22.167  29.606  13.452
50770W        W23096   4.846  28.955   9.952
50771W        W23097  39.511  14.709  14.483
50772W        W23098  26.587  35.488  13.859
50773W        W23099  19.114   7.897   0.457
50774W        W23100   0.954   8.675  12.912
50775W        W23101  42.373  44.915   0.780
50776W        W23102  19.114  13.705  12.379
50777W        W23103  30.099   3.917  12.371
50778W        W23104   1.909  19.089  11.515
50779W        W23105  33.598  17.198  13.973
50780W        W23106  23.086  26.516   0.927
50781W        W23107  12.671   7.266   0.753
50782W        W23108   5.848  10.791   1.242
50783W        W23109  10.159  37.361  13.951
50784W        W23110   7.217  26.521  12.896
50785W        W23111  38.946  34.043   3.230
50786W        W23112   7.834  25.038  14.812
50787W        W23113  19.609   5.396  11.603
50788W        W23114  33.015  20.550  14.945
50789W        W23115  43.005   9.204   3.853
50790W        W23116  28.656  20.188   1.365
50791W        W23117  44.001  34.073   1.421
50792W        W23118   6.907  16.611  11.525
50793W        W23119   0.910  15.647  11.096
50794W        W23120   5.836  42.347   3.786
50795W        W23121  14.125  35.951   0.469
50796W        W23122  31.555  29.098  12.038
50797W        W23123  27.971  37.361  14.981
50798W        W23124   2.801   1.244   1.307
50799W        W23125   4.361   6.695  13.373
50800W        W23126  39.891  32.623  12.934
50801W        W23127  12.141  12.678  13.960
50802W        W23128  39.875  21.645  10.467
50803W        W23129  40.435   7.891  12.396
50804W        W23130  21.703  21.117  10.630
50805W        W23131   1.294  20.106  12.914
50806W        W23132  24.060  20.142  14.997
50807W        W23133  17.247  21.688   4.697
50808W        W23134  18.131  18.077   1.275
50809W        W23135  21.056  20.641  13.523
50810W        W23136  23.216  42.496  11.103
50811W        W23137  25.671  37.869  12.844
50812W        W23138  15.092  39.512  13.372
50813W        W23139  36.359  20.244   4.776
50814W        W23140  36.942  27.692   1.751
50815W        W23141  25.627  26.680   1.925
50816W        W23142  16.685  21.169  12.489
50817W        W23143  37.873  26.660  10.545
50818W        W23144  11.654   7.298  10.061
50819W        W23145   8.398   3.375  12.354
50820W        W23146  35.583  25.577   1.721
50821W        W23147  15.612  12.181  10.920
50822W        W23148  18.772   7.354   1.416
50823W        W23149  40.361  34.484   3.362
50824W        W23150  15.176  11.836   0.442
50825W        W23151  36.923  41.949   3.736
50826W        W23152  35.572  27.129  12.551
50827W        W23153  38.843  34.498   0.908
50828W        W23154  10.241  39.344   3.231
50829W        W23155  43.848  43.443  12.340
50830W        W23156  36.370  36.098  13.538
50831W        W23157   9.151   5.845  11.609
50832W        W23158   9.773   9.650  11.584
50833W        W23159  41.488  38.953   1.315
50834W        W23160  38.536  16.233   0.345
50835W        W23161  12.706  16.183   0.904
50836W        W23162  33.416  36.084  11.544
50837W        W23163  41.458  14.770   1.770
50838W        W23164  11.190  27.101   0.792
50839W        W23165  29.469  41.318   2.741
50840W        W23166  12.791   8.683  11.885
50841W        W23167  29.051  39.500   2.260
50842W        W23168  38.458  40.949  13.853
50843W        W23169  25.081  44.297   3.631
50844W        W23170   9.229  41.928  11.508
50845W        W23171  13.113  35.474   2.717
50846W        W23172  27.969  44.006  10.569
50847W        W23173  36.488   9.875  12.829
50848W        W23174  11.649   6.911   1.438
50849W        W23175  10.272  32.459  11.414
50850W        W23176  37.417  14.607   0.374
50851W        W23177  13.668  31.042   3.846
50852W        W23178   8.698  12.833  13.829
50853W        W23179  44.317  19.620  13.389
50854W        W23180  31.990   1.897  11.964
50855W        W23181  43.809  19.200  10.417
50856W        W23182  36.497  28.946  14.466
50857W        W23183  38.477  32.985  11.530
50858W        W23184   6.234  10.731   1.433
50859W        W23185  15.262   9.287  11.455
50860W        W23186  31.622  29.054   4.157
50861W        W23187  44.500  37.839   4.237
50862W        W23188  10.785  12.118  12.997
50863W        W23189  19.780  12.240   2.782
50864W        W23190  10.259  15.702  13.959
50865W        W23191   6.424   8.737  10.465
50866W        W23192  36.424  27.619  12.556
50867W        W23193  22.995  31.939  13.880
50868W        W23194   5.384   1.409   4.222
50869W        W23195   1.849  34.522  11.403
50870W        W23196   8.328  21.158  11.990
50871W        W23197  15.144  13.755   4.618
50872W        W23198  36.066   9.310   3.826
50873W        W23199  31.123  40.462   2.184
50874W        W23200   9.854  29.524   3.322
50875W        W23201   2.911  42.411  12.866
50876W        W23202  19.269   1.913  13.457
50877W        W23203  19.645  20.645  12.410
50878W        W23204  36.049   5.198  11.543
50879W        W23205   7.336  17.296  11.403
50880W        W23206  33.428  20.064   3.310
50881W        W23207  30.140  17.645   2.207
50882W        W23208  39.379  25.996  14.859
50883W        W23209  24.094   1.466  13.804
50884W        W23210  29.087  41.786   2.875
50885W        W23211  35.510  33.897  12.833
50886W        W23212  26.000  23.708  12.878
50887W        W23213  36.551  25.183   2.692
50888W        W23214   4.376  21.727  11.927
50889W        W23215   9.234  44.448  13.977
50890W        W23216  17.619  21.514  12.445
50891W        W23217  41.834   5.426   1.307
50892W        W23218  31.064  18.139  14.991
50893W        W23219   2.228  19.200  13.373
50894W        W23220  42.414  29.928  12.502
50895W        W23221  11.220  28.559  13.829
50896W        W23222  30.597  44.847  11.115
50897W        W23223  12.721  36.514  14.761
50898W        W23224  39.930  41.424   4.253
50899W        W23225  14.816  22.118  13.942
50900W        W23226  39.019  25.479  11.113
50901W        W23227  15.615  43.475  12.030
50902W        W23228  18.685   8.251  11.894
50903W        W23229  39.543  10.669  13.042
50904W        W23230   5.721  33.480  11.594
50905W        W23231   7.374   3.849   0.437
50906W        W23232   9.866  43.815  13.040
50907W        W23233   7.201  33.963  14.489
50908W        W23234  43.828  29.006   1.378
50909W        W23235  37.042  20.062  11.065
50910W        W23236   2.429  32.406  14.288
50911W        W23237  10.803   2.961  10.643
50912W        W23238   1.256  34.073   2.331
50913W        W23239  21.541  36.472   4.654
50914W        W23240  33.608  10.338  10.472
50915W        W23241   3.944  22.145   0.444
50916W        W23242  17.610  24.587   1.397
50917W        W23243  11.235  39.513   2.670
50918W        W23244  39.868  17.183   3.796
50919W        W23245  29.566  39.541  14.397
50920W        W23246  35.483   0.799  10.920
50921W        W23247  30.594  29.927   0.784
50922W        W23248   8.900  38.922  13.378
50923W        W23249  36.886   1.780  11.425
50924W        W23250   9.299  23.139   0.732
50925W        W23251  24.708  43.513   4.632
50926W        W23252  40.472  20.549   4.718
50927W        W23253  44.815   6.713   2.290
50928W        W23254  11.770  30.055   2.369
50929W        W23255   0.855  19.673  10.515
50930W        W23256   2.892  40.381  12.969
50931W        W23257  39.814  19.089   1.740
50932W        W23258  39.021   5.380  11.414
50933W        W23259  19.218  37.501   0.436
50934W        W23260  43.992   9.335   1.267
50935W        W23261  17.711   7.879   4.169
50936W        W23262   4.768   2.723   0.936
50937W        W23263   4.367  20.680  13.809
50938W        W23264   2.381   1.964  13.480
50939W        W23265  34.006  17.758   2.295
50940W        W23266   1.739  23.625  13.873
50941W        W23267  13.140  39.540   0.419
50942W        W23268   1.343  28.121   0.889
50943W        W23269  25.204  11.763  14.329
50944W        W23270  38.836   8.362   3.733
50945W        W23271  20.130  12.826   3.376
50946W        W23272   2.441  12.685   0.445
50947W        W23273  34.004  44.787   1.799
50948W        W23274  22.502  37.529   0.825
50949W        W23275  43.893  37.914   2.675
50950W        W23276  12.837  40.931   2.193
50951W        W23277   4.254  35.432   4.783
50952W        W23278   3.822  44.296   3.229
50953W        W23279   3.903  20.742   3.361
50954W        W23280  36.484  30.924   1.749
50955W        W23281  36.395  16.112  14.348
50956W        W23282  32.615   4.847  11.387
50957W        W23283  13.667  24.996  11.919
50958W        W23284  32.420  30.426   9.922
50959W        W23285  36.367  10.812   2.829
50960W        W23286   8.186   5.370  14.799
50961W        W23287  35.570   8.176   3.861
50962W        W23288   2.316  44.875   0.275
50963W        W23289  31.466  34.033   3.277
50964W        W23290  32.444   2.376   3.643
50965W        W23291  29.071  28.678  10.092
50966W        W23292   7.388  44.898  14.883
50967W        W23293  26.039   6.702  10.420
50968W        W23294  11.188   9.852   3.176
50969W        W23295  22.229  33.997   0.363
50970W        W23296  13.635   6.790  11.464
50971W        W23297  34.980   7.223   3.678
50972W        W23298  36.082   5.205   4.288
50973W        W23299  26.623  21.648  12.575
50974W        W23300   6.215  29.094   4.303
50975W        W23301  24.200  20.090   3.312
50976W        W23302  40.959  10.309   1.332
50977W        W23303  38.420  15.316   3.208
50978W        W23304  24.639   5.899  12.824
50979W        W23305   4.355   3.786   4.828
50980W        W23306  30.515  36.066  12.049
50981W        W23307  38.901  23.567  11.935
50982W        W23308   9.292   4.305  12.062
50983W        W23309   1.794  40.895  14.339
50984W        W23310  32.074  37.498  11.970
50985W        W23311   7.782  22.570  13.370
50986W        W23312  14.262  39.001  11.500
50987W        W23313  18.577  10.147  10.024
50988W        W23314   2.378  42.522   2.667
50989W        W23315  33.449  23.025  12.413
50990W        W23316  36.451  24.183  11.082
50991W        W23317  33.586  15.605   5.142
50992W        W23318  17.592   3.895   1.346
50993W        W23319  44.762  17.778   4.137
50994W        W23320  30.558   5.244  11.987
50995W        W23321  44.863  13.688   3.826
50996W        W23322  28.655  16.774  11.025
50997W        W23323  13.340   1.953  12.927
50998W        W23324  22.159  28.121   0.306
50999W        W23325  14.284  18.599  12.499
51000W        W23326  42.004  18.614  12.954
51001W        W23327  14.618  29.636   1.387
51002W        W23328  27.170  42.822   2.257
51003W        W23329  27.653  28.674   2.196
51004W        W23330  12.656  36.511  10.006
51005W        W23331  29.511  11.360   1.396
51006W        W23332  20.243   7.357  14.021
51007W        W23333   9.812  22.144  14.300
51008W        W23334  44.502  35.863  11.448
51009W        W23335  29.553  22.024   4.199
51010W        W23336  30.600  24.676  10.637
51011W        W23337  32.945   8.385  11.070
51012W        W23338  19.744  42.028   2.689
51013W        W23339  15.231  13.723   1.217
51014W        W23340  20.193   0.390  13.341
51015W        W23341  25.488   0.307  11.958
51016W        W23342  38.076  26.207  11.408
51017W        W23343   9.167   3.833   0.863
51018W        W23344  19.217  32.990  13.904
51019W        W23345   4.305  22.043   4.773
51020W        W23346   1.470  19.043   1.433
51021W        W23347  17.226  28.064  10.419
51022W        W23348  40.000  27.594  10.448
51023W        W23349   8.815  43.446  10.963
51024W        W23350   9.859  31.611  14.480
51025W        W23351   9.849  17.080  13.378
51026W        W23352  28.177  25.965   0.363
51027W        W23353  34.593  13.643   3.249
51028W        W23354  37.063  28.986  11.090
51029W        W23355  38.413   2.272  11.068
51030W        W23356  15.648  26.059   0.315
51031W        W23357   9.887   7.876  10.951
51032W        W23358   3.789  40.329  13.366
51033W        W23359  18.724  10.335  14.864
51034W        W23360   3.250  40.919  13.368
51035W        W23361   0.255   8.815  12.895
51036W        W23362   6.329  41.536   4.268
51037W        W23363   1.775  18.146  12.369
51038W        W23364  42.928   7.906  10.528
51039W        W23365  21.609  31.639   4.343
51040W        W23366   8.195  27.097  12.370
51041W        W23367  11.281  14.181   4.147
51042W        W23368  33.522  13.667   0.957
51043W        W23369   1.922  43.470  13.031
51044W        W23370  26.047  11.853   0.837
51045W        W23371   8.820   1.295  12.019
51046W        W23372  33.590  20.159   5.175
51047W        W23373   2.234  16.673  12.861
51048W        W23374   1.279  43.963  13.885
51049W        W23375  12.304  41.821   2.671
51050W        W23376  30.581  34.999   2.892
51051W        W23377   0.878  34.445  10.974
51052W        W23378  29.112  27.607   1.301
51053W        W23379   2.862  11.191  11.073
51054W        W23380  41.420  42.338  12.371
51055W        W23381   8.236   6.372  12.983
51056W        W23382   1.306  44.495   1.374
51057W        W23383  26.967  28.459   4.351
51058W        W23384   1.834  30.547   4.732
51059W        W23385  23.609  33.518  10.425
51060W        W23386  10.687   8.726  11.035
51061W        W23387   0.971  36.854   2.181
51062W        W23388  38.913   9.889   4.158
51063W        W23389  42.429  26.471  14.812
51064W        W23390  12.245   4.368   2.900
51065W        W23391   0.482  33.068   2.696
51066W        W23392  36.357  38.480   2.297
51067W        W23393  27.152  30.156   2.828
51068W        W23394  24.625  18.294   4.803
51069W        W23395  44.442  19.614   4.164
51070W        W23396  22.018  28.592   2.802
51071W        W23397  12.237  44.898   4.270
51072W        W23398  42.490  39.823  10.896
51073W        W23399   7.768  28.552   0.815
51074W        W23400  26.530   2.347   2.199
51075W        W23401  34.882  23.568   4.660
51076W        W23402  35.872  35.568   3.684
51077W        W23403  18.150  14.309  14.926
51078W        W23404   4.256  18.106   2.805
51079W        W23405  23.642  40.050  12.069
51080W        W23406  11.299  12.749  12.070
51081W        W23407  10.146  19.069  11.947
51082W        W23408  19.716  18.270  14.948
51083W        W23409  21.649   0.417   3.683
51084W        W23410  36.455  42.824  13.516
51085W        W23411  39.980  16.709   1.447
51086W        W23412  18.265  26.976  11.897
51087W        W23413  33.119  22.675  12.884
51088W        W23414  17.761  38.429  10.409
51089W        W23415  39.824  34.611   0.783
51090W        W23416  14.302  35.387  14.799
51091W        W23417  39.839  33.495  12.912
51092W        W23418  42.438  35.458  11.525
51093W        W23419  22.527  43.969  14.793
51094W        W23420  32.417  11.226   4.612
51095W        W23421   0.758  40.924  14.819
51096W        W23422  16.715  10.671  14.913
51097W        W23423   4.941  20.740   2.256
51098W        W23424  14.789  44.366   2.821
51099W        W23425  40.423  23.030   4.131
51100W        W23426  16.097   4.298   4.169
51101W        W23427   0.348  28.613  13.964
51102W        W23428  13.142   0.482   4.159
51103W        W23429  12.836  16.605   2.215
51104W        W23430   7.356   1.453  11.491
51105W        W23431  12.830   3.434  11.924
51106W        W23432   0.923   0.939  14.955
51107W        W23433  15.790  15.138  11.557
51108W        W23434  28.480  39.902  12.842
51109W        W23435   2.924  27.537  13.993
51110W        W23436  37.898  21.679  11.884
51111W        W23437   0.400   0.891  10.481
51112W        W23438  30.634  13.721  12.012
51113W        W23439  27.137  28.624  12.558
51114W        W23440  24.574  10.827  11.064
51115W        W23441  10.225  13.280   5.103
51116W        W23442  36.550   7.334   2.403
51117W        W23443   2.965  36.485   1.365
51118W        W23444  18.786  40.862  11.074
51119W        W23445  21.063  32.921  14.877
51120W        W23446  11.765   2.310   0.824
51121W        W23447  28.489  21.611   0.856
51122W        W23448   0.305   1.846  14.512
51123W        W23449   4.437  32.453  10.552
51124W        W23450  39.837  15.230  14.873
51125W        W23451  18.189  20.743  11.036
51126W        W23452   1.768   3.446  12.077
51127W        W23453  13.240   0.322  13.054
51128W        W23454  32.507  36.347   0.961
51129W        W23455   2.917   5.821   3.748
51130W        W23456  39.022  33.610  14.798
51131W        W23457   6.314  28.442   1.703
51132W        W23458  37.889  19.769   3.298
51133W        W23459  12.126  25.471   2.419
51134W        W23460  26.034   9.815  12.887
51135W        W23461  22.661  22.172   1.352
51136W        W23462  34.871  39.868  13.998
51137W        W23463  16.598  34.535   3.242
51138W        W23464  24.015  31.631   1.222
51139W        W23465  15.703  26.188   1.896
51140W        W23466   0.320  42.790   1.858
51141W        W23467  14.738  15.131   4.616
51142W        W23468   9.767  44.836   3.849
51143W        W23469  41.929  32.125  11.070
51144W        W23470  30.497  43.353   2.765
51145W        W23471   8.401   9.315  13.979
51146W        W23472  31.593  23.082  12.002
51147W        W23473  28.058  34.074  12.864
51148W        W23474  34.451  16.281  13.034
51149W        W23475  23.137  14.822   4.244
51150W        W23476  14.205  13.642  11.984
51151W        W23477  43.994  10.157   4.354
51152W        W23478  43.284   5.868   2.201
51153W        W23479  26.019  25.055   1.272
51154W        W23480  31.456  12.714   1.247
51155W        W23481  37.379  24.086   3.185
51156W        W23482  14.101  10.226  14.883
51157W        W23483  35.412  24.130  11.399
51158W        W23484  24.602  24.508   2.662
51159W        W23485  12.659  41.881   2.886
51160W        W23486   9.281   7.749   3.720
51161W        W23487  12.225  15.165  13.037
51162W        W23488  43.852  41.998   3.657
51163W        W23489   7.858  30.657   5.143
51164W        W23490  35.556  17.630   0.805
51165W        W23491  25.703   0.334  10.539
51166W        W23492  14.660  31.107  13.965
51167W        W23493  33.584   8.858  12.573
51168W        W23494  44.950  33.500  12.458
51169W        W23495  16.720  14.827   4.236
51170W        W23496  11.338  43.391  13.384
51171W        W23497  32.913  41.972  12.503
51172W        W23498  41.019  32.935   2.771
51173W        W23499  20.161   3.885   2.195
51174W        W23500  41.009  21.578  10.972
51175W        W23501   7.685  34.102   2.291
51176W        W23502  37.392  27.682  14.830
51177W        W23503  27.022  33.428  10.488
51178W        W23504  37.540   2.732   1.894
51179W        W23505   4.917  43.315   3.809
51180W        W23506  25.643  41.910  11.022
51181W        W23507  28.601   1.359  10.981
51182W        W23508  28.050   7.255   3.813
51183W        W23509   1.266  15.298   2.362
51184W        W23510  26.631   7.904   1.783
51185W        W23511  21.675  23.065   2.790
51186W        W23512   9.293   7.794   2.723
51187W        W23513  31.958  18.278   1.266
51188W        W23514  14.274   5.696  13.487
51189W        W23515  22.125  21.683   2.360
51190W        W23516  11.373  22.618   1.758
51191W        W23517   4.850  22.622  11.037
51192W        W23518  24.035  19.147   4.145
51193W        W23519   0.460  13.789  12.008
51194W        W23520  24.653  44.804   4.328
51195W        W23521  22.117  24.599   4.683
51196W        W23522  34.557  24.103  10.632
51197W        W23523  18.138  24.638  10.482
51198W        W23524  30.633  10.255  11.418
51199W        W23525   9.368  19.774   1.409
51200W        W23526  16.110  13.682   1.753
51201W        W23527  40.978  18.613   3.835
51202W        W23528   5.691  34.494   0.280
51203W        W23529  21.145   6.748  13.397
51204W        W23530  24.577   1.298  13.884
51205W        W23531  37.056  10.691   0.473
51206W        W23532  34.915  33.497   3.174
51207W        W23533  14.329   1.306  12.439
51208W        W23534   4.386  22.142   2.879
51209W        W23535  17.072   5.332  14.883
51210W        W23536  24.131  13.728   2.216
51211W        W23537  31.925  24.481  13.430
51212W        W23538  39.032   5.701   4.178
51213W        W23539  29.123  28.077  14.446
51214W        W23540  34.066  26.490  12.843
51215W        W23541  28.994  44.391  12.533
51216W        W23542  31.911  15.583  12.461
51217W        W23543  29.168  11.790  13.434
51218W        W23544  13.224  31.440   3.161
51219W        W23545  23.220  14.209  14.934
51220W        W23546  21.249  22.113   2.729
51221W        W23547   7.873   9.702   2.312
51222W        W23548  31.455   0.982   2.321
51223W        W23549  40.345  42.852  14.963
51224W        W23550   0.965   0.889   1.375
51225W        W23551  22.048  40.354   1.846
51226W        W23552  13.258   9.365   2.732
51227W        W23553  37.463  26.090  11.555
51228W        W23554  31.975  11.645   1.379
51229W        W23555  11.710  25.187  11.517
51230W        W23556   1.810  41.523   0.761
51231W        W23557  11.193  28.119  10.493
51232W        W23558  44.440  32.417  14.858
51233W        W23559  26.629  13.234  14.317
51234W        W23560   4.240  42.325   0.897
51235W        W23561  24.996  28.020   0.807
51236W        W23562  35.458  26.550   3.276
51237W        W23563  38.027  44.985  10.484
51238W        W23564  30.551  36.067   0.306
51239W        W23565   7.273  15.233  12.346
51240W        W23566  40.827  38.840   3.294
51241W        W23567   9.777  20.723   3.240
51242W        W23568  38.392  38.526  13.419
51243W        W23569  21.642  26.567  12.983
51244W        W23570  26.142  40.379   4.130
51245W        W23571  38.019  28.951  12.007
51246W        W23572  12.185  23.041  14.392
51247W        W23573  29.605  33.543  11.493
51248W        W23574  25.015  23.727  12.076
51249W        W23575  22.244  41.338   2.347
51250W        W23576  17.185  13.611   3.344
51251W        W23577   7.878   0.361  13.501
51252W        W23578   1.433  28.176   1.926
51253W        W23579   9.270  44.401  11.470
51254W        W23580  12.174  27.998  14.859
51255W        W23581  42.940  42.525  13.430
51256W        W23582   2.386   2.914  10.517
51257W        W23583  25.553  11.661   2.756
51258W        W23584  13.213  30.120   4.776
51259W        W23585  15.299   0.359  12.562
51260W        W23586  15.144   9.728  14.848
51261W        W23587   2.331  20.534   2.318
51262W        W23588  33.381  44.826  12.064
51263W        W23589  14.201  16.126  12.384
51264W        W23590  15.813   3.348   4.253
51265W        W23591  13.216  35.464   2.390
51266W        W23592   3.245  31.082   2.844
51267W        W23593  33.036  43.837  13.904
51268W        W23594   5.752  41.946  14.334
51269W        W23595   4.406  15.820  14.011
51270W        W23596  35.392   0.900   1.924
51271W        W23597  17.265  22.181  14.316
51272W        W23598  35.975  31.939  10.551
51273W        W23599   6.344  30.462  13.064
51274W        W23600  16.793  38.560   2.296
51275W        W23601   8.724  27.558  12.980
51276W        W23602  17.557  15.771  13.529
51277W        W23603  31.136   0.905  14.762
51278W        W23604  32.472   8.189  12.346
51279W        W23605  18.256  34.897  13.821
51280W        W23606  35.482  21.685   2.370
51281W        W23607  17.195  30.109   0.966
51282W        W23608   1.781  10.156  12.465
51283W        W23609  37.048  30.055  14.339
51284W        W23610  43.444  19.603  11.553
51285W        W23611  26.981  25.996  14.283
51286W        W23612  12.834  18.152   1.863
51287W        W23613  32.958  17.773   2.241
51288W        W23614   8.338  43.924   0.851
51289W        W23615  27.154  16.616  13.389
51290W        W23616  43.387  12.123  12.390
51291W        W23617   1.731  21.155   3.255
51292W        W23618  42.424  10.190   2.667
51293W        W23619  10.810  16.090  10.930
51294W        W23620  12.824  42.997  14.825
51295W        W23621  27.675  17.083  14.349
51296W        W23622  30.495   1.812   2.229
51297W        W23623  17.599  18.225  12.961
51298W        W23624  19.631  27.651  14.421
51299W        W23625  22.669  11.286  12.862
51300W        W23626  40.480   3.922   2.378
51301W        W23627  21.565  37.957   1.243
51302W        W23628  24.158   6.764  14.776
51303W        W23629  36.374   5.852   2.773
51304W        W23630  27.032  16.693   3.180
51305W        W23631   3.919  21.089   1.817
51306W        W23632  42.437  32.026  14.328
51307W        W23633  39.490   8.192  11.124
51308W        W23634   7.678   6.204  12.090
51309W        W23635  39.901  12.265  12.395
51310W        W23636  25.118  36.086  10.957
51311W        W23637  42.944  19.648  12.026
51312W        W23638  20.651  15.151   4.783
51313W        W23639  18.727   4.924  13.353
51314W        W23640  31.437  15.124   2.294
51315W        W23641   3.736  40.492  14.420
51316W        W23642  42.803   5.349   0.391
51317W        W23643   0.255  26.645   0.407
51318W        W23644  24.988  37.953   3.687
51319W        W23645  42.853  38.866  12.858
51320W        W23646   2.344  20.160  12.923
51321W        W23647   4.323  13.296  10.517
51322W        W23648  32.959  41.868   1.805
51323W        W23649  28.605  12.188  11.888
51324W        W23650  14.318  33.506   5.086
51325W        W23651   3.811  39.861   4.711
51326W        W23652  23.600  25.689   1.755
51327W        W23653  43.331  12.673   0.740
51328W        W23654  32.547  23.217  10.412
51329W        W23655  34.111  24.136  10.632
51330W        W23656  33.537   5.800  10.465
51331W        W23657  34.593  28.597   1.860
51332W        W23658  29.478  19.686   0.380
51333W        W23659  28.493  43.395  13.458
51334W        W23660   3.378  33.031   2.232
51335W        W23661   0.970  28.542  13.904
51336W        W23662   0.438  34.533   3.247
51337W        W23663  23.617  18.788   1.853
51338W        W23664   2.432  16.222   3.220
51339W        W23665  20.719  42.906  12.948
51340W        W23666  30.540  32.500  12.382
51341W        W23667  41.993  30.074   0.329
51342W        W23668  41.813  25.467  12.867
51343W        W23669  17.191   6.755   4.153
51344W        W23670  22.085  25.550   1.309
51345W        W23671  35.921  10.635   5.756
51346W        W23672  12.188  39.998  13.370
51347W        W23673   8.398  33.078  11.983
51348W        W23674   9.285  23.570   0.756
51349W        W23675  27.468  32.099  11.497
51350W        W23676   3.920  26.071   0.955
51351W        W23677   3.346  32.481   2.299
51352W        W23678  28.091   1.416  14.907
51353W        W23679  32.916   8.733   4.799
51354W        W23680  19.161  13.814  13.393
51355W        W23681  41.490  25.102   0.343
51356W        W23682  40.528  43.350   2.721
51357W        W23683   0.963   9.381   4.282
51358W        W23684   0.760  18.643  13.871
51359W        W23685  23.660  18.207   0.251
51360W        W23686  23.075   6.185  12.833
51361W        W23687   2.791  29.039   1.426
51362W        W23688   7.335   9.151  14.304
51363W        W23689  31.452  18.555  14.337
51364W        W23690  36.988  38.403   0.321
51365W        W23691  21.575  27.076  11.003
51366W        W23692   3.912  34.612  11.469
51367W        W23693  42.490  14.215  13.388
51368W        W23694   9.646  25.219  12.038
51369W        W23695  23.564  43.315   4.311
51370W        W23696   9.697   6.419  10.426
51371W        W23697  16.151  18.249  14.881
51372W        W23698  16.759  21.075  11.589
51373W        W23699  14.776  36.450   2.731
51374W        W23700  38.885  43.967   0.857
51375W        W23701   1.464  23.656  10.887
51376W        W23702  37.574   0.379   2.397
51377W        W23703  22.550  13.174  14.507
51378W        W23704  29.938  31.985   5.313
51379W        W23705   5.345   6.905   1.744
51380W        W23706   2.344  40.964  13.837
51381W        W23707  31.550  31.910   1.269
51382W        W23708  14.783  14.112   2.707
51383W        W23709  37.837   7.907   2.672
51384W        W23710  17.238  41.936  13.835
51385W        W23711  39.895  14.270  12.998
51386W        W23712  30.619  42.022   4.215
51387W        W23713  16.763   2.869  11.920
51388W        W23714   1.744  41.821  13.445
51389W        W23715   3.342  39.873  12.483
51390W        W23716  35.403   4.347   2.285
51391W        W23717   9.803  25.011  11.031
51392W        W23718  21.739  38.957   5.141
51393W        W23719  42.307  40.500   3.356
51394W        W23720   5.933  32.078  12.912
51395W        W23721   1.266   1.243  13.932
51396W        W23722  23.006  11.295   1.844
51397W        W23723  43.421  26.170   2.247
51398W        W23724   4.242  25.022   0.820
51399W        W23725  42.829   4.244   3.773
51400W        W23726  36.052   9.879  10.560
51401W        W23727  24.080  43.940  11.041
51402W        W23728  29.631  19.584   3.208
51403W        W23729  31.447  35.476  13.329
51404W        W23730  37.507  30.960   3.800
51405W        W23731  31.551   5.336   0.750
51406W        W23732  40.038  16.575   3.170
51407W        W23733  36.545   8.728  11.377
51408W        W23734   4.820  14.802   0.914
51409W        W23735  37.874  16.643   0.931
51410W        W23736   7.871  26.599   2.670
51411W        W23737   5.395  24.665  13.888
51412W        W23738  10.179  17.069   0.943
51413W        W23739   4.235  38.978  10.997
51414W        W23740   1.856   9.836  10.080
51415W        W23741  22.590  29.610  14.930
51416W        W23742  20.754   4.881  12.344
51417W        W23743  33.906  22.669  12.530
51418W        W23744  38.339   2.227  13.318
51419W        W23745  19.616  36.859  13.416
51420W        W23746  22.534  24.105  13.418
51421W        W23747   3.295   7.884  12.036
51422W        W23748   0.748  36.438  10.476
51423W        W23749  27.173  13.726   3.210
51424W        W23750  42.840  14.246   3.662
51425W        W23751   5.691  15.638   3.690
51426W        W23752  13.635  15.680   0.255
51427W        W23753  25.009  33.955  11.122
51428W        W23754  36.953  31.897  14.920
51429W        W23755  29.584  13.122   2.805
51430W        W23756  20.752  43.827  10.919
51431W        W23757  36.491  10.194  11.553
51432W        W23758  25.041  40.319   4.794
51433W        W23759   9.869  11.373  13.505
51434W        W23760  28.612  28.520   1.357
51435W        W23761  35.417   9.689   1.326
51436W        W23762  41.374   5.929  14.426
51437W        W23763  38.984  33.608   3.682
51438W        W23764   3.238  20.147   0.851
51439W        W23765  17.792  34.073  14.850
51440W        W23766  40.415  43.373   3.832
51441W        W23767  28.013  26.568  14.884
51442W        W23768   7.858  37.450   3.344
51443W        W23769   3.812  27.124   3.312
51444W        W23770  32.044  34.907   4.285
51445W        W23771   2.779  40.993  13.381
51446W        W23772  11.724   1.266   3.825
51447W        W23773  44.889   4.270   3.827
51448W        W23774  29.570  20.689   2.240
51449W        W23775  28.166  35.901   0.915
51450W        W23776   8.790  13.720   0.349
51451W        W23777  38.524   2.409  11.941
51452W        W23778  19.630  33.481  11.554
51453W        W23779   1.917  17.704   4.176
51454W        W23780  43.914   4.752   1.751
51455W        W23781   4.772  16.632  12.532
51456W        W23782  18.684  32.134   2.323
51457W        W23783  21.749  29.535   4.634
51458W        W23784   0.932   7.394   9.964
51459W        W23785   4.806  25.055   4.306
51460W        W23786  29.069  42.466   3.316
51461W        W23787  27.979  30.659   4.783
51462W        W23788  28.975  18.267  13.037
51463W        W23789  33.516  28.955   4.292
51464W        W23790  23.593   7.245   4.115
51465W        W23791  14.727  37.441  10.021
51466W        W23792  40.842  39.967  11.888
51467W        W23793  24.531   8.832   0.370
51468W        W23794  27.100  36.097   1.301
51469W        W23795  38.920  10.697   4.791
51470W        W23796  41.322  21.736   0.397
51471W        W23797  12.632  18.189   0.912
51472W        W23798   8.773   4.429   2.182
51473W        W23799  21.742  34.075  11.075
51474W        W23800   3.354   7.711   4.776
51475W        W23801  10.655  39.026  11.448
51476W        W23802  25.525  32.097   9.954
51477W        W23803  21.122  32.078   5.294
51478W        W23804  20.730  12.339   4.682
51479W        W23805  25.666  20.687  11.379
51480W        W23806  33.106  28.161   1.275
51481W        W23807  28.623   2.890  14.361
51482W        W23808  20.598  41.012  13.041
51483W        W23809  10.371  31.927   4.638
51484W        W23810   2.262  16.793  14.969
51485W        W23811  28.991  19.115   3.377
51486W        W23812   3.836   2.253  10.614
51487W        W23813  27.093  19.599   5.314
51488W        W23814  11.832  33.063  12.428
51489W        W23815   0.922  27.523  10.626
51490W        W23816  37.461  17.260   4.145
51491W        W23817   3.428  19.600   2.895
51492W        W23818  10.765  17.605   4.219
51493W        W23819  30.447  32.096  10.046
51494W        W23820   6.307  19.734  10.145
51495W        W23821  16.761  36.005  14.932
51496W        W23822  38.362  41.821   0.401
51497W        W23823  31.996  22.182   0.290
51498W        W23824  30.128  43.436   2.790
51499W        W23825   1.283  22.562   4.331
51500W        W23826  43.889  39.935   0.916
51501W        W23827  19.150  31.130  11.930
51502W        W23828  14.230  33.892   1.263
51503W        W23829  21.188  37.417   2.356
51504W        W23830  22.635  36.427   0.783
51505W        W23831   3.451  28.504  13.491
51506W        W23832  22.105  28.001   0.853
51507W        W23833  23.515  21.041   1.287
51508W        W23834  39.357  43.503  12.442
51509W        W23835   0.260  27.515  11.513
51510W        W23836  28.499  22.233  12.926
51511W        W23837  37.014  16.755   3.241
51512W        W23838  15.722  23.223  11.093
51513W        W23839   4.225  44.500   1.434
51514W        W23840  34.379  11.319  14.856
51515W        W23841  10.642  43.938   1.381
51516W        W23842   9.300  35.389  12.956
51517W        W23843   4.297  13.188  12.868
51518W        W23844   7.689  38.014   2.304
51519W        W23845  44.416  21.541  13.023
51520W        W23846   1.251  28.481   3.758
51521W        W23847  24.064  39.003   4.710
51522W        W23848   2.449  16.631   3.340
51523W        W23849  39.976   3.872  12.995
51524W        W23850  17.725  38.497  13.458
51525W        W23851  44.307   4.782   4.819
51526W        W23852   1.287   5.898  11.613
51527W        W23853  15.779   2.954   1.757
51528W        W23854  40.379  15.275   3.700
51529W        W23855  27.597  24.114  11.002
51530W        W23856  33.459  10.218   5.255
51531W        W23857  36.882  19.220  13.821
51532W        W23858  23.725   4.292   1.745
51533W        W23859   5.296  26.106  10.991
51534W        W23860  17.166  26.700  14.966
51535W        W23861   5.238   7.200  13.420
51536W        W23862  33.584  34.412  10.602
51537W        W23863  42.423  18.618  14.872
51538W        W23864  27.989  36.951   0.812
51539W        W23865  27.991  20.252   3.298
51540W        W23866  25.131  14.129  10.536
51541W        W23867  40.839  10.293  10.913
51542W        W23868  14.204  36.013  11.421
51543W        W23869  10.303  17.768   2.737
51544W        W23870  19.207  39.555  13.523
51545W        W23871  10.650  19.607   0.741
51546W        W23872   2.457  29.553   1.243
51547W        W23873   9.274   6.192   4.157
51548W        W23874  19.541   2.319  14.328
51549W        W23875  28.041  16.593  13.816
51550W        W23876  13.761  32.510  13.398
51551W        W23877  39.329   5.248   4.279
51552W        W23878  31.484  14.715   0.428
51553W        W23879  13.631  34.080   1.785
51554W        W23880   3.380  19.141  12.888
51555W        W23881  20.242  42.812  10.544
51556W        W23882  40.476   2.788  11.438
51557W        W23883  36.094   0.929   4.308
51558W        W23884  16.678   9.787   1.387
51559W        W23885  34.497  40.954   4.682
51560W        W23886  25.129  10.642   0.793
51561W        W23887  42.506  37.055   3.860
51562W        W23888  13.180  20.604   2.837
51563W        W23889   4.736  18.157   4.661
51564W        W23890   0.869  25.640  12.349
51565W        W23891  31.451  40.500  14.800
51566W        W23892   3.940   7.217  13.546
51567W        W23893  41.339   7.740   5.093
51568W        W23894  27.519   3.724   0.350
51569W        W23895  29.094  39.930  11.033
51570W        W23896  36.371   3.341  12.949
51571W        W23897   2.362  40.933   0.433
51572W        W23898   1.330   1.751   4.313
51573W        W23899  38.920   2.417   2.761
51574W        W23900   0.948  13.819   4.606
51575W        W23901  16.197  26.007   1.313
51576W        W23902   5.420  19.264  14.461
51577W        W23903  15.133  37.536  10.504
51578W        W23904  25.014   4.309  11.030
51579W        W23905  32.437  32.044  11.439
51580W        W23906  12.286  34.040  11.891
51581W        W23907  33.389  33.541   4.608
51582W        W23908  17.116   6.765  12.936
51583W        W23909  28.555  25.169  12.006
51584W        W23910  37.409  37.083  14.880
51585W        W23911   1.867   2.744   5.217
51586W        W23912   4.235   1.401  13.456
51587W        W23913  40.859  10.294  12.518
51588W        W23914   6.741  42.443   2.845
51589W        W23915  40.302  33.547   5.207
51590W        W23916  12.339   0.796  11.379
51591W        W23917  23.596  10.668  13.017
51592W        W23918  21.223   5.319  10.642
51593W        W23919   7.672  38.899   9.959
51594W        W23920  20.758   1.909   2.281
51595W        W23921  10.361  35.936  14.908
51596W        W23922  18.222  22.555   0.743
51597W        W23923   7.808  40.931  14.880
51598W        W23924  36.546   8.845   3.362
51599W        W23925  34.606  33.061   9.465
51600W        W23926  21.198  39.424  13.905
51601W        W23927  13.325  28.169  13.523
51602W        W23928  22.115  32.990  11.387
51603W        W23929  15.787   6.286   3.734
51604W        W23930  36.381  38.421   4.599
51605W        W23931  43.016  38.414   1.819
51606W        W23932  37.984  16.807  14.326
51607W        W23933  12.345  33.035  10.949
51608W        W23934  22.999  10.780   2.693
51609W        W23935  17.678   3.386  11.908
51610W        W23936  31.573  32.035  13.427
51611W        W23937  20.736  12.349   1.331
51612W        W23938  27.952  35.525  13.042
51613W        W23939  29.656  18.615   3.756
51614W        W23940  17.134  26.613  12.475
51615W        W23941  18.561  40.810   4.814
51616W        W23942  38.039   3.417   2.234
51617W        W23943  17.278  16.769   1.273
51618W        W23944  31.996  32.565   4.171
51619W        W23945   5.757   2.945  14.837
51620W        W23946  18.751   1.775  11.989
51621W        W23947  21.120   2.916   0.852
51622W        W23948  15.326  27.102  14.892
51623W        W23949   4.437  13.159   1.833
51624W        W23950   9.825  27.532   3.756
51625W        W23951  40.457   9.281   0.419
51626W        W23952  13.320  31.524  13.341
51627W        W23953  25.603   4.798   4.332
51628W        W23954  39.919  27.001  14.497
51629W        W23955   5.820  35.994  11.023
51630W        W23956   2.815   5.767  14.342
51631W        W23957  25.602  30.155   2.216
51632W        W23958  14.667  14.327   0.451
51633W        W23959  40.304  28.626   2.206
51634W        W23960  17.729  42.807   4.837
51635W        W23961  35.563  23.710  10.577
51636W        W23962  25.147   5.839  10.905
51637W        W23963  10.215  42.283   4.185
51638W        W23964  13.715  26.466  14.916
51639W        W23965  13.119  15.208  12.972
51640W        W23966  19.084  39.974  14.282
51641W        W23967  27.991  35.080   3.858
51642W        W23968  38.846  26.663  12.380
51643W        W23969  35.990  11.327  14.926
51644W        W23970   1.893  18.253  12.860
51645W        W23971  41.415  39.371  12.460
51646W        W23972  21.158  43.954  12.036
51647W        W23973  29.602  35.537   1.708
51648W        W23974   3.715  10.318   2.211
51649W        W23975  38.422  40.923  14.985
51650W        W23976  16.743  32.619   0.902
51651W        W23977   5.265   4.336   2.339
51652W        W23978  44.824  19.256   2.804
51653W        W23979  33.994   2.295   1.273
51654W        W23980  36.546  44.335  12.076
51655W        W23981  41.510  23.713  14.395
51656W        W23982  34.456   8.171   2.727
51657W        W23983  39.991  31.948  13.348
51658W        W23984  10.728  26.081  14.469
51659W        W23985  16.745  22.062  10.421
51660W        W23986   4.768  39.949  14.376
51661W        W23987  22.554  15.587  10.890
51662W        W23988   2.937  32.109   2.786
51663W        W23989  13.782  19.682   2.797
51664W        W23990  12.144  24.172   1.353
51665W        W23991  32.476  38.400   2.826
51666W        W23992   8.246   0.311  11.412
51667W        W23993  44.450  33.456   2.704
51668W        W23994  31.599  26.483   0.820
51669W        W23995  42.991  31.915  11.494
51670W        W23996   2.791  15.598  11.124
51671W        W23997  41.919   3.225   3.858
51672W        W23998   0.288  10.250   5.644
51673W        W23999  21.183  34.910   1.226
51674W        W24000  24.670  12.289   3.196
51675W        W24001   5.876  34.088  12.037
51676W        W24002  12.831  39.477  10.425
51677W        W24003  26.471   4.351  11.574
51678W        W24004  28.656   7.380   0.814
51679W        W24005  26.575   7.798   0.388
51680W        W24006  34.494  31.432  11.891
51681W        W24007  12.836  24.182   0.250
51682W        W24008  17.082  33.486   4.640
51683W        W24009   5.238  28.544   1.265
51684W        W24010  18.778  44.279   3.166
51685W        W24011  41.346  31.633  12.470
51686W        W24012  37.853  24.692  13.543
51687W        W24013  17.733  29.642   1.716
51688W        W24014  29.425  38.831   2.669
51689W        W24015  18.692  15.734  13.362
51690W        W24016  31.438   6.197  14.780
51691W        W24017  22.615  44.425  12.985
51692W        W24018  41.964  10.240  10.003
51693W        W24019   4.405  25.094  14.305
51694W        W24020  15.269  39.347  10.942
51695W        W24021  39.498  10.145   4.827
51696W        W24022  36.030  15.726  10.043
51697W        W24023  16.745  30.064   4.687
51698W        W24024  15.227   8.739  10.532
51699W        W24025   6.212  24.149   0.791
51700W        W24026  13.195   2.247   1.229
51701W        W24027  15.594  35.553  13.318
51702W        W24028  42.810  10.362  13.312
51703W        W24029   9.811  27.168   1.250
51704W        W24030   5.286  38.555  11.022
51705W        W24031  23.713  12.121  10.624
51706W        W24032  18.110   2.764  12.451
51707W        W24033  36.900   1.255   4.121
51708W        W24034  11.623  17.676  10.637
51709W        W24035  15.798  29.080   3.793
51710W        W24036   0.901  22.687   2.386
51711W        W24037  18.097  37.417  14.337
51712W        W24038  34.388  28.076   3.243
51713W        W24039  17.167  20.219  10.641
51714W        W24040  22.173  39.551   3.856
51715W        W24041   4.434  15.726   2.313
51716W        W24042  40.343   8.194   0.382
51717W        W24043   6.776   2.737  14.762
51718W        W24044   1.260  41.469  14.810
51719W        W24045  25.598  30.637   0.823
51720W        W24046   3.925  33.514  14.957
51721W        W24047  13.312  34.880  13.997
51722W        W24048  21.116   0.849   0.784
51723W        W24049   1.737  41.933   3.209
51724W        W24050  37.931  11.694  13.990
51725W        W24051  20.099  24.626   4.725
51726W        W24052  36.376   4.832   0.801
51727W        W24053  40.403   8.191  10.634
51728W        W24054   8.729  42.926  13.395
51729W        W24055   9.350  30.520  14.290
51730W        W24056  24.501  38.450   2.215
51731W        W24057  38.401  21.058  12.895
51732W        W24058   1.912  32.042  14.891
51733W        W24059  22.595  17.117   4.235
51734W        W24060  37.419  13.805  10.476
51735W        W24061  21.642  25.541   0.881
51736W        W24062   8.401  17.700   0.376
51737W        W24063  44.886   4.874   1.887
51738W        W24064   1.450   7.748   1.440
51739W        W24065  12.748  33.449   0.763
51740W        W24066  28.089  18.753   2.291
51741W        W24067  14.629   5.239  13.317
51742W        W24068   5.847  36.919  14.278
51743W        W24069   1.424   4.346   9.613
51744W        W24070  15.137  10.681  14.853
51745W        W24071  22.742  13.114  12.877
51746W        W24072  36.511  38.533   3.186
51747W        W24073  40.509  22.006   4.764
51748W        W24074   5.293   9.300   2.242
51749W        W24075  40.456   8.741  10.891
51750W        W24076  34.999  17.709  13.489
51751W        W24077  43.300  44.791   3.171
51752W        W24078  41.975  34.868  13.803
51753W        W24079  10.235   5.282  14.328
51754W        W24080  33.558   0.901  13.966
51755W        W24081  17.692  25.471  13.873
51756W        W24082  38.380   6.748   2.234
51757W        W24083  33.623   2.800   1.338
51758W        W24084  43.792  39.024  10.494
51759W        W24085  44.918   1.844  10.980
51760W        W24086  42.009  25.602   0.825
51761W        W24087   5.795  21.712   0.408
51762W        W24088  38.437  34.378   3.753
51763W        W24089   9.670  10.785  12.054
51764W        W24090  16.118   5.733   1.429
51765W        W24091   7.346  36.041  14.954
51766W        W24092  19.660   1.338  11.091
51767W        W24093   8.256  24.111   3.784
51768W        W24094  11.821  16.588   4.164
51769W        W24095   5.877  38.451   0.284
51770W        W24096  32.595  30.993  11.935
51771W        W24097  31.442  35.497   2.180
51772W        W24098  39.843   9.814   1.932
51773W        W24099  41.802  10.653  12.562
51774W        W24100   0.852  31.125  11.028
51775W        W24101   0.851  26.019  13.495
51776W        W24102  33.077   4.266   2.388
51777W        W24103  22.076  35.032   4.268
51778W        W24104   1.932   6.702  13.371
51779W        W24105  12.193  20.734  13.017
51780W        W24106   9.718  40.399  11.388
51781W        W24107  18.295  18.089  13.416
51782W        W24108  35.583  13.637   2.686
51783W        W24109  18.099   0.828   1.757
51784W        W24110  14.833  15.167   3.315
51785W        W24111   6.920  18.194   4.228
51786W        W24112  13.800  27.040  11.449
51787W        W24113  37.517   8.393  11.600
51788W        W24114   1.324  38.857   3.342
51789W        W24115  20.674  26.042  10.573
51790W        W24116  42.353  25.021  12.011
51791W        W24117   4.748   7.416   4.257
51792W        W24118  15.286  22.075  11.452
51793W        W24119  41.932  21.540  11.991
51794W        W24120  42.349  21.579   0.881
51795W        W24121  40.833  18.615   3.251
51796W        W24122  21.127  10.268   2.702
51797W        W24123  20.030   1.311   0.363
51798W        W24124  28.958  35.969   4.329
51799W        W24125  25.084  16.152  13.043
51800W        W24126   1.751  40.375   0.400
51801W        W24127  13.656  28.551  11.375
51802W        W24128  26.621   1.896  14.960
51803W        W24129  15.787   8.827  14.354
51804W        W24130  42.376  33.096  13.383
51805W        W24131  22.127  33.883  14.945
51806W        W24132  44.290  11.341   3.658
51807W        W24133  22.502  39.508  10.519
51808W        W24134  18.060  39.458  14.279
51809W        W24135  32.591   1.733  10.921
51810W        W24136  33.496  41.828   2.217
51811W        W24137  12.275  13.197  14.371
51812W        W24138  31.010  18.086   4.237
51813W        W24139   8.302   1.859   1.782
51814W        W24140   3.379  36.457   2.281
51815W        W24141  42.357  19.672  11.420
51816W        W24142  44.853  43.770   3.282
51817W        W24143  43.922   5.213  14.855
51818W        W24144  43.396   3.286   3.215
51819W        W24145  39.923  35.568  11.552
51820W        W24146  26.629  39.457   0.868
51821W        W24147  22.110   3.311  14.919
51822W        W24148  32.400  39.505  12.579
51823W        W24149  21.661   4.294  14.349
51824W        W24150  27.015   3.792  13.311
51825W        W24151  19.180   9.227  10.977
51826W        W24152   5.269  29.972   0.889
51827W        W24153  23.686  44.852  12.900
51828W        W24154  43.833  24.723   2.777
51829W        W24155   2.849  34.516  12.080
51830W        W24156  20.193  11.824  12.845
51831W        W24157  19.582  40.533  13.400
51832W        W24158  33.499  33.394  12.531
51833W        W24159  13.698  11.239  12.005
51834W        W24160  22.210  42.523   4.825
51835W        W24161  15.194  29.456  12.016
51836W        W24162   6.216  10.709  14.512
51837W        W24163  29.103  39.538  14.370
51838W        W24164  16.194  34.389  12.450
51839W        W24165  29.429  20.256  10.455
51840W        W24166  38.863  17.240   4.682
51841W        W24167  40.342  38.917  14.830
51842W        W24168  27.050  31.487   2.849
51843W        W24169  17.291   7.393   1.879
51844W        W24170  42.784  11.834  14.400
51845W        W24171   9.868  17.650  11.386
51846W        W24172  43.794  43.400  12.037
51847W        W24173  34.120  44.916  12.035
51848W        W24174  15.271   2.819   3.334
51849W        W24175   9.866  13.130  12.402
51850W        W24176  23.514  36.911  13.827
51851W        W24177  29.450   0.285  11.429
51852W        W24178  14.228  27.545  12.032
51853W        W24179  44.372  33.607   4.690
51854W        W24180  34.604  23.126  14.793
51855W        W24181  44.969  16.159  14.879
51856W        W24182  21.250  40.835  13.022
51857W        W24183   9.727   8.281  11.428
51858W        W24184  13.616  44.326   4.230
51859W        W24185  39.346  15.595   2.854
51860W        W24186   5.934  40.827   2.677
51861W        W24187  13.350  12.837  11.455
51862W        W24188  10.234   3.791   1.229
51863W        W24189  22.039   8.236   4.124
51864W        W24190  20.069   4.765  12.901
51865W        W24191  31.498   0.487  10.560
51866W        W24192   1.785  20.735  13.952
51867W        W24193  31.079  37.909   0.461
51868W        W24194  28.163   0.260   1.742
51869W        W24195   1.314  26.052   0.428
51870W        W24196  43.770  38.836  12.035
51871W        W24197  14.816  19.272  12.390
51872W        W24198   6.775  36.951  13.371
51873W        W24199  25.083   5.284  10.948
51874W        W24200  19.591  25.525  10.473
51875W        W24201  30.100   5.208  13.501
51876W        W24202  37.025  12.772  11.909
51877W        W24203  22.192  12.719   2.702
51878W        W24204   2.347  28.992   1.280
51879W        W24205  21.232  27.127  12.447
51880W        W24206  26.097  40.867   2.689
51881W        W24207  23.572  15.144   9.445
51882W        W24208  14.313  15.595  12.453
51883W        W24209   9.866  37.522  12.524
51884W        W24210  20.745  29.932   2.370
51885W        W24211   3.875  34.961   3.807
51886W        W24212  16.291  11.806  12.938
51887W        W24213  23.152  36.959  13.895
51888W        W24214  19.668  34.394  11.124
51889W        W24215  38.891  44.373  14.775
51890W        W24216  39.439  27.120  11.023
51891W        W24217  15.329  34.932  13.372
51892W        W24218  18.166  30.916   0.798
51893W        W24219  28.566  38.421   1.834
51894W        W24220   2.404  40.432   5.269
51895W        W24221  27.982  28.491   1.437
51896W        W24222  36.582  41.444  11.068
51897W        W24223  37.928  20.121  13.965
51898W        W24224  18.178  22.010   0.409
51899W        W24225  41.345  37.508  10.499
51900W        W24226  12.312  18.271  13.348
51901W        W24227   8.350  41.843  13.436
51902W        W24228  30.929  11.356  10.901
51903W        W24229   6.366  13.106   3.709
51904W        W24230  22.054  20.575  14.472
51905W        W24231   9.258  36.071  12.056
51906W        W24232   0.892  44.345  10.490
51907W        W24233  23.687  35.991  11.947
51908W        W24234  36.961  39.513   0.244
51909W        W24235  21.588  44.846  13.432
51910W        W24236  40.524  41.523   2.869
51911W        W24237  23.203  37.909  13.421
51912W        W24238  25.008  20.161  10.427
51913W        W24239  28.004  16.302   1.335
51914W        W24240   6.902   8.778  13.907
51915W        W24241   7.780  23.706   4.285
51916W        W24242  31.644  14.769   2.369
51917W        W24243  18.062  11.788   4.322
51918W        W24244  17.703  34.896   1.928
51919W        W24245  15.093  23.593   0.774
51920W        W24246   2.265  17.615  13.058
51921W        W24247  19.563   2.924   0.383
51922W        W24248   9.794   8.884  13.822
51923W        W24249   7.265  37.915   2.412
51924W        W24250  22.601  30.494  12.407
51925W        W24251  41.499  22.052  10.967
51926W        W24252  36.873  27.566   3.822
51927W        W24253  17.793  43.311  14.401
51928W        W24254  24.636  26.071  10.956
51929W        W24255   3.843  43.493   2.185
51930W        W24256  13.140  22.126  11.407
51931W        W24257  27.941  10.338  11.051
51932W        W24258  11.167  41.852   2.251
51933W        W24259  16.155  32.973  13.438
51934W        W24260  34.969  35.519  12.419
51935W        W24261  30.556  25.673  11.575
51936W        W24262  22.558  26.989  14.955
51937W        W24263  22.182  26.547  12.380
51938W        W24264  33.048  10.823   2.857
51939W        W24265  16.252   4.788   1.929
51940W        W24266  41.306   6.839   1.874
51941W        W24267  30.914  34.577  14.938
51942W        W24268  32.084  15.762  13.527
51943W        W24269  18.249  22.198  11.567
51944W        W24270   4.216   6.406   2.704
51945W        W24271  40.428  33.906  10.451
51946W        W24272  25.987  35.898   0.365
51947W        W24273  13.335   2.781   3.282
51948W        W24274  40.987  14.650   2.752
51949W        W24275  29.043  15.183  12.491
51950W        W24276  18.231   6.382  13.446
51951W        W24277  33.596  37.392   0.904
51952W        W24278  16.567  24.493  10.570
51953W        W24279  12.324  12.841   4.689
51954W        W24280  43.401   3.818   2.341
51955W        W24281  29.920  39.013  13.420
51956W        W24282  39.450  44.965  13.408
51957W        W24283  23.126  40.971  13.530
51958W        W24284  29.488   7.744  13.496
51959W        W24285  43.394   2.774   0.419
51960W        W24286   6.281  32.478   0.394
51961W        W24287  28.640   4.788   3.238
51962W        W24288  21.610  28.115   0.288
51963W        W24289  39.338   1.354   0.374
51964W        W24290   1.383  12.311   3.181
51965W        W24291   8.231  12.149   2.332
51966W        W24292  17.574  20.684   2.883
51967W        W24293   2.765  24.695  10.465
51968W        W24294  29.031  13.268   2.317
51969W        W24295  35.053   3.819   2.776
51970W        W24296   8.361  33.538   3.667
51971W        W24297  37.885  36.541  14.332
51972W        W24298  34.008  35.941   5.166
51973W        W24299  44.817  42.366  14.904
51974W        W24300  25.468  43.395  14.991
51975W        W24301   2.947  35.513   3.705
51976W        W24302   7.773  12.142   4.130
51977W        W24303   4.238   2.417  14.760
51978W        W24304  40.425  15.136   4.314
51979W        W24305  27.007  21.742   0.933
51980W        W24306   5.427  19.265   3.285
51981W        W24307  21.587  34.091  11.907
51982W        W24308  30.065   5.689  12.537
51983W        W24309  24.046  26.959  12.531
51984W        W24310  33.465   8.792   1.385
51985W        W24311   3.225  24.129  12.095
51986W        W24312  24.994  33.423   4.118
51987W        W24313  12.745  24.112   5.097
51988W        W24314  44.332  24.047   3.270
51989W        W24315  31.129   5.231   1.799
51990W        W24316   6.817  23.041   1.319
51991W        W24317   4.726  26.575  13.823
51992W        W24318   7.272   3.390   0.832
51993W        W24319  15.117  24.986  12.448
51994W        W24320  24.631  13.633  12.011
51995W        W24321  28.631   0.761  12.005
51996W        W24322  31.476  41.855   4.640
51997W        W24323  38.924  19.073   2.835
51998W        W24324  41.971  35.060  11.079
51999W        W24325  43.287  16.744   0.783
52000W        W24326  13.212  29.529   2.316
52001W        W24327   7.211   7.743   1.345
52002W        W24328  27.006   8.716  10.451
52003W        W24329  14.733  17.280  11.867
52004W        W24330  27.069  17.557   1.750
52005W        W24331  22.138  42.526  12.070
52006W        W24332  34.917  42.934  14.971
52007W        W24333  43.291   1.964  11.994
52008W        W24334  39.420  13.306  11.007
52009W        W24335  19.690  37.038  10.593
52010W        W24336  12.625   8.370  13.825
52011W        W24337   9.291  25.978  13.002
52012W        W24338  15.630  20.048  13.487
52013W        W24339  40.028  14.271   1.347
52014W        W24340   0.398   5.858  11.997
52015W        W24341  24.050  30.129  14.407
52016W        W24342  35.079   1.467   0.832
52017W        W24343  40.925   5.364   0.443
52018W        W24344  19.733   7.267   1.443
52019W        W24345  41.893  31.582   2.201
52020W        W24346   3.389  42.964  12.029
52021W        W24347   1.858  17.303   4.652
52022W        W24348  29.048  10.832   4.637
52023W        W24349  39.973  32.976  11.929
52024W        W24350  10.265   6.370  12.367
52025W        W24351  35.106  37.350  13.420
52026W        W24352   8.178   3.399  14.800
52027W        W24353  27.465  31.427  11.934
52028W        W24354  24.521  42.297  11.018
52029W        W24355   1.903  25.216   1.790
52030W        W24356  25.604  36.429  11.888
52031W        W24357   2.896  45.000   3.735
52032W        W24358  38.495  16.609   0.905
52033W        W24359  40.459  17.768  14.003
52034W        W24360   1.237  26.575   1.766
52035W        W24361   8.728  28.641  14.815
52036W        W24362  20.564   4.430   4.601
52037W        W24363  23.560  21.545   3.814
52038W        W24364  36.480  37.394  10.533
52039W        W24365  43.372  16.125  13.387
52040W        W24366  36.400  39.450   2.858
52041W        W24367  27.467   8.737  11.579
52042W        W24368  41.891  39.552   1.841
52043W        W24369  43.416  27.153   1.378
52044W        W24370  18.055   2.270  11.518
52045W        W24371  43.012  30.422   3.356
52046W        W24372  31.508  22.150   1.914
52047W        W24373  15.098  25.653   0.471
52048W        W24374  42.016  41.838  11.541
52049W        W24375  27.091  12.819  11.050
52050W        W24376  24.138  23.183  13.415
52051W        W24377   6.336  19.245  14.003
52052W        W24378  15.594  32.956   3.179
52053W        W24379  24.656  23.213  11.526
52054W        W24380  11.127   6.323   0.276
52055W        W24381   6.743  17.186  13.490
52056W        W24382  39.467  32.969  14.930
52057W        W24383  35.886  27.130   0.799
52058W        W24384  42.909   0.460   0.256
52059W        W24385  37.549   2.826   3.235
52060W        W24386  26.703  20.229   2.262
52061W        W24387   0.939  17.754  14.003
52062W        W24388  43.918  29.648  12.088
52063W        W24389  26.029  24.187   0.387
52064W        W24390   9.657  42.882   2.302
52065W        W24391  27.169  35.503  14.471
52066W        W24392  29.042  21.574   1.228
52067W        W24393  12.303  36.371   9.992
52068W        W24394  17.651  41.521   0.945
52069W        W24395  35.996   2.861   0.440
52070W        W24396  20.651  17.123  10.579
52071W        W24397  25.976  27.640   2.351
52072W        W24398  32.006  30.910   3.690
52073W        W24399  29.650  15.252   3.818
52074W        W24400  34.571  19.635  13.351
52075W        W24401  23.567  19.126  11.066
52076W        W24402  44.872  33.034  13.362
52077W        W24403  37.436  40.797  11.462
52078W        W24404  21.686  14.243  10.587
52079W        W24405  21.543  38.373  13.818
52080W        W24406  17.284   4.326   4.790
52081W        W24407   8.395  44.996   0.454
52082W        W24408  21.560   7.409   3.248
52083W        W24409  10.228   9.241   2.815
52084W        W24410   6.386   0.450  11.591
52085W        W24411  14.317  29.632   2.783
52086W        W24412  32.908  10.659  13.963
52087W        W24413  27.170  44.459  13.406
52088W        W24414  24.215  23.666   2.804
52089W        W24415   7.909  33.426   2.311
52090W        W24416  40.533  43.477   2.264
52091W        W24417  10.176  28.083   1.236
52092W        W24418  30.988   2.935  10.552
52093W        W24419  43.461  26.517   0.855
52094W        W24420  31.505  20.121   4.697
52095W        W24421  40.982  43.835   4.659
52096W        W24422  32.971  27.675   2.366
52097W        W24423  15.672  21.066  12.494
52098W        W24424  13.647  35.933   5.313
52099W        W24425  41.488  18.197  10.569
52100W        W24426  43.510  15.174   3.231
52101W        W24427  40.038  43.468   3.671
52102W        W24428   6.715  41.354  12.373
52103W        W24429  40.876   0.964  11.501
52104W        W24430  21.726  29.030  11.489
52105W        W24431  40.480  44.371  13.457
52106W        W24432   2.271   7.212  10.145
52107W        W24433  27.107  19.068   0.900
52108W        W24434  18.738  31.983   4.342
52109W        W24435  41.980   8.273   3.850
52110W        W24436  41.406  40.324  12.913
52111W        W24437  11.776  19.096   3.685
52112W        W24438  37.501  24.229  10.607
52113W        W24439  29.150  19.767  11.375
52114W        W24440  16.147  22.242  12.042
52115W        W24441  34.897   5.787   1.424
52116W        W24442   0.944   6.811  10.992
52117W        W24443  24.709  16.271   3.869
52118W        W24444   6.892  27.590   0.887
52119W        W24445  35.066  43.873   2.701
52120W        W24446  12.788  29.566  10.643
52121W        W24447  40.974  16.713  14.908
52122W        W24448  11.863  19.562  12.061
52123W        W24449  23.676  23.570  12.028
52124W        W24450  16.626  34.980  13.039
52125W        W24451  14.834   4.389   0.479
52126W        W24452  19.046  40.339  14.449
52127W        W24453  42.392  22.109   2.335
52128W        W24454  33.908  22.687  12.089
52129W        W24455   3.773  32.917  11.080
52130W        W24456  30.071  29.620  14.771
52131W        W24457  20.651   9.685  13.423
52132W        W24458   1.877  25.978   0.284
52133W        W24459  10.726  26.956   2.264
52134W        W24460  21.261  35.009  11.086
52135W        W24461  22.181  15.604   5.599
52136W        W24462   7.757  12.840   0.460
52137W        W24463  20.569  23.219  12.421
52138W        W24464  19.712  43.954  12.023
52139W        W24465   1.464  36.005  10.976
52140W        W24466  14.742  15.743   3.828
52141W        W24467  11.193  11.328  14.792
52142W        W24468  16.806  11.175   3.235
52143W        W24469   4.942  44.894  13.459
52144W        W24470  39.338  30.657   3.190
52145W        W24471  15.270  33.083  12.977
52146W        W24472   4.842  37.530   2.408
52147W        W24473  19.753   9.326  12.565
52148W        W24474  36.965   1.791  11.012
52149W        W24475  26.974   3.915  12.966
52150W        W24476  21.545   7.758  13.387
52151W        W24477  41.309  17.064  12.872
52152W        W24478  10.282  33.559  12.828
52153W        W24479  28.477  14.211  14.863
52154W        W24480  16.284  24.163  10.423
52155W        W24481  23.587  21.615  14.342
52156W        W24482  24.637  40.326   0.929
52157W        W24483   0.854  26.640   1.735
52158W        W24484   9.659  37.388   3.371
52159W        W24485  25.039   0.423   4.288
52160W        W24486  34.009  21.064   4.753
52161W        W24487  34.106  32.114   2.363
52162W        W24488   3.384  36.582  13.987
52163W        W24489   6.817   6.920  13.036
52164W        W24490  18.684  22.021   3.832
52165W        W24491  44.380   7.407  11.532
52166W        W24492  42.337  15.272   4.333
52167W        W24493  16.312  21.574  14.773
52168W        W24494   8.252  20.632   3.370
52169W        W24495  39.873  33.975  10.511
52170W        W24496   6.741  24.074  14.817
52171W        W24497  35.421  41.378   2.857
52172W        W24498  43.409  16.792   1.449
52173W        W24499  18.546  13.754   4.323
52174W        W24500  28.005  43.449   3.812
52175W        W24501  42.492  11.628   3.336
52176W        W24502   6.906  26.653  12.059
52177W        W24503  26.037  17.790   5.321
52178W        W24504  40.821  38.844   1.291
52179W        W24505  27.619  33.919  11.876
52180W        W24506  43.976  23.035   4.630
52181W        W24507   4.268  39.545  14.333
52182W        W24508  44.449  14.275  11.486
52183W        W24509  29.575  10.652   4.785
52184W        W24510  33.410  16.231  11.031
52185W        W24511   5.817  25.182  13.847
52186W        W24512  34.024  11.743   2.772
52187W        W24513  19.681  44.780   4.264
52188W        W24514  28.023   4.215  10.472
52189W        W24515  13.224  28.089  12.865
52190W        W24516  27.027  44.759  11.612
52191W        W24517   6.363  19.780   4.301
52192W        W24518   5.396  19.714  11.470
52193W        W24519  44.420  43.968  10.446
52194W        W24520   7.806   0.451  11.495
52195W        W24521  43.401  40.855   2.374
52196W        W24522   8.232  39.329  13.060
52197W        W24523  19.619  32.062  12.836
52198W        W24524  39.838  21.691   3.332
52199W        W24525  31.088  15.749  12.996
52200W        W24526  19.731  35.426   1.238
52201W        W24527  14.611  13.814  11.102
52202W        W24528  11.296  31.932  14.431
52203W        W24529  16.573  28.140  11.895
52204W        W24530  33.115  28.647   0.327
52205W        W24531  11.253  31.025  14.495
52206W        W24532  10.864   9.649  13.931
52207W        W24533  44.760  14.327   3.674
52208W        W24534  33.395  12.835  11.605
52209W        W24535  22.186  15.662   4.298
52210W        W24536  21.164  39.468   0.737
52211W        W24537  38.375  32.634  10.925
52212W        W24538  13.256  25.212  14.905
52213W        W24539   9.351  28.936  14.853
52214W        W24540  37.947  33.023  12.367
52215W        W24541  28.966   6.823  11.973
52216W        W24542  14.119   3.710   4.689
52217W        W24543  16.722   6.726  12.924
52218W        W24544  20.700   2.867  13.310
52219W        W24545   5.720  27.943   2.670
52220W        W24546   4.869  18.165  13.808
52221W        W24547  32.126   9.170   4.158
52222W        W24548  18.561  13.279   1.438
52223W        W24549   1.868  36.424   1.308
52224W        W24550   2.851   9.316  14.317
52225W        W24551  15.581  27.099  11.593
52226W        W24552  18.755  30.050  12.500
52227W        W24553  10.852  35.986   3.375
52228W        W24554  14.299  17.766  14.963
52229W        W24555  11.753  33.121   0.478
52230W        W24556  26.601  18.612   1.874
52231W        W24557  21.228  29.585  14.446
52232W        W24558  15.230   4.906  11.405
52233W        W24559  35.430  23.683  14.419
52234W        W24560  13.233  25.482   2.899
52235W        W24561  14.329  12.242  12.998
52236W        W24562  29.564  31.646   1.404
52237W        W24563  13.830  14.230   2.847
52238W        W24564  32.114  43.498  11.099
52239W        W24565   1.807  34.063   0.343
52240W        W24566  12.748  25.965   0.832
52241W        W24567   7.364   9.733   3.312
52242W        W24568  40.413   4.937  13.382
52243W        W24569  41.950  16.237  13.979
52244W        W24570  11.792  13.822  10.101
52245W        W24571   3.847  34.911   4.169
52246W        W24572  23.542  22.065   3.326
52247W        W24573  25.070  36.060   4.242
52248W        W24574  32.627  24.006   4.777
52249W        W24575  17.608  32.050   0.252
52250W        W24576   8.170  32.104   0.425
52251W        W24577  24.044   3.719  11.942
52252W        W24578  29.149  27.574   2.370
52253W        W24579  12.694  14.249  14.507
52254W        W24580   6.877   5.363   4.713
52255W        W24581  28.034   6.702  11.591
52256W        W24582  17.123   6.417   3.834
52257W        W24583  30.644  30.616  14.862
52258W        W24584  43.981  19.757  11.861
52259W        W24585  17.213  10.842   2.674
52260W        W24586  18.653  28.505   1.443
52261W        W24587  44.756  42.436  11.014
52262W        W24588  11.316   7.833  14.891
52263W        W24589   3.727   6.226  13.875
52264W        W24590   3.895  31.012  13.839
52265W        W24591  21.636  31.134   3.808
52266W        W24592   9.703  24.534   3.793
52267W        W24593  28.160   7.189  13.484
52268W        W24594  30.006   2.430   3.690
52269W        W24595  29.934  41.951  11.526
52270W        W24596  28.009  41.371   4.183
52271W        W24597  15.121   4.431  11.929
52272W        W24598  28.434  12.341   2.292
52273W        W24599   3.709  17.686   3.191
52274W        W24600  25.144  22.661  13.433
52275W        W24601  14.220  40.802   0.388
52276W        W24602  22.572  22.200   0.321
52277W        W24603  31.423   9.233  11.047
52278W        W24604  16.208  40.443   3.860
52279W        W24605   4.732  15.115  13.497
52280W        W24606   6.776  34.609  11.412
52281W        W24607  19.109  34.887  12.902
52282W        W24608  25.664  40.005   0.484
52283W        W24609   7.415  35.985  14.282
52284W        W24610   1.954   9.846  10.635
52285W        W24611  29.956   4.271   2.269
52286W        W24612  34.957  32.912   1.708
52287W        W24613  34.609  44.981   0.420
52288W        W24614   0.485  24.086  13.370
52289W        W24615   1.391  31.148  13.372
52290W        W24616  22.024  10.139   4.328
52291W        W24617  31.099  34.558  11.609
52292W        W24618  40.911  43.866   1.298
52293W        W24619  23.699  31.145   4.707
52294W        W24620  36.010  29.449   0.366
52295W        W24621   9.224   3.712  11.940
52296W        W24622  30.118  22.063   2.304
52297W        W24623  16.582  19.708   3.330
52298W        W24624  30.649   0.936   3.259
52299W        W24625  14.151  19.039  14.777
52300W        W24626  23.035  41.827  14.400
52301W        W24627  18.148  12.206   4.322
52302W        W24628  28.545   9.668   2.326
52303W        W24629   2.250  29.957   1.360
52304W        W24630  30.428  41.303   3.765
52305W        W24631  19.155  26.531  12.917
52306W        W24632  31.061  11.721  14.820
52307W        W24633  24.148  44.960   0.353
52308W        W24634   6.354  10.197  14.368
52309W        W24635  12.354  14.279   3.218
52310W        W24636  43.300  41.400  12.039
52311W        W24637  19.743  34.440   3.649
52312W        W24638  42.831  37.345   0.727
52313W        W24639   8.867   3.446   3.191
52314W        W24640  37.834   5.422  13.836
52315W        W24641  42.001  15.197  10.404
52316W        W24642   6.185  43.488   4.629
52317W        W24643  21.539   8.365   3.807
52318W        W24644   9.344   6.825  13.469
52319W        W24645  27.456  17.777  11.553
52320W        W24646   6.305  40.880   1.889
52321W        W24647  30.513  17.239  11.559
52322W        W24648   9.856  10.807  13.392
52323W        W24649  11.762  40.340  10.982
52324W        W24650  15.792  18.225  12.969
52325W        W24651   3.451   8.808  13.924
52326W        W24652  22.051  31.580  12.066
52327W        W24653  32.630  32.614  14.818
52328W        W24654  27.996  44.484   5.276
52329W        W24655  36.413   1.470   2.362
52330W        W24656   7.673  42.325  13.825
52331W        W24657  16.114  28.085   1.798
52332W        W24658  39.877  41.912   3.146
52333W        W24659   6.311  20.157  10.492
52334W        W24660  17.702   6.367   2.811
52335W        W24661  13.164  15.601   3.210
52336W        W24662  35.922  29.079  14.017
52337W        W24663  40.951   6.861   0.370
52338W        W24664  16.174  41.471  11.523
52339W        W24665  40.943  43.421  11.515
52340W        W24666  12.682  25.618   9.962
52341W        W24667  29.088  18.782  13.948
52342W        W24668  17.755  42.879  14.932
52343W        W24669   5.702  20.220   0.393
52344W        W24670   8.730  42.029  13.019
52345W        W24671   2.434  37.578  11.052
52346W        W24672  44.268  12.352   3.640
52347W        W24673   0.287  30.085   3.841
52348W        W24674  23.044   8.160   1.879
52349W        W24675  16.747  39.545   4.331
52350W        W24676  38.048  35.904  13.530
52351W        W24677  26.590  13.639  12.045
52352W        W24678  17.135  23.053   2.697
52353W        W24679  11.773  10.298  11.026
52354W        W24680  34.444  27.149  13.409
52355W        W24681  20.153  24.479   2.348
52356W        W24682  10.150   3.429   1.302
52357W        W24683  10.854   4.762   3.649
52358W        W24684  11.367  17.217  14.349
52359W        W24685  10.140  14.216  12.963
52360W        W24686  20.124   2.900   1.390
52361W        W24687   5.326  13.717  14.997
52362W        W24688  39.001   0.379  13.032
52363W        W24689  39.967  25.615  10.533
52364W        W24690  42.910  28.003  14.914
52365W        W24691   5.410  19.132   3.775
52366W        W24692  28.528  10.309  13.477
52367W        W24693  42.497  42.915   4.307
52368W        W24694  36.092  17.181   4.157
52369W        W24695  14.613  15.703  10.560
52370W        W24696  40.342   8.878  13.026
52371W        W24697  21.163  15.821  11.009
52372W        W24698  17.559   6.298  12.858
52373W        W24699  30.577  18.236  10.493
52374W        W24700   5.367  12.684  11.966
52375W        W24701  19.190   5.768   2.698
52376W        W24702  26.181  21.255   9.920
52377W        W24703   4.894   5.294   0.946
52378W        W24704  38.943  39.520   1.250
52379W        W24705  20.524   8.204   2.408
52380W        W24706   7.276  36.055  11.500
52381W        W24707  43.408  24.049   3.648
52382W        W24708  34.445  10.230   3.809
52383W        W24709  42.788  14.826   4.129
52384W        W24710  38.990  35.932  11.942
52385W        W24711  27.658  10.265   0.397
52386W        W24712  16.709   5.706   0.381
52387W        W24713  13.258  29.061   2.355
52388W        W24714  35.995  22.630  10.964
52389W        W24715  12.304  10.789  10.893
52390W        W24716  14.252   1.374  13.502
52391W        W24717  17.780   5.240   0.822
52392W        W24718  30.942  33.504   0.786
52393W        W24719  27.191  24.038   2.244
52394W        W24720   1.395  11.190   1.799
52395W        W24721  14.742   8.669   2.234
52396W        W24722  23.540  12.181  14.458
52397W        W24723  32.554   1.767   3.751
52398W        W24724  20.607  30.029  13.056
52399W        W24725  36.885  44.497   2.204
52400W        W24726  20.266  26.497   1.446
52401W        W24727  22.544  44.898  13.949
52402W        W24728  16.094  10.785   3.806
52403W        W24729  13.211   9.384  14.501
52404W        W24730  37.060  11.136   2.718
52405W        W24731  41.314  17.198  11.085
52406W        W24732   3.745  24.207   2.672
52407W        W24733  21.541   6.371  12.541
52408W        W24734  14.747   9.777  13.473
52409W        W24735  28.990   4.224   4.732
52410W        W24736  38.929  41.464  10.522
52411W        W24737  13.687  35.502  12.399
52412W        W24738  41.425  26.702   2.859
52413W        W24739  15.220  26.602  11.051
52414W        W24740  41.378  13.267   0.840
52415W        W24741  36.529  39.002   3.765
52416W        W24742  38.931   0.902   1.297
52417W        W24743  10.651  11.705  10.627
52418W        W24744  25.572  30.580  14.833
52419W        W24745   2.357  14.135  11.913
52420W        W24746  14.094   8.396  10.466
52421W        W24747  23.018  21.247  10.567
52422W        W24748   4.210  12.319   1.706
52423W        W24749   1.897  21.562   4.829
52424W        W24750   9.656  12.722   1.704
52425W        W24751  20.556  27.979  10.411
52426W        W24752   1.464   6.249   2.777
52427W        W24753   5.202  29.511  12.901
52428W        W24754  18.630  37.058   4.831
52429W        W24755  27.571  18.183   4.317
52430W        W24756  15.821  35.090  12.070
52431W        W24757   1.406  34.930  12.480
52432W        W24758  33.468  15.106   2.193
52433W        W24759  41.008  41.369  10.988
52434W        W24760  20.208  30.159  10.919
52435W        W24761  23.061  12.771   4.660
52436W        W24762  44.789   8.290   3.860
52437W        W24763  17.620   6.912  12.522
52438W        W24764  11.365  41.852   4.733
52439W        W24765  10.652  25.661   4.311
52440W        W24766   3.909  28.103  14.029
52441W        W24767  16.746   2.335  13.457
52442W        W24768  19.128  11.349  12.438
52443W        W24769   1.926  32.125  12.351
52444W        W24770  39.442  43.766  12.433
52445W        W24771  39.926  36.363  11.547
52446W        W24772  14.295   4.274   2.369
52447W        W24773  38.539  38.568  10.471
52448W        W24774   2.337  27.575  12.033
52449W        W24775  33.417  24.688   2.771
52450W        W24776  32.437  21.152   5.169
52451W        W24777  33.944   7.681  11.501
52452W        W24778  16.577  23.603  13.054
52453W        W24779  31.108  39.398   1.740
52454W        W24780  12.328  26.475  10.523
52455W        W24781  39.543  19.084  11.527
52456W        W24782  16.210  41.846  10.981
52457W        W24783   9.335  35.902  10.457
52458W        W24784  17.671  23.033  10.513
52459W        W24785  40.883  11.742   3.255
52460W        W24786  39.973  34.006   0.870
52461W        W24787  20.163  40.453  10.614
52462W        W24788   4.269  10.138  14.772
52463W        W24789  10.873  15.317   3.770
52464W        W24790   1.821  18.623  10.535
52465W        W24791  38.385  41.402  13.536
52466W        W24792  22.212  38.991  12.439
52467W        W24793  22.635  35.008   0.908
52468W        W24794  29.665  18.726   2.862
52469W        W24795   5.786  42.994  14.428
52470W        W24796  26.993  35.881  12.477
52471W        W24797  13.731  19.088  10.999
52472W        W24798   2.740   3.740  13.977
52473W        W24799  25.652  26.513  12.020
52474W        W24800  37.445  33.454  14.025
52475W        W24801   4.245  14.286  12.484
52476W        W24802  26.538  38.933   2.413
52477W        W24803   8.876   4.790  13.490
52478W        W24804  31.130  41.389   2.679
52479W        W24805   9.394  40.809  11.408
52480W        W24806   0.331  15.263  14.833
52481W        W24807   1.375  34.034  10.588
52482W        W24808   8.670   7.182   0.439
52483W        W24809  43.797  29.955  10.499
52484W        W24810  16.152  37.956   2.734
52485W        W24811  21.708  26.463  13.343
52486W        W24812   0.745  39.344  13.969
52487W        W24813   2.236  30.534   3.795
52488W        W24814  30.514  33.101   2.863
52489W        W24815   4.343   3.862   5.608
52490W        W24816  26.076  20.541  13.939
52491W        W24817  25.992  17.299  11.976
52492W        W24818  14.147  23.560   2.674
52493W        W24819  32.451  32.558   2.408
52494W        W24820  21.151  21.108   0.770
52495W        W24821   7.289  15.179  12.928
52496W        W24822  21.211  15.782  11.865
52497W        W24823  15.732   8.239  14.759
52498W        W24824  29.076   9.817  13.960
52499W        W24825   8.363  25.507  13.368
52500W        W24826  12.265  21.717   2.733
52501W        W24827   2.274  36.537   4.621
52502W        W24828   6.386  11.697   5.170
52503W        W24829  33.423  12.612  14.857
52504W        W24830  24.024  14.109  14.997
52505W        W24831  31.620  44.452  11.605
52506W        W24832  39.481  24.568  10.602
52507W        W24833  26.667  25.164  14.285
52508W        W24834   7.354  35.377   2.845
52509W        W24835  42.001  23.674   1.745
52510W        W24836  33.961   8.301   0.781
52511W        W24837  30.998  29.579   1.248
52512W        W24838  10.339  28.050  12.478
52513W        W24839  24.698   8.706   2.817
52514W        W24840  13.277  19.534  11.038
52515W        W24841   7.672  13.159  12.077
52516W        W24842  32.451  41.964   4.642
52517W        W24843   7.724  12.643   1.711
52518W        W24844  20.031  34.117   3.685
52519W        W24845  33.973  34.940  11.482
52520W        W24846  15.801   7.703  11.078
52521W        W24847  42.375  31.146   4.113
52522W        W24848  11.824  41.846  14.980
52523W        W24849   3.847  25.189   4.220
52524W        W24850   7.700  44.301  11.511
52525W        W24851  37.452  34.047   4.812
52526W        W24852  42.983  26.643   1.441
52527W        W24853  18.197  22.209   3.252
52528W        W24854   2.245  33.464   4.174
52529W        W24855  11.306   1.861   4.287
52530W        W24856  40.011  22.706  11.577
52531W        W24857  37.490  29.539  13.996
52532W        W24858  37.371  38.958  14.775
52533W        W24859  29.551  16.210  11.913
52534W        W24860  32.102  20.740  14.354
52535W        W24861  29.134   4.245   4.118
52536W        W24862  38.020  18.604   0.472
52537W        W24863   4.772  18.120  12.067
52538W        W24864  31.638  14.319   3.721
52539W        W24865  42.398  38.883  11.481
52540W        W24866  26.522  43.298   4.655
52541W        W24867   0.966  43.946   1.914
52542W        W24868   9.672  39.870  14.316
52543W        W24869  26.614  43.926  12.003
52544W        W24870  33.039  26.481   4.662
52545W        W24871  28.974  35.033   1.264
52546W        W24872  30.515  12.752  11.440
52547W        W24873  36.461  12.253   1.298
52548W        W24874   7.830  21.707  11.928
52549W        W24875  19.605   9.232   3.842
52550W        W24876   4.823  27.088  13.514
52551W        W24877  13.731  29.976   4.270
52552W        W24878  28.578  42.509  11.994
52553W        W24879  22.030  16.791   2.686
52554W        W24880  42.943  43.365   3.769
52555W        W24881  21.684  11.333  12.580
52556W        W24882  14.779  38.352   3.192
52557W        W24883   6.309  27.614  14.988
52558W        W24884  32.557  10.289   0.334
52559W        W24885   1.940  21.635  11.491
52560W        W24886  24.685  43.269  10.938
52561W        W24887  21.258   5.258  10.987
52562W        W24888  18.169  16.312  13.939
52563W        W24889   3.869  40.924   2.180
52564W        W24890  39.397   3.917   2.255
52565W        W24891  31.612  21.090  11.972
52566W        W24892  18.574  37.483   2.287
52567W        W24893  15.676  10.319   5.214
52568W        W24894  22.079  27.572   2.212
52569W        W24895   7.280  44.349  10.421
52570W        W24896  16.636   4.907   4.278
52571W        W24897  22.013  19.076  13.498
52572W        W24898  42.469  17.699  12.072
52573W        W24899   0.293  31.461  10.542
52574W        W24900   1.954  42.024  12.497
52575W        W24901  30.520  21.588  13.344
52576W        W24902  11.281  20.136  14.762
52577W        W24903  29.455  28.045   5.243
52578W        W24904  25.553  41.916  12.937
52579W        W24905  13.643   4.350  14.427
52580W        W24906  33.902  16.140   1.296
52581W        W24907  27.192  25.094  12.447
52582W        W24908   7.884  20.629   4.347
52583W        W24909   7.193  24.067  10.901
52584W        W24910  17.747  39.053  14.944
52585W        W24911  36.971  21.243   2.734
52586W        W24912   3.285  22.677   1.342
52587W        W24913  44.939  33.446   0.933
52588W        W24914  16.709  29.034   4.811
52589W        W24915  15.614  23.075  10.105
52590W        W24916  36.351  24.721  13.532
52591W        W24917   2.263  10.327   4.600
52592W        W24918  27.975  38.864  13.471
52593W        W24919   8.800  40.811   1.742
52594W        W24920  17.075  37.374   2.711
52595W        W24921  28.552  17.597  13.005
52596W        W24922   7.386  30.482  14.284
52597W        W24923  41.937   2.395  12.446
52598W        W24924  29.531  14.290  12.071
52599W        W24925  22.181  11.681  10.550
52600W        W24926  17.610  13.668  10.601
52601W        W24927   7.709  35.867  12.005
52602W        W24928  39.900  24.075  12.890
52603W        W24929  30.617   6.183  12.424
52604W        W24930  19.200   0.305  13.059
52605W        W24931   3.357  11.307  12.976
52606W        W24932  32.571  39.447  11.549
52607W        W24933   2.302  43.870  13.323
52608W        W24934  15.108  36.580   0.760
52609W        W24935  44.488  28.579   0.851
52610W        W24936  18.675  22.123   1.832
52611W        W24937  24.125   9.832  13.890
52612W        W24938  16.752  18.061   1.429
52613W        W24939  12.753   9.887  14.796
52614W        W24940  37.991   4.385  14.771
52615W        W24941   0.962  14.745   0.458
52616W        W24942  42.967   3.752  13.380
52617W        W24943   1.771  13.269  13.366
52618W        W24944   6.798  28.642   0.294
52619W        W24945  34.902  11.855   3.330
52620W        W24946  18.594  36.948  12.514
52621W        W24947  16.102  37.918   3.251
52622W        W24948   6.227  15.630   3.793
52623W        W24949  14.725   4.256  14.784
52624W        W24950   7.738   7.821   3.787
52625W        W24951   9.780   0.492   3.309
52626W        W24952  38.553   7.285  13.813
52627W        W24953  29.928  41.306   3.263
52628W        W24954  12.760  42.342  13.418
52629W        W24955   5.757   0.850   3.685
52630W        W24956  38.476  26.533   0.881
52631W        W24957   4.891   3.927  12.970
52632W        W24958  37.566  14.258  10.497
52633W        W24959  15.601   6.889  13.864
52634W        W24960  29.536  26.464   0.436
52635W        W24961   7.746   5.291  12.511
52636W        W24962  23.557  18.696  11.612
52637W        W24963  10.751  21.199  13.881
52638W        W24964  35.378  38.545  14.498
52639W        W24965  38.015   3.867   3.714
52640W        W24966  44.321  25.199   0.370
52641W        W24967  33.555  37.491  12.555
52642W        W24968  42.366  22.054  13.060
52643W        W24969  23.705  38.894  12.083
52644W        W24970   3.813  19.628   5.287
52645W        W24971   4.394  21.128  10.938
52646W        W24972  36.465  41.846  11.006
52647W        W24973  10.814   1.463   3.658
52648W        W24974   8.730   0.856   1.717
52649W        W24975  32.128  43.989   0.400
52650W        W24976   6.803  25.155   4.157
52651W        W24977   8.898  13.648   3.709
52652W        W24978  39.545  21.072   1.738
52653W        W24979  27.622  34.870  13.489
52654W        W24980  16.794  16.612  14.829
52655W        W24981  26.109  22.687   1.804
52656W        W24982   2.281  23.654  14.014
52657W        W24983  11.623   6.295   1.426
52658W        W24984  35.441  20.615  11.446
52659W        W24985  23.627  28.996  12.535
52660W        W24986  23.553   9.353  11.024
52661W        W24987  29.149  31.557  12.478
52662W        W24988  26.482  29.661  12.944
52663W        W24989  15.643  13.642  14.416
52664W        W24990  28.023  19.554   2.333
52665W        W24991  43.981  10.741   0.905
52666W        W24992  44.331  23.624   4.672
52667W        W24993  40.524  32.911  13.888
52668W        W24994  14.198  26.658  13.335
52669W        W24995  12.708   2.423   0.838
52670W        W24996  33.053  29.450   1.432
52671W        W24997  14.222  41.515   0.765
52672W        W24998   3.379  23.097  14.886
52673W        W24999  41.343  38.820   4.198
52674W        W25000  12.269  15.126   1.230
52675W        W25001  26.192  17.244   4.617
52676W        W25002   4.314  43.496  11.024
52677W        W25003  12.180  23.679  11.111
52678W        W25004  31.950  31.551   1.759
52679W        W25005   2.871  39.543  14.431
52680W        W25006  42.481  17.076  13.482
52681W        W25007  34.549  25.585  12.505
52682W        W25008  24.179  23.694   3.210
52683W        W25009  30.996  17.067   2.691
52684W        W25010  40.415  41.410   1.338
52685W        W25011   1.285   3.766  11.609
52686W        W25012  25.982  13.244   0.780
52687W        W25013  11.273  40.899   0.367
52688W        W25014  20.565   9.213   4.293
52689W        W25015  11.372  13.293  11.501
52690W        W25016  13.273   5.302   0.425
52691W        W25017  28.611  26.969   1.320
52692W        W25018   1.241  15.621   3.804
52693W        W25019  16.279  23.129  13.885
52694W        W25020  32.967  16.646  14.986
52695W        W25021  26.701  13.750  14.814
52696W        W25022   1.927  15.815  14.476
52697W        W25023  34.512   4.238  14.987
52698W        W25024  17.085   9.732   4.345
52699W        W25025  15.243   9.831  12.384
52700W        W25026   4.830  13.724   2.705
52701W        W25027  20.717  12.687   0.473
52702W        W25028  26.028  41.475   2.751
52703W        W25029  18.105  15.322   3.749
52704W        W25030  17.614  27.035  12.849
52705W        W25031  39.959  32.924   0.334
52706W        W25032   1.770  20.641  14.828
52707W        W25033  13.702  26.493   1.814
52708W        W25034  17.782   2.429   4.225
52709W        W25035  26.065  32.451   4.666
52710W        W25036   4.892  40.829  14.455
52711W        W25037  27.171  30.985  10.892
52712W        W25038  13.232   8.308   1.326
52713W        W25039   5.229  29.168   3.851
52714W        W25040  29.076   7.810  12.995
52715W        W25041   6.810  10.771   3.324
52716W        W25042  27.188   6.234  10.960
52717W        W25043  36.521  11.338   3.734
52718W        W25044  21.614   6.404  14.294
52719W        W25045  14.819  30.455  13.390
52720W        W25046  10.347   5.826   4.237
52721W        W25047  40.837   0.760  13.380
52722W        W25048  32.503  28.445  10.454
52723W        W25049  13.796  13.742   3.754
52724W        W25050   7.777  19.586   4.741
52725W        W25051   9.804  23.547  14.408
52726W        W25052   3.442   1.296   4.655
52727W        W25053  15.810  18.682   1.884
52728W        W25054  41.817  15.665   3.348
52729W        W25055  22.741  35.878  12.845
52730W        W25056  42.517  39.371   4.667
52731W        W25057  44.795  43.872   4.738
52732W        W25058   5.207  15.746  13.365
52733W        W25059  27.966  12.741   0.804
52734W        W25060  37.045  13.710  14.466
52735W        W25061  39.976  11.178   4.308
52736W        W25062  21.170  18.163   3.850
52737W        W25063  25.216  15.266  14.463
52738W        W25064  13.715   8.814   1.760
52739W        W25065  40.962   5.247   1.394
52740W        W25066  10.298  41.385   2.364
52741W        W25067  43.857  44.963  10.426
52742W        W25068   6.235  34.009  11.100
52743W        W25069  11.637  40.448   1.935
52744W        W25070  16.296  35.888   1.284
52745W        W25071  28.062  44.403  10.498
52746W        W25072  25.102  35.397  12.389
52747W        W25073  37.531  38.531   4.801
52748W        W25074  19.071  43.426   0.820
52749W        W25075  16.804  36.071   0.307
52750W        W25076  34.042   8.694  14.877
52751W        W25077   3.255   3.225   4.754
52752W        W25078  43.399  38.938  12.915
52753W        W25079   1.962   4.872   3.646
52754W        W25080  30.574  37.430   2.229
52755W        W25081  22.146   0.780  11.571
52756W        W25082  23.076  10.248  14.850
52757W        W25083   0.292   5.240  13.035
52758W        W25084   5.856  42.374   4.650
52759W        W25085  16.615  34.532   2.827
52760W        W25086  13.610   4.940  11.443
52761W        W25087  14.309  20.694  10.616
52762W        W25088  19.679   0.263   3.709
52763W        W25089  14.211  25.998   0.738
52764W        W25090  12.312  35.930   3.283
52765W        W25091   2.316  37.950  13.828
52766W        W25092  22.121  18.160  12.959
52767W        W25093  31.050  13.256   1.335
52768W        W25094  13.114  13.636  11.499
52769W        W25095   9.158  37.836   1.433
52770W        W25096  22.026  21.139   0.422
52771W        W25097   2.355  33.450   4.776
52772W        W25098  10.676  22.588  12.445
52773W        W25099  39.422  10.179   2.281
52774W        W25100  31.610  16.115   1.211
52775W        W25101  18.562  12.229  14.826
52776W        W25102  42.775  40.460   1.306
52777W        W25103   6.264  23.571  14.980
52778W        W25104  15.665  28.950  10.890
52779W        W25105  23.993   2.744  12.923
52780W        W25106  31.533  10.138   2.878
52781W        W25107  31.969  30.521   2.765
52782W        W25108  22.167   7.402   1.425
52783W        W25109  32.027  37.910   2.285
52784W        W25110  21.744  40.844  10.604
52785W        W25111  39.554  26.194  14.458
52786W        W25112  25.969  30.983   2.876
52787W        W25113  40.387   9.813   1.396
52788W        W25114   6.852  17.266   3.263
52789W        W25115   7.792  32.500   1.859
52790W        W25116  34.941   5.437   4.808
52791W        W25117   5.243  13.334  14.956
52792W        W25118  16.084  18.283   1.231
52793W        W25119  28.508  37.900  14.960
52794W        W25120   7.864  38.404  10.506
52795W        W25121  22.188   2.887  13.518
52796W        W25122   3.332   2.290  14.505
52797W        W25123  28.668  31.435   1.310
52798W        W25124  40.949  35.098   4.706
52799W        W25125  31.998  40.331  13.905
52800W        W25126  35.452  44.446  13.813
52801W        W25127  29.647  13.664   4.804
52802W        W25128  16.645  27.458   1.374
52803W        W25129  18.282  30.084  12.011
52804W        W25130  42.986  32.986  10.921
52805W        W25131  22.145   0.832   2.710
52806W        W25132  10.154  37.020  14.283
52807W        W25133  34.015   3.846  10.951
52808W        W25134  43.808  25.002  11.531
52809W        W25135  15.293  44.931  10.946
52810W        W25136   3.436  15.610  13.013
52811W        W25137  34.115  35.372   5.254
52812W        W25138   1.365  12.831   0.952
52813W        W25139  35.079  22.684  13.349
52814W        W25140  22.103  32.574  13.470
52815W        W25141  23.050  15.123   4.187
52816W        W25142  44.375  19.120  10.087
52817W        W25143  12.744  12.236   0.930
52818W        W25144  22.234  37.017   4.605
52819W        W25145  43.496  31.646  12.932
52820W        W25146  28.674  44.832  11.863
52821W        W25147   6.313  36.591   2.359
52822W        W25148  22.545  30.462   3.331
52823W        W25149   4.859  24.003   2.675
52824W        W25150  29.068  14.799   1.291
52825W        W25151  11.196  21.196   3.724
52826W        W25152  39.963  43.919   0.865
52827W        W25153  38.880  31.447  13.844
52828W        W25154   2.296  39.812  14.779
52829W        W25155  25.492  31.449   1.718
52830W        W25156  44.984  26.117  10.453
52831W        W25157  14.666  29.995  10.551
52832W        W25158  39.841  27.451  13.907
52833W        W25159   9.743  27.075   0.928
52834W        W25160  22.676  30.914   3.831
52835W        W25161  29.961   4.365   4.138
52836W        W25162   5.801  22.037  11.092
52837W        W25163  16.101   7.375   1.428
52838W        W25164  37.574  34.959  14.471
52839W        W25165  34.016   4.933   1.842
52840W        W25166  31.612  33.571  14.339
52841W        W25167  42.775  25.577  14.956
52842W        W25168  44.803  11.259  12.558
52843W        W25169  30.046  44.866   2.695
52844W        W25170   1.345  42.391  12.385
52845W        W25171  24.556  38.395   2.842
52846W        W25172  44.488  21.625  14.997
52847W        W25173  40.418  40.969   2.879
52848W        W25174  27.992  17.658  12.502
52849W        W25175  21.043  35.429  11.886
52850W        W25176  36.499  37.973   3.835
52851W        W25177  32.472  15.150   4.598
52852W        W25178  39.905  18.110   3.823
52853W        W25179  32.576   5.240  13.536
52854W        W25180  30.918  34.978  12.092
52855W        W25181  32.459  35.858  12.368
52856W        W25182  31.594  22.663  11.421
52857W        W25183  24.495  26.492   2.860
52858W        W25184  10.691  39.510   1.251
52859W        W25185   8.853  12.267  14.417
52860W        W25186   5.409  26.649   3.211
52861W        W25187  41.014   5.437  12.359
52862W        W25188  28.022  40.933   4.713
52863W        W25189  42.783  13.167  14.423
52864W        W25190  13.723  27.186   3.247
52865W        W25191  17.132  11.230   0.926
52866W        W25192  26.956  31.024   4.734
52867W        W25193  41.993  22.685  11.985
52868W        W25194  27.592  34.603   2.199
52869W        W25195  40.911  19.040  11.611
52870W        W25196  19.169  25.565   1.325
52871W        W25197  40.407  25.132   0.770
52872W        W25198  13.705  39.015   1.802
52873W        W25199   9.275  31.538  13.955
52874W        W25200  34.481  21.132   1.710
52875W        W25201   1.354  10.339   3.791
52876W        W25202   4.736  23.092   1.861
52877W        W25203  42.865  44.875  12.018
52878W        W25204  39.950  38.034   3.788
52879W        W25205  12.279  22.188   3.289
52880W        W25206  30.148  18.685   2.203
52881W        W25207  17.653  28.457  12.070
52882W        W25208  21.571  43.465  10.907
52883W        W25209  17.597  37.452   2.400
52884W        W25210  26.639  37.371   2.773
52885W        W25211  42.381  22.241  12.513
52886W        W25212  42.890   9.197   2.772
52887W        W25213  18.756  16.670  11.536
52888W        W25214  22.680   6.897  11.052
52889W        W25215  21.151   1.792  11.395
52890W        W25216  44.421  28.594  13.358
52891W        W25217  43.319  11.621   1.373
52892W        W25218  10.241  31.120  12.000
52893W        W25219   1.309  14.755  12.881
52894W        W25220  41.938   8.749  13.931
52895W        W25221  13.770  35.578  11.108
52896W        W25222  33.100  19.255  10.487
52897W        W25223   2.321  35.503  10.577
52898W        W25224  21.591   6.768  12.920
52899W        W25225  17.290  30.516  14.024
52900W        W25226   4.830  20.624   0.912
52901W        W25227  40.522  43.853   3.189
52902W        W25228  42.973  19.617   4.320
52903W        W25229  22.513  11.663   0.457
52904W        W25230  28.484  27.046   4.300
52905W        W25231  25.658  16.773   5.124
52906W        W25232  18.784  26.665  12.947
52907W        W25233   7.274   4.339  13.338
52908W        W25234  40.855   3.253   0.367
52909W        W25235  36.477  22.601   4.297
52910W        W25236  12.778  37.913   3.293
52911W        W25237  12.777  25.215  14.335
52912W        W25238  43.817  31.979  13.975
52913W        W25239   9.774  14.591   1.802
52914W        W25240  25.686  33.620  12.415
52915W        W25241  42.806  37.484   3.294
52916W        W25242  38.038   3.749   3.347
52917W        W25243  24.201  35.082  13.022
52918W        W25244  33.093  42.450   2.681
52919W        W25245   3.815  13.696   4.691
52920W        W25246  30.938  34.480   4.128
52921W        W25247  43.345  10.167  10.018
52922W        W25248  14.227  42.311   1.282
52923W        W25249  27.198  25.711  11.125
52924W        W25250  11.834  44.980   3.795
52925W        W25251  25.187  26.534   4.303
52926W        W25252  14.589  40.872   0.413
52927W        W25253  16.599  20.072  11.586
52928W        W25254  37.549   2.405   5.295
52929W        W25255  44.773  23.146  14.872
52930W        W25256  16.809  16.277   4.608
52931W        W25257   4.241   0.464   0.473
52932W        W25258  13.822  33.614   3.292
52933W        W25259  14.803  24.125  13.452
52934W        W25260   4.756  28.458  13.466
52935W        W25261   8.786  31.452   3.662
52936W        W25262  15.816  23.641  10.420
52937W        W25263  19.541   9.288  14.461
52938W        W25264  11.691  15.099   1.794
52939W        W25265   6.703   4.367   1.448
52940W        W25266  28.467  11.798  12.024
52941W        W25267   1.846  27.500  14.944
52942W        W25268   5.328  14.678  14.931
52943W        W25269   3.759   9.186   0.471
52944W        W25270  17.289  25.532   3.381
52945W        W25271  19.085   9.707   2.282
52946W        W25272  28.603  38.916  12.345
52947W        W25273  11.341  34.903  10.430
52948W        W25274  35.967  25.586  11.433
52949W        W25275  23.216  31.924   3.715
52950W        W25276  23.007   0.965   3.722
52951W        W25277  20.232  21.597   4.286
52952W        W25278  24.721  43.895   1.728
52953W        W25279  18.701   5.745  11.890
52954W        W25280  22.588  16.265   0.449
52955W        W25281  33.503   7.699  11.079
52956W        W25282  25.964  25.983  14.972
52957W        W25283  10.779  16.718  12.449
52958W        W25284   6.709  17.763   2.808
52959W        W25285   0.434  20.540  12.379
52960W        W25286  15.611  10.672  10.929
52961W        W25287  35.498  13.653  11.997
52962W        W25288  33.490  16.709  13.997
52963W        W25289  30.006  43.462   2.274
52964W        W25290  43.419  30.072  14.012
52965W        W25291  22.082  15.314   2.283
52966W        W25292   6.813  12.217   3.358
52967W        W25293  44.314  18.158   0.353
52968W        W25294  31.532  34.589   1.706
52969W        W25295  32.558   2.834  11.932
52970W        W25296  17.135  21.583  12.378
52971W        W25297  32.450   2.441   2.830
52972W        W25298   6.419  26.159   3.821
52973W        W25299   0.958  38.051   2.862
52974W        W25300  16.203  30.606  12.839
52975W        W25301  12.336  38.987   0.458
52976W        W25302  21.638  30.125   0.463
52977W        W25303   5.232  39.459  11.524
52978W        W25304  10.145  38.863  14.478
52979W        W25305   8.777   1.325  14.782
52980W        W25306  28.170  10.686  12.071
52981W        W25307  11.675  39.334   3.240
52982W        W25308   3.394  13.719  14.820
52983W        W25309   3.319  32.093  12.388
52984W        W25310  29.993  25.000   2.184
52985W        W25311  33.016  28.570  14.365
52986W        W25312  32.108  24.997  12.537
52987W        W25313   1.732  39.846   3.163
52988W        W25314  36.487  39.891  11.433
52989W        W25315   9.379   6.790   4.757
52990W        W25316  12.751   4.909  12.447
52991W        W25317  40.371  35.863  14.442
52992W        W25318   7.908  18.054   3.652
52993W        W25319  18.201  30.039  14.027
52994W        W25320  38.966  35.509   0.900
52995W        W25321  23.700  39.472  14.877
52996W        W25322  39.468   3.715  14.933
52997W        W25323  14.192   4.366  10.438
52998W        W25324  40.432  18.134  11.904
52999W        W25325   3.904   3.845   1.908
53000W        W25326  27.540  25.079   2.280
53001W        W25327  23.525  22.624   3.666
53002W        W25328   9.660   1.345  11.457
53003W        W25329  11.162  17.627   4.652
53004W        W25330  37.464  12.845   5.613
53005W        W25331  44.851   8.193  13.432
53006W        W25332  18.295  40.378  11.509
53007W        W25333  18.105  39.325   4.719
53008W        W25334  12.766  17.576   2.753
53009W        W25335   4.338  10.314   0.932
53010W        W25336   2.354  42.298  12.436
53011W        W25337  24.008  14.618   9.985
53012W        W25338  10.352  40.443  10.903
53013W        W25339  38.072   0.486   4.664
53014W        W25340   4.822   3.235  11.028
53015W        W25341  22.115   7.189   3.183
53016W        W25342  43.899  38.535   4.623
53017W        W25343  28.160  31.540  11.044
53018W        W25344   8.676  28.673  14.395
53019W        W25345   4.215  19.691   1.904
53020W        W25346  16.633   1.752   2.184
53021W        W25347  30.002  18.618  12.854
53022W        W25348  41.536  21.111   2.347
53023W        W25349   2.291   0.425   3.238
53024W        W25350  16.297  15.216  12.939
53025W        W25351  18.596  10.324  11.887
53026W        W25352  22.646  27.656  12.979
53027W        W25353  24.981  18.190  14.289
53028W        W25354   9.232  43.936   2.712
53029W        W25355  14.702  26.632  11.110
53030W        W25356  38.869   3.385  11.445
53031W        W25357  15.641  34.394  12.419
53032W        W25358  18.604  36.051   4.189
53033W        W25359  20.661  24.045   0.372
53034W        W25360  25.503  26.676   3.721
53035W        W25361  21.738  40.046  12.400
53036W        W25362  27.048   4.859  12.355
53037W        W25363   4.263  38.917  12.053
53038W        W25364  36.923  15.205  13.795
53039W        W25365  42.948   2.754  11.439
53040W        W25366   5.875  38.547  12.827
53041W        W25367  22.625  24.682   4.147
53042W        W25368  22.554  32.916   1.233
53043W        W25369  20.142  12.635   4.715
53044W        W25370   5.817  14.229   0.377
53045W        W25371  40.360  37.028   4.687
53046W        W25372  12.174  11.266  12.361
53047W        W25373  43.775  31.075   1.398
53048W        W25374  31.567  21.093  14.451
53049W        W25375  42.316  22.692  12.947
53050W        W25376  43.823  35.484   4.124
53051W        W25377  43.960  44.004  13.457
53052W        W25378  44.874  14.332  10.944
53053W        W25379  13.330   5.217  12.922
53054W        W25380  22.007  19.039   2.721
53055W        W25381  29.608  36.402   0.483
53056W        W25382  36.897   8.168   1.745
53057W        W25383   8.696   1.362   4.643
53058W        W25384  24.141  37.894   1.256
53059W        W25385  16.625  28.551  14.918
53060W        W25386  13.828   2.861   0.391
53061W        W25387   5.325  39.972   3.364
53062W        W25388  27.047  21.047  12.494
53063W        W25389  22.587  10.691   0.372
53064W        W25390  20.622  21.072   4.830
53065W        W25391   2.833   8.770  10.410
53066W        W25392  38.398  24.147  12.841
53067W        W25393  13.720  40.983   0.828
53068W        W25394  43.498  29.662   1.901
53069W        W25395  12.185  19.158   0.476
53070W        W25396   1.466  16.793   0.374
53071W        W25397   1.306  23.617   5.656
53072W        W25398   1.313  33.517   2.672
53073W        W25399  28.153  40.469   3.837
53074W        W25400  26.589   2.385  13.548
53075W        W25401   3.400  35.534   4.181
53076W        W25402  35.383  22.574  10.967
53077W        W25403  36.584  10.635  10.524
53078W        W25404  11.804   9.769   2.767
53079W        W25405  44.802  30.124  14.768
53080W        W25406  34.006  20.100  11.110
53081W        W25407  42.381  28.495  11.101
53082W        W25408  26.699  35.019  11.992
53083W        W25409  27.073  15.651  13.457
53084W        W25410  31.916  30.012  13.482
53085W        W25411   6.922  17.082   2.371
53086W        W25412   5.329  21.691  10.412
53087W        W25413  21.253   9.345  14.030
53088W        W25414  34.012  16.163   3.699
53089W        W25415   8.732  19.586  12.865
53090W        W25416   0.844  20.736  10.900
53091W        W25417  44.460  29.129  10.942
53092W        W25418  36.459  15.130   1.763
53093W        W25419   6.739  32.530   2.683
53094W        W25420  13.682  15.148   1.738
53095W        W25421   6.859  11.268   0.883
53096W        W25422  18.654  33.089   2.236
53097W        W25423  37.863  29.112   4.296
53098W        W25424   6.897  24.686  10.919
53099W        W25425   3.436  28.449   1.862
53100W        W25426  44.311  27.623  14.490
53101W        W25427   5.794  33.057   2.377
53102W        W25428  26.094  17.169  14.927
53103W        W25429  18.679   5.857   1.883
53104W        W25430   8.204  40.051  10.914
53105W        W25431  34.098   3.316   2.715
53106W        W25432  30.155  20.603   4.721
53107W        W25433  10.359  29.537  12.889
53108W        W25434  43.337  17.685   2.798
53109W        W25435  43.815  35.880  14.402
53110W        W25436  43.511  36.014   2.748
53111W        W25437  13.818   7.345  12.002
53112W        W25438  21.102   3.446   4.633
53113W        W25439  11.290   4.734   4.202
53114W        W25440  25.485  28.635   0.321
53115W        W25441   5.224  14.835  11.014
53116W        W25442  43.423  24.182  10.910
53117W        W25443  30.966  28.945   3.636
53118W        W25444  14.169   1.767  14.308
53119W        W25445  24.994   7.773  14.907
53120W        W25446  40.456  40.024  11.972
53121W        W25447  40.372  34.903   3.322
53122W        W25448  39.509   9.879  10.468
53123W        W25449  29.946  26.004   0.915
53124W        W25450  35.871   0.258   0.483
53125W        W25451  19.741  32.948   2.662
53126W        W25452  40.023  15.613   3.354
53127W        W25453   2.319  36.470  12.938
53128W        W25454  28.024   3.461  12.972
53129W        W25455   6.738  15.131  10.513
53130W        W25456  22.682  14.227   1.365
53131W        W25457  18.681  10.873   0.400
53132W        W25458  25.992   3.799  14.955
53133W        W25459  14.156  39.433  14.356
53134W        W25460  41.427   7.758  10.924
53135W        W25461  39.854  21.652  14.480
53136W        W25462  18.763  30.058   0.458
53137W        W25463  13.300  36.555  12.488
53138W        W25464   1.446   7.176   4.208
53139W        W25465  21.526  42.831  13.018
53140W        W25466  22.122  44.269   4.630
53141W        W25467  32.503  17.172  11.922
53142W        W25468  33.479  27.116  12.968
53143W        W25469   1.775   9.763  12.974
53144W        W25470  31.126  24.985  14.855
53145W        W25471  23.064  15.618  14.401
53146W        W25472   2.780  18.594   3.750
53147W        W25473  29.480  15.320  13.337
53148W        W25474  31.972  32.058   1.233
53149W        W25475  24.058   3.448  14.448
53150W        W25476   3.300  10.679  10.617
53151W        W25477  28.955  39.059  12.972
53152W        W25478  23.706   5.434  13.414
53153W        W25479  32.037  18.624   0.769
53154W        W25480  39.429  36.387  13.796
53155W        W25481  17.271  19.762   4.336
53156W        W25482  19.045  29.941  11.392
53157W        W25483  26.173  39.943  12.395
53158W        W25484  15.763  21.102  11.590
53159W        W25485   5.807   8.362   2.362
53160W        W25486  14.117  39.510  14.974
53161W        W25487  37.527  23.116  10.567
53162W        W25488  44.914   7.400   0.748
53163W        W25489  37.512  26.640  13.834
53164W        W25490  29.922  22.513  13.345
53165W        W25491  25.188  25.147   1.700
53166W        W25492  12.319  37.350  12.413
53167W        W25493  18.062  10.787  11.077
53168W        W25494  11.742  13.241  14.343
53169W        W25495  43.303   4.394  11.548
53170W        W25496  30.530  32.601  10.501
53171W        W25497  38.469  28.615  14.982
53172W        W25498   0.478  37.537  11.888
53173W        W25499  36.846  35.371  14.842
53174W        W25500   1.801  29.125   4.311
53175W        W25501  28.601  35.485  11.582
53176W        W25502  40.476  31.508   1.278
53177W        W25503  38.432  27.106   2.406
53178W        W25504  11.857  28.079  14.394
53179W        W25505  40.495  21.045   3.671
53180W        W25506   5.306  29.014  11.924
53181W        W25507  32.093  26.970  10.916
53182W        W25508  30.983   6.692  11.535
53183W        W25509   7.286  42.851  14.810
53184W        W25510  14.208  26.200  11.578
53185W        W25511  22.538  44.885  12.515
53186W        W25512   8.190  23.680   4.323
53187W        W25513  29.986  12.360  14.490
53188W        W25514   0.332   1.911  10.636
53189W        W25515  23.063  37.390  13.467
53190W        W25516  19.549   5.855  11.572
53191W        W25517  18.062   2.429   2.248
53192W        W25518   2.412  21.206  12.546
53193W        W25519  27.051  23.007  12.885
53194W        W25520  39.403  23.029   0.880
53195W        W25521  20.693  33.101   0.778
53196W        W25522   8.376  38.852   4.162
53197W        W25523   6.849   3.751  12.571
53198W        W25524   5.247  17.573  10.960
53199W        W25525  37.557   0.906   4.719
53200W        W25526   1.854   6.842   3.286
53201W        W25527  39.367  34.551  11.472
53202W        W25528   4.221  12.268   0.260
53203W        W25529  42.852   8.754  13.452
53204W        W25530  37.341  41.496   3.712
53205W        W25531  29.614  10.726   2.697
53206W        W25532   2.952  34.454   0.457
53207W        W25533  20.613  18.064   1.893
53208W        W25534  44.782   8.787  14.462
53209W        W25535  43.976   4.705   3.666
53210W        W25536  20.742   0.787  12.554
53211W        W25537   6.677  28.598   2.408
53212W        W25538  31.043   3.412  14.468
53213W        W25539   3.398  23.685   4.632
53214W        W25540  34.934  43.004  11.034
53215W        W25541  13.839  25.021   9.617
53216W        W25542   3.243  15.818   5.260
53217W        W25543  36.096   6.233   3.854
53218W        W25544  15.750  13.253  14.452
53219W        W25545   5.430  40.440  14.988
53220W        W25546  24.148   4.875  13.480
53221W        W25547  43.843  22.159  11.021
53222W        W25548  36.959  27.089  10.461
53223W        W25549  35.960  32.089  14.499
53224W        W25550  17.604   2.856   0.294
53225W        W25551   2.414  36.087   9.969
53226W        W25552  32.578  40.539   2.379
53227W        W25553  19.628   1.897   3.238
53228W        W25554  28.593   2.752  14.769
53229W        W25555  12.758  10.225  13.006
53230W        W25556  19.552   4.881  10.615
53231W        W25557   4.900  21.744   1.394
53232W        W25558  33.892  29.549   1.425
53233W        W25559  10.145  24.520  11.922
53234W        W25560  13.616  21.626  11.514
53235W        W25561  18.139  10.221   2.355
53236W        W25562  31.919   0.355   3.824
53237W        W25563  23.182   5.841  14.323
53238W        W25564  37.904  25.508  13.478
53239W        W25565  34.448  27.971  14.461
53240W        W25566  14.671  12.815  11.896
53241W        W25567  15.663  27.011  13.470
53242W        W25568  39.029   1.953   2.183
53243W        W25569  19.763  17.657   0.852
53244W        W25570  36.099  30.051  10.509
53245W        W25571  27.515  37.408   3.750
53246W        W25572  40.899  35.018   3.687
53247W        W25573  32.912  12.637  12.975
53248W        W25574  18.658  36.023  13.999
53249W        W25575  14.793  40.047   3.274
53250W        W25576  39.400  10.877   0.938
53251W        W25577  43.443  43.403  14.858
53252W        W25578  25.485  24.133  11.405
53253W        W25579  44.301   9.703  13.857
53254W        W25580  25.217  35.587  12.914
53255W        W25581  13.741  37.876   3.725
53256W        W25582  11.138   2.748   2.725
53257W        W25583  17.751  37.544  14.870
53258W        W25584  34.595  16.179   3.795
53259W        W25585   5.298   1.385   0.445
53260W        W25586  12.726  13.258   2.332
53261W        W25587  43.805  20.762   1.390
53262W        W25588  11.715  31.004   4.631
53263W        W25589  28.490  11.370  11.048
53264W        W25590  31.560  13.798   0.945
53265W        W25591  39.334  31.111   3.717
53266W        W25592  43.817  26.499  11.911
53267W        W25593   0.966   5.357  13.336
53268W        W25594  22.744  29.116  12.377
53269W        W25595  26.961  37.518   3.863
53270W        W25596  24.517  34.079  13.929
53271W        W25597  23.091  31.586  10.631
53272W        W25598  13.214  17.284   9.973
53273W        W25599  32.973  38.821   2.414
53274W        W25600   1.956  24.980  11.967
53275W        W25601   1.237   8.394  14.925
53276W        W25602  22.541  24.701   3.203
53277W        W25603   7.409  21.546  10.437
53278W        W25604  15.242  36.077   4.248
53279W        W25605  38.447  28.017  12.850
53280W        W25606  31.000  14.787   2.668
53281W        W25607  16.213  10.715   1.829
53282W        W25608  18.195   4.855   4.743
53283W        W25609  24.110  19.105   2.827
53284W        W25610   3.296   0.880  10.482
53285W        W25611   2.416   4.224  12.089
53286W        W25612  34.902  30.936   0.962
53287W        W25613  43.424  40.506   1.864
53288W        W25614  44.449  14.268  12.453
53289W        W25615   9.275  22.721   0.259
53290W        W25616  36.945   5.881  10.509
53291W        W25617  20.738  28.980  10.608
53292W        W25618  19.639   9.167   2.344
53293W        W25619  28.465  41.409  13.004
53294W        W25620   7.819  13.618   4.746
53295W        W25621  21.143  21.559  14.860
53296W        W25622  42.782  33.510  10.897
53297W        W25623   0.441  12.343  12.511
53298W        W25624  13.671  28.983   0.936
53299W        W25625  30.099  17.224   2.669
53300W        W25626   4.340   4.333  13.886
53301W        W25627  30.561  15.098   1.287
53302W        W25628  31.922  26.040   1.800
53303W        W25629  31.646  43.369   3.324
53304W        W25630  10.849  18.595  11.018
53305W        W25631  12.675  42.519   3.714
53306W        W25632  22.237   9.867  13.025
53307W        W25633   9.284  42.410  13.424
53308W        W25634  13.759  35.536  13.406
53309W        W25635  40.859  34.981   0.434
53310W        W25636  39.915  30.576   4.305
53311W        W25637  39.851  43.480   0.955
53312W        W25638   9.837   2.450  10.482
53313W        W25639  25.707  29.172  10.444
53314W        W25640  29.483  42.520   1.279
53315W        W25641  33.946  18.627  11.869
53316W        W25642  38.842   9.376   0.287
53317W        W25643  20.747  11.259   3.382
53318W        W25644  37.337  19.262   2.274
53319W        W25645  13.122  39.023   3.869
53320W        W25646  40.397  24.196  10.459
53321W        W25647   1.867  21.668  11.056
53322W        W25648  42.868  20.135  12.471
53323W        W25649   6.232  13.162   2.691
53324W        W25650   9.184  33.123   0.273
53325W        W25651   3.456  27.014   0.311
53326W        W25652  29.127  43.924  12.844
53327W        W25653  30.438  15.087  13.359
53328W        W25654  15.174  26.138   4.652
53329W        W25655   4.381  25.652  13.964
53330W        W25656  13.794  31.445  11.400
53331W        W25657  25.548  32.438   1.269
53332W        W25658  21.196  15.688   2.681
53333W        W25659   7.746  33.063  10.960
53334W        W25660  29.544  29.610   4.276
53335W        W25661  41.402  38.541  10.907
53336W        W25662  11.133  14.797  10.961
53337W        W25663  18.174   9.337   3.248
53338W        W25664  37.562   5.762   0.851
53339W        W25665  10.637  11.779   0.372
53340W        W25666  32.451  35.478  13.820
53341W        W25667  14.629  31.943   3.212
53342W        W25668  15.769  18.654   3.281
53343W        W25669  11.316  15.280  10.532
53344W        W25670  41.800  12.770  14.480
53345W        W25671  27.039  15.787   4.116
53346W        W25672  20.236  42.850  11.120
53347W        W25673  14.145  31.108   0.274
53348W        W25674  18.582  23.241  11.568
53349W        W25675   2.287   6.312  12.443
53350W        W25676   0.491  34.604  13.385
53351W        W25677  21.103  42.464   2.362
53352W        W25678  44.490   6.189  14.843
53353W        W25679  34.539  41.974   3.751
53354W        W25680  36.527  44.267   0.346
53355W        W25681  11.781  29.169   3.748
53356W        W25682  31.081  21.032   0.345
53357W        W25683  35.004  23.218   1.332
53358W        W25684  32.564   0.902  13.857
53359W        W25685  24.619  24.700  14.878
53360W        W25686  25.015  44.753  13.046
53361W        W25687  21.549   0.951   2.804
53362W        W25688  26.641  13.336  10.500
53363W        W25689  20.665  23.180  11.437
53364W        W25690  34.407  12.793  12.388
53365W        W25691  28.987  40.398   0.900
53366W        W25692  41.815   2.395   0.738
53367W        W25693  40.387  33.124   2.257
53368W        W25694  37.552  36.381  12.983
53369W        W25695   2.814  22.512  13.793
53370W        W25696  20.712  29.616   1.877
53371W        W25697  44.891  22.719   1.273
53372W        W25698   9.861  34.516  12.872
53373W        W25699  31.027   1.412  12.416
53374W        W25700   9.380  25.148   1.863
53375W        W25701  12.774  10.376   0.434
53376W        W25702  42.391  20.093  12.989
53377W        W25703  16.651   3.320   1.702
53378W        W25704  38.474  34.017   0.729
53379W        W25705  41.996   5.723  14.394
53380W        W25706  27.514  17.105  13.406
53381W        W25707  30.158  44.314   1.363
53382W        W25708   9.300  12.326   2.362
53383W        W25709  39.371  23.171  12.027
53384W        W25710  17.725  13.824  13.037
53385W        W25711   0.815   7.223   1.350
53386W        W25712  41.972  24.555   0.384
53387W        W25713   3.833  10.794  11.602
53388W        W25714   7.769   4.227  10.446
53389W        W25715  42.323  20.148   1.720
53390W        W25716  20.631  43.442  13.490
53391W        W25717  38.054  29.517  14.392
53392W        W25718  23.728  41.330   0.358
53393W        W25719   3.391  33.520   2.895
53394W        W25720   5.913   5.251  12.076
53395W        W25721  27.083  16.251  14.501
53396W        W25722   2.246  16.098  12.062
53397W        W25723   4.771   7.871   4.320
53398W        W25724  11.335  30.610  12.578
53399W        W25725  29.978  11.320   0.928
53400W        W25726  18.232   5.847  10.929
53401W        W25727   3.713  27.617   2.771
53402W        W25728  13.188   5.741  12.970
53403W        W25729  35.015  16.312  10.926
53404W        W25730  24.230   8.754  11.449
53405W        W25731   9.225  11.866  11.944
53406W        W25732   9.263  43.280   0.252
53407W        W25733  41.807  16.202   2.728
53408W        W25734  21.615  35.973   4.231
53409W        W25735  43.485  18.672   0.417
53410W        W25736   4.215  36.380  14.846
53411W        W25737  25.490  24.121  12.849
53412W        W25738  16.581   6.366   4.326
53413W        W25739  33.456  28.132  10.893
53414W        W25740  40.467  20.604  14.512
53415W        W25741  34.942  21.713   1.388
53416W        W25742  44.494  20.747  12.959
53417W        W25743  42.361  38.556  13.461
53418W        W25744  35.050  37.032  14.382
53419W        W25745  16.267  16.596  12.917
53420W        W25746  35.100  32.954  12.514
53421W        W25747   7.223  44.400  14.318
53422W        W25748  16.573  31.915   4.798
53423W        W25749  44.990  32.610   3.716
53424W        W25750  25.688  35.597   2.337
53425W        W25751   2.441  30.085  12.463
53426W        W25752  25.654  36.900  13.461
53427W        W25753  25.125  18.576   5.121
53428W        W25754   0.439  25.665   1.806
53429W        W25755   5.265  39.342  11.100
53430W        W25756  34.080  41.528  11.863
53431W        W25757  34.393  44.406   3.770
53432W        W25758  15.578  31.967   3.654
53433W        W25759  25.705  29.429   2.275
53434W        W25760  29.111   4.427  13.439
53435W        W25761   5.401  10.808   4.228
53436W        W25762  34.882  27.110   0.304
53437W        W25763  38.983  19.251   1.431
53438W        W25764  13.805  44.473   4.644
53439W        W25765  17.564   3.456   1.706
53440W        W25766   2.853   6.755  13.833
53441W        W25767  25.992  15.106  14.909
53442W        W25768  31.140  37.052   0.733
53443W        W25769  42.416  22.623  13.391
53444W        W25770  30.996   7.186  12.549
53445W        W25771  36.904  15.278  14.820
53446W        W25772   3.332  18.545   2.813
53447W        W25773  21.564  36.014   3.258
53448W        W25774  39.884  28.601   2.391
53449W        W25775  15.291   8.900   4.184
53450W        W25776  16.258   6.288  12.923
53451W        W25777  19.720  14.192   1.258
53452W        W25778  25.109  11.761  13.974
53453W        W25779  10.214  41.860   1.784
53454W        W25780  28.577  29.472  11.521
53455W        W25781  41.817   8.311  13.043
53456W        W25782  34.477  40.326  14.279
53457W        W25783  12.302  16.813  14.297
53458W        W25784   7.409  38.923   3.377
53459W        W25785  23.163   3.319  14.390
53460W        W25786  17.567   4.778   4.772
53461W        W25787  36.949  38.324   0.802
53462W        W25788  42.851   0.460  14.508
53463W        W25789  17.657  18.575   3.185
53464W        W25790   7.250  19.547  14.374
53465W        W25791  15.226  13.814   2.238
53466W        W25792  43.338  16.641   4.732
53467W        W25793  25.595  18.571   4.670
53468W        W25794  31.974  20.109   4.323
53469W        W25795  39.459  21.647  13.935
53470W        W25796  38.375  39.434  13.997
53471W        W25797  26.673  20.038   0.783
53472W        W25798   0.440   6.913  11.101
53473W        W25799  43.943   6.247  13.944
53474W        W25800  21.184  14.125  14.853
53475W        W25801  36.502  11.669   3.287
53476W        W25802  16.723  17.605  10.945
53477W        W25803  26.550  25.478   0.326
53478W        W25804  38.898  11.275  13.480
53479W        W25805  29.514  16.138  13.352
53480W        W25806   4.831  35.534  14.887
53481W        W25807  42.456  16.655   3.697
53482W        W25808  24.194  28.014   4.180
53483W        W25809  29.965  17.569   1.420
53484W        W25810  32.905   0.287  14.842
53485W        W25811  21.751   3.293  11.550
53486W        W25812  15.764   1.396  14.852
53487W        W25813  30.013  32.400  14.295
53488W        W25814  33.902  26.503  14.774
53489W        W25815  27.691  19.729   0.928
53490W        W25816  19.070  31.960  12.426
53491W        W25817  24.044  18.277   5.617
53492W        W25818  15.616  22.631  12.364
53493W        W25819  39.870   1.849  11.911
53494W        W25820   8.336  27.961   2.803
53495W        W25821   1.915  38.377  12.887
53496W        W25822  42.857   1.781  14.969
53497W        W25823  12.666  44.440   1.740
53498W        W25824  18.620  29.023  12.484
53499W        W25825   6.425  33.583   4.326
53500W        W25826  30.448  34.006  12.861
53501W        W25827  22.138  24.036   2.695
53502W        W25828  33.520  42.348   0.750
53503W        W25829  16.652   2.872   1.218
53504W        W25830   3.772   3.373   1.930
53505W        W25831   8.206  12.283  14.367
53506W        W25832  12.740  17.598  13.527
53507W        W25833  32.057  42.471  11.048
53508W        W25834  42.799  42.972   0.795
53509W        W25835  19.641   7.413  14.873
53510W        W25836  17.063  38.394  11.944
53511W        W25837  30.584   3.220  10.956
53512W        W25838  31.976  24.530  10.522
53513W        W25839  33.539  37.004  14.395
53514W        W25840  37.499  27.651   2.394
53515W        W25841  31.603   8.398  14.898
53516W        W25842  12.685  35.926   1.914
53517W        W25843  35.379  31.647  14.422
53518W        W25844  22.161  26.016   4.254
53519W        W25845  19.650  23.996   4.733
53520W        W25846  35.488  42.472   4.167
53521W        W25847  36.351   3.909   4.119
53522W        W25848  16.785   6.391   0.442
53523W        W25849  18.603  40.400  13.523
53524W        W25850  41.954   6.875  14.960
53525W        W25851   5.407  15.625  11.608
53526W        W25852  13.163   7.409   4.613
53527W        W25853  25.206  39.479   4.786
53528W        W25854  22.679  15.108  10.608
53529W        W25855  14.098   2.840  10.427
53530W        W25856   0.849  25.108  11.875
53531W        W25857  18.738  25.520  14.274
53532W        W25858  41.439  11.353  10.514
53533W        W25859  26.984  44.828  14.367
53534W        W25860   3.801  31.112   2.300
53535W        W25861  12.734  21.745   3.866
53536W        W25862  22.728  42.362   3.302
53537W        W25863  40.548  29.463   3.313
53538W        W25864   6.676  31.542   2.274
53539W        W25865   5.896  13.801   2.684
53540W        W25866  34.942  30.417   0.316
53541W        W25867  18.689  33.984  10.965
53542W        W25868  43.462  26.577  12.047
53543W        W25869   6.848  17.622   1.401
53544W        W25870  31.479  25.177   0.878
53545W        W25871  44.001  23.710   2.813
53546W        W25872   6.404  30.119  13.954
53547W        W25873  39.474  35.591   2.674
53548W        W25874  19.177  29.946   3.662
53549W        W25875  25.150  27.611  11.086
53550W        W25876  32.977   1.429   1.449
53551W        W25877   1.809   3.256  13.019
53552W        W25878  25.000  17.749  11.440
53553W        W25879  42.304   2.273  12.939
53554W        W25880  40.445  38.987  10.936
53555W        W25881  29.962  13.609   2.662
53556W        W25882  18.553  13.318   2.903
53557W        W25883   3.847  25.694  12.545
53558W        W25884  11.223  19.242   3.221
53559W        W25885  10.188  35.370   3.265
53560W        W25886  14.676  40.430   3.204
53561W        W25887  25.662  19.692  12.052
53562W        W25888  33.507  14.251  11.550
53563W        W25889  19.048  25.020   0.801
53564W        W25890  25.121  15.751  11.126
53565W        W25891  43.868  13.724   0.448
53566W        W25892  28.629   2.757   0.882
53567W        W25893  12.120  44.362   4.161
53568W        W25894   1.834  23.153   1.367
53569W        W25895  37.005   6.393  11.857
53570W        W25896   4.304  41.910  10.471
53571W        W25897  11.337  19.236  11.490
53572W        W25898  35.496  22.035   0.340
53573W        W25899  33.502  30.094   1.222
53574W        W25900  42.335  25.708   3.232
53575W        W25901  29.033  30.115  11.414
53576W        W25902   5.357  34.394  10.891
53577W        W25903   9.373  21.140   4.150
53578W        W25904  39.044   4.932   3.225
53579W        W25905   5.388  27.449  11.885
53580W        W25906  33.431  24.662  12.547
53581W        W25907   7.349  11.202   3.720
53582W        W25908   2.920   0.852   3.854
53583W        W25909  36.074  20.616  14.875
53584W        W25910   1.327  13.163   4.782
53585W        W25911  30.583  26.647   3.292
53586W        W25912   0.474  16.077   1.282
53587W        W25913  20.601  13.129  10.568
53588W        W25914  26.556  11.281   4.243
53589W        W25915  23.518   9.271   0.327
53590W        W25916  22.578  29.940  12.577
53591W        W25917  41.943  16.633  10.927
53592W        W25918   7.852   6.205  11.375
53593W        W25919  26.663  27.175  13.889
53594W        W25920  36.568  44.938   0.763
53595W        W25921   6.280  31.028  13.326
53596W        W25922  18.755  23.156   3.815
53597W        W25923  11.243   5.920  11.860
53598W        W25924  44.790   6.312   2.303
53599W        W25925  38.328  12.148  14.341
53600W        W25926  15.655  28.589   3.802
53601W        W25927  12.661   1.913   3.213
53602W        W25928  23.237   5.236   4.297
53603W        W25929  42.282   0.968  14.810
53604W        W25930  15.592  43.778   0.425
53605W        W25931  18.295  44.869   3.765
53606W        W25932  37.981   2.285  14.001
53607W        W25933  24.070  20.524  10.627
53608W        W25934  31.135  28.465  13.454
53609W        W25935   8.192  37.975  11.028
53610W        W25936  40.802  21.251  11.080
53611W        W25937  28.656  27.565   4.350
53612W        W25938  26.522  15.802   3.814
53613W        W25939  26.492  19.174  14.785
53614W        W25940  23.706  29.992   3.835
53615W        W25941  36.566  10.662   3.157
53616W        W25942  20.129  43.808   3.694
53617W        W25943  16.591  24.688   0.851
53618W        W25944  27.577  40.889  13.464
53619W        W25945   3.225   6.894   1.423
53620W        W25946  25.006  16.636  11.061
53621W        W25947  12.753  38.042  14.869
53622W        W25948  23.174   6.767  14.483
53623W        W25949  37.908  26.623   1.340
53624W        W25950  35.953  31.484   3.856
53625W        W25951  38.407  35.533   2.680
53626W        W25952  17.660  44.958   1.271
53627W        W25953  41.024  24.479   3.370
53628W        W25954  13.665  10.821  14.475
53629W        W25955   3.868  43.385   1.801
53630W        W25956  42.406   6.310  13.512
53631W        W25957  22.125   9.157  14.771
53632W        W25958  28.458  42.969  13.528
53633W        W25959  41.833  37.479   1.392
53634W        W25960  21.222  18.734  10.992
53635W        W25961  29.953   5.824   3.758
53636W        W25962  25.565   7.672   1.802
53637W        W25963  10.651  31.423   1.838
53638W        W25964  42.020  15.170  12.858
53639W        W25965  24.714   7.185  14.923
53640W        W25966  13.338  15.200  13.982
53641W        W25967  16.102   7.912  10.638
53642W        W25968  38.861  31.442   2.712
53643W        W25969  36.874  19.239   0.268
53644W        W25970  35.883  33.550   0.348
53645W        W25971   9.785  22.512   1.789
53646W        W25972  40.884  39.367  10.942
53647W        W25973  13.201  14.221   4.687
53648W        W25974   3.328   0.788   4.719
53649W        W25975  44.973  25.113   1.317
53650W        W25976   9.765  12.270   4.776
53651W        W25977  26.986  21.707  11.475
53652W        W25978  24.665  40.360  12.917
53653W        W25979  34.449   8.213   0.752
53654W        W25980  32.140  15.672  10.474
53655W        W25981   6.803  38.479   3.673
53656W        W25982  42.983  25.670  12.939
53657W        W25983  43.910  14.141   0.264
53658W        W25984  25.128  21.028   5.284
53659W        W25985  12.792   2.741   3.731
53660W        W25986  28.531  35.932  11.599
53661W        W25987  25.488  38.837   1.881
53662W        W25988   7.337   5.812  10.959
53663W        W25989  34.115  41.931  13.811
53664W        W25990  28.434  14.116  11.384
53665W        W25991   4.241  19.265   2.369
53666W        W25992  23.669  19.769  14.306
53667W        W25993  36.490   7.910  13.483
53668W        W25994  35.547  20.192   4.271
53669W        W25995  18.281  44.426  13.001
53670W        W25996  20.124   7.334  10.892
53671W        W25997  34.927  18.722  14.514
53672W        W25998  35.950  14.617   2.326
53673W        W25999  37.398  32.572  14.378
53674W        W26000  42.329  39.537   1.351
53675W        W26001  41.324  22.132   2.769
53676W        W26002   3.310  24.513   1.696
53677W        W26003  17.288  21.757   4.207
53678W        W26004   0.960  38.545  11.407
53679W        W26005  14.803  23.693   3.198
53680W        W26006  35.517  28.674  12.561
53681W        W26007  25.479  29.428  13.064
53682W        W26008  20.615   4.265   2.703
53683W        W26009  18.151  16.211  12.001
53684W        W26010  32.973  22.690   1.811
53685W        W26011  30.071  16.226  14.032
53686W        W26012  10.351  13.268  10.490
53687W        W26013   4.335  42.934   2.751
53688W        W26014  40.049  30.046  13.001
53689W        W26015  14.299  37.896   4.219
53690W        W26016  12.653   4.213   1.744
53691W        W26017  24.192  26.569   4.808
53692W        W26018   5.307  28.578   0.769
53693W        W26019  14.298  12.641  13.344
53694W        W26020  37.919   7.284   3.199
53695W        W26021   0.876  16.075   0.468
53696W        W26022  40.412  38.971  11.945
53697W        W26023   4.718  22.685  13.438
53698W        W26024   1.936   2.400  10.583
53699W        W26025  16.215  35.949  13.793
53700W        W26026  24.099   4.920  12.045
53701W        W26027  11.744  10.157   0.861
53702W        W26028  41.919  34.942  10.130
53703W        W26029  37.951   9.304  11.038
53704W        W26030   3.411  42.382   4.166
53705W        W26031  30.952  28.178  12.469
53706W        W26032   8.282  41.889   4.809
53707W        W26033  41.941  28.970  10.431
53708W        W26034  23.217   3.822  10.913
53709W        W26035  31.077  23.091   2.321
53710W        W26036   2.944  40.478  11.575
53711W        W26037  29.583  14.807   2.759
53712W        W26038  12.324  10.357  13.868
53713W        W26039  30.473  44.785  11.966
53714W        W26040  38.024  22.009  13.445
53715W        W26041  22.232  13.232   3.832
53716W        W26042  30.513  14.788   3.811
53717W        W26043  15.798  13.184   2.211
53718W        W26044  31.906   8.301  13.438
53719W        W26045  31.079  44.925  12.567
53720W        W26046   3.420  18.607  14.906
53721W        W26047  29.143  20.730  11.092
53722W        W26048  26.113  19.705   4.216
53723W        W26049  11.756  41.904  11.922
53724W        W26050  30.065  13.262   0.734
53725W        W26051   4.808  34.930   1.419
53726W        W26052  30.096   9.208  13.530
53727W        W26053  30.094  21.018  11.428
53728W        W26054  22.231  14.678   3.763
53729W        W26055  30.987  18.130   1.368
53730W        W26056   0.295   6.830  14.915
53731W        W26057  26.952  43.390   0.909
53732W        W26058  11.187  14.686  11.608
53733W        W26059   8.169  15.729  12.404
53734W        W26060  37.859  36.542  14.852
53735W        W26061  27.621  38.529   1.415
53736W        W26062  41.474  43.365  13.373
53737W        W26063  15.667  26.972  11.862
53738W        W26064  27.081  11.240  12.378
53739W        W26065  31.966  21.062  10.643
53740W        W26066  27.510  30.036   4.650
53741W        W26067  28.160  42.487   2.799
53742W        W26068  14.710  29.014  10.573
53743W        W26069   2.363  14.245  10.523
53744W        W26070   5.436  43.453  10.577
53745W        W26071  27.581  25.064   0.847
53746W        W26072  36.532  31.484  11.877
53747W        W26073   4.820  19.226  13.992
53748W        W26074  23.134  16.207   0.349
53749W        W26075   1.466  41.380   4.813
53750W        W26076   9.853   6.720   4.631
53751W        W26077  33.966  10.766  11.594
53752W        W26078   2.238  12.262   0.362
53753W        W26079  11.280  34.990  11.017
53754W        W26080  38.515  16.199   4.728
53755W        W26081   5.908   0.328   0.389
53756W        W26082  10.267  10.673  10.444
53757W        W26083  19.601  32.931   4.123
53758W        W26084  42.406  15.231  13.359
53759W        W26085  29.591  42.472  14.437
53760W        W26086  11.253  13.183   2.178
53761W        W26087  17.660   1.470   0.878
53762W        W26088  38.368   4.369   2.184
53763W        W26089  34.561  16.172  10.444
53764W        W26090  28.593  28.475  13.980
53765W        W26091  44.453   9.819   2.358
53766W        W26092  40.028   9.357   1.250
53767W        W26093  35.931  10.692  13.534
53768W        W26094   4.383  21.541   3.282
53769W        W26095  11.735   1.810  13.462
53770W        W26096   2.299  29.975   2.850
53771W        W26097  34.511  25.695   2.804
53772W        W26098  41.894  34.397  10.469
53773W        W26099  21.077  36.956  12.902
53774W        W26100  38.037  27.541   3.209
53775W        W26101  12.169  11.762   0.816
53776W        W26102  11.191  41.429  10.417
53777W        W26103  27.006  41.524   2.398
53778W        W26104  42.455   5.197  13.802
53779W        W26105  13.349  14.764  12.935
53780W        W26106  15.136  29.652   4.184
53781W        W26107  34.059  33.960  14.028
53782W        W26108  13.122  33.426  13.819
53783W        W26109  17.094   5.711  11.085
53784W        W26110  19.113  10.374   0.249
53785W        W26111  15.603  38.373   4.698
53786W        W26112  25.521  20.737  10.583
53787W        W26113  29.485  40.050  10.934
53788W        W26114  20.689   2.257   2.713
53789W        W26115  19.202   1.887   0.786
53790W        W26116  40.327   4.402  10.521
53791W        W26117  44.365  25.985  14.847
53792W        W26118  33.453  21.557  14.363
53793W        W26119  25.713  37.387   9.963
53794W        W26120  43.334  42.295   4.310
53795W        W26121   3.383  40.413   2.226
53796W        W26122   2.935  32.622  14.301
53797W        W26123  21.223  25.001   4.753
53798W        W26124  34.940  37.502  13.829
53799W        W26125  29.116  31.402  13.819
53800W        W26126   6.895  39.064   3.631
53801W        W26127  34.121  44.404  12.500
53802W        W26128  16.278  41.320   0.836
53803W        W26129  29.982   3.762  13.978
53804W        W26130  20.532  20.629   4.623
53805W        W26131  28.589   7.362  14.913
53806W        W26132  42.809  20.655   3.254
53807W        W26133  41.349  31.449  14.909
53808W        W26134  29.979  28.542  12.828
53809W        W26135  28.556  40.980  10.404
53810W        W26136  11.337  24.706   0.898
53811W        W26137  37.342  37.966  12.025
53812W        W26138  21.200  25.074  12.001
53813W        W26139  28.012  15.769   1.344
53814W        W26140  35.564   7.325   0.914
53815W        W26141  32.123  10.725   4.798
53816W        W26142  23.552  40.839  11.036
53817W        W26143  29.026  42.928   4.235
53818W        W26144  42.445  30.621  12.074
53819W        W26145  37.054  44.785  12.087
53820W        W26146  31.985  15.646  11.113
53821W        W26147  13.154  15.714  14.900
53822W        W26148   3.299  39.818  14.860
53823W        W26149  41.868  14.219   2.360
53824W        W26150   5.782  41.379   2.747
53825W        W26151  43.876  26.168  10.541
53826W        W26152  33.972   3.263   0.442
53827W        W26153  15.259   2.888   2.756
53828W        W26154   0.769  23.094  10.553
53829W        W26155  19.743  16.184  14.288
53830W        W26156  40.001  22.696   3.638
53831W        W26157  42.972  28.947   4.834
53832W        W26158  25.151  38.402  11.118
53833W        W26159   1.413  22.207   5.110
53834W        W26160   9.341   0.485  14.987
53835W        W26161  10.809  40.013  10.427
53836W        W26162  42.032   0.359   2.384
53837W        W26163   9.150  21.610   2.733
53838W        W26164  34.027  32.950   5.124
53839W        W26165  12.272  34.509   4.179
53840W        W26166  14.645  29.966  12.405
53841W        W26167  44.770   4.876  11.437
53842W        W26168  20.121  44.902  13.507
53843W        W26169  42.998  29.149  11.047
53844W        W26170  29.943  11.260   3.265
53845W        W26171  13.158  44.819   3.796
53846W        W26172  31.044  38.516   2.789
53847W        W26173  17.709  16.218   4.347
53848W        W26174  36.980  12.346  10.050
53849W        W26175  25.521  11.174  13.486
53850W        W26176  29.111   8.304   4.127
53851W        W26177  20.625  18.574   0.966
53852W        W26178  38.443  15.278   4.742
53853W        W26179  13.335  15.752   2.353
53854W        W26180  20.570  13.303   3.261
53855W        W26181  10.707  33.116   3.267
53856W        W26182  40.034  21.583   2.814
53857W        W26183  16.606  37.499  12.884
53858W        W26184  11.343   3.363  12.002
53859W        W26185  22.109  27.546  14.461
53860W        W26186  10.284  12.347   2.896
53861W        W26187  25.622  29.547   4.830
53862W        W26188  22.669  43.290   2.852
53863W        W26189   1.257  36.038  11.856
53864W        W26190  23.056  43.340  13.500
53865W        W26191   1.430   2.310   1.280
53866W        W26192   0.820  20.735  10.565
53867W        W26193  25.595  13.745   2.335
53868W        W26194   6.757  22.509  10.487
53869W        W26195  23.214  29.058  10.487
53870W        W26196  15.103  22.564   2.187
53871W        W26197  32.911  44.904  14.440
53872W        W26198  24.716  20.105   1.881
53873W        W26199  33.930  25.705   2.275
53874W        W26200   8.869  21.256  10.470
53875W        W26201  25.604  25.075   1.221
53876W        W26202  25.094   0.491  13.878
53877W        W26203  31.607  30.538   2.295
53878W        W26204  10.873  14.192   3.215
53879W        W26205  14.672  26.612  12.473
53880W        W26206  41.453  22.211   3.715
53881W        W26207  17.284  44.422   3.229
53882W        W26208  40.972  16.588   2.344
53883W        W26209  41.528  35.492   3.770
53884W        W26210  37.880  21.114  13.847
53885W        W26211   4.890  15.639   0.247
53886W        W26212  24.538   9.385  14.359
53887W        W26213   5.700   4.853  12.921
53888W        W26214  11.190  29.449   0.343
53889W        W26215   8.855  28.660   0.781
53890W        W26216  39.976  37.014  12.389
53891W        W26217  34.907  18.727   0.875
53892W        W26218  29.427  41.327   1.849
53893W        W26219  14.307  44.993  10.906
53894W        W26220  10.747  27.489   1.279
53895W        W26221  12.619  30.148  12.056
53896W        W26222  18.054   3.236   1.449
53897W        W26223  29.433  39.835  12.466
53898W        W26224  25.499  33.420  13.474
53899W        W26225  36.917  23.666  12.578
53900W        W26226  17.678  42.786   1.334
53901W        W26227   0.304   6.818  10.409
53902W        W26228  23.725  34.406  13.330
53903W        W26229  16.093  28.618  11.466
53904W        W26230  33.948  12.251   1.770
53905W        W26231  23.027  16.800  14.407
53906W        W26232  36.880  24.095   4.241
53907W        W26233  14.769  38.399  14.350
53908W        W26234  21.535  23.172   0.868
53909W        W26235  33.586  12.243   2.315
53910W        W26236  17.120   0.317  14.413
53911W        W26237  35.976  14.111  12.907
53912W        W26238  39.064   3.336  10.081
53913W        W26239  31.911  15.680   5.319
53914W        W26240  27.168  28.932   2.692
53915W        W26241  13.293  44.874  13.377
53916W        W26242  13.602  26.549  10.579
53917W        W26243  34.898  19.236  13.542
53918W        W26244   6.757   0.880  11.398
53919W        W26245  32.966  18.216  12.867
53920W        W26246  18.278   9.695   1.352
53921W        W26247  31.624  39.526  12.046
53922W        W26248  23.637  21.162   3.662
53923W        W26249   2.227   8.256  11.510
53924W        W26250  29.144  27.186   1.451
53925W        W26251   4.738   7.746  13.025
53926W        W26252   6.717   7.820   1.355
53927W        W26253   7.342  25.069   3.724
53928W        W26254  27.459   4.865  14.292
53929W        W26255  40.541  23.578   3.812
53930W        W26256   4.779  17.261   3.335
53931W        W26257   9.799   2.871   1.294
53932W        W26258  33.486   1.792   4.185
53933W        W26259  42.817  28.502  12.947
53934W        W26260   3.799  30.955  11.493
53935W        W26261  35.981  43.901   2.260
53936W        W26262   0.798   8.221   0.271
53937W        W26263  43.884   4.922  11.589
53938W        W26264  24.163  35.396  10.557
53939W        W26265  27.953  19.100   3.207
53940W        W26266  17.601  24.226   1.748
53941W        W26267   8.808  43.439   4.221
53942W        W26268  30.496  31.098  14.903
53943W        W26269  22.018   3.921   3.773
53944W        W26270   4.771  13.657  11.918
53945W        W26271  30.633  32.127   3.642
53946W        W26272  29.500  33.621  14.801
53947W        W26273  33.106   8.267   1.359
53948W        W26274  38.074  31.587  13.359
53949W        W26275   5.288  24.016  14.879
53950W        W26276  13.150  25.705  13.441
53951W        W26277   2.265  35.561  14.307
53952W        W26278  12.217  33.078  11.944
53953W        W26279  23.153  16.271   3.230
53954W        W26280  31.124  38.854  10.016
53955W        W26281  43.888  32.418   2.269
53956W        W26282  42.868  38.405   4.743
53957W        W26283   6.836  30.609   2.190
53958W        W26284  18.561  32.491   3.318
53959W        W26285  30.523  15.821   5.226
53960W        W26286  25.015  19.681   0.788
53961W        W26287   9.234  29.138  10.969
53962W        W26288  35.944   6.349   1.700
53963W        W26289  43.898  40.042  12.404
53964W        W26290  31.646  43.776   4.256
53965W        W26291   7.701  41.995  14.031
53966W        W26292  43.953  31.904  12.038
53967W        W26293  22.698  36.086  10.570
53968W        W26294  25.520   4.397   3.764
53969W        W26295  37.460   1.265  13.011
53970W        W26296   6.339  33.625  10.639
53971W        W26297  16.611   2.809   0.838
53972W        W26298  37.504  11.826  13.881
53973W        W26299  18.145  42.899   4.330
53974W        W26300  29.057  23.160  14.775
53975W        W26301  24.209   7.325   5.131
53976W        W26302  30.035  38.959  12.349
53977W        W26303  23.601  28.004  10.551
53978W        W26304  44.296   0.885   0.319
53979W        W26305  28.058  22.020  12.971
53980W        W26306  23.012  33.585  13.473
53981W        W26307   4.384   7.770  14.316
53982W        W26308   4.273  33.492   2.321
53983W        W26309  40.537  42.785   3.792
53984W        W26310  32.589  21.531   1.254
53985W        W26311  23.518   9.881  12.524
53986W        W26312  28.063   2.258  14.999
53987W        W26313   9.865  42.387   0.418
53988W        W26314  39.398  24.974  13.451
53989W        W26315  13.118  23.550   0.862
53990W        W26316  17.699  38.855   0.246
53991W        W26317  12.291  35.543   3.376
53992W        W26318  24.696   9.218  11.575
53993W        W26319   2.862  23.663  11.555
53994W        W26320  34.437  39.551  10.957
53995W        W26321   1.834  32.452   0.826
53996W        W26322  44.899  40.512  13.825
53997W        W26323  44.960   2.259   2.322
53998W        W26324  22.093  36.935   2.214
53999W        W26325  30.510   0.898   0.380
54000W        W26326  34.956  12.654  11.580
54001W        W26327  29.120  27.447   3.185
54002W        W26328   7.305  23.609  12.482
54003W        W26329   8.655  27.505  14.920
54004W        W26330  44.447  18.273   0.865
54005W        W26331   0.375   6.372  11.019
54006W        W26332  27.498   3.309  13.544
54007W        W26333  43.307   2.782   1.861
54008W        W26334  40.932   9.703   2.727
54009W        W26335  13.676  15.668  12.994
54010W        W26336  16.100  17.706   0.934
54011W        W26337  36.430  19.656   2.722
54012W        W26338  28.447  13.193  13.370
54013W        W26339  32.896  26.186   4.216
54014W        W26340  27.126   0.401  11.022
54015W        W26341  36.515   1.852   3.180
54016W        W26342  25.492   9.813   3.351
54017W        W26343   6.782   9.827  11.053
54018W        W26344  34.988  25.541   4.333
54019W        W26345  15.308  27.501  14.897
54020W        W26346  14.813  19.272   1.822
54021W        W26347  21.195   9.236  14.891
54022W        W26348   7.885  11.804  14.353
54023W        W26349  33.609  17.599  11.126
54024W        W26350   6.246  39.060  11.972
54025W        W26351  24.696  24.628   0.797
54026W        W26352  16.266  19.191   3.364
54027W        W26353   7.205   7.767  12.020
54028W        W26354  41.309  44.939   4.166
54029W        W26355  40.797  31.122  14.813
54030W        W26356  15.296  12.757   4.198
54031W        W26357  10.859  35.056   0.796
54032W        W26358  10.210  27.958   1.751
54033W        W26359  32.928  10.637   4.610
54034W        W26360  43.454  38.406  11.967
54035W        W26361  21.562  24.545   2.202
54036W        W26362  28.090  10.653  12.911
54037W        W26363  19.235  40.830   3.747
54038W        W26364   1.778   9.244   1.378
54039W        W26365   7.684  25.533  13.968
54040W        W26366  21.022   3.883   1.773
54041W        W26367  21.229  33.398   1.399
54042W        W26368  42.345  31.900  14.867
54043W        W26369  15.319  11.622  11.988
54044W        W26370   3.398  11.355   1.824
54045W        W26371  16.211  28.137  10.903
54046W        W26372   3.399  14.137   2.879
54047W        W26373  27.961  22.103   0.411
54048W        W26374  20.231   6.312   3.800
54049W        W26375  11.838  14.624   3.671
54050W        W26376  42.284   1.406  11.902
54051W        W26377  19.651  25.056  12.444
54052W        W26378   6.291  20.588   4.277
54053W        W26379  37.978   3.422   2.783
54054W        W26380  32.538  31.432  12.377
54055W        W26381  40.308  24.525   2.292
54056W        W26382  30.533  16.212   1.311
54057W        W26383  29.006   0.249  14.396
54058W        W26384  30.038  32.568  11.976
54059W        W26385  20.589  36.399  11.902
54060W        W26386   8.894  38.994  14.309
54061W        W26387  32.423   7.323   0.795
54062W        W26388  13.302  19.721   4.276
54063W        W26389  14.604   2.893  14.914
54064W        W26390  21.109  32.426   1.244
54065W        W26391  44.267  29.575   3.762
54066W        W26392  42.471  15.232  11.436
54067W        W26393  41.395  40.389   2.835
54068W        W26394  33.093  34.037  10.419
54069W        W26395   0.984   6.208  14.834
54070W        W26396  12.807  10.380   0.957
54071W        W26397  29.955  42.434   2.697
54072W        W26398   4.708  42.365   1.410
54073W        W26399   8.817  26.128  14.879
54074W        W26400  18.154   8.840  11.079
54075W        W26401  31.494  39.489   1.878
54076W        W26402  35.013   2.953  11.081
54077W        W26403  12.731  13.615   1.897
54078W        W26404  30.969  42.934  14.911
54079W        W26405   4.382  29.994  14.886
54080W        W26406  21.034   6.774   1.422
54081W        W26407  24.718  34.561  12.421
54082W        W26408   8.789   2.265   0.832
54083W        W26409  24.679   3.745  13.535
54084W        W26410  22.530  16.245   0.907
54085W        W26411  18.238  26.196   1.800
54086W        W26412  17.281  37.434  12.522
54087W        W26413  11.280  20.267   2.690
54088W        W26414  37.921  21.633   0.386
54089W        W26415   3.360  27.631   4.658
54090W        W26416  42.513  34.975  11.022
54091W        W26417  26.090  21.579   1.385
54092W        W26418  39.332   6.688   3.785
54093W        W26419  41.411  43.909   2.238
54094W        W26420  32.100  34.458   3.268
54095W        W26421  26.466  35.084   4.699
54096W        W26422   4.258  18.116   1.451
54097W        W26423  12.134  44.417  14.804
54098W        W26424  39.892  43.830  12.408
54099W        W26425  18.651  42.410   3.804
54100W        W26426  20.061   6.908  14.914
54101W        W26427  27.554  25.603  12.935
54102W        W26428   7.718   8.655   2.280
54103W        W26429   6.734  10.730   4.147
54104W        W26430  30.943   3.373   4.125
54105W        W26431  18.764  44.822  13.827
54106W        W26432   7.351   8.172  12.552
54107W        W26433  29.111  40.388  10.470
54108W        W26434  10.733  14.707   2.694
54109W        W26435  20.185  38.951  14.399
54110W        W26436   6.353  21.218  10.923
54111W        W26437  10.269  18.571   3.355
54112W        W26438  19.563   0.448  10.042
54113W        W26439  21.018  37.004  14.433
54114W        W26440  12.136  23.037   1.760
54115W        W26441  25.567  36.007  14.974
54116W        W26442  18.560  41.413   4.789
54117W        W26443  22.013  27.131  12.549
54118W        W26444  30.451  36.092  13.893
54119W        W26445  19.686  29.511   1.860
54120W        W26446  21.604  37.387   9.552
54121W        W26447  36.981   6.216   3.361
54122W        W26448  36.847  27.686  12.367
54123W        W26449  42.002  31.647   1.326
54124W        W26450   4.405  26.089  12.467
54125W        W26451  11.715  14.285   3.744
54126W        W26452  11.243  40.521  14.399
54127W        W26453   1.847  31.926  12.867
54128W        W26454  44.876   2.894   0.800
54129W        W26455  38.926  25.508  12.344
54130W        W26456  42.802  29.625   2.878
54131W        W26457   0.352  29.668   3.865
54132W        W26458  11.364  16.668   4.613
54133W        W26459  13.116  27.001  12.895
54134W        W26460  34.482  28.140   3.730
54135W        W26461  30.017  14.649  14.459
54136W        W26462  33.125  16.202   4.251
54137W        W26463  34.552  33.404  11.035
54138W        W26464  35.981  33.485  14.864
54139W        W26465  40.499  41.005   3.196
54140W        W26466   2.468   5.791   2.410
54141W        W26467  10.300  43.293   4.687
54142W        W26468  21.257   9.203   2.830
54143W        W26469  40.052  29.127   3.173
54144W        W26470  41.411  15.691   1.282
54145W        W26471  42.854  38.516   4.113
54146W        W26472  31.925  24.652   1.242
54147W        W26473  15.242  26.037   0.946
54148W        W26474   1.378  37.383   0.371
54149W        W26475  27.167   1.394   1.362
54150W        W26476  13.181   8.826   0.872
54151W        W26477  22.706  18.095   1.368
54152W        W26478  40.957  44.400   0.857
54153W        W26479  40.487   8.328   1.403
54154W        W26480   6.867  41.502  13.043
54155W        W26481  15.587  18.092  11.470
54156W        W26482  29.173  31.937  13.985
54157W        W26483  15.083  41.524  10.576
54158W        W26484  34.004  14.191   0.809
54159W        W26485  10.298  23.694   1.285
54160W        W26486  22.058  27.590  12.085
54161W        W26487  26.501  27.464   9.656
54162W        W26488  29.023  23.043  10.966
54163W        W26489  39.044   3.763  11.604
54164W        W26490  27.182  36.073   1.798
54165W        W26491  36.007  14.333   0.772
54166W        W26492  19.754  27.173   2.248
54167W        W26493  27.449  16.646   1.359
54168W        W26494  30.551  16.696   4.608
54169W        W26495  26.693  14.135   4.784
54170W        W26496   4.932  36.497   0.355
54171W        W26497  36.536  42.794  13.953
54172W        W26498  43.461  23.735  11.606
54173W        W26499   0.435   6.841  13.460
54174W        W26500  28.442  41.344  14.942
54175W        W26501  32.525  43.336  14.474
54176W        W26502  10.323   4.357   1.863
54177W        W26503  32.017   5.917   4.717
54178W        W26504  12.145  27.082  10.603
54179W        W26505  24.683  12.202  11.597
54180W        W26506  15.809  39.872   0.351
54181W        W26507  14.618  15.123  13.813
54182W        W26508   5.232  22.747   1.756
54183W        W26509   7.370  38.832   1.430
54184W        W26510  27.057   4.400   2.769
54185W        W26511  17.723  24.086  13.030
54186W        W26512  27.648  25.984  11.987
54187W        W26513  38.451  25.535  11.015
54188W        W26514  13.830  30.517  13.317
54189W        W26515  33.621  25.519   2.820
54190W        W26516   0.346  22.153  12.426
54191W        W26517   8.210  20.141   2.397
54192W        W26518  28.078   4.238  11.070
54193W        W26519   3.319  39.055  11.548
54194W        W26520  16.596  42.355   4.811
54195W        W26521   6.865   4.816  10.915
54196W        W26522  35.396   1.410   1.826
54197W        W26523   3.268  22.558  12.856
54198W        W26524  10.859  25.975  11.430
54199W        W26525  21.054  43.304  12.508
54200W        W26526  32.080  41.395  12.538
54201W        W26527  18.223  25.599   1.321
54202W        W26528   5.803  32.467   3.176
54203W        W26529  40.448  12.321  10.602
54204W        W26530   6.339  39.969  12.096
54205W        W26531   3.330   9.752  13.315
54206W        W26532   9.872  11.814  14.965
54207W        W26533  37.960   4.919  10.048
54208W        W26534   2.424  38.895   5.108
54209W        W26535  18.176  42.894   1.284
54210W        W26536   8.299  17.700  13.793
54211W        W26537   7.904   1.340  11.979
54212W        W26538   3.904  29.637  11.387
54213W        W26539  24.576   8.342  12.094
54214W        W26540  27.193  19.075  12.956
54215W        W26541  14.164  24.186  10.551
54216W        W26542  16.734  42.008   4.159
54217W        W26543  19.597  31.151  10.436
54218W        W26544  39.417  27.500   3.776
54219W        W26545   6.190  31.063   0.939
54220W        W26546  28.080  29.491  13.880
54221W        W26547  26.527   7.893   3.657
54222W        W26548  30.934  14.207   4.141
54223W        W26549  14.690  30.614  12.437
54224W        W26550   1.317   0.266  14.782
54225W        W26551  25.969  13.618  13.037
54226W        W26552  12.295  28.989  12.959
54227W        W26553   3.418  12.246   1.227
54228W        W26554  40.545  22.644  13.015
54229W        W26555   8.301   1.964  13.359
54230W        W26556  31.644  14.197  12.417
54231W        W26557  15.722  33.541   2.714
54232W        W26558  37.970   9.662   1.809
54233W        W26559  12.770  22.193  12.087
54234W        W26560  17.156  11.253   3.829
54235W        W26561  20.721  27.118  11.417
54236W        W26562  40.371  33.053  11.510
54237W        W26563  28.590  18.593  10.001
54238W        W26564   8.835  19.045   2.236
54239W        W26565  34.473  43.938   0.947
54240W        W26566  24.596  17.749   1.740
54241W        W26567   0.840   1.967   0.772
54242W        W26568  40.378  16.259  12.354
54243W        W26569   6.882   0.799  10.504
54244W        W26570  33.437   8.700   0.416
54245W        W26571  27.496  24.191   2.759
54246W        W26572  19.256  35.487  14.001
54247W        W26573  10.140  24.722  10.415
54248W        W26574  32.117   6.681  12.363
54249W        W26575  19.634  15.669   0.372
54250W        W26576  27.602  39.470  12.431
54251W        W26577  14.815   0.761   0.842
54252W        W26578  38.841  37.539  13.356
54253W        W26579   9.204   3.258   1.391
54254W        W26580  41.419  30.638   4.127
54255W        W26581   3.851  38.871  11.503
54256W        W26582  32.533  14.128   3.256
54257W        W26583  18.126  23.140   1.901
54258W        W26584   6.372  17.082  10.945
54259W        W26585   9.719  40.999  10.449
54260W        W26586  43.924  15.727  10.443
54261W        W26587  42.431  13.179   3.214
54262W        W26588  32.445  31.055   0.853
54263W        W26589  20.257   0.888   0.455
54264W        W26590  18.152   4.411   2.729
54265W        W26591  29.073   9.168  13.399
54266W        W26592  22.144  33.057   3.741
54267W        W26593   5.410  39.516   3.302
54268W        W26594   7.181  16.597  12.960
54269W        W26595  31.047  19.246   2.392
54270W        W26596  37.450  19.680  10.908
54271W        W26597  28.113  17.771   2.315
54272W        W26598  34.998  32.115   3.791
54273W        W26599  35.871  15.198  10.600
54274W        W26600  12.269  10.239   2.736
54275W        W26601  31.964  42.819   1.271
54276W        W26602  27.547  24.527   1.299
54277W        W26603  38.840  21.216   0.316
54278W        W26604  27.613  12.774   2.254
54279W        W26605  10.796  13.614   4.828
54280W        W26606  29.102  43.764   3.851
54281W        W26607   9.653  34.031   4.238
54282W        W26608  15.766  40.980   0.916
54283W        W26609  15.688  29.469  10.517
54284W        W26610  43.003  26.155  14.015
54285W        W26611  26.669  38.853  13.872
54286W        W26612  22.714  36.935  12.036
54287W        W26613  33.981  15.595   2.885
54288W        W26614   9.311  32.976   4.347
54289W        W26615  11.625  42.477   3.849
54290W        W26616  19.645   8.241  11.915
54291W        W26617  19.212  28.640  14.025
54292W        W26618   9.708  38.378  11.966
54293W        W26619  43.461   8.721  12.009
54294W        W26620   9.151  10.817  12.434
54295W        W26621   6.895  12.809   4.772
54296W        W26622  32.446   2.278  14.509
54297W        W26623   4.234   8.246  11.469
54298W        W26624  44.322  35.579  10.417
54299W        W26625  15.286  37.838   0.752
54300W        W26626  12.848  41.446  11.455
54301W        W26627  22.120   2.449  12.479
54302W        W26628   5.224   9.850   4.276
54303W        W26629  27.586  26.971   4.726
54304W        W26630  23.646  25.171   3.689
54305W        W26631   9.372  25.472   1.247
54306W        W26632  19.555   2.422  13.513
54307W        W26633  22.673  33.504   3.281
54308W        W26634   8.839  41.436   4.195
54309W        W26635   8.842   1.966  14.834
54310W        W26636  10.748  40.304  11.096
54311W        W26637  23.048  28.505  10.511
54312W        W26638  22.570  40.494  11.073
54313W        W26639  21.089  39.483   2.788
54314W        W26640  41.862  17.686   1.878
54315W        W26641  24.140  11.747  12.909
54316W        W26642  18.640  13.165  14.346
54317W        W26643  16.219  33.574  13.870
54318W        W26644   2.948  28.618  11.017
54319W        W26645  32.074  32.926  14.925
54320W        W26646  41.401  15.287   1.407
54321W        W26647  20.198  39.385  12.506
54322W        W26648  44.483  21.694  11.033
54323W        W26649  10.871  36.898   1.853
54324W        W26650  18.685  41.829  13.016
54325W        W26651  28.633   5.298  12.452
54326W        W26652  25.498  41.991   4.613
54327W        W26653  26.100  12.783  14.875
54328W        W26654  33.564  24.040  11.436
54329W        W26655  18.123  30.921  13.514
54330W        W26656   3.382  38.880   0.967
54331W        W26657  39.488  20.061  12.579
54332W        W26658  24.548   1.823   0.250
54333W        W26659  25.199   3.750   0.922
54334W        W26660  11.732  44.382   0.955
54335W        W26661   2.350  15.680   2.213
54336W        W26662  32.513  22.060  11.921
54337W        W26663   7.267  37.010  12.486
54338W        W26664  10.274  29.467   2.872
54339W        W26665  25.178   4.770  12.342
54340W        W26666  22.190  43.351  13.807
54341W        W26667  18.588  17.593   2.731
54342W        W26668  35.001  23.033   0.391
54343W        W26669   6.844  41.834  13.027
54344W        W26670  22.038   1.334  14.455
54345W        W26671   1.327  42.947   4.793
54346W        W26672   9.260   9.152  10.621
54347W        W26673  36.565  30.014   1.361
54348W        W26674  16.624  36.930  12.493
54349W        W26675   3.373   2.729   4.334
54350W        W26676  43.996  44.382  12.368
54351W        W26677   2.787   0.944  10.548
54352W        W26678   9.260  15.765  13.023
54353W        W26679  13.817  11.677   0.482
54354W        W26680  42.462   9.307   1.776
54355W        W26681  29.018  22.182   4.830
54356W        W26682  43.777  43.286   3.191
54357W        W26683  40.991  23.113  13.406
54358W        W26684  34.979   4.886  11.095
54359W        W26685  17.757  23.110   3.664
54360W        W26686  39.887  27.174   1.803
54361W        W26687   2.428   9.772  14.425
54362W        W26688  41.909   4.345   4.186
54363W        W26689  40.377  17.728  14.347
54364W        W26690  28.451  39.996   3.840
54365W        W26691  17.103   8.267   1.365
54366W        W26692  17.760  10.248   0.747
54367W        W26693  32.512  34.872   1.838
54368W        W26694   1.847  33.485  14.322
54369W        W26695  36.537  44.936  14.031
54370W        W26696  29.481  42.836   3.744
54371W        W26697   0.951  39.335  12.459
54372W        W26698  34.493  22.622  14.313
54373W        W26699  31.564   8.696   4.221
54374W        W26700  11.647  38.888   3.814
54375W        W26701  16.596  40.421   3.187
54376W        W26702  32.015   6.853   3.777
54377W        W26703  10.770  30.530   2.326
54378W        W26704  27.181  15.746   0.421
54379W        W26705  39.894   5.340  13.956
54380W        W26706   8.327   7.296  10.414
54381W        W26707  43.834  15.589  14.895
54382W        W26708  11.755   8.319   0.861
54383W        W26709  41.465  15.824  11.947
54384W        W26710  24.523  28.443  14.375
54385W        W26711  26.512  30.114  12.007
54386W        W26712   8.195   4.275  10.419
54387W        W26713  24.718  10.294   4.239
54388W        W26714  20.766   6.295  13.924
54389W        W26715  25.688  33.982   2.714
54390W        W26716   4.865   6.240  11.113
54391W        W26717  36.880   0.873  11.946
54392W        W26718  14.179   6.786   4.757
54393W        W26719   7.207  16.660  12.339
54394W        W26720  22.674   1.978  11.011
54395W        W26721  19.196   0.920   1.397
54396W        W26722  38.515  43.455  12.431
54397W        W26723  18.275  30.429  14.021
54398W        W26724  12.626  19.729   4.754
54399W        W26725  38.480  21.072  13.974
54400W        W26726  33.981  13.750  11.973
54401W        W26727  35.977   2.830  13.018
54402W        W26728  28.630  31.924   2.718
54403W        W26729   7.880   1.461   2.897
54404W        W26730   1.816   0.354   1.417
54405W        W26731  15.290  31.903   4.782
54406W        W26732   1.949  42.456  10.936
54407W        W26733  23.093  43.282   2.347
54408W        W26734  11.782  44.867   3.352
54409W        W26735  27.617  30.652   4.717
54410W        W26736  14.109  34.401   5.232
54411W        W26737  12.765  22.154   4.650
54412W        W26738  33.437   0.258  14.815
54413W        W26739  10.857  26.000   5.260
54414W        W26740  23.193   7.238  13.523
54415W        W26741  38.958  11.730   4.194
54416W        W26742  28.594  19.116   4.658
54417W        W26743   7.850  23.644   2.691
54418W        W26744   1.293  36.989  12.908
54419W        W26745  41.787  26.674  14.991
54420W        W26746   0.415  31.622   1.385
54421W        W26747  19.173  11.203  10.918
54422W        W26748  14.639  43.884   2.394
54423W        W26749  39.850  32.417   1.911
54424W        W26750  29.145   0.805   0.864
54425W        W26751   1.458  37.953  12.462
54426W        W26752  39.908   4.716   1.782
54427W        W26753   8.301  11.668   0.928
54428W        W26754  38.942  11.670  12.423
54429W        W26755  15.778  16.573   4.668
54430W        W26756   4.860  27.085   1.924
54431W        W26757  31.508  11.820  14.932
54432W        W26758  29.151  26.121  11.958
54433W        W26759  23.138  32.998  12.962
54434W        W26760  22.236  26.587  13.022
54435W        W26761  35.510  19.579  13.532
54436W        W26762  44.410  36.454   4.191
54437W        W26763  22.735   4.404   1.883
54438W        W26764  16.200  18.165  14.006
54439W        W26765  26.093  41.983   1.391
54440W        W26766  44.381  17.726   4.825
54441W        W26767   3.774  14.117   5.151
54442W        W26768   9.862  23.068  12.081
54443W        W26769   1.428   6.873   3.369
54444W        W26770  11.199   8.329  12.828
54445W        W26771  36.584  38.989  13.467
54446W        W26772  12.321   8.659   4.247
54447W        W26773  36.856  22.246  11.120
54448W        W26774  24.112  35.555  12.027
54449W        W26775   4.943   2.957  13.988
54450W        W26776  16.215  43.429   4.653
54451W        W26777  20.689  14.666   4.218
54452W        W26778  43.997  10.277   3.647
54453W        W26779  41.827  26.022   2.259
54454W        W26780  43.898  36.346   3.378
54455W        W26781  22.138  18.689   0.906
54456W        W26782  31.601   1.883  11.079
54457W        W26783  37.532   6.318  11.478
54458W        W26784  23.171  32.116   0.280
54459W        W26785  42.513  41.402   1.874
54460W        W26786  44.930  44.420   1.728
54461W        W26787  37.891  33.480  14.503
54462W        W26788   2.752  14.650  11.989
54463W        W26789   8.232  15.263  13.386
54464W        W26790  24.638  28.120   2.295
54465W        W26791  35.426  19.056   0.893
54466W        W26792  38.880  29.968  12.000
54467W        W26793  11.336  18.212   4.645
54468W        W26794  11.209  14.116   1.377
54469W        W26795  24.617  24.639   3.754
54470W        W26796  28.613  21.666  10.625
54471W        W26797  32.556  35.359   0.347
54472W        W26798   5.710  38.460  12.399
54473W        W26799  32.950  37.041   0.962
54474W        W26800  20.708  22.717  10.561
54475W        W26801  11.633   4.795   3.223
54476W        W26802  36.380   6.231   3.870
54477W        W26803  13.123  12.797   2.793
54478W        W26804  16.730  27.542   0.320
54479W        W26805  16.694  44.773   4.838
54480W        W26806  12.239  30.546  14.358
54481W        W26807  26.077  27.533   3.343
54482W        W26808   0.279  18.119  10.486
54483W        W26809  35.074  29.973   1.815
54484W        W26810  32.910  27.678   0.363
54485W        W26811  41.343  35.543   2.191
54486W        W26812  28.628  14.094   2.228
54487W        W26813   8.209  39.447   4.306
54488W        W26814  18.074  40.543   4.317
54489W        W26815  10.677  33.972  14.857
54490W        W26816  32.437  29.987   1.712
54491W        W26817  38.362  36.962   1.908
54492W        W26818  11.742  24.521   0.816
54493W        W26819  31.527  19.674  13.992
54494W        W26820  25.046  38.406   4.343
54495W        W26821   8.815   3.449  14.849
54496W        W26822   5.299   6.701  11.885
54497W        W26823  23.121  25.498  14.322
54498W        W26824  28.511  28.522  12.490
54499W        W26825   8.836  17.791   1.313
54500W        W26826  37.573  40.527   3.363
54501W        W26827   0.783  26.497  13.024
54502W        W26828  21.694  33.484  14.780
54503W        W26829  28.073  40.930   2.883
54504W        W26830  40.463  28.137   0.315
54505W        W26831  23.702  40.919   1.346
54506W        W26832  39.516  39.443   2.894
54507W        W26833  30.490  18.277  13.410
54508W        W26834  17.302  12.240  13.052
54509W        W26835  36.587   8.752   1.401
54510W        W26836  43.822  22.044   1.922
54511W        W26837  32.927  16.231   2.764
54512W        W26838  12.691  43.960  11.516
54513W        W26839  21.087  12.185   3.160
54514W        W26840  33.995  32.905  14.923
54515W        W26841  30.643   9.696  12.424
54516W        W26842   7.908  10.350   5.239
54517W        W26843  30.136  25.526  12.995
54518W        W26844  42.361  10.309  11.484
54519W        W26845  21.676  39.402   9.945
54520W        W26846  37.921  33.034   4.661
54521W        W26847  24.078  18.273  11.093
54522W        W26848   1.747  15.174  10.635
54523W        W26849  25.674  21.161  10.442
54524W        W26850  24.577  13.703  12.979
54525W        W26851  17.744  31.010   4.803
54526W        W26852   3.946  16.591   0.729
54527W        W26853  44.362  29.568  11.049
54528W        W26854  20.602  41.499   3.384
54529W        W26855  20.584   0.964  11.870
54530W        W26856  16.659  39.487   0.884
54531W        W26857  12.759   7.368  13.311
54532W        W26858  20.214   1.855  13.857
54533W        W26859  18.089  41.417  14.930
54534W        W26860  36.964  20.712  14.514
54535W        W26861   0.821  10.748   2.268
54536W        W26862  41.514  21.728  13.354
54537W        W26863  36.538  13.185  11.050
54538W        W26864  31.027  39.438   2.199
54539W        W26865  17.778   1.339   2.850
54540W        W26866  38.073  40.012   1.252
54541W        W26867  33.523   5.897   4.300
54542W        W26868  26.670  30.133  13.825
54543W        W26869  39.493  20.111  12.085
54544W        W26870  42.782  28.622  14.871
54545W        W26871  40.336  34.065  11.045
54546W        W26872  42.864  12.783   3.258
54547W        W26873   3.390  35.489   2.218
54548W        W26874  19.237  29.128  11.891
54549W        W26875  37.551  32.102  14.981
54550W        W26876  18.715   4.743  12.840
54551W        W26877  29.612  39.349  12.525
54552W        W26878   9.346  32.549  12.089
54553W        W26879  15.104  38.066   2.343
54554W        W26880  39.984   0.843   2.693
54555W        W26881  41.910  15.153   0.267
54556W        W26882  35.993  37.916  12.567
54557W        W26883  14.285  20.563   2.328
54558W        W26884  12.853  16.245   3.335
54559W        W26885  21.178   1.457  12.004
54560W        W26886  14.162  30.518   0.253
54561W        W26887   9.825  32.543   4.822
54562W        W26888  27.194   6.915   3.738
54563W        W26889  17.303   3.851   2.413
54564W        W26890  35.533  24.058   4.155
54565W        W26891   3.783  24.071   4.655
54566W        W26892  29.624  23.651  13.943
54567W        W26893  24.103   0.340  11.470
54568W        W26894   2.942  31.952  11.856
54569W        W26895  25.966   2.461  13.362
54570W        W26896  31.592  26.142  14.890
54571W        W26897  14.113  27.063   9.484
54572W        W26898  23.501  32.922   4.799
54573W        W26899  28.502  44.411   1.314
54574W        W26900  43.386  18.104   4.749
54575W        W26901   0.796  10.686   2.835
54576W        W26902  28.462  29.007  14.982
54577W        W26903  12.320  43.797   0.732
54578W        W26904  34.955  32.512  13.878
54579W        W26905  25.470  37.351  11.002
54580W        W26906  17.182  22.679  12.977
54581W        W26907  10.147  39.524  13.814
54582W        W26908  37.018   0.934   0.351
54583W        W26909  33.593  41.898   0.813
54584W        W26910   3.872   7.187  12.828
54585W        W26911  16.774  28.530  11.114
54586W        W26912  36.367  37.861  13.994
54587W        W26913  31.951  42.333  13.911
54588W        W26914  25.196  22.168  11.388
54589W        W26915  10.686  41.410   2.731
54590W        W26916   9.212  31.135  10.513
54591W        W26917  37.082  21.133  10.643
54592W        W26918  39.847  13.707   3.680
54593W        W26919  22.690   0.957  12.559
54594W        W26920   5.853  34.006   1.851
54595W        W26921   6.270  34.984  13.998
54596W        W26922  36.052  28.564  12.402
54597W        W26923  34.515  36.963   1.917
54598W        W26924  17.774  30.139  14.459
54599W        W26925  12.298  33.590  12.528
54600W        W26926  25.494  11.796   0.427
54601W        W26927  11.186   2.874  11.877
54602W        W26928  31.629  23.669   1.805
54603W        W26929  24.596  18.258  13.469
54604W        W26930  40.355  43.311   1.251
54605W        W26931   8.294  27.464  12.091
54606W        W26932  22.195  20.614   0.880
54607W        W26933  29.463   2.249  10.452
54608W        W26934  41.906  19.743   3.267
54609W        W26935  43.434  24.073  14.012
54610W        W26936  28.984  16.268   4.282
54611W        W26937  24.170  25.088   3.647
54612W        W26938   5.242  35.986  13.060
54613W        W26939  42.302  16.225  12.836
54614W        W26940  22.104  13.671   1.858
54615W        W26941  33.592  18.088   3.799
54616W        W26942  37.539  35.408   2.381
54617W        W26943  22.746  22.683  13.806
54618W        W26944  10.696  11.321   0.375
54619W        W26945  29.067  31.560  12.004
54620W        W26946   3.371  11.683  10.092
54621W        W26947  30.953   5.349  12.913
54622W        W26948  31.122  23.581   2.702
54623W        W26949  30.610  44.988   4.330
54624W        W26950  23.194  43.965  13.444
54625W        W26951   3.450  11.127  14.452
54626W        W26952   3.774  16.611   3.212
54627W        W26953  21.668   9.156  10.417
54628W        W26954  25.165  19.042  12.564
54629W        W26955  21.123  18.677  12.961
54630W        W26956  36.966  43.393  11.986
54631W        W26957  27.555  17.217  12.883
54632W        W26958  36.907  32.979  14.462
54633W        W26959  33.454  41.829  14.502
54634W        W26960  17.160  18.132   0.380
54635W        W26961  27.540  27.043   2.748
54636W        W26962  44.311   2.772   2.249
54637W        W26963  20.760  41.389   2.696
54638W        W26964  30.530  43.411  11.448
54639W        W26965  16.115  12.146  11.600
54640W        W26966   7.300   9.367  11.047
54641W        W26967   1.264  39.393   4.737
54642W        W26968  12.219  26.646   3.296
54643W        W26969  43.916  23.588   4.777
54644W        W26970  13.775  31.975  14.299
54645W        W26971  25.492  39.882   0.830
54646W        W26972  15.304  11.813  14.482
54647W        W26973  28.090  30.918   2.269
54648W        W26974  36.969  30.504   2.786
54649W        W26975  31.425  40.369  11.859
54650W        W26976  39.897  16.789   1.774
54651W        W26977  25.217  34.402  12.945
54652W        W26978  14.688  18.078  11.500
54653W        W26979  22.242  16.237   9.601
54654W        W26980  14.215  31.084   1.708
54655W        W26981  17.652  14.834  12.570
54656W        W26982   6.425  39.027   1.746
54657W        W26983  38.446  25.996  14.401
54658W        W26984   4.755   4.209   5.133
54659W        W26985  34.597  42.340  13.428
54660W        W26986   0.879  19.059  13.961
54661W        W26987  33.992   6.354   0.796
54662W        W26988  16.810  38.039  11.086
54663W        W26989  39.060   5.256   0.864
54664W        W26990  20.646  28.114   1.344
54665W        W26991  11.843   3.739   3.163
54666W        W26992  32.619  14.665   3.166
54667W        W26993  32.030  35.526   3.672
54668W        W26994  23.176  12.844   1.215
54669W        W26995  17.690  32.936   4.728
54670W        W26996  35.468  33.546   5.779
54671W        W26997   8.735  13.844   2.762
54672W        W26998   1.885  21.587   2.417
54673W        W26999  13.265  23.100   4.825
54674W        W27000  36.417  24.222  13.927
54675W        W27001  28.671  31.635  12.511
54676W        W27002  16.688   8.786  14.471
54677W        W27003  40.973  33.526   0.451
54678W        W27004  32.032  24.661  12.045
54679W        W27005  22.624   8.844  14.465
54680W        W27006  17.748  36.979  14.294
54681W        W27007   6.787  20.536  14.966
54682W        W27008  14.678   4.813   0.357
54683W        W27009  21.069  40.547  14.960
54684W        W27010  30.068   1.242  11.046
54685W        W27011  39.339  16.781  10.949
54686W        W27012  34.049  18.703   0.789
54687W        W27013  26.538   7.248  10.077
54688W        W27014  43.865   0.427   3.340
54689W        W27015  27.571  43.915  14.945
54690W        W27016  22.133  31.531  11.506
54691W        W27017  22.512  10.659   3.782
54692W        W27018  18.610  43.834   4.217
54693W        W27019   1.358   4.877  11.025
54694W        W27020  37.385   8.847  13.866
54695W        W27021  38.967   2.264  13.316
54696W        W27022   3.265  24.624  14.430
54697W        W27023  31.529   0.790   1.226
54698W        W27024  12.233   9.679   0.840
54699W        W27025  32.501  12.117  14.926
54700W        W27026   6.761  10.277   2.216
54701W        W27027   2.805   5.876   2.278
54702W        W27028  19.544  20.172   3.631
54703W        W27029   9.231  39.471   1.887
54704W        W27030  41.867  35.054  14.431
54705W        W27031  29.473  18.057   1.444
54706W        W27032   8.360  25.150  12.936
54707W        W27033  29.571   0.482  10.499
54708W        W27034  42.836  36.994  13.390
54709W        W27035  43.502  37.397   0.956
54710W        W27036  32.402  31.984  12.370
54711W        W27037  33.412  41.500  14.839
54712W        W27038   2.446  25.184   2.851
54713W        W27039  25.513  28.103  13.051
54714W        W27040  21.117   5.327  11.487
54715W        W27041  41.410  14.696  11.874
54716W        W27042  12.288  32.479  13.327
54717W        W27043  16.179  24.633  11.046
54718W        W27044  22.194  28.494   4.772
54719W        W27045  10.728  27.167  13.382
54720W        W27046  25.506  30.534   3.764
54721W        W27047  14.277  10.682   2.337
54722W        W27048   2.317  23.189  14.479
54723W        W27049   9.828  26.475   3.202
54724W        W27050  11.767   1.769  12.033
54725W        W27051  10.772  26.035   3.244
54726W        W27052   0.909   4.778   1.398
54727W        W27053  20.634  28.564  12.475
54728W        W27054  29.509  12.802   0.820
54729W        W27055  22.028   7.909   3.721
54730W        W27056  23.068  20.144   3.185
54731W        W27057  34.098  30.065   4.718
54732W        W27058  25.212  21.211   2.183
54733W        W27059   7.359  39.014   4.726
54734W        W27060  24.514   0.310   4.622
54735W        W27061  31.570  15.704  11.535
54736W        W27062   5.692  21.080  11.887
54737W        W27063   1.936  35.599   4.731
54738W        W27064   5.851   9.675  11.955
54739W        W27065   7.224  43.771  14.787
54740W        W27066   5.695  25.644  12.513
54741W        W27067  25.084  13.296   3.328
54742W        W27068  41.457  23.236   0.803
54743W        W27069  10.837  33.081  12.833
54744W        W27070   1.318  11.257   2.831
54745W        W27071   4.853  17.627   4.759
54746W        W27072   3.771  13.304   3.349
54747W        W27073  42.776  34.923  12.884
54748W        W27074  43.838  40.837  13.448
54749W        W27075  14.754  10.337  10.574
54750W        W27076   9.696  26.623   0.453
54751W        W27077   6.754   9.850   3.166
54752W        W27078  32.595  28.557  14.506
54753W        W27079  36.042  19.684   4.185
54754W        W27080  35.887  15.299   1.838
54755W        W27081  15.196  26.116   1.277
54756W        W27082   6.730  35.867  14.012
54757W        W27083   5.388   4.340   3.252
54758W        W27084  14.625  39.958  13.016
54759W        W27085  14.131  42.382  10.936
54760W        W27086  34.607  31.534   3.852
54761W        W27087  18.596  36.380   1.847
54762W        W27088  25.183  28.124   1.380
54763W        W27089  29.494  40.833  12.471
54764W        W27090  28.529   3.803   3.273
54765W        W27091  26.673   8.238   3.261
54766W        W27092   1.410  12.196   3.820
54767W        W27093  22.717  35.566  10.618
54768W        W27094  43.493  43.938   3.716
54769W        W27095  14.113  42.825  13.810
54770W        W27096  26.007  18.090  10.937
54771W        W27097  33.470   9.660  11.607
54772W        W27098   6.225  20.267   2.663
54773W        W27099  39.380  42.808   4.339
54774W        W27100  26.200  16.202   0.450
54775W        W27101  26.552  26.114   2.807
54776W        W27102  42.992   3.849  12.379
54777W        W27103  23.235  22.131   4.832
54778W        W27104  28.066   7.840  14.386
54779W        W27105  23.665  24.975  13.901
54780W        W27106  18.585  38.985  14.008
54781W        W27107  31.624   5.908   1.855
54782W        W27108  12.843  16.661   4.175
54783W        W27109  21.102  28.998   0.956
54784W        W27110  31.982  35.455   1.914
54785W        W27111  38.994  29.656  14.494
54786W        W27112  31.558   9.688  11.895
54787W        W27113  27.092   8.197   2.207
54788W        W27114  37.864  44.439  12.067
54789W        W27115   1.334  16.746   4.323
54790W        W27116  44.995  15.118   1.734
54791W        W27117  34.405  38.049  10.630
54792W        W27118   1.445  33.401   2.218
54793W        W27119   0.307  36.860   0.923
54794W        W27120  38.038   6.677  13.512
54795W        W27121   6.921  28.501  11.576
54796W        W27122   1.733  22.246   3.787
54797W        W27123  17.608  37.055   4.834
54798W        W27124   1.856   0.299   4.745
54799W        W27125  21.574  41.952   2.313
54800W        W27126   6.406  18.284  12.562
54801W        W27127  44.001  31.631  13.424
54802W        W27128  30.429  39.486   0.841
54803W        W27129   2.243   2.237   1.702
54804W        W27130  27.109  10.797  13.418
54805W        W27131  42.354  19.233   4.794
54806W        W27132  24.599   6.726   0.865
54807W        W27133  23.057  37.495   9.543
54808W        W27134  19.631  25.475  12.455
54809W        W27135  15.176   3.340  10.517
54810W        W27136   1.335  19.284  11.538
54811W        W27137  43.420  15.582   3.692
54812W        W27138  10.766  44.261   1.326
54813W        W27139   0.319  18.116   2.760
54814W        W27140  29.451  32.141   5.140
54815W        W27141  15.735  26.180   2.249
54816W        W27142  42.951   9.844   2.375
54817W        W27143  36.891  11.301  10.465
54818W        W27144  14.695  24.478   2.397
54819W        W27145  11.342  30.997   4.341
54820W        W27146  41.858  42.446  13.490
54821W        W27147  32.491  29.633  10.139
54822W        W27148  26.518   7.816  14.905
54823W        W27149  17.610  37.465  13.349
54824W        W27150  30.597   6.315   1.398
54825W        W27151   3.869  14.309  14.283
54826W        W27152  40.469   9.370   3.824
54827W        W27153  17.777   7.281   4.725
54828W        W27154  11.744  34.057  14.292
54829W        W27155  10.236  34.051   0.261
54830W        W27156  43.788  38.876  12.560
54831W        W27157  39.995  28.972  13.480
54832W        W27158  35.888  44.478   4.743
54833W        W27159  31.608  12.668   4.191
54834W        W27160  29.577  37.035   0.949
54835W        W27161  25.993   8.286  12.569
54836W        W27162  22.164  19.104  11.096
54837W        W27163  10.862  36.971  13.863
54838W        W27164   1.738   6.797  14.786
54839W        W27165  35.074   4.875  12.503
54840W        W27166  16.585  30.938  11.507
54841W        W27167  26.139  28.167  14.905
54842W        W27168  31.444  34.947   4.799
54843W        W27169   3.730  11.166   9.937
54844W        W27170  13.304  30.106   2.360
54845W        W27171  39.901  29.084  14.400
54846W        W27172   5.266  20.193  13.325
54847W        W27173  31.935  39.520   2.799
54848W        W27174   3.773  16.264  12.537
54849W        W27175  22.118  41.394   0.841
54850W        W27176  16.078  35.402   2.318
54851W        W27177  24.109   5.902  12.427
54852W        W27178  13.251  25.696   2.239
54853W        W27179   3.294  20.658  10.590
54854W        W27180  32.446  12.354   1.241
54855W        W27181   1.240   5.744  13.413
54856W        W27182  21.079   4.252  12.022
54857W        W27183  29.554  38.045  10.505
54858W        W27184  36.508  24.057  13.027
54859W        W27185  37.922  29.924  14.445
54860W        W27186   2.786  30.430   0.951
54861W        W27187  13.160  37.052  12.444
54862W        W27188  36.473  22.222  13.487
54863W        W27189  25.091  43.909  12.017
54864W        W27190  40.513  22.708   0.452
54865W        W27191  35.018  39.961  11.910
54866W        W27192  31.412  16.629  10.439
54867W        W27193  38.884   8.656   3.321
54868W        W27194  32.940  15.152  12.028
54869W        W27195  36.405  41.989  12.035
54870W        W27196  29.491   3.956   4.174
54871W        W27197  22.677   7.398  12.026
54872W        W27198  42.024  20.140  13.857
54873W        W27199  29.628  38.837   2.391
54874W        W27200   2.331  26.651   3.781
54875W        W27201  34.474  15.221  12.513
54876W        W27202   1.921  29.956   0.408
54877W        W27203  21.577  35.879  13.495
54878W        W27204  17.186  44.928   4.250
54879W        W27205  32.990  30.985  12.953
54880W        W27206  36.360   0.858   3.248
54881W        W27207  34.502  35.025  11.470
54882W        W27208  29.468  43.963   4.695
54883W        W27209  12.301  15.301   3.783
54884W        W27210  30.443  36.398  12.883
54885W        W27211  25.213  19.066   2.363
54886W        W27212  21.064   6.290   1.932
54887W        W27213   9.374  10.265  10.000
54888W        W27214   7.360   7.681   3.812
54889W        W27215   8.842  39.329   1.731
54890W        W27216  29.919  27.590  11.483
54891W        W27217  33.489  33.585   0.319
54892W        W27218  12.750  16.303  12.569
54893W        W27219   1.313  21.030  12.380
54894W        W27220  31.583   2.769  12.389
54895W        W27221  22.632  33.441  11.445
54896W        W27222   8.900  29.955  13.061
54897W        W27223  19.739  33.119  14.393
54898W        W27224  28.952  35.394  13.881
54899W        W27225  28.474   8.177  13.326
54900W        W27226  44.461  35.373   2.305
54901W        W27227   9.257  41.010   4.817
54902W        W27228  12.760  24.165  11.105
54903W        W27229  27.995  21.152  13.875
54904W        W27230  18.222   0.314   0.334
54905W        W27231  39.470  41.366  11.073
54906W        W27232  35.416  17.634   3.296
54907W        W27233  19.139  33.075  13.377
54908W        W27234  29.646   5.319   0.265
54909W        W27235   2.410  26.675  10.574
54910W        W27236  25.634  12.712   3.241
54911W        W27237   0.974   2.801  11.987
54912W        W27238   9.821  29.652   1.863
54913W        W27239  24.577  25.962  14.405
54914W        W27240  26.115   7.749   3.791
54915W        W27241  29.504   7.685  10.591
54916W        W27242   6.361   1.846   1.447
54917W        W27243  22.212  12.724   4.278
54918W        W27244  39.999  20.612   1.400
54919W        W27245  41.373   5.718   3.632
54920W        W27246   4.860  30.572  12.983
54921W        W27247  18.789  26.692  10.899
54922W        W27248  44.860  12.169   2.224
54923W        W27249  34.968  35.576   1.252
54924W        W27250   8.283  26.473  11.430
54925W        W27251  21.712  44.466  11.865
54926W        W27252  37.867  13.804   0.849
54927W        W27253  29.062  34.444   3.690
54928W        W27254  27.056  38.051   2.311
54929W        W27255  12.701  39.839  13.029
54930W        W27256  36.027  34.010   5.083
54931W        W27257  10.862  31.054   2.860
54932W        W27258  14.726   6.774  14.303
54933W        W27259  18.248   5.239  10.515
54934W        W27260  29.114  30.658  10.915
54935W        W27261   6.804  29.548   0.909
54936W        W27262  36.347  28.950   5.181
54937W        W27263  23.213  15.660  11.923
54938W        W27264  37.457   5.257  14.449
54939W        W27265  32.948  34.448   2.250
54940W        W27266  16.641  43.477  14.332
54941W        W27267  11.204  37.379  14.275
54942W        W27268  11.200  22.222  11.602
54943W        W27269   3.744  22.691  11.405
54944W        W27270  42.974   4.404  10.482
54945W        W27271  20.057  13.189  10.519
54946W        W27272  43.419   4.800   0.857
54947W        W27273  40.458   3.310  10.620
54948W        W27274  32.545  33.538   2.415
54949W        W27275  37.918  19.167   0.479
54950W        W27276  11.651  26.959   3.331
54951W        W27277  25.194  37.856   4.271
54952W        W27278  32.600  37.354   4.626
54953W        W27279  32.581  16.676  14.378
54954W        W27280   2.781   2.428   4.740
54955W        W27281   0.943  12.340  10.888
54956W        W27282  41.931  43.860  12.843
54957W        W27283  23.685  22.245   0.342
54958W        W27284  36.985   8.237  12.396
54959W        W27285  10.175  36.579   2.289
54960W        W27286  43.442  14.781  10.975
54961W        W27287   8.205  18.654  11.491
54962W        W27288  36.888  42.447   1.804
54963W        W27289   6.392  11.165   0.887
54964W        W27290  37.426  40.463   2.764
54965W        W27291  13.741  41.361   2.901
54966W        W27292   5.281   5.744  11.004
54967W        W27293  15.177  14.753   0.381
54968W        W27294  20.126  34.536  13.530
54969W        W27295  31.088  15.611   2.399
54970W        W27296  11.701  31.931  13.001
54971W        W27297  43.781  13.274  12.887
54972W        W27298  24.598  39.873  10.424
54973W        W27299  21.031  15.097  12.072
54974W        W27300   9.292  10.792  12.909
54975W        W27301  41.807  40.931  11.475
54976W        W27302  38.025  26.063   0.929
54977W        W27303   3.420  16.720   2.811
54978W        W27304  29.122  35.437   2.253
54979W        W27305  35.523  42.822   1.220
54980W        W27306  20.035   8.658  13.540
54981W        W27307  39.970  11.737  14.936
54982W        W27308  25.190   0.762  11.466
54983W        W27309  28.604  10.245  14.464
54984W        W27310  36.350  23.507   2.389
54985W        W27311  43.869   4.365   4.233
54986W        W27312  17.273   0.893   0.303
54987W        W27313  31.112  11.764  14.353
54988W        W27314  29.132  14.144  11.982
54989W        W27315   0.868  15.172   4.783
54990W        W27316  20.204  21.114   2.234
54991W        W27317   3.820  10.808  11.044
54992W        W27318  30.040  39.853   1.801
54993W        W27319  13.264   6.234   3.200
54994W        W27320  28.933  36.050  14.017
54995W        W27321   8.311  26.677  10.455
54996W        W27322  37.568  36.578  12.069
54997W        W27323  30.955  12.344  14.927
54998W        W27324  15.093  35.471   1.736
54999W        W27325  30.516   7.740   0.737
55000W        W27326  19.098  26.979  12.484
55001W        W27327  38.050   1.340  11.859
55002W        W27328   7.367  20.600   1.896
55003W        W27329  20.560  27.585   1.820
55004W        W27330  21.656  43.269   2.857
55005W        W27331  33.440  25.202   2.815
55006W        W27332  44.400   9.359  10.003
55007W        W27333  24.497  14.728  14.782
55008W        W27334   7.299  14.829   4.239
55009W        W27335  38.860   7.895  13.513
55010W        W27336   6.191  31.103   0.463
55011W        W27337  20.598  11.316   2.288
55012W        W27338  43.444   6.759   2.722
55013W        W27339  28.599  22.648   0.419
55014W        W27340  34.890   6.388  10.483
55015W        W27341  33.045  24.102  13.981
55016W        W27342  17.710  22.581   2.732
55017W        W27343   8.856  42.439   2.689
55018W        W27344  36.393  11.227   4.650
55019W        W27345  34.538  11.825   3.370
55020W        W27346  36.861  18.080  12.371
55021W        W27347  16.761   5.741   2.891
55022W        W27348   0.975  33.118  12.975
55023W        W27349  10.691  16.795   3.728
55024W        W27350  37.512  20.093   0.423
55025W        W27351   1.286  23.640   3.239
55026W        W27352   5.257  12.801  10.473
55027W        W27353  40.342  15.713  14.979
55028W        W27354  22.085  21.560  10.439
55029W        W27355  42.316  36.382   2.322
55030W        W27356  33.489   9.303  14.501
55031W        W27357  43.445  37.886  13.457
55032W        W27358  36.431  39.392  13.899
55033W        W27359  30.623  26.672   4.126
55034W        W27360   4.383   2.776   3.207
55035W        W27361  22.676  17.765  13.501
55036W        W27362   1.439  24.635   2.415
55037W        W27363  29.961  11.839  14.799
55038W        W27364  10.812  12.823   1.720
55039W        W27365  29.437  32.442  12.442
55040W        W27366   0.450  26.691   2.386
55041W        W27367   7.413   9.233  12.487
55042W        W27368   2.295  25.995  11.941
55043W        W27369  39.316  34.447  10.413
55044W        W27370  34.568  11.712   1.932
55045W        W27371  16.074   6.253  11.956
55046W        W27372  30.920  13.763  10.595
55047W        W27373   5.395  25.170   4.226
55048W        W27374  22.021  36.358   0.911
55049W        W27375   7.786   5.387  13.842
55050W        W27376  36.469  25.687  13.830
55051W        W27377  20.667  12.833   4.278
55052W        W27378  43.421   7.879  10.461
55053W        W27379  37.487  15.616   3.232
55054W        W27380  21.239   9.261   0.448
55055W        W27381  22.607  27.101  13.908
55056W        W27382  44.947  37.948  12.396
55057W        W27383   9.195  42.874   0.857
55058W        W27384  28.492  29.585  14.012
55059W        W27385   6.216  41.789  12.548
55060W        W27386  41.341  34.444   4.624
55061W        W27387  34.384  22.106  14.406
55062W        W27388  22.183   1.321  11.512
55063W        W27389  39.335  26.127   3.156
55064W        W27390  41.374  31.984  11.567
55065W        W27391  30.633   0.354  14.336
55066W        W27392  10.342   2.737  12.886
55067W        W27393  25.036   1.972   0.339
55068W        W27394   7.399  40.825   0.437
55069W        W27395   3.719  38.938   2.856
55070W        W27396  18.200  11.675   4.785
55071W        W27397  15.124  38.521  13.860
55072W        W27398  31.450  28.148  12.374
55073W        W27399  33.905  17.677  14.855
55074W        W27400   4.354  29.119  11.959
55075W        W27401  36.025  41.449   2.741
55076W        W27402  12.347   5.787   0.376
55077W        W27403  11.170   9.750  14.406
55078W        W27404   8.203  29.509  10.406
55079W        W27405  41.447  28.984  13.528
55080W        W27406  15.273  19.159  14.896
55081W        W27407  43.788  33.540  11.030
55082W        W27408  40.010  31.086   0.772
55083W        W27409   5.270   2.819   2.788
55084W        W27410  31.501  40.507   4.209
55085W        W27411   9.657  34.907  13.039
55086W        W27412   1.361  17.601   4.788
55087W        W27413   4.324  35.562  12.077
55088W        W27414  33.129   0.864  13.506
55089W        W27415  25.155  22.244   3.340
55090W        W27416  43.780  13.340   1.736
55091W        W27417  10.204  11.210   4.346
55092W        W27418  18.132  24.987   0.921
55093W        W27419  34.569  25.635  11.039
55094W        W27420  15.187  19.616   3.251
55095W        W27421  20.222  40.504  13.404
55096W        W27422  38.842  31.437   3.730
55097W        W27423  20.565  38.008   1.931
55098W        W27424  24.542   6.848   3.751
55099W        W27425   6.187  13.750  14.820
55100W        W27426  34.091   6.322  10.601
55101W        W27427   5.232  29.584   3.223
55102W        W27428  38.844   5.282   3.684
55103W        W27429   3.903   9.751  13.872
55104W        W27430  31.926  24.117  13.492
55105W        W27431  24.203   9.269   0.275
55106W        W27432  30.056  24.185   3.730
55107W        W27433   9.773  19.688   2.796
55108W        W27434  10.642  10.687  13.991
55109W        W27435  17.207  44.407  12.857
55110W        W27436   0.413  44.461  13.394
55111W        W27437   5.746  41.368  12.928
55112W        W27438  26.528   0.492  11.379
55113W        W27439  31.929  34.582  14.876
55114W        W27440  29.577  34.079   3.844
55115W        W27441  30.550  24.998  13.354
55116W        W27442  15.759  40.391  14.797
55117W        W27443  17.619  42.374   3.743
55118W        W27444  10.205  17.114   3.298
55119W        W27445   6.909  30.073  14.486
55120W        W27446   7.696  24.648  12.402
55121W        W27447  42.303  41.479  10.576
55122W        W27448  41.889  28.565  13.832
55123W        W27449   5.788  10.254  12.823
55124W        W27450   2.737  39.556   4.745
55125W        W27451  38.336  28.606   2.748
55126W        W27452   4.217  41.379   2.415
55127W        W27453  33.559  22.674   5.175
55128W        W27454   5.296  44.895   0.374
55129W        W27455  23.101  17.300  12.499
55130W        W27456  23.553  36.024  14.934
55131W        W27457  41.478  37.476   1.236
55132W        W27458  41.974   9.283  14.465
55133W        W27459  10.735  14.156  12.532
55134W        W27460  21.205  27.996  10.536
55135W        W27461  40.965  39.552  12.510
55136W        W27462  42.020   9.849  11.053
55137W        W27463  15.143  10.839  13.344
55138W        W27464  11.158   6.375  11.611
55139W        W27465   5.726  17.246   0.878
55140W        W27466   0.897  19.135  10.890
55141W        W27467   3.449  32.613   4.799
55142W        W27468  18.177  43.852  12.372
55143W        W27469   5.894  15.263  14.380
55144W        W27470  29.425  30.100  14.828
55145W        W27471  42.330  44.267   4.268
55146W        W27472  18.603  39.910   4.713
55147W        W27473  30.583  16.176  14.447
55148W        W27474   2.923  24.681  14.017
55149W        W27475  36.020  20.664   2.807
55150W        W27476  38.866  22.040  11.899
55151W        W27477  25.138   0.422   0.887
55152W        W27478  44.972  31.088  13.805
55153W        W27479  24.520  17.626   0.859
55154W        W27480  10.810  21.698   3.820
55155W        W27481   2.890   4.795  12.951
55156W        W27482  26.511  33.019   2.696
55157W        W27483  37.556  32.573  14.805
55158W        W27484  15.276  25.182  13.878
55159W        W27485  13.841  44.489  11.426
55160W        W27486  15.231  44.863   3.808
55161W        W27487  40.942  13.676  13.003
55162W        W27488  34.439  13.704  13.958
55163W        W27489  16.201  28.601   0.771
55164W        W27490  37.580  22.707   1.323
55165W        W27491   4.700   2.417   2.791
55166W        W27492   6.230   3.757  11.374
55167W        W27493  16.180  35.863   0.930
55168W        W27494   4.851  33.490  12.913
55169W        W27495  32.543  13.817  14.459
55170W        W27496  22.120  10.245  11.481
55171W        W27497   4.302  44.300  12.549
55172W        W27498   4.291  10.689   1.793
55173W        W27499   2.380  42.896  11.966
55174W        W27500  41.024  30.421   3.248
55175W        W27501  42.316   9.788   0.330
55176W        W27502  10.360  35.589   1.779
55177W        W27503  22.032  28.597  12.928
55178W        W27504   5.236  22.686   0.359
55179W        W27505  15.592  35.035  13.356
55180W        W27506   7.312   8.169  14.381
55181W        W27507  21.117  25.712   0.910
55182W        W27508  42.823  23.503   2.683
55183W        W27509  21.083  33.053   0.734
55184W        W27510  16.186  44.385   1.915
55185W        W27511  24.046   2.929  12.376
55186W        W27512  22.745  33.949   9.955
55187W        W27513  12.767  26.027   9.609
55188W        W27514   4.923   6.308  11.906
55189W        W27515  19.712  10.290  14.281
55190W        W27516  11.263  25.471  14.359
55191W        W27517  31.105   6.807   3.345
55192W        W27518  32.014  39.458  11.560
55193W        W27519  36.461  23.089   4.768
55194W        W27520  12.146  39.556  14.481
55195W        W27521  32.391  24.509   1.310
55196W        W27522  16.203  33.583  11.499
55197W        W27523  15.780  26.641  12.877
55198W        W27524  18.071  31.594   4.223
55199W        W27525   2.804  35.986   1.257
55200W        W27526  30.585   0.903   2.726
55201W        W27527  31.985   6.310   1.868
55202W        W27528   2.388  43.421   0.955
55203W        W27529  24.225  20.213   1.721
55204W        W27530  41.424  29.146   1.831
55205W        W27531  33.417  32.420  14.776
55206W        W27532   7.308  29.952  11.597
55207W        W27533  13.203  12.659   4.716
55208W        W27534  35.370  40.832   4.771
55209W        W27535  42.438  16.687   1.278
55210W        W27536  20.201  10.198  14.369
55211W        W27537  40.914  39.501   1.225
55212W        W27538  32.417  18.778   4.353
55213W        W27539  44.924  37.515  11.017
55214W        W27540  27.167   9.826   4.717
55215W        W27541   2.776  17.785  11.373
55216W        W27542   0.261  31.122   4.811
55217W        W27543   8.880  27.107   3.641
55218W        W27544   3.902  41.428   4.239
55219W        W27545  10.773  13.644  10.524
55220W        W27546  37.928  10.272   1.866
55221W        W27547   4.237  38.446   2.861
55222W        W27548  15.707  34.020   4.164
55223W        W27549  36.591  19.661  14.379
55224W        W27550  10.371  41.457   0.275
55225W        W27551  20.208  26.681  13.492
55226W        W27552  25.496  32.896   4.705
55227W        W27553  16.677  21.656  10.484
55228W        W27554   7.667  30.554   0.830
55229W        W27555  18.757   4.449  11.900
55230W        W27556  28.602  34.607  11.417
55231W        W27557  43.482   0.801   2.717
55232W        W27558  13.678  31.492  13.961
55233W        W27559  20.759  24.087   4.243
55234W        W27560  42.884  41.963  10.529
55235W        W27561  39.356  27.001   2.395
55236W        W27562  38.848   7.405   0.467
55237W        W27563  25.017  44.260  10.974
55238W        W27564   7.848  10.833  11.472
55239W        W27565   3.725  16.082  14.817
55240W        W27566   2.917  42.794   3.199
55241W        W27567  29.169  27.634   4.741
55242W        W27568  36.938   8.826   3.148
55243W        W27569  43.968   1.302   0.829
55244W        W27570   7.294  41.879  13.409
55245W        W27571  22.191  21.230  10.636
55246W        W27572  33.422  10.811  10.464
55247W        W27573   6.337  14.760   4.167
55248W        W27574   5.365  22.720   2.334
55249W        W27575  19.692  29.937  11.485
55250W        W27576  20.095  32.138  14.377
55251W        W27577  21.061  26.628   1.213
55252W        W27578  39.404  11.693   0.376
55253W        W27579  26.530  13.147  10.926
55254W        W27580  18.750  16.263   1.399
55255W        W27581  12.663   3.751  10.956
55256W        W27582  25.974  30.097  12.081
55257W        W27583  21.563  10.637   0.806
55258W        W27584   4.828  22.715  14.408
55259W        W27585  31.041  28.957   2.852
55260W        W27586  25.672  12.771  12.830
55261W        W27587  23.613   4.232   1.313
55262W        W27588  22.665  33.429   0.758
55263W        W27589  22.234  42.880  11.098
55264W        W27590  31.959   0.964  11.578
55265W        W27591  35.968  35.393  10.150
55266W        W27592  18.753  17.065   4.788
55267W        W27593  13.141  44.503   0.433
55268W        W27594   9.656  19.207  11.930
55269W        W27595  20.247   5.714  13.915
55270W        W27596   4.415  12.361  10.059
55271W        W27597  32.614  27.069   1.277
55272W        W27598  42.944  12.844  10.971
55273W        W27599   6.787  39.059   0.965
55274W        W27600   3.410  14.184   3.263
55275W        W27601  25.614  28.014  13.470
55276W        W27602  11.865   4.899  12.033
55277W        W27603  27.549   6.296   4.705
55278W        W27604  27.044  30.937   0.833
55279W        W27605  44.939  41.866  10.517
55280W        W27606  42.503  13.719   0.393
55281W        W27607  42.457  24.685  11.546
55282W        W27608   7.307  21.179  13.983
55283W        W27609  39.920  14.815   3.796
55284W        W27610  31.421  14.278   3.264
55285W        W27611   9.810   3.379  10.483
55286W        W27612  33.021  17.110  14.018
55287W        W27613  39.981  11.144   1.257
55288W        W27614  11.206  14.821  11.895
55289W        W27615  35.015  38.553   4.817
55290W        W27616   8.197   9.230   3.779
55291W        W27617  17.729  42.484   4.215
55292W        W27618  30.942  41.505   0.731
55293W        W27619  14.826   6.332   3.792
55294W        W27620  35.450  37.879   0.256
55295W        W27621  30.994  19.726   9.961
55296W        W27622  12.618  39.915   0.412
55297W        W27623  32.073  36.375   2.843
55298W        W27624  26.146  30.099  13.827
55299W        W27625  42.844  38.551  12.973
55300W        W27626  22.572  34.941   5.087
55301W        W27627  30.550  31.131  11.077
55302W        W27628  12.780  14.726  14.005
55303W        W27629  25.565  34.897  13.521
55304W        W27630  10.307  44.452  13.475
55305W        W27631  12.255  33.592  11.945
55306W        W27632  42.860   4.416  13.851
55307W        W27633  38.422  15.648  11.959
55308W        W27634  29.641  17.099  12.528
55309W        W27635  35.016   7.286   1.899
55310W        W27636  43.352  43.393  10.489
55311W        W27637   9.840  21.246   1.420
55312W        W27638  34.982  25.218  11.856
55313W        W27639   1.906   0.345  11.014
55314W        W27640   9.721  30.448  14.394
55315W        W27641  20.640  37.562  13.038
55316W        W27642  23.034  41.335   2.877
55317W        W27643  30.959   2.393   1.861
55318W        W27644  22.235   2.862   1.874
55319W        W27645  27.111  21.588   0.393
55320W        W27646  20.628  15.756   2.211
55321W        W27647  11.674  21.562  14.842
55322W        W27648  19.226  20.034   2.805
55323W        W27649   3.881  13.706  13.034
55324W        W27650  14.317  26.657  12.360
55325W        W27651  31.446  32.500  12.094
55326W        W27652  13.147  37.499   1.805
55327W        W27653  35.043  43.890   1.427
55328W        W27654  37.352  43.460   3.283
55329W        W27655  42.377  24.092  13.826
55330W        W27656  10.856  27.959   2.662
55331W        W27657  36.898  42.291  11.037
55332W        W27658   5.316  25.629  13.915
55333W        W27659  19.610  30.488  13.814
55334W        W27660  26.170  29.505  11.069
55335W        W27661  39.521  44.861   4.675
55336W        W27662  12.335  43.442   4.207
55337W        W27663  29.538  11.675   0.460
55338W        W27664  28.970  18.281   3.860
55339W        W27665  38.020  21.188   4.199
55340W        W27666  20.098  39.008   4.289
55341W        W27667  12.241  37.889  11.531
55342W        W27668  37.908  32.509   1.349
55343W        W27669   7.201  17.697   4.191
55344W        W27670   3.727   4.341  14.807
55345W        W27671  40.837   0.959   2.833
55346W        W27672  16.635   3.855   1.848
55347W        W27673  39.835  36.861   2.259
55348W        W27674   7.737  31.150  13.452
55349W        W27675  11.222  25.637  14.899
55350W        W27676  12.765  24.620   1.437
55351W        W27677  18.753  14.134   4.248
55352W        W27678  37.931  39.909  12.520
55353W        W27679  32.596  43.988   1.371
55354W        W27680  30.013   1.733   2.690
55355W        W27681   8.691   8.378   1.333
55356W        W27682  35.554  36.586   0.288
55357W        W27683  42.407  40.451  13.007
55358W        W27684   2.788  10.748  10.051
55359W        W27685  16.744  43.829   2.694
55360W        W27686   7.176  16.600   4.794
55361W        W27687   6.753  29.454   1.416
55362W        W27688  10.282   6.373   2.810
55363W        W27689  29.936  13.137   3.823
55364W        W27690  31.468  21.695  12.348
55365W        W27691   2.723   2.380  10.599
55366W        W27692  40.500  24.515   2.742
55367W        W27693  16.192  41.902  14.356
55368W        W27694  22.105  12.748  14.442
55369W        W27695  44.950   2.753   2.774
55370W        W27696  24.132  28.485   1.883
55371W        W27697  18.146  26.184   0.365
55372W        W27698  21.653   6.231  11.075
55373W        W27699   5.388  34.392   1.758
55374W        W27700  17.201  24.025  14.910
55375W        W27701  25.636  42.938   0.333
55376W        W27702  40.980  27.101  13.826
55377W        W27703  37.041  29.630  10.903
55378W        W27704   2.328  10.377  12.402
55379W        W27705   6.690   0.480   1.424
55380W        W27706   7.688   6.289  12.414
55381W        W27707  10.648  31.980   3.314
55382W        W27708  10.250  20.058   5.087
55383W        W27709  25.529  35.053  10.484
55384W        W27710  44.813  27.553   1.257
55385W        W27711  17.624  31.056  14.926
55386W        W27712   6.245  33.522  14.386
55387W        W27713  14.822  22.735  13.889
55388W        W27714  39.538  25.028  11.420
55389W        W27715  20.050  24.207   0.482
55390W        W27716  15.802   4.745  11.608
55391W        W27717   4.718  43.806  14.823
55392W        W27718  24.725  38.892  13.035
55393W        W27719  43.378  40.493  12.342
55394W        W27720  24.198  30.128  11.004
55395W        W27721   9.218  33.518  10.527
55396W        W27722  38.446  27.968  11.029
55397W        W27723  20.130  35.999  12.529
55398W        W27724  34.097  17.128  10.060
55399W        W27725  22.176   6.313  11.931
55400W        W27726  14.601   9.350  12.549
55401W        W27727  26.187  42.919   1.774
55402W        W27728  12.294   6.277   0.291
55403W        W27729  13.219  28.569  12.950
55404W        W27730   5.408  13.838   0.791
55405W        W27731  15.656  14.678   3.671
55406W        W27732  41.977  25.182  14.929
55407W        W27733  11.177  29.132  12.433
55408W        W27734   3.448  44.814  13.423
55409W        W27735   1.415  17.142   1.716
55410W        W27736  44.337  34.507   0.938
55411W        W27737  27.459   9.283  10.624
55412W        W27738  12.327  34.088  12.992
55413W        W27739  34.445  32.927   4.758
55414W        W27740  20.678   2.729  10.602
55415W        W27741  42.021  16.080  12.398
55416W        W27742  39.468   9.230  10.997
55417W        W27743  22.062  44.346  14.944
55418W        W27744   1.832  34.513  14.884
55419W        W27745  24.634   8.842   0.963
55420W        W27746  21.063  44.489   0.905
55421W        W27747  14.098  13.613   2.749
55422W        W27748  19.114  32.460   0.263
55423W        W27749   6.324   4.298   1.405
55424W        W27750  20.080  44.009  12.867
55425W        W27751  22.514  37.054   3.171
55426W        W27752  43.811   3.409   2.679
55427W        W27753  38.852  10.805   2.884
55428W        W27754  25.179  11.806   1.794
55429W        W27755   7.252  29.948  12.985
55430W        W27756  44.351  22.127  13.445
55431W        W27757  28.600  34.896   3.212
55432W        W27758  15.124  19.558  11.448
55433W        W27759  12.834  31.021   0.269
55434W        W27760  26.670  28.527  13.014
55435W        W27761  16.270  18.193  11.413
55436W        W27762  33.500  30.542  14.960
55437W        W27763  30.097  38.845   1.233
55438W        W27764   9.348  44.273  13.319
55439W        W27765  29.648  38.897  10.124
55440W        W27766  10.728   4.388   4.124
55441W        W27767  13.146  18.135   4.274
55442W        W27768   8.340  14.273   3.319
55443W        W27769  39.433  22.553  10.580
55444W        W27770  18.749   0.806   3.768
55445W        W27771  17.659   5.221  14.312
55446W        W27772  11.316  29.117   0.349
55447W        W27773  35.416  15.253  10.416
55448W        W27774   4.915  26.599   1.821
55449W        W27775  23.596  33.991   1.883
55450W        W27776  25.149   2.415  13.052
55451W        W27777   3.275  33.025   4.675
55452W        W27778  17.714  42.331   4.773
55453W        W27779   2.771  27.470   0.421
55454W        W27780  15.160   5.293   3.171
55455W        W27781  39.961  32.498   0.813
55456W        W27782  36.990  17.216  14.435
55457W        W27783  14.726   9.230   1.312
55458W        W27784  16.584  13.680   2.222
55459W        W27785  14.770   1.800  10.070
55460W        W27786   8.679  36.084  11.018
55461W        W27787   3.758  14.310  14.866
55462W        W27788  34.531  20.543  12.835
55463W        W27789  31.921   6.218  11.129
55464W        W27790  38.996  39.916   9.924
55465W        W27791  19.635  12.274  11.103
55466W        W27792  26.117  37.448   1.778
55467W        W27793   2.332  17.185   2.802
55468W        W27794   3.737  43.449  10.612
55469W        W27795  32.567  19.576  14.316
55470W        W27796  35.442   9.174   0.890
55471W        W27797   8.694  29.669  12.973
55472W        W27798  40.390   6.306   3.802
55473W        W27799   9.691  37.864   1.723
55474W        W27800  23.501   2.753   0.391
55475W        W27801  17.660  20.749   4.205
55476W        W27802  25.472   5.763  14.284
55477W        W27803  24.174  39.364  11.570
55478W        W27804  27.181  43.781   4.193
55479W        W27805   7.215  11.832  11.449
55480W        W27806  20.637  36.061   3.763
55481W        W27807  26.504  25.561   1.282
55482W        W27808  23.203  38.009   3.348
55483W        W27809  42.422  19.148  11.007
55484W        W27810  12.799  26.546  11.100
55485W        W27811  26.658  42.387   4.640
55486W        W27812  33.389  15.094  14.296
55487W        W27813  29.931  44.392   0.436
55488W        W27814  44.289  14.336  14.761
55489W        W27815  19.592  14.729   1.814
55490W        W27816  10.693  11.736   4.651
55491W        W27817   1.442  16.116   2.828
55492W        W27818  18.078  14.119   0.801
55493W        W27819  17.064  21.157  13.514
55494W        W27820   4.718  44.863  14.891
55495W        W27821   3.324  32.601   2.885
55496W        W27822  33.385  33.402   2.770
55497W        W27823  25.559  15.228  12.032
55498W        W27824  25.553  21.540   4.654
55499W        W27825  10.704  38.980  12.436
55500W        W27826  15.821  10.845   4.114
55501W        W27827   1.394  41.920  14.293
55502W        W27828  33.112  35.479   1.772
55503W        W27829  28.455  20.116   0.438
55504W        W27830  21.514  29.143  11.090
55505W        W27831  22.601  29.036   2.786
55506W        W27832  20.234  21.049  14.504
55507W        W27833   3.301  44.377   5.251
55508W        W27834   8.897  30.117   0.765
55509W        W27835  28.665  32.076   1.737
55510W        W27836  13.797  28.515   0.955
55511W        W27837  41.368  30.976  14.927
55512W        W27838  23.229   1.464  12.969
55513W        W27839  39.837  34.072   1.231
55514W        W27840   6.798  19.200   1.239
55515W        W27841  37.463  17.566   4.203
55516W        W27842  10.753  29.948   0.363
55517W        W27843  30.130  28.603  12.079
55518W        W27844   7.371  13.774   3.832
55519W        W27845  24.529  29.561  10.531
55520W        W27846  24.978  40.835  14.312
55521W        W27847  19.754  25.590  14.943
55522W        W27848  13.292  24.583  10.934
55523W        W27849   5.339  34.878  11.565
55524W        W27850   6.350   6.270  10.546
55525W        W27851  21.687   2.947  12.982
55526W        W27852   9.735  26.004   0.908
55527W        W27853  28.518  26.074   0.246
55528W        W27854  38.913   3.398  14.802
55529W        W27855  43.939  35.885   1.726
55530W        W27856   9.363  12.759   5.302
55531W        W27857  17.256   7.387  12.955
55532W        W27858  24.541  38.365  13.475
55533W        W27859  10.141  27.147  10.581
55534W        W27860  38.031  30.137   3.314
55535W        W27861   1.842   3.367   5.318
55536W        W27862  29.440   6.334  12.483
55537W        W27863  17.222  33.001  12.078
55538W        W27864  14.598  44.893   2.248
55539W        W27865  24.188  25.531   2.849
55540W        W27866  23.668  20.702   2.749
55541W        W27867  21.616   5.732   3.671
55542W        W27868  30.519  33.496  14.294
55543W        W27869  33.057  29.620   3.638
55544W        W27870   5.424  30.055   3.715
55545W        W27871  23.532   9.683  11.008
55546W        W27872  32.433  25.989  14.307
55547W        W27873  35.385  12.672  14.812
55548W        W27874  10.672  19.764   1.398
55549W        W27875  18.653  31.107   0.902
55550W        W27876  32.425  22.078   2.812
55551W        W27877  17.148  30.993   3.682
55552W        W27878  22.065   1.847   1.870
55553W        W27879  24.667  32.065   0.402
55554W        W27880  12.251   2.395   2.333
55555W        W27881  29.485   7.401  10.573
55556W        W27882  25.029  40.399  10.968
55557W        W27883   7.404  34.120   3.819
55558W        W27884   0.429  29.043  13.923
55559W        W27885  38.567  43.835  11.086
55560W        W27886  17.653  15.662  11.513
55561W        W27887   2.851  39.916   1.731
55562W        W27888   5.423  19.767  12.473
55563W        W27889   6.700   7.346   3.828
55564W        W27890  22.680  41.413   2.821
55565W        W27891  34.864   2.255   4.263
55566W        W27892  17.754   0.260   1.354
55567W        W27893  41.411  28.591  11.977
55568W        W27894  25.165   6.198   0.860
55569W        W27895  38.426  11.143   2.703
55570W        W27896  29.152  33.509  12.850
55571W        W27897  35.483  16.648  12.437
55572W        W27898  25.220   2.320  14.955
55573W        W27899   1.800  10.314   5.207
55574W        W27900   2.925  33.455  10.470
55575W        W27901  25.994   9.341   0.428
55576W        W27902  25.713  10.371  13.853
55577W        W27903  26.487  13.117   4.347
55578W        W27904  43.001  32.481  14.954
55579W        W27905  23.679  40.479   1.442
55580W        W27906  28.142  34.968  14.951
55581W        W27907  22.138  38.349   1.262
55582W        W27908  37.424  33.467  14.371
55583W        W27909   8.299  13.310   2.768
55584W        W27910  13.288  19.050   0.283
55585W        W27911   5.810  10.229   0.277
55586W        W27912  34.042  44.496   0.427
55587W        W27913  27.541   9.178   0.280
55588W        W27914  29.987  19.637  12.950
55589W        W27915   1.951  20.592  10.009
55590W        W27916  42.910  26.105   0.337
55591W        W27917   5.901  31.044   2.830
55592W        W27918  36.501  41.935  13.470
55593W        W27919  23.715  44.953  14.828
55594W        W27920  11.627   8.372  10.576
55595W        W27921  26.598  15.222   2.783
55596W        W27922   8.235  44.328   1.898
55597W        W27923  36.005  21.165  11.392
55598W        W27924   4.433  38.826   0.264
55599W        W27925   2.866  29.164   1.927
55600W        W27926  30.080  26.600   2.827
55601W        W27927  23.068  19.198  13.935
55602W        W27928  28.466  41.318  14.512
55603W        W27929  18.728  19.564   2.661
55604W        W27930   8.891  29.094   3.662
55605W        W27931  25.153  42.801  14.438
55606W        W27932  31.963  21.078   0.790
55607W        W27933  26.137  37.513  14.379
55608W        W27934  19.716  13.837   4.118
55609W        W27935  39.043   6.421  14.386
55610W        W27936  34.099  15.254   0.913
55611W        W27937   4.420  15.804  11.966
55612W        W27938  36.026  36.977  14.762
55613W        W27939  28.170  35.484  10.082
55614W        W27940  14.792  23.730  10.587
55615W        W27941  39.535   4.772  14.887
55616W        W27942  42.386  43.004  14.840
55617W        W27943  26.182  22.057   1.220
55618W        W27944  19.664  35.563  11.550
55619W        W27945   3.714  28.956  14.759
55620W        W27946  28.579  10.696   1.791
55621W        W27947  32.932  41.844  10.991
55622W        W27948  29.458  26.189  13.309
55623W        W27949  33.102   9.294  12.845
55624W        W27950  34.368  41.882  12.981
55625W        W27951  31.490  20.250   0.304
55626W        W27952   1.819   6.202  12.553
55627W        W27953  43.931  32.409   4.751
55628W        W27954  15.282   1.267  13.439
55629W        W27955  26.578  15.698  14.313
55630W        W27956   3.851  27.982   3.711
55631W        W27957  28.102  32.395   4.774
55632W        W27958   1.925  10.767  12.042
55633W        W27959  43.490  36.579   2.837
55634W        W27960  40.890  39.432   3.273
55635W        W27961  16.095  33.524   1.370
55636W        W27962  39.810   8.769  12.462
55637W        W27963   5.769   0.288  12.365
55638W        W27964  27.168  10.299  13.325
55639W        W27965  13.272   0.451   1.738
55640W        W27966  34.023   0.377   4.233
55641W        W27967  42.513  17.673   3.767
55642W        W27968  38.029   8.308   0.252
55643W        W27969  12.703   6.342  14.841
55644W        W27970   2.389   7.176  13.829
55645W        W27971   8.406  38.566  13.444
55646W        W27972  22.523  38.345  14.404
55647W        W27973  26.678  38.020   5.265
55648W        W27974  43.840  22.711   3.782
55649W        W27975  36.363  22.049  12.073
55650W        W27976  40.959  18.577   0.254
55651W        W27977  10.354   5.892   3.318
55652W        W27978   3.823  31.503   2.319
55653W        W27979  32.619  44.293   3.236
55654W        W27980  13.723  17.700  10.979
55655W        W27981   5.771  28.074  11.918
55656W        W27982  21.758   2.805  13.374
55657W        W27983  11.211  13.609  12.832
55658W        W27984  26.550  29.934   0.775
55659W        W27985  26.148  23.168  13.336
55660W        W27986  15.156  41.340   3.295
55661W        W27987  33.484  21.020  12.081
55662W        W27988   6.806  37.072   4.789
55663W        W27989  41.026  42.516   1.326
55664W        W27990  34.924  14.772   3.189
55665W        W27991  12.173   3.775  13.359
55666W        W27992   3.314  23.539  13.509
55667W        W27993  15.276   8.713   0.359
55668W        W27994   0.485  14.189  14.807
55669W        W27995  31.142  26.540  12.947
55670W        W27996  17.664  35.870   1.777
55671W        W27997  17.736  24.051  10.429
55672W        W27998  12.131  19.621  14.864
55673W        W27999  23.068   3.738   1.291
55674W        W28000  31.091  15.130   2.244
55675W        W28001  13.665   3.910  14.485
55676W        W28002   9.237   1.248  14.919
55677W        W28003  26.088  25.140  14.769
55678W        W28004  36.358  19.245  12.005
55679W        W28005   6.387  18.076  12.882
55680W        W28006   9.338  19.248   3.366
55681W        W28007  15.284  43.896  10.479
55682W        W28008  32.464  29.490   1.312
55683W        W28009   4.279  14.172  10.479
55684W        W28010  13.220  26.951   2.196
55685W        W28011  14.610  35.042  12.919
55686W        W28012  36.863  38.375   2.192
55687W        W28013  10.312   9.704   4.725
55688W        W28014  19.161  10.655  13.312
55689W        W28015  12.818   5.345   4.830
55690W        W28016   8.862  27.604  11.867
55691W        W28017  37.349  24.143   2.364
55692W        W28018  22.146  29.666  11.943
55693W        W28019  18.653   6.392   0.279
55694W        W28020  24.548  43.013   1.232
55695W        W28021  42.413  44.458  10.066
55696W        W28022  38.379  17.112   1.341
55697W        W28023  44.480  42.432  13.409
55698W        W28024  17.097  38.910   5.177
55699W        W28025  27.037  12.726  12.049
55700W        W28026  13.602  39.367   3.299
55701W        W28027  34.084  34.480  14.309
55702W        W28028  36.865  26.134   1.275
55703W        W28029  17.617  43.389  12.939
55704W        W28030  43.846  28.563   0.900
55705W        W28031  40.396  35.924  14.017
55706W        W28032  11.328  30.436   4.777
55707W        W28033  39.426  31.126  10.951
55708W        W28034   6.313  29.508  13.917
55709W        W28035  12.748  25.036  14.783
55710W        W28036  41.364   0.909   4.684
55711W        W28037   1.438  17.076   4.686
55712W        W28038  14.196  19.688   1.933
55713W        W28039  23.563  16.111  12.966
55714W        W28040  27.593  33.614  10.910
55715W        W28041  31.939  35.031   3.681
55716W        W28042   8.846   3.786  11.419
55717W        W28043  26.543   0.428   4.353
55718W        W28044  42.366  17.293   3.681
55719W        W28045  12.195  14.748  13.523
55720W        W28046  34.026  36.952  11.992
55721W        W28047  27.052  19.595   3.737
55722W        W28048  19.689  28.643   3.700
55723W        W28049  17.134  22.686  14.318
55724W        W28050  31.494  37.851   0.477
55725W        W28051  12.640  21.138   2.367
55726W        W28052  11.714   7.325   2.765
55727W        W28053  44.414  38.328   0.907
55728W        W28054   1.441  32.979  11.055
55729W        W28055  42.510  32.950   0.263
55730W        W28056  18.137  29.102  14.350
55731W        W28057  27.065  38.852  10.032
55732W        W28058  10.197  44.983   1.446
55733W        W28059  40.863  41.959  11.533
55734W        W28060  26.579  39.965  14.478
55735W        W28061   9.385   3.846  13.975
55736W        W28062   0.985  40.363   1.773
55737W        W28063  21.732  23.525  13.453
55738W        W28064  24.501  11.682  11.859
55739W        W28065   6.873  28.499  10.466
55740W        W28066  32.089  38.333   2.695
55741W        W28067   0.749  35.521  11.876
55742W        W28068  13.283  42.792   9.976
55743W        W28069  39.343  25.000  12.833
55744W        W28070  30.104  33.922  14.877
55745W        W28071  28.487  13.223  11.939
55746W        W28072  14.749  19.617   0.482
55747W        W28073  36.895   1.371  13.496
55748W        W28074   8.224   9.756  10.596
55749W        W28075  35.966  32.077   4.700
55750W        W28076  24.497  37.026   1.277
55751W        W28077  12.697  25.204  12.409
55752W        W28078   5.251  20.136  14.808
55753W        W28079   9.761  30.072   4.241
55754W        W28080  34.096   7.174  12.535
55755W        W28081  11.185  37.066  12.843
55756W        W28082  34.388  23.601  12.974
55757W        W28083  28.988  10.214  11.990
55758W        W28084  28.963   7.301  14.930
55759W        W28085  34.454  38.842   2.839
55760W        W28086   2.340   0.858   0.805
55761W        W28087  39.315  18.750   2.256
55762W        W28088  18.067  37.536   2.851
55763W        W28089  17.668  18.051  13.933
55764W        W28090  39.012   9.385   4.134
55765W        W28091  38.074  26.054   2.292
55766W        W28092  26.973  16.757   3.640
55767W        W28093   7.416  24.041   1.791
55768W        W28094  26.142  15.737   0.799
55769W        W28095  44.888   6.912  12.578
55770W        W28096  34.467  22.508  10.913
55771W        W28097   5.429  16.722  13.913
55772W        W28098  37.547   2.770  12.064
55773W        W28099  42.327  30.530   1.247
55774W        W28100  43.439  13.713  12.035
55775W        W28101  25.971  40.832   3.231
55776W        W28102  40.930  24.638   1.349
55777W        W28103  30.424  23.627  12.344
55778W        W28104  38.446   3.890  11.598
55779W        W28105  15.739  13.617  14.876
55780W        W28106  33.494  23.660  13.997
55781W        W28107   1.357  37.939  12.907
55782W        W28108  26.167   7.317  11.991
55783W        W28109  37.544   5.842   3.151
55784W        W28110  17.193  12.719  14.501
55785W        W28111  44.829   5.200  13.869
55786W        W28112  44.885  42.836   4.332
55787W        W28113   2.938  21.637  11.870
55788W        W28114  31.923   5.439  14.455
55789W        W28115  35.966  12.248   2.773
55790W        W28116  44.779  29.161  13.331
55791W        W28117  18.050  25.701  14.973
55792W        W28118  36.583  13.211  14.484
55793W        W28119  20.235  41.478  11.928
55794W        W28120  31.550  10.244   3.797
55795W        W28121  28.591  37.552   3.301
55796W        W28122  38.848  32.428  10.530
55797W        W28123   6.376  29.651  13.475
55798W        W28124   8.692  11.803   2.352
55799W        W28125   1.752   6.188   1.858
55800W        W28126  42.372  42.017  13.992
55801W        W28127  40.393  39.025   5.220
55802W        W28128  20.655  19.627   0.380
55803W        W28129  33.938  26.480   3.257
55804W        W28130  27.681   8.729  14.420
55805W        W28131  38.328   8.681  11.895
55806W        W28132  19.283   1.964   2.299
55807W        W28133  22.239  25.508   4.818
55808W        W28134  38.951  37.415  12.455
55809W        W28135  39.426  33.563   1.727
55810W        W28136  20.661  37.522   3.153
55811W        W28137  31.603   2.448  13.941
55812W        W28138  44.939  43.410   3.870
55813W        W28139  31.436  37.084   3.163
55814W        W28140   8.828  38.516  10.507
55815W        W28141   4.748  26.122   0.777
55816W        W28142   2.355  38.864  10.896
55817W        W28143  44.454  14.758  11.032
55818W        W28144  44.864  27.135   2.363
55819W        W28145  14.745  35.895   5.206
55820W        W28146  44.483  12.168  12.064
55821W        W28147  30.565   9.689  12.952
55822W        W28148  22.699  21.644   3.278
55823W        W28149  10.302  21.125  10.411
55824W        W28150   6.299  37.344   1.411
55825W        W28151   3.293   1.927  14.457
55826W        W28152   3.391  14.600  12.858
55827W        W28153   3.350   4.283   4.782
55828W        W28154  38.005   1.305   2.704
55829W        W28155  36.568  43.873  11.427
55830W        W28156  36.893  25.216  13.963
55831W        W28157  27.672   4.941  10.589
55832W        W28158  22.075  23.160   2.665
55833W        W28159  29.662   4.212  12.877
55834W        W28160   0.746   4.782   0.755
55835W        W28161   5.424   4.754   3.263
55836W        W28162   8.812   5.822  10.639
55837W        W28163   1.303  22.113   2.830
55838W        W28164  39.441  23.703  12.857
55839W        W28165   6.204   3.915   2.694
55840W        W28166  34.866   9.715   2.300
55841W        W28167  42.489  15.239   2.301
55842W        W28168  38.361  23.184  14.841
55843W        W28169  30.573  20.257  11.427
55844W        W28170   2.893  44.776  14.816
55845W        W28171  21.174  41.531   1.269
55846W        W28172  31.996  25.163  14.995
55847W        W28173  24.119  27.478  12.932
55848W        W28174  24.503  22.564  14.351
55849W        W28175  38.535  32.630  10.575
55850W        W28176  33.891  41.490   1.448
55851W        W28177   9.371  13.752   0.788
55852W        W28178   9.701  10.301   3.836
55853W        W28179  38.013   3.221   0.348
55854W        W28180  44.391  29.026  13.316
55855W        W28181  19.109  39.915   1.815
55856W        W28182  17.181   9.168  13.397
55857W        W28183  24.693  44.409   2.671
55858W        W28184  35.370  17.180  14.961
55859W        W28185   4.707  42.434   3.645
55860W        W28186  33.879  38.051  11.510
55861W        W28187  29.580   0.282   2.197
55862W        W28188  41.825   8.693  12.550
55863W        W28189  12.683  19.642   3.784
55864W        W28190  21.634  25.090   2.753
55865W        W28191   9.810   7.765  12.499
55866W        W28192  42.496  16.235  11.516
55867W        W28193  16.304   8.317  13.520
55868W        W28194  32.132  23.569  14.846
55869W        W28195  21.702  29.546  11.987
55870W        W28196   2.893  13.797   1.399
55871W        W28197  16.655  19.553   3.677
55872W        W28198   9.716  42.300  10.964
55873W        W28199  19.755  14.142   2.228
55874W        W28200   2.734   9.838   3.749
55875W        W28201  26.977  27.080  11.068
55876W        W28202  34.103  43.383  13.793
55877W        W28203   3.398   1.260  14.971
55878W        W28204  11.624   2.446   2.203
55879W        W28205   4.225  36.429   3.632
55880W        W28206   2.245  39.377  13.047
55881W        W28207  34.498  11.298   1.338
55882W        W28208  14.226  22.511   2.875
55883W        W28209  32.430  31.525   2.745
55884W        W28210  28.519   2.243  13.502
55885W        W28211  29.975  13.275  13.402
55886W        W28212  15.638  40.875   1.934
55887W        W28213  34.596  41.811   4.337
55888W        W28214  41.341   1.258   1.850
55889W        W28215  38.325  37.511  11.478
55890W        W28216  30.418  39.000   0.280
55891W        W28217  24.646  44.338   4.298
55892W        W28218  41.433  24.061  13.949
55893W        W28219  10.325   1.955   9.981
55894W        W28220  26.103   6.201   2.677
55895W        W28221  32.527  13.739  12.873
55896W        W28222  25.195   5.864  14.311
55897W        W28223  31.053   6.823   1.804
55898W        W28224  27.171   8.683   3.340
55899W        W28225   6.789  10.632   3.857
55900W        W28226   9.212  19.571  10.439
55901W        W28227  28.048  12.231  13.968
55902W        W28228  15.137  13.162  13.982
55903W        W28229   6.186  21.071   3.377
55904W        W28230  40.393   6.417   0.899
55905W        W28231   5.426  15.087  11.486
55906W        W28232  42.953  44.338  13.993
55907W        W28233  35.968  34.012   0.293
55908W        W28234  35.980   9.858  12.858
55909W        W28235   7.804  37.498   1.444
55910W        W28236   9.152   6.319  12.526
55911W        W28237  20.608  21.118  12.982
55912W        W28238  27.551  41.399  14.440
55913W        W28239  41.449  20.582  14.844
55914W        W28240  23.047  16.658   5.207
55915W        W28241  43.273   6.182  13.490
55916W        W28242  18.654  33.020   0.859
55917W        W28243  22.036  35.923  11.466
55918W        W28244  26.584  17.175  12.409
55919W        W28245  39.410   0.382  13.010
55920W        W28246  44.006  24.204  11.024
55921W        W28247   4.791   3.389   1.736
55922W        W28248  31.125   7.349   3.682
55923W        W28249  17.190  19.545  11.987
55924W        W28250  15.091  28.185  11.030
55925W        W28251  41.896  23.667  10.098
55926W        W28252  32.112  19.598  10.120
55927W        W28253   2.763  12.207  12.024
55928W        W28254  14.628  31.518  12.973
55929W        W28255  41.304  40.494  14.442
55930W        W28256  19.266  17.239   2.362
55931W        W28257  38.006  16.081  10.479
55932W        W28258  40.037   1.867   2.385
55933W        W28259  12.710   2.247   0.318
55934W        W28260   3.771  17.728  12.931
55935W        W28261  35.978  18.054   0.264
55936W        W28262  33.506  36.980  14.789
55937W        W28263  44.910  29.100  13.926
55938W        W28264  29.144  21.572   3.749
55939W        W28265  25.963  42.838  10.613
55940W        W28266  26.671   4.449  12.832
55941W        W28267  25.664   8.769  13.415
55942W        W28268  14.232  18.145   1.878
55943W        W28269  28.122  35.563  10.984
55944W        W28270   5.723   3.404  11.535
55945W        W28271  30.493  36.972  14.800
55946W        W28272  12.348  35.410   1.394
55947W        W28273  42.411  30.064   4.705
55948W        W28274  15.790  12.725  10.121
55949W        W28275  32.467  40.036  11.104
55950W        W28276  31.110  25.632   1.795
55951W        W28277   5.368  14.806   4.266
55952W        W28278  27.021  24.624   4.650
55953W        W28279  28.991   6.900  10.635
55954W        W28280  21.220  31.587   3.345
55955W        W28281  22.114   0.361  12.096
55956W        W28282  20.540  44.899   3.742
55957W        W28283   4.866  11.680  14.403
55958W        W28284   5.701  25.646   4.206
55959W        W28285  44.809  43.926   1.729
55960W        W28286  43.375  33.908  11.993
55961W        W28287  43.777   3.776   4.340
55962W        W28288   1.806  32.516  10.467
55963W        W28289  29.154   3.306   4.603
55964W        W28290  17.260  16.222  12.845
55965W        W28291  39.426  22.641   1.345
55966W        W28292  20.588  23.492  10.469
55967W        W28293  43.981  26.703   1.764
55968W        W28294   1.471  41.816   3.170
55969W        W28295  25.121  14.236   4.665
55970W        W28296  17.285  25.582   1.880
55971W        W28297   7.848  31.506   2.416
55972W        W28298  10.206  21.241   2.272
55973W        W28299  21.637   6.893   1.253
55974W        W28300  31.906  14.635   4.224
55975W        W28301  33.100  27.080  12.846
55976W        W28302  30.474  25.181   1.437
55977W        W28303  29.625  15.302   2.699
55978W        W28304   9.791  24.224  12.509
55979W        W28305  24.503   3.297   2.774
55980W        W28306  12.360  24.575   0.287
55981W        W28307  28.152  41.795  12.425
55982W        W28308  19.722  17.722   4.805
55983W        W28309  31.994   2.846   3.208
55984W        W28310  44.471  11.238  10.902
55985W        W28311  29.622   4.793  12.834
55986W        W28312  37.949   3.266   4.609
55987W        W28313  39.353  25.509  14.012
55988W        W28314  33.027  19.764  10.464
55989W        W28315  11.170  10.720  13.440
55990W        W28316  25.062  24.576  13.337
55991W        W28317  20.211  17.801   2.690
55992W        W28318  15.590  18.083   0.245
55993W        W28319  24.027   0.871   4.168
55994W        W28320  38.066  20.163  12.473
55995W        W28321  30.609  11.827   1.210
55996W        W28322  14.686  37.344  13.857
55997W        W28323   3.786  20.741   2.396
55998W        W28324  27.137   0.295   0.934
55999W        W28325   7.788  18.196  12.488
56000W        W28326   5.419   9.677  13.513
56001W        W28327  14.794  15.129   1.781
56002W        W28328   9.756  20.661  14.469
56003W        W28329  36.530  40.319   0.938
56004W        W28330  22.543  38.029   1.935
56005W        W28331   0.425  18.085  11.872
56006W        W28332  21.526  34.379   3.302
56007W        W28333   8.188  23.516  12.412
56008W        W28334  29.978  10.700   4.827
56009W        W28335   7.848   9.328  13.434
56010W        W28336  14.680  31.127  11.968
56011W        W28337  19.759  34.478   1.435
56012W        W28338  27.997  14.693  11.994
56013W        W28339  41.477  40.416   4.816
56014W        W28340  38.480   5.889  11.577
56015W        W28341  43.885  20.714   4.809
56016W        W28342   9.298  27.489  12.342
56017W        W28343   4.367  42.351   0.390
56018W        W28344  20.669  24.608  14.393
56019W        W28345  10.632   0.416   4.292
56020W        W28346   2.266   1.925  14.932
56021W        W28347   3.288   3.792   3.299
56022W        W28348  32.589   0.765   9.934
56023W        W28349   7.723  38.431   4.703
56024W        W28350  23.231  17.773   5.138
56025W        W28351   5.285   2.959  11.381
56026W        W28352  20.588   4.349  11.382
56027W        W28353  27.459   7.282  12.456
56028W        W28354  23.093  24.060  12.830
56029W        W28355  12.852  23.561   0.373
56030W        W28356  21.556  37.500   2.692
56031W        W28357  30.033  24.169   1.324
56032W        W28358  36.561  12.746  10.916
56033W        W28359   7.276  27.685  13.885
56034W        W28360  10.794  25.979  12.378
56035W        W28361  15.265  32.069   2.730
56036W        W28362  29.122  25.693  10.576
56037W        W28363  43.383   9.251  10.489
56038W        W28364  17.646  35.468  13.544
56039W        W28365  33.536   5.271  11.876
56040W        W28366  44.923  37.363  12.883
56041W        W28367  31.030  20.207  13.433
56042W        W28368  37.469  11.830   3.808
56043W        W28369   6.866  15.603   0.450
56044W        W28370  42.916  23.502  14.793
56045W        W28371  13.322  33.888   3.263
56046W        W28372   5.871  27.659   3.319
56047W        W28373   5.741   6.260  10.417
56048W        W28374  40.540  16.151   0.362
56049W        W28375  35.598  32.022   3.191
56050W        W28376   9.286  20.575  13.865
56051W        W28377  38.034  15.268  14.488
56052W        W28378  29.041  22.044  11.589
56053W        W28379  44.484  29.465   5.270
56054W        W28380  32.487   6.807  12.344
56055W        W28381  15.156   4.821   2.724
56056W        W28382  29.529  33.937  11.934
56057W        W28383  37.025  38.023   0.946
56058W        W28384   8.358   0.843   4.618
56059W        W28385   2.903  32.522  10.919
56060W        W28386  11.260  34.053   2.279
56061W        W28387  22.148   7.238   0.757
56062W        W28388  28.566  25.549   3.343
56063W        W28389  10.203  40.936   2.788
56064W        W28390  38.563  22.620  13.496
56065W        W28391   3.329   4.431  12.434
56066W        W28392   8.205  40.355   0.398
56067W        W28393  43.956   6.203   0.456
56068W        W28394  25.575  10.255   1.910
56069W        W28395  10.783  37.840   2.254
56070W        W28396  10.754  36.953   2.790
56071W        W28397  21.079  12.333   0.943
56072W        W28398  30.991  16.767   3.769
56073W        W28399  10.258  40.494  11.459
56074W        W28400  38.469  35.084   1.324
56075W        W28401  15.821  22.585  11.597
56076W        W28402  38.519  34.046   4.145
56077W        W28403  28.078  43.480  10.465
56078W        W28404  15.766  20.554  13.390
56079W        W28405   6.746  27.110   1.748
56080W        W28406  42.948  39.965   1.767
56081W        W28407  19.699  29.148   2.180
56082W        W28408   6.758  29.101  14.440
56083W        W28409  30.981  13.185   1.839
56084W        W28410  42.934  26.080   3.767
56085W        W28411  14.179  15.162   0.376
56086W        W28412  44.931  23.144   1.697
56087W        W28413  42.943  32.023   4.269
56088W        W28414   9.236  31.016   2.269
56089W        W28415  29.140  29.122  10.908
56090W        W28416  29.056   7.347   0.742
56091W        W28417  14.233  19.730   3.739
56092W        W28418   8.241  30.093   1.423
56093W        W28419   9.210   5.239   3.275
56094W        W28420  11.178  23.727   1.250
56095W        W28421  44.448  31.071   4.741
56096W        W28422   9.196  43.343   2.202
56097W        W28423  15.713  39.045   0.927
56098W        W28424   3.929  31.951  10.559
56099W        W28425   0.465  36.389  14.478
56100W        W28426  23.153  29.652  10.412
56101W        W28427   7.778  32.586  12.509
56102W        W28428  39.828  33.614   2.741
56103W        W28429  39.556  21.175   4.203
56104W        W28430  14.112  20.568  14.309
56105W        W28431  33.947  14.121   3.182
56106W        W28432   4.826  32.134  12.521
56107W        W28433  25.162  33.537  11.558
56108W        W28434   0.297  25.135   1.782
56109W        W28435  33.555  31.095   3.802
56110W        W28436   2.252  34.984  14.988
56111W        W28437  13.731  27.503  12.024
56112W        W28438  29.469  20.243   3.732
56113W        W28439  26.026  32.089  13.423
56114W        W28440  23.638  15.720   2.183
56115W        W28441   8.392  42.829   2.211
56116W        W28442   0.958  24.509   0.914
56117W        W28443   3.803  13.225  13.419
56118W        W28444  37.398   4.802   2.733
56119W        W28445  27.580  23.107  12.542
56120W        W28446  37.431  41.479   2.218
56121W        W28447  10.195  10.200   0.952
56122W        W28448  25.599  31.908  14.950
56123W        W28449  41.924  31.148   2.180
56124W        W28450  15.228   4.915   2.253
56125W        W28451  34.577  37.552  14.375
56126W        W28452   2.770  20.174   4.256
56127W        W28453   3.405  21.062   3.272
56128W        W28454  16.578   3.412   1.448
56129W        W28455   9.264  32.626   4.210
56130W        W28456  27.002  19.200   2.883
56131W        W28457  25.695   5.758  11.603
56132W        W28458  42.439  37.046  12.505
56133W        W28459  25.043  15.690   4.736
56134W        W28460  20.067  10.666   2.402
56135W        W28461  11.740  16.300  12.566
56136W        W28462   7.796   1.376  12.410
56137W        W28463  23.635  44.801  12.076
56138W        W28464  23.045  20.195  14.992
56139W        W28465  40.305  28.561   3.244
56140W        W28466  30.073   7.397  14.830
56141W        W28467  41.387  33.127   4.636
56142W        W28468  32.027  32.969   4.217
56143W        W28469   3.907  24.154   3.299
56144W        W28470  42.944  41.439  10.991
56145W        W28471  18.093   1.468   4.126
56146W        W28472  22.560  10.297  13.957
56147W        W28473  21.055  43.315   2.662
56148W        W28474   4.884  35.102  14.025
56149W        W28475   4.255  22.604   5.170
56150W        W28476  18.651  36.069  13.483
56151W        W28477   2.452  10.364  11.454
56152W        W28478   3.833  21.100  11.008
56153W        W28479  39.045   4.279   1.255
56154W        W28480  35.430  17.281  12.894
56155W        W28481  41.447  31.438   4.644
56156W        W28482   8.169  26.605  12.529
56157W        W28483  11.812   4.379   1.320
56158W        W28484   3.762  34.494   3.175
56159W        W28485  43.277   5.771   1.315
56160W        W28486  33.503  34.112  12.963
56161W        W28487  41.367  18.109  14.829
56162W        W28488  34.443  21.681   2.213
56163W        W28489  38.001  20.270   2.763
56164W        W28490   4.405  39.887   4.611
56165W        W28491  24.001  29.540  12.894
56166W        W28492  39.473  24.561   0.377
56167W        W28493   9.151  23.546   0.434
56168W        W28494  43.824   2.909   4.169
56169W        W28495  18.236  32.933   2.703
56170W        W28496  33.953  25.196   3.709
56171W        W28497  35.866   9.846  11.435
56172W        W28498  24.072  27.077   0.958
56173W        W28499  33.084  14.307  10.940
56174W        W28500  27.578  40.441  14.948
56175W        W28501  42.834   2.339   1.300
56176W        W28502   1.882  21.549   3.277
56177W        W28503  38.053  33.623   3.719
56178W        W28504  12.691  35.435   0.832
56179W        W28505  40.029  26.006  11.413
56180W        W28506   4.929  26.135  10.559
56181W        W28507   8.759  22.067  10.438
56182W        W28508  40.308  24.671  13.017
56183W        W28509  29.527  38.375  14.978
56184W        W28510   4.712   1.297   0.911
56185W        W28511  14.140  19.726   4.813
56186W        W28512  42.027  32.084  12.891
56187W        W28513  15.255  32.091  11.986
56188W        W28514   7.309  35.089   4.812
56189W        W28515  34.962  41.803  13.368
56190W        W28516  43.988   1.950   1.231
56191W        W28517  32.481  36.879   0.306
56192W        W28518  27.191  11.273   0.392
56193W        W28519  15.233  43.271  12.361
56194W        W28520  11.153  25.510  11.864
56195W        W28521  32.998  39.867  10.943
56196W        W28522   6.895   8.267  14.341
56197W        W28523  15.251  25.183   3.376
56198W        W28524  13.266  34.601   4.168
56199W        W28525  11.665  27.656   2.846
56200W        W28526  44.999   1.741   0.735
56201W        W28527  27.161   6.742  12.025
56202W        W28528  19.246  38.045   4.645
56203W        W28529   2.237  22.704  12.953
56204W        W28530   4.365  35.093   0.949
56205W        W28531   0.414   6.767  11.531
56206W        W28532  20.616  12.852  12.954
56207W        W28533  27.579  43.974   2.186
56208W        W28534  24.026  38.542  13.363
56209W        W28535   5.842   5.199   4.319
56210W        W28536   3.377  12.317   2.293
56211W        W28537  36.485  35.570   5.127
56212W        W28538  37.017  38.354  14.278
56213W        W28539  42.843  14.627   3.841
56214W        W28540  31.541   4.759  12.399
56215W        W28541  20.198  19.658   0.953
56216W        W28542   1.785  39.041  14.856
56217W        W28543  28.482   3.389   3.247
56218W        W28544  39.524  43.957   3.377
56219W        W28545   9.802  27.118  14.353
56220W        W28546  34.958   8.763   3.797
56221W        W28547  10.817   8.295   4.328
56222W        W28548  33.617   6.921  10.582
56223W        W28549  23.643  23.989   4.631
56224W        W28550  29.003  22.553   4.226
56225W        W28551  30.078  16.782  11.560
56226W        W28552   7.259  43.312   0.322
56227W        W28553  39.491  39.934   2.705
56228W        W28554  38.970  27.525  11.424
56229W        W28555  29.072  37.417   9.935
56230W        W28556  15.787  32.561  11.556
56231W        W28557  32.088  25.140  10.012
56232W        W28558  19.727  26.469  14.322
56233W        W28559  27.621   2.757   2.764
56234W        W28560  26.599  37.005   0.443
56235W        W28561  44.336  10.343  10.574
56236W        W28562  21.673  20.717  10.576
56237W        W28563  38.895  40.851   0.746
56238W        W28564  37.910  15.209  13.406
56239W        W28565   5.281  39.322   4.688
56240W        W28566  15.283  22.207   4.748
56241W        W28567  30.529  14.816  12.462
56242W        W28568  42.476  40.443  10.902
56243W        W28569  20.629  21.660  13.321
56244W        W28570  43.877  14.588  12.011
56245W        W28571  36.558  29.614  14.937
56246W        W28572   7.824  19.278  11.611
56247W        W28573  31.445  40.435  10.609
56248W        W28574  38.500   8.697   0.415
56249W        W28575  38.361  18.766  13.956
56250W        W28576   5.831  29.480  14.347
56251W        W28577  38.065  13.344   0.395
56252W        W28578   9.880   1.784   1.359
56253W        W28579  26.122  20.618  14.460
56254W        W28580  13.608  13.807   2.215
56255W        W28581  16.591  31.493   4.689
56256W        W28582  19.247  44.816  11.379
56257W        W28583  35.592   9.834  11.501
56258W        W28584  31.511  42.939   2.900
56259W        W28585  44.944  40.426  14.323
56260W        W28586  11.338  19.075   0.853
56261W        W28587  42.818  42.367   0.476
56262W        W28588  22.197  30.024  11.611
56263W        W28589  36.992  41.000  10.896
56264W        W28590  43.469  23.658  11.975
56265W        W28591  30.549  27.508  12.032
56266W        W28592   6.286  30.163  11.497
56267W        W28593  14.124  34.991   2.844
56268W        W28594   5.768  20.704   1.412
56269W        W28595  30.589  13.779  14.863
56270W        W28596   6.812  19.630   0.924
56271W        W28597  15.627  35.550   0.247
56272W        W28598  22.734  33.041   3.772
56273W        W28599  16.080  43.293  13.052
56274W        W28600  17.654  24.177  11.460
56275W        W28601  36.432   5.229  10.611
56276W        W28602   3.937  42.006   0.300
56277W        W28603  26.547  24.522   3.166
56278W        W28604  15.649   8.899   4.669
56279W        W28605  32.895  33.487  13.027
56280W        W28606  29.957   0.493   0.860
56281W        W28607  19.146  35.451   2.394
56282W        W28608   3.752  23.542   0.877
56283W        W28609  35.938  11.242   0.264
56284W        W28610   3.294  43.998   2.318
56285W        W28611  12.302  23.682   2.371
56286W        W28612  42.415   7.306  12.350
56287W        W28613  16.582   7.735   2.778
56288W        W28614  25.594  42.527  12.900
56289W        W28615   8.257  27.061   1.708
56290W        W28616  27.465  10.254  10.504
56291W        W28617   1.316  12.794  14.850
56292W        W28618   6.360   4.398   3.695
56293W        W28619  36.948   7.794   0.383
56294W        W28620  35.469  12.345  14.340
56295W        W28621  44.815  16.640   2.874
56296W        W28622  22.574  17.726  13.999
56297W        W28623  29.432  41.977  14.341
56298W        W28624  27.597  43.958  12.355
56299W        W28625  22.539  28.489  11.925
56300W        W28626  44.869  31.487   1.891
56301W        W28627  40.364  33.954   1.307
56302W        W28628   4.438   2.790  10.615
56303W        W28629  14.278   1.361   1.293
56304W        W28630  10.273   0.941  12.975
56305W        W28631  26.086  31.510   2.409
56306W        W28632  41.016  16.287   4.180
56307W        W28633  26.979  14.332   2.664
56308W        W28634   2.907  35.092  10.406
56309W        W28635  24.639  44.360  13.909
56310W        W28636   3.777  19.611   4.278
56311W        W28637  41.852  44.405   4.756
56312W        W28638  11.235  10.816   3.186
56313W        W28639  12.208  24.092  11.108
56314W        W28640   0.435  12.740   2.288
56315W        W28641  26.019  38.403   0.267
56316W        W28642   0.400  37.960   4.188
56317W        W28643  36.367   3.286   1.250
56318W        W28644  39.404  34.400  12.066
56319W        W28645  11.192  42.851  12.536
56320W        W28646  14.663  28.099   3.722
56321W        W28647  31.073  22.248  14.788
56322W        W28648  31.097  42.312   3.240
56323W        W28649   1.857  37.878  13.480
56324W        W28650  22.590  37.028  13.859
56325W        W28651  13.208  41.399   9.988
56326W        W28652  20.177  30.497   2.680
56327W        W28653  17.276  36.035   1.722
56328W        W28654   9.851  37.893   4.789
56329W        W28655  23.606  24.100  13.966
56330W        W28656  19.733  40.308  13.031
56331W        W28657  39.046  10.352   5.252
56332W        W28658  21.155  28.588  10.458
56333W        W28659   4.308   4.271   3.662
56334W        W28660   8.670   8.404  13.984
56335W        W28661  28.560  39.329  10.938
56336W        W28662  15.738  35.460  14.777
56337W        W28663  25.179  17.237  14.899
56338W        W28664  30.586  36.575   2.707
56339W        W28665  23.514  23.004  12.370
56340W        W28666  37.407  37.991  11.081
56341W        W28667  31.916  12.263   3.664
56342W        W28668   8.398  26.979   4.167
56343W        W28669  15.114  32.121  11.063
56344W        W28670  43.863   0.485   0.303
56345W        W28671  26.604   3.215  12.946
56346W        W28672   8.335  38.050   3.323
56347W        W28673  43.962   6.405  13.444
56348W        W28674  17.112  14.286  12.447
56349W        W28675   5.723  13.721   0.456
56350W        W28676   7.841  38.898  12.439
56351W        W28677  22.998  20.121  13.343
56352W        W28678  30.019  16.253   1.351
56353W        W28679   3.247  21.586  14.473
56354W        W28680   8.668  19.639   2.266
56355W        W28681  11.846  21.638   0.841
56356W        W28682  40.860  23.666  13.348
56357W        W28683  27.511   4.854  13.441
56358W        W28684   8.191  38.872  14.907
56359W        W28685  26.194  26.155   0.906
56360W        W28686  17.668  42.335  10.927
56361W        W28687  25.007  26.479  13.995
56362W        W28688  21.598  19.261  14.364
56363W        W28689  12.326  42.808  12.553
56364W        W28690  26.484  16.596  11.389
56365W        W28691  40.909  16.741  13.937
56366W        W28692   9.878  16.572   4.793
56367W        W28693  36.919  40.366   0.445
56368W        W28694  39.487  11.287   2.868
56369W        W28695   8.182  28.125  13.027
56370W        W28696  16.310  16.628  12.384
56371W        W28697   6.381  27.500  14.005
56372W        W28698  36.096  18.175   2.777
56373W        W28699  44.977   8.379  14.441
56374W        W28700  20.249  42.014  14.895
56375W        W28701  29.464  40.943  10.590
56376W        W28702  31.060   9.256  12.938
56377W        W28703   2.344  21.536  11.867
56378W        W28704  26.591  30.973  12.914
56379W        W28705  20.123  42.032  11.989
56380W        W28706   6.191   0.809   0.778
56381W        W28707  43.387  22.662  13.049
56382W        W28708  15.630   5.286   1.791
56383W        W28709  11.194  34.041   3.760
56384W        W28710  16.096  43.853   0.298
56385W        W28711  21.254  26.994  13.994
56386W        W28712   2.801  36.878   4.271
56387W        W28713  22.182  20.725  13.486
56388W        W28714   3.231  14.834   0.346
56389W        W28715  17.147   3.276   4.763
56390W        W28716   0.902  21.641   4.196
56391W        W28717  28.540   5.709   1.845
56392W        W28718  27.455  26.102   5.645
56393W        W28719  35.489   5.688   2.884
56394W        W28720  11.781  36.936   4.122
56395W        W28721   6.698  27.664  13.468
56396W        W28722  30.465  24.169  12.503
56397W        W28723  16.122   5.776  12.456
56398W        W28724  40.396  16.192  10.952
56399W        W28725  38.517  20.710   1.371
56400W        W28726  39.376  17.203   0.897
56401W        W28727  14.127  36.567   0.949
56402W        W28728  31.921   8.267   3.207
56403W        W28729  32.140  35.883  13.880
56404W        W28730   9.778  16.725   1.312
56405W        W28731  31.111  23.566   1.891
56406W        W28732  38.490   0.329  14.280
56407W        W28733  17.305  42.811  12.903
56408W        W28734  29.606  39.009  12.090
56409W        W28735  19.205   1.760   4.180
56410W        W28736   9.804  12.250  13.398
56411W        W28737  18.686  32.112  14.949
56412W        W28738   7.225   3.729   3.657
56413W        W28739  37.860  14.289   0.336
56414W        W28740  41.537  32.124   2.690
56415W        W28741  40.864  38.008  14.823
56416W        W28742  21.638  29.533  13.025
56417W        W28743  19.071  21.175   3.174
56418W        W28744  26.182  42.916   3.280
56419W        W28745   3.408  21.044   1.880
56420W        W28746   6.409   4.943  13.964
56421W        W28747   6.313   7.241   0.773
56422W        W28748   8.768  33.405   1.722
56423W        W28749  28.991  30.014  11.074
56424W        W28750  13.779  30.981  12.580
56425W        W28751  30.607   7.866  14.276
56426W        W28752   0.414  25.024   0.727
56427W        W28753  33.896   8.166   3.634
56428W        W28754  17.231   1.366   3.744
56429W        W28755  30.618  37.485  13.884
56430W        W28756  17.223  44.921  13.479
56431W        W28757  28.441   9.687   0.809
56432W        W28758   9.283  26.972  13.917
56433W        W28759  15.186  20.658  12.067
56434W        W28760  10.759  21.227   4.706
56435W        W28761  41.459  32.456  13.328
56436W        W28762   4.282  31.512  11.910
56437W        W28763   4.818  25.584  13.041
56438W        W28764  26.138   4.794  11.090
56439W        W28765  27.069   0.435  14.838
56440W        W28766   5.364  43.353   4.619
56441W        W28767  28.075  20.185   0.427
56442W        W28768  30.598  44.325  13.350
56443W        W28769  38.510   8.687   2.204
56444W        W28770   6.746  32.928  11.056
56445W        W28771  33.605  14.752  12.871
56446W        W28772  29.938  41.350  12.860
56447W        W28773  25.619  25.150  11.087
56448W        W28774  33.104  29.067   1.737
56449W        W28775  30.514   7.761  12.382
56450W        W28776   0.309  44.468  10.941
56451W        W28777  42.317  27.570  10.417
56452W        W28778  43.495  44.844   3.726
56453W        W28779   3.252   3.805  10.159
56454W        W28780  25.566  33.100  14.973
56455W        W28781  32.466  40.810   2.878
56456W        W28782  43.903  35.562  11.438
56457W        W28783  21.516  19.640   2.205
56458W        W28784  19.624   0.912   4.828
56459W        W28785  33.596  18.196   3.154
56460W        W28786   0.755  25.084  10.549
56461W        W28787  20.064  29.930   4.617
56462W        W28788  40.011   3.949   4.653
56463W        W28789  10.835  19.154   2.742
56464W        W28790  40.512   2.820  13.059
56465W        W28791  34.988  37.995   3.348
56466W        W28792  14.614   5.349  10.416
56467W        W28793  39.014  15.803   4.750
56468W        W28794  31.934  29.059   2.760
56469W        W28795  37.368  36.556  14.285
56470W        W28796   8.655  16.733   4.758
56471W        W28797  30.031  41.536   1.433
56472W        W28798  31.936  38.053  12.993
56473W        W28799  26.104  18.574  10.980
56474W        W28800   5.345  27.945   4.625
56475W        W28801  12.669   8.680   0.261
56476W        W28802  37.575  40.822   1.883
56477W        W28803  38.917  42.012  11.463
56478W        W28804  21.691  43.846  12.379
56479W        W28805  15.639  35.362   4.165
56480W        W28806  16.618  26.095   2.397
56481W        W28807  24.571  25.065  10.504
56482W        W28808  23.119  36.458  13.382
56483W        W28809   2.409  19.678  12.827
56484W        W28810   5.361   4.384   1.901
56485W        W28811  39.062  44.771   2.783
56486W        W28812  11.675  15.196  11.982
56487W        W28813  15.700  36.370   4.679
56488W        W28814  10.267  41.881   4.744
56489W        W28815  37.932  40.950  14.455
56490W        W28816  16.099  29.556   0.917
56491W        W28817  14.734  19.074   2.798
56492W        W28818  18.593  30.495   5.085
56493W        W28819  15.618  33.016  12.051
56494W        W28820  36.584  10.210  14.975
56495W        W28821  40.401  39.976   1.868
56496W        W28822  40.431   3.426   5.118
56497W        W28823  38.438  28.947   1.924
56498W        W28824  19.750  11.797  11.948
56499W        W28825  32.544  30.494  14.981
56500W        W28826  19.175   2.367   0.811
56501W        W28827   8.171   5.914  13.502
56502W        W28828   7.227  17.700   0.255
56503W        W28829   7.377  34.997  14.489
56504W        W28830  29.030  32.621   1.745
56505W        W28831  43.499  30.497   4.354
56506W        W28832   1.298  31.436   1.699
56507W        W28833  22.700  44.347   5.246
56508W        W28834  19.267  11.788  13.544
56509W        W28835  17.294  42.393   3.188
56510W        W28836  34.551  32.593   4.150
56511W        W28837  27.992  42.005   0.947
56512W        W28838  21.726  28.483  14.760
56513W        W28839  19.069  19.548   0.274
56514W        W28840  23.637  36.412   2.316
56515W        W28841  14.136  36.052  10.005
56516W        W28842  40.547   7.288  14.314
56517W        W28843  10.347  23.629  13.321
56518W        W28844  34.882  42.892  10.605
56519W        W28845   8.167  25.210  13.449
56520W        W28846  27.007  21.713  13.317
56521W        W28847  11.625  16.736  12.976
56522W        W28848   3.840   5.779   0.742
56523W        W28849  33.918  40.514  14.947
56524W        W28850  43.419  13.686   2.788
56525W        W28851  11.769  29.469   2.319
56526W        W28852  41.915  22.009   4.164
56527W        W28853  29.072  23.685   1.825
56528W        W28854  21.142   1.289  12.517
56529W        W28855   3.746  15.283   3.158
56530W        W28856   6.321  12.215  14.512
56531W        W28857  20.181  10.364  12.037
56532W        W28858  10.802  25.494  11.530
56533W        W28859  29.666  20.169   4.826
56534W        W28860   5.899   2.896   2.342
56535W        W28861  43.960  35.041  11.542
56536W        W28862  13.631  31.066   4.606
56537W        W28863  25.215   6.274  14.386
56538W        W28864  27.968   9.188   9.937
56539W        W28865  17.182  27.001  14.932
56540W        W28866  11.736  33.392  12.909
56541W        W28867  42.493  24.021  14.440
56542W        W28868  38.512  10.800   0.482
56543W        W28869  39.972   9.871  12.498
56544W        W28870  20.752  16.085  13.976
56545W        W28871  24.179  15.710   3.250
56546W        W28872  15.091   9.386  13.932
56547W        W28873  24.990  35.086  11.893
56548W        W28874  10.866  12.342  14.451
56549W        W28875  29.130  35.904   4.690
56550W        W28876  43.326   5.216   2.735
56551W        W28877  18.177  17.171   2.294
56552W        W28878   8.766  38.835  12.068
56553W        W28879  11.676   3.343   2.669
56554W        W28880   8.854  22.705   1.911
56555W        W28881  41.325   2.800   3.166
56556W        W28882  17.629  40.990  14.893
56557W        W28883  24.633   4.817  12.854
56558W        W28884  33.977  22.045  11.084
56559W        W28885  13.329   3.284   1.694
56560W        W28886   8.162  42.784   3.259
56561W        W28887  20.628  24.996   0.801
56562W        W28888  26.527  31.005   4.748
56563W        W28889  25.501  25.021  12.371
56564W        W28890   3.298   9.820   0.778
56565W        W28891  17.592   7.356   4.220
56566W        W28892  31.089  44.914   0.796
56567W        W28893  12.315  41.891   3.228
56568W        W28894   5.302  42.900  12.093
56569W        W28895  28.174  31.150   1.314
56570W        W28896  12.145  40.924  12.345
56571W        W28897  22.642  11.170  11.948
56572W        W28898  28.082  32.917   3.174
56573W        W28899   6.304   8.878   1.754
56574W        W28900   5.921  42.318   2.715
56575W        W28901  14.215   3.409   1.724
56576W        W28902  17.694  35.478   2.696
56577W        W28903  20.260  40.046   3.328
56578W        W28904  32.594   2.897   0.478
56579W        W28905   4.232  20.527  14.494
56580W        W28906   7.358  24.715   4.829
56581W        W28907  23.985  41.350   5.301
56582W        W28908  40.535   6.209  11.404
56583W        W28909  20.736  41.838  13.005
56584W        W28910  16.205  33.575  14.443
56585W        W28911  27.528   7.835   0.826
56586W        W28912  18.680  36.937   3.771
56587W        W28913  30.659   1.937   4.295
56588W        W28914  33.990  17.113   3.863
56589W        W28915  26.959   3.927  12.341
56590W        W28916  33.559  35.363  12.383
56591W        W28917  39.355  11.353  10.951
56592W        W28918   5.288  27.023  14.423
56593W        W28919  38.929  27.596  11.876
56594W        W28920  29.039  20.156  14.491
56595W        W28921  25.048   1.933  14.454
56596W        W28922  20.213  40.859   0.372
56597W        W28923  38.418  28.509  13.857
56598W        W28924  43.290  25.622   3.729
56599W        W28925  11.301  44.823   1.241
56600W        W28926  35.961   8.191  10.916
56601W        W28927   9.229  21.039  12.998
56602W        W28928  28.025  20.137  13.374
56603W        W28929  38.525  43.818  14.320
56604W        W28930  44.858  38.386  12.949
56605W        W28931  26.012   9.776  12.431
56606W        W28932   6.343  41.382   2.305
56607W        W28933  26.124  14.641  10.534
56608W        W28934  17.706  19.726   1.387
56609W        W28935  16.288  31.045   2.852
56610W        W28936  36.862  35.997   2.385
56611W        W28937  22.223  29.437   1.371
56612W        W28938  17.620  37.370  10.428
56613W        W28939  23.138  22.662  11.471
56614W        W28940  40.540   3.712  11.952
56615W        W28941  10.288  33.500  13.490
56616W        W28942  26.203   3.404   4.233
56617W        W28943  40.952  43.769  13.951
56618W        W28944  19.717   7.908  11.565
56619W        W28945  23.656  27.565   3.188
56620W        W28946   3.749  15.772   4.618
56621W        W28947  34.893  16.731  10.936
56622W        W28948  39.916  34.422   3.312
56623W        W28949  10.143  28.654  12.090
56624W        W28950  40.451  27.095  11.026
56625W        W28951  33.483  29.050  12.389
56626W        W28952   4.286  20.177   4.797
56627W        W28953   9.646  39.484   0.388
56628W        W28954   4.258  12.269  10.558
56629W        W28955   1.237  29.080  11.393
56630W        W28956  44.317  33.561   4.153
56631W        W28957  41.319  36.569   0.375
56632W        W28958  13.667  44.888  13.430
56633W        W28959  17.093  18.602   4.671
56634W        W28960  33.114   5.310  14.493
56635W        W28961  43.847   6.841   2.221
56636W        W28962  38.873   2.753   1.795
56637W        W28963  13.277  43.852   0.866
56638W        W28964   4.304   1.972  12.399
56639W        W28965   7.283  37.460  13.848
56640W        W28966  41.441  35.503  11.560
56641W        W28967   5.393  12.166  11.046
56642W        W28968   8.856   8.670  13.979
56643W        W28969  31.459  41.345  10.898
56644W        W28970   2.358   4.215  10.467
56645W        W28971   4.224  40.319  10.576
56646W        W28972  36.869  39.880   3.813
56647W        W28973  14.253  35.915  13.033
56648W        W28974  42.886  42.015   0.379
56649W        W28975  34.003   4.308  14.395
56650W        W28976  37.343  21.727   4.262
56651W        W28977  15.718   0.389   0.463
56652W        W28978   5.200  24.021  14.500
56653W        W28979  17.284   9.371   0.771
56654W        W28980  32.986  35.362  13.475
56655W        W28981   5.891  41.935   4.190
56656W        W28982  43.790  38.413  14.966
56657W        W28983   3.434  27.133  14.345
56658W        W28984   6.326  29.125   1.922
56659W        W28985  35.517  25.018  13.888
56660W        W28986  44.826  10.633   0.769
56661W        W28987   6.414  25.666  12.840
56662W        W28988  23.626  18.743  13.806
56663W        W28989  37.079  25.204  12.871
56664W        W28990  43.342  38.406   0.376
56665W        W28991   9.866  23.666  12.001
56666W        W28992  40.022  15.323   4.260
56667W        W28993   6.902  21.662   3.710
56668W        W28994   3.444  27.003   2.412
56669W        W28995   7.214   8.367  10.588
56670W        W28996  35.989  28.487   3.165
56671W        W28997  42.317  27.150  14.330
56672W        W28998  43.969  11.731   1.896
56673W        W28999  30.913  27.457   4.754
56674W        W29000  43.427  40.307  14.383
56675W        W29001  18.141  17.260  10.513
56676W        W29002   3.714   7.326  12.069
56677W        W29003  17.142  24.547   0.960
56678W        W29004  24.184  15.117   2.410
56679W        W29005  37.897  23.161  14.955
56680W        W29006  19.234  19.285  13.519
56681W        W29007  12.347   9.747   1.307
56682W        W29008  41.523  21.656  12.511
56683W        W29009  32.619  44.278   3.762
56684W        W29010  38.054  44.262  10.011
56685W        W29011  10.805  24.627   0.370
56686W        W29012  43.412  10.191  14.925
56687W        W29013  42.921  22.145  12.900
56688W        W29014  25.168  16.228   0.454
56689W        W29015  44.890  29.425   3.165
56690W        W29016  27.095  26.155   9.956
56691W        W29017   2.232  25.554  12.848
56692W        W29018  43.499  13.620   0.946
56693W        W29019  34.600  30.915   3.160
56694W        W29020  32.019   6.253   0.415
56695W        W29021   7.390   1.962   2.273
56696W        W29022  16.750  29.984  10.933
56697W        W29023  32.005  42.961   1.821
56698W        W29024   8.168   8.220   0.844
56699W        W29025  36.360  13.206  14.014
56700W        W29026  24.073   1.402  11.374
56701W        W29027   5.195  23.199   2.836
56702W        W29028  13.207  21.584  13.381
56703W        W29029  15.189  21.263   0.395
56704W        W29030  41.484  43.318   3.707
56705W        W29031  29.480  16.647   2.848
56706W        W29032  11.798  36.934  13.397
56707W        W29033  24.717  25.078   1.275
56708W        W29034  29.613  29.100  12.553
56709W        W29035  44.975  14.221  11.862
56710W        W29036  22.507  13.341   4.291
56711W        W29037  24.173  34.113  10.910
56712W        W29038   6.377   3.283   1.253
56713W        W29039  25.168  16.718   5.186
56714W        W29040  34.013   8.373  10.605
56715W        W29041   4.878   6.696   2.239
56716W        W29042  15.153   5.844   2.789
56717W        W29043  32.996   7.884   0.963
56718W        W29044  12.176  42.921  14.878
56719W        W29045  41.960   9.326  10.541
56720W        W29046  30.049  13.115   2.336
56721W        W29047  36.416  23.674   0.388
56722W        W29048   6.355  19.581   3.169
56723W        W29049   6.351  18.556  11.471
56724W        W29050  18.117  36.548   3.727
56725W        W29051   9.383  28.493   1.760
56726W        W29052  33.948  27.450  13.456
56727W        W29053  14.100  20.708  10.934
56728W        W29054  38.994  25.154   1.353
56729W        W29055  28.538  29.496   5.169
56730W        W29056  36.049  11.773   3.182
56731W        W29057  21.749  35.579  14.788
56732W        W29058  26.186  42.282   1.839
56733W        W29059  40.467  10.243   2.863
56734W        W29060  39.937   9.828  11.098
56735W        W29061  30.635  10.358   1.901
56736W        W29062  41.808  40.424  12.415
56737W        W29063  16.805  24.529  11.062
56738W        W29064  43.476   5.201  12.475
56739W        W29065  38.546  41.514  11.543
56740W        W29066  44.877  33.557   0.402
56741W        W29067   2.464   7.798  12.983
56742W        W29068  35.070  17.674  14.349
56743W        W29069   5.276   0.478  11.991
56744W        W29070  35.076  24.692   1.351
56745W        W29071  16.628  38.338   3.720
56746W        W29072  32.599  29.101   0.339
56747W        W29073  37.416   9.156   2.699
56748W        W29074  24.673   3.888  10.499
56749W        W29075   4.344  13.200  11.021
56750W        W29076  43.909  10.755  12.011
56751W        W29077  26.469  22.747   0.274
56752W        W29078  11.741  21.101  12.516
56753W        W29079  11.776  23.730   1.934
56754W        W29080  37.392  23.058  12.425
56755W        W29081   5.819  41.900   3.654
56756W        W29082  16.575  27.998   1.402
56757W        W29083  35.466  21.207  12.510
56758W        W29084  39.539  24.182   4.287
56759W        W29085  32.624  15.737  12.067
56760W        W29086  14.681   4.313   2.834
56761W        W29087  18.280  42.283  10.408
56762W        W29088  40.425   9.871   2.820
56763W        W29089  17.092  14.128  13.509
56764W        W29090   3.429  21.083  13.907
56765W        W29091  33.496  15.196   1.377
56766W        W29092  30.049  26.169   2.302
56767W        W29093  12.849  37.406  10.467
56768W        W29094  43.505  30.487  10.939
56769W        W29095  18.744   3.313  10.612
56770W        W29096  11.252  37.490  13.064
56771W        W29097  31.535   2.390   2.210
56772W        W29098  37.935   7.855  12.059
56773W        W29099   0.973   0.391   0.843
56774W        W29100  36.375  35.505   0.803
56775W        W29101  36.438  10.356   3.330
56776W        W29102  41.537  12.827  14.001
56777W        W29103   2.872  38.065   3.215
56778W        W29104  37.955  16.582  14.935
56779W        W29105   8.828   2.721   3.810
56780W        W29106  36.037   2.893  11.399
56781W        W29107  25.636  16.743  10.911
56782W        W29108  27.626  19.153   1.881
56783W        W29109  17.295   7.258   0.779
56784W        W29110  26.077   2.757  14.309
56785W        W29111  14.162   5.251   3.690
56786W        W29112  17.203  35.068  13.478
56787W        W29113  44.483  38.539  10.477
56788W        W29114  25.130  44.935   4.647
56789W        W29115   0.928  15.099  12.070
56790W        W29116  29.588  43.510  14.413
56791W        W29117  30.048  20.654  12.398
56792W        W29118  24.607   9.681   4.287
56793W        W29119  39.385  41.421  13.792
56794W        W29120  10.788  38.906  13.924
56795W        W29121  24.113   7.814   1.822
56796W        W29122  19.150  13.767  12.871
56797W        W29123  20.072  36.415   3.794
56798W        W29124  14.784  39.367  10.946
56799W        W29125   6.795  23.025   4.285
56800W        W29126  16.186  24.192  11.551
56801W        W29127  25.566  22.250  13.003
56802W        W29128  18.247  10.653   3.752
56803W        W29129  32.448   9.201   4.352
56804W        W29130  13.652   1.857   2.298
56805W        W29131   4.704  35.028   3.722
56806W        W29132  40.364  43.018  13.908
56807W        W29133  21.674  29.500  12.520
56808W        W29134  26.635  37.963   1.711
56809W        W29135  33.931  13.745   1.845
56810W        W29136  25.615   1.958   3.830
56811W        W29137  43.961  29.113   4.711
56812W        W29138  18.218  33.555   4.815
56813W        W29139  16.755   5.774  12.490
56814W        W29140  40.023  23.999  14.429
56815W        W29141  28.930  13.670   2.356
56816W        W29142  21.131  16.786   1.904
56817W        W29143   2.925  31.033  10.980
56818W        W29144  22.726  27.123  11.025
56819W        W29145   7.356   3.768  11.868
56820W        W29146   9.662   1.265   2.729
56821W        W29147  29.981  21.262   4.243
56822W        W29148  14.603   3.301   3.733
56823W        W29149  43.938  38.834   3.688
56824W        W29150  31.922  16.747   0.281
56825W        W29151  40.917  24.218  12.372
56826W        W29152  39.923  14.225  10.971
56827W        W29153  10.251  37.421  14.819
56828W        W29154   6.917   1.482  12.001
56829W        W29155   9.803   1.260   3.287
56830W        W29156  42.965  44.756   2.775
56831W        W29157  11.246   4.739  13.887
56832W        W29158  23.561   0.753  14.478
56833W        W29159  38.350   3.827  12.440
56834W        W29160  40.879  18.733  10.567
56835W        W29161  37.457  38.523  14.025
56836W        W29162   6.327  33.502  12.526
56837W        W29163  13.109  36.086  13.388
56838W        W29164   3.829  38.361  11.379
56839W        W29165   2.448   0.878  11.929
56840W        W29166  20.131   1.750  10.477
56841W        W29167   3.313  15.144  11.523
56842W        W29168  32.635  24.703  13.916
56843W        W29169  27.087  37.547  14.379
56844W        W29170  25.515  29.134  12.033
56845W        W29171  42.796  43.908   2.686
56846W        W29172  43.345  26.032  10.403
56847W        W29173  40.975  44.503  11.862
56848W        W29174  14.637  27.081  13.793
56849W        W29175  19.565   2.783  13.898
56850W        W29176  16.620  28.182   2.716
56851W        W29177  32.942  11.732  13.038
56852W        W29178   6.920   6.757   4.128
56853W        W29179  13.802  30.603  12.842
56854W        W29180  43.386  36.006   3.839
56855W        W29181  37.514  41.796   1.367
56856W        W29182  21.596  20.090   1.717
56857W        W29183  28.658  38.891  12.016
56858W        W29184   3.262  12.678  14.007
56859W        W29185  40.905  37.480   2.297
56860W        W29186  17.086  21.535   3.156
56861W        W29187  16.628  32.973   3.152
56862W        W29188  34.033  39.463  12.978
56863W        W29189   0.947   8.321   0.808
56864W        W29190  36.449  32.437   1.443
56865W        W29191   7.261  44.367   0.263
56866W        W29192  28.504  43.274  11.418
56867W        W29193  32.020  38.876   0.444
56868W        W29194   4.859  44.424   3.819
56869W        W29195  18.661  43.472   3.157
56870W        W29196  14.337  40.908   0.728
56871W        W29197  44.294  38.974  14.919
56872W        W29198  13.633  41.043   1.831
56873W        W29199  22.111  34.436   1.309
56874W        W29200  40.950  24.193  12.918
56875W        W29201  10.635   1.738  12.853
56876W        W29202   2.868  20.587  11.110
56877W        W29203  29.172  40.431   2.706
56878W        W29204  20.154  37.426   2.399
56879W        W29205  41.880  27.172  10.464
56880W        W29206  44.919  20.183   4.608
56881W        W29207  29.146  19.271  12.832
56882W        W29208  26.625  25.663  10.486
56883W        W29209  16.772  23.003   0.906
56884W        W29210  12.647  42.521   2.801
56885W        W29211  43.913  38.481  14.288
56886W        W29212   0.934  40.358   0.847
56887W        W29213  38.962  40.872  14.970
56888W        W29214  11.659  22.574  10.433
56889W        W29215  31.410  37.565   4.745
56890W        W29216  21.227   4.771   0.951
56891W        W29217  25.653   1.917  10.601
56892W        W29218  27.564  29.449  14.787
56893W        W29219  19.739  20.052  12.039
56894W        W29220   4.707  35.038  11.515
56895W        W29221  19.165  12.284   4.291
56896W        W29222   5.739  11.745   4.318
56897W        W29223  30.938  36.590  11.105
56898W        W29224  12.280   4.289   3.344
56899W        W29225  27.553   2.884  14.882
56900W        W29226   3.376  38.511   1.908
56901W        W29227  21.670  22.027   1.432
56902W        W29228  41.305  24.066  10.985
56903W        W29229  37.508  29.592  13.385
56904W        W29230  15.134   4.361  10.464
56905W        W29231  28.536  19.140  12.920
56906W        W29232  25.693  39.808  10.482
56907W        W29233   6.846  30.449  13.056
56908W        W29234  27.086  10.756   2.805
56909W        W29235  28.627  22.516   0.950
56910W        W29236  13.672   7.366   0.946
56911W        W29237  13.317  13.717   1.845
56912W        W29238  38.344   7.214  13.326
56913W        W29239  36.419  43.989  12.866
56914W        W29240   1.247  21.690  13.411
56915W        W29241  39.862   9.263  10.478
56916W        W29242  20.550  37.062   1.296
56917W        W29243  26.967  12.844  14.962
56918W        W29244  27.626  42.022  13.945
56919W        W29245  35.947   9.392  13.822
56920W        W29246  20.656  42.449   4.160
56921W        W29247   7.311  25.636   0.420
56922W        W29248   3.771  14.787  14.388
56923W        W29249  27.471  44.483  11.384
56924W        W29250   4.329   3.389  10.635
56925W        W29251  32.392  38.547  14.854
56926W        W29252  13.608  31.443  14.765
56927W        W29253  44.883  36.933  14.409
56928W        W29254  32.550  29.076  10.473
56929W        W29255   9.751  37.050   1.912
56930W        W29256  28.100  22.515   3.151
56931W        W29257  11.311   7.388   1.238
56932W        W29258  40.855  12.684   2.843
56933W        W29259  28.444   0.891   0.398
56934W        W29260  41.010  12.188  10.560
56935W        W29261  30.103  35.401  10.923
56936W        W29262  17.295  27.125   2.268
56937W        W29263   7.881  38.390   0.414
56938W        W29264  30.006  22.549  14.946
56939W        W29265  18.569  41.922   1.296
56940W        W29266   5.358  31.456   3.777
56941W        W29267  15.578  20.229  14.475
56942W        W29268   9.161  38.953  12.579
56943W        W29269  39.378  30.547  12.499
56944W        W29270   0.976  11.312  12.986
56945W        W29271  25.694   6.269  12.420
56946W        W29272  25.648  15.244  14.886
56947W        W29273   2.344  12.732   0.857
56948W        W29274   6.383  30.091   4.322
56949W        W29275   2.813  34.389  14.434
56950W        W29276  24.153  44.848   1.862
56951W        W29277   6.702   4.348  14.309
56952W        W29278  42.395  12.184  11.477
56953W        W29279   5.693  28.990   4.298
56954W        W29280   4.744  15.290  11.071
56955W        W29281   9.796  34.118  12.557
56956W        W29282  17.303  25.191   9.934
56957W        W29283  18.144  43.967  11.543
56958W        W29284   9.359  37.560  11.926
56959W        W29285  17.701  34.553   2.679
56960W        W29286  23.566   7.746   0.797
56961W        W29287  30.116  12.142   4.277
56962W        W29288  33.420  27.949  11.983
56963W        W29289  24.063  12.663   3.635
56964W        W29290  16.135  10.171   0.276
56965W        W29291  21.118   4.247  14.428
56966W        W29292   7.823   1.902  12.972
56967W        W29293  30.931   4.317   2.351
56968W        W29294  31.573  19.260  12.382
56969W        W29295  21.017  12.148   2.372
56970W        W29296  19.069  16.587   2.665
56971W        W29297  32.400  35.581   1.866
56972W        W29298   9.201  13.118  10.944
56973W        W29299  23.212  39.363  12.857
56974W        W29300   1.938  42.498   2.380
56975W        W29301  15.753  32.052  11.397
56976W        W29302  15.087  21.186   4.822
56977W        W29303  16.744   3.878  14.761
56978W        W29304  36.455   2.252  12.486
56979W        W29305  25.136   1.780   3.795
56980W        W29306   2.755  17.302  12.946
56981W        W29307  15.674   4.216  12.496
56982W        W29308  39.039   8.389   1.930
56983W        W29309  31.447  12.668   4.835
56984W        W29310  14.633  20.123  13.039
56985W        W29311   9.382  22.037   2.743
56986W        W29312  32.393   9.190  14.790
56987W        W29313  26.554  37.500  10.142
56988W        W29314  43.775  33.403   0.306
56989W        W29315   6.692   1.394  14.978
56990W        W29316   3.347  34.111  14.943
56991W        W29317  35.360  19.711   4.194
56992W        W29318  38.945  44.298  13.490
56993W        W29319  33.494  32.427   2.721
56994W        W29320  20.567  41.887  13.809
56995W        W29321   2.925  16.721  12.053
56996W        W29322   7.236  44.298   3.837
56997W        W29323   2.751  27.678  10.542
56998W        W29324  16.625   0.758  14.779
56999W        W29325  16.091  35.567  13.462
57000W        W29326  33.118  15.618  11.494
57001W        W29327  15.194  40.007  11.052
57002W        W29328  42.872  10.238  11.087
57003W        W29329  23.118  13.723  10.582
57004W        W29330  44.009  26.464   1.297
57005W        W29331   9.732  20.671  12.426
57006W        W29332  22.017   0.475   3.771
57007W        W29333  37.940  17.622   1.835
57008W        W29334  11.132  44.880   3.385
57009W        W29335  40.355  19.204  13.539
57010W        W29336  24.126   4.774   5.208
57011W        W29337  14.597   3.743  12.933
57012W        W29338  35.453  38.398  11.453
57013W        W29339   4.825  17.684   2.318
57014W        W29340   0.828   2.251   1.341
57015W        W29341   2.959  24.589  11.549
57016W        W29342  34.870  36.856   2.893
57017W        W29343  23.235  23.142  11.898
57018W        W29344  26.039   0.780   1.826
57019W        W29345  26.599  13.187   1.885
57020W        W29346  37.045  26.682   0.739
57021W        W29347  24.557  32.892   2.229
57022W        W29348  40.449  11.810  11.016
57023W        W29349  20.625  29.563   4.208
57024W        W29350   5.357  32.994   4.695
57025W        W29351  39.342  40.859  13.971
57026W        W29352  15.133   8.380   0.766
57027W        W29353  41.501  20.619   0.466
57028W        W29354  23.074  29.484   4.229
57029W        W29355  21.726  29.005   0.920
57030W        W29356  32.918  22.028  12.505
57031W        W29357  38.891  28.156   4.724
57032W        W29358  14.813   1.348  14.805
57033W        W29359  14.819  17.174   0.953
57034W        W29360   0.904  39.528  10.911
57035W        W29361  12.806  22.058  14.002
57036W        W29362  10.269   5.252  14.834
57037W        W29363   1.461  14.787   0.440
57038W        W29364  33.401  34.893   4.657
57039W        W29365  37.360  22.132   3.334
57040W        W29366  20.222  36.548   0.288
57041W        W29367   4.366   5.296   4.803
57042W        W29368  40.032  25.625   2.725
57043W        W29369  36.498  17.081  12.473
57044W        W29370   8.215  19.667   2.390
57045W        W29371  13.325  32.516  11.601
57046W        W29372   9.818  19.568   0.294
57047W        W29373  18.713  35.959   2.277
57048W        W29374  41.345  40.995  11.061
57049W        W29375  31.428   0.259   3.639
57050W        W29376  42.819   0.387   1.782
57051W        W29377   3.256  27.499  13.403
57052W        W29378   2.327  43.462  13.496
57053W        W29379  34.893  36.098   9.475
57054W        W29380   1.813   7.313  12.343
57055W        W29381  25.029  31.913  11.490
57056W        W29382   4.225   5.236   1.372
57057W        W29383  14.659  18.611   1.819
57058W        W29384  14.137  44.337  13.461
57059W        W29385  38.970  35.420  13.050
57060W        W29386  14.244  24.647  12.064
57061W        W29387  31.617   7.413   1.829
57062W        W29388   9.219  31.127   4.193
57063W        W29389  43.786  10.220  11.565
57064W        W29390   4.881  12.322  11.449
57065W        W29391  43.397   2.440   2.779
57066W        W29392  27.559  34.528   0.484
57067W        W29393  34.034   3.860  13.861
57068W        W29394  23.672  11.754   1.700
57069W        W29395   3.371  16.754  12.469
57070W        W29396   4.397  33.406  14.934
57071W        W29397  28.489  18.701  10.623
57072W        W29398  33.892  28.550  14.385
57073W        W29399  40.345   2.877   3.796
57074W        W29400   8.896  24.713   4.723
57075W        W29401  11.308  37.850  12.054
57076W        W29402  42.944  28.072  12.951
57077W        W29403   6.920  20.213   1.842
57078W        W29404  42.796   3.371   0.923
57079W        W29405  40.410  42.473   1.899
57080W        W29406   6.881   2.894  11.539
57081W        W29407  29.152  26.632   0.919
57082W        W29408   2.245  43.813  12.388
57083W        W29409  42.017  27.994  12.489
57084W        W29410  35.483  30.544   0.910
57085W        W29411  35.498  26.162  13.041
57086W        W29412  19.555   5.209  13.511
57087W        W29413  17.753   2.912   0.822
57088W        W29414  40.812  20.713  12.028
57089W        W29415  37.558  23.555  11.440
57090W        W29416  38.339  43.502  12.050
57091W        W29417   8.891  23.554   0.361
57092W        W29418  30.111  35.479   1.799
57093W        W29419  44.308  31.019  13.398
57094W        W29420   8.689  31.470  13.368
57095W        W29421   8.802  34.371   3.667
57096W        W29422  23.224  14.260  13.466
57097W        W29423  37.921  32.992   3.300
57098W        W29424   8.784  32.140  10.586
57099W        W29425  34.409  26.055   1.876
57100W        W29426  42.947   4.841  14.462
57101W        W29427  19.165  38.325   1.212
57102W        W29428   3.951  16.713  12.498
57103W        W29429  19.729  39.835   2.233
57104W        W29430  16.135   0.459  14.979
57105W        W29431  10.270  29.047  11.911
57106W        W29432  23.689  37.974  12.354
57107W        W29433   8.814  16.618  13.017
57108W        W29434  11.162  40.331  11.907
57109W        W29435  19.092  20.730  13.530
57110W        W29436  15.601  27.555  11.509
57111W        W29437   9.336  41.983  11.938
57112W        W29438  33.993  23.235   0.958
57113W        W29439   8.201  23.088   2.411
57114W        W29440   7.340  28.520   4.831
57115W        W29441  17.595  13.125   3.710
57116W        W29442  13.262  30.460   5.102
57117W        W29443  34.981  11.305  13.383
57118W        W29444  41.879  25.093   3.184
57119W        W29445  30.629  38.357   0.914
57120W        W29446   3.902  33.894  14.282
57121W        W29447  29.636  21.606  11.485
57122W        W29448   5.256   0.764   1.325
57123W        W29449   7.759  42.335  10.538
57124W        W29450  27.004  23.043   3.183
57125W        W29451  37.986  13.214   1.752
57126W        W29452  29.989  21.260  14.295
57127W        W29453  40.508  37.944  14.350
57128W        W29454  19.741  35.003   2.739
57129W        W29455   3.420  22.062  11.428
57130W        W29456  39.355  43.471  15.000
57131W        W29457   3.304   0.328  10.413
57132W        W29458   5.806  40.485   0.798
57133W        W29459   0.367  16.779  14.373
57134W        W29460   0.904   3.859   0.412
57135W        W29461  20.237  38.460  13.455
57136W        W29462  26.012  32.498   0.335
57137W        W29463  31.912  30.489  12.537
57138W        W29464  28.628  41.928  11.516
57139W        W29465   1.246  37.441   2.894
57140W        W29466  39.512  27.550   4.824
57141W        W29467   8.737   1.272  10.902
57142W        W29468  11.275  27.014  10.974
57143W        W29469  18.268  11.807  14.830
57144W        W29470  21.175  10.280   3.353
57145W        W29471  12.637  41.361   1.338
57146W        W29472   3.805  28.108  11.574
57147W        W29473  30.569  11.176   3.277
57148W        W29474  44.338   2.301  12.852
57149W        W29475  35.457  12.613  13.531
57150W        W29476   9.321  17.752  11.422
57151W        W29477  12.343  18.108   3.814
57152W        W29478  35.529  10.380   0.907
57153W        W29479  20.222   7.815   0.726
57154W        W29480  17.787  33.909   3.751
57155W        W29481  25.992  28.127  10.113
57156W        W29482  18.674  11.750   3.239
57157W        W29483  14.814  41.470  11.996
57158W        W29484  42.418  17.113  14.995
57159W        W29485  28.475  29.568   3.205
57160W        W29486   7.732  27.076  12.527
57161W        W29487  21.582  35.371   0.933
57162W        W29488  12.292  43.510   0.776
57163W        W29489   2.721  28.118   3.830
57164W        W29490  39.907  44.890  13.386
57165W        W29491  24.503  42.801  13.859
57166W        W29492  20.578   7.396   4.264
57167W        W29493  20.239   5.799  14.390
57168W        W29494  33.592  22.718  10.069
57169W        W29495   9.859  23.721  12.960
57170W        W29496   6.694   0.812   1.337
57171W        W29497  16.111  31.436  12.831
57172W        W29498  39.828  26.969   0.268
57173W        W29499  26.549  25.617   1.899
57174W        W29500  38.410  29.431  11.896
57175W        W29501  27.684  28.482   4.228
57176W        W29502  27.567   9.199  14.490
57177W        W29503  15.136  11.657   3.331
57178W        W29504   8.889  39.893   2.263
57179W        W29505  37.389   2.280   4.201
57180W        W29506  43.012  25.603   3.199
57181W        W29507  35.907  13.130   3.852
57182W        W29508  25.188   6.896  11.878
57183W        W29509   0.474  29.610  10.568
57184W        W29510  26.495  40.825   5.212
57185W        W29511  24.157  34.369   2.399
57186W        W29512  29.624  36.066  12.553
57187W        W29513   9.173  38.348  14.834
57188W        W29514  16.120   9.293   2.342
57189W        W29515   1.251  43.937  12.023
57190W        W29516   5.226  37.556   2.784
57191W        W29517  18.671   0.445  13.358
57192W        W29518   1.912   8.688  12.870
57193W        W29519   5.217  19.552   3.172
57194W        W29520  26.131   5.713   0.743
57195W        W29521  24.702  30.161   3.668
57196W        W29522  13.733  26.052  10.008
57197W        W29523  39.457  14.325  12.397
57198W        W29524   6.291  20.586  11.882
57199W        W29525   8.890  34.479  10.447
57200W        W29526  40.496  41.484  12.883
57201W        W29527  22.712  15.313  12.977
57202W        W29528  32.406  22.608   1.269
57203W        W29529   7.846   0.761   1.449
57204W        W29530  13.350  21.588  14.943
57205W        W29531  15.748  29.452  12.024
57206W        W29532   8.288  11.819   4.310
57207W        W29533  27.487  23.638   3.306
57208W        W29534   7.343  17.743   2.292
57209W        W29535  38.007  28.022  13.311
57210W        W29536  30.547  39.819   0.728
57211W        W29537  11.246  13.738  11.915
57212W        W29538  44.766  16.803   3.351
57213W        W29539  12.687  25.058   9.929
57214W        W29540  44.957  17.226  11.971
57215W        W29541  19.195  34.429  14.382
57216W        W29542  37.032  24.503   2.674
57217W        W29543   1.794   4.243  11.998
57218W        W29544  21.069  11.697   5.233
57219W        W29545  16.620  10.831   3.659
57220W        W29546  38.419  23.154   0.286
57221W        W29547  38.845  42.285  11.391
57222W        W29548   4.355  28.119  10.890
57223W        W29549   0.424  29.987  12.925
57224W        W29550  34.549  40.967   3.268
57225W        W29551  25.048  24.646  14.403
57226W        W29552  26.617  30.460  14.276
57227W        W29553  36.367   5.432  13.053
57228W        W29554  31.141  12.678   4.233
57229W        W29555   9.653  30.536  12.352
57230W        W29556   5.763  43.387  11.523
57231W        W29557  22.639  26.601  14.928
57232W        W29558  20.258  34.992   5.198
57233W        W29559   7.793  32.615   4.724
57234W        W29560  17.074  19.696   9.933
57235W        W29561  27.502  40.503  14.465
57236W        W29562   8.766  23.997  13.318
57237W        W29563  16.191  23.185  14.342
57238W        W29564  35.988  18.195   3.277
57239W        W29565  13.670  27.477  11.484
57240W        W29566  37.528  30.097   3.257
57241W        W29567  21.666  20.557  13.895
57242W        W29568  36.532  12.701   4.782
57243W        W29569  12.770  24.224  12.522
57244W        W29570  15.101  32.984   4.822
57245W        W29571  10.729  12.116  10.550
57246W        W29572  22.095  19.664  10.415
57247W        W29573   8.388   1.390  11.092
57248W        W29574  44.781   2.374  14.774
57249W        W29575  41.979   1.392   3.741
57250W        W29576  28.014   9.649   0.374
57251W        W29577   9.794  43.301  13.051
57252W        W29578  17.718  10.689   3.652
57253W        W29579   3.899  36.501   3.699
57254W        W29580  39.519  43.847  13.484
57255W        W29581   2.768   5.396   3.293
57256W        W29582  14.644   4.911  13.934
57257W        W29583  42.023  27.446   4.729
57258W        W29584  18.665  42.387  14.922
57259W        W29585  43.883  30.161  12.074
57260W        W29586  20.609  29.105  14.839
57261W        W29587  30.924  37.846   1.933
57262W        W29588   1.365  33.125   1.894
57263W        W29589  31.020  14.229  13.342
57264W        W29590  24.038  44.423   5.247
57265W        W29591  28.059  23.730  10.545
57266W        W29592  23.226  10.196   0.253
57267W        W29593   8.822  27.523   0.954
57268W        W29594   3.871  37.546  11.025
57269W        W29595  22.161  35.920   2.220
57270W        W29596   2.292  38.970   1.754
57271W        W29597  36.863   8.234   3.812
57272W        W29598  26.569  23.555   2.867
57273W        W29599  44.989   0.485   2.849
57274W        W29600  20.265  23.123  12.831
57275W        W29601  40.983  31.524   2.717
57276W        W29602  16.748  35.024  11.083
57277W        W29603  24.570  19.107  11.595
57278W        W29604  41.852  39.830  13.042
57279W        W29605  39.836  42.893  13.465
57280W        W29606  12.837  38.903  10.636
57281W        W29607  41.445  38.327   2.354
57282W        W29608   8.690   8.792  14.315
57283W        W29609  39.899  10.347   0.425
57284W        W29610  16.749  42.915  12.459
57285W        W29611  10.669  14.652   1.244
57286W        W29612  20.221  20.062  14.890
57287W        W29613   1.816   7.359  14.961
57288W        W29614  14.341  16.694  13.049
57289W        W29615  40.489  10.173  14.497
57290W        W29616  34.880   8.362   0.847
57291W        W29617  31.153  37.991  14.864
57292W        W29618  25.517  37.924  11.981
57293W        W29619  37.087  29.515   4.817
57294W        W29620  22.520  27.032  10.512
57295W        W29621  30.071   7.172  14.414
57296W        W29622  40.893  22.151   4.763
57297W        W29623  39.011  29.931   3.260
57298W        W29624  42.392   3.448  12.371
57299W        W29625  34.599  34.461   1.733
57300W        W29626   2.388   3.236  14.990
57301W        W29627  31.126  30.080   2.251
57302W        W29628   3.952   1.955   4.814
57303W        W29629  21.079   5.221   0.956
57304W        W29630   0.826  36.096  12.396
57305W        W29631   5.233  10.684  12.520
57306W        W29632   0.877  29.059  14.293
57307W        W29633  44.460   4.767   3.850
57308W        W29634  13.751  19.259  11.476
57309W        W29635  33.529  33.131  13.343
57310W        W29636  33.884  34.961   3.279
57311W        W29637  16.778   0.261  12.880
57312W        W29638  11.193  26.143   2.844
57313W        W29639  42.861  30.443   0.833
57314W        W29640   1.298   5.327   3.351
57315W        W29641  20.182   1.477  10.529
57316W        W29642   9.282  13.231  11.564
57317W        W29643  28.645  36.930  11.579
57318W        W29644  42.938  12.341   1.827
57319W        W29645  32.635   9.294   4.741
57320W        W29646  28.022  21.753   2.829
57321W        W29647  17.131  36.533   3.223
57322W        W29648  24.680   6.367   3.841
57323W        W29649  38.388  36.858  12.854
57324W        W29650  39.458  13.659   2.245
57325W        W29651  11.769  23.519  13.327
57326W        W29652   9.260   5.301  12.874
57327W        W29653   7.801  31.968   1.807
57328W        W29654  36.441  40.474   4.683
57329W        W29655   6.842  33.034   4.321
57330W        W29656  38.537  32.023   0.908
57331W        W29657  29.425  20.232   2.683
57332W        W29658  22.555  27.566  12.537
57333W        W29659  13.624  31.109   1.341
57334W        W29660  40.801  27.689   2.380
57335W        W29661  33.429  23.672   3.689
57336W        W29662  17.144  31.553   0.244
57337W        W29663  10.211   9.832   4.216
57338W        W29664  25.695  18.276  10.059
57339W        W29665   0.396  20.747   1.444
57340W        W29666  25.070  17.243  13.022
57341W        W29667  24.163   0.911  10.449
57342W        W29668  38.414  17.219  14.337
57343W        W29669   9.849   7.361  12.067
57344W        W29670  27.656  42.487   3.379
57345W        W29671  43.829   8.200   4.298
57346W        W29672  19.113  17.249  11.962
57347W        W29673  31.026  42.996  10.017
57348W        W29674  37.385  43.368   1.391
57349W        W29675  32.118  23.611  13.405
57350W        W29676  44.278  13.815   3.714
57351W        W29677  32.516  28.013  11.546
57352W        W29678  20.234  18.170   0.882
57353W        W29679  27.196   3.424  12.438
57354W        W29680  44.309  35.524  13.039
57355W        W29681  18.203   3.809   2.666
57356W        W29682   1.366   0.861  12.095
57357W        W29683   0.269   3.404   0.812
57358W        W29684  29.547  20.158   3.375
57359W        W29685   7.877  35.495  13.054
57360W        W29686  42.809  25.019   2.662
57361W        W29687   3.796  11.691  12.390
57362W        W29688  10.727  12.682  14.342
57363W        W29689  24.490  33.617   4.654
57364W        W29690   1.934  21.697   5.657
57365W        W29691   9.309   2.413  11.927
57366W        W29692   7.280  38.539  14.339
57367W        W29693  37.859  39.910  14.291
57368W        W29694  11.365  37.079   4.329
57369W        W29695  38.570  43.800   4.622
57370W        W29696  44.377  41.478   3.349
57371W        W29697   2.826  22.141   0.748
57372W        W29698  34.549   7.406  13.805
57373W        W29699   6.720   9.821   1.744
57374W        W29700  11.744   7.347   1.333
57375W        W29701  26.004  43.284   1.349
57376W        W29702  24.619  44.420   1.842
57377W        W29703  28.572  16.198  13.350
57378W        W29704   3.766  24.186   3.793
57379W        W29705  24.015  28.175  12.409
57380W        W29706   3.330   4.728   9.920
57381W        W29707  42.809  21.682   0.800
57382W        W29708  11.292  28.439   2.246
57383W        W29709  26.187  28.120   3.173
57384W        W29710  37.869  10.215   1.383
57385W        W29711  29.614   6.305  11.857
57386W        W29712   0.369  36.073  10.418
57387W        W29713  25.975  17.634  10.136
57388W        W29714  41.849  29.506  12.421
57389W        W29715   5.381  11.643   0.386
57390W        W29716  42.516  10.378  10.427
57391W        W29717  30.065  30.485  11.865
57392W        W29718  14.689  26.142  14.833
57393W        W29719  30.643   8.281   3.812
57394W        W29720   4.264  17.762   4.792
57395W        W29721  32.582  34.076  11.492
57396W        W29722  44.259  15.759   3.176
57397W        W29723  42.836  28.551   2.687
57398W        W29724  44.420   2.413  11.563
57399W        W29725  36.359  31.992   4.600
57400W        W29726   6.778  14.642   3.744
57401W        W29727  43.360  32.394  13.347
57402W        W29728  30.624  43.475  10.974
57403W        W29729  37.989   3.718  11.577
57404W        W29730  41.516  37.841   4.726
57405W        W29731  30.655   5.929  14.482
57406W        W29732   9.274  23.490   2.362
57407W        W29733  35.373  19.543   1.927
57408W        W29734  38.538   5.711   3.166
57409W        W29735  34.600  32.908   3.763
57410W        W29736  19.667  18.132   2.882
57411W        W29737  15.716  29.438   1.781
57412W        W29738   8.768   6.391  10.426
57413W        W29739   6.203   9.753   4.316
57414W        W29740  19.259  34.091  10.949
57415W        W29741  42.991  36.979   1.226
57416W        W29742  33.042   5.259  10.999
57417W        W29743   3.887  12.711  11.038
57418W        W29744  38.351   3.335   0.951
57419W        W29745  29.614  32.925   2.305
57420W        W29746  36.577  17.098   1.728
57421W        W29747  25.696  11.732   0.884
57422W        W29748  19.107  42.836  14.343
57423W        W29749  26.695  35.972  11.600
57424W        W29750   3.827  20.165   4.205
57425W        W29751  40.467  12.808  10.543
57426W        W29752  17.707  36.889  10.526
57427W        W29753  14.789  10.275  10.087
57428W        W29754   2.249  23.587   1.372
57429W        W29755  31.976   9.819  14.321
57430W        W29756   6.225  43.001   2.831
57431W        W29757  17.703  14.202  13.317
57432W        W29758  24.191  28.595   2.778
57433W        W29759  11.246  11.742   2.406
57434W        W29760  33.075   1.800   3.728
57435W        W29761  31.120  31.647  10.472
57436W        W29762  17.172  28.023  11.403
57437W        W29763  23.015  35.859   4.713
57438W        W29764   0.365  24.136  12.468
57439W        W29765  19.670  27.023  11.939
57440W        W29766  34.552  34.486  14.366
57441W        W29767   5.340  41.328   1.857
57442W        W29768  21.023  23.513  10.104
57443W        W29769  18.065   3.261   2.225
57444W        W29770  30.028   5.371  11.414
57445W        W29771  17.108  36.034   0.785
57446W        W29772  42.314  39.526  14.922
57447W        W29773  11.790  24.691   2.712
57448W        W29774  26.589   8.291   0.828
57449W        W29775  16.712   9.389  14.972
57450W        W29776   2.744  21.034  14.498
57451W        W29777  35.580  16.298  14.298
57452W        W29778  32.048  39.947   2.876
57453W        W29779  13.628  37.953  13.445
57454W        W29780  16.698   3.425  14.781
57455W        W29781  11.176  18.686   1.896
57456W        W29782   1.757  34.927  12.433
57457W        W29783  18.596  37.033   4.245
57458W        W29784   1.297  10.329   4.313
57459W        W29785  15.310   5.920   3.646
57460W        W29786  25.001  31.943  13.955
57461W        W29787  24.149   8.782  12.576
57462W        W29788  40.479  22.686  12.072
57463W        W29789   6.259  44.889   4.325
57464W        W29790  35.524  12.117   5.743
57465W        W29791   2.913  38.376   3.228
57466W        W29792  28.625   8.336  14.410
57467W        W29793   0.860   0.419   2.280
57468W        W29794  14.135  17.763  14.415
57469W        W29795   8.756   3.254  14.512
57470W        W29796  20.234   9.876  12.982
57471W        W29797  18.055  27.169   1.827
57472W        W29798   8.766  31.539  14.485
57473W        W29799  16.210  28.581  11.962
57474W        W29800   0.250  40.832   4.782
57475W        W29801  13.133  29.524  14.022
57476W        W29802  25.628  30.494   1.855
57477W        W29803  19.071   3.846   3.249
57478W        W29804  13.233  27.061   5.636
57479W        W29805  13.236   0.933  12.961
57480W        W29806  14.300  28.670   4.838
57481W        W29807  34.398  38.474  11.024
57482W        W29808  11.358   4.753   3.219
57483W        W29809  13.742  27.183   4.209
57484W        W29810  12.766  31.126   3.674
57485W        W29811  18.689   5.731  14.006
57486W        W29812  28.121  16.614  11.971
57487W        W29813   5.881  35.395  14.780
57488W        W29814  25.562   8.169   2.235
57489W        W29815  20.055  29.166   0.375
57490W        W29816  24.646  36.369   2.822
57491W        W29817   8.791  41.811  14.026
57492W        W29818  34.534  30.012  11.903
57493W        W29819  33.435  40.014   3.715
57494W        W29820  16.220  14.742   3.702
57495W        W29821  17.259  18.167  10.140
57496W        W29822   8.663  35.861  13.351
57497W        W29823   5.806  29.042   2.384
57498W        W29824  39.012  27.526   4.178
57499W        W29825  38.347  16.240   3.309
57500W        W29826  22.551  20.146  14.993
57501W        W29827  36.519  18.187  11.525
57502W        W29828   7.252   7.878  14.439
57503W        W29829   1.272   5.825   1.360
57504W        W29830  32.977  39.010   4.614
57505W        W29831  15.184  14.101   1.240
57506W        W29832  14.680  24.521  14.405
57507W        W29833  41.891  22.509   0.475
57508W        W29834  44.315  37.038   3.187
57509W        W29835  21.542  44.996   3.357
57510W        W29836   7.683  20.602   0.944
57511W        W29837  30.088  19.077   3.249
57512W        W29838   6.409  21.669   4.130
57513W        W29839  19.039  31.531   0.863
57514W        W29840   4.822  11.269   3.630
57515W        W29841  35.930   6.313  11.910
57516W        W29842  12.741  17.111   4.322
57517W        W29843  39.001  34.606  10.149
57518W        W29844  43.353  44.763   2.318
57519W        W29845  36.905  11.304  14.479
57520W        W29846  37.864  11.783  13.043
57521W        W29847  36.503  28.095  10.086
57522W        W29848  13.340  21.042   2.888
57523W        W29849  19.165  16.089  13.998
57524W        W29850  12.800  36.911  13.494
57525W        W29851  25.611  16.798   5.579
57526W        W29852  11.794  25.118   2.823
57527W        W29853  36.521  11.336   9.949
57528W        W29854  20.722  34.518   2.861
57529W        W29855  36.900   5.336   0.270
57530W        W29856  35.423  37.355  14.949
57531W        W29857  21.722  38.982   4.352
57532W        W29858  44.866   1.831   3.341
57533W        W29859  12.848  12.165   0.282
57534W        W29860  14.103  34.047  14.985
57535W        W29861  24.646   7.353  11.865
57536W        W29862  40.029  36.003  12.391
57537W        W29863  13.303  27.587  13.359
57538W        W29864  18.577   4.934   4.742
57539W        W29865  20.712  13.661   2.824
57540W        W29866  11.265  30.652   3.823
57541W        W29867   7.828  28.517  13.485
57542W        W29868  20.066  43.452   4.628
57543W        W29869  26.664   7.255  14.936
57544W        W29870  13.288  17.248   2.309
57545W        W29871   6.239  34.080  10.492
57546W        W29872  13.211  10.282   2.839
57547W        W29873  14.228  34.092  12.881
57548W        W29874  31.094  16.168  14.386
57549W        W29875  20.710  23.022   0.852
57550W        W29876  26.649  44.970   2.895
57551W        W29877  40.463  31.946  12.369
57552W        W29878  15.603  34.984   1.917
57553W        W29879  30.545  13.765  13.032
57554W        W29880  25.982  43.791  12.081
57555W        W29881   4.869  41.917  10.435
57556W        W29882   1.931  16.599  13.352
57557W        W29883  31.945  25.159  13.035
57558W        W29884  37.337  32.617  13.855
57559W        W29885   6.360   1.970  12.092
57560W        W29886  35.935  16.710   0.847
57561W        W29887   6.373  43.895   0.354
57562W        W29888  31.456   4.363  12.371
57563W        W29889  22.717  25.683  14.881
57564W        W29890  36.028   4.704  12.913
57565W        W29891  36.349  25.677   3.157
57566W        W29892  10.697  26.464  14.473
57567W        W29893   7.904  43.289  12.453
57568W        W29894  39.410  31.052   4.636
57569W        W29895  21.561  10.705   0.331
57570W        W29896  37.948  18.220   3.719
57571W        W29897  28.524   4.219   1.422
57572W        W29898  36.894  39.036   3.159
57573W        W29899  12.812   0.319   3.786
57574W        W29900   2.805   5.711  14.856
57575W        W29901  25.033  43.813   1.781
57576W        W29902  29.045  13.190   0.358
57577W        W29903  39.058  26.528   1.290
57578W        W29904  10.809  18.639  13.879
57579W        W29905  16.726  33.392   4.240
57580W        W29906  23.997   1.458   3.190
57581W        W29907  26.686  35.866   0.301
57582W        W29908  19.245  41.848   3.386
57583W        W29909  25.506  43.329   3.355
57584W        W29910   0.364  18.550   4.659
57585W        W29911  26.629  43.812   1.357
57586W        W29912  20.721  13.150   1.911
57587W        W29913  42.524  14.781  14.322
57588W        W29914  24.995  21.721  14.784
57589W        W29915  30.153  31.110   1.758
57590W        W29916   2.865   8.693   1.263
57591W        W29917   7.739  33.975   3.306
57592W        W29918  17.069  22.207   2.407
57593W        W29919   6.848  33.392  10.534
57594W        W29920  31.623  11.293  14.360
57595W        W29921  25.071  42.983   3.750
57596W        W29922   8.765  32.023   4.813
57597W        W29923  23.139  10.767   3.745
57598W        W29924  39.515  31.425  13.021
57599W        W29925  18.194  35.376   1.210
57600W        W29926  39.549  39.553  13.890
57601W        W29927  23.575   0.795  12.379
57602W        W29928  10.752  25.608   0.892
57603W        W29929  14.716  42.382  10.477
57604W        W29930  20.646  36.394   1.352
57605W        W29931  23.637  15.745   3.257
57606W        W29932  31.559  30.527  13.805
57607W        W29933  25.046  13.231  11.967
57608W        W29934   9.793  21.565   2.370
57609W        W29935  18.682  42.314   2.792
57610W        W29936  37.854  16.314  11.915
57611W        W29937  20.191  36.523  11.390
57612W        W29938  37.933  24.575   4.329
57613W        W29939   2.944  41.957   1.241
57614W        W29940  12.652  35.364   2.681
57615W        W29941  38.895  30.966   2.358
57616W        W29942   8.854   3.308   3.749
57617W        W29943  41.457  15.589   4.833
57618W        W29944   5.854  31.994   3.226
57619W        W29945   3.800   1.737  14.316
57620W        W29946   0.895  11.188  10.461
57621W        W29947  17.669  28.540   0.397
57622W        W29948  35.906  20.640   3.363
57623W        W29949   3.872  27.549  11.971
57624W        W29950  34.399  16.813   0.278
57625W        W29951  30.059  30.528  13.804
57626W        W29952  13.752   5.839  13.329
57627W        W29953   6.327  29.929   2.774
57628W        W29954  37.542  13.730   1.732
57629W        W29955  11.626  25.989  13.895
57630W        W29956  16.577  20.636   4.782
57631W        W29957  13.164   8.327  12.096
57632W        W29958  26.058  12.250   3.165
57633W        W29959  13.832  20.616   1.338
57634W        W29960  21.745   7.198   2.202
57635W        W29961  40.849  26.620  11.574
57636W        W29962  36.585   4.877  12.084
57637W        W29963  36.905  44.829   4.812
57638W        W29964  23.731  41.822   1.259
57639W        W29965   4.760  42.511  11.475
57640W        W29966  38.971  44.360  11.454
57641W        W29967  11.789  16.807  13.844
57642W        W29968  15.620  29.020   3.292
57643W        W29969  33.606  36.094   3.868
57644W        W29970   3.256  35.868  10.550
57645W        W29971  14.783  42.911   1.356
57646W        W29972  38.482  32.557  14.474
57647W        W29973   6.336  37.971  11.940
57648W        W29974  39.981  37.380   4.739
57649W        W29975  27.959   5.719  11.575
57650W        W29976  38.329  12.627   1.386
57651W        W29977   1.289  28.463   1.240
57652W        W29978   1.845  12.850   0.262
57653W        W29979  39.857   7.798  12.422
57654W        W29980  16.171  11.806  13.490
57655W        W29981  24.153  16.294   1.849
57656W        W29982  44.925  41.494  13.894
57657W        W29983  44.294   8.160  11.998
57658W        W29984  30.939  38.373   3.236
57659W        W29985  12.667  30.950   2.199
57660W        W29986  27.170  18.194   2.311
57661W        W29987  16.658  21.017   0.826
57662W        W29988  21.200  44.416  13.446
57663W        W29989   4.782  36.990   4.772
57664W        W29990  42.469  20.667  12.889
57665W        W29991  41.483  13.178  12.403
57666W        W29992  40.322  44.954  11.972
57667W        W29993  34.439  21.152  11.441
57668W        W29994  15.200  17.644   3.765
57669W        W29995  34.406  22.186   4.345
57670W        W29996  33.075  11.323   3.379
57671W        W29997  31.011  22.996  12.070
57672W        W29998  18.731   7.295  10.415
57673W        W29999  18.221  37.870   1.336
57674W        W30000   0.805   2.418   4.645
57675W        W30001  15.596  26.987   3.368
57676W        W30002  23.520   2.278   4.262
57677W        W30003  14.682  20.166   1.865
57678W        W30004   9.667  29.081  13.794
57679W        W30005   0.788  31.598  14.965
57680W        W30006  15.692   0.956   3.212
57681W        W30007  35.993  25.064   0.351
57682W        W30008  38.951  11.755   3.770
57683W        W30009   9.158  26.573  13.853
57684W        W30010  34.094  31.402   2.740
57685W        W30011   2.237  30.529   0.380
57686W        W30012  33.439  31.118  10.469
57687W        W30013  43.015  12.343  13.519
57688W        W30014  28.664  20.229   2.851
57689W        W30015  25.161  28.443   2.678
57690W        W30016  40.408  24.644   1.378
57691W        W30017  27.500  36.931   3.296
57692W        W30018   0.957   3.446  13.444
57693W        W30019  40.418  19.686  13.332
57694W        W30020   8.672  14.242  10.606
57695W        W30021  43.777  23.133   3.260
57696W        W30022  37.366  36.489   4.767
57697W        W30023   4.753  27.571   0.779
57698W        W30024   6.861  31.478  13.874
57699W        W30025  34.062  26.047   4.185
57700W        W30026   4.342  16.619   2.332
57701W        W30027  18.191  12.303   3.853
57702W        W30028   6.417  14.123  14.453
57703W        W30029   3.318  44.261   3.315
57704W        W30030  16.165  19.125  12.962
57705W        W30031  43.299  22.053   0.360
57706W        W30032   7.836  23.720  11.381
57707W        W30033  25.159  39.876  13.025
57708W        W30034  38.447  24.697  13.803
57709W        W30035  24.567  31.901  14.944
57710W        W30036  33.124   1.474  11.994
57711W        W30037  37.988  21.707  11.064
57712W        W30038  19.644  39.009   1.235
57713W        W30039  42.915   7.324   1.216
57714W        W30040  15.774   7.205  10.639
57715W        W30041   9.179   5.748  14.937
57716W        W30042  42.827   9.352  12.833
57717W        W30043   9.693  41.455   3.151
57718W        W30044  14.693   4.936  11.500
57719W        W30045  42.481  10.293  13.509
57720W        W30046  24.630   7.668   3.675
57721W        W30047  42.869  22.704  12.062
57722W        W30048  18.622  20.190  14.304
57723W        W30049  10.341   2.241  11.097
57724W        W30050  34.963  41.409  14.338
57725W        W30051  36.455  39.317  11.541
57726W        W30052   4.755  36.449   2.368
57727W        W30053  26.535  36.486   3.709
57728W        W30054   6.922  31.050  13.893
57729W        W30055  18.572   7.254  11.376
57730W        W30056  22.570  23.004  12.516
57731W        W30057  21.171  29.429  11.498
57732W        W30058  25.647  33.488  13.853
57733W        W30059  15.695  11.693   4.642
57734W        W30060  13.118  18.187  12.987
57735W        W30061  24.091  21.549  13.883
57736W        W30062  10.179   1.879  11.500
57737W        W30063  40.397  14.669  10.574
57738W        W30064  12.664  31.968  13.408
57739W        W30065  14.758   9.228   2.834
57740W        W30066  14.743  37.432   1.868
57741W        W30067   2.429  23.218   3.352
57742W        W30068  30.913  21.723  10.500
57743W        W30069  29.087  27.018  12.347
57744W        W30070  39.422  12.728  12.963
57745W        W30071  28.533   9.395  13.797
57746W        W30072  34.455  12.117  10.977
57747W        W30073  34.384  17.256   2.204
57748W        W30074   4.317  27.039  11.967
57749W        W30075  18.274  24.162   3.867
57750W        W30076  38.347   7.369  14.953
57751W        W30077   2.361  28.138   1.351
57752W        W30078  33.100   6.286   0.948
57753W        W30079   1.393  14.114  10.544
57754W        W30080  28.078  37.519   3.721
57755W        W30081  42.313  25.561  11.469
57756W        W30082  24.721  38.964   3.199
57757W        W30083  18.277  20.525  13.978
57758W        W30084  16.208  16.670  11.952
57759W        W30085  18.206   1.270   1.436
57760W        W30086   1.357  40.492  13.440
57761W        W30087  44.344  14.127   1.843
57762W        W30088  31.103   1.480   3.167
57763W        W30089  16.805  35.882  11.993
57764W        W30090  12.626  42.508  14.829
57765W        W30091  26.013  39.358   0.428
57766W        W30092  14.095   3.892  11.055
57767W        W30093  15.205  14.642   2.182
57768W        W30094   7.709  40.449   4.698
57769W        W30095  18.142  17.161  14.383
57770W        W30096  42.487  14.664   2.392
57771W        W30097  22.050   6.388  14.368
57772W        W30098  15.740  12.789  14.394
57773W        W30099  38.907  30.572  12.574
57774W        W30100   5.261  37.550   0.852
57775W        W30101  20.184  33.551   0.857
57776W        W30102   2.945   4.277   5.168
57777W        W30103  35.003  35.035   1.392
57778W        W30104  32.021  17.297  14.779
57779W        W30105  41.790  25.667  14.872
57780W        W30106  26.148  15.292  13.439
57781W        W30107   3.820  33.417  10.405
57782W        W30108  31.405  16.313  14.784
57783W        W30109  38.019  38.952   0.482
57784W        W30110  10.144  37.465  11.948
57785W        W30111  44.368   4.916  12.377
57786W        W30112  39.373  33.565   2.722
57787W        W30113   4.330  29.091   4.671
57788W        W30114  33.386  10.344  12.859
57789W        W30115  17.706  40.495   4.835
57790W        W30116  25.632  26.034   1.810
57791W        W30117  22.153  43.924  12.362
57792W        W30118  22.691  22.246  10.444
57793W        W30119  27.179  44.500   9.976
57794W        W30120  11.747  27.976  10.112
57795W        W30121  19.112  38.525  13.348
57796W        W30122  44.272   0.764   4.696
57797W        W30123  14.630   9.278  13.496
57798W        W30124  32.053  35.926  12.415
57799W        W30125  27.150  32.032  14.769
57800W        W30126  34.981  18.153   3.311
57801W        W30127  28.665  35.941  13.365
57802W        W30128   5.240   1.403   4.726
57803W        W30129  32.587  27.941  10.591
57804W        W30130   4.860  38.882  13.823
57805W        W30131  27.948  24.075  10.434
57806W        W30132  43.990  20.064   4.211
57807W        W30133  43.499  17.564  14.808
57808W        W30134  34.091  35.541   9.603
57809W        W30135   7.775  38.429  12.903
57810W        W30136  22.537  17.114  14.416
57811W        W30137  15.615   9.854  10.024
57812W        W30138   6.298  33.599  13.823
57813W        W30139  21.688  27.457   0.850
57814W        W30140   2.401   4.718   0.791
57815W        W30141  31.908   9.836  12.450
57816W        W30142  30.074   9.205   0.282
57817W        W30143  44.802  31.522   4.218
57818W        W30144  43.868   8.657  11.113
57819W        W30145  28.532  40.838   0.825
57820W        W30146   1.839  35.996  13.471
57821W        W30147  16.275  41.954   1.809
57822W        W30148  10.793   5.398   3.319
57823W        W30149  27.187  27.553   1.812
57824W        W30150  32.555   4.890  11.914
57825W        W30151  34.917  11.682   4.622
57826W        W30152  37.894  28.112  13.947
57827W        W30153  12.826  25.126   4.314
57828W        W30154   6.402  28.934  10.404
57829W        W30155  15.690  23.699   9.963
57830W        W30156  16.585   5.880   3.205
57831W        W30157  38.828  20.071   3.151
57832W        W30158  26.126  40.020  14.947
57833W        W30159   2.341   4.228   1.848
57834W        W30160  18.610  14.117   5.243
57835W        W30161   6.856  39.379  10.583
57836W        W30162  34.119  24.186  13.050
57837W        W30163  41.423   8.195   0.935
57838W        W30164  42.372  30.525  10.480
57839W        W30165  35.095  16.693   3.725
57840W        W30166  26.542  20.142  14.328
57841W        W30167  38.940  21.143  11.938
57842W        W30168  28.657  41.813   1.819
57843W        W30169   9.203  29.619  13.830
57844W        W30170  30.555  41.900   0.406
57845W        W30171  27.117  22.221  10.542
57846W        W30172  37.417  25.963   0.917
57847W        W30173  31.624  25.971   3.818
57848W        W30174  19.278   7.706  13.922
57849W        W30175  37.006  13.664  13.484
57850W        W30176  37.035  31.043   2.265
57851W        W30177   9.660   7.822  11.910
57852W        W30178  41.793  41.314   0.250
57853W        W30179  13.765   9.358   2.739
57854W        W30180  15.700  27.535  11.856
57855W        W30181  31.618  28.139  14.819
57856W        W30182  35.884  27.055   2.872
57857W        W30183  37.917  32.442  11.485
57858W        W30184  30.427  33.908  13.495
57859W        W30185  44.885  29.586  14.493
57860W        W30186  36.395   0.972   1.753
57861W        W30187  19.045  10.239   2.276
57862W        W30188  13.197  13.780   4.772
57863W        W30189  33.539  29.603   4.235
57864W        W30190  27.031  13.216  13.029
57865W        W30191  24.054  35.921   0.358
57866W        W30192  16.208  20.044  10.414
57867W        W30193  24.133  30.013  13.809
57868W        W30194  17.157  37.479   1.898
57869W        W30195  35.363  14.101   1.211
57870W        W30196  35.913   1.917   3.174
57871W        W30197  34.878  20.128  13.797
57872W        W30198  30.086  30.164  12.076
57873W        W30199  39.552  17.629   0.433
57874W        W30200  42.460  14.637   4.698
57875W        W30201   7.225  16.566   2.818
57876W        W30202  35.073   7.303  12.951
57877W        W30203  16.693  26.699   2.306
57878W        W30204  44.315  38.921  11.428
57879W        W30205   2.761  16.073  11.455
57880W        W30206  34.003  25.598  10.598
57881W        W30207  29.131   1.923  13.384
57882W        W30208  36.928  12.815   5.153
57883W        W30209  29.066   5.753   1.268
57884W        W30210  27.032  21.030   0.930
57885W        W30211  38.967  11.191   3.337
57886W        W30212  42.956  43.346   0.726
57887W        W30213  28.078  21.255  10.933
57888W        W30214  23.735  38.475  13.970
57889W        W30215  41.314  21.171  14.820
57890W        W30216  34.075   5.324   1.902
57891W        W30217  18.695   4.912   1.852
57892W        W30218   0.452  23.002   3.222
57893W        W30219  19.676  10.201  12.407
57894W        W30220  38.448   4.257  10.640
57895W        W30221  20.541  10.256  10.538
57896W        W30222   9.686  37.504   4.817
57897W        W30223  33.987  34.426   3.198
57898W        W30224  15.322  41.020   4.666
57899W        W30225  34.024   7.333   3.748
57900W        W30226  39.884  20.028  14.952
57901W        W30227  14.270  32.092   0.405
57902W        W30228  12.198   2.353  14.814
57903W        W30229  34.420  13.180   4.800
57904W        W30230  43.491  36.549  12.961
57905W        W30231  44.938   8.843  10.560
57906W        W30232  13.242  20.105  11.946
57907W        W30233  21.716  25.535   1.885
57908W        W30234   9.654  44.930   1.720
57909W        W30235  33.463  28.606   4.805
57910W        W30236   8.275  32.996  11.430
57911W        W30237  35.976  32.934  10.464
57912W        W30238  11.285  39.048  13.929
57913W        W30239  24.982   4.216  12.934
57914W        W30240  40.419  36.585  12.398
57915W        W30241  34.434  34.522   3.292
57916W        W30242  11.230  17.255  10.442
57917W        W30243  39.065  33.989   0.370
57918W        W30244  34.382   3.929  12.838
57919W        W30245  25.092  32.028   3.176
57920W        W30246  10.808  28.593  12.896
57921W        W30247  19.556   3.896  10.996
57922W        W30248   1.974  44.900   2.327
57923W        W30249  24.096  11.232   3.716
57924W        W30250   3.773  44.986   4.734
57925W        W30251  26.184  31.023   3.698
57926W        W30252   1.297  19.620   4.793
57927W        W30253  35.410  34.093   3.839
57928W        W30254   5.300  21.592   4.739
57929W        W30255  16.245  20.114  13.033
57930W        W30256   2.453  23.678   0.404
57931W        W30257   6.370   2.362   1.819
57932W        W30258  42.913  44.375   1.696
57933W        W30259  37.926  37.394  11.107
57934W        W30260  42.895  35.482  14.447
57935W        W30261  44.873  24.565   3.364
57936W        W30262   2.440  36.951   0.728
57937W        W30263  37.031  38.521  12.903
57938W        W30264   7.880  34.498  13.310
57939W        W30265  23.214  34.608   0.404
57940W        W30266  25.184  41.798  14.480
57941W        W30267  39.969  39.437  10.594
57942W        W30268   4.801  40.909   0.311
57943W        W30269  18.195   4.873  11.869
57944W        W30270  13.821  21.552  10.560
57945W        W30271  21.714   4.761  12.533
57946W        W30272  44.957  17.120  13.394
57947W        W30273  24.682  15.154  13.309
57948W        W30274  19.224   0.462   2.764
57949W        W30275  44.803   2.923  13.512
57950W        W30276  36.365   0.422  14.763
57951W        W30277  15.603   5.251   3.262
57952W        W30278  20.759  12.657   2.360
57953W        W30279   1.267  44.958   0.833
57954W        W30280  25.674  19.737  14.882
57955W        W30281   2.392  19.683   5.280
57956W        W30282  39.485   8.321   4.762
57957W        W30283   0.326   7.683  12.382
57958W        W30284   9.732  35.358   4.789
57959W        W30285   5.315  32.896   1.443
57960W        W30286  38.393  11.275   1.875
57961W        W30287  18.062  28.929  14.841
57962W        W30288  28.648   7.791   1.917
57963W        W30289  29.137   5.819   4.312
57964W        W30290  12.342  35.465   2.387
57965W        W30291  27.510  22.588  15.000
57966W        W30292  31.434   6.276   3.808
57967W        W30293  24.498  16.789  11.523
57968W        W30294   6.292  26.553  12.017
57969W        W30295   6.282  36.492  10.503
57970W        W30296  38.998  30.417   0.731
57971W        W30297  10.682  19.111  11.061
57972W        W30298  32.437  25.592   2.307
57973W        W30299  20.570   7.175  14.422
57974W        W30300  34.987   6.369   2.860
57975W        W30301  31.485  18.677   0.320
57976W        W30302   0.873  39.967  14.791
57977W        W30303   3.900   5.437   3.675
57978W        W30304  37.534   4.304   0.852
57979W        W30305   6.797   2.893  13.935
57980W        W30306  20.577  25.000  12.476
57981W        W30307  27.148  30.062   0.759
57982W        W30308  20.198   0.404   2.340
57983W        W30309  30.016  38.911  12.985
57984W        W30310  39.403  32.051   0.409
57985W        W30311  29.998  32.089   2.413
57986W        W30312  17.152  31.538  12.443
57987W        W30313   5.253  13.178  11.494
57988W        W30314  30.513   3.790   1.394
57989W        W30315  39.976  32.501   4.202
57990W        W30316   7.217  42.344  11.589
57991W        W30317  22.540   2.438   4.116
57992W        W30318  10.353  20.584  12.522
57993W        W30319  38.412  20.261  12.397
57994W        W30320  36.474  42.012   0.342
57995W        W30321  35.519  43.912   2.685
57996W        W30322  36.438  35.966   2.798
57997W        W30323  37.469  21.188   5.238
57998W        W30324  31.644  39.877   0.728
57999W        W30325  30.012  32.955   1.933
58000W        W30326   0.449  23.190  14.386
58001W        W30327   6.820  13.699   1.851
58002W        W30328  33.524  37.987   2.815
58003W        W30329  24.688  25.599   0.929
58004W        W30330  37.457  19.533   4.617
58005W        W30331  21.041  36.515  14.368
58006W        W30332  13.147   3.722   1.434
58007W        W30333  33.450   0.405   3.794
58008W        W30334  36.015  30.600  11.069
58009W        W30335  29.065  38.928  14.872
58010W        W30336  42.369  35.447   3.739
58011W        W30337  28.012  37.835   3.740
58012W        W30338  11.858  17.177   4.330
58013W        W30339  37.944  25.473   3.841
58014W        W30340  35.909  22.595   4.702
58015W        W30341  31.989  40.455   3.746
58016W        W30342  19.564  35.420  14.395
58017W        W30343  26.478  24.147   0.964
58018W        W30344  22.165  35.068   2.384
58019W        W30345   4.839  10.162  13.003
58020W        W30346  36.443  24.555   2.260
58021W        W30347   0.386  38.886   0.461
58022W        W30348  22.010  18.706  12.487
58023W        W30349  11.716   2.387  14.925
58024W        W30350  36.382  30.155  14.418
58025W        W30351  24.052  35.903   3.856
58026W        W30352   8.402  37.010  13.368
58027W        W30353  42.939  34.403  11.378
58028W        W30354   5.788  27.977  11.108
58029W        W30355  38.924  36.845  12.449
58030W        W30356  40.314  10.353  10.561
58031W        W30357  28.010  26.963   2.746
58032W        W30358  15.144   9.885   3.183
58033W        W30359  40.372  44.984   1.856
58034W        W30360   7.859  34.381   3.229
58035W        W30361   6.319  44.933   0.416
58036W        W30362   2.301   5.904   4.254
58037W        W30363  29.528  27.053   3.322
58038W        W30364   5.196  10.832  11.915
58039W        W30365  30.491  25.966   0.916
58040W        W30366   9.788  31.940   0.459
58041W        W30367  11.637  36.851  14.315
58042W        W30368  20.609  21.737  12.848
58043W        W30369  21.547   8.183   0.466
58044W        W30370  27.103  10.730   3.320
58045W        W30371  44.305  12.176   2.679
58046W        W30372  43.295  35.087   4.321
58047W        W30373  37.484   7.229   1.425
58048W        W30374  23.082  40.985   4.748
58049W        W30375   4.419  43.383   2.886
58050W        W30376  42.938  44.264  12.041
58051W        W30377  34.577  39.062  13.468
58052W        W30378  33.970  36.924   1.333
58053W        W30379  23.618   1.905   4.822
58054W        W30380  15.778  24.625   2.181
58055W        W30381  22.026   6.396  10.424
58056W        W30382  14.193  34.439  10.584
58057W        W30383   6.695  42.980   4.604
58058W        W30384  42.527  26.164  13.990
58059W        W30385  14.138  41.860   0.899
58060W        W30386   6.856  15.703   1.807
58061W        W30387  39.020  19.752  14.284
58062W        W30388   2.862  36.858   3.809
58063W        W30389  36.900  28.521  13.998
58064W        W30390  34.048  33.402   3.834
58065W        W30391   2.259  39.844   4.322
58066W        W30392  19.225   6.917   0.459
58067W        W30393  17.700  11.828  10.016
58068W        W30394  22.674  22.563   4.231
58069W        W30395  26.958  37.370  11.069
58070W        W30396  17.661   0.250  14.955
58071W        W30397   5.757  28.972   0.734
58072W        W30398  38.841  19.612   5.162
58073W        W30399  22.614  39.929   0.885
58074W        W30400   6.271   7.372  14.953
58075W        W30401  24.576  19.249  14.819
58076W        W30402  15.159  39.939  14.939
58077W        W30403   2.303  34.389  10.463
58078W        W30404   4.815   3.888   3.629
58079W        W30405  30.978  31.459   3.149
58080W        W30406  30.554  10.290   3.649
58081W        W30407  13.234  17.064   1.241
58082W        W30408   7.786  18.558  10.527
58083W        W30409  20.573  30.135   4.657
58084W        W30410  39.006  24.720   0.876
58085W        W30411   6.282  14.751  12.087
58086W        W30412   7.378  39.366  12.054
58087W        W30413  15.605  41.799  10.530
58088W        W30414   9.281  18.754   4.695
58089W        W30415   6.909  23.644  13.981
58090W        W30416  26.973   2.745  12.526
58091W        W30417  25.511   4.372   2.662
58092W        W30418  25.589  39.515   3.199
58093W        W30419  39.350  23.141  12.544
58094W        W30420  20.605  27.490  13.889
58095W        W30421   6.288   0.338  11.985
58096W        W30422  13.213   8.715   5.195
58097W        W30423  32.556  11.307  11.115
58098W        W30424   3.373  11.861  13.964
58099W        W30425  35.002  25.030  14.904
58100W        W30426  28.561  32.896   1.743
58101W        W30427  44.971  13.350   0.854
58102W        W30428  17.584  42.898   3.859
58103W        W30429  39.887  34.069   1.724
58104W        W30430   9.258  27.528  13.992
58105W        W30431  37.963  16.115   1.750
58106W        W30432  23.088  37.415   2.752
58107W        W30433   4.824  37.459  13.369
58108W        W30434  36.549  20.036  13.900
58109W        W30435   9.784   4.805   2.711
58110W        W30436  22.232  17.635   2.898
58111W        W30437   8.280  38.370  11.467
58112W        W30438   5.819   9.348  14.996
58113W        W30439  14.631  32.436   4.820
58114W        W30440   3.924   0.431  14.914
58115W        W30441  19.157  14.269   2.720
58116W        W30442  27.677   6.361   4.207
58117W        W30443  10.784   2.417  11.125
58118W        W30444  15.819  39.546  14.799
58119W        W30445   5.363  11.201  12.986
58120W        W30446  44.875  39.021   4.820
58121W        W30447  20.162  25.179  10.602
58122W        W30448  28.445  13.684   0.746
58123W        W30449  42.454   2.846  13.055
58124W        W30450  25.492  40.923  14.293
58125W        W30451  35.532  14.635  13.311
58126W        W30452   2.379  42.507  13.013
58127W        W30453   4.832  43.329  13.310
58128W        W30454  16.722   4.771  10.482
58129W        W30455  40.905  10.819   2.292
58130W        W30456  29.022   9.333   0.848
58131W        W30457  15.720  41.495  12.088
58132W        W30458  34.982   5.277   3.266
58133W        W30459  19.600  18.273  13.455
58134W        W30460  43.485  14.330  12.405
58135W        W30461  33.990  44.936  12.502
58136W        W30462   8.228   0.446   1.335
58137W        W30463  21.572  17.582   1.427
58138W        W30464  34.921   7.764  13.797
58139W        W30465   8.701   4.765  11.562
58140W        W30466  17.610  29.546   3.346
58141W        W30467   8.804  33.938   4.278
58142W        W30468  37.364  31.011  13.515
58143W        W30469  37.075  22.640   4.725
58144W        W30470   5.258  40.522  13.961
58145W        W30471  10.337  13.116   3.719
58146W        W30472  42.963  43.412   1.838
58147W        W30473  16.096   3.442  14.323
58148W        W30474  30.104  43.925   1.734
58149W        W30475   1.878  32.446   0.391
58150W        W30476  26.025  32.926  14.028
58151W        W30477  15.752   4.243   1.796
58152W        W30478  12.287   8.725   2.385
58153W        W30479  39.005  14.100  13.018
58154W        W30480  25.015  21.582   0.481
58155W        W30481  19.252  34.017  11.954
58156W        W30482  23.215  37.076  11.875
58157W        W30483  11.851  42.849  13.445
58158W        W30484  44.467  30.442   5.102
58159W        W30485  43.790  24.497  14.486
58160W        W30486  16.603  11.844   4.293
58161W        W30487   3.716   5.837  14.937
58162W        W30488  36.447  38.358   3.652
58163W        W30489  40.035  25.695  13.895
58164W        W30490  31.480   7.221   2.742
58165W        W30491  32.094   6.883  10.487
58166W        W30492  28.678  44.893  12.829
58167W        W30493  32.551  19.689   2.686
58168W        W30494  10.727  18.256  14.994
58169W        W30495  30.536   4.752   3.354
58170W        W30496  19.169  39.551  13.801
58171W        W30497  23.713  16.762   4.155
58172W        W30498  19.758   0.903   0.846
58173W        W30499   4.849  21.154  13.404
58174W        W30500   8.224  28.096   1.387
58175W        W30501   4.766   7.784   1.814
58176W        W30502  33.492  23.165  13.445
58177W        W30503  23.009  10.194   3.842
58178W        W30504   6.830  32.634   1.793
58179W        W30505  44.887  15.728  11.035
58180W        W30506  27.001  17.109  11.879
58181W        W30507  27.625  27.074   4.351
58182W        W30508  36.354  14.253  12.084
58183W        W30509  15.231  39.890   0.256
58184W        W30510  39.495   0.987   2.846
58185W        W30511  28.577  27.077   2.221
58186W        W30512  11.339   8.200   3.264
58187W        W30513   8.794  19.119  14.978
58188W        W30514  33.446  32.512   3.767
58189W        W30515  42.818  32.931   2.200
58190W        W30516  16.687   3.242  12.518
58191W        W30517  19.641  40.043  11.490
58192W        W30518   6.886  28.966  12.483
58193W        W30519  40.488  40.500  10.045
58194W        W30520  16.154  21.057  11.900
58195W        W30521  34.481  31.421   2.361
58196W        W30522   2.410  37.442  11.961
58197W        W30523  26.674  30.455  12.897
58198W        W30524  27.162  29.006  14.779
58199W        W30525  31.496  43.991   1.287
58200W        W30526  42.289   7.281  13.507
58201W        W30527  25.573  42.001  11.507
58202W        W30528  11.653  40.476  14.306
58203W        W30529  40.005  13.222  12.970
58204W        W30530  42.999  44.359  11.552
58205W        W30531  35.019  30.011  14.323
58206W        W30532   9.665  31.102   4.211
58207W        W30533  16.686   5.305   4.704
58208W        W30534   5.373  20.097   3.225
58209W        W30535   4.257  23.157  12.896
58210W        W30536  25.577  17.717   2.184
58211W        W30537   4.208   5.301   1.733
58212W        W30538  30.513  27.500  13.453
58213W        W30539   8.671  36.570  11.000
58214W        W30540  43.516  40.913  11.086
58215W        W30541  39.851  10.875   3.194
58216W        W30542  44.964  17.201   2.354
58217W        W30543  37.973  25.503   4.247
58218W        W30544  34.557  38.945   1.790
58219W        W30545   8.735   8.865  10.621
58220W        W30546  11.199   5.794   1.875
58221W        W30547  29.532  10.688  13.528
58222W        W30548  34.953  15.796  14.853
58223W        W30549  20.545  22.510  11.128
58224W        W30550  37.430  31.522   2.282
58225W        W30551  15.212  44.285  13.831
58226W        W30552  22.096  10.781   4.216
58227W        W30553  26.089  39.520  13.400
58228W        W30554  34.599  22.066   2.219
58229W        W30555  39.849  15.739   0.843
58230W        W30556  41.322  36.087  12.032
58231W        W30557  20.193  27.970  12.345
58232W        W30558   9.267  26.585   2.750
58233W        W30559  18.787  21.594  10.545
58234W        W30560  16.685  31.646   0.266
58235W        W30561  42.431  29.990  10.472
58236W        W30562   0.906  23.042   4.771
58237W        W30563  28.511  30.963   0.387
58238W        W30564  13.298  11.233  11.433
58239W        W30565  26.581  41.482  14.765
58240W        W30566   5.352  10.291   3.168
58241W        W30567  41.402   9.741   3.281
58242W        W30568  22.094  30.916  11.925
58243W        W30569   1.848   2.228   2.742
58244W        W30570  23.633  18.726  10.095
58245W        W30571  34.864  12.657   0.260
58246W        W30572  40.813  40.455  13.965
58247W        W30573   9.672  15.719   1.795
58248W        W30574  35.018   4.369  14.285
58249W        W30575  30.929  16.108  11.015
58250W        W30576  44.370  16.114  11.521
58251W        W30577  29.156  42.795  13.454
58252W        W30578  36.504  41.793   0.750
58253W        W30579  14.727   1.310   1.431
58254W        W30580  24.186   7.850   1.274
58255W        W30581  30.646  25.166  12.473
58256W        W30582  40.530  17.264  14.910
58257W        W30583  28.957   7.696   2.261
58258W        W30584  16.718  11.640  12.862
58259W        W30585  41.805  33.487  13.374
58260W        W30586   4.861   5.345  12.503
58261W        W30587  29.647  42.481   4.659
58262W        W30588  28.000  35.430   2.314
58263W        W30589  19.200   9.189   2.734
58264W        W30590  37.399   1.842   2.715
58265W        W30591   4.819  23.080  12.839
58266W        W30592   9.796  10.221  11.945
58267W        W30593  25.083  43.270  10.910
58268W        W30594  17.153   1.772   0.409
58269W        W30595  23.565   3.872   2.799
58270W        W30596  39.860  38.924   4.215
58271W        W30597  29.436  25.016  12.391
58272W        W30598  24.699  34.371   1.217
58273W        W30599  28.435   0.276   4.673
58274W        W30600   3.804  23.011   3.153
58275W        W30601  12.258  23.502   3.755
58276W        W30602  10.313  43.347  10.559
58277W        W30603  30.085  21.715   0.428
58278W        W30604  31.507  29.139  14.292
58279W        W30605  27.465  21.054  10.581
58280W        W30606  23.566  24.664   3.255
58281W        W30607  34.460  13.727  14.844
58282W        W30608   1.467  21.710   5.632
58283W        W30609   1.872  16.801  12.520
58284W        W30610  15.146  43.817  13.866
58285W        W30611  30.453   1.769   3.300
58286W        W30612  22.097  23.712  11.022
58287W        W30613  41.888  41.325   9.927
58288W        W30614  35.870  29.018  12.401
58289W        W30615   3.349  16.644  10.152
58290W        W30616  19.144  25.666   0.856
58291W        W30617  23.116   1.408   2.237
58292W        W30618  14.165  23.547  14.786
58293W        W30619  20.211  37.067  12.966
58294W        W30620   9.769  16.310   3.358
58295W        W30621  36.351  24.715   4.697
58296W        W30622  29.589  33.588   0.880
58297W        W30623  28.599  21.617   1.366
58298W        W30624  26.084  24.141  13.473
58299W        W30625  13.637  42.313   0.279
58300W        W30626  41.823  25.577   0.310
58301W        W30627   9.752  19.591  12.027
58302W        W30628  38.379  41.452  10.405
58303W        W30629  12.337  21.171  13.862
58304W        W30630  37.499  38.464   4.289
58305W        W30631  22.197  10.694   4.696
58306W        W30632  16.095   4.740  13.855
58307W        W30633  19.072  41.913  13.946
58308W        W30634  18.779   1.765   3.681
58309W        W30635  16.730  17.249   3.802
58310W        W30636  12.662  11.341  13.844
58311W        W30637   3.274  37.371  13.443
58312W        W30638  31.048  37.438  11.470
58313W        W30639  13.266   0.955   1.910
58314W        W30640   2.451   3.922   2.750
58315W        W30641  23.518  26.552   4.125
58316W        W30642  11.174  10.729  11.612
58317W        W30643  36.365  28.077  13.406
58318W        W30644  43.019  23.718   3.321
58319W        W30645  27.066  26.581   3.290
58320W        W30646  35.882  28.535  14.895
58321W        W30647  18.184   0.912  11.058
58322W        W30648  40.495   8.302  14.759
58323W        W30649   8.853   5.914   3.306
58324W        W30650   3.898  37.467   1.863
58325W        W30651   8.842  18.574  14.847
58326W        W30652  21.685  14.779   1.412
58327W        W30653  22.554  40.043   1.920
58328W        W30654  38.912  39.012   0.478
58329W        W30655  35.934   2.916   3.785
58330W        W30656  18.277  21.176   3.383
58331W        W30657   3.917  15.248   1.900
58332W        W30658  36.424   3.803   1.426
58333W        W30659  21.056   9.792  12.537
58334W        W30660   4.863  20.204   3.357
58335W        W30661   7.369   5.852   4.233
58336W        W30662  24.513  44.913  13.443
58337W        W30663  35.381  43.786   3.224
58338W        W30664  10.194  26.180   2.280
58339W        W30665  36.396  32.114  12.533
58340W        W30666  38.986  23.022  13.353
58341W        W30667  11.856  24.700  14.308
58342W        W30668  19.622  40.465  14.915
58343W        W30669   4.282  24.660  11.910
58344W        W30670  17.166  30.468  13.307
58345W        W30671  11.758  38.034   0.259
58346W        W30672  16.802   1.414  11.066
58347W        W30673  34.539   6.405   0.866
58348W        W30674  26.057  31.086   1.366
58349W        W30675  44.798  36.563  12.849
58350W        W30676  17.679  12.716   4.202
58351W        W30677  41.300  18.194   1.281
58352W        W30678   5.391  37.042  12.035
58353W        W30679  12.240  43.901  11.511
58354W        W30680   0.403  26.463  12.369
58355W        W30681  41.900  18.078   4.240
58356W        W30682  25.082  13.734  13.860
58357W        W30683  21.179  29.650  12.516
58358W        W30684  28.617  31.440   4.353
58359W        W30685  41.867  14.152   0.404
58360W        W30686  14.095  15.587   4.652
58361W        W30687  22.013  25.134   0.771
58362W        W30688  16.187   5.739   3.200
58363W        W30689   7.777  16.698   4.128
58364W        W30690  40.941  36.532   0.296
58365W        W30691  25.166  10.184   2.799
58366W        W30692  15.208   5.212   2.186
58367W        W30693   5.847   7.275  14.339
58368W        W30694  38.032  42.983  13.890
58369W        W30695  28.498  37.483   4.656
58370W        W30696   1.464  34.884   1.932
58371W        W30697  33.078  24.112  14.351
58372W        W30698  10.166   6.324   1.426
58373W        W30699  11.633  36.357  11.538
58374W        W30700   9.185  30.447  13.456
58375W        W30701  29.644  20.110  12.876
58376W        W30702   5.334  23.695   2.372
58377W        W30703  12.330   2.328   0.425
58378W        W30704  41.350  37.570  13.045
58379W        W30705  32.630  19.664  12.082
58380W        W30706  40.436  36.437  10.479
58381W        W30707  22.240  42.810   4.690
58382W        W30708   3.865  40.996  13.451
58383W        W30709  18.210   6.741  10.980
58384W        W30710  35.520  40.405   4.193
58385W        W30711   1.430  13.288   1.410
58386W        W30712   9.215  10.154  13.956
58387W        W30713  14.719   3.246  12.455
58388W        W30714  33.979  12.658  11.431
58389W        W30715  18.754  27.944  14.980
58390W        W30716  13.814  24.719   3.870
58391W        W30717  12.762   2.797   2.718
58392W        W30718   4.254  21.111   0.774
58393W        W30719  35.958  34.995   1.926
58394W        W30720  22.239  38.066  14.852
58395W        W30721  18.776  26.560  13.534
58396W        W30722   6.680  19.212   0.735
58397W        W30723  37.876  42.033   3.742
58398W        W30724  38.513   7.211   0.908
58399W        W30725  37.024   7.371  12.346
58400W        W30726  23.499  30.926   2.896
58401W        W30727  17.154   2.904   4.647
58402W        W30728  25.153   3.329  13.937
58403W        W30729  42.354  27.607   1.859
58404W        W30730  39.404  33.914   0.862
58405W        W30731  10.640  17.073   0.939
58406W        W30732  17.144  41.406   3.754
58407W        W30733  19.648  29.102   0.403
58408W        W30734  36.354  13.308   3.284
58409W        W30735  13.687  15.299  14.354
58410W        W30736  37.365   4.398  10.052
58411W        W30737  21.637  32.586  14.818
58412W        W30738  40.528  25.701   3.778
58413W        W30739   4.728  42.348  14.759
58414W        W30740   7.850  21.706  10.413
58415W        W30741  32.948   3.742  14.304
58416W        W30742  19.651  15.753   1.729
58417W        W30743  20.632   4.744  13.324
58418W        W30744  44.008  16.249  13.316
58419W        W30745  34.047  10.725   1.217
58420W        W30746  14.642   0.338   0.454
58421W        W30747  33.000  19.602   0.830
58422W        W30748  26.550  32.968   0.726
58423W        W30749   4.367   7.748  11.573
58424W        W30750   8.378  13.648  12.511
58425W        W30751  15.766  44.995  10.465
58426W        W30752  14.326  35.508   0.756
58427W        W30753   3.360  17.255  14.408
58428W        W30754   4.304  25.186   3.241
58429W        W30755  37.077  41.415   1.359
58430W        W30756  32.502  29.528  12.983
58431W        W30757   8.770  13.715  11.052
58432W        W30758  38.470  32.570   0.761
58433W        W30759   4.321  20.208  14.853
58434W        W30760  34.039  11.237  14.338
58435W        W30761  18.099   2.237  12.021
58436W        W30762   0.832  26.145   0.387
58437W        W30763  38.383  42.372  10.622
58438W        W30764  30.088  22.216   2.862
58439W        W30765  34.918  21.019  12.364
58440W        W30766  38.384  33.115  10.498
58441W        W30767  36.575  24.152   2.663
58442W        W30768  23.146  44.335   2.683
58443W        W30769  44.783  21.563   4.605
58444W        W30770   4.430  11.178   9.927
58445W        W30771  30.016  21.757   1.870
58446W        W30772   8.876   8.249   1.764
58447W        W30773  28.015  33.585  13.412
58448W        W30774  15.269  29.650  13.972
58449W        W30775  42.318  27.689   3.290
58450W        W30776  28.624   1.444   1.696
58451W        W30777  15.699  37.425   1.320
58452W        W30778  17.616  38.389   1.907
58453W        W30779  13.830   4.250   3.282
58454W        W30780  23.626   7.305  11.031
58455W        W30781  35.959   4.713  14.414
58456W        W30782  21.080  37.864   0.878
58457W        W30783  41.830  11.690   4.319
58458W        W30784  19.076   9.700  10.609
58459W        W30785  34.969  18.714  11.104
58460W        W30786  33.620  29.480  13.503
58461W        W30787   7.808   4.827  10.405
58462W        W30788   9.239  29.087   0.468
58463W        W30789  12.719  22.100  14.879
58464W        W30790  43.393  12.299  12.068
58465W        W30791   0.964  14.768   2.772
58466W        W30792   7.847   0.841  14.422
58467W        W30793  40.350   5.246  14.975
58468W        W30794  11.757  25.629   2.416
58469W        W30795  41.848  35.924   1.931
58470W        W30796  24.591  31.617   3.703
58471W        W30797  27.645  34.525   1.815
58472W        W30798  18.280  18.070   3.749
58473W        W30799  11.858  34.888  11.880
58474W        W30800  38.929  42.808   2.196
58475W        W30801  31.535  38.072  10.438
58476W        W30802  25.134  35.989  12.512
58477W        W30803  38.516  22.634  13.850
58478W        W30804  30.987  38.401  14.011
58479W        W30805  30.122  36.003  10.563
58480W        W30806  13.753   9.886   3.868
58481W        W30807  41.041  43.414   3.357
58482W        W30808  10.782   2.433   3.193
58483W        W30809  16.574  17.622   4.260
58484W        W30810  30.468  13.246   2.285
58485W        W30811  34.962  25.108  12.408
58486W        W30812  17.133  35.929   9.940
58487W        W30813  17.146  35.978  10.973
58488W        W30814  35.980  25.486   2.259
58489W        W30815  23.622  15.201  12.341
58490W        W30816   6.850  16.217   1.897
58491W        W30817  43.789   7.253  13.984
58492W        W30818  32.994  31.533  12.441
58493W        W30819  32.022   3.917   4.604
58494W        W30820  11.204   4.327   3.387
58495W        W30821  25.679  35.922   1.858
58496W        W30822  11.660  16.749  10.420
58497W        W30823  39.525  12.738  14.321
58498W        W30824   2.807  15.278   1.244
58499W        W30825  27.976   4.380  11.410
58500W        W30826  32.114  36.054  14.358
58501W        W30827  43.972  12.205   0.886
58502W        W30828  33.547   5.423   3.360
58503W        W30829  34.602  21.622  11.921
58504W        W30830  10.312  40.851   3.656
58505W        W30831  31.011  33.905   1.214
58506W        W30832  19.611  30.560   3.720
58507W        W30833   6.261   4.794  10.450
58508W        W30834  18.549  33.443   2.696
58509W        W30835  41.803  20.054  11.448
58510W        W30836  38.053  28.976   0.761
58511W        W30837  25.011  18.068   2.837
58512W        W30838   1.387   4.846  13.334
58513W        W30839  21.199  26.121   4.127
58514W        W30840  29.600   8.737   1.246
58515W        W30841  11.343  18.667  14.515
58516W        W30842  14.762  24.980  14.318
58517W        W30843  29.062  37.878  14.389
58518W        W30844  41.035  26.109  11.886
58519W        W30845  36.472  10.670   4.740
58520W        W30846  16.582  36.994  13.011
58521W        W30847  42.445  32.003  11.101
58522W        W30848  23.212  22.135  10.468
58523W        W30849  20.216  11.699  12.490
58524W        W30850   5.428  18.605   3.774
58525W        W30851  39.415  36.358  14.401
58526W        W30852  44.285  14.594  14.818
58527W        W30853   8.346   5.221   0.885
58528W        W30854  29.965  35.482   3.783
58529W        W30855  16.749   4.743  14.892
58530W        W30856  30.526  16.236   2.268
58531W        W30857  28.540  30.139  13.359
58532W        W30858  41.948  22.023  13.460
58533W        W30859  16.571  20.075   2.763
58534W        W30860  38.353  21.232   1.412
58535W        W30861   1.319  43.892  13.501
58536W        W30862  40.033  36.507   0.304
58537W        W30863  27.495  26.485   0.333
58538W        W30864   8.231  36.559  10.914
58539W        W30865  15.195  29.556   0.815
58540W        W30866  42.780  14.180   0.891
58541W        W30867   0.425  19.115  11.868
58542W        W30868  25.148  20.272   4.338
58543W        W30869   4.335  11.187   0.416
58544W        W30870   0.783  11.158  11.533
58545W        W30871  39.524  29.024   1.303
58546W        W30872  14.308  25.551   0.754
58547W        W30873   3.394   2.812   2.804
58548W        W30874  28.642  35.490   0.271
58549W        W30875  25.161  20.766  12.038
58550W        W30876  27.520  43.362   0.853
58551W        W30877  36.096  43.440  11.438
58552W        W30878  40.846   7.393  14.278
58553W        W30879  28.093  12.685  12.915
58554W        W30880  24.145  17.793   3.351
58555W        W30881  17.077  26.009  11.518
58556W        W30882  44.787  30.962  11.556
58557W        W30883  35.103  31.948  11.949
58558W        W30884   5.365  38.950   9.926
58559W        W30885  21.592  26.697   2.673
58560W        W30886   6.900  38.046   1.699
58561W        W30887   3.903  14.832  13.861
58562W        W30888  43.417  36.361   3.158
58563W        W30889  29.653  42.910  13.005
58564W        W30890  14.215  25.984   9.543
58565W        W30891  22.705  28.514  13.509
58566W        W30892  22.659   0.259  14.872
58567W        W30893  10.343   6.259   5.130
58568W        W30894  17.190   8.236   1.750
58569W        W30895  10.663  16.639   2.275
58570W        W30896   9.787   6.236   0.797
58571W        W30897  10.364  27.576  13.896
58572W        W30898  21.218  31.443   1.216
58573W        W30899  42.351   6.871   3.188
58574W        W30900  37.006  21.582  11.093
58575W        W30901   9.186  18.682  14.452
58576W        W30902  18.216  43.015   1.742
58577W        W30903  28.098  11.841  13.854
58578W        W30904   4.236  32.411   0.372
58579W        W30905  28.487  19.770   2.409
58580W        W30906  37.840  31.589   3.330
58581W        W30907  16.803   9.855   0.418
58582W        W30908  35.509  15.807   4.789
58583W        W30909   5.415   9.187  11.606
58584W        W30910  37.499  28.142  13.403
58585W        W30911  16.740  32.627   1.916
58586W        W30912  37.382  13.691   2.806
58587W        W30913   9.870  11.307  14.008
58588W        W30914  41.535  31.572  12.049
58589W        W30915   3.768  36.500   1.920
58590W        W30916  36.909  15.139   4.746
58591W        W30917  30.982  29.935  13.520
58592W        W30918  36.967  27.647  10.987
58593W        W30919  21.569  17.168  12.995
58594W        W30920  18.198  40.043  13.440
58595W        W30921  35.059  12.713  12.862
58596W        W30922  11.800  25.097  14.827
58597W        W30923  26.600  15.720   1.759
58598W        W30924  38.504  24.520  14.319
58599W        W30925   5.283  29.499  11.496
58600W        W30926  17.626  19.277   1.927
58601W        W30927  38.339  18.731  14.924
58602W        W30928  13.799   7.192  11.428
58603W        W30929  18.264  26.101  13.989
58604W        W30930  21.113  16.122  11.919
58605W        W30931  38.488  24.203  14.909
58606W        W30932  20.600  34.097  14.346
58607W        W30933   7.223  42.893  13.871
58608W        W30934  43.842  43.317   1.406
58609W        W30935  38.419  29.142  10.967
58610W        W30936   8.328  18.210   2.368
58611W        W30937   5.336   8.252   0.860
58612W        W30938  15.597   4.367  14.880
58613W        W30939   3.716  12.207   0.754
58614W        W30940  26.163  12.673  11.425
58615W        W30941  29.053  29.946   2.286
58616W        W30942   1.452  14.147   2.662
58617W        W30943   6.887  14.675   4.726
58618W        W30944  15.150  29.458  11.448
58619W        W30945  23.073  43.494  10.638
58620W        W30946  38.866  37.349   1.887
58621W        W30947   8.670  13.341   2.272
58622W        W30948  27.601   2.343  14.836
58623W        W30949   2.735   8.390  10.971
58624W        W30950  32.569  15.112   0.745
58625W        W30951   1.279  20.137   4.645
58626W        W30952  38.402  43.410  14.500
58627W        W30953  25.054  35.907   3.648
58628W        W30954   7.362  44.849  11.519
58629W        W30955  38.414  15.732   1.379
58630W        W30956  12.822  44.980  12.036
58631W        W30957   0.762  24.103  12.946
58632W        W30958  42.474  11.814  13.990
58633W        W30959  31.623  12.141   3.755
58634W        W30960  15.684  23.707  14.826
58635W        W30961  43.865  37.054   2.338
58636W        W30962  37.463   2.304  11.066
58637W        W30963  36.057  10.654  11.889
58638W        W30964  18.619   3.244  12.520
58639W        W30965  40.970  37.079   3.831
58640W        W30966  24.642  25.077   0.912
58641W        W30967  43.917  21.532   1.245
58642W        W30968  24.570   2.935   2.772
58643W        W30969  10.296  36.090   3.869
58644W        W30970  31.000  34.610   2.283
58645W        W30971  20.623  43.889   1.384
58646W        W30972  29.092  16.714  11.543
58647W        W30973  30.657   6.732   0.396
58648W        W30974  42.327   7.322  10.598
58649W        W30975   2.732   5.814  14.000
58650W        W30976   4.772  17.108  12.404
58651W        W30977   1.292  14.786  12.500
58652W        W30978  10.715  29.521  12.464
58653W        W30979  36.869   4.335  14.471
58654W        W30980  33.459  40.369   9.971
58655W        W30981  17.137  25.571  13.312
58656W        W30982  35.997  41.325  12.530
58657W        W30983   4.424  25.977   2.286
58658W        W30984  21.720  21.216   4.733
58659W        W30985   2.760   0.271   4.720
58660W        W30986  40.899  34.551  12.495
58661W        W30987  31.947   5.738   0.315
58662W        W30988  11.180   6.803  12.995
58663W        W30989  19.046  35.538   2.880
58664W        W30990   3.446   0.438  14.919
58665W        W30991   6.419   5.314   4.248
58666W        W30992   4.247   9.789  10.970
58667W        W30993  12.648  39.902   1.262
58668W        W30994  22.726  31.440   4.318
58669W        W30995  27.534  25.535  14.971
58670W        W30996  14.802  28.955   2.742
58671W        W30997  10.729  23.156   0.388
58672W        W30998  23.503  44.438   2.836
58673W        W30999  24.595  24.192   0.877
58674W        W31000  23.725  22.514   3.326
58675W        W31001   7.265  28.091  13.887
58676W        W31002  27.469  24.025  14.300
58677W        W31003  30.949  29.148  11.056
58678W        W31004  21.553   7.688  12.898
58679W        W31005  28.655  10.236   3.214
58680W        W31006  15.099  35.447   2.192
58681W        W31007  30.987  44.894   1.353
58682W        W31008  38.357  27.080   1.260
58683W        W31009   2.412   6.401  11.098
58684W        W31010  18.151  35.545   2.341
58685W        W31011  42.524   8.819  11.920
58686W        W31012  21.737  33.092   3.701
58687W        W31013  29.596   8.186   1.793
58688W        W31014  19.766   6.701   3.631
58689W        W31015  27.496  29.543   4.137
58690W        W31016  42.515  33.614   0.251
58691W        W31017  21.749   9.885   3.710
58692W        W31018  27.149   2.378  14.849
58693W        W31019  31.132  28.588  11.022
58694W        W31020  11.204  22.245   1.290
58695W        W31021  33.078  40.473  10.619
58696W        W31022   3.722  36.016  12.453
58697W        W31023  10.308  32.457   0.333
58698W        W31024   8.190   3.279  13.337
58699W        W31025  35.991  24.180   3.721
58700W        W31026  23.177  20.160   3.780
58701W        W31027  11.679  24.630  12.077
58702W        W31028   7.821  30.647  11.410
58703W        W31029  23.499  44.970   0.764
58704W        W31030  44.371  39.871   0.873
58705W        W31031  34.564  41.535  14.943
58706W        W31032  26.013  43.890  13.905
58707W        W31033  43.770  18.237   1.368
58708W        W31034   4.824  38.358   0.838
58709W        W31035  39.039   1.829   4.759
58710W        W31036  30.530  24.579  13.795
58711W        W31037  21.679  40.927  11.882
58712W        W31038  26.640  21.701   0.455
58713W        W31039   1.861   0.922   0.344
58714W        W31040  16.212  10.805  13.806
58715W        W31041  18.785   9.384   0.743
58716W        W31042   5.423  32.576  13.467
58717W        W31043   9.822  10.197  10.620
58718W        W31044  15.729  34.962   4.265
58719W        W31045  15.260  21.590  14.445
58720W        W31046  36.018  15.184   0.313
58721W        W31047  35.592  27.972   0.406
58722W        W31048  43.850  24.036   1.405
58723W        W31049  18.053   9.376  10.499
58724W        W31050  31.604  17.099   0.308
58725W        W31051  32.632  20.241  14.429
58726W        W31052   4.415  13.162   3.154
58727W        W31053  23.001  11.352  10.619
58728W        W31054   4.344  18.699   4.618
58729W        W31055   8.788  42.023   3.193
58730W        W31056  41.862  17.189   3.669
58731W        W31057   5.744  14.595   3.251
58732W        W31058   5.893  18.613  14.300
58733W        W31059  33.916   4.778   3.345
58734W        W31060   3.403  36.577   4.734
58735W        W31061  26.000  35.432   1.379
58736W        W31062   8.797  23.130   2.836
58737W        W31063  33.613  31.984  13.472
58738W        W31064   1.456  33.528  14.923
58739W        W31065  29.597  36.385   2.699
58740W        W31066  24.515   0.468   1.855
58741W        W31067  26.592  25.003  14.903
58742W        W31068  14.743   5.837  12.413
58743W        W31069  10.708   1.296   1.844
58744W        W31070  12.646  14.632  12.038
58745W        W31071   2.892  21.072   5.571
58746W        W31072  43.008  37.920   4.127
58747W        W31073  10.764   5.780  12.977
58748W        W31074  12.792  15.133  12.512
58749W        W31075  26.606  15.238   1.754
58750W        W31076  18.694  40.308  10.586
58751W        W31077  41.433  26.522   3.681
58752W        W31078   5.787   7.261  11.873
58753W        W31079  32.012   9.696  11.985
58754W        W31080  36.856   1.819  12.951
58755W        W31081  40.876  17.250  14.347
58756W        W31082  24.587  12.611  13.396
58757W        W31083  40.428  23.675  12.345
58758W        W31084  26.509  41.414   3.694
58759W        W31085  18.682  10.258  11.090
58760W        W31086  28.110  32.596  11.561
58761W        W31087  40.932  42.811   4.338
58762W        W31088  12.699   4.314  13.849
58763W        W31089  24.195   9.185   4.347
58764W        W31090  38.496   0.988  11.435
58765W        W31091  44.373  25.095   3.195
58766W        W31092  23.113  44.392  10.561
58767W        W31093   6.813   0.408  13.000
58768W        W31094   1.741  21.512   5.249
58769W        W31095   1.359   1.451   2.754
58770W        W31096  39.498  37.933  13.358
58771W        W31097  37.873  10.257  10.894
58772W        W31098   0.473  41.421   3.769
58773W        W31099  24.602  37.460   1.776
58774W        W31100  35.372  14.701   4.282
58775W        W31101   4.396  38.562   0.746
58776W        W31102  29.423  28.660   1.247
58777W        W31103   5.409   7.899  13.458
58778W        W31104   7.378  35.074   2.683
58779W        W31105  24.990  39.847  11.409
58780W        W31106  44.409  42.353   0.476
58781W        W31107  41.338  37.914  13.548
58782W        W31108  34.452  44.817   3.322
58783W        W31109   6.816   7.206  14.301
58784W        W31110  31.087  17.206   2.333
58785W        W31111  30.909  14.720  13.457
58786W        W31112  20.606  33.097   1.317
58787W        W31113  30.118  13.268  10.575
58788W        W31114  41.329  20.137  13.405
58789W        W31115  29.991  41.851  12.868
58790W        W31116   4.909  38.967  13.467
58791W        W31117  24.591  36.559  13.035
58792W        W31118  34.528  24.204   1.253
58793W        W31119  23.144  16.686   2.797
58794W        W31120  23.562  26.182   0.437
58795W        W31121  19.666  39.502   1.861
58796W        W31122   7.192  41.400   4.742
58797W        W31123  13.684  18.214   2.398
58798W        W31124  42.391  13.645   3.197
58799W        W31125  38.970   5.867   0.767
58800W        W31126  17.764   0.950   3.670
58801W        W31127  22.528   8.820   3.778
58802W        W31128   9.267  37.891  13.873
58803W        W31129   2.450   1.949   9.456
58804W        W31130   1.247  19.160  10.480
58805W        W31131  18.192   4.380   4.698
58806W        W31132  43.842  30.574  11.520
58807W        W31133  43.791  30.560  14.873
58808W        W31134   3.854  22.669  13.424
58809W        W31135  41.398  44.959  13.912
58810W        W31136  17.596  13.232   3.379
58811W        W31137  19.632  36.026  11.977
58812W        W31138  24.704  38.881  12.075
58813W        W31139   0.320  35.020  12.465
58814W        W31140  36.012  44.337  11.128
58815W        W31141  38.030  10.789  11.520
58816W        W31142   1.462  13.670  14.350
58817W        W31143  25.040  24.091  13.978
58818W        W31144  43.841  12.641  10.944
58819W        W31145  33.939  14.100  13.391
58820W        W31146  44.412  17.569   1.349
58821W        W31147  16.238  24.118  11.930
58822W        W31148  43.916  19.731  13.910
58823W        W31149  32.413  37.837   3.175
58824W        W31150  42.943  12.255   3.161
58825W        W31151  30.446   4.427   0.731
58826W        W31152   9.853  21.186  13.973
58827W        W31153  21.163   6.209  13.351
58828W        W31154  30.576   5.393  12.985
58829W        W31155  28.032  41.948  11.535
58830W        W31156  36.592  20.629  12.858
58831W        W31157  43.490  21.611   3.791
58832W        W31158   4.925   3.403  10.075
58833W        W31159  43.957   3.405   3.787
58834W        W31160  33.113  20.170  13.349
58835W        W31161  29.942  44.444  12.958
58836W        W31162  42.527   6.698  10.558
58837W        W31163  42.940  40.013  11.902
58838W        W31164  15.818  44.968  14.961
58839W        W31165  43.275   1.818   2.334
58840W        W31166   6.202  23.137  10.438
58841W        W31167  15.234  16.196  14.773
58842W        W31168  33.101  25.628  11.423
58843W        W31169  30.640  32.927  12.447
58844W        W31170  43.939  19.088  13.408
58845W        W31171   4.416  23.577   2.676
58846W        W31172  38.546  19.190  13.444
58847W        W31173  29.445  26.172   4.781
58848W        W31174  11.783  22.205  13.350
58849W        W31175  40.337  12.719   1.397
58850W        W31176  13.682  24.218  14.872
58851W        W31177  41.807  17.637   3.857
58852W        W31178  38.049  36.438   4.276
58853W        W31179  12.618   7.241   1.335
58854W        W31180  23.104  27.106  10.967
58855W        W31181  21.153  28.023   1.765
58856W        W31182  14.642  11.270   3.668
58857W        W31183  34.897  31.536  12.460
58858W        W31184   4.441  37.017  12.339
58859W        W31185  36.359  24.206   3.245
58860W        W31186  25.579  38.881  12.988
58861W        W31187  31.131  16.736  12.049
58862W        W31188  25.488  38.867   3.165
58863W        W31189  26.040  44.493  12.965
58864W        W31190  36.437  41.444   0.412
58865W        W31191   0.784   7.413   5.151
58866W        W31192  12.763  43.989  10.910
58867W        W31193   0.303  37.860   3.822
58868W        W31194   7.262  19.571  10.530
58869W        W31195  29.082  39.971   1.221
58870W        W31196  26.477  17.081  11.921
58871W        W31197  25.483  15.684   3.155
58872W        W31198   7.379  17.152  12.514
58873W        W31199  44.812  41.338  14.947
58874W        W31200  38.554  19.695   4.245
58875W        W31201  23.132  33.012   2.293
58876W        W31202  17.155  34.474  11.097
58877W        W31203  35.044  29.438  14.805
58878W        W31204  31.639  13.840  11.550
58879W        W31205  42.905  21.595  14.487
58880W        W31206  27.162  29.658   3.856
58881W        W31207  28.084  30.539   1.795
58882W        W31208  27.167  31.511  10.491
58883W        W31209  16.106  37.838  14.314
58884W        W31210  10.718  22.744   4.334
58885W        W31211  20.119  39.889   2.373
58886W        W31212   7.403  37.069   3.157
58887W        W31213  25.987  16.569   1.805
58888W        W31214  13.686   8.163   3.812
58889W        W31215  13.686  20.540   3.661
58890W        W31216  23.218  35.527  14.868
58891W        W31217  42.519   6.193   3.820
58892W        W31218  24.187   1.417  11.874
58893W        W31219  18.769  42.815  14.340
58894W        W31220  35.473  10.274   3.344
58895W        W31221  12.690  33.381  12.559
58896W        W31222  12.806  24.563   9.537
58897W        W31223   8.862  25.106   1.930
58898W        W31224  17.605  19.678  11.945
58899W        W31225  17.718  12.163  13.427
58900W        W31226   2.261  25.685  13.471
58901W        W31227  15.795  33.501   3.379
58902W        W31228  11.184   6.706   0.898
58903W        W31229  37.438  23.579   3.818
58904W        W31230   2.850  19.546   0.753
58905W        W31231  33.579   0.271  13.513
58906W        W31232  28.158  24.998   3.168
58907W        W31233  37.347  19.680   3.652
58908W        W31234  22.135  22.077  11.873
58909W        W31235  18.774  13.216   4.286
58910W        W31236  10.339   1.331  12.969
58911W        W31237  12.236  23.710  10.146
58912W        W31238  23.615  14.752  11.008
58913W        W31239  23.699  37.461   0.747
58914W        W31240   0.796  13.149  13.978
58915W        W31241  28.938  13.691  12.477
58916W        W31242  17.211  43.804  12.911
58917W        W31243   7.292   2.860  12.432
58918W        W31244   6.271   5.759   1.706
58919W        W31245  23.082  12.284   0.356
58920W        W31246  17.802  35.004  12.564
58921W        W31247   4.445  32.936   2.199
58922W        W31248   0.359  16.289   1.734
58923W        W31249  23.592  21.649   4.235
58924W        W31250  21.233  31.139  13.016
58925W        W31251   7.220   0.439  13.448
58926W        W31252  17.652  21.138  12.838
58927W        W31253   0.275  20.635   2.341
58928W        W31254   6.868  19.580   0.464
58929W        W31255  23.632  11.854  11.880
58930W        W31256  41.517  11.747   1.698
58931W        W31257   6.734   7.695   2.894
58932W        W31258  34.089   7.255  11.525
58933W        W31259  34.411  41.987  14.817
58934W        W31260   5.749  20.655   2.410
58935W        W31261  28.595  16.723   4.813
58936W        W31262  15.692  18.262  10.922
58937W        W31263   7.683  24.594   0.322
58938W        W31264  14.237  32.092   1.882
58939W        W31265   0.771  23.104  12.438
58940W        W31266  12.761   8.394   2.890
58941W        W31267  43.423   9.216   4.828
58942W        W31268   6.826  38.473  14.934
58943W        W31269  44.354  20.147  13.539
58944W        W31270  39.555  16.110   3.159
58945W        W31271  15.160  10.207   0.436
58946W        W31272   6.385  30.071   1.418
58947W        W31273  27.558  30.154   2.290
58948W        W31274  39.971  25.014   4.320
58949W        W31275  26.162  39.913  13.469
58950W        W31276   3.816   8.896   0.858
58951W        W31277  17.780   5.792   3.781
58952W        W31278  10.750   8.202  14.953
58953W        W31279  20.678  16.120  13.338
58954W        W31280  10.654  34.454   3.772
58955W        W31281  41.475  22.611  11.593
58956W        W31282  36.552  18.254   1.211
58957W        W31283  21.145  19.189   4.827
58958W        W31284  37.581  20.768  11.375
58959W        W31285  12.198  26.630  11.061
58960W        W31286   8.695  23.064   3.380
58961W        W31287   3.889  32.505   0.853
58962W        W31288  28.173  41.955  12.068
58963W        W31289  21.713  40.033  13.382
58964W        W31290  32.049   6.734  12.917
58965W        W31291  29.128   7.862  14.910
58966W        W31292  32.552  12.734   2.748
58967W        W31293   5.343  20.187   0.285
58968W        W31294   3.359  30.626   3.333
58969W        W31295  35.942  27.050  13.021
58970W        W31296   0.916  26.600   0.915
58971W        W31297  29.150  16.158   3.169
58972W        W31298  41.894  21.586   2.845
58973W        W31299  31.496  36.523   1.395
58974W        W31300  19.078  35.388  14.833
58975W        W31301  21.065  22.572  11.527
58976W        W31302  27.631   8.728   2.224
58977W        W31303  29.557   3.898  10.487
58978W        W31304  38.056  28.522   4.206
58979W        W31305  40.799  41.301  12.993
58980W        W31306  38.039  35.910   2.306
58981W        W31307  22.589  41.027   0.908
58982W        W31308   4.707  34.887  11.034
58983W        W31309   7.181  37.993  13.532
58984W        W31310  13.236  12.779   1.247
58985W        W31311  22.547   6.809  12.056
58986W        W31312  23.689  42.298   4.325
58987W        W31313   4.914  19.659  13.501
58988W        W31314  17.294  26.473  14.419
58989W        W31315  26.557  18.693  11.437
58990W        W31316  26.524  16.736   2.340
58991W        W31317   5.203  11.287  14.928
58992W        W31318   8.247  18.170   1.243
58993W        W31319  40.836  34.076   0.898
58994W        W31320   6.246  34.930  12.962
58995W        W31321  21.698   4.734   0.830
58996W        W31322  23.664  25.017   3.225
58997W        W31323  44.271  30.086  11.101
58998W        W31324  29.577  39.489  13.390
58999W        W31325  28.491  35.973   2.375
59000W        W31326  26.157  25.644  14.028
59001W        W31327  37.932  43.278   1.867
59002W        W31328   1.265  18.749   2.196
59003W        W31329   3.219  27.999  11.378
59004W        W31330  16.760  43.361  12.363
59005W        W31331  11.338  28.101  14.308
59006W        W31332  38.030   8.403  12.909
59007W        W31333  10.640  42.350   2.825
59008W        W31334  34.970  30.140  12.897
59009W        W31335   6.190  36.884  13.416
59010W        W31336  36.409   5.700  12.863
59011W        W31337  18.613  11.308  11.932
59012W        W31338  18.790  14.760  10.911
59013W        W31339  42.923  21.124  10.485
59014W        W31340  31.978  30.607   0.417
59015W        W31341  43.960  35.030  12.947
59016W        W31342  33.934  43.485   4.181
59017W        W31343   4.808   5.768  12.092
59018W        W31344  38.822  29.597  10.983
59019W        W31345  32.455  20.187   3.819
59020W        W31346  39.374  21.598   0.837
59021W        W31347  44.445  24.710   3.174
59022W        W31348  14.644  25.713   3.153
59023W        W31349   6.383  24.061   2.376
59024W        W31350   5.804  25.101  11.518
59025W        W31351  12.254  24.163   3.711
59026W        W31352   8.875  28.993  14.855
59027W        W31353   1.420  40.436   3.637
59028W        W31354  44.880  32.420  14.485
59029W        W31355  17.283   8.793   3.353
59030W        W31356   3.729  13.774   4.197
59031W        W31357  38.412  20.105  10.453
59032W        W31358  20.162  11.130  10.510
59033W        W31359  38.061  43.779   0.764
59034W        W31360   3.806  10.142   0.949
59035W        W31361   0.361   5.773   3.333
59036W        W31362  26.650  11.796  14.276
59037W        W31363  29.576  26.633  10.478
59038W        W31364  11.867  12.836  11.084
59039W        W31365  24.588   8.722  10.567
59040W        W31366   6.771   0.334  11.915
59041W        W31367   4.229  43.018  10.447
59042W        W31368  26.084  33.561  12.528
59043W        W31369   2.882   3.880   4.726
59044W        W31370  37.346  43.795   4.246
59045W        W31371  16.784  17.163  14.469
59046W        W31372   0.912  25.971   3.337
59047W        W31373  19.284   3.265   3.654
59048W        W31374  38.980  26.133   3.689
59049W        W31375  20.647  21.612  10.445
59050W        W31376  12.799  44.858  10.449
59051W        W31377  27.642  13.794  11.950
59052W        W31378   6.809  31.544  14.997
59053W        W31379  23.673  36.945   5.674
59054W        W31380  40.860   7.393   1.871
59055W        W31381  13.740  15.703   4.349
59056W        W31382   7.772  18.610  12.895
59057W        W31383  35.926  16.568  11.441
59058W        W31384  40.334   7.677   0.341
59059W        W31385  38.009  38.470   2.205
59060W        W31386  19.120   2.294  14.874
59061W        W31387  16.638  30.569  11.523
59062W        W31388   2.263  11.805  13.459
59063W        W31389  20.695  15.578  11.412
59064W        W31390   5.419  12.181   1.819
59065W        W31391  44.867   4.934   0.468
59066W        W31392  26.513  21.753   0.878
59067W        W31393  38.391  15.679   4.348
59068W        W31394  25.986  37.357  11.411
59069W        W31395   0.427  41.979   1.432
59070W        W31396  32.475   4.708   4.700
59071W        W31397  30.521  19.039  14.781
59072W        W31398   8.329  40.923  14.968
59073W        W31399  19.059  32.920  12.960
59074W        W31400   7.383  28.002  14.300
59075W        W31401  15.614   2.961   4.336
59076W        W31402  30.082  30.601   4.752
59077W        W31403  42.432  33.568  12.431
59078W        W31404   3.872   2.413  13.813
59079W        W31405   1.801  25.641   0.866
59080W        W31406   0.305  41.503  11.926
59081W        W31407   9.363  33.624  12.472
59082W        W31408   0.855  30.159   1.749
59083W        W31409   0.405  10.346   5.091
59084W        W31410  31.533  15.254   1.289
59085W        W31411  27.630  27.529  10.564
59086W        W31412   5.837  30.518   1.900
59087W        W31413  11.260  31.443   4.251
59088W        W31414  25.655  35.534  12.826
59089W        W31415   2.916  23.624  13.007
59090W        W31416  40.397   5.221  12.344
59091W        W31417  14.245  16.171   1.747
59092W        W31418  32.913   9.351  10.441
59093W        W31419   5.800  16.301  11.446
59094W        W31420  13.614  16.809  14.991
59095W        W31421  37.386  39.494   0.293
59096W        W31422  13.297  34.982  13.470
59097W        W31423   0.937  24.721  14.418
59098W        W31424  27.683  35.973  13.806
59099W        W31425  12.337  17.606  11.083
59100W        W31426  28.129  34.495  10.416
59101W        W31427  30.574  39.444   2.327
59102W        W31428  13.212   8.861  10.523
59103W        W31429  16.682  12.354  11.586
59104W        W31430   5.772  36.365   4.151
59105W        W31431  21.236   9.842   2.365
59106W        W31432  10.151  41.937   3.380
59107W        W31433  43.510  27.179   0.304
59108W        W31434  43.300  26.487  14.510
59109W        W31435  42.417  38.476   4.831
59110W        W31436  44.985   8.398  12.353
59111W        W31437  41.039  31.933   1.298
59112W        W31438  28.005  33.444   4.763
59113W        W31439  29.472  34.385  13.868
59114W        W31440  29.461  44.397   3.722
59115W        W31441  38.554  42.965   2.206
59116W        W31442   4.354  19.245  13.354
59117W        W31443  40.425   5.271  12.052
59118W        W31444  19.239  16.798  13.510
59119W        W31445   4.346  32.106  14.832
59120W        W31446  17.295   7.700   4.263
59121W        W31447  23.521  15.679  12.466
59122W        W31448  15.622  14.202  10.444
59123W        W31449  42.372  33.107   4.808
59124W        W31450  28.573  26.121   4.329
59125W        W31451  33.875  12.725   2.869
59126W        W31452  10.675  20.631   0.893
59127W        W31453  10.276   8.202  14.492
59128W        W31454  29.958  25.990   4.249
59129W        W31455  12.703  24.557   0.943
59130W        W31456  15.240  30.448  14.331
59131W        W31457  37.848  35.862  14.291
59132W        W31458  37.444   7.784   2.773
59133W        W31459   8.187  37.946  11.970
59134W        W31460  21.620  35.996  14.340
59135W        W31461  36.991  30.606   3.809
59136W        W31462   9.319  32.486   1.863
59137W        W31463  18.772   3.392  13.973
59138W        W31464  42.356  34.099   3.795
59139W        W31465  38.901  44.278  10.928
59140W        W31466   7.202  35.586  11.533
59141W        W31467  41.526  19.227  11.908
59142W        W31468  38.841  33.943  14.431
59143W        W31469  26.610  35.888   3.818
59144W        W31470  40.415   6.357  12.007
59145W        W31471  11.663  37.387  10.049
59146W        W31472  16.646  37.079  10.935
59147W        W31473   9.865  43.806  14.969
59148W        W31474  39.383   5.860  11.995
59149W        W31475  36.412   3.223   0.338
59150W        W31476  26.645  43.922  13.910
59151W        W31477  16.241  30.570  10.996
59152W        W31478   1.899  37.375  13.475
59153W        W31479  14.269  25.496  14.814
59154W        W31480  13.232  35.531   0.730
59155W        W31481  39.023  34.877   0.795
59156W        W31482  33.972  39.411   3.386
59157W        W31483  14.108  39.487   1.747
59158W        W31484  12.144  23.662  13.322
59159W        W31485  27.482  29.165  13.449
59160W        W31486  17.064  18.716   0.877
59161W        W31487  14.138  18.071   0.471
59162W        W31488  13.324  30.438   3.754
59163W        W31489  17.678  10.669   3.354
59164W        W31490  11.313   6.304   2.366
59165W        W31491  30.454  37.851  11.432
59166W        W31492  31.131  41.450  11.566
59167W        W31493  30.921  42.989  11.530
59168W        W31494  34.042  41.896   3.803
59169W        W31495  18.058  43.399   0.256
59170W        W31496   9.202  26.135   2.879
59171W        W31497  10.253  31.930  12.929
59172W        W31498   3.859  26.992  14.900
59173W        W31499  33.402  38.999   5.208
59174W        W31500   9.170  42.467  12.972
59175W        W31501   6.869   5.325  11.939
59176W        W31502  12.807  43.967   4.813
59177W        W31503  31.910  11.358  12.508
59178W        W31504   9.689  33.095   2.801
59179W        W31505  17.651   3.945   0.467
59180W        W31506  32.612  14.222  10.566
59181W        W31507  38.379   6.857  13.440
59182W        W31508  41.965  18.744   1.342
59183W        W31509  21.071  27.996  12.449
59184W        W31510  43.498  17.128   1.703
59185W        W31511   5.413  43.778  13.328
59186W        W31512  42.527   4.889  11.436
59187W        W31513  27.643  21.722   4.730
59188W        W31514  32.476  42.781   0.369
59189W        W31515  41.984  10.255   3.210
59190W        W31516  36.009  39.043   0.317
59191W        W31517   2.255  28.536   4.149
59192W        W31518  35.945  33.578  10.990
59193W        W31519  29.087  39.062   4.710
59194W        W31520   2.311  25.637   2.220
59195W        W31521  27.529  11.369  13.355
59196W        W31522  11.342  23.226  10.995
59197W        W31523  10.168  38.477   3.275
59198W        W31524  42.967  16.627   1.362
59199W        W31525  30.576  42.853  13.453
59200W        W31526  11.205   6.311   3.747
59201W        W31527   7.267  41.441   0.299
59202W        W31528  34.015   1.823   0.447
59203W        W31529  40.812  22.196  13.825
59204W        W31530  36.584  17.185  10.418
59205W        W31531  30.630  16.104  12.887
59206W        W31532  12.126   6.340  11.018
59207W        W31533  41.330  31.951  13.822
59208W        W31534   8.822   9.663  12.364
59209W        W31535  21.673  41.349  14.308
59210W        W31536  13.136  18.075   4.635
59211W        W31537  31.143  22.713  14.420
59212W        W31538   4.329  39.020   3.809
59213W        W31539  15.649   2.869  14.485
59214W        W31540   2.438  39.022   0.430
59215W        W31541  24.683  28.043   0.255
59216W        W31542  33.009   6.231  12.375
59217W        W31543  32.527  22.039   2.201
59218W        W31544   3.428   6.297   0.884
59219W        W31545  24.988  36.433   2.852
59220W        W31546  19.726   6.274   2.400
59221W        W31547  23.195  24.705   1.275
59222W        W31548  27.940  38.028   4.313
59223W        W31549  23.082   4.232   2.342
59224W        W31550  20.531   5.902   0.280
59225W        W31551  23.199  11.353   3.328
59226W        W31552  42.803  26.207   2.343
59227W        W31553  25.611  16.116   3.228
59228W        W31554  31.014  17.573  12.563
59229W        W31555  29.522  38.545  13.383
59230W        W31556  21.712  13.144   2.311
59231W        W31557  22.246   0.877   0.927
59232W        W31558  40.414  22.030   3.757
59233W        W31559  15.224   5.322   1.726
59234W        W31560   0.408   3.450   4.226
59235W        W31561  14.658  25.099   0.752
59236W        W31562  14.272  15.754  14.440
59237W        W31563  38.920   5.697  11.484
59238W        W31564  43.964  25.051   0.474
59239W        W31565  44.275  23.999   0.868
59240W        W31566  17.573  41.961   4.805
59241W        W31567   8.316  16.758   1.347
59242W        W31568  40.877   1.423   0.455
59243W        W31569  12.190  23.666   0.775
59244W        W31570  43.799   9.858  11.971
59245W        W31571  11.715  24.013  11.532
59246W        W31572  35.065  40.838   1.793
59247W        W31573  42.289  41.800  11.377
59248W        W31574  32.476   3.458   3.657
59249W        W31575  15.603  25.147  11.586
59250W        W31576  43.975  27.149  12.566
59251W        W31577   4.377  39.971   3.351
59252W        W31578  34.594   9.297   1.849
59253W        W31579   1.873  19.583  10.945
59254W        W31580  17.596  13.742   4.790
59255W        W31581  15.116  25.500   4.616
59256W        W31582  15.092  10.660  12.883
59257W        W31583  20.570   4.329  11.878
59258W        W31584   2.294  25.469   4.763
59259W        W31585   1.403   7.262  12.968
59260W        W31586  34.073  11.335   1.284
59261W        W31587  44.982  18.634  14.337
59262W        W31588  20.709  18.074  14.847
59263W        W31589  38.943  22.540  13.849
59264W        W31590  30.033   4.758  12.057
59265W        W31591  32.016  32.067   2.247
59266W        W31592  25.195   4.808   1.437
59267W        W31593  14.622  41.856  12.983
59268W        W31594  13.196  41.367   3.696
59269W        W31595  31.905  40.925  10.938
59270W        W31596   2.765  34.502  11.480
59271W        W31597  25.160  16.102  10.493
59272W        W31598  11.728  22.178  11.033
59273W        W31599   7.708  30.077  10.905
59274W        W31600  11.837  39.534   3.641
59275W        W31601  37.346   9.692  14.965
59276W        W31602  42.383  15.131   0.427
59277W        W31603   0.760  28.064  13.888
59278W        W31604  18.097  10.332   3.641
59279W        W31605  14.692   5.300   1.733
59280W        W31606  32.558  37.034   2.741
59281W        W31607  14.141  29.522  13.426
59282W        W31608  28.535   0.827  13.026
59283W        W31609  24.580  33.930   3.316
59284W        W31610  25.153   7.407   4.139
59285W        W31611   8.724   3.321  10.498
59286W        W31612  13.725  23.540   3.344
59287W        W31613  31.120  16.079   4.655
59288W        W31614   1.276   2.952  13.992
59289W        W31615  12.235   8.366   2.864
59290W        W31616   9.361   5.869   0.760
59291W        W31617  41.958  40.892  14.013
59292W        W31618   2.235  32.030   0.778
59293W        W31619  31.542  11.816   3.834
59294W        W31620  39.838  31.029  12.004
59295W        W31621   8.825  19.775   1.278
59296W        W31622  34.990   2.882  13.319
59297W        W31623  16.219  23.514   4.210
59298W        W31624  12.788  34.501   5.205
59299W        W31625  21.668  21.604   3.294
59300W        W31626  42.918  29.648  10.931
59301W        W31627  36.994  15.824   4.790
59302W        W31628  12.662  42.376   1.917
59303W        W31629  12.212  37.063   4.710
59304W        W31630  39.501  31.616  12.513
59305W        W31631  35.469  40.984  14.857
59306W        W31632  27.954  40.336  12.418
59307W        W31633  38.924   9.370   1.884
59308W        W31634  40.474  17.704   1.932
59309W        W31635  39.045  24.573  14.884
59310W        W31636  10.300  20.653   4.665
59311W        W31637  31.531  36.844   4.219
59312W        W31638   4.396  12.790   4.816
59313W        W31639  41.416  37.926  11.896
59314W        W31640  33.024  18.242   3.654
59315W        W31641  16.089  34.042   2.342
59316W        W31642  11.126  20.598  14.445
59317W        W31643  13.734  38.837   2.683
59318W        W31644  24.091  38.826   1.809
59319W        W31645  12.732   6.895   3.721
59320W        W31646   8.322  31.057   4.786
59321W        W31647  26.665  41.810   2.715
59322W        W31648   1.889  27.989   3.847
59323W        W31649  43.427  29.033  14.803
59324W        W31650  39.912   0.965   4.763
59325W        W31651  37.976  32.393  13.397
59326W        W31652   3.935  28.983   3.361
59327W        W31653  34.534   2.827  12.473
59328W        W31654  36.535   3.883  14.296
59329W        W31655   3.386   6.791   2.816
59330W        W31656  14.682  15.083   2.338
59331W        W31657  39.371  10.734   0.398
59332W        W31658  27.027  32.557   0.463
59333W        W31659  28.591  39.065   0.808
59334W        W31660   8.875  25.099   3.845
59335W        W31661  44.428   9.262   3.356
59336W        W31662  17.705  15.822  14.977
59337W        W31663  36.908   3.442  14.879
59338W        W31664   8.219  43.441  12.373
59339W        W31665  39.425  44.984   2.893
59340W        W31666   4.412   2.965   4.696
59341W        W31667   4.736  28.634  10.985
59342W        W31668  23.673  38.517   4.775
59343W        W31669   1.284  28.476   2.747
59344W        W31670  31.454  15.768   1.758
59345W        W31671   9.810  32.438   0.395
59346W        W31672   0.366   5.874  11.388
59347W        W31673  23.178   4.842  10.508
59348W        W31674  37.387  21.171  14.457
59349W        W31675   2.803  28.568  13.921
59350W        W31676  20.549  14.750  12.460
59351W        W31677  14.668  39.438   2.730
59352W        W31678  18.139  29.074  12.916
59353W        W31679  29.589  28.614  10.073
59354W        W31680   3.760  27.059  12.869
59355W        W31681   2.336  39.865  13.401
59356W        W31682  16.105  44.265  11.019
59357W        W31683   3.872  40.535   2.857
59358W        W31684   6.227   5.363  13.981
59359W        W31685  21.133   5.415   1.919
59360W        W31686  19.601  18.557   0.789
59361W        W31687  40.865  17.739   2.310
59362W        W31688   2.325  38.384  13.876
59363W        W31689  32.612  30.034  14.825
59364W        W31690   6.889  13.633   3.341
59365W        W31691  18.643  22.047  14.831
59366W        W31692  14.809  43.434  11.496
59367W        W31693  19.232   4.431  12.986
59368W        W31694  26.648   9.172   2.698
59369W        W31695   0.767  27.961  11.882
59370W        W31696  12.142  37.030   2.346
59371W        W31697  15.205   5.777   0.735
59372W        W31698   6.680  20.269  12.968
59373W        W31699  39.494  32.003   2.836
59374W        W31700  27.044  35.857   2.238
59375W        W31701  29.581  13.674   3.715
59376W        W31702  25.984  33.595  10.577
59377W        W31703  33.485  18.625   1.817
59378W        W31704  31.968  43.282   4.702
59379W        W31705   1.259   8.798   1.784
59380W        W31706  23.168  30.922  12.457
59381W        W31707  19.568  10.369   1.441
59382W        W31708  17.697   8.228  11.568
59383W        W31709  36.535  26.985  13.882
59384W        W31710  13.708  42.390  13.537
59385W        W31711  38.502  42.033  11.477
59386W        W31712  31.113  43.960  10.989
59387W        W31713  41.354   4.844  12.087
59388W        W31714   0.803  31.961  13.389
59389W        W31715   9.251  35.464   1.213
59390W        W31716  33.529  38.877   4.259
59391W        W31717  23.185  13.801   2.767
59392W        W31718  29.623  11.848   4.352
59393W        W31719  29.584  26.127  13.827
59394W        W31720  11.717  40.487   3.770
59395W        W31721  13.709  44.353   3.771
59396W        W31722  17.718   1.429   1.244
59397W        W31723  17.127  27.622   0.338
59398W        W31724   1.299  27.060  14.016
59399W        W31725   6.313  16.246   1.868
59400W        W31726  32.955  33.487   1.308
59401W        W31727   4.422  19.618  14.411
59402W        W31728   4.736  21.243   4.728
59403W        W31729  26.195   4.424  14.011
59404W        W31730   9.215  18.707  13.022
59405W        W31731  24.542   2.372   4.737
59406W        W31732  40.942  32.480  10.500
59407W        W31733  37.361  28.671   4.761
59408W        W31734  41.374  23.595   3.249
59409W        W31735  15.084  16.276  12.362
59410W        W31736  36.885  28.470   0.938
59411W        W31737  10.709   7.908   0.820
59412W        W31738  30.632   4.866  14.833
59413W        W31739  30.039   6.232  13.915
59414W        W31740   0.462  24.626   0.315
59415W        W31741  34.484   2.293   3.273
59416W        W31742  14.166  24.511   4.280
59417W        W31743  22.209  31.977   1.426
59418W        W31744   1.452  21.639  13.063
59419W        W31745   2.417  10.656  14.356
59420W        W31746  11.235  19.687   3.764
59421W        W31747   9.266  28.669  12.340
59422W        W31748   7.375  38.511   0.841
59423W        W31749  11.368  38.850   1.750
59424W        W31750   3.460  22.192   0.320
59425W        W31751  39.045  28.576  12.068
59426W        W31752  32.932  32.546   4.780
59427W        W31753  34.592  10.787   4.691
59428W        W31754  28.024  41.349   0.770
59429W        W31755  21.061  11.175   3.257
59430W        W31756   4.903  36.525  13.543
59431W        W31757   5.704   3.746  10.490
59432W        W31758   5.753   8.735   2.805
59433W        W31759  10.653   0.964  14.896
59434W        W31760   2.248  42.509   4.655
59435W        W31761   8.180  43.791  12.473
59436W        W31762  31.456  15.602   0.388
59437W        W31763   5.819  20.765   0.855
59438W        W31764  24.613  42.371   0.247
59439W        W31765   9.266  16.290  14.028
59440W        W31766   7.380  34.017   4.273
59441W        W31767  42.904  14.603   2.846
59442W        W31768   6.860  36.060  10.489
59443W        W31769  13.687  26.157   4.321
59444W        W31770   5.747  40.876   2.214
59445W        W31771  44.010   4.448   0.361
59446W        W31772  10.236  30.622  14.514
59447W        W31773  39.539  37.531  11.917
59448W        W31774   4.910  38.486   0.300
59449W        W31775  15.128  16.122  12.080
59450W        W31776   8.778  25.598   3.192
59451W        W31777  35.584  24.670   3.181
59452W        W31778   5.750  15.788   3.185
59453W        W31779  31.045  11.684  12.509
59454W        W31780  12.231  19.238  11.522
59455W        W31781  37.059  17.184   3.829
59456W        W31782  29.483  39.560   0.387
59457W        W31783  19.280  26.136  14.461
59458W        W31784  31.485   7.350   1.414
59459W        W31785  12.686  18.199  11.867
59460W        W31786   4.832   0.927   0.419
59461W        W31787  24.064  19.087  11.558
59462W        W31788  28.038  43.906  11.516
59463W        W31789  26.168  31.060  12.824
59464W        W31790  41.521  28.961  14.429
59465W        W31791  39.421   9.357  14.833
59466W        W31792  25.631  10.789  12.078
59467W        W31793  29.933  25.508   2.878
59468W        W31794   8.884  36.494  12.826
59469W        W31795  12.851  13.809   3.197
59470W        W31796   6.344  16.176   2.765
59471W        W31797  22.578  16.173  12.411
59472W        W31798  32.095  39.320  12.009
59473W        W31799  19.214  38.931  10.471
59474W        W31800   1.863  38.348   3.153
59475W        W31801   7.194  10.644  12.871
59476W        W31802  36.892  23.512  13.445
59477W        W31803  34.952  34.466  11.907
59478W        W31804  26.500  43.965   3.323
59479W        W31805  32.039   5.438   4.680
59480W        W31806  31.125  32.106   3.832
59481W        W31807  29.155  35.104   1.841
59482W        W31808   6.314   2.258   4.126
59483W        W31809  18.133  26.484  11.457
59484W        W31810  26.150  17.562   9.451
59485W        W31811  25.204   8.341  11.042
59486W        W31812  39.532  30.968   2.311
59487W        W31813  14.248  20.740   2.835
59488W        W31814  12.732  14.236  12.575
59489W        W31815  24.066   3.445   5.114
59490W        W31816  43.862  12.327  10.931
59491W        W31817  43.438  30.917  13.361
59492W        W31818   6.818   9.363   1.877
59493W        W31819  34.532   9.370  11.449
59494W        W31820  19.218   8.189   2.861
59495W        W31821  33.426  10.820  14.846
59496W        W31822  18.243  39.472  13.047
59497W        W31823  22.052  36.941   0.784
59498W        W31824  44.914  28.585  11.928
59499W        W31825  21.076  24.689  12.524
59500W        W31826  33.564  21.753  11.125
59501W        W31827  24.641  14.139   4.169
59502W        W31828  44.387  31.982   0.371
59503W        W31829  12.622  25.493  12.857
59504W        W31830  27.579   3.323   1.330
59505W        W31831   4.912  25.467   4.256
59506W        W31832  30.546  12.176   0.437
59507W        W31833  25.696  44.789   1.388
59508W        W31834  25.597  40.875  10.957
59509W        W31835  41.373  25.134   3.206
59510W        W31836  19.704  39.836  12.529
59511W        W31837  43.788  25.177   1.418
59512W        W31838   6.210  40.807  12.353
59513W        W31839  39.399   2.383  12.058
59514W        W31840   9.293  11.196   0.849
59515W        W31841   7.842  32.483   1.269
59516W        W31842  42.335  22.577   4.757
59517W        W31843  12.170  14.124  14.353
59518W        W31844  28.499  17.143  14.785
59519W        W31845  24.059  26.609  14.467
59520W        W31846  14.316   4.417  11.078
59521W        W31847   0.299   3.250   0.437
59522W        W31848  26.117   1.258   2.410
59523W        W31849  41.298  23.157  12.500
59524W        W31850  43.813   7.773  12.972
59525W        W31851  28.095  41.514  11.062
59526W        W31852  29.665  43.417  10.989
59527W        W31853  21.735  41.842  14.881
59528W        W31854   4.722  36.564  11.904
59529W        W31855  32.026  37.075   4.293
59530W        W31856   7.333   5.345   0.317
59531W        W31857  32.020  35.084   3.339
59532W        W31858  39.515  35.904   0.933
59533W        W31859  22.646  37.378  11.997
59534W        W31860  21.063  36.064  10.038
59535W        W31861  37.389  33.949  14.415
59536W        W31862  44.393  14.697   0.338
59537W        W31863  33.509  26.475  10.598
59538W        W31864  30.637  24.509   0.739
59539W        W31865  43.509  18.293   0.448
59540W        W31866  31.943  22.033   4.136
59541W        W31867  32.965  21.726   2.773
59542W        W31868  32.532   6.813   4.828
59543W        W31869  26.112  44.897   1.825
59544W        W31870  22.617  30.052  14.326
59545W        W31871  14.642  25.583  12.012
59546W        W31872   6.681  37.886  10.428
59547W        W31873  22.726  19.262   1.862
59548W        W31874  23.710  10.867   3.733
59549W        W31875   3.234  28.975   4.198
59550W        W31876  29.011  19.569  11.948
59551W        W31877   8.194  43.988   2.751
59552W        W31878  11.816  27.451   0.450
59553W        W31879  31.501   7.883   4.236
59554W        W31880  38.561   8.671   1.345
59555W        W31881  24.986  28.637  11.123
59556W        W31882   8.847  44.955  13.433
59557W        W31883  24.702  42.506  11.509
59558W        W31884  27.622  26.489  14.765
59559W        W31885  43.991  19.276   4.160
59560W        W31886  31.970  31.516   0.887
59561W        W31887  20.568  14.735   2.787
59562W        W31888  43.315  31.060  12.474
59563W        W31889  22.532  24.994  12.975
59564W        W31890  14.739   5.386  14.369
59565W        W31891  14.298   6.293  11.433
59566W        W31892   2.750  24.064  14.432
59567W        W31893  20.258   0.476  11.489
59568W        W31894   5.240   1.910  10.555
59569W        W31895   2.926   2.793  13.011
59570W        W31896  14.309  35.526  10.121
59571W        W31897  38.015  22.535   2.856
59572W        W31898  44.485  12.330  13.891
59573W        W31899   3.867  40.315  10.103
59574W        W31900  27.180  26.996  14.948
59575W        W31901  23.092  21.559  11.611
59576W        W31902  17.750  12.276  12.470
59577W        W31903   3.449   6.222   2.710
59578W        W31904  36.482  16.655  12.363
59579W        W31905  24.705  25.165  14.464
59580W        W31906   7.769   3.427  13.850
59581W        W31907  32.060  19.590   4.616
59582W        W31908  14.649  10.746  12.043
59583W        W31909   4.431  31.944   4.765
59584W        W31910  31.918  20.239  11.907
59585W        W31911  11.629  26.043   2.807
59586W        W31912  28.468  40.017  11.074
59587W        W31913  16.792  15.255  11.021
59588W        W31914  31.033  41.800  13.994
59589W        W31915  23.181  11.357  11.535
59590W        W31916   3.898  23.689   4.302
59591W        W31917  27.588   1.917  13.385
59592W        W31918   3.794   0.445   1.391
59593W        W31919  24.565  39.940  11.093
59594W        W31920  38.350  16.298   1.311
59595W        W31921   4.885  29.463   4.767
59596W        W31922   9.308  22.655   9.942
59597W        W31923   1.839   8.789   2.287
59598W        W31924  10.866  15.279  10.589
59599W        W31925  22.678  10.304   3.703
59600W        W31926  42.825  12.355  11.102
59601W        W31927  11.338  38.074  14.944
59602W        W31928   1.466   6.727  12.943
59603W        W31929  35.545  24.568   4.737
59604W        W31930  41.343  40.841  13.468
59605W        W31931  35.485  11.318   5.674
59606W        W31932   4.434  10.649   2.676
59607W        W31933  15.272  38.343   3.222
59608W        W31934  42.928   3.810   4.764
59609W        W31935  22.627  15.788  14.949
59610W        W31936  36.022  37.395   3.677
59611W        W31937  29.493  30.562  12.524
59612W        W31938  38.894   0.757   2.323
59613W        W31939  31.136   9.294   4.120
59614W        W31940   2.404  44.471  11.940
59615W        W31941   1.953   2.386  14.919
59616W        W31942  30.550  25.704  13.987
59617W        W31943  30.628   5.249   0.756
59618W        W31944  41.478  14.802   3.854
59619W        W31945  41.324  11.789  10.942
59620W        W31946  38.405   9.341  11.549
59621W        W31947  14.221  16.759   2.351
59622W        W31948  13.189  17.231  10.621
59623W        W31949  39.319  13.294   0.946
59624W        W31950  42.824  10.714   4.727
59625W        W31951  23.605  23.163   3.848
59626W        W31952  10.820  17.739  14.397
59627W        W31953  10.267  42.020  10.606
59628W        W31954  38.027   9.767   3.659
59629W        W31955  27.044  44.938  10.431
59630W        W31956  13.348  28.662  12.012
59631W        W31957  28.618   8.834   4.253
59632W        W31958   6.240  44.959  13.500
59633W        W31959  23.642  10.365   0.270
59634W        W31960  41.787  29.650  11.445
59635W        W31961   5.756  42.912   1.894
59636W        W31962  34.096  27.656   2.414
59637W        W31963   1.893   6.857  11.599
59638W        W31964  17.763  32.139  11.021
59639W        W31965   4.895  27.056  10.428
59640W        W31966  26.610  40.545  11.433
59641W        W31967  39.315  36.069   2.371
59642W        W31968  20.132   1.875   3.208
59643W        W31969  42.984  43.289  10.632
59644W        W31970  30.450  12.134  14.377
59645W        W31971  43.848  23.138  11.560
59646W        W31972  15.802  28.513  12.474
59647W        W31973   5.283  11.639  14.330
59648W        W31974  41.371  11.126  13.858
59649W        W31975  19.141  34.495   0.825
59650W        W31976  44.928  44.371  10.153
59651W        W31977  27.490   9.376  11.014
59652W        W31978   4.704  28.125   3.203
59653W        W31979  30.441  37.930  14.481
59654W        W31980  30.057  18.629  10.624
59655W        W31981  27.595  33.383   3.703
59656W        W31982   3.223  36.927   1.304
59657W        W31983   9.173   1.963  10.621
59658W        W31984  25.993  42.003  13.337
59659W        W31985  12.210   3.421  10.888
59660W        W31986  28.989  28.615   0.875
59661W        W31987   6.828   2.254  13.931
59662W        W31988  40.005  23.603   4.694
59663W        W31989  37.921  10.824   1.249
59664W        W31990  26.555  11.307  10.602
59665W        W31991  42.011   2.914  13.998
59666W        W31992  11.641  22.099   1.777
59667W        W31993   5.731   0.811  14.012
59668W        W31994  25.059   9.340   1.728
59669W        W31995  25.064  10.267   3.196
59670W        W31996   5.822  26.194   3.765
59671W        W31997  43.843   6.244   0.735
59672W        W31998   4.284   4.913  13.358
59673W        W31999  42.826  13.196  10.435
59674W        W32000  12.848   6.700   2.366
59675W        W32001  35.409  11.733   2.664
59676W        W32002  16.683   3.844  11.427
59677W        W32003  15.098  19.597   1.350
59678W        W32004   5.834  12.836   2.305
59679W        W32005  12.729  38.340   0.874
59680W        W32006  23.706  27.952  12.027
59681W        W32007  12.132  12.350  11.437
59682W        W32008   8.686  16.101  11.962
59683W        W32009  28.584  14.701   1.240
59684W        W32010  18.058  39.971   3.207
59685W        W32011  24.653   6.266   1.211
59686W        W32012  35.380  29.096   2.409
59687W        W32013   1.400  21.737  14.377
59688W        W32014   8.196  14.096  12.831
59689W        W32015  12.816  40.402  11.416
59690W        W32016   1.785  35.543  14.001
59691W        W32017   1.748  29.130   1.810
59692W        W32018  30.946  23.565  11.451
59693W        W32019  16.722  14.716   2.804
59694W        W32020  11.759  14.196  11.008
59695W        W32021  44.446  35.597   0.955
59696W        W32022  14.777  30.613  11.564
59697W        W32023  42.923  27.647  10.618
59698W        W32024  18.282  12.629   3.288
59699W        W32025  14.250  39.477  12.016
59700W        W32026  30.087  15.824   0.934
59701W        W32027  24.160  18.682   5.143
59702W        W32028  16.113  36.871   4.244
59703W        W32029  38.915  26.618   0.935
59704W        W32030  41.372  38.557  13.016
59705W        W32031  24.556  39.902  13.425
59706W        W32032   2.284  29.089  13.803
59707W        W32033  43.984   3.879  12.437
59708W        W32034  11.365  42.486  10.954
59709W        W32035   6.212  34.016  13.972
59710W        W32036   3.332  18.117   3.753
59711W        W32037  22.653  12.815   2.236
59712W        W32038  20.268  37.356   4.182
59713W        W32039   0.457   3.443  14.816
59714W        W32040  34.112  44.894  14.363
59715W        W32041   5.229  24.513   4.829
59716W        W32042  19.562  42.834  13.393
59717W        W32043   3.725  26.568  11.090
59718W        W32044  36.412  42.323  11.406
59719W        W32045  13.238  17.106   3.229
59720W        W32046   8.177   0.444  12.492
59721W        W32047   0.415  38.325   2.884
59722W        W32048  28.034  37.364   2.790
59723W        W32049  11.317  32.524   4.304
59724W        W32050  34.488   3.371   4.330
59725W        W32051  23.197  31.589   0.937
59726W        W32052  39.365  34.975   1.825
59727W        W32053   7.834  11.630   4.239
59728W        W32054  29.986   2.788   3.695
59729W        W32055  29.121  31.022   2.357
59730W        W32056  33.386  33.012  10.415
59731W        W32057   3.870  40.500  13.052
59732W        W32058  14.793  14.786   0.474
59733W        W32059  44.896  34.549   1.766
59734W        W32060   7.763  15.676  13.452
59735W        W32061  41.812  32.556   3.862
59736W        W32062  36.032  32.932   4.796
59737W        W32063   4.266   1.915  10.614
59738W        W32064  28.592  32.467   2.210
59739W        W32065  27.054  22.672  11.057
59740W        W32066  40.393  41.392  13.516
59741W        W32067  33.617  21.036  10.157
59742W        W32068  12.701  11.677   0.881
59743W        W32069   8.707  19.745  13.477
59744W        W32070  32.051  18.259   3.164
59745W        W32071  23.530   2.349   4.619
59746W        W32072   2.277  20.669  11.075
59747W        W32073  41.790  10.324  12.052
59748W        W32074  28.078  42.454  12.375
59749W        W32075  41.858  26.577  13.356
59750W        W32076   0.745  23.004   1.424
59751W        W32077  10.174  42.352  14.453
59752W        W32078  14.625  11.185  12.536
59753W        W32079  13.218  44.260   4.269
59754W        W32080  14.733  11.223  10.626
59755W        W32081  30.975   0.952   1.747
59756W        W32082   7.805  41.879   2.850
59757W        W32083  10.175  24.019  12.831
59758W        W32084  12.730  23.511  14.820
59759W        W32085   5.690  17.751  12.354
59760W        W32086  20.209  36.432  12.454
59761W        W32087  33.883  14.266   4.682
59762W        W32088  35.367  35.024  14.415
59763W        W32089  10.812  44.412   3.692
59764W        W32090  31.621  29.589  11.408
59765W        W32091   9.220  41.377   2.398
59766W        W32092   6.415  15.101   2.238
59767W        W32093   2.442  36.912  10.485
59768W        W32094  25.975  15.156  10.592
59769W        W32095  34.400  29.164   3.861
59770W        W32096   1.295  22.532  14.910
59771W        W32097  34.091  16.661   1.856
59772W        W32098  31.408  32.581  10.926
59773W        W32099  29.656  18.271   2.399
59774W        W32100  32.089  27.160   3.268
59775W        W32101  19.773   0.803   0.340
59776W        W32102   3.806  28.609   1.799
59777W        W32103  31.037   8.260  11.385
59778W        W32104  44.430  10.305  13.547
59779W        W32105  15.204  38.821   0.415
59780W        W32106  34.960  18.061   0.893
59781W        W32107  39.415  39.998  12.500
59782W        W32108  20.574  41.931   1.403
59783W        W32109  41.422  16.677  11.994
59784W        W32110  23.071  39.885   3.227
59785W        W32111   5.830   4.808   3.734
59786W        W32112  29.085  12.637  14.409
59787W        W32113  16.658  19.069   3.710
59788W        W32114  22.644   0.778  13.507
59789W        W32115  11.179  27.685   0.756
59790W        W32116   7.223  34.388   2.761
59791W        W32117  29.423  16.645  11.890
59792W        W32118  30.472   8.319   1.384
59793W        W32119  16.589   1.961  11.992
59794W        W32120  25.549  39.417   2.372
59795W        W32121  18.249  30.429   4.315
59796W        W32122  26.009   9.199  14.796
59797W        W32123  23.581  21.728  14.772
59798W        W32124  20.740  18.570  13.404
59799W        W32125  41.449  43.405   1.333
59800W        W32126  24.561   3.249  10.440
59801W        W32127  10.154  21.110  12.514
59802W        W32128  12.766  15.304  13.334
59803W        W32129  39.948  11.221  14.321
59804W        W32130  29.028   4.297  13.893
59805W        W32131   3.893  12.305  10.052
59806W        W32132  20.162   9.883  14.492
59807W        W32133   2.741  31.426   4.608
59808W        W32134  27.488  23.734   2.239
59809W        W32135   6.188   0.894  11.865
59810W        W32136   4.358  18.691  10.480
59811W        W32137  32.471   2.342   1.275
59812W        W32138   3.222  16.593  10.518
59813W        W32139   4.797  35.447  13.410
59814W        W32140  22.644  19.578   2.244
59815W        W32141  39.908  41.887  12.995
59816W        W32142  19.059  44.987   0.398
59817W        W32143  34.435  15.807   4.602
59818W        W32144  42.379  12.194   2.680
59819W        W32145  20.223  14.299   2.365
59820W        W32146  36.890  16.287   4.608
59821W        W32147  23.505  44.392  11.535
59822W        W32148  41.797  23.715   0.769
59823W        W32149   3.241  28.125   0.326
59824W        W32150  15.119   4.740  13.928
59825W        W32151  27.021  40.878   4.198
59826W        W32152   7.240  36.464   2.759
59827W        W32153   9.859  32.917   0.916
59828W        W32154  35.395  11.730  11.472
59829W        W32155  16.158  41.337  13.497
59830W        W32156  28.516  18.250   4.336
59831W        W32157  11.173  23.555   2.301
59832W        W32158   2.234  34.558   3.345
59833W        W32159   0.287  19.052  12.941
59834W        W32160   7.857   4.227   0.816
59835W        W32161  24.574  10.326  12.541
59836W        W32162  38.043   6.677   4.665
59837W        W32163  28.618  28.127  11.473
59838W        W32164  17.659  26.667  11.931
59839W        W32165  40.319  11.206  12.936
59840W        W32166   4.839  27.522  13.950
59841W        W32167  38.075  18.669  10.502
59842W        W32168  37.006   3.286   2.819
59843W        W32169   1.843  20.605   2.707
59844W        W32170   2.471  18.106  11.971
59845W        W32171  11.712  11.781   3.210
59846W        W32172  26.510  38.895  11.994
59847W        W32173   5.896  27.472   0.732
59848W        W32174  15.245  11.166  14.295
59849W        W32175  34.066  36.873   3.386
59850W        W32176  11.275   4.872  11.911
59851W        W32177  16.295  25.607  10.559
59852W        W32178  41.919  10.874   0.951
59853W        W32179   7.413  36.382   2.211
59854W        W32180  14.318   8.194   3.311
59855W        W32181  13.734  37.047  14.410
59856W        W32182  10.877   5.376   0.284
59857W        W32183  26.053   7.236   4.134
59858W        W32184  31.992   1.268   0.442
59859W        W32185  27.998  20.608   3.348
59860W        W32186   2.871   2.751  11.441
59861W        W32187   5.406  33.407   3.315
59862W        W32188  26.064  13.174   2.881
59863W        W32189  27.997  22.251   3.207
59864W        W32190  21.196  36.024  13.976
59865W        W32191  23.727  39.887   1.311
59866W        W32192  29.617  24.166  10.029
59867W        W32193  29.610  43.924   3.641
59868W        W32194  40.316  11.278   0.961
59869W        W32195   2.235  21.580   2.669
59870W        W32196   6.808  39.995  12.066
59871W        W32197  12.771  14.687   0.886
59872W        W32198   5.425  35.409  10.545
59873W        W32199  28.108  24.061  10.973
59874W        W32200  31.415   1.449   4.810
59875W        W32201  25.113   9.850  12.885
59876W        W32202   6.310  16.173  11.090
59877W        W32203   9.691  27.631  13.798
59878W        W32204  18.252  25.038  13.459
59879W        W32205  30.650   7.335   0.778
59880W        W32206   7.318  33.921  13.339
59881W        W32207  26.655   5.893   3.755
59882W        W32208  21.159   1.936   3.673
59883W        W32209   7.860  30.157  12.870
59884W        W32210   6.362  15.697   1.890
59885W        W32211  11.365  14.629   1.278
59886W        W32212  28.581  32.491   3.228
59887W        W32213  33.598  15.813  10.638
59888W        W32214  30.021  18.267   4.760
59889W        W32215  12.844   6.222  10.486
59890W        W32216   5.815  26.975  14.362
59891W        W32217   2.227  23.235  12.059
59892W        W32218  15.797   0.928  10.102
59893W        W32219  36.061   6.387  11.406
59894W        W32220  39.812  20.268   3.345
59895W        W32221  23.631   6.908   3.307
59896W        W32222  44.351  42.286   4.763
59897W        W32223  28.462   4.401   4.668
59898W        W32224  26.956  12.156   1.740
59899W        W32225  40.512   4.276  12.903
59900W        W32226   7.232  40.517  13.907
59901W        W32227  19.196   2.920   0.818
59902W        W32228  38.470  12.655  12.935
59903W        W32229  33.897  30.605   1.828
59904W        W32230   6.874   7.735  13.340
59905W        W32231  28.973  36.011  14.898
59906W        W32232   4.789  33.612   1.305
59907W        W32233  43.369   1.942  10.974
59908W        W32234  31.102   3.398   2.303
59909W        W32235  34.910  33.925   4.232
59910W        W32236   1.775  31.030  10.903
59911W        W32237  21.030  15.164  10.993
59912W        W32238  26.595  35.411   3.720
59913W        W32239  38.075  35.927   1.710
59914W        W32240  21.582   2.404   4.762
59915W        W32241   0.280  28.134  13.419
59916W        W32242  15.305  12.660   2.196
59917W        W32243  30.148  14.234  12.431
59918W        W32244  22.524  18.126  12.085
59919W        W32245  19.615  32.926   1.802
59920W        W32246  23.135   0.414  11.384
59921W        W32247  11.706  44.418  13.331
59922W        W32248  35.858  31.500   2.884
59923W        W32249  14.297   3.320  12.502
59924W        W32250   9.329  36.866   1.343
59925W        W32251  16.158   6.885  12.002
59926W        W32252  39.050  25.172  11.074
59927W        W32253  34.925  29.437  10.989
59928W        W32254  14.138  28.617   3.689
59929W        W32255  15.142  40.447  12.341
59930W        W32256  24.584  23.539  12.422
59931W        W32257  19.053   0.380   4.742
59932W        W32258  10.723   1.897   0.387
59933W        W32259  11.822  43.884   1.363
59934W        W32260  13.782  16.688   2.357
59935W        W32261  17.565  40.476   3.199
59936W        W32262  37.368   4.829   5.165
59937W        W32263  33.909  27.964  10.520
59938W        W32264  25.471  16.646   3.198
59939W        W32265  42.994  31.110  10.551
59940W        W32266  13.655   3.837  13.439
59941W        W32267   5.277  29.995  13.859
59942W        W32268  18.145  40.931   3.152
59943W        W32269   8.679  30.021  14.977
59944W        W32270  21.057  36.910   2.382
59945W        W32271   6.297   1.952   4.630
59946W        W32272  25.193  14.211   1.790
59947W        W32273  41.390  17.189  14.383
59948W        W32274  41.370  21.196   4.632
59949W        W32275  38.341   3.228   3.321
59950W        W32276  30.079   6.405   3.710
59951W        W32277  33.597   1.796   0.785
59952W        W32278  32.892  24.567  10.422
59953W        W32279  27.096  11.846   0.964
59954W        W32280   7.889  13.158   1.817
59955W        W32281   2.399  22.712   1.727
59956W        W32282  18.068   0.805  13.022
59957W        W32283  19.048  35.969   1.866
59958W        W32284  42.298   3.369   4.757
59959W        W32285  20.595  32.989  10.945
59960W        W32286  30.020  35.016   0.840
59961W        W32287  33.561  27.153   2.217
59962W        W32288  35.364  15.751   2.872
59963W        W32289  20.208  23.199  13.401
59964W        W32290   0.395   3.379  13.856
59965W        W32291   3.954  34.883  11.029
59966W        W32292  24.051   8.235  14.897
59967W        W32293  28.553  21.114   0.764
59968W        W32294  18.158  18.236   2.880
59969W        W32295  26.995   0.263  10.043
59970W        W32296  23.231  27.004   1.435
59971W        W32297  23.055  10.220  11.105
59972W        W32298  16.807  31.988   2.689
59973W        W32299  29.956  40.023   2.216
59974W        W32300  21.632  22.561  10.932
59975W        W32301  27.483  11.687   1.868
59976W        W32302   3.268  12.117  11.995
59977W        W32303   5.773  14.287   4.249
59978W        W32304  40.011  17.249  11.118
59979W        W32305  26.471   5.303   4.281
59980W        W32306  34.377  33.512   9.569
59981W        W32307  16.209  39.370  14.840
59982W        W32308   0.806  16.202  10.111
59983W        W32309  32.005   3.876  12.054
59984W        W32310  39.495   6.343   3.812
59985W        W32311   8.796   4.837   0.343
59986W        W32312  34.565  19.650   1.821
59987W        W32313  14.624  42.364   3.321
59988W        W32314  19.585  42.804   1.408
59989W        W32315  15.658   6.334  13.051
59990W        W32316  30.621  20.600  10.504
59991W        W32317  14.221  34.533   3.216
59992W        W32318  19.730   4.365  11.593
59993W        W32319  33.580  35.566   4.810
59994W        W32320   3.250  12.358  10.946
59995W        W32321  32.482  27.532   0.429
59996W        W32322  21.692  20.103   4.828
59997W        W32323  26.179  11.222  13.334
59998W        W32324  19.076   9.347   2.384
59999W        W32325   2.301   0.819  14.400
60000W        W32326  41.792  11.288  13.026
60001W        W32327  41.038   8.707   3.249
60002W        W32328  42.398  24.119  11.992
60003W        W32329  26.156  34.483   0.865
60004W        W32330  40.326  13.291   0.260
60005W        W32331  11.751  38.903   3.347
60006W        W32332  41.466  44.794  14.313
60007W        W32333  29.497  35.577  12.927
60008W        W32334  14.302  40.963   2.724
60009W        W32335  16.600  38.339  11.067
60010W        W32336  21.535   3.878   2.276
60011W        W32337   8.262  40.363  11.594
60012W        W32338   7.375  43.981   3.378
60013W        W32339  10.317   1.314   3.720
60014W        W32340  44.001  24.614   0.924
60015W        W32341   0.273  21.169  14.424
60016W        W32342  22.727  23.493   2.285
60017W        W32343  19.672  32.076  12.565
60018W        W32344   9.849  32.432  11.117
60019W        W32345  33.461   8.402   1.706
60020W        W32346  23.035  17.636  14.928
60021W        W32347  18.137  41.827   1.934
60022W        W32348  18.121  23.217  14.353
60023W        W32349  35.534   5.860  12.349
60024W        W32350  42.832  27.462   2.724
60025W        W32351  26.014  16.306   5.263
60026W        W32352  14.308  27.492   1.838
60027W        W32353  38.902   0.854  11.417
60028W        W32354  32.934  34.028   9.459
60029W        W32355  22.545  20.768  13.917
60030W        W32356  21.732  17.108   3.736
60031W        W32357   4.367  15.220   3.183
60032W        W32358  19.671  13.741  12.078
60033W        W32359  10.264  26.502   2.180
60034W        W32360  38.915  14.135  12.401
60035W        W32361   6.402  15.143   1.879
60036W        W32362  23.128   1.871  10.549
60037W        W32363  22.589   6.886  11.487
60038W        W32364   0.826  24.027  12.514
60039W        W32365  10.766  38.374   1.879
60040W        W32366  12.838  16.709  12.871
60041W        W32367  19.664  14.663  14.977
60042W        W32368  12.173  27.948  10.512
60043W        W32369  13.839  13.138  10.443
60044W        W32370  15.784  42.394   0.464
60045W        W32371  21.601   1.312  13.417
60046W        W32372  12.293  33.026  13.432
60047W        W32373  26.583  14.272   2.671
60048W        W32374  42.901  19.672   2.784
60049W        W32375  20.723  19.048   1.229
60050W        W32376  25.003   8.244  12.441
60051W        W32377  21.039  24.184  12.506
60052W        W32378  30.938  37.410   4.301
60053W        W32379   2.940   8.862  14.892
60054W        W32380  15.264   6.782   2.744
60055W        W32381  40.034  17.134   0.758
60056W        W32382  40.343  34.556  13.443
60057W        W32383  32.995   2.298   0.945
60058W        W32384  23.549   0.878  10.468
60059W        W32385   9.651  15.722  11.538
60060W        W32386   2.319   0.823   2.729
60061W        W32387  10.739  40.381  11.891
60062W        W32388  16.177  22.630  14.348
60063W        W32389   4.791  26.589   4.288
60064W        W32390  44.333  37.451   1.878
60065W        W32391  30.426  40.973   2.278
60066W        W32392  13.196  14.312  11.603
60067W        W32393  27.586  32.994   2.707
60068W        W32394   5.918  37.002  14.843
60069W        W32395  22.672  40.348  12.485
60070W        W32396  29.544  32.986  13.387
60071W        W32397  12.852  42.444   4.742
60072W        W32398   4.935  10.809   2.800
60073W        W32399   7.804   9.656   0.857
60074W        W32400  16.117   9.175  14.399
60075W        W32401  14.309   4.290  14.849
60076W        W32402  18.667  22.081  12.545
60077W        W32403   8.670   7.845  10.897
60078W        W32404  35.011   1.807  12.576
60079W        W32405  28.069   6.353   5.316
60080W        W32406   8.184   8.269  14.443
60081W        W32407  32.536  26.165  13.826
60082W        W32408  34.932  31.054   2.317
60083W        W32409  22.148  44.380   3.765
60084W        W32410  24.227  28.658   4.220
60085W        W32411  39.831   9.758  13.871
60086W        W32412  16.669   7.282  14.940
60087W        W32413  22.538  32.095  10.568
60088W        W32414  11.372  18.614  12.893
60089W        W32415  15.115   1.438   2.835
60090W        W32416  25.146  19.115  14.372
60091W        W32417  16.586  20.069  10.408
60092W        W32418   3.822  16.604   2.416
60093W        W32419   7.827   0.413   2.711
60094W        W32420  43.420  31.470  10.423
60095W        W32421  33.466   4.839   9.987
60096W        W32422  29.514  33.984   2.734
60097W        W32423  10.829   5.193  10.464
60098W        W32424  27.953  15.292   3.739
60099W        W32425   6.318  18.137   2.880
60100W        W32426   1.770  33.117   1.871
60101W        W32427   8.711  42.994  10.457
60102W        W32428  20.667  44.814  12.036
60103W        W32429  10.204  28.480  10.524
60104W        W32430   9.157  34.989   3.803
60105W        W32431  28.142  34.383   0.939
60106W        W32432  35.916  34.008  10.964
60107W        W32433  26.169  22.670  10.471
60108W        W32434  33.488  15.735   1.921
60109W        W32435  35.977  37.478  11.388
60110W        W32436  29.544  12.192  11.043
60111W        W32437  15.263  29.008   3.827
60112W        W32438  39.941  20.256   0.942
60113W        W32439  12.302  44.397   2.378
60114W        W32440  25.175  13.669  11.515
60115W        W32441  29.586  11.365  12.934
60116W        W32442  33.094  41.347   4.204
60117W        W32443  34.605   4.832  12.380
60118W        W32444  42.507  12.610  12.961
60119W        W32445  37.031  24.581   2.407
60120W        W32446  19.719   2.350   0.390
60121W        W32447  21.617  18.680   2.813
60122W        W32448  33.488  29.631   0.929
60123W        W32449  11.197   2.725  11.041
60124W        W32450  12.679  26.071   2.672
60125W        W32451  27.600  22.225   0.474
60126W        W32452  16.681  24.054   2.402
60127W        W32453  35.416  44.952  10.952
60128W        W32454  29.629   1.864   0.366
60129W        W32455  28.085  27.122  12.044
60130W        W32456  22.065   7.353  13.839
60131W        W32457  16.275  19.273  13.930
60132W        W32458  29.949  15.263  13.012
60133W        W32459  20.163  37.887  12.952
60134W        W32460  41.538  14.653   4.153
60135W        W32461  17.741  30.967  12.493
60136W        W32462  12.771   0.468  13.390
60137W        W32463   8.296  12.792  11.558
60138W        W32464  33.062  25.012  10.972
60139W        W32465  25.604  14.334   4.203
60140W        W32466  22.055   8.242  11.425
60141W        W32467  29.566   9.842  12.532
60142W        W32468  35.007  14.607   2.277
60143W        W32469   2.417  14.834   1.211
60144W        W32470  10.810  23.513   2.690
60145W        W32471  17.107  34.534  12.934
60146W        W32472  17.116  16.577  14.002
60147W        W32473   7.783   8.325   2.771
60148W        W32474  19.694  18.774  12.066
60149W        W32475  16.175  32.591  11.401
60150W        W32476  34.876  41.937  12.943
60151W        W32477  41.434   3.356   0.728
60152W        W32478  16.220  44.437  10.133
60153W        W32479  32.621  31.972   0.422
60154W        W32480  18.702  32.499  12.845
60155W        W32481  32.410   7.666   4.350
60156W        W32482  36.398  10.807  12.092
60157W        W32483  42.788  22.714   4.708
60158W        W32484  32.455  31.148  13.416
60159W        W32485  20.104   1.870   2.247
60160W        W32486  33.481  17.137   5.245
60161W        W32487  43.909  33.523  12.476
60162W        W32488  23.013   9.779   2.797
60163W        W32489  11.267  37.392  10.557
60164W        W32490   4.328  38.518  14.307
60165W        W32491  35.391   2.927   3.707
60166W        W32492  12.228  42.377  13.858
60167W        W32493  32.041  40.480  11.019
60168W        W32494  28.176  35.568   4.829
60169W        W32495  33.926  33.098  13.943
60170W        W32496  12.623  20.561   2.386
60171W        W32497   8.727  16.811  11.107
60172W        W32498  17.725  27.492   1.289
60173W        W32499  20.573   0.472   2.797
60174W        W32500  18.776  14.776  13.033
60175W        W32501  29.525  13.666   0.789
60176W        W32502  18.107   2.732   3.296
60177W        W32503  24.166  34.395  10.051
60178W        W32504   6.211  11.253   0.467
60179W        W32505   3.788   4.709  14.027
60180W        W32506  27.486  34.950  13.900
60181W        W32507  30.416  36.444  10.589
60182W        W32508  42.890  11.725  13.364
60183W        W32509  14.148  32.056  12.026
60184W        W32510  26.615   8.769  13.930
60185W        W32511  28.468  23.715   0.453
60186W        W32512   4.706  27.945  10.438
60187W        W32513   7.394  44.424  13.363
60188W        W32514  42.014  19.243   2.205
60189W        W32515  20.649  15.255  11.604
60190W        W32516  20.229  29.490  12.524
60191W        W32517  17.674  11.857   4.294
60192W        W32518  40.455  14.302   3.692
60193W        W32519  32.080  27.674   0.944
60194W        W32520   7.774  25.206  11.587
60195W        W32521  40.001  22.233  12.481
60196W        W32522  32.955   8.684  12.881
60197W        W32523   9.277  22.247  13.471
60198W        W32524  26.490  39.536   4.205
60199W        W32525  11.820  44.988  10.560
60200W        W32526  14.167   9.201   3.215
60201W        W32527  44.927   4.905   1.275
60202W        W32528  33.401  12.837  12.387
60203W        W32529  38.067  42.377   3.825
60204W        W32530  14.816  30.504   3.325
60205W        W32531  31.540  21.617   2.717
60206W        W32532  38.556   7.845   1.368
60207W        W32533   8.674  28.676   2.242
60208W        W32534  38.448   2.854  13.997
60209W        W32535  27.676  13.195  11.552
60210W        W32536   1.882   1.392  11.926
60211W        W32537  26.580  36.885   4.715
60212W        W32538  36.585  17.293  11.863
60213W        W32539  35.475  43.485  11.493
60214W        W32540  15.618  30.113  12.531
60215W        W32541  12.351  26.036  11.903
60216W        W32542  16.261   7.839   0.900
60217W        W32543  21.522  25.535   3.312
60218W        W32544   6.749  35.438   4.791
60219W        W32545   1.964   9.860   1.725
60220W        W32546  18.123  27.035  12.830
60221W        W32547  35.482  35.920  13.872
60222W        W32548  41.523   3.896   5.240
60223W        W32549  39.830  34.084   4.835
60224W        W32550   1.247  35.422  13.018
60225W        W32551  27.522  15.128   3.340
60226W        W32552   4.865  42.008  14.813
60227W        W32553  17.101  22.098   0.411
60228W        W32554   6.740  24.121   3.357
60229W        W32555  15.700  37.996  11.583
60230W        W32556  21.731  40.046  13.999
60231W        W32557  21.110  38.426   4.333
60232W        W32558  35.594  37.034   2.740
60233W        W32559  36.396  24.196   4.709
60234W        W32560   3.782  23.987  11.565
60235W        W32561  13.146  34.606   5.274
60236W        W32562  14.773  44.452  11.006
60237W        W32563   4.329  13.667   2.777
60238W        W32564  42.934  39.347  13.855
60239W        W32565  11.154  10.293   2.376
60240W        W32566   3.415  34.483   0.291
60241W        W32567   8.389  15.214  11.466
60242W        W32568  15.303   8.286  11.090
60243W        W32569  11.696  40.041   3.349
60244W        W32570   2.409  34.888  10.152
60245W        W32571   3.382  32.499   1.436
60246W        W32572  26.060  15.710  14.990
60247W        W32573  41.995   8.740  10.941
60248W        W32574  11.705  19.137  11.071
60249W        W32575  32.524  16.199  11.074
60250W        W32576  13.199  38.057  10.486
60251W        W32577  18.650   5.830  10.997
60252W        W32578  28.968   0.290  13.528
60253W        W32579  21.243  28.635  13.424
60254W        W32580   6.708  40.433   4.661
60255W        W32581  25.060  17.187   3.742
60256W        W32582  41.856   4.265   2.831
60257W        W32583  44.785   2.879   4.816
60258W        W32584  10.859  38.041  12.558
60259W        W32585   3.731  29.492  10.925
60260W        W32586  41.847   8.810  13.354
60261W        W32587  27.657  25.547  12.095
60262W        W32588   2.906  29.545  12.008
60263W        W32589  22.140  17.762   4.190
60264W        W32590  20.239  29.040   1.723
60265W        W32591  15.720  34.896  14.864
60266W        W32592  15.102   4.858   4.630
60267W        W32593  11.797  43.914   4.314
60268W        W32594  40.380  23.523   2.736
60269W        W32595  36.099   6.899  10.953
60270W        W32596  14.200  14.309  12.439
60271W        W32597  40.035  23.193  10.452
60272W        W32598   7.904   0.780  11.929
60273W        W32599   5.239  35.513  12.854
60274W        W32600  11.643  24.645  14.899
60275W        W32601   7.172  30.025   3.717
60276W        W32602  41.847  29.118   0.854
60277W        W32603  20.716  25.654   2.196
60278W        W32604  24.084  11.337   1.350
60279W        W32605   3.761  27.642   4.818
60280W        W32606  28.934  17.145  14.032
60281W        W32607  32.553  41.836   1.443
60282W        W32608  21.095  29.963  11.590
60283W        W32609  22.726  10.310  12.971
60284W        W32610  40.803   5.911  13.900
60285W        W32611  41.304  31.402   0.794
60286W        W32612  22.184  42.898   1.265
60287W        W32613  31.475  38.928   3.317
60288W        W32614  40.309   2.767  12.043
60289W        W32615   2.380   1.978   4.634
60290W        W32616  44.981  17.202  11.486
60291W        W32617  33.550  22.577   1.911
60292W        W32618  34.096   1.750  10.429
60293W        W32619  37.832  29.086  12.911
60294W        W32620  44.376  39.878   2.752
60295W        W32621   7.293  26.092   0.272
60296W        W32622  32.066  36.902   1.437
60297W        W32623  36.955  27.143   3.696
60298W        W32624  36.020  21.692   2.225
60299W        W32625  36.590   4.917  10.954
60300W        W32626  38.876   5.282  12.979
60301W        W32627  29.968  19.098   3.868
60302W        W32628  15.219  20.756   3.373
60303W        W32629  33.427  13.744  14.854
60304W        W32630  32.608  44.807   3.224
60305W        W32631   0.376  42.281   1.749
60306W        W32632  32.901   4.355  10.950
60307W        W32633   9.653   9.158  10.430
60308W        W32634  44.354  23.160   1.409
60309W        W32635  42.981  18.093  11.410
60310W        W32636  34.555  40.862  13.484
60311W        W32637  37.957  31.142   3.332
60312W        W32638  27.179  43.817   3.223
60313W        W32639  37.498   2.834   0.791
60314W        W32640  38.033  32.453  12.860
60315W        W32641   0.942   4.223  11.107
60316W        W32642  25.486  21.081  14.955
60317W        W32643   3.310  22.612  10.595
60318W        W32644   3.387  29.564   3.366
60319W        W32645  32.581  25.637   3.856
60320W        W32646  34.906  41.363  11.906
60321W        W32647   7.873  34.529  10.501
60322W        W32648  21.134  15.241   0.895
60323W        W32649   1.315  11.276  12.454
60324W        W32650   7.299  44.278  12.019
60325W        W32651  11.676  38.358  14.942
60326W        W32652  29.524  17.675   1.344
60327W        W32653  35.028  27.563  13.928
60328W        W32654  31.536  15.235   2.800
60329W        W32655  21.118  15.156   0.314
60330W        W32656  18.079  32.930  12.433
60331W        W32657  32.390  40.003  11.863
60332W        W32658  24.146  37.445   1.243
60333W        W32659  20.059  27.951   4.136
60334W        W32660  23.129  20.725  13.812
60335W        W32661  16.635  25.019   4.351
60336W        W32662  39.445  44.760  14.990
60337W        W32663  40.535   1.857   0.372
60338W        W32664  40.841   1.902  14.951
60339W        W32665   0.807  24.484   2.333
60340W        W32666  39.041  38.342  10.960
60341W        W32667  23.713  12.837   1.223
60342W        W32668  11.824   3.804  12.832
60343W        W32669  21.128   9.395  12.517
60344W        W32670  20.106  35.953   1.443
60345W        W32671  14.598  33.566  11.109
60346W        W32672  20.691  41.525   2.405
60347W        W32673  20.049  18.187  12.550
60348W        W32674   5.884  37.469  13.533
60349W        W32675   5.837  39.033   1.766
60350W        W32676  22.535  14.726   2.298
60351W        W32677   4.887   9.223   3.173
60352W        W32678  31.082  12.157   3.345
60353W        W32679  36.987  30.468  11.970
60354W        W32680  14.159  22.044   4.242
60355W        W32681   7.691  24.102  13.890
60356W        W32682  22.176   8.369  14.397
60357W        W32683  13.610  19.266   0.908
60358W        W32684  16.274  11.825   1.817
60359W        W32685   0.896  30.573  10.054
60360W        W32686  23.005  20.087   2.831
60361W        W32687  18.785  32.397  12.452
60362W        W32688  29.492  26.703  11.491
60363W        W32689   4.429   1.284  14.920
60364W        W32690  24.083   0.249   3.373
60365W        W32691  39.018  21.151  14.948
60366W        W32692  24.601  32.615   1.382
60367W        W32693  27.569   5.892  13.927
60368W        W32694  44.466  35.886  13.507
60369W        W32695  16.568  10.845   1.871
60370W        W32696  44.925  22.568  13.339
60371W        W32697  33.045  27.084   1.929
60372W        W32698  38.012  20.048   1.888
60373W        W32699  29.612  21.570  14.817
60374W        W32700  13.215  16.691  12.567
60375W        W32701  41.007  14.277   2.263
60376W        W32702  37.413  15.180   3.378
60377W        W32703  22.526  10.226   4.120
60378W        W32704   0.942  22.247  14.029
60379W        W32705   9.260  34.865   1.251
60380W        W32706  26.676  33.426   2.769
60381W        W32707   7.728   6.922  10.502
60382W        W32708   8.851  30.018  10.521
60383W        W32709   3.403  44.900  13.896
60384W        W32710  43.932  39.426   2.303
60385W        W32711  24.502   3.304   5.281
60386W        W32712  17.672   9.719  12.939
60387W        W32713  42.992   9.877   4.226
60388W        W32714  35.549  34.446   2.383
60389W        W32715  35.004  42.000  13.873
60390W        W32716  17.706  27.632  10.595
60391W        W32717   2.745   9.237  13.331
60392W        W32718   9.810  40.453  12.511
60393W        W32719   5.820  21.067   1.933
60394W        W32720  23.028  27.022   1.756
60395W        W32721  41.006   8.267  14.030
60396W        W32722  31.483  31.586   2.859
60397W        W32723  34.432  30.480  11.552
60398W        W32724   2.783  23.136   0.334
60399W        W32725  15.630  25.096  12.568
60400W        W32726  38.035  24.217   4.766
60401W        W32727  33.122  35.377   2.183
60402W        W32728  23.156  12.123   2.763
60403W        W32729  23.664   7.298  13.888
60404W        W32730  11.336  18.751  13.791
60405W        W32731  11.703  30.006  11.385
60406W        W32732  15.133  23.062  13.517
60407W        W32733  28.505  22.571   3.793
60408W        W32734  28.006   2.337   2.243
60409W        W32735  36.580  44.323  14.277
60410W        W32736   4.817  29.541  14.780
60411W        W32737  42.821   7.235   0.402
60412W        W32738   3.259  43.307   0.386
60413W        W32739  32.501  44.293   4.283
60414W        W32740  27.515  27.649  14.291
60415W        W32741  26.067   9.265   0.887
60416W        W32742  13.214  16.304  11.100
60417W        W32743  22.161   4.855   2.397
60418W        W32744  42.378  33.587   0.751
60419W        W32745   3.275  10.823  14.804
60420W        W32746   3.288   8.703   1.417
60421W        W32747  23.646   4.349   0.849
60422W        W32748   3.778   2.834  13.063
60423W        W32749  22.209  40.497   3.374
60424W        W32750  24.158  12.233  12.963
60425W        W32751  10.835  23.237   4.823
60426W        W32752   8.219  18.099  11.506
60427W        W32753  26.096   2.389   4.197
60428W        W32754  22.166  31.542  13.368
60429W        W32755  35.077  23.100   2.224
60430W        W32756   9.695  41.891  10.645
60431W        W32757   0.924  15.171  13.860
60432W        W32758  30.581   9.155  14.389
60433W        W32759  22.526  43.924  10.507
60434W        W32760   4.256  39.815  14.961
60435W        W32761   2.472  14.628   4.643
60436W        W32762   9.806  27.081  11.459
60437W        W32763  44.369  36.904   2.218
60438W        W32764  33.545   1.248   2.387
60439W        W32765  27.608  14.317  12.538
60440W        W32766  11.299  37.834   2.894
60441W        W32767  19.196  29.651   3.262
60442W        W32768  22.114  25.682   3.243
60443W        W32769  37.034  14.171  12.933
60444W        W32770  19.557  24.088   4.229
60445W        W32771  28.001  37.540   4.791
60446W        W32772  37.010  30.476  12.942
60447W        W32773  28.650  25.523  11.516
60448W        W32774  35.363  23.628  12.876
60449W        W32775  36.062  44.832  11.108
60450W        W32776  40.960  42.484  11.593
60451W        W32777   9.302  27.518  14.302
60452W        W32778  15.769   1.396   3.657
60453W        W32779  30.623   9.712   1.296
60454W        W32780   8.320  13.694  12.892
60455W        W32781  33.590  14.615  11.859
60456W        W32782   5.286  12.208  11.989
60457W        W32783  22.639   5.404   4.177
60458W        W32784  39.893  31.481   1.761
60459W        W32785  18.693  21.216  10.160
60460W        W32786  20.663  33.459  13.454
60461W        W32787  37.382  25.210   2.749
60462W        W32788  39.507  34.040   0.455
60463W        W32789  27.666  19.044  13.035
60464W        W32790  37.365  32.063   1.314
60465W        W32791  19.092  13.306   0.374
60466W        W32792  16.122  39.958  13.478
60467W        W32793  14.310   7.249  12.490
60468W        W32794  19.244   2.290   3.864
60469W        W32795   1.759  33.101   0.796
60470W        W32796  19.211  33.626   0.775
60471W        W32797  26.570   3.230  12.044
60472W        W32798  42.014  28.969   2.404
60473W        W32799  30.984  36.843   1.873
60474W        W32800  30.578   0.342   3.826
60475W        W32801  42.319   0.435  13.541
60476W        W32802   1.802  31.047   3.268
60477W        W32803   4.783   4.928  11.103
60478W        W32804  40.534  44.321   2.731
60479W        W32805  33.521   3.319   3.759
60480W        W32806  38.534   3.239  11.865
60481W        W32807   6.792  22.127   3.277
60482W        W32808  17.302   6.889  12.346
60483W        W32809   2.928   6.256  13.010
60484W        W32810  32.903  10.333  10.479
60485W        W32811   6.836  26.525  14.841
60486W        W32812   9.697  31.994   4.293
60487W        W32813  33.981  19.182   1.928
60488W        W32814  38.053  17.585   2.676
60489W        W32815  19.158   9.871  13.854
60490W        W32816  41.416  10.864  11.065
60491W        W32817  15.585   8.782   2.750
60492W        W32818  29.082  22.229   2.835
60493W        W32819  15.741  23.711  12.849
60494W        W32820  20.237  25.127  10.111
60495W        W32821  44.982  20.256  14.998
60496W        W32822  41.816  35.571  11.374
60497W        W32823  19.063  30.522   0.284
60498W        W32824  33.978  33.445   5.303
60499W        W32825  40.908  14.723  11.604
60500W        W32826  19.192   4.901  10.431
60501W        W32827  34.935  39.514  13.409
60502W        W32828  16.808  19.533   5.249
60503W        W32829  20.148  41.948   4.794
60504W        W32830  16.258  22.217  13.401
60505W        W32831  20.063  32.464   1.846
60506W        W32832  33.405   1.938  14.294
60507W        W32833  40.942  24.498  11.969
60508W        W32834  43.481  31.128   3.191
60509W        W32835  41.867  19.046  12.051
60510W        W32836  23.092  17.736   4.626
60511W        W32837   7.378  44.961  11.867
60512W        W32838  37.370  24.690  13.007
60513W        W32839   7.197   7.726   2.754
60514W        W32840  19.170  34.109   3.858
60515W        W32841  28.038  10.730  10.899
60516W        W32842  12.836  16.678   0.838
60517W        W32843   5.759  28.001   3.249
60518W        W32844  41.876  14.757   4.228
60519W        W32845  41.035   3.432  13.984
60520W        W32846  25.160  42.899   0.773
60521W        W32847   1.246   3.247  11.483
60522W        W32848  14.595  37.422   0.266
60523W        W32849   0.400  43.363   3.737
60524W        W32850  10.671  19.133  11.973
60525W        W32851  15.101  41.906  13.004
60526W        W32852  19.164  21.558  11.957
60527W        W32853  23.605  23.097  10.624
60528W        W32854  13.246  26.201   4.753
60529W        W32855  31.521  20.596   1.861
60530W        W32856  21.051  24.094  13.315
60531W        W32857   0.391  10.829  11.913
60532W        W32858  34.041   3.725   0.863
60533W        W32859  31.627  20.626   3.801
60534W        W32860  15.636  26.525   4.701
60535W        W32861  11.343  15.720  12.379
60536W        W32862   1.242   2.390  11.074
60537W        W32863   1.359  31.061   4.176
60538W        W32864  37.544  33.932  10.464
60539W        W32865  41.920   4.784  12.431
60540W        W32866  21.200  25.553  11.610
60541W        W32867  22.676  29.523   9.943
60542W        W32868  13.668  38.059  12.471
60543W        W32869  21.566  11.372  14.020
60544W        W32870  35.009  44.444   4.309
60545W        W32871  13.731  26.095  13.062
60546W        W32872  38.567  30.544  12.379
60547W        W32873  31.036  41.813   3.312
60548W        W32874  42.947  15.781  11.431
60549W        W32875  37.500  36.515   2.813
60550W        W32876  41.529  23.160  10.519
60551W        W32877  36.852  31.571   2.271
60552W        W32878   4.445   8.671  10.614
60553W        W32879  27.030   4.386  12.472
60554W        W32880  17.110  32.967   2.734
60555W        W32881  29.486  39.422  11.411
60556W        W32882  29.590  31.969   3.630
60557W        W32883  15.134  12.137  11.016
60558W        W32884  44.374  36.008   4.693
60559W        W32885  28.624  23.671  14.961
60560W        W32886  39.825  17.651   4.288
60561W        W32887   9.212  32.062   1.878
60562W        W32888  27.472  18.578  12.424
60563W        W32889  26.497  28.959   1.800
60564W        W32890  29.570  35.590   3.819
60565W        W32891  22.161   4.915   4.229
60566W        W32892  24.179  18.678  10.148
60567W        W32893  32.924  24.613  11.901
60568W        W32894  29.148  12.631   2.897
60569W        W32895   9.650  26.117   4.178
60570W        W32896  27.511   5.695  10.525
60571W        W32897   0.345  20.244  11.459
60572W        W32898  36.411   4.327  11.591
60573W        W32899   6.873  36.961  14.432
60574W        W32900  14.785   2.369   1.214
60575W        W32901  27.618  27.089  11.918
60576W        W32902   3.257  28.982  14.423
60577W        W32903  36.458  13.331   4.222
60578W        W32904  25.018  12.704  13.467
60579W        W32905   8.354  19.157   1.282
60580W        W32906  44.277  27.073   4.209
60581W        W32907  10.145  32.054   5.289
60582W        W32908  32.005  12.331   1.212
60583W        W32909  39.344  26.657  12.900
60584W        W32910  23.520  33.558  12.489
60585W        W32911  35.460  30.061   1.922
60586W        W32912   9.358  10.284  14.278
60587W        W32913   5.774  16.120  12.425
60588W        W32914  27.151  20.691  12.407
60589W        W32915  14.806  35.466  14.511
60590W        W32916  16.217  18.121  14.295
60591W        W32917   4.704  36.903   4.173
60592W        W32918  26.116  43.384   2.890
60593W        W32919  24.617  24.687  13.872
60594W        W32920  12.668   7.365  10.544
60595W        W32921  35.524  36.498   3.840
60596W        W32922  37.419  32.000   5.107
60597W        W32923  38.550  38.972  12.829
60598W        W32924  28.151  19.608  13.429
60599W        W32925  27.459  40.343  10.407
60600W        W32926  39.918  42.991   0.327
60601W        W32927  23.169  17.125  12.885
60602W        W32928  13.296  19.228  11.884
60603W        W32929  24.564  10.138  11.386
60604W        W32930  12.629  33.551  10.641
60605W        W32931  37.538  31.487   1.814
60606W        W32932  25.657   7.684   0.413
60607W        W32933   9.163   1.446  13.887
60608W        W32934  35.001  28.654   4.620
60609W        W32935  21.641   9.765  14.920
60610W        W32936  28.131  28.470  12.960
60611W        W32937  41.829  23.205   2.410
60612W        W32938  25.590  43.908   4.242
60613W        W32939  32.539   3.295   2.336
60614W        W32940   1.336  24.079  14.920
60615W        W32941  33.042  34.598  12.072
60616W        W32942   6.222  41.970   3.656
60617W        W32943   6.351  26.959   2.761
60618W        W32944  18.548  13.671  12.482
60619W        W32945  14.268   5.699   4.829
60620W        W32946  34.069  33.997   1.355
60621W        W32947   6.838  21.263   0.867
60622W        W32948   0.439  30.597   3.853
60623W        W32949  10.721  42.467   2.220
60624W        W32950  36.369  35.359   4.601
60625W        W32951  25.113  38.571  11.600
60626W        W32952  36.025   3.863  11.121
60627W        W32953  44.369  10.327   0.337
60628W        W32954  39.946  19.580  14.905
60629W        W32955   6.242   8.768   0.323
60630W        W32956  41.984  29.431   4.306
60631W        W32957  35.577  19.198  12.827
60632W        W32958  38.053   1.795  13.535
60633W        W32959   4.757  21.044   2.285
60634W        W32960  15.707  17.076   3.145
60635W        W32961  39.532  26.530   3.218
60636W        W32962   6.865   6.236   2.415
60637W        W32963   7.269  24.057  14.017
60638W        W32964  12.276  16.592  11.921
60639W        W32965  12.189  33.117   0.396
60640W        W32966  28.604  40.325   3.332
60641W        W32967  15.695  10.339   3.677
60642W        W32968  36.578  27.553  10.442
60643W        W32969  20.248   8.866   5.081
60644W        W32970  18.187  42.393   1.272
60645W        W32971  37.456  10.670  13.811
60646W        W32972  27.183  26.133   3.202
60647W        W32973  15.613  30.652  11.983
60648W        W32974  42.899  30.963   2.254
60649W        W32975  31.602   6.211  11.460
60650W        W32976   0.302  16.140  13.548
60651W        W32977  32.514  19.117   2.299
60652W        W32978  31.045   6.406   0.840
60653W        W32979  26.524  17.118   4.597
60654W        W32980  35.419  16.670  10.992
60655W        W32981   0.337  30.507   0.869
60656W        W32982   0.888  18.186   3.633
60657W        W32983  35.469  10.746   2.360
60658W        W32984   6.810  20.064  11.554
60659W        W32985   8.383   6.427   0.309
60660W        W32986  39.065  44.992   3.640
60661W        W32987  15.159  21.100  12.920
60662W        W32988  37.358  28.447  12.344
60663W        W32989  22.681   7.384   1.409
60664W        W32990  40.883  23.207  12.823
60665W        W32991   8.392  37.434   1.832
60666W        W32992  23.579  13.277   3.355
60667W        W32993  16.276  31.464  11.075
60668W        W32994  21.230  35.917   4.799
60669W        W32995  32.468   9.747   3.810
60670W        W32996  14.303  41.900   3.773
60671W        W32997   2.843   1.757   0.471
60672W        W32998  20.605  13.229   2.372
60673W        W32999   8.386  23.508  14.953
60674W        W33000   3.419   4.821   4.133
60675W        W33001  30.446   5.229   4.332
60676W        W33002  13.240  32.607   4.230
60677W        W33003  35.100   9.713  12.981
60678W        W33004  20.244   9.284  13.940
60679W        W33005  34.869  15.288  12.570
60680W        W33006  28.614  38.423   3.284
60681W        W33007  28.443  12.705  11.003
60682W        W33008  44.911  38.978  14.401
60683W        W33009  20.760  38.510   3.774
60684W        W33010  44.786  14.281  14.439
60685W        W33011  41.389  32.403   0.861
60686W        W33012  32.957  42.863   1.851
60687W        W33013  20.679  34.087  10.585
60688W        W33014  30.950  30.535  14.375
60689W        W33015  32.504  22.557   4.136
60690W        W33016  32.085  43.370   3.838
60691W        W33017  36.386  26.661   1.802
60692W        W33018  30.577  19.775  10.589
60693W        W33019  18.737   1.360  12.082
60694W        W33020  23.209  35.006  10.528
60695W        W33021   7.735  44.930   0.908
60696W        W33022  23.515  40.307  10.534
60697W        W33023  16.294  29.116   4.150
60698W        W33024  21.624   3.279  12.995
60699W        W33025  13.308  15.803   4.139
60700W        W33026  22.509  24.034   2.359
60701W        W33027   2.803   1.871  14.906
60702W        W33028  41.978   4.429   0.245
60703W        W33029   2.304  27.636  14.772
60704W        W33030  27.966  14.798  11.068
60705W        W33031  36.868   2.245   3.699
60706W        W33032  30.952  39.496  13.363
60707W        W33033  30.469  35.023   5.308
60708W        W33034  33.425  18.689  14.941
60709W        W33035  40.461  23.082  13.848
60710W        W33036  35.852  40.811  14.856
60711W        W33037  16.146  34.615   3.320
60712W        W33038  35.400   5.719  13.389
60713W        W33039  42.527   5.313  12.345
60714W        W33040  26.547  15.753   4.833
60715W        W33041   3.331   6.367   4.339
60716W        W33042  15.158   1.361   0.395
60717W        W33043   9.844  26.072  13.392
60718W        W33044  43.359  19.625   5.157
60719W        W33045   5.324  10.213  14.321
60720W        W33046   1.483  30.022  10.974
60721W        W33047  36.011   9.177   4.214
60722W        W33048  15.307  10.249  13.794
60723W        W33049  12.681  43.021   0.843
60724W        W33050  12.734  26.500   4.779
60725W        W33051  21.588  34.940  11.075
60726W        W33052  17.115  17.237   0.779
60727W        W33053  44.998   6.206  11.597
60728W        W33054  34.446  12.640  11.124
60729W        W33055   5.889  17.251   4.831
60730W        W33056  40.863  16.577   4.274
60731W        W33057   8.841  12.855  14.300
60732W        W33058   8.834  14.121   4.698
60733W        W33059  14.339  22.012  14.305
60734W        W33060  30.088  31.946   0.429
60735W        W33061  21.537   8.274   0.919
60736W        W33062  31.600  34.431  12.544
60737W        W33063   5.799  23.157   1.814
60738W        W33064  32.624  24.020  14.952
60739W        W33065  35.588   9.209   2.402
60740W        W33066   8.403  10.262  14.808
60741W        W33067   9.789  17.644   1.452
60742W        W33068  26.491  20.654  13.530
60743W        W33069  29.035  32.103   0.828
60744W        W33070  15.248  22.073   3.738
60745W        W33071   0.857  25.615   4.297
60746W        W33072   6.190   1.970   0.848
60747W        W33073   2.425  25.028   5.313
60748W        W33074  21.678  32.139  10.449
60749W        W33075  29.661  23.597  13.323
60750W        W33076   5.866  26.485   2.806
60751W        W33077  25.967  23.156  12.889
60752W        W33078  23.203   7.829  11.406
60753W        W33079  24.053   2.933   1.383
60754W        W33080   3.948  30.151   2.866
60755W        W33081  29.142  24.722  12.399
60756W        W33082  27.111  34.428  11.393
60757W        W33083  10.663  36.076  14.343
60758W        W33084  12.130  22.648   2.813
60759W        W33085  32.897   2.337   3.223
60760W        W33086  30.446  21.207  10.058
60761W        W33087  28.619  38.374   2.257
60762W        W33088   6.813  13.631  13.800
60763W        W33089   3.788   7.378   3.727
60764W        W33090  42.824  18.725  11.432
60765W        W33091  38.058  41.428  13.059
60766W        W33092  33.127  44.262  11.953
60767W        W33093  35.435  35.064  10.496
60768W        W33094  15.153  40.832  10.464
60769W        W33095  40.425  22.218  14.407
60770W        W33096  16.682  42.404  13.543
60771W        W33097   5.250  17.298   0.458
60772W        W33098  36.854   4.353  11.377
60773W        W33099  23.670  27.533  11.449
60774W        W33100   9.324   6.404  12.870
60775W        W33101  18.130   3.284  14.464
60776W        W33102  30.924  13.759   4.775
60777W        W33103  22.541  33.540   1.216
60778W        W33104   9.165  29.441  10.536
60779W        W33105  11.249  12.140   0.362
60780W        W33106  31.080  16.084  13.530
60781W        W33107  15.217  16.614  12.359
60782W        W33108  24.106   9.799  11.868
60783W        W33109  12.254  24.081   4.657
60784W        W33110  12.681  37.387  13.864
60785W        W33111  10.728  20.079   1.309
60786W        W33112  31.925  18.747   2.291
60787W        W33113  43.499  29.549  10.970
60788W        W33114  23.008  41.034   3.215
60789W        W33115  26.074  31.402   1.890
60790W        W33116  37.941   1.954   4.170
60791W        W33117   8.246  21.682   1.759
60792W        W33118  32.059  42.406   1.395
60793W        W33119  33.494  27.108   2.722
60794W        W33120   5.740  41.505   0.773
60795W        W33121  23.164  33.470   3.180
60796W        W33122  23.002  34.106   2.781
60797W        W33123  40.452  27.576   3.273
60798W        W33124  36.910  41.468  13.966
60799W        W33125   0.839  27.644   4.257
60800W        W33126   6.784  22.226  11.545
60801W        W33127  28.171  11.805   2.672
60802W        W33128   4.761  12.856  13.811
60803W        W33129   4.332   3.225  13.837
60804W        W33130  44.975   0.887   1.356
60805W        W33131  41.921   7.291   0.802
60806W        W33132   7.779  41.904   4.727
60807W        W33133  14.128  17.129  11.442
60808W        W33134   1.466  28.615   4.609
60809W        W33135  14.226  16.665  13.824
60810W        W33136  42.931   8.384   0.844
60811W        W33137   6.250   2.755  13.405
60812W        W33138   5.397  30.103   2.855
60813W        W33139   3.714  30.490  11.599
60814W        W33140   8.704  42.806  14.919
60815W        W33141   7.402  16.674   2.324
60816W        W33142  14.156  22.676   4.719
60817W        W33143  17.081  13.798  13.475
60818W        W33144  23.590  43.505  11.372
60819W        W33145  24.004  12.708   4.670
60820W        W33146  39.889  43.871   1.391
60821W        W33147  25.097  19.193   1.785
60822W        W33148  22.641  26.010  14.807
60823W        W33149  35.366  37.994   1.768
60824W        W33150   2.357  17.590   0.457
60825W        W33151   8.725  11.771  12.070
60826W        W33152  43.277  31.615   0.352
60827W        W33153  30.023  10.661   0.961
60828W        W33154  36.074  15.235  13.816
60829W        W33155  22.149  17.168   4.243
60830W        W33156  22.145   9.850   0.774
60831W        W33157  40.531  12.647   3.318
60832W        W33158  19.284  27.104   4.607
60833W        W33159  31.609  24.536  14.502
60834W        W33160  24.059  18.664  11.501
60835W        W33161  33.587   9.381   0.734
60836W        W33162   1.366  17.567  11.549
60837W        W33163   1.842  13.259  14.862
60838W        W33164   9.673  38.520  11.072
60839W        W33165  26.610  27.458   0.356
60840W        W33166  23.697  43.963  13.972
60841W        W33167  40.324  32.584   4.689
60842W        W33168  43.398  26.564   4.179
60843W        W33169   2.848  17.229   3.338
60844W        W33170  43.464  43.412  11.416
60845W        W33171  31.975   8.329   4.191
60846W        W33172  36.051   5.923  14.383
60847W        W33173  40.908  27.949   0.911
60848W        W33174  12.118  29.437   1.383
60849W        W33175   8.739   2.312  14.436
60850W        W33176  17.284  27.526  13.042
60851W        W33177  26.143  36.061   1.869
60852W        W33178  35.050  28.664   1.888
60853W        W33179   4.846   9.226  13.836
60854W        W33180  43.509   7.262  12.863
60855W        W33181   7.332   3.291   4.717
60856W        W33182  28.997   5.833   2.205
60857W        W33183  22.622  22.211  14.025
60858W        W33184  23.088  34.929   4.124
60859W        W33185  12.851  40.411  13.314
60860W        W33186  42.453  40.826   1.817
60861W        W33187  41.995  16.207  10.611
60862W        W33188  43.840   4.768   2.775
60863W        W33189  11.684  19.108  10.112
60864W        W33190  14.753  43.904  10.893
60865W        W33191  34.004  36.465   2.179
60866W        W33192  24.224  12.653  14.932
60867W        W33193  42.339  29.628  12.431
60868W        W33194  34.564  18.282   3.860
60869W        W33195  17.720   5.434   1.900
60870W        W33196   4.450   2.225  11.911
60871W        W33197  35.603  36.392   4.136
60872W        W33198  26.185  22.070   4.753
60873W        W33199  39.838  11.837   1.720
60874W        W33200  26.691  12.203  11.378
60875W        W33201  42.348  13.752  14.902
60876W        W33202   4.417  16.172   0.340
60877W        W33203  43.395  22.126  14.003
60878W        W33204  12.192  17.715  10.547
60879W        W33205   5.245  28.461  13.034
60880W        W33206  28.105   9.294  11.374
60881W        W33207  31.415  28.452  13.478
60882W        W33208  19.178  31.634  13.971
60883W        W33209  24.127  14.611   3.787
60884W        W33210  35.868  15.742  10.459
60885W        W33211  25.633  40.797   2.219
60886W        W33212   0.458  25.532   0.911
60887W        W33213   3.398   1.333  12.515
60888W        W33214  44.936  20.235  13.364
60889W        W33215  40.534  42.954   4.189
60890W        W33216  32.488   7.833   2.825
60891W        W33217  15.780  26.157   4.215
60892W        W33218  42.953  14.190   1.450
60893W        W33219   8.182   3.383   1.703
60894W        W33220  29.472   0.412   4.744
60895W        W33221  37.546   2.268   3.382
60896W        W33222  28.935  43.945   1.790
60897W        W33223   7.310  40.341   4.295
60898W        W33224  39.844  42.931  11.066
60899W        W33225  11.256  37.975  13.965
60900W        W33226  39.064  29.109  11.964
60901W        W33227  31.524   4.401  13.430
60902W        W33228  34.974  25.028   4.161
60903W        W33229  36.910  27.609  12.949
60904W        W33230   6.191  14.231   4.131
60905W        W33231   9.805  30.014  13.041
60906W        W33232  24.133  36.068   4.221
60907W        W33233  27.679  11.314   0.468
60908W        W33234  43.901  21.059  14.279
60909W        W33235  37.522  30.584   4.686
60910W        W33236  13.749   4.271  10.994
60911W        W33237   0.253  11.764   0.841
60912W        W33238  41.936   1.908   3.222
60913W        W33239  41.990  30.001  13.485
60914W        W33240  30.546  12.837   1.397
60915W        W33241  39.948  12.150   0.790
60916W        W33242  25.130  14.753  10.508
60917W        W33243   2.301  35.854   0.857
60918W        W33244  35.085  30.091  11.048
60919W        W33245   5.310  34.569  12.428
60920W        W33246  15.791   5.747  10.956
60921W        W33247  23.235  32.060   4.287
60922W        W33248  25.032  10.676  11.914
60923W        W33249  30.109  32.452   0.807
60924W        W33250  41.314  26.699  13.417
60925W        W33251  43.853   9.364  12.439
60926W        W33252  17.720   2.429   3.153
60927W        W33253  29.158   2.861  10.623
60928W        W33254   7.398  37.972  11.611
60929W        W33255  12.789  27.453   5.735
60930W        W33256   5.433  37.859   4.227
60931W        W33257  37.027  31.123  13.391
60932W        W33258  18.789  34.009   3.843
60933W        W33259  35.444  27.988   0.939
60934W        W33260  38.337  34.542  12.013
60935W        W33261  43.839   3.884   2.256
60936W        W33262  44.782  39.890  10.574
60937W        W33263  14.182  27.580   4.678
60938W        W33264  25.976  17.593   4.821
60939W        W33265  39.540  30.459  11.895
60940W        W33266  13.271  21.616   0.350
60941W        W33267  31.462  13.705  11.042
60942W        W33268  17.580  17.607   3.648
60943W        W33269  30.104   7.182  10.610
60944W        W33270  36.056  24.593  13.426
60945W        W33271  42.784  33.401  14.867
60946W        W33272  37.348  41.486  12.404
60947W        W33273  35.884   8.266  10.458
60948W        W33274  33.076   7.674  12.370
60949W        W33275  25.468  19.254  13.415
60950W        W33276  35.968  41.801  13.493
60951W        W33277  28.059  14.162  10.050
60952W        W33278   8.219   7.801  13.835
60953W        W33279  39.384  26.470  10.495
60954W        W33280   9.255  41.831   4.342
60955W        W33281  42.985  33.059  12.481
60956W        W33282  39.510  32.548   1.845
60957W        W33283   0.379  42.790  11.044
60958W        W33284   1.964  29.443   1.378
60959W        W33285  30.533  19.192  11.088
60960W        W33286  34.567   5.259   4.835
60961W        W33287  41.891  40.524   0.751
60962W        W33288  32.494  24.988  14.870
60963W        W33289  44.914   4.295  12.417
60964W        W33290  12.347  22.010   1.837
60965W        W33291  24.539  28.673   4.644
60966W        W33292  40.845  29.011  11.407
60967W        W33293  31.041  23.629  14.905
60968W        W33294  14.667  15.649  14.002
60969W        W33295  15.088  22.129  13.019
60970W        W33296  15.108  44.445   3.379
60971W        W33297  43.292   1.262  13.484
60972W        W33298  21.233  13.334  11.518
60973W        W33299   0.273  10.791   0.893
60974W        W33300  34.977  10.222  11.003
60975W        W33301  19.641  42.396   4.777
60976W        W33302  29.520   6.713  13.420
60977W        W33303  15.191  13.638   3.157
60978W        W33304  22.706   5.842   1.741
60979W        W33305  36.929  16.581   2.890
60980W        W33306  44.433   8.744  12.431
60981W        W33307  30.140  36.524  12.044
60982W        W33308  13.176  18.723   2.818
60983W        W33309  13.660   4.232   4.641
60984W        W33310  36.978   5.328   1.244
60985W        W33311  24.183  15.303   0.435
60986W        W33312  38.899  44.949   0.918
60987W        W33313  25.493  34.502  11.488
60988W        W33314  10.319  39.899  13.496
60989W        W33315  33.380  20.552  12.579
60990W        W33316   0.445  18.571   1.238
60991W        W33317  27.564  36.927  10.555
60992W        W33318  40.420  10.274  13.413
60993W        W33319   1.902   5.397   4.598
60994W        W33320   5.932  38.989  11.566
60995W        W33321  32.131   7.807  13.514
60996W        W33322   2.928  38.055   2.733
60997W        W33323   1.294  36.948   0.369
60998W        W33324   7.340  16.146  10.563
60999W        W33325  26.975  10.329   1.373
61000W        W33326  20.174  42.498   1.281
61001W        W33327  33.435   2.806  11.948
61002W        W33328  26.077  29.153  10.621
61003W        W33329  43.298  17.184   3.780
61004W        W33330  20.130  28.122  10.442
61005W        W33331  31.943  27.011   1.849
61006W        W33332   8.185  20.612  14.376
61007W        W33333  30.983  29.660   2.861
61008W        W33334   9.241  44.982  10.458
61009W        W33335   1.284  19.545  12.012
61010W        W33336  24.672   0.850  12.095
61011W        W33337  23.654  19.088   4.746
61012W        W33338  24.115  28.137  10.413
61013W        W33339  29.174  14.762   4.818
61014W        W33340  43.482  15.629  11.063
61015W        W33341  19.226  42.313  11.473
61016W        W33342  41.408   9.743  12.018
61017W        W33343   5.401  25.051   2.255
61018W        W33344  27.166  14.204  12.095
61019W        W33345  24.179   1.935  14.906
61020W        W33346  39.000  30.439   0.449
61021W        W33347  32.117   7.211   1.289
61022W        W33348  22.193  26.956   2.186
61023W        W33349  13.647   1.315   3.223
61024W        W33350  27.564  22.089  10.454
61025W        W33351  44.312  33.991   3.379
61026W        W33352   1.397  29.041  10.944
61027W        W33353  20.028   9.152   0.273
61028W        W33354  14.254   3.878   2.669
61029W        W33355  44.419   8.799  10.130
61030W        W33356  40.947  43.789   3.278
61031W        W33357  13.200  38.409  14.024
61032W        W33358  25.966  21.514  10.582
61033W        W33359  25.091  27.986  14.766
61034W        W33360  35.901  32.413   2.677
61035W        W33361   7.903  28.068  14.979
61036W        W33362   3.923  14.189   1.317
61037W        W33363  17.228  41.001   3.340
61038W        W33364  19.119  17.579   4.201
61039W        W33365  16.201  41.827  13.353
61040W        W33366   6.727  41.369  10.427
61041W        W33367  17.210  32.473   4.127
61042W        W33368  34.900   3.822  11.542
61043W        W33369  25.214  31.646   2.886
61044W        W33370   8.270  22.586   2.786
61045W        W33371  42.418  23.084   1.757
61046W        W33372   2.355  13.833  14.876
61047W        W33373  27.008  34.539   4.674
61048W        W33374   2.330  20.115  11.545
61049W        W33375  24.508  16.759   3.694
61050W        W33376  14.233  38.491   4.715
61051W        W33377  18.261  15.608   1.761
61052W        W33378  26.156  27.041  12.947
61053W        W33379  41.949  29.023   1.370
61054W        W33380  17.569   1.942  10.515
61055W        W33381  35.378  35.974   0.432
61056W        W33382   7.840  15.111   3.836
61057W        W33383  16.110  25.053  13.457
61058W        W33384  37.416   0.886  11.082
61059W        W33385   7.665  18.114  14.316
61060W        W33386  27.613  37.566  14.315
61061W        W33387  37.371  17.603  12.080
61062W        W33388  22.100   4.720   1.808
61063W        W33389  13.684  28.091   3.667
61064W        W33390  35.552   4.327  10.422
61065W        W33391  12.248  36.080  10.026
61066W        W33392  16.573  43.424  12.057
61067W        W33393  22.204   4.733  13.042
61068W        W33394  34.509   2.268  12.469
61069W        W33395  31.600  38.395  14.792
61070W        W33396  42.910  26.082   1.384
61071W        W33397   7.796  40.930   0.473
61072W        W33398  27.623   9.165  12.902
61073W        W33399  32.021  28.994   4.788
61074W        W33400  31.110  22.732   3.233
61075W        W33401  17.581  22.708  11.062
61076W        W33402  34.368  26.601  13.864
61077W        W33403   2.721   9.887  13.950
61078W        W33404  16.202  15.599   1.922
61079W        W33405   1.414  41.522   0.249
61080W        W33406  32.922  18.075   4.178
61081W        W33407  37.921  41.798   1.819
61082W        W33408  10.159  22.659   0.250
61083W        W33409   6.906   5.689   2.367
61084W        W33410  27.078   8.827  11.115
61085W        W33411  38.944  25.179  12.022
61086W        W33412  31.609  26.985  14.339
61087W        W33413  44.486   5.782  11.412
61088W        W33414  41.493  35.074  12.968
61089W        W33415  30.526  12.747   4.238
61090W        W33416  19.154  41.998   0.881
61091W        W33417  21.677  16.273  10.494
61092W        W33418  35.973  20.090  12.568
61093W        W33419  15.785  21.238   3.202
61094W        W33420  34.447  21.721   4.185
61095W        W33421   1.890  20.153  12.895
61096W        W33422  37.908  21.139  14.302
61097W        W33423  23.531  41.428   2.819
61098W        W33424  23.023  43.838   1.372
61099W        W33425   1.817  39.529   1.934
61100W        W33426   0.861   1.436   2.815
61101W        W33427  16.731   3.444   3.698
61102W        W33428  26.010  31.099  10.990
61103W        W33429  27.510  43.997   1.314
61104W        W33430  21.732  40.042   0.835
61105W        W33431  34.902  38.014  10.411
61106W        W33432  12.677  18.143   1.374
61107W        W33433   0.480   7.194  13.485
61108W        W33434  36.891  18.202   3.317
61109W        W33435  16.271   3.886   0.474
61110W        W33436  30.521  29.505   0.289
61111W        W33437   2.359  18.122   1.757
61112W        W33438  17.666  29.444  14.923
61113W        W33439  36.893  15.259   1.740
61114W        W33440  14.119  35.918  12.472
61115W        W33441  27.144   4.853   0.964
61116W        W33442  20.071  10.330   3.634
61117W        W33443  43.411  14.615   4.720
61118W        W33444   5.838  11.865  14.487
61119W        W33445   9.150  19.562   4.796
61120W        W33446  44.914  28.944   3.354
61121W        W33447  14.332  40.443   4.308
61122W        W33448  15.284  33.480  11.900
61123W        W33449  36.937  43.006  11.517
61124W        W33450  22.154  37.962   3.718
61125W        W33451  37.049  33.897   0.801
61126W        W33452  22.109  25.669  10.555
61127W        W33453  12.833  44.422  12.507
61128W        W33454  24.724  11.811   4.835
61129W        W33455  24.026   1.853   1.740
61130W        W33456  36.549  40.858  11.974
61131W        W33457  22.109  27.491  13.346
61132W        W33458  11.256  14.263  10.540
61133W        W33459  38.372   4.234  10.919
61134W        W33460  31.924  25.611  11.093
61135W        W33461  42.830  14.207  11.608
61136W        W33462  29.424  15.657  13.309
61137W        W33463   0.404  28.181  14.823
61138W        W33464  25.021  36.471   4.778
61139W        W33465  16.254  25.683  14.481
61140W        W33466  39.436  32.518  11.577
61141W        W33467  20.133  23.205  10.628
61142W        W33468  42.299  19.264   4.199
61143W        W33469  37.837   4.846  10.999
61144W        W33470  29.048  26.162  13.443
61145W        W33471  24.647  35.090  14.829
61146W        W33472  40.956  29.504   1.379
61147W        W33473  15.591  38.869  14.874
61148W        W33474  21.059  10.775  10.957
61149W        W33475  31.502  32.010  14.323
61150W        W33476   7.236  14.227   4.168
61151W        W33477   3.928  41.851  14.326
61152W        W33478  37.537  39.885   2.867
61153W        W33479  18.103  30.652   0.336
61154W        W33480  20.717  20.214  14.442
61155W        W33481  44.950  35.433   3.382
61156W        W33482  17.635  15.629   0.320
61157W        W33483   6.909  26.077   3.179
61158W        W33484  11.277   0.894  11.021
61159W        W33485  42.458   3.362  11.503
61160W        W33486  33.452   2.842  13.051
61161W        W33487   1.826   5.200  13.913
61162W        W33488  13.271   1.757  11.427
61163W        W33489  19.226  44.806  10.464
61164W        W33490  36.351  39.873  13.521
61165W        W33491  23.160  22.582  13.924
61166W        W33492   6.839  25.992  12.843
61167W        W33493  33.977   4.417   4.221
61168W        W33494   6.244  23.631   3.359
61169W        W33495   5.208  28.980  11.534
61170W        W33496   9.807  23.506  12.471
61171W        W33497  27.596   8.728  10.909
61172W        W33498  28.133  10.216  12.902
61173W        W33499   8.162  34.965  11.387
61174W        W33500   1.804  24.976   3.862
61175W        W33501  44.776  15.660   2.898
61176W        W33502  43.832   4.396   4.786
61177W        W33503   3.910  10.191   3.703
61178W        W33504  20.565  25.505   3.712
61179W        W33505   7.317  26.185  10.504
61180W        W33506  19.538  18.109  12.029
61181W        W33507  25.153  19.197  10.924
61182W        W33508  27.489  23.125  12.959
61183W        W33509  21.126  36.528  11.113
61184W        W33510  18.278  19.113   4.126
61185W        W33511  16.299  22.637   1.301
61186W        W33512  21.746  11.779  11.523
61187W        W33513  30.096  40.832  11.379
61188W        W33514  41.517  24.659   3.759
61189W        W33515  32.417  16.672   0.300
61190W        W33516   0.868  15.693  10.608
61191W        W33517  30.511   7.849  10.488
61192W        W33518  35.054   1.467   2.728
61193W        W33519  24.544   8.219  12.881
61194W        W33520  40.905  14.689  11.920
61195W        W33521   8.768  34.903  14.913
61196W        W33522  13.815  36.574   5.318
61197W        W33523   6.362   6.210   3.328
61198W        W33524  43.339  13.316  14.888
61199W        W33525  18.259  39.527   3.353
61200W        W33526  24.645  12.335  13.372
61201W        W33527  40.827  40.888  14.506
61202W        W33528  22.639  33.086   2.809
61203W        W33529  21.084  37.961  14.482
61204W        W33530   9.843   6.318  13.506
61205W        W33531  18.598  28.643   2.892
61206W        W33532   5.385  32.600   0.298
61207W        W33533  40.937   7.346   3.301
61208W        W33534  17.119  36.516   0.950
61209W        W33535  14.652  28.557   4.694
61210W        W33536  28.148   0.869   0.388
61211W        W33537  35.533  11.353   9.626
61212W        W33538  32.109  39.878   1.279
61213W        W33539  29.600   6.677  12.492
61214W        W33540   5.885  26.666  14.398
61215W        W33541  42.785  24.122  13.411
61216W        W33542   6.919  15.811  13.944
61217W        W33543  11.335  11.820   1.731
61218W        W33544  10.330   3.874  10.103
61219W        W33545  34.969  39.535   3.377
61220W        W33546  13.275   9.743   1.908
61221W        W33547  42.426  30.450  13.989
61222W        W33548   0.870  40.800  12.436
61223W        W33549   7.349  11.164   0.913
61224W        W33550  31.545   5.701   4.779
61225W        W33551  18.729   5.694   3.839
61226W        W33552   0.323  20.574   0.850
61227W        W33553  22.551  33.095  10.927
61228W        W33554   8.184  33.581   2.848
61229W        W33555   7.850  24.531   1.325
61230W        W33556  44.262  35.992  14.841
61231W        W33557  25.071  38.556  14.772
61232W        W33558   2.455  40.374  13.393
61233W        W33559  24.480  44.296  11.427
61234W        W33560  22.715  15.589  14.003
61235W        W33561  24.688  35.417  14.418
61236W        W33562  28.989  29.470  11.430
61237W        W33563   4.772   8.355  12.456
61238W        W33564  27.024  40.891  13.354
61239W        W33565  14.713  42.803  10.644
61240W        W33566  31.927  22.535  11.947
61241W        W33567   0.264  38.915  12.351
61242W        W33568  11.679   7.842  11.873
61243W        W33569  39.552  27.039   3.209
61244W        W33570  18.131   1.814   3.652
61245W        W33571  17.228   2.790  11.612
61246W        W33572  37.970  15.141  13.880
61247W        W33573  42.903  36.040   3.377
61248W        W33574  13.644  38.916   2.322
61249W        W33575   2.318  12.678  14.820
61250W        W33576  26.168  41.487  13.426
61251W        W33577  26.663  18.722   0.822
61252W        W33578  14.118  38.846  12.483
61253W        W33579  26.514  38.516   0.832
61254W        W33580  29.956  38.022  12.540
61255W        W33581  39.359   8.390  13.540
61256W        W33582  13.293  11.308   0.815
61257W        W33583  39.403  31.488   0.362
61258W        W33584   3.248   9.220  13.420
61259W        W33585   0.446  40.899   0.822
61260W        W33586  20.538  37.422  14.921
61261W        W33587   6.727   4.336   4.835
61262W        W33588  31.143  33.586  12.859
61263W        W33589  15.316  11.355  13.823
61264W        W33590  10.710  39.317  12.552
61265W        W33591   8.212   0.778  12.474
61266W        W33592  14.663  29.150   3.335
61267W        W33593  24.187  13.122   1.336
61268W        W33594   1.961   1.816  11.570
61269W        W33595  33.443  33.407   5.116
61270W        W33596   7.762  34.503  14.786
61271W        W33597   5.386  26.183   4.239
61272W        W33598  31.603  41.844  11.526
61273W        W33599  34.982  19.588  14.778
61274W        W33600  33.406   6.893   4.793
61275W        W33601   1.731  21.565   2.805
61276W        W33602  36.590  30.016  10.546
61277W        W33603  30.983  39.888  12.576
61278W        W33604  38.389  11.352   0.342
61279W        W33605  42.403  44.495   2.899
61280W        W33606  16.292  28.656  10.438
61281W        W33607  36.367  37.070   2.740
61282W        W33608  22.514  30.928   2.857
61283W        W33609  21.748  27.504   3.215
61284W        W33610  30.996  27.568   1.903
61285W        W33611  13.180  29.436   1.929
61286W        W33612  13.119   0.368  13.487
61287W        W33613  19.748  23.501  11.001
61288W        W33614  33.891  19.609   0.481
61289W        W33615  13.114  29.934   1.887
61290W        W33616  15.171  37.444   2.819
61291W        W33617   6.864  36.449   3.298
61292W        W33618  22.243   2.284   1.229
61293W        W33619  35.582  17.150  13.327
61294W        W33620  22.533  11.692   1.769
61295W        W33621  37.026  19.688  10.597
61296W        W33622  42.359  31.154   2.408
61297W        W33623   8.325   1.372   1.360
61298W        W33624  32.913  35.853   2.363
61299W        W33625  40.819   9.185   0.925
61300W        W33626   2.883  18.128  10.518
61301W        W33627  13.767  18.235  13.013
61302W        W33628  23.503  10.752   0.769
61303W        W33629  41.021   4.712   4.660
61304W        W33630  33.125  14.181  12.062
61305W        W33631   6.686  27.489  13.052
61306W        W33632  18.663  27.596   1.910
61307W        W33633  16.656  27.076  12.474
61308W        W33634   0.454  40.332  14.296
61309W        W33635  33.597  39.879   1.825
61310W        W33636  20.107  26.632   3.190
61311W        W33637   4.842   4.317  10.012
61312W        W33638  36.847  39.539  11.972
61313W        W33639  27.514  29.426   2.411
61314W        W33640  31.048  44.322   1.903
61315W        W33641  23.659  22.039   1.294
61316W        W33642  36.533  42.825  14.416
61317W        W33643  23.671  23.151   1.855
61318W        W33644   4.407  11.773   5.693
61319W        W33645  27.057  23.574   1.823
61320W        W33646  24.608  18.548  12.519
61321W        W33647  17.082  18.640   1.815
61322W        W33648  35.961  27.608   0.328
61323W        W33649  29.015   6.684   1.385
61324W        W33650  36.931  43.507   2.353
61325W        W33651  30.923   0.465  13.448
61326W        W33652   7.797  14.164   3.354
61327W        W33653  14.320   4.239  12.060
61328W        W33654  29.009  38.905   3.225
61329W        W33655  34.488  20.113  11.599
61330W        W33656  37.933  24.688   3.164
61331W        W33657   7.783  36.906  13.441
61332W        W33658  31.056  24.570   1.382
61333W        W33659  13.801  27.123  10.624
61334W        W33660   6.237  41.387   3.359
61335W        W33661  33.882  33.402  10.043
61336W        W33662  25.115  43.272  13.064
61337W        W33663  23.220  41.501   2.370
61338W        W33664  15.744  42.970   3.718
61339W        W33665  17.610  20.096   4.168
61340W        W33666  35.537  27.165   1.830
61341W        W33667   2.941  10.293   2.782
61342W        W33668  16.142   5.337  10.625
61343W        W33669  25.608   3.765   4.284
61344W        W33670   7.367  23.133   2.744
61345W        W33671  39.868  14.192   1.738
61346W        W33672  22.226  32.475  11.037
61347W        W33673   9.731  38.476  14.898
61348W        W33674   5.267  14.176   2.408
61349W        W33675  16.611  27.089   1.855
61350W        W33676  21.581   5.430   1.694
61351W        W33677  41.326  22.089  10.444
61352W        W33678   6.192   2.802   1.211
61353W        W33679  32.530  41.500   2.296
61354W        W33680   7.756  30.636  14.771
61355W        W33681  27.613   3.840   1.744
61356W        W33682  35.596  29.155  14.967
61357W        W33683  22.029  22.655  12.905
61358W        W33684  30.118  14.320   4.147
61359W        W33685  18.696   8.817  10.585
61360W        W33686  43.865  19.741   4.648
61361W        W33687  31.086  37.511  12.488
61362W        W33688  34.898  35.891   4.649
61363W        W33689  26.077  36.446   2.802
61364W        W33690   6.327  13.675  13.511
61365W        W33691  28.163  18.168  14.327
61366W        W33692  21.139  11.366   4.741
61367W        W33693   9.856  36.569  14.475
61368W        W33694   8.742  39.329   4.679
61369W        W33695  16.271  13.214  13.542
61370W        W33696  33.102  26.185   3.228
61371W        W33697  13.607  13.234   1.301
61372W        W33698  43.275  38.435  13.973
61373W        W33699  19.770   2.298  14.957
61374W        W33700   7.808  30.061  13.490
61375W        W33701   6.811   0.411  10.915
61376W        W33702  37.407  12.824  11.054
61377W        W33703  14.674  13.799  12.091
61378W        W33704  22.630  39.015  12.463
61379W        W33705  12.206   2.317   4.726
61380W        W33706  10.668  25.686  12.489
61381W        W33707  42.835  24.059   2.877
61382W        W33708  44.385  32.010  14.810
61383W        W33709   4.405  11.164  14.481
61384W        W33710  37.970  43.491  14.963
61385W        W33711  24.484  36.478  10.543
61386W        W33712  37.487  42.831  11.856
61387W        W33713  34.465   3.777   0.938
61388W        W33714   3.316  25.477  13.894
61389W        W33715  29.589  21.086  10.024
61390W        W33716  41.894  18.101  13.973
61391W        W33717  32.426   1.275  12.827
61392W        W33718  36.535  40.967   0.926
61393W        W33719  22.087  25.088   4.164
61394W        W33720  12.747  37.440   4.169
61395W        W33721  39.032  34.386  12.996
61396W        W33722  36.914  21.655  14.361
61397W        W33723  11.688  44.302  11.065
61398W        W33724   9.391  42.790  10.918
61399W        W33725   7.384  15.249  13.509
61400W        W33726  12.734  11.141   0.357
61401W        W33727  11.716  41.835   0.925
61402W        W33728  29.095  42.920  12.878
61403W        W33729  39.404  18.173   3.284
61404W        W33730  15.670  37.013   2.200
61405W        W33731   3.949  32.014  11.074
61406W        W33732   6.278  21.729   4.828
61407W        W33733  19.653  43.483  12.907
61408W        W33734  35.990   7.199   1.434
61409W        W33735   0.368  36.570   2.392
61410W        W33736   1.890  32.096   0.824
61411W        W33737   5.796  11.699  13.448
61412W        W33738  37.950  23.053  10.917
61413W        W33739   3.397  18.547   1.753
61414W        W33740  13.823  35.570   3.661
61415W        W33741  25.468  16.221   1.355
61416W        W33742  18.071  22.190   3.768
61417W        W33743  24.683   3.385  13.889
61418W        W33744  12.771   6.815  12.843
61419W        W33745   5.929  12.773   4.186
61420W        W33746  16.252  29.161   3.365
61421W        W33747  27.940  44.824  13.933
61422W        W33748  37.037   2.417  13.925
61423W        W33749  15.281  37.478  11.903
61424W        W33750  21.653  14.192  12.911
61425W        W33751  17.583  14.592   3.354
61426W        W33752   0.986  19.668  11.587
61427W        W33753  41.822   3.852   3.312
61428W        W33754  39.505   8.761   1.221
61429W        W33755  40.982  37.013   2.680
61430W        W33756  38.472   1.751   4.834
61431W        W33757  20.655  40.024   0.326
61432W        W33758  23.015  18.556  12.090
61433W        W33759  23.108  41.319   5.107
61434W        W33760   7.769  30.430   1.743
61435W        W33761  30.641  18.201   3.197
61436W        W33762   2.328  13.839  14.460
61437W        W33763  29.053  27.009  13.049
61438W        W33764  32.120  15.158   3.374
61439W        W33765  21.229  11.717   0.918
61440W        W33766  28.025   1.408   2.813
61441W        W33767  39.002   3.822  14.760
61442W        W33768  18.593  34.107  10.477
61443W        W33769   1.255  28.523  11.405
61444W        W33770  19.041  43.822  13.537
61445W        W33771   6.769  16.812  11.868
61446W        W33772  16.805  20.690  13.866
61447W        W33773  23.529  16.732  13.911
61448W        W33774  17.578  11.244  12.973
61449W        W33775  19.284  39.334   1.717
61450W        W33776  32.515  16.239  14.815
61451W        W33777  38.922  41.997   2.338
61452W        W33778   5.313  15.675  14.785
61453W        W33779   4.234   1.829   3.734
61454W        W33780  37.930  20.657  11.091
61455W        W33781   7.885  26.513   0.870
61456W        W33782   2.464  32.113  11.964
61457W        W33783   6.234  18.234  10.952
61458W        W33784  38.842   1.280  12.484
61459W        W33785  29.037  31.020  10.558
61460W        W33786  29.472  14.801  10.560
61461W        W33787  13.786  20.595  11.493
61462W        W33788  44.967  11.810  12.079
61463W        W33789   8.731   0.479  12.090
61464W        W33790  36.487  14.339   0.914
61465W        W33791  14.320  31.484   0.303
61466W        W33792  37.992  19.285   2.692
61467W        W33793  44.972  27.953  11.958
61468W        W33794   7.249   7.289   4.243
61469W        W33795   7.868  10.634  14.396
61470W        W33796  30.585  30.052  10.638
61471W        W33797  22.154  25.696   4.210
61472W        W33798  15.712   7.887  13.375
61473W        W33799  39.964  25.534   1.912
61474W        W33800   7.779  24.084  14.856
61475W        W33801  27.049  23.603   2.874
61476W        W33802  34.940  44.262   1.324
61477W        W33803  42.004   7.207  12.571
61478W        W33804  21.229  11.683   2.363
61479W        W33805   6.297  34.895  12.370
61480W        W33806  31.615   1.770  13.904
61481W        W33807  21.516  42.023  10.489
61482W        W33808  16.101  13.320   3.829
61483W        W33809  16.631  43.807  11.522
61484W        W33810  12.712  19.734   1.769
61485W        W33811   5.764  13.289  12.429
61486W        W33812   3.832   2.780   1.252
61487W        W33813  23.224   3.834  10.448
61488W        W33814  41.373  19.717   4.294
61489W        W33815  11.671  39.976   4.276
61490W        W33816  29.030  33.513  11.110
61491W        W33817  27.110   7.332  12.397
61492W        W33818  36.396  17.170   3.807
61493W        W33819  43.902  37.371  14.288
61494W        W33820  32.932  15.798   2.701
61495W        W33821  37.940  38.914   1.720
61496W        W33822   3.812  31.094   4.200
61497W        W33823  11.717  12.636   3.206
61498W        W33824  10.797   2.225  13.005
61499W        W33825  43.406  28.945   9.921
61500W        W33826  36.350  43.941   2.662
61501W        W33827  14.320  30.494   4.749
61502W        W33828  34.575  20.266   0.256
61503W        W33829  13.719  33.110   3.244
61504W        W33830  40.003  25.509  12.075
61505W        W33831  41.997   5.897   4.119
61506W        W33832  43.474  37.899   4.625
61507W        W33833  29.499   9.324   2.374
61508W        W33834   4.848   7.381  13.367
61509W        W33835  20.645  18.247   2.356
61510W        W33836  39.498  22.251   4.698
61511W        W33837  35.057   6.727  13.357
61512W        W33838  32.590  33.015  14.415
61513W        W33839  13.198  17.671   4.824
61514W        W33840   4.349  23.033  12.370
61515W        W33841  12.635  25.519   3.855
61516W        W33842  39.056  18.062  14.912
61517W        W33843  41.526  38.432   0.918
61518W        W33844   2.845   4.855  11.471
61519W        W33845  35.430  12.294  14.807
61520W        W33846  16.713  19.103  12.538
61521W        W33847   8.383  23.996   0.316
61522W        W33848  25.622  14.702  10.461
61523W        W33849  23.995  38.883  13.994
61524W        W33850  18.282   3.827  13.802
61525W        W33851  26.170   5.928   1.354
61526W        W33852   6.334  18.668  13.319
61527W        W33853  22.123  14.204   2.838
61528W        W33854  27.513  35.892  11.037
61529W        W33855  41.455   4.400   3.180
61530W        W33856  18.716  36.374   2.892
61531W        W33857   7.784  21.246  13.500
61532W        W33858  23.592  42.368   0.771
61533W        W33859  26.647  40.856   3.200
61534W        W33860  15.223  35.532  12.020
61535W        W33861  26.147  10.380  14.944
61536W        W33862   5.720   7.375  12.476
61537W        W33863  23.489  42.283   2.353
61538W        W33864  30.939  14.662   0.864
61539W        W33865  37.860   7.892  12.860
61540W        W33866  29.970   1.305   2.718
61541W        W33867  39.340  30.074   3.850
61542W        W33868  19.069  22.019  13.037
61543W        W33869   7.331  12.623  10.643
61544W        W33870  11.695   1.794   0.793
61545W        W33871   3.726  36.369  12.369
61546W        W33872  22.130  12.777  11.859
61547W        W33873  23.566  10.203  10.485
61548W        W33874  26.038  14.124  11.051
61549W        W33875  44.836  44.353   0.798
61550W        W33876  40.433  31.070   1.893
61551W        W33877  22.145   8.394  12.438
61552W        W33878  33.018  30.041  13.011
61553W        W33879  14.297  31.464   0.796
61554W        W33880  16.103  22.704  14.955
61555W        W33881  33.090   2.846  13.870
61556W        W33882  25.978   2.789   0.443
61557W        W33883  29.922  42.887  13.954
61558W        W33884  33.983  26.466  10.512
61559W        W33885  25.044  34.001  13.450
61560W        W33886  14.616  40.981   2.276
61561W        W33887  26.675  30.598   2.710
61562W        W33888  43.772  19.097  12.578
61563W        W33889   4.258   0.902   0.378
61564W        W33890  39.996  24.637  10.527
61565W        W33891   2.823  19.720   3.852
61566W        W33892   2.456  24.664   5.648
61567W        W33893  16.296  32.521   0.426
61568W        W33894  10.758  26.144  13.358
61569W        W33895  11.314  39.463  13.494
61570W        W33896  32.132  23.583   2.887
61571W        W33897  36.098   3.389   1.280
61572W        W33898  12.782  18.275  14.806
61573W        W33899  14.801   9.671   3.835
61574W        W33900   2.279  33.511  10.981
61575W        W33901   6.327  20.578   1.316
61576W        W33902  18.774  27.067  14.343
61577W        W33903  44.779  19.764  11.000
61578W        W33904  29.613   2.874  13.514
61579W        W33905  25.541  11.836  13.500
61580W        W33906  21.034   5.438   3.177
61581W        W33907   3.849   9.159  14.463
61582W        W33908  26.089  35.096  12.062
61583W        W33909  16.268  41.821  14.875
61584W        W33910  34.522   4.296  11.970
61585W        W33911  21.751   9.167   3.843
61586W        W33912  25.646  28.993  11.537
61587W        W33913   0.950   3.821  11.002
61588W        W33914  20.732  39.348  12.535
61589W        W33915  30.512  43.937   1.406
61590W        W33916  33.011  33.913   5.694
61591W        W33917   2.390   1.968  14.324
61592W        W33918  37.912   9.832  12.404
61593W        W33919  14.716   5.838   3.799
61594W        W33920   6.742  27.995   1.219
61595W        W33921   3.753  38.064  13.820
61596W        W33922  27.526  11.745   4.801
61597W        W33923  16.118  21.573  13.974
61598W        W33924   1.797  20.259  12.056
61599W        W33925  32.012  34.568   0.391
61600W        W33926  20.232  27.451  11.373
61601W        W33927   0.907  34.540  11.432
61602W        W33928  31.615  32.541   3.316
61603W        W33929  31.054  12.618   1.701
61604W        W33930   1.258   9.265   4.143
61605W        W33931  15.819  33.568   1.219
61606W        W33932   5.916   6.785   0.847
61607W        W33933  37.943  13.768   0.425
61608W        W33934   6.205  25.137  14.766
61609W        W33935  42.961  28.041   4.826
61610W        W33936  19.605  20.652   4.718
61611W        W33937  21.157  13.844   3.708
61612W        W33938   6.341  42.948  12.535
61613W        W33939  24.021  22.011  14.019
61614W        W33940  44.824  10.300  12.543
61615W        W33941   2.276  10.668   4.299
61616W        W33942  21.260  18.738   0.777
61617W        W33943  34.503  11.826  12.364
61618W        W33944  28.545   3.808  12.356
61619W        W33945  13.162  13.651   0.371
61620W        W33946  42.307  11.144  13.328
61621W        W33947   2.452  19.267   0.267
61622W        W33948  36.994  20.167   4.323
61623W        W33949  10.819  43.320   4.297
61624W        W33950  15.239   4.402  11.451
61625W        W33951  37.456  13.198   0.757
61626W        W33952   3.345   7.274  14.491
61627W        W33953  29.993   1.241   4.179
61628W        W33954  14.805  21.030   2.392
61629W        W33955  17.202  36.989   3.180
61630W        W33956  24.519   3.299  11.542
61631W        W33957   4.881  39.485   2.800
61632W        W33958  25.061  27.689  14.494
61633W        W33959  31.129   0.933  13.841
61634W        W33960  36.063  31.956   5.115
61635W        W33961  36.428  16.569   0.249
61636W        W33962   1.367   2.471   4.345
61637W        W33963   6.269  16.577  12.015
61638W        W33964  22.672  28.663   0.917
61639W        W33965   9.699  26.549   2.754
61640W        W33966   6.363  26.097   4.201
61641W        W33967  44.489  42.355  14.970
61642W        W33968  43.963  24.486   3.681
61643W        W33969   8.228  19.627   4.149
61644W        W33970  25.579  30.069  13.369
61645W        W33971   8.804  35.405   1.770
61646W        W33972  35.594  40.822  13.412
61647W        W33973  28.436  31.420   2.296
61648W        W33974  28.668  40.820  11.988
61649W        W33975  22.161  39.423   2.891
61650W        W33976  37.556  38.534   2.324
61651W        W33977   5.894   4.821  14.872
61652W        W33978  30.447  34.546  11.493
61653W        W33979  19.074  17.265   0.754
61654W        W33980  42.791  11.739   0.893
61655W        W33981  39.526   3.858  14.402
61656W        W33982  10.738  25.171   4.809
61657W        W33983   4.229   4.866  11.373
61658W        W33984  20.175   9.343   4.731
61659W        W33985  25.996   5.353   1.323
61660W        W33986  18.733  42.388  13.450
61661W        W33987  37.939  18.172  10.891
61662W        W33988  30.937  26.543  13.548
61663W        W33989  16.136  44.895   2.274
61664W        W33990  40.960  41.956   0.756
61665W        W33991  15.685  13.298   3.314
61666W        W33992  29.482  12.786  12.345
61667W        W33993   1.786  14.127   2.886
61668W        W33994  20.048  30.934   4.325
61669W        W33995  43.456   8.338  14.475
61670W        W33996   5.800  10.343  14.383
61671W        W33997   1.437  37.022  11.445
61672W        W33998  31.630  15.770   2.701
61673W        W33999  36.088  25.191   0.877
61674W        W34000  44.396  40.894   0.464
61675W        W34001  35.061  29.644  10.547
61676W        W34002  37.533  15.708  12.359
61677W        W34003  27.489  12.813  11.063
61678W        W34004   8.750  35.447   2.728
61679W        W34005  20.207  35.442   2.203
61680W        W34006   3.227  31.134  12.564
61681W        W34007   0.415  12.314   3.832
61682W        W34008   4.276  40.535  14.387
61683W        W34009  11.310  36.464   3.234
61684W        W34010  36.040  38.972   1.732
61685W        W34011  17.580   4.449  13.930
61686W        W34012  37.877  39.527   4.120
61687W        W34013  42.426  11.732   1.785
61688W        W34014   7.389   7.734  10.622
61689W        W34015   2.447   8.777  13.948
61690W        W34016  43.423  39.363   0.363
61691W        W34017   6.381  44.330  10.470
61692W        W34018  15.137   5.900  13.467
61693W        W34019   0.419  18.138  13.969
61694W        W34020  25.605   9.358  11.520
61695W        W34021  26.695   3.339  12.417
61696W        W34022  34.555  37.028  11.077
61697W        W34023  33.100  42.330   2.222
61698W        W34024  29.563   1.477  13.312
61699W        W34025  28.960  10.832  11.542
61700W        W34026  15.266  11.272  10.967
61701W        W34027  37.480  16.650   0.894
61702W        W34028  16.221  22.114  11.470
61703W        W34029  36.382   3.727   0.948
61704W        W34030  25.611  39.821   3.705
61705W        W34031  15.230  35.492   3.808
61706W        W34032  18.589  30.601   4.800
61707W        W34033  38.933  11.703  13.051
61708W        W34034  25.692  17.266  14.760
61709W        W34035  23.091  28.589   4.795
61710W        W34036  40.878  38.569   0.799
61711W        W34037   9.743  36.988   3.255
61712W        W34038  17.142  10.725   0.363
61713W        W34039  37.957  27.511  11.971
61714W        W34040   5.694  26.091   0.405
61715W        W34041  25.000   7.368  14.908
61716W        W34042  17.246  17.230  12.967
61717W        W34043  25.564  39.511   1.347
61718W        W34044  34.018  21.567  14.395
61719W        W34045  39.905  28.089  12.377
61720W        W34046   9.357  41.472  14.001
61721W        W34047  41.944  27.972   0.413
61722W        W34048  25.204  19.244  13.517
61723W        W34049  44.955  26.157  11.088
61724W        W34050  27.661   1.892   1.232
61725W        W34051  30.495  15.111   4.151
61726W        W34052  26.558  32.475   0.471
61727W        W34053  35.556  38.389  13.500
61728W        W34054   2.790  19.230   2.856
61729W        W34055  29.934   7.374  12.526
61730W        W34056  24.985  18.199   1.326
61731W        W34057  38.981  21.239  11.475
61732W        W34058  18.679  40.938   2.288
61733W        W34059  34.984  20.170   1.717
61734W        W34060   3.260   8.396   1.715
61735W        W34061  29.085   1.736  14.436
61736W        W34062  19.173  41.840  14.380
61737W        W34063  22.103  12.135   0.830
61738W        W34064  35.603   7.338   4.346
61739W        W34065  22.521  29.050   1.699
61740W        W34066  34.047  36.942   4.303
61741W        W34067  26.138  37.882   1.213
61742W        W34068  37.453   4.373  12.920
61743W        W34069  32.391   6.715  11.504
61744W        W34070   2.764  25.962  13.850
61745W        W34071  18.244  24.608   0.726
61746W        W34072  10.364  38.499   3.805
61747W        W34073  43.289  30.425   0.866
61748W        W34074  16.636  25.173  11.403
61749W        W34075  16.573   1.892  13.804
61750W        W34076  42.343  10.635   1.698
61751W        W34077  44.395  17.111   1.757
61752W        W34078  11.677  39.536   0.290
61753W        W34079   5.386  43.000  10.958
61754W        W34080  18.602  43.852   0.862
61755W        W34081  17.198  44.334  14.436
61756W        W34082   8.400  40.999   3.632
61757W        W34083  16.097  40.536   1.720
61758W        W34084   6.197  31.415   2.324
61759W        W34085  24.136   8.400   1.280
61760W        W34086  26.180  33.620   3.807
61761W        W34087  26.541  39.500   3.822
61762W        W34088   6.421   1.922  14.332
61763W        W34089  22.732   0.364   4.210
61764W        W34090  14.244   7.890  13.347
61765W        W34091  24.011  17.717  12.068
61766W        W34092   2.408  31.642  13.817
61767W        W34093  21.557  37.482  12.004
61768W        W34094  41.993  31.026  10.590
61769W        W34095  16.673  36.433  14.400
61770W        W34096  27.487  14.680  12.360
61771W        W34097  38.904  17.265  14.863
61772W        W34098  28.061  44.500  11.403
61773W        W34099  12.122  24.000  11.593
61774W        W34100  30.084  39.825   0.405
61775W        W34101  38.400  30.959   1.436
61776W        W34102  30.091  40.876   3.366
61777W        W34103  19.571  19.604   4.833
61778W        W34104  14.125   8.685  13.534
61779W        W34105  40.385  16.167   1.880
61780W        W34106  26.066  14.237  11.975
61781W        W34107   1.294  20.563  13.510
61782W        W34108  14.661  34.970  13.499
61783W        W34109  29.027   7.384  11.537
61784W        W34110   1.475  19.114  12.050
61785W        W34111  20.136  41.406   3.755
61786W        W34112  36.918  18.258   4.206
61787W        W34113  36.058  21.676   1.405
61788W        W34114  37.844  36.857  14.437
61789W        W34115  21.087   5.426   3.725
61790W        W34116  35.510  22.585   2.325
61791W        W34117  20.183   5.241  12.348
61792W        W34118  19.141  10.706  10.497
61793W        W34119  34.603   2.908   0.937
61794W        W34120  40.798  14.192  14.777
61795W        W34121   6.908  34.590   4.351
61796W        W34122  34.953   7.667  11.375
61797W        W34123  38.022  41.870   0.483
61798W        W34124  40.001  14.149   2.771
61799W        W34125   2.900  42.890   2.195
61800W        W34126  18.599   9.192   4.182
61801W        W34127   7.818  30.055   4.712
61802W        W34128  19.588  15.677  12.855
61803W        W34129  10.836  22.157   2.306
61804W        W34130   2.827  21.581  13.851
61805W        W34131   3.273   0.986  12.366
61806W        W34132  26.513  29.095   2.261
61807W        W34133   5.820  13.151   1.910
61808W        W34134  26.626  29.567   4.295
61809W        W34135  38.386  37.485   2.346
61810W        W34136  37.977  38.945  14.999
61811W        W34137  10.695  37.456   3.260
61812W        W34138  23.569  28.626  12.413
61813W        W34139  39.423  20.159   4.324
61814W        W34140  30.126  42.982  14.451
61815W        W34141  20.721   5.405   0.277
61816W        W34142  43.973  18.182  12.456
61817W        W34143  37.886  35.046   0.449
61818W        W34144  12.253  15.708   1.264
61819W        W34145  16.318   3.942  10.501
61820W        W34146   0.859  13.154   2.672
61821W        W34147   0.934   3.229   2.415
61822W        W34148  20.527  20.071   1.735
61823W        W34149  12.180  37.901  13.028
61824W        W34150  37.036  38.061  14.332
61825W        W34151   0.926  44.296  10.095
61826W        W34152  20.090  26.170  11.083
61827W        W34153  38.984  20.157  10.890
61828W        W34154  22.622  44.825  12.872
61829W        W34155  26.639  13.652  12.533
61830W        W34156  37.411  33.570   1.429
61831W        W34157  39.932  25.690   4.726
61832W        W34158   7.676  20.710   3.269
61833W        W34159  12.803  15.670   0.392
61834W        W34160  25.491  23.138  11.402
61835W        W34161  44.872  25.150   3.830
61836W        W34162  39.350  20.030  11.465
61837W        W34163  13.290   5.202  14.361
61838W        W34164   1.311   1.906  14.791
61839W        W34165  14.322  25.495  13.361
61840W        W34166  22.741  35.564   3.701
61841W        W34167  26.187  40.362   1.228
61842W        W34168  31.116   4.756  11.938
61843W        W34169  19.043   0.849  10.562
61844W        W34170  40.340  12.245  12.466
61845W        W34171   6.808  13.826   0.404
61846W        W34172  15.272  13.163   0.778
61847W        W34173  30.005  21.690  12.925
61848W        W34174   6.362  25.012   4.273
61849W        W34175  12.710   2.365  10.500
61850W        W34176  29.942  24.671   1.717
61851W        W34177  30.122  34.417  14.001
61852W        W34178  21.243  42.357   1.888
61853W        W34179   3.945  21.067   0.384
61854W        W34180   2.302   6.318  13.407
61855W        W34181   6.762   1.481  11.549
61856W        W34182  39.448  21.613   4.727
61857W        W34183   6.394   1.795  14.012
61858W        W34184  22.111  14.801   4.733
61859W        W34185  25.558  41.315   5.316
61860W        W34186  23.056  34.914   2.865
61861W        W34187  12.636  29.489   0.927
61862W        W34188  39.400   5.820   0.289
61863W        W34189   5.413   6.302   3.654
61864W        W34190   3.800  18.077   1.706
61865W        W34191   9.349  27.639  14.925
61866W        W34192   2.459   5.394  12.550
61867W        W34193  33.115  30.942  13.983
61868W        W34194  32.450  36.563   1.283
61869W        W34195  29.660  14.220  14.898
61870W        W34196   3.230   8.712   3.233
61871W        W34197  29.634   0.862  11.475
61872W        W34198  14.794  35.936   2.774
61873W        W34199  43.850   5.804  11.499
61874W        W34200  34.113  43.445  13.401
61875W        W34201   3.866  37.335  14.999
61876W        W34202  17.170  33.066   3.191
61877W        W34203  30.956   7.379  10.514
61878W        W34204  24.023  39.927  10.098
61879W        W34205  29.987  25.047   3.678
61880W        W34206  18.201  23.084   2.723
61881W        W34207  36.010  37.425   2.738
61882W        W34208  39.540   2.234   3.270
61883W        W34209  38.998  17.252  12.890
61884W        W34210  33.914  40.985   1.809
61885W        W34211   6.722  29.618   4.145
61886W        W34212   6.922  44.449   3.189
61887W        W34213  23.146  23.695   3.293
61888W        W34214   6.311  40.967  10.632
61889W        W34215   4.806  19.559  14.818
61890W        W34216  10.193  37.881   3.722
61891W        W34217   0.435  29.528   4.767
61892W        W34218  37.383  16.595  14.760
61893W        W34219  43.801  37.982   4.714
61894W        W34220  28.448   1.394  14.801
61895W        W34221   9.853  17.785  14.283
61896W        W34222  30.149   1.890  12.924
61897W        W34223  27.459  42.890   1.348
61898W        W34224   7.837  13.791   1.244
61899W        W34225  23.510  33.048   0.448
61900W        W34226  33.569  14.297  11.044
61901W        W34227  42.904  22.194  13.825
61902W        W34228   5.354   1.843  10.963
61903W        W34229   7.853  41.392  14.305
61904W        W34230   2.850   3.870   5.270
61905W        W34231  17.080  42.449   4.138
61906W        W34232  11.178  42.297   1.269
61907W        W34233  44.773  27.553  14.957
61908W        W34234  40.304  29.933   2.901
61909W        W34235  25.169  27.613   3.663
61910W        W34236  30.579  22.077   2.681
61911W        W34237   0.973  38.865  13.468
61912W        W34238   4.792  23.985  11.412
61913W        W34239  11.235  22.532  11.930
61914W        W34240  16.151  40.343   1.249
61915W        W34241  15.148  20.699  12.533
61916W        W34242  31.544  14.099   2.694
61917W        W34243   6.399  28.586  14.331
61918W        W34244  42.302  44.475   0.318
61919W        W34245  18.109  44.382  11.537
61920W        W34246   9.237  22.561   3.818
61921W        W34247  15.240  31.121   1.440
61922W        W34248  26.458  15.669  11.582
61923W        W34249  37.450  17.116  12.560
61924W        W34250   5.218  37.904   2.246
61925W        W34251  32.399  30.562  10.478
61926W        W34252  29.555  26.005   1.213
61927W        W34253  42.419  14.688   3.726
61928W        W34254  29.081  24.535   0.959
61929W        W34255   4.365  37.023  12.087
61930W        W34256  20.208   6.278  13.471
61931W        W34257   7.850   1.405   4.810
61932W        W34258   4.820  35.550   1.821
61933W        W34259  41.885   4.744   0.948
61934W        W34260   6.723  43.793  11.885
61935W        W34261  35.988   1.906   1.372
61936W        W34262  23.997  39.844  14.011
61937W        W34263  36.464   2.920  11.466
61938W        W34264  34.526  24.081   4.625
61939W        W34265  21.630  14.329   0.378
61940W        W34266   7.354   6.827   4.824
61941W        W34267  19.144   0.465  14.504
61942W        W34268  35.384  39.044   0.431
61943W        W34269  25.028   5.389   4.654
61944W        W34270  23.722   9.335   0.852
61945W        W34271  15.205  28.595  14.367
61946W        W34272   0.942  11.145  12.559
61947W        W34273   4.765  24.137  14.515
61948W        W34274  23.580  30.642  14.327
61949W        W34275   5.307  31.479   2.303
61950W        W34276  22.726  23.079  12.828
61951W        W34277  35.997  25.486   1.217
61952W        W34278  41.508  26.547   0.352
61953W        W34279   6.423   0.282  13.823
61954W        W34280  12.243   1.813  11.490
61955W        W34281  25.981  14.298   2.894
61956W        W34282  22.096  35.995  11.007
61957W        W34283   0.818  36.890  12.375
61958W        W34284  28.497  31.433  14.403
61959W        W34285   7.819  31.513   4.809
61960W        W34286   7.699   2.810  11.109
61961W        W34287   7.296  26.055   2.288
61962W        W34288  18.608  20.755  14.976
61963W        W34289  31.945  11.253  13.326
61964W        W34290  27.179  20.186   1.708
61965W        W34291  11.733  32.421  12.932
61966W        W34292  35.580  38.434  10.571
61967W        W34293  14.701  12.613   2.751
61968W        W34294  32.072  29.434  13.800
61969W        W34295  10.762  25.625   1.703
61970W        W34296  35.375  40.431  14.843
61971W        W34297  22.528  22.216  12.397
61972W        W34298  28.976  21.077   2.697
61973W        W34299   2.401  39.022  13.417
61974W        W34300  19.605  10.747  12.912
61975W        W34301   1.865   4.874   2.755
61976W        W34302   5.349  40.390  14.368
61977W        W34303  16.604  43.510  13.884
61978W        W34304  15.301  38.012  13.532
61979W        W34305  23.995  10.857  12.571
61980W        W34306  15.656  31.965  10.485
61981W        W34307  23.720   2.761   4.113
61982W        W34308   3.295  14.333   0.889
61983W        W34309  40.882   0.373   3.736
61984W        W34310  28.953  13.120  13.475
61985W        W34311  21.130   4.234   0.927
61986W        W34312  27.178  26.669  14.300
61987W        W34313  33.580  13.274   4.661
61988W        W34314  27.513  32.014  14.428
61989W        W34315   0.807  19.156  14.475
61990W        W34316  27.668  44.378  14.935
61991W        W34317  41.850  39.445   3.292
61992W        W34318  29.551  34.376   0.425
61993W        W34319   8.400  31.548   3.687
61994W        W34320   2.737  11.696  12.352
61995W        W34321  18.759   7.201  14.312
61996W        W34322  14.162  30.431  10.108
61997W        W34323  14.211   8.830  13.882
61998W        W34324   3.821  26.456   9.953
61999W        W34325   3.918  40.407  12.518
62000W        W34326  25.214  37.524  10.548
62001W        W34327   8.327  27.613  11.373
62002W        W34328  13.209  25.655  14.834
62003W        W34329   7.216  41.387  11.989
62004W        W34330  32.468  28.986  11.546
62005W        W34331  35.890  44.987  12.962
62006W        W34332  44.391   6.329  11.864
62007W        W34333  35.985   7.319   1.855
62008W        W34334  12.660  26.010  11.858
62009W        W34335  40.802  17.607   3.313
62010W        W34336  24.658  35.073   0.383
62011W        W34337  34.986  16.104  11.570
62012W        W34338  10.798   5.381   4.729
62013W        W34339  35.996  40.953  14.297
62014W        W34340  30.430  27.573  10.527
62015W        W34341   7.817   6.754   0.845
62016W        W34342  18.638  29.577  12.453
62017W        W34343  30.487  42.385  14.987
62018W        W34344  29.435  26.100  10.983
62019W        W34345  17.656  19.114   4.165
62020W        W34346   7.365  38.397   0.317
62021W        W34347  36.990  43.907   0.902
62022W        W34348  37.447  27.119   0.474
62023W        W34349  29.537  38.499   2.842
62024W        W34350   2.441  35.562  12.357
62025W        W34351  28.510   6.182  13.527
62026W        W34352  24.519  28.113   0.826
62027W        W34353  39.911  22.672  13.948
62028W        W34354  14.715  40.511  11.857
62029W        W34355   6.248   8.332  11.524
62030W        W34356   4.743  31.896  13.417
62031W        W34357  38.011  22.084   1.761
62032W        W34358  27.078   8.247   4.315
62033W        W34359  12.812  39.435  13.414
62034W        W34360  13.204  28.676   3.278
62035W        W34361  24.485  41.895  12.010
62036W        W34362  23.145  23.657  10.970
62037W        W34363  23.047  36.960   2.370
62038W        W34364  23.529   1.883   1.449
62039W        W34365  13.703  37.008   0.780
62040W        W34366  16.722  13.323  11.469
62041W        W34367  28.068  42.841   3.376
62042W        W34368  20.627   1.861  10.518
62043W        W34369   7.271  44.419   3.376
62044W        W34370  36.843   8.183  11.556
62045W        W34371   9.182   5.826  12.961
62046W        W34372  13.630   7.887  13.439
62047W        W34373   8.839  36.960  13.442
62048W        W34374  36.370  31.591  13.337
62049W        W34375  10.747  44.957   0.915
62050W        W34376   9.365   9.156  12.463
62051W        W34377   8.319  18.709  14.824
62052W        W34378  36.482   7.834  14.885
62053W        W34379   4.245  17.562  10.544
62054W        W34380  29.616  15.260  11.117
62055W        W34381  23.706  15.616   1.240
62056W        W34382  16.658   6.227  13.331
62057W        W34383  44.430  35.942  14.325
62058W        W34384   9.754  42.419  13.942
62059W        W34385  26.637  22.116  13.811
62060W        W34386   5.895  20.051   1.379
62061W        W34387  43.845  42.490   2.827
62062W        W34388  14.202   9.160  13.877
62063W        W34389  29.980   0.343  13.849
62064W        W34390  23.110  24.724   0.887
62065W        W34391  24.587  19.625  13.458
62066W        W34392   5.925  19.265  13.484
62067W        W34393  14.337  31.531  14.452
62068W        W34394  22.225  11.263   0.940
62069W        W34395  35.473  10.638   3.652
62070W        W34396  15.133   4.937   1.919
62071W        W34397  27.119  20.039  13.458
62072W        W34398  17.277  42.907  10.632
62073W        W34399  26.157  21.649   4.664
62074W        W34400  39.372  43.390  11.928
62075W        W34401  17.224  19.682  10.967
62076W        W34402  16.249  25.571   2.832
62077W        W34403  27.497  17.590  10.477
62078W        W34404  12.689  37.357   3.652
62079W        W34405  40.835  12.349   1.737
62080W        W34406  13.720  39.000   3.194
62081W        W34407  25.467  34.607   0.329
62082W        W34408  20.226  29.101   0.959
62083W        W34409  39.326   6.241   4.223
62084W        W34410  35.033  31.619   3.309
62085W        W34411   2.824  35.364  12.521
62086W        W34412  38.076  26.576  11.929
62087W        W34413  22.051  23.029  11.887
62088W        W34414  28.102   8.339   4.706
62089W        W34415  18.125  24.552   3.260
62090W        W34416  36.424  41.369  10.497
62091W        W34417  14.737  30.524   3.764
62092W        W34418  10.200   0.301  11.006
62093W        W34419   4.249   2.783   3.868
62094W        W34420  24.097  24.216   1.734
62095W        W34421  40.482  11.681   1.739
62096W        W34422  20.085   2.811  10.908
62097W        W34423  18.782  37.017  12.018
62098W        W34424  38.987  15.784  13.878
62099W        W34425  12.313  40.303  13.543
62100W        W34426  17.773  23.696   4.733
62101W        W34427  23.703   5.887   4.251
62102W        W34428  10.294  30.009  13.536
62103W        W34429  32.467  18.114   4.756
62104W        W34430  26.620  36.538   2.227
62105W        W34431   7.790  30.094   1.904
62106W        W34432   0.335  32.959  11.886
62107W        W34433  33.588   5.869   0.252
62108W        W34434  28.678  21.522   4.625
62109W        W34435   4.742  25.036  14.997
62110W        W34436  26.026  20.534   2.865
62111W        W34437  33.570  29.453   1.304
62112W        W34438  22.543  36.049   0.459
62113W        W34439  23.017  22.501  14.278
62114W        W34440  32.491  16.135  12.905
62115W        W34441   6.761  26.055   2.308
62116W        W34442  21.258  10.180  14.918
62117W        W34443  42.962  15.634  13.456
62118W        W34444  14.620  40.420  10.549
62119W        W34445   4.233  37.000   0.837
62120W        W34446   6.802  24.589   2.238
62121W        W34447  27.053  12.158  14.792
62122W        W34448  41.523   5.206  11.066
62123W        W34449   5.790  41.479   2.229
62124W        W34450  28.597   9.173  11.027
62125W        W34451  32.886   2.879  11.924
62126W        W34452   8.748  38.437   1.700
62127W        W34453  25.004  14.689  10.897
62128W        W34454   7.288  21.089   1.251
62129W        W34455  22.238  35.535  11.003
62130W        W34456  10.828  22.682   9.937
62131W        W34457   1.795  10.299   1.714
62132W        W34458  22.107  22.129  10.956
62133W        W34459   5.855   5.425  10.602
62134W        W34460  25.013  21.232  11.128
62135W        W34461  28.654   1.274   4.754
62136W        W34462  31.631  42.372   4.144
62137W        W34463  40.323   5.248   3.226
62138W        W34464  39.439  22.665  14.017
62139W        W34465  25.501  41.010  10.562
62140W        W34466   1.902  33.603  13.349
62141W        W34467  32.130  18.056   2.796
62142W        W34468  24.047  31.128   0.351
62143W        W34469  44.462  39.041  14.279
62144W        W34470  20.739   4.819   2.807
62145W        W34471  11.804  20.088  13.400
62146W        W34472  24.025  42.951   2.690
62147W        W34473  19.074  11.844   4.191
62148W        W34474   3.848  41.485  14.861
62149W        W34475  41.840  15.614  14.291
62150W        W34476  20.687  11.213  14.440
62151W        W34477  29.572  39.011  14.014
62152W        W34478  34.446   0.921  14.328
62153W        W34479  23.055  10.275  12.427
62154W        W34480  34.425  20.718   4.305
62155W        W34481  44.970  29.961  13.926
62156W        W34482  33.408  22.095   5.240
62157W        W34483  31.465  44.482   3.772
62158W        W34484   6.389  12.306   3.848
62159W        W34485  33.479  18.167   0.917
62160W        W34486  13.336  42.343  10.566
62161W        W34487   2.423  25.079  10.046
62162W        W34488   9.779  33.417  11.524
62163W        W34489  10.783  31.486  12.045
62164W        W34490  12.827  24.183   2.249
62165W        W34491  19.247  33.541   1.838
62166W        W34492  42.289  17.738  13.034
62167W        W34493  34.033  40.386  10.546
62168W        W34494  28.677  44.934   4.604
62169W        W34495  20.735   7.804   0.459
62170W        W34496   3.292  21.219  14.896
62171W        W34497  33.994  25.633  13.817
62172W        W34498  19.213  30.524  12.012
62173W        W34499  26.058  42.944   0.782
62174W        W34500  37.887  17.615  14.921
62175W        W34501  30.964  35.417   2.361
62176W        W34502  23.619  18.099  11.081
62177W        W34503  18.293   7.345  13.835
62178W        W34504  39.840   9.714  11.437
62179W        W34505  40.448   4.332  14.302
62180W        W34506  33.381  20.118   1.343
62181W        W34507  27.516  43.967   4.347
62182W        W34508   4.404  12.163   3.385
62183W        W34509  40.425  19.575   2.379
62184W        W34510  15.711  37.849  13.460
62185W        W34511   1.409  13.630   0.772
62186W        W34512  40.882  28.097   1.932
62187W        W34513  22.140  39.865  12.897
62188W        W34514  30.088   9.272  10.965
62189W        W34515  37.474  40.465  12.546
62190W        W34516  22.073  23.686   2.403
62191W        W34517  32.029  36.021   2.757
62192W        W34518  13.623  23.060   1.334
62193W        W34519  44.922  12.667  12.371
62194W        W34520   3.318  17.268   2.792
62195W        W34521  29.089  13.152  12.850
62196W        W34522   6.690  44.356  14.481
62197W        W34523   8.751  44.474  12.448
62198W        W34524  35.416  40.915   0.369
62199W        W34525  35.856  21.242  12.982
62200W        W34526  43.011  33.062   3.170
62201W        W34527  39.536  35.030   0.407
62202W        W34528  43.826   9.720   0.766
62203W        W34529  15.673  24.113   4.722
62204W        W34530  12.802  25.105  13.022
62205W        W34531  18.623  31.981  12.863
62206W        W34532   0.851  39.984  12.045
62207W        W34533  36.977   9.157  10.515
62208W        W34534  12.834  29.043   2.220
62209W        W34535  19.637   2.235   0.775
62210W        W34536   2.438   2.458  13.796
62211W        W34537  34.076  11.773  12.527
62212W        W34538   9.321  30.614  10.937
62213W        W34539  19.616  31.514  11.512
62214W        W34540  40.814   4.718   3.356
62215W        W34541  17.613  44.820   3.687
62216W        W34542   7.296  19.585  12.434
62217W        W34543   2.398  30.152  12.927
62218W        W34544  13.247   6.286   1.371
62219W        W34545   9.240  30.975   3.667
62220W        W34546  40.000  37.405   0.278
62221W        W34547  27.654  17.660   0.858
62222W        W34548  16.177   2.794  14.469
62223W        W34549  11.742  44.322  12.502
62224W        W34550  12.159  16.802   4.272
62225W        W34551  24.576  22.202   2.257
62226W        W34552  37.428  13.147   5.671
62227W        W34553  34.480   4.742  13.966
62228W        W34554  16.298  15.226  13.974
62229W        W34555  11.203  34.035   0.293
62230W        W34556  15.181  27.652  13.433
62231W        W34557  30.540   7.266  10.546
62232W        W34558   5.893  21.646  14.504
62233W        W34559  42.500   3.440  13.442
62234W        W34560  38.046   0.988   3.679
62235W        W34561  33.924  34.571   1.439
62236W        W34562   7.912  26.960   3.153
62237W        W34563  43.889  33.382  14.329
62238W        W34564  42.393  15.744   2.809
62239W        W34565   9.845  41.920   2.675
62240W        W34566  27.543  21.723   2.826
62241W        W34567  23.583  23.561  10.443
62242W        W34568  19.183   4.886  11.106
62243W        W34569  12.751   5.429  11.096
62244W        W34570  41.001  22.731  13.406
62245W        W34571  21.060  42.832   1.901
62246W        W34572  13.139  24.492   3.669
62247W        W34573  34.884  40.519   3.778
62248W        W34574  31.122  34.991  10.043
62249W        W34575   3.257  44.002  11.066
62250W        W34576   8.267   0.430  12.914
62251W        W34577  40.397  37.952  13.530
62252W        W34578   6.226  22.074   0.830
62253W        W34579  27.123  22.636  13.034
62254W        W34580  24.532   6.216   2.299
62255W        W34581  33.974   1.351   3.701
62256W        W34582   7.363  23.053   2.378
62257W        W34583   7.185  35.913  12.921
62258W        W34584  10.318  17.564  12.948
62259W        W34585  33.446  43.442  13.325
62260W        W34586  23.190  32.036   4.704
62261W        W34587  32.417  37.954  13.449
62262W        W34588  40.912  33.624   0.945
62263W        W34589  24.973  19.627  11.411
62264W        W34590  18.583  23.108   1.870
62265W        W34591  43.442  12.177   1.409
62266W        W34592  28.491  33.484  13.391
62267W        W34593  13.655  37.910  11.380
62268W        W34594   0.931   4.944   5.216
62269W        W34595  35.543  33.026  10.029
62270W        W34596  21.523   7.321   3.734
62271W        W34597  27.575  13.289  14.402
62272W        W34598  17.111  38.886  11.410
62273W        W34599  16.153   2.902  13.790
62274W        W34600  32.110  39.888   2.299
62275W        W34601  19.634  13.714  10.595
62276W        W34602  39.429  44.852   3.373
62277W        W34603   9.752   7.841   1.240
62278W        W34604  31.145  41.907  12.881
62279W        W34605  32.480   8.862  11.501
62280W        W34606  33.402  16.131  10.505
62281W        W34607   9.262  21.226   0.272
62282W        W34608  41.436   9.274   2.369
62283W        W34609  22.095   4.241   4.635
62284W        W34610   9.156   2.908  11.979
62285W        W34611  14.829  33.411   3.305
62286W        W34612  40.975  29.647   1.702
62287W        W34613  19.048  19.779   0.847
62288W        W34614  37.050  24.212  12.565
62289W        W34615  41.869  11.258  11.531
62290W        W34616   3.381  30.577   4.247
62291W        W34617  22.226  11.794  12.443
62292W        W34618  22.179  36.456   3.267
62293W        W34619  15.260  11.336  12.939
62294W        W34620  30.652  10.290   5.158
62295W        W34621   3.230  16.603   0.894
62296W        W34622  33.045  34.883   3.334
62297W        W34623  21.150  24.987   1.881
62298W        W34624  19.077  12.639  13.473
62299W        W34625  12.284   6.760  11.387
62300W        W34626  36.554   4.928   4.324
62301W        W34627  13.123  26.980   5.251
62302W        W34628  37.950  38.475   4.739
62303W        W34629  37.983  41.478   2.818
62304W        W34630  37.946  38.993   0.786
62305W        W34631  13.320  11.312  14.772
62306W        W34632  26.201  26.040  13.950
62307W        W34633  13.326  13.295   1.230
62308W        W34634  40.029  37.355   9.943
62309W        W34635  29.088  20.061  13.478
62310W        W34636   6.690  41.521   2.816
62311W        W34637  39.392  18.180  12.992
62312W        W34638  17.669  14.796   3.834
62313W        W34639   6.870  42.486   1.313
62314W        W34640   7.878  38.563  11.376
62315W        W34641  39.035  33.124  10.092
62316W        W34642  28.069  37.906   0.807
62317W        W34643  29.062  11.300  11.397
62318W        W34644   8.757  20.095   4.199
62319W        W34645  16.278  10.365  12.005
62320W        W34646  13.789  23.550  12.432
62321W        W34647  30.936  38.948  13.873
62322W        W34648  21.074  21.604  13.898
62323W        W34649  18.592   6.254  13.798
62324W        W34650  16.697  26.180  11.595
62325W        W34651  21.242  29.168   0.406
62326W        W34652  13.753  32.892  12.859
62327W        W34653   7.408  23.214   3.182
62328W        W34654  29.536  40.343   1.749
62329W        W34655   2.352  33.952  12.890
62330W        W34656   4.710  38.871   1.249
62331W        W34657  43.286  16.104   1.381
62332W        W34658   8.739  33.884   3.346
62333W        W34659  41.413  25.508  12.340
62334W        W34660  33.084  21.178  14.317
62335W        W34661  37.544  43.366  13.426
62336W        W34662   7.288  18.783   4.346
62337W        W34663   0.757  37.470   5.117
62338W        W34664  29.527  44.759  10.944
62339W        W34665  23.726  11.733   2.786
62340W        W34666  41.909  24.554  11.026
62341W        W34667  15.693  38.838  13.370
62342W        W34668  43.771  29.060   4.251
62343W        W34669  11.205  27.456   4.170
62344W        W34670  14.325  37.382  11.018
62345W        W34671  29.556  32.889   0.903
62346W        W34672  40.434  35.021  14.417
62347W        W34673  18.084   4.894  10.525
62348W        W34674  11.785  14.328  13.963
62349W        W34675  15.693  31.629  10.928
62350W        W34676  20.052   9.750  13.950
62351W        W34677   2.418  22.047  14.991
62352W        W34678  16.609   0.293  10.440
62353W        W34679   4.698  32.985   3.771
62354W        W34680  30.920   2.815  11.572
62355W        W34681  37.530  23.733  13.792
62356W        W34682  37.551  24.605   0.346
62357W        W34683  34.597  16.575   2.791
62358W        W34684   6.356   5.379   0.828
62359W        W34685  18.777  36.973  14.901
62360W        W34686   3.909  10.260  13.513
62361W        W34687   7.406  14.296   3.780
62362W        W34688  12.247  42.468  11.425
62363W        W34689   2.912  10.224   3.695
62364W        W34690  17.071  31.951   5.292
62365W        W34691   6.396  26.125  14.337
62366W        W34692  22.741  22.633  11.507
62367W        W34693   4.802  14.118   2.326
62368W        W34694  15.204  40.432   4.727
62369W        W34695   7.380  30.475  12.889
62370W        W34696  23.489  14.783   1.797
62371W        W34697   7.258   1.457  11.106
62372W        W34698  37.413  14.141   3.197
62373W        W34699   4.269  35.857  14.354
62374W        W34700  40.528  26.125   1.303
62375W        W34701   5.718   0.488   3.236
62376W        W34702  18.122  27.054   4.721
62377W        W34703  19.099  34.379   4.744
62378W        W34704  42.369  33.924  13.331
62379W        W34705  28.932  11.817   4.349
62380W        W34706  29.991  30.638  10.456
62381W        W34707  38.953   8.711  12.343
62382W        W34708  33.995  42.304   3.312
62383W        W34709  18.168  33.494  14.354
62384W        W34710   2.229  23.523   4.664
62385W        W34711  32.999  44.859  13.349
62386W        W34712  19.183  14.229  14.015
62387W        W34713   4.752  36.466   2.724
62388W        W34714  14.122  20.682   4.179
62389W        W34715  32.132  34.095   1.314
62390W        W34716  30.062  26.602  13.018
62391W        W34717   2.376  12.186   9.966
62392W        W34718  11.810  26.987  13.879
62393W        W34719  12.633  15.802  14.420
62394W        W34720  34.408  10.166   0.833
62395W        W34721   7.752  28.988   3.293
62396W        W34722   5.764  44.900   4.272
62397W        W34723  35.389  38.380  11.922
62398W        W34724   1.303  33.957   3.756
62399W        W34725  29.045   1.959  14.949
62400W        W34726  17.705  41.295  13.905
62401W        W34727  11.783  25.039   4.685
62402W        W34728  44.383   3.887  10.934
62403W        W34729  31.598  27.514   3.675
62404W        W34730   9.336  17.174  12.072
62405W        W34731   5.762  33.492   0.263
62406W        W34732  20.201  33.106   4.285
62407W        W34733  24.995  18.086  11.931
62408W        W34734  18.106  36.425   0.388
62409W        W34735  18.263   0.901  11.538
62410W        W34736  37.458   4.768  13.487
62411W        W34737  18.581   4.316   4.245
62412W        W34738  43.433  40.525   0.346
62413W        W34739  34.528  39.016  14.874
62414W        W34740  32.420   1.444   1.452
62415W        W34741  11.628  22.698  11.915
62416W        W34742   1.847  41.043  13.533
62417W        W34743  32.547  30.034  12.948
62418W        W34744  14.231   8.752  14.516
62419W        W34745  19.064  23.576  12.942
62420W        W34746   5.423  32.017  14.405
62421W        W34747   0.325  22.747   5.740
62422W        W34748  27.021  20.149   0.248
62423W        W34749   1.335  20.090  10.615
62424W        W34750  12.191   5.295   1.916
62425W        W34751  12.166  31.525  12.860
62426W        W34752  27.025  15.770   0.822
62427W        W34753  25.499  10.857  12.420
62428W        W34754  21.159  34.459   1.725
62429W        W34755   3.926  18.629  13.832
62430W        W34756  27.502  28.133  14.788
62431W        W34757  12.720  19.586  11.116
62432W        W34758  41.471  15.607   2.888
62433W        W34759  36.510  11.674  12.404
62434W        W34760   7.676   1.845  11.526
62435W        W34761  34.909  18.143   2.677
62436W        W34762  18.664  37.534   4.296
62437W        W34763   6.329  40.044  12.946
62438W        W34764  38.932  37.519   1.394
62439W        W34765  23.507  12.742  13.911
62440W        W34766  43.020  23.490   4.619
62441W        W34767  23.128  40.811  14.837
62442W        W34768   0.796  25.106   4.200
62443W        W34769  21.709  25.981   1.701
62444W        W34770  25.051   7.881   0.460
62445W        W34771   7.901  15.621  14.951
62446W        W34772  31.069  13.132  12.062
62447W        W34773  29.962  20.155  12.501
62448W        W34774  39.512  25.191   4.179
62449W        W34775  37.477  15.261  14.323
62450W        W34776  27.493   6.740   1.366
62451W        W34777  21.129  21.674   5.164
62452W        W34778   3.732  18.615   0.743
62453W        W34779  14.291  31.574  14.858
62454W        W34780  37.468  36.561   3.178
62455W        W34781  21.235   7.263  11.023
62456W        W34782  30.004  14.651  13.534
62457W        W34783  32.429  36.868   1.813
62458W        W34784  20.588   0.476  11.984
62459W        W34785  17.776   7.867   2.714
62460W        W34786  19.157  34.970  12.011
62461W        W34787  27.145  25.652   2.899
62462W        W34788  16.170  27.120   0.415
62463W        W34789  23.027  42.855   0.815
62464W        W34790  29.444  30.138   1.712
62465W        W34791  32.931  33.605   4.774
62466W        W34792  42.017   2.842   0.324
62467W        W34793  35.859   6.302  14.839
62468W        W34794   6.697  42.324  10.944
62469W        W34795  18.135  32.535   1.704
62470W        W34796  25.630  14.235   2.204
62471W        W34797   5.199  13.781   4.148
62472W        W34798  32.397  40.303  12.419
62473W        W34799  11.781  26.662  12.904
62474W        W34800  23.725  21.570  12.015
62475W        W34801  10.272  23.526  10.547
62476W        W34802  42.498  28.091  12.453
62477W        W34803  28.594  14.636  12.340
62478W        W34804  20.046   8.816  10.159
62479W        W34805   5.223   5.824  14.829
62480W        W34806   4.904   0.466  12.928
62481W        W34807   8.205  11.712   3.835
62482W        W34808  18.239   8.323   4.168
62483W        W34809   3.419  29.996  14.829
62484W        W34810  15.161  34.956   0.909
62485W        W34811   4.252  36.582   2.859
62486W        W34812   3.873   3.895  14.024
62487W        W34813   6.696  15.647   2.189
62488W        W34814  21.754  35.365  10.638
62489W        W34815  37.000  11.294   3.248
62490W        W34816  11.250  33.998  12.468
62491W        W34817  38.940  32.043  10.428
62492W        W34818  44.956   5.802   3.642
62493W        W34819  26.187  30.429   4.770
62494W        W34820  20.236  27.974   1.707
62495W        W34821  32.137  36.500  14.365
62496W        W34822  36.471  44.332   1.213
62497W        W34823  44.850  29.424   3.790
62498W        W34824  13.310  36.573  13.852
62499W        W34825   9.294  17.186  12.341
62500W        W34826  32.554   4.321   2.883
62501W        W34827  28.050  41.967   4.148
62502W        W34828  28.578   2.846   1.399
62503W        W34829  26.671   8.894  14.499
62504W        W34830  39.509  11.252  14.467
62505W        W34831  40.974  23.498   3.636
62506W        W34832  43.384  26.056   3.275
62507W        W34833  15.705  28.061   2.829
62508W        W34834   2.751  29.109  14.837
62509W        W34835  13.691  37.985  12.003
62510W        W34836  16.765  20.173  12.089
62511W        W34837  12.639  14.833   2.755
62512W        W34838  31.991  33.458  13.954
62513W        W34839  29.506   1.761   2.862
62514W        W34840  17.249   4.394  10.555
62515W        W34841  26.641  16.096  10.620
62516W        W34842   4.209  43.488   0.752
62517W        W34843  44.301  32.105   2.414
62518W        W34844  21.556   4.805   2.888
62519W        W34845  29.454  13.740   2.320
62520W        W34846   7.841  33.968  11.425
62521W        W34847   4.316   2.946   0.754
62522W        W34848  22.534  33.625   1.796
62523W        W34849   5.700  39.370  10.404
62524W        W34850  13.346  18.644   4.174
62525W        W34851  28.148  13.333  10.131
62526W        W34852  44.770  36.525   4.331
62527W        W34853  26.022  11.734   2.243
62528W        W34854  12.187  36.402  14.508
62529W        W34855  18.631   3.367   1.786
62530W        W34856  10.188   4.232  10.529
62531W        W34857  36.441  22.171  11.088
62532W        W34858  35.361  16.684  13.354
62533W        W34859  21.707  34.931  11.429
62534W        W34860   4.833  27.669   2.901
62535W        W34861  11.324  43.392  11.497
62536W        W34862  11.237   2.408   4.318
62537W        W34863  32.035   3.418   5.257
62538W        W34864  34.048  10.145  11.100
62539W        W34865  26.079   4.836  13.894
62540W        W34866   6.362  13.761   3.290
62541W        W34867   3.403  13.269   4.800
62542W        W34868  21.243  32.510  10.571
62543W        W34869  19.618  40.311  11.588
62544W        W34870  29.926  21.112   2.327
62545W        W34871  44.446  28.073   2.867
62546W        W34872  18.124  12.240  12.367
62547W        W34873   2.258  20.090  11.863
62548W        W34874   6.828   2.774  13.418
62549W        W34875  11.739  41.474  13.905
62550W        W34876  28.601  14.290  12.477
62551W        W34877  24.693  13.234   2.262
62552W        W34878  43.985  33.519   2.844
62553W        W34879   4.737  38.389   9.988
62554W        W34880   1.815  13.312   1.913
62555W        W34881   9.677  28.143  14.372
62556W        W34882  29.089  20.574  11.479
62557W        W34883  37.506  36.018   0.960
62558W        W34884  11.854  25.704   0.435
62559W        W34885  16.602   4.920   4.656
62560W        W34886  17.707  30.523   1.787
62561W        W34887   7.207   7.270  11.403
62562W        W34888  10.654  26.149  10.079
62563W        W34889   2.747  23.152  10.607
62564W        W34890  30.061  35.591   4.780
62565W        W34891  16.727   5.868  11.867
62566W        W34892  27.042   9.728  11.094
62567W        W34893  30.101  28.589  13.876
62568W        W34894  14.598   7.214  14.500
62569W        W34895  14.330   2.736   2.308
62570W        W34896  25.538  27.657  11.399
62571W        W34897  27.601  13.240   4.292
62572W        W34898   9.236  24.664   0.446
62573W        W34899  36.908  21.639  11.461
62574W        W34900  28.656  42.926  13.826
62575W        W34901  22.152  43.018   2.414
62576W        W34902  16.705   6.233  10.515
62577W        W34903  22.063  37.935  14.328
62578W        W34904  37.364  35.059   4.751
62579W        W34905  19.600  28.437   2.373
62580W        W34906  11.218  17.133  11.095
62581W        W34907  33.484  21.213  10.409
62582W        W34908  19.050  33.031  10.607
62583W        W34909  17.763  21.557   4.278
62584W        W34910  21.758  19.251   0.263
62585W        W34911   8.267   6.272   4.257
62586W        W34912  13.238  24.178   0.903
62587W        W34913   7.216  27.129  14.827
62588W        W34914  27.589  43.824   0.375
62589W        W34915  43.479  32.620   0.881
62590W        W34916  43.477  33.037  10.504
62591W        W34917  23.241  10.671   1.275
62592W        W34918  39.448  19.104   2.350
62593W        W34919  23.600   3.749   4.697
62594W        W34920  15.583   9.832   2.693
62595W        W34921  16.179  31.968  13.394
62596W        W34922  23.500  27.470   2.865
62597W        W34923  41.347  20.736   3.228
62598W        W34924  26.650  13.163  13.908
62599W        W34925   4.257  36.517  11.528
62600W        W34926  21.225  30.923   4.784
62601W        W34927  28.539  19.568  11.973
62602W        W34928  35.477  37.835   3.829
62603W        W34929  38.921  27.559   2.769
62604W        W34930  39.979  20.161   0.293
62605W        W34931  17.214  34.885   4.248
62606W        W34932  39.994  38.920   3.749
62607W        W34933  39.001  16.080  13.906
62608W        W34934  36.079  41.394  12.838
62609W        W34935  18.215  12.145  14.469
62610W        W34936  27.106  44.358  10.528
62611W        W34937  14.295  26.457  10.422
62612W        W34938  10.727  40.989   4.291
62613W        W34939  27.688   8.742  13.857
62614W        W34940  19.114   6.882   3.368
62615W        W34941   5.273  13.823   1.703
62616W        W34942  35.036  14.705   4.714
62617W        W34943  32.120  37.488   3.665
62618W        W34944  26.071  27.509  14.962
62619W        W34945  30.444  15.761   3.311
62620W        W34946  41.996  34.516  11.561
62621W        W34947  28.538  12.226  12.956
62622W        W34948  35.986   4.801  13.995
62623W        W34949  37.077  41.460  10.432
62624W        W34950  12.630  17.255  12.509
62625W        W34951  18.666  23.077   0.739
62626W        W34952  43.487  31.942   1.733
62627W        W34953  34.508  11.713  11.611
62628W        W34954  40.449   8.848   0.377
62629W        W34955  31.553  27.663  13.902
62630W        W34956  13.800  25.100  14.973
62631W        W34957   4.945  38.840   4.302
62632W        W34958  25.966  36.587  13.359
62633W        W34959  15.601   8.718   0.393
62634W        W34960  17.275  21.711  13.886
62635W        W34961  26.562   0.851   4.202
62636W        W34962   5.699  24.723   2.196
62637W        W34963  39.022  19.749  13.964
62638W        W34964  32.485  28.046   3.327
62639W        W34965  23.085  40.316  10.527
62640W        W34966  32.448  25.580  12.878
62641W        W34967  42.941  28.488  13.954
62642W        W34968  17.608   9.152  11.378
62643W        W34969  32.012  14.694  14.971
62644W        W34970  34.509  39.443   0.452
62645W        W34971  30.016  28.676  13.350
62646W        W34972  44.967   4.285   4.782
62647W        W34973  14.266  11.265  10.943
62648W        W34974   4.345  43.978   0.758
62649W        W34975  29.938   4.398  13.016
62650W        W34976  19.135  26.660   1.310
62651W        W34977  15.784  39.449   2.705
62652W        W34978  44.876   4.716   0.913
62653W        W34979   0.359   7.341  13.835
62654W        W34980  29.132  32.560  12.014
62655W        W34981  34.907   6.275  12.870
62656W        W34982  30.071  39.061   3.664
62657W        W34983   7.852  32.485   0.350
62658W        W34984  34.373  34.117   0.307
62659W        W34985  44.860   9.665   1.815
62660W        W34986  30.550  18.726  13.903
62661W        W34987  23.004  36.394   0.431
62662W        W34988   9.360  37.440   1.442
62663W        W34989   9.322   4.217  14.963
62664W        W34990  11.179  22.094  13.858
62665W        W34991  22.525   2.757  10.515
62666W        W34992  24.185   3.322  12.522
62667W        W34993  38.351  31.440   4.200
62668W        W34994   2.434  30.134   4.199
62669W        W34995  23.050  38.430   5.148
62670W        W34996   3.853  34.504  12.386
62671W        W34997  11.226   8.361   2.825
62672W        W34998  14.197  11.774   2.728
62673W        W34999  16.248  25.710  13.428
62674W        W35000  29.960   3.766  11.887
62675W        W35001  35.900   7.290  11.509
62676W        W35002  30.051  35.571   0.928
62677W        W35003  29.138   6.765   0.871
62678W        W35004  11.715   0.833  12.925
62679W        W35005  35.451  40.931  13.906
62680W        W35006  29.638  26.648  14.866
62681W        W35007  30.482  11.853   2.759
62682W        W35008  34.967  13.186  12.871
62683W        W35009   2.935   4.766   4.175
62684W        W35010   4.942  43.496  12.926
62685W        W35011  27.608  15.647  12.875
62686W        W35012   3.321  42.923   1.739
62687W        W35013  40.510  36.873  11.964
62688W        W35014   6.210  19.267  11.426
62689W        W35015  28.450  40.306  12.524
62690W        W35016  26.024   8.315  11.892
62691W        W35017   2.283   6.382   1.804
62692W        W35018  17.700  17.173  13.374
62693W        W35019  27.066  11.866   1.760
62694W        W35020  24.093   7.813  11.554
62695W        W35021  15.321   7.190  10.909
62696W        W35022  35.517  39.531   2.742
62697W        W35023  39.999  34.917  11.526
62698W        W35024   9.182  18.055  13.025
62699W        W35025  42.861  23.051   2.260
62700W        W35026   2.826  44.265  14.028
62701W        W35027   0.824  26.647   4.142
62702W        W35028   8.684  25.495  12.957
62703W        W35029   6.254   4.226   0.433
62704W        W35030   6.829  28.947   1.230
62705W        W35031   2.278  44.828   4.116
62706W        W35032  30.477  43.454  13.852
62707W        W35033  21.096  19.704   3.707
62708W        W35034  35.977  34.369  11.095
62709W        W35035   4.771  21.742  14.764
62710W        W35036   6.790   9.778  12.407
62711W        W35037  29.097  29.921  14.313
62712W        W35038  20.180  13.237   2.271
62713W        W35039   4.862   8.393   2.766
62714W        W35040  34.103  11.665  11.441
62715W        W35041  18.152  36.477  13.375
62716W        W35042  37.055  35.999   1.285
62717W        W35043   8.372   6.255   2.835
62718W        W35044   0.871  41.468  11.550
62719W        W35045  12.732  26.001   4.125
62720W        W35046   5.199  25.561  12.368
62721W        W35047   8.711  16.100  12.394
62722W        W35048  38.431  44.880   4.776
62723W        W35049   7.753   7.863   2.813
62724W        W35050  12.636  10.671  11.444
62725W        W35051  35.371   2.812  13.924
62726W        W35052  41.971  38.444   3.187
62727W        W35053  38.545  14.190   2.206
62728W        W35054  44.456   3.412  11.919
62729W        W35055  13.329  38.874   5.168
62730W        W35056  17.197  16.146  14.885
62731W        W35057  37.944  25.496   2.777
62732W        W35058  40.900  36.954  12.941
62733W        W35059  14.634  37.011  14.331
62734W        W35060  28.578  26.972  10.450
62735W        W35061  33.998  24.686  14.509
62736W        W35062   7.861  12.829   2.666
62737W        W35063  32.631  28.114  12.832
62738W        W35064  17.201  14.810   1.339
62739W        W35065  32.062  21.240  14.404
62740W        W35066  30.096  35.999  10.920
62741W        W35067   2.421  17.099   0.271
62742W        W35068  27.563  27.943  10.091
62743W        W35069  44.287   4.412   4.817
62744W        W35070  10.237  27.492  13.009
62745W        W35071  19.228  13.726   0.882
62746W        W35072  44.309   9.251   1.324
62747W        W35073   1.405   0.937  13.527
62748W        W35074  27.459  28.000   0.324
62749W        W35075  39.377  18.602   3.278
62750W        W35076   4.334  35.024  11.029
62751W        W35077  30.986  33.996   3.308
62752W        W35078  40.473  33.076   1.743
62753W        W35079  37.336  26.163   2.703
62754W        W35080  36.517  13.802   0.794
62755W        W35081  40.834  40.424  12.017
62756W        W35082  14.769  44.928  10.612
62757W        W35083  41.874   6.356   2.683
62758W        W35084  28.637  29.670   3.772
62759W        W35085  43.410   2.961  13.038
62760W        W35086  41.359  42.985   1.913
62761W        W35087  29.924  29.618   3.280
62762W        W35088  41.817   4.791  11.533
62763W        W35089  16.750  40.545  11.037
62764W        W35090   7.221  15.808   4.610
62765W        W35091   9.312  40.947   0.368
62766W        W35092   7.308   5.242   0.780
62767W        W35093  38.366  29.014   4.289
62768W        W35094  30.017  27.542  12.342
62769W        W35095  12.142  12.844   3.816
62770W        W35096  18.559  14.589  12.374
62771W        W35097  19.604   6.772   4.348
62772W        W35098  24.218   8.720  11.062
62773W        W35099  17.557  42.863   9.989
62774W        W35100   1.896  18.786  11.430
62775W        W35101  33.963  23.623   1.388
62776W        W35102  38.948   2.815  10.568
62777W        W35103   6.279  41.505   1.222
62778W        W35104  23.136   4.221  13.375
62779W        W35105  22.532  41.369  12.890
62780W        W35106   3.372  32.428  13.798
62781W        W35107   4.841  27.138   2.394
62782W        W35108  40.905  24.552   1.776
62783W        W35109  43.894  23.647  14.941
62784W        W35110  35.878  21.094  12.404
62785W        W35111  23.494  14.325   2.681
62786W        W35112  33.440   9.869   3.731
62787W        W35113  33.613  43.372   2.197
62788W        W35114  31.914  44.439  13.857
62789W        W35115   8.305  40.973  10.499
62790W        W35116  36.942  22.124  14.411
62791W        W35117  31.988  13.682  11.121
62792W        W35118  10.733   0.349   0.885
62793W        W35119  35.087  22.173  12.554
62794W        W35120   7.907  29.134  10.570
62795W        W35121  21.636  21.690  14.823
62796W        W35122  22.132  24.998  12.435
62797W        W35123   8.188  37.444   3.188
62798W        W35124  41.843  15.804   0.774
62799W        W35125  34.994  23.563  11.418
62800W        W35126  16.610  25.635  12.919
62801W        W35127  23.521  10.809   1.766
62802W        W35128  42.361  40.387  14.301
62803W        W35129  32.457   9.263  12.837
62804W        W35130  13.661  18.114   0.272
62805W        W35131  42.026  18.224  10.064
62806W        W35132  21.030  29.933   4.259
62807W        W35133   3.226  19.213  13.365
62808W        W35134  13.816   1.322   1.890
62809W        W35135   4.238   6.341  14.923
62810W        W35136  34.385  38.033   1.877
62811W        W35137  22.523  38.948  13.520
62812W        W35138  33.466  33.424  12.951
62813W        W35139  43.481  41.981  14.009
62814W        W35140  22.027  22.206   0.254
62815W        W35141  14.727  22.020   2.890
62816W        W35142   9.307  21.714   3.319
62817W        W35143  15.811  11.637  11.012
62818W        W35144  21.099  23.164  10.992
62819W        W35145  44.345  26.172  11.541
62820W        W35146  22.713   5.362   1.241
62821W        W35147  29.080  23.031   3.854
62822W        W35148  32.997  22.143   2.760
62823W        W35149   6.854  43.801   2.396
62824W        W35150  21.018  28.488  11.886
62825W        W35151  19.193  34.583   2.416
62826W        W35152  43.410  34.003   0.294
62827W        W35153  30.547  42.847   3.246
62828W        W35154   8.284  29.146  11.432
62829W        W35155  40.539  18.061   4.312
62830W        W35156   7.182   9.174   0.270
62831W        W35157  31.441  20.724   4.192
62832W        W35158  34.865   3.256  10.475
62833W        W35159  11.205  18.051   1.388
62834W        W35160  38.038   7.873  14.898
62835W        W35161  14.659  28.133  12.827
62836W        W35162  12.766   7.202  13.967
62837W        W35163   9.170  21.618   0.928
62838W        W35164   9.681  29.639   3.817
62839W        W35165  24.000  20.660  11.554
62840W        W35166  14.159  14.655   1.373
62841W        W35167   4.313  19.217   4.204
62842W        W35168   1.846   3.367   4.615
62843W        W35169  41.538  20.043  13.906
62844W        W35170  34.414  32.887  12.990
62845W        W35171  34.969  39.335   4.271
62846W        W35172   1.821  42.959  13.345
62847W        W35173  38.397  12.227   3.814
62848W        W35174  12.292   7.331   0.851
62849W        W35175  28.094  33.443  12.922
62850W        W35176  42.456   7.218   1.695
62851W        W35177   5.814   9.753   0.288
62852W        W35178  31.115  20.761  10.609
62853W        W35179  18.127   4.924   0.328
62854W        W35180   3.823  18.229   0.729
62855W        W35181  30.016  15.228   2.245
62856W        W35182  37.999   4.710  11.541
62857W        W35183  38.942  25.695   2.682
62858W        W35184  29.648  15.261   4.318
62859W        W35185  12.327  28.981  12.367
62860W        W35186   5.307  16.314   0.450
62861W        W35187  14.229   5.215   0.950
62862W        W35188  27.177  24.552  13.381
62863W        W35189  18.061  24.980   3.381
62864W        W35190   3.800   8.808   3.162
62865W        W35191  14.117   6.288   3.735
62866W        W35192   6.256  16.620  10.603
62867W        W35193  32.477   7.687   0.483
62868W        W35194   6.810  27.574  10.627
62869W        W35195  13.703  28.111   3.327
62870W        W35196  33.527  27.646   4.617
62871W        W35197  35.012  31.511  14.279
62872W        W35198  30.567  18.156  13.893
62873W        W35199  36.004   5.840  11.099
62874W        W35200  27.548  16.156  12.501
62875W        W35201  35.976  41.860  13.063
62876W        W35202   5.920   5.323  11.424
62877W        W35203  28.051  36.009  11.506
62878W        W35204   3.953   7.774   1.386
62879W        W35205   2.317  39.463  14.783
62880W        W35206   2.868  24.092   0.906
62881W        W35207  19.666  15.192   1.698
62882W        W35208  42.403  42.898   4.813
62883W        W35209  28.081  18.735   0.366
62884W        W35210   0.469   8.211   0.956
62885W        W35211  30.575   5.915   4.695
62886W        W35212   8.375  25.617  12.456
62887W        W35213   9.844  33.396   2.250
62888W        W35214   9.715  17.646  11.905
62889W        W35215   2.407  31.485  11.907
62890W        W35216  38.400  44.002   0.381
62891W        W35217  25.988   7.886   0.257
62892W        W35218  43.472  13.201  11.897
62893W        W35219  38.549  34.952   4.654
62894W        W35220  11.811  21.542   1.276
62895W        W35221  35.045  33.074   2.816
62896W        W35222  29.503  26.075  11.522
62897W        W35223  31.057  12.162   1.836
62898W        W35224  14.178   3.458  11.607
62899W        W35225  27.079  34.517  14.388
62900W        W35226  25.978  20.577   1.450
62901W        W35227  12.291  12.323  14.815
62902W        W35228   9.686   4.825   3.770
62903W        W35229  44.931  24.213  14.361
62904W        W35230   2.961  39.466  13.980
62905W        W35231  38.905   1.843  13.541
62906W        W35232  15.163  28.580   4.728
62907W        W35233  20.718  18.665   4.812
62908W        W35234   4.841   1.472  14.321
62909W        W35235  23.548  28.586  11.376
62910W        W35236   2.807  13.183   0.834
62911W        W35237   4.916  41.307  13.897
62912W        W35238  40.483   5.207   2.183
62913W        W35239  25.205  10.681   2.283
62914W        W35240  38.480  27.492  11.563
62915W        W35241  20.185  28.993   4.130
62916W        W35242  30.568  26.992  11.029
62917W        W35243  18.085  25.481   0.967
62918W        W35244   5.915  21.136   1.339
62919W        W35245  20.100  25.562  14.296
62920W        W35246  21.140  21.172   2.335
62921W        W35247   8.317  43.952   2.275
62922W        W35248   1.952   0.413   3.683
62923W        W35249  16.144  16.256  14.028
62924W        W35250  25.515   2.448   1.294
62925W        W35251  37.358  20.695   2.292
62926W        W35252  16.734  15.593  10.485
62927W        W35253   3.900  33.494  10.040
62928W        W35254  33.602   6.820  14.864
62929W        W35255   9.226  37.050   4.331
62930W        W35256  40.855  40.481  14.907
62931W        W35257  36.555  11.337  14.948
62932W        W35258  17.772   8.670  14.985
62933W        W35259  43.452  26.048   4.643
62934W        W35260   4.374  27.042   0.834
62935W        W35261  25.014  16.265  11.387
62936W        W35262   8.790   9.157  12.363
62937W        W35263  43.967   4.449  14.993
62938W        W35264   6.329   4.867   9.974
62939W        W35265  32.438   7.333   4.199
62940W        W35266   0.463  15.661  10.525
62941W        W35267  20.560  23.023   2.836
62942W        W35268  12.353   5.748  11.092
62943W        W35269   4.885   4.444  12.930
62944W        W35270  33.476   7.749  11.918
62945W        W35271  31.142  43.403   2.796
62946W        W35272   4.352  29.950   1.424
62947W        W35273  28.152  36.022   3.163
62948W        W35274   7.691  31.533   1.345
62949W        W35275  19.183  15.804  10.927
62950W        W35276  38.521  36.040   2.863
62951W        W35277  16.276  35.103   4.751
62952W        W35278  15.651  13.284  10.946
62953W        W35279  40.814  19.710  13.356
62954W        W35280  37.545  42.963   4.768
62955W        W35281  23.498   0.799  13.887
62956W        W35282  37.362  18.549   1.901
62957W        W35283  10.197   7.776  11.008
62958W        W35284  18.604  37.920  13.308
62959W        W35285  20.547  40.327   4.810
62960W        W35286  13.765   6.416  12.041
62961W        W35287  16.163  26.615   2.416
62962W        W35288  15.684  14.163  12.897
62963W        W35289  39.930  32.546  12.496
62964W        W35290   0.328  25.199  13.812
62965W        W35291  30.116   9.226  11.462
62966W        W35292  41.910  31.082  11.043
62967W        W35293   2.774  34.949   2.273
62968W        W35294   6.271  38.441   3.786
62969W        W35295  16.130  40.996  11.434
62970W        W35296  39.542  14.148   0.380
62971W        W35297  35.426  24.976   2.200
62972W        W35298  26.159  42.030   1.703
62973W        W35299   3.731   0.927   3.195
62974W        W35300  44.479  13.242   4.699
62975W        W35301  25.571  11.701   3.172
62976W        W35302  28.453  33.400   1.233
62977W        W35303   2.731  25.555  12.553
62978W        W35304  11.176  35.074  14.493
62979W        W35305  26.559   6.229   3.204
62980W        W35306  42.795  40.985  10.891
62981W        W35307  23.568   7.731  13.385
62982W        W35308   9.180  41.518   4.830
62983W        W35309  11.653  14.250   3.233
62984W        W35310  20.138  10.875   0.924
62985W        W35311   1.254  26.046  12.378
62986W        W35312  12.189  16.215  10.958
62987W        W35313  20.061  12.336  14.025
62988W        W35314  27.054  17.680   3.858
62989W        W35315   6.355   4.300   3.387
62990W        W35316  27.605   8.162  14.306
62991W        W35317  20.580   2.329   1.719
62992W        W35318  16.730   9.760   4.137
62993W        W35319  24.571  18.149   0.409
62994W        W35320  27.132   8.789  11.581
62995W        W35321  24.710   6.886  10.507
62996W        W35322   2.944  31.957   1.774
62997W        W35323  22.664   7.302  14.988
62998W        W35324   3.361  31.623  12.422
62999W        W35325  20.538   9.795  11.424
63000W        W35326  22.202  16.761  11.949
63001W        W35327  24.031  12.658  14.329
63002W        W35328  41.896  37.921  13.535
63003W        W35329  19.142  41.857  11.422
63004W        W35330  29.950  18.232  12.371
63005W        W35331  39.318  35.590  11.504
63006W        W35332  33.530  11.746  11.595
63007W        W35333   5.419   8.348  11.526
63008W        W35334   9.205  17.617   1.818
63009W        W35335  15.114  25.562  13.441
63010W        W35336  38.032  32.061   9.982
63011W        W35337  21.109   9.364   1.854
63012W        W35338  14.629  35.979  14.457
63013W        W35339  13.113   1.476   4.188
63014W        W35340  38.983  33.988  13.431
63015W        W35341  21.716  25.027   0.887
63016W        W35342  31.435  36.055  11.950
63017W        W35343   1.421  23.531  13.796
63018W        W35344  16.601  14.625  11.379
63019W        W35345  27.180  33.117  13.490
63020W        W35346  22.216  39.335   9.518
63021W        W35347  16.655   9.710   2.856
63022W        W35348  36.920  13.693  12.857
63023W        W35349  11.298  38.525   0.819
63024W        W35350  14.261  30.471   0.960
63025W        W35351  36.850  22.114   4.224
63026W        W35352   0.291  13.121   1.344
63027W        W35353   9.667  21.135   4.126
63028W        W35354  28.037   6.884  13.968
63029W        W35355  18.050  17.658  13.038
63030W        W35356  33.485  26.076   4.767
63031W        W35357  22.011  38.540   5.321
63032W        W35358  13.650   4.704   1.805
63033W        W35359   1.913  22.130   2.698
63034W        W35360  14.808  22.029  12.830
63035W        W35361  22.680  17.178   3.333
63036W        W35362  28.011   8.835   4.127
63037W        W35363  44.779  43.875  13.800
63038W        W35364  22.570  26.191   4.182
63039W        W35365  22.672  14.336  14.912
63040W        W35366  24.155  43.390   4.833
63041W        W35367  16.735   0.268  12.449
63042W        W35368  41.864   5.846   3.777
63043W        W35369  39.001  12.663  11.006
63044W        W35370  41.347  30.614  13.954
63045W        W35371  24.168   2.377   3.826
63046W        W35372  15.634  43.783  13.345
63047W        W35373  17.082  36.569   1.335
63048W        W35374   8.829  17.604   4.808
63049W        W35375  23.186  29.594  14.762
63050W        W35376  40.544  44.267   9.919
63051W        W35377   3.709  39.056   3.374
63052W        W35378  14.742  41.953   3.263
63053W        W35379  39.424  14.324   1.348
63054W        W35380  33.551  40.364  10.969
63055W        W35381   7.201  42.390   3.666
63056W        W35382  11.274  36.077  11.860
63057W        W35383  22.647  21.069   9.988
63058W        W35384   9.786   6.776  12.033
63059W        W35385   7.365  34.393  14.398
63060W        W35386  34.101  41.481  11.546
63061W        W35387   8.320  28.100  13.906
63062W        W35388  41.800  14.799  12.050
63063W        W35389  30.480  13.635  10.551
63064W        W35390  14.712  39.968  10.442
63065W        W35391  33.414  35.601  12.956
63066W        W35392   3.816  43.314   0.374
63067W        W35393  12.341  41.463   3.698
63068W        W35394   9.326   2.347  14.515
63069W        W35395  10.200  42.826   4.703
63070W        W35396  26.199   3.234   3.762
63071W        W35397  20.242  25.485   0.896
63072W        W35398   0.770  11.824   4.272
63073W        W35399  31.963  28.953  10.419
63074W        W35400  41.878  25.033  12.888
63075W        W35401  24.588  12.326   4.727
63076W        W35402  40.874  26.075   2.879
63077W        W35403  12.808  43.014  13.508
63078W        W35404  41.382  17.147   1.348
63079W        W35405  36.033  19.774   3.844
63080W        W35406  13.163  33.410  14.933
63081W        W35407  23.991  22.053   3.856
63082W        W35408   0.311  36.551  12.991
63083W        W35409  34.564  20.224   2.353
63084W        W35410  40.861  21.535  11.458
63085W        W35411  14.129  27.960  13.334
63086W        W35412  22.233   8.381   2.738
63087W        W35413  31.976  30.164  12.510
63088W        W35414  18.185  41.975  11.984
63089W        W35415  20.616  18.062  11.403
63090W        W35416   9.706  34.089  14.461
63091W        W35417  31.995  11.799   2.863
63092W        W35418  28.088  44.302   9.932
63093W        W35419  24.026  44.477  14.982
63094W        W35420  41.372  18.627   0.940
63095W        W35421  38.033   5.384  14.277
63096W        W35422  31.954  26.651   1.370
63097W        W35423   5.912  29.454  13.424
63098W        W35424   8.262   7.874   3.344
63099W        W35425  16.762  29.529  11.403
63100W        W35426  12.362  32.017   4.329
63101W        W35427  31.587  16.231   3.284
63102W        W35428  36.097  22.502   1.349
63103W        W35429  44.409  31.484   3.676
63104W        W35430  26.517  10.329  10.955
63105W        W35431  37.063   8.734  12.855
63106W        W35432  31.921  41.929  13.840
63107W        W35433  28.095  13.344   2.301
63108W        W35434  14.131   6.245   2.840
63109W        W35435   6.837  42.833  14.849
63110W        W35436   6.416  40.340  10.903
63111W        W35437  19.688  44.293   4.265
63112W        W35438  24.593   2.259   3.331
63113W        W35439  35.440  12.226   4.640
63114W        W35440   3.858  33.006   3.796
63115W        W35441   7.733  13.802   2.315
63116W        W35442  43.884  12.259  14.490
63117W        W35443  38.372   2.887  13.534
63118W        W35444  10.632  27.602   3.384
63119W        W35445  20.680  36.374  10.499
63120W        W35446  27.999  28.108  10.510
63121W        W35447   2.468  38.850   3.206
63122W        W35448  27.094  18.209  13.919
63123W        W35449  34.441  41.433   3.661
63124W        W35450  16.263  37.364   0.477
63125W        W35451  32.492  30.563  13.316
63126W        W35452  26.469  26.604  14.000
63127W        W35453  25.006  29.078   4.258
63128W        W35454   5.870   6.185   3.356
63129W        W35455  16.098   3.434   1.827
63130W        W35456  18.546  31.982  11.114
63131W        W35457   9.846   4.915  10.894
63132W        W35458  33.616  27.493  11.613
63133W        W35459  24.614  24.692   1.736
63134W        W35460  12.773  35.361  11.911
63135W        W35461  43.477   0.948   1.780
63136W        W35462   2.816  21.236   3.667
63137W        W35463  26.109  28.154  12.882
63138W        W35464   2.907  33.881   3.325
63139W        W35465   6.213  26.607  14.995
63140W        W35466   5.899  23.517   3.273
63141W        W35467  29.171  33.430   3.847
63142W        W35468  21.065  43.010  11.535
63143W        W35469  13.149  35.864   2.265
63144W        W35470   7.256  11.686   3.356
63145W        W35471  38.426  23.086  14.416
63146W        W35472  42.870  17.083   4.323
63147W        W35473  19.072  21.732  10.934
63148W        W35474  14.823   7.692   0.895
63149W        W35475  32.918  43.783  10.957
63150W        W35476  15.291  16.582  14.469
63151W        W35477  22.202  19.601   0.961
63152W        W35478   8.186   8.665  11.115
63153W        W35479   2.946  11.661   2.223
63154W        W35480  31.048  12.360   2.255
63155W        W35481  40.453  27.151   0.875
63156W        W35482   9.682   3.924  13.015
63157W        W35483  29.931  24.150   4.151
63158W        W35484  29.076  10.174  10.529
63159W        W35485  36.001  39.465  13.827
63160W        W35486  23.735   1.975  10.443
63161W        W35487  27.537   2.307  10.407
63162W        W35488  27.528  38.982   2.766
63163W        W35489   5.729  36.497   0.414
63164W        W35490  15.753  15.748   2.264
63165W        W35491  21.183  16.120  14.436
63166W        W35492  12.805  31.933   1.744
63167W        W35493   2.760  38.015   1.765
63168W        W35494   0.312  39.442  14.014
63169W        W35495  36.458  35.858   0.358
63170W        W35496   1.882  29.055   1.312
63171W        W35497   2.323  39.462  10.618
63172W        W35498  26.999   6.843  12.966
63173W        W35499  32.075  20.073  12.911
63174W        W35500  28.546  33.559  12.062
63175W        W35501  21.039  32.535  13.952
63176W        W35502  19.634  27.031   3.352
63177W        W35503   4.832   6.788   0.949
63178W        W35504  25.517  22.029  11.493
63179W        W35505  29.599  15.817   4.655
63180W        W35506  38.053   5.210  14.786
63181W        W35507  30.017   1.332   4.781
63182W        W35508  34.514   6.808  10.481
63183W        W35509   3.769   2.845   5.246
63184W        W35510  38.861  39.915   3.738
63185W        W35511  22.188  22.646  14.914
63186W        W35512  27.654  36.415  14.860
63187W        W35513  16.136  15.224  14.904
63188W        W35514  25.670  22.086   0.840
63189W        W35515  20.216  28.570   3.299
63190W        W35516  38.851  39.355  11.889
63191W        W35517  25.714  37.974  11.460
63192W        W35518  22.076  34.105  12.486
63193W        W35519  44.398  13.766   0.967
63194W        W35520  26.669  33.570   0.826
63195W        W35521  29.174   6.258   3.805
63196W        W35522  29.612  23.149  14.371
63197W        W35523   6.276  21.213   1.405
63198W        W35524   0.371  33.951   4.756
63199W        W35525   1.416  26.129   3.360
63200W        W35526  41.348   2.942  13.863
63201W        W35527  42.866  25.074  12.521
63202W        W35528  16.104  40.412   4.661
63203W        W35529  33.494  41.970  12.345
63204W        W35530  39.930  34.115   4.250
63205W        W35531  35.458  44.779  10.520
63206W        W35532  29.054  18.065  11.964
63207W        W35533  12.709  18.776   2.770
63208W        W35534   5.199  22.998   1.220
63209W        W35535  17.730   2.820  12.010
63210W        W35536  31.987  25.209  11.453
63211W        W35537  29.524  10.209   4.201
63212W        W35538   7.205  29.576  12.034
63213W        W35539  30.446  15.647  13.882
63214W        W35540  40.506   8.376  13.021
63215W        W35541  10.751   4.701  12.880
63216W        W35542   2.743   0.888  11.925
63217W        W35543   0.487  11.172   0.443
63218W        W35544   7.373  27.970   4.668
63219W        W35545  43.489  16.240   4.343
63220W        W35546   5.438  27.641  12.485
63221W        W35547  24.512  36.518  12.021
63222W        W35548  31.136   1.776   4.279
63223W        W35549  17.142  30.060   4.776
63224W        W35550  36.389  22.197   4.355
63225W        W35551  31.405  37.028  10.532
63226W        W35552  39.369  26.960   1.740
63227W        W35553  23.709  26.617   1.413
63228W        W35554  18.249  43.330  14.912
63229W        W35555  33.511  37.831   3.294
63230W        W35556  38.954  35.982   4.187
63231W        W35557  24.144  27.467  14.473
63232W        W35558  31.123  13.266  13.798
63233W        W35559   9.173  22.504   4.676
63234W        W35560  30.065  42.355  13.477
63235W        W35561  42.946  37.448   3.819
63236W        W35562  39.377  14.296  11.430
63237W        W35563  24.023   3.879   0.790
63238W        W35564  16.672  28.968   1.238
63239W        W35565  16.169  35.374  12.443
63240W        W35566   5.397  12.712   3.772
63241W        W35567  38.496  19.083  12.425
63242W        W35568  12.357  13.704   2.703
63243W        W35569  22.546  11.260  10.938
63244W        W35570   6.202   0.838  14.282
63245W        W35571  14.146  22.731   3.833
63246W        W35572   4.385   8.779  12.970
63247W        W35573  25.166  35.879  13.512
63248W        W35574   4.850  26.130   1.814
63249W        W35575  22.631   5.758  11.380
63250W        W35576  32.140  38.486  10.035
63251W        W35577  17.716   8.745   4.125
63252W        W35578  32.118   1.444  14.278
63253W        W35579   9.311  15.636  11.433
63254W        W35580  21.128  34.055   1.406
63255W        W35581   9.790  42.527  10.551
63256W        W35582  42.372   1.819   2.742
63257W        W35583   4.339  27.680  12.857
63258W        W35584   0.488  18.187   4.322
63259W        W35585  29.575   8.280   3.318
63260W        W35586  25.037  12.185   3.783
63261W        W35587  26.168  30.030   3.312
63262W        W35588  21.075  10.381   1.793
63263W        W35589  36.350  39.955   0.758
63264W        W35590   6.330  13.294  12.891
63265W        W35591  34.941   2.416  12.459
63266W        W35592  44.787  25.497  12.989
63267W        W35593  29.546   8.872   0.809
63268W        W35594  42.422  25.129   1.229
63269W        W35595  37.939  20.096   0.943
63270W        W35596  26.681  43.512  14.787
63271W        W35597   2.356  36.502  11.943
63272W        W35598  38.914   2.270   5.159
63273W        W35599  36.584   6.386  12.467
63274W        W35600  20.634  34.988   2.230
63275W        W35601  20.167  39.530   3.715
63276W        W35602  26.133  28.059   5.161
63277W        W35603  25.967  34.930   0.456
63278W        W35604  24.562  42.512   1.316
63279W        W35605  27.129  21.149  11.548
63280W        W35606  15.631  30.057   4.329
63281W        W35607  19.121  26.104   2.882
63282W        W35608  27.501  26.170  14.490
63283W        W35609  32.084  28.954   1.852
63284W        W35610  41.489  41.878  12.022
63285W        W35611  12.255   3.325  14.315
63286W        W35612   6.214  17.174  13.861
63287W        W35613  30.947  39.981   1.419
63288W        W35614   7.241   7.234   3.695
63289W        W35615  24.208   5.882   2.821
63290W        W35616   9.244  27.987  14.478
63291W        W35617  35.971  28.074   3.327
63292W        W35618  22.731  10.772  11.048
63293W        W35619  33.574  25.487  11.005
63294W        W35620  40.848  31.498  11.463
63295W        W35621  19.125   0.899  14.909
63296W        W35622  26.683   6.883  12.957
63297W        W35623  20.743   3.220  12.917
63298W        W35624   4.783  36.540   0.831
63299W        W35625  10.325  17.764  13.337
63300W        W35626  40.358  11.196   1.843
63301W        W35627  13.754  29.496   4.678
63302W        W35628   6.285  20.203  11.409
63303W        W35629  16.620  35.487   1.740
63304W        W35630  38.005  13.119  11.508
63305W        W35631  21.028  30.034  13.983
63306W        W35632   5.842  12.319  14.424
63307W        W35633   1.256  11.226  10.472
63308W        W35634  21.651  44.322   0.325
63309W        W35635   4.374   9.266   1.724
63310W        W35636  17.210  16.660   4.645
63311W        W35637   0.882  15.184   3.632
63312W        W35638  40.984  27.003  12.864
63313W        W35639  44.280  41.937   4.826
63314W        W35640  23.533  21.099  14.429
63315W        W35641  10.202  18.545  14.469
63316W        W35642  29.023  18.782  13.505
63317W        W35643  20.219   3.819  12.036
63318W        W35644  13.681  10.857  13.821
63319W        W35645  10.759  19.148  12.529
63320W        W35646   3.364  12.189   3.360
63321W        W35647   7.243  37.016  10.450
63322W        W35648  11.227  22.632  11.437
63323W        W35649  29.098  38.556  10.972
63324W        W35650  10.342   1.914   3.329
63325W        W35651  40.850   3.951   2.319
63326W        W35652   0.394  42.837   3.824
63327W        W35653  14.205  33.966   5.579
63328W        W35654  27.466  25.538   3.374
63329W        W35655  42.484  11.780   4.747
63330W        W35656  36.593  11.363  10.918
63331W        W35657   5.357   1.858   4.199
63332W        W35658  38.570  30.653  11.555
63333W        W35659  14.247  34.423  14.004
63334W        W35660  38.871  21.179  10.036
63335W        W35661   9.756  12.179  10.979
63336W        W35662  42.495  12.686   3.343
63337W        W35663  33.507  41.352   0.293
63338W        W35664  15.326  19.131   1.755
63339W        W35665  29.071  13.725  11.028
63340W        W35666  10.291  11.142  14.759
63341W        W35667  18.178  27.496  10.528
63342W        W35668  21.135  31.509   1.843
63343W        W35669  25.560  31.911  11.066
63344W        W35670   6.786   0.766   4.320
63345W        W35671  28.630  20.713  11.512
63346W        W35672  26.977  21.646   4.832
63347W        W35673  43.458  29.465   3.675
63348W        W35674  25.500  28.544  14.814
63349W        W35675  11.171  17.636   2.829
63350W        W35676  28.554   1.432   0.410
63351W        W35677  25.712   0.370  12.343
63352W        W35678   8.800  31.409  12.564
63353W        W35679  19.745  16.665   1.828
63354W        W35680  23.578   7.906   2.276
63355W        W35681  44.276   2.872  14.792
63356W        W35682  27.103  20.665   0.467
63357W        W35683  33.600   5.314  13.799
63358W        W35684  44.813  14.736   4.210
63359W        W35685   6.917  33.379   2.821
63360W        W35686  26.466  17.108   0.335
63361W        W35687   5.763  29.031   4.749
63362W        W35688  17.150   6.242  12.045
63363W        W35689  14.228  25.675  11.966
63364W        W35690   2.417   1.883  12.370
63365W        W35691  37.833  24.080  13.814
63366W        W35692  39.553  35.557  14.919
63367W        W35693   5.258   4.880  12.909
63368W        W35694  25.110   7.174   2.409
63369W        W35695  42.289  16.099   3.824
63370W        W35696  29.472  14.330   0.281
63371W        W35697   3.882  40.360   0.387
63372W        W35698  40.882  11.671  14.865
63373W        W35699  41.311  39.838  12.067
63374W        W35700  15.177  41.506  12.374
63375W        W35701  39.511  10.362   3.679
63376W        W35702  26.514   5.841  14.486
63377W        W35703  24.584   0.362   0.253
63378W        W35704   4.888  26.033   3.308
63379W        W35705   6.871   2.334   2.799
63380W        W35706  17.148  29.006   0.802
63381W        W35707  33.079  15.714   0.475
63382W        W35708   7.279   2.255   4.252
63383W        W35709   8.344  15.797  11.491
63384W        W35710  29.142  34.949   3.326
63385W        W35711  14.306  25.620   1.377
63386W        W35712   2.945  26.459  12.887
63387W        W35713  41.939  15.581   2.328
63388W        W35714  39.516  18.761   3.728
63389W        W35715   8.364  14.108  14.308
63390W        W35716  15.168  23.535  12.529
63391W        W35717   1.921  23.150   4.773
63392W        W35718   7.174  42.829  10.067
63393W        W35719  25.974  15.590  10.971
63394W        W35720  18.731  12.781  13.500
63395W        W35721  10.184  15.233  10.906
63396W        W35722  24.646  12.610  10.597
63397W        W35723  18.645  37.892  12.867
63398W        W35724  40.949  13.781   4.804
63399W        W35725   5.410  31.969  14.950
63400W        W35726  22.731  19.279   1.347
63401W        W35727  18.193  33.946  10.619
63402W        W35728  36.360  30.081   2.376
63403W        W35729  19.192   3.752   1.746
63404W        W35730  42.991  33.505   3.287
63405W        W35731  30.129  11.324  14.478
63406W        W35732  38.519  22.671   1.756
63407W        W35733  31.909  38.922  13.381
63408W        W35734  36.565   0.364   0.357
63409W        W35735  23.051  41.910  11.491
63410W        W35736   0.444  21.668  13.018
63411W        W35737   8.243  23.007  14.760
63412W        W35738  38.006  12.156   3.179
63413W        W35739  41.950   6.724  13.909
63414W        W35740  21.555  37.886  14.307
63415W        W35741  32.933  40.008  12.051
63416W        W35742  10.845  19.194  14.460
63417W        W35743  39.426  12.138   0.370
63418W        W35744  44.368   8.769   0.833
63419W        W35745  41.351   2.263  11.581
63420W        W35746  40.856  32.592   2.902
63421W        W35747  11.712  16.588  10.959
63422W        W35748  17.305  30.023   2.295
63423W        W35749  24.224  12.141   1.410
63424W        W35750   0.423   9.728  10.422
63425W        W35751  34.428  22.009   0.913
63426W        W35752   1.808  32.032   4.139
63427W        W35753  31.000  22.606  13.023
63428W        W35754  44.366  14.677  12.953
63429W        W35755   5.741  25.534   3.859
63430W        W35756   8.344   5.690   3.201
63431W        W35757  25.482  32.437   2.714
63432W        W35758   5.809  27.048  14.889
63433W        W35759  43.796  44.924  12.088
63434W        W35760   6.271  26.581   4.297
63435W        W35761  34.426   0.857  12.572
63436W        W35762   4.836   6.201  13.369
63437W        W35763  44.973   8.729   1.405
63438W        W35764  32.087  26.060  14.332
63439W        W35765  21.628  38.531   3.848
63440W        W35766  34.866   4.387  11.088
63441W        W35767  16.629  43.496   0.340
63442W        W35768  38.927  30.050  13.966
63443W        W35769   6.843   5.286   0.808
63444W        W35770  32.484  38.979  13.356
63445W        W35771   6.867   4.367   2.189
63446W        W35772  27.992  13.610   4.639
63447W        W35773  22.717   1.956   4.272
63448W        W35774  22.176  27.572  13.930
63449W        W35775   1.361   8.777   4.685
63450W        W35776  26.675   3.347   0.304
63451W        W35777  41.379  34.010  12.917
63452W        W35778  29.976  18.082  14.313
63453W        W35779  29.935  29.643   4.658
63454W        W35780  33.012  26.543   3.747
63455W        W35781  42.948  34.999  14.320
63456W        W35782  44.837  12.751   4.273
63457W        W35783  26.157  30.454  10.553
63458W        W35784  30.658   3.819  13.453
63459W        W35785  38.990  34.897   4.169
63460W        W35786  14.241  26.089  11.939
63461W        W35787  40.515  39.461   4.217
63462W        W35788  41.025  26.003  12.441
63463W        W35789   8.173  13.186   1.257
63464W        W35790  22.203   5.199  13.515
63465W        W35791  26.540  18.697   1.450
63466W        W35792  10.700  37.885  11.032
63467W        W35793   8.310  27.461   0.291
63468W        W35794  22.584  32.632   4.251
63469W        W35795   3.729   0.962   0.881
63470W        W35796  43.464  34.898   0.433
63471W        W35797  12.215  36.009  11.599
63472W        W35798  12.224  15.611  13.798
63473W        W35799  43.470  39.037   4.779
63474W        W35800  18.639  14.204   2.321
63475W        W35801  33.379  37.359   4.763
63476W        W35802  12.323  44.807   3.343
63477W        W35803  44.362   4.842  12.870
63478W        W35804  26.595  26.061   3.656
63479W        W35805  39.993  37.359  12.415
63480W        W35806  34.080  26.118   2.289
63481W        W35807  42.993  19.546   3.303
63482W        W35808  42.360  39.849  13.392
63483W        W35809  19.542  36.964  11.434
63484W        W35810  39.502  40.334   2.732
63485W        W35811  43.963  22.060  12.419
63486W        W35812   4.233  29.121  11.521
63487W        W35813  36.847  29.174   1.916
63488W        W35814   7.379  24.554  13.370
63489W        W35815  18.652  15.212   2.282
63490W        W35816   8.375   2.431  11.468
63491W        W35817  38.958   1.946   0.382
63492W        W35818  23.631  35.377  12.412
63493W        W35819  12.748  13.668  12.082
63494W        W35820  26.465  39.427   2.699
63495W        W35821  17.781  33.035   0.450
63496W        W35822  12.654  40.977  11.069
63497W        W35823  24.982   1.259   1.444
63498W        W35824  23.710  43.504   3.818
63499W        W35825   5.784  30.149  13.515
63500W        W35826  32.054  18.209  14.894
63501W        W35827  29.550  28.982   1.305
63502W        W35828  40.949   3.427  12.577
63503W        W35829  32.997   2.749   3.650
63504W        W35830  40.318   8.840  14.424
63505W        W35831  38.990  14.281   4.153
63506W        W35832  33.904   0.747   2.316
63507W        W35833  42.907  35.386   3.805
63508W        W35834  13.635  22.216  10.448
63509W        W35835  37.404  10.216   2.203
63510W        W35836  42.456   7.716  13.948
63511W        W35837  19.131  19.131   0.376
63512W        W35838  16.212  11.147   3.337
63513W        W35839  10.726  40.880  14.384
63514W        W35840   6.209   9.691  13.868
63515W        W35841  10.696  40.908   3.330
63516W        W35842  24.723  23.037  13.840
63517W        W35843   4.398  16.783  11.568
63518W        W35844   5.300  33.622  14.791
63519W        W35845  31.949   2.458  11.486
63520W        W35846   6.688  38.021  12.556
63521W        W35847  38.544   2.798   3.689
63522W        W35848   7.711  22.545   4.254
63523W        W35849   3.898  25.685  11.995
63524W        W35850  38.527  37.853  12.971
63525W        W35851  37.518  10.252  10.545
63526W        W35852  35.038  18.602  13.389
63527W        W35853  36.420   5.891   0.881
63528W        W35854  37.406  38.016  12.560
63529W        W35855  40.053   0.824   0.912
63530W        W35856   5.865  31.425   2.807
63531W        W35857  19.736  37.855   4.721
63532W        W35858  12.357   1.450  11.926
63533W        W35859  26.543  39.499   2.260
63534W        W35860  13.696  18.667  12.009
63535W        W35861  12.142  18.723   2.682
63536W        W35862   3.886  34.035  11.578
63537W        W35863  32.533  13.672   1.769
63538W        W35864   2.726  39.053  13.848
63539W        W35865   6.709  29.463  10.893
63540W        W35866  24.679   1.431   0.253
63541W        W35867  41.534  43.828   0.887
63542W        W35868  18.726  12.694   1.787
63543W        W35869  29.473  28.499  13.050
63544W        W35870  44.959  29.019   3.775
63545W        W35871  44.298  15.279   4.800
63546W        W35872  33.882   8.688  10.971
63547W        W35873   6.207  13.627   2.185
63548W        W35874  10.668  26.018   1.452
63549W        W35875  29.512  27.522   9.569
63550W        W35876  28.094  19.659  11.114
63551W        W35877  28.040  20.702  13.054
63552W        W35878   4.348  11.373   5.605
63553W        W35879  24.182  38.361  12.916
63554W        W35880  17.261  23.583  10.900
63555W        W35881  41.434  14.652  10.533
63556W        W35882  43.515   2.465  10.436
63557W        W35883  37.834  38.397  11.414
63558W        W35884  22.593  43.459  14.813
63559W        W35885   8.755   8.830   0.287
63560W        W35886  16.288  14.619   4.230
63561W        W35887   6.830  15.256   0.762
63562W        W35888  44.892  32.515  13.057
63563W        W35889   1.448  27.559  12.957
63564W        W35890  43.303   3.780   4.742
63565W        W35891  27.593  31.152  14.834
63566W        W35892   2.859   1.928  11.431
63567W        W35893   5.233  23.503  11.463
63568W        W35894  40.397  20.078  11.011
63569W        W35895  22.234  40.845  14.923
63570W        W35896  42.986  10.155   3.172
63571W        W35897  43.854  23.534  12.917
63572W        W35898  16.766  43.981  12.393
63573W        W35899  20.706  41.360   0.292
63574W        W35900  40.870  15.762  12.385
63575W        W35901  32.625  42.795   3.213
63576W        W35902  39.551  10.748   9.954
63577W        W35903  38.472   4.894   0.942
63578W        W35904  33.031   0.278   0.338
63579W        W35905  35.980  42.415  14.977
63580W        W35906  38.386  43.300   0.363
63581W        W35907  29.583  43.919  13.057
63582W        W35908  35.527  11.796   4.224
63583W        W35909   0.980  23.548  12.998
63584W        W35910  35.489   2.285   4.716
63585W        W35911  28.951   5.829   2.725
63586W        W35912   9.187   6.202   1.783
63587W        W35913   0.382  23.037   0.256
63588W        W35914   7.691   0.861  10.110
63589W        W35915   0.858  13.599  14.856
63590W        W35916  27.142  34.569  14.979
63591W        W35917  24.063   7.370   4.239
63592W        W35918  34.028  30.121  11.104
63593W        W35919  16.180  18.575   2.340
63594W        W35920   8.891   3.349  12.504
63595W        W35921   6.736  10.762  13.321
63596W        W35922   2.721  33.011   4.733
63597W        W35923  34.065  11.175  11.590
63598W        W35924  14.130  14.832  10.543
63599W        W35925  18.716  17.185  14.416
63600W        W35926  14.806  11.679   0.846
63601W        W35927  17.774  22.122   1.314
63602W        W35928  26.182  15.330  12.470
63603W        W35929  17.208  16.709   4.204
63604W        W35930  31.608  35.506   3.265
63605W        W35931   7.252  12.651   1.811
63606W        W35932  38.505   5.231  11.555
63607W        W35933  12.766  13.219  14.029
63608W        W35934   3.336   5.839   1.794
63609W        W35935  26.525  22.059  11.415
63610W        W35936  26.680  31.002   1.252
63611W        W35937  39.061  31.436  14.496
63612W        W35938  40.469  18.217  13.314
63613W        W35939  37.389  24.720  10.888
63614W        W35940  11.229  35.562   3.646
63615W        W35941  31.476  12.615  11.020
63616W        W35942   3.940  21.574   5.761
63617W        W35943  39.528  36.565  10.979
63618W        W35944   4.304  23.034   2.305
63619W        W35945  15.738  28.612  11.908
63620W        W35946   9.370  32.454  12.389
63621W        W35947   8.337  38.465  10.556
63622W        W35948  11.858  38.545  13.429
63623W        W35949  44.443   5.322   4.670
63624W        W35950  28.464   9.885  13.421
63625W        W35951   5.698  39.547  12.413
63626W        W35952   2.267  32.450  11.441
63627W        W35953  39.393  37.436  11.502
63628W        W35954  40.337  43.479  12.092
63629W        W35955  14.206  32.960   2.690
63630W        W35956  13.315  10.800   3.268
63631W        W35957  20.051  32.037  12.917
63632W        W35958  15.735  24.489   4.696
63633W        W35959  25.057  19.589  14.020
63634W        W35960  17.599  23.718   1.916
63635W        W35961  27.008  44.379   1.217
63636W        W35962   9.159  10.360  12.837
63637W        W35963  12.777  35.362  13.868
63638W        W35964  40.802   2.858  10.940
63639W        W35965   7.676  22.203  11.025
63640W        W35966   4.265  39.545   2.290
63641W        W35967  36.354  30.472   0.964
63642W        W35968   5.743  28.667  13.380
63643W        W35969  24.206  18.287   4.814
63644W        W35970  24.065  23.604   2.400
63645W        W35971  24.572  27.672  11.948
63646W        W35972  18.618  39.906  14.443
63647W        W35973  14.147  41.523   3.767
63648W        W35974  25.485  20.273  13.423
63649W        W35975  16.297   5.780   1.740
63650W        W35976  25.070  28.512   0.455
63651W        W35977  28.995  23.545   3.699
63652W        W35978   8.194  18.268   0.279
63653W        W35979  11.719  42.354   9.938
63654W        W35980   7.820  22.511   2.206
63655W        W35981  40.962  44.848  10.408
63656W        W35982  44.925  44.976   2.770
63657W        W35983   1.860  10.871   2.245
63658W        W35984  30.939  39.050  14.480
63659W        W35985  14.718   5.365  12.484
63660W        W35986  17.196  17.191   4.256
63661W        W35987  41.305   0.309  12.527
63662W        W35988   2.468  34.977   1.721
63663W        W35989  29.509   3.387   4.246
63664W        W35990  31.147  41.311   1.762
63665W        W35991   7.682  20.047   2.772
63666W        W35992  27.467   1.828  10.911
63667W        W35993  19.148   8.757  14.291
63668W        W35994  21.532  31.536   0.798
63669W        W35995  34.413   3.264   1.931
63670W        W35996  29.579  15.617   0.910
63671W        W35997  36.022  22.603   2.719
63672W        W35998  41.820  41.008  12.447
63673W        W35999  39.006  40.937   0.368
63674W        W36000  23.018  26.504   1.929
63675W        W36001  42.417  44.286  13.977
63676W        W36002  20.126  23.081   0.953
63677W        W36003  18.135  15.147   4.737
63678W        W36004   6.371   0.762   2.339
63679W        W36005  16.710   6.331  14.969
63680W        W36006  13.674   2.420   3.150
63681W        W36007  15.319   8.205   4.317
63682W        W36008  10.384  30.031   4.816
63683W        W36009  38.053  42.890   2.727
63684W        W36010   5.910  20.216   3.719
63685W        W36011  41.949  13.774  10.462
63686W        W36012  11.684   3.888   1.249
63687W        W36013  35.548  23.087   3.832
63688W        W36014  39.925  20.529   4.664
63689W        W36015  14.717  20.239   3.851
63690W        W36016  30.591  21.582   0.800
63691W        W36017  26.991  38.412   3.337
63692W        W36018   2.961   4.833   3.663
63693W        W36019  27.498  44.812   3.345
63694W        W36020  20.091  43.774  10.420
63695W        W36021  12.742  29.457   0.408
63696W        W36022   2.332  34.557   3.696
63697W        W36023  38.925  29.621   1.833
63698W        W36024  34.531  37.976  12.452
63699W        W36025  43.476   3.382   2.736
63700W        W36026  20.248  39.405   0.882
63701W        W36027   7.731  14.738   3.711
63702W        W36028  35.874   0.385  11.979
63703W        W36029   3.263   1.815   3.748
63704W        W36030   7.327  25.209  12.411
63705W        W36031  32.487   6.208  11.858
63706W        W36032   6.908  26.982  14.834
63707W        W36033   7.326  38.366   1.824
63708W        W36034  23.998  30.140  11.987
63709W        W36035   4.873   0.331  10.940
63710W        W36036  35.868  42.981   0.483
63711W        W36037  21.226  20.638   2.227
63712W        W36038  30.153  31.038  14.458
63713W        W36039  26.972  28.932   0.862
63714W        W36040  23.010  44.808   4.244
63715W        W36041  24.524  16.736   0.956
63716W        W36042   3.369  34.023   0.746
63717W        W36043  38.501  37.453   4.210
63718W        W36044  11.834  23.729   4.343
63719W        W36045   5.241  43.798  10.546
63720W        W36046  32.632  20.165  14.964
63721W        W36047  42.012   4.855  13.048
63722W        W36048   0.437  32.536   3.257
63723W        W36049  41.883  21.228  13.018
63724W        W36050  40.997  12.735  11.931
63725W        W36051  40.806  11.667   3.653
63726W        W36052  42.863   3.259   3.826
63727W        W36053  41.891   6.409   4.635
63728W        W36054  22.149  26.044   1.803
63729W        W36055   8.214  13.310  14.451
63730W        W36056  34.586  10.233  14.759
63731W        W36057  26.110  30.512   2.202
63732W        W36058  39.834  15.311  11.563
63733W        W36059  29.988  19.732   4.609
63734W        W36060  14.714  37.514  11.889
63735W        W36061  40.881   9.240   3.867
63736W        W36062  24.226  14.227   4.200
63737W        W36063  11.216  31.402   2.230
63738W        W36064   1.369  24.593  11.594
63739W        W36065  35.944  21.516   2.784
63740W        W36066  25.604  38.024  13.976
63741W        W36067  13.337  10.658  13.867
63742W        W36068  32.933  37.422   5.201
63743W        W36069  41.852   3.791  11.421
63744W        W36070  42.971  39.903  13.901
63745W        W36071  24.192  40.053   1.217
63746W        W36072  27.624  12.266   0.357
63747W        W36073   2.406  22.635  12.075
63748W        W36074  12.740  31.938  14.006
63749W        W36075  37.478  40.452  11.021
63750W        W36076   6.216  28.074   2.696
63751W        W36077  29.502  23.631  10.445
63752W        W36078  38.465  18.642   2.814
63753W        W36079  15.742  33.129   4.601
63754W        W36080  21.667   6.772  10.609
63755W        W36081  22.630  37.503   1.275
63756W        W36082  41.849   5.289  12.467
63757W        W36083  12.652  35.974  11.880
63758W        W36084   2.914   6.717  11.864
63759W        W36085  12.117  44.987  11.102
63760W        W36086  38.476  15.627  13.511
63761W        W36087   3.788  10.836   1.258
63762W        W36088  16.681  35.091  12.343
63763W        W36089  32.103  36.897  14.319
63764W        W36090  34.929  13.826   4.250
63765W        W36091   2.373   3.913   4.309
63766W        W36092   6.394  27.010  12.966
63767W        W36093  10.695  35.590   0.772
63768W        W36094  13.213  15.589   1.375
63769W        W36095  37.953  35.997   5.131
63770W        W36096  28.978  17.771   3.866
63771W        W36097  44.959  44.951  12.082
63772W        W36098  20.126  41.422   2.782
63773W        W36099  23.202  42.920   0.242
63774W        W36100  31.992   4.257  11.004
63775W        W36101   1.834  25.201   1.344
63776W        W36102  36.988   5.382   4.771
63777W        W36103  22.086  20.702   1.902
63778W        W36104   0.392   1.814  12.371
63779W        W36105  37.338  43.887   3.343
63780W        W36106   9.650  27.972   1.735
63781W        W36107   8.894  23.536  14.467
63782W        W36108  32.536   5.786   4.602
63783W        W36109  33.400  33.492  10.051
63784W        W36110  23.646  32.570   1.271
63785W        W36111  13.635   6.202  13.352
63786W        W36112  32.912   9.876  12.907
63787W        W36113  34.558   0.303   3.771
63788W        W36114   1.404  21.610   2.859
63789W        W36115  14.669  24.631   4.215
63790W        W36116  21.738  13.130  13.810
63791W        W36117   1.375   6.332  14.512
63792W        W36118  30.445  25.015   3.787
63793W        W36119   3.299  26.186  10.643
63794W        W36120  28.157   8.393  14.874
63795W        W36121  13.621  24.088   3.192
63796W        W36122   1.481  11.256  11.046
63797W        W36123   4.800  33.120   2.880
63798W        W36124  42.358  14.297   0.799
63799W        W36125   9.293  43.001   2.848
63800W        W36126   3.745   0.979   0.428
63801W        W36127  14.190  22.058   2.884
63802W        W36128  19.764  15.794   4.291
63803W        W36129   9.770   8.388   1.240
63804W        W36130  21.249   5.421   4.625
63805W        W36131   2.834  10.330   3.353
63806W        W36132  36.452  11.743  13.355
63807W        W36133  34.089  43.271  11.128
63808W        W36134  44.909  13.695   0.394
63809W        W36135   5.922   6.377   4.678
63810W        W36136  16.605  33.010  13.431
63811W        W36137  10.205  22.744   4.266
63812W        W36138  11.225  36.026  12.426
63813W        W36139  11.740   0.963   3.715
63814W        W36140  37.372  30.977  11.997
63815W        W36141  14.589  35.098  14.767
63816W        W36142  35.409  24.113  13.026
63817W        W36143  12.271  33.037   3.312
63818W        W36144  32.453  17.275   3.292
63819W        W36145   6.862  28.586  13.334
63820W        W36146  30.911  38.413  12.512
63821W        W36147  26.590  37.566   3.806
63822W        W36148  37.525  34.459   3.349
63823W        W36149  33.105  32.449   3.359
63824W        W36150  32.957  39.852   1.259
63825W        W36151  24.985  30.614  13.354
63826W        W36152  42.954   0.355  12.386
63827W        W36153  31.910  44.432  12.349
63828W        W36154  39.869  18.615  14.291
63829W        W36155  11.290   4.940  13.423
63830W        W36156  37.972  39.368   0.953
63831W        W36157  31.967  18.156  10.911
63832W        W36158  22.661  42.842   4.175
63833W        W36159  34.557  31.118  11.442
63834W        W36160  18.264  16.743   4.189
63835W        W36161  35.974  43.440   2.207
63836W        W36162  15.768   3.808   4.153
63837W        W36163  35.861  12.686   5.216
63838W        W36164   3.410  39.399  13.029
63839W        W36165  39.435   6.689  14.473
63840W        W36166  39.557  15.727  14.922
63841W        W36167  41.941  17.070  12.472
63842W        W36168  31.054  33.506   1.722
63843W        W36169  28.050   9.795  14.473
63844W        W36170  28.644  37.963   0.479
63845W        W36171  35.589  43.348  13.937
63846W        W36172   7.171  15.595  11.070
63847W        W36173   6.316  22.673   1.720
63848W        W36174  26.169  38.541   3.808
63849W        W36175   3.350  36.357   3.172
63850W        W36176  34.026  27.502  12.436
63851W        W36177  36.414  17.061  10.918
63852W        W36178   0.925   4.761  14.914
63853W        W36179   4.943  23.053  13.846
63854W        W36180  17.577  25.072  14.497
63855W        W36181  39.035  38.907   9.980
63856W        W36182   8.298  23.106  12.009
63857W        W36183  28.120  11.806  11.612
63858W        W36184  33.030  44.348   4.265
63859W        W36185  43.395  38.983  13.416
63860W        W36186  14.806  30.581   1.696
63861W        W36187  37.394   2.924   3.698
63862W        W36188   6.734   4.295  11.947
63863W        W36189  26.473  19.678   1.386
63864W        W36190  25.164  15.213  11.530
63865W        W36191   5.814  25.491  11.921
63866W        W36192  31.567  18.078   3.263
63867W        W36193  18.194   9.251   4.262
63868W        W36194  36.984  32.053  11.381
63869W        W36195  22.056  28.096   2.265
63870W        W36196  15.299  18.706   3.708
63871W        W36197  31.126  20.052  10.567
63872W        W36198  10.674   7.885   3.834
63873W        W36199  32.588  29.655  10.529
63874W        W36200   6.857  43.883  12.370
63875W        W36201   3.920  25.675   3.237
63876W        W36202  33.930   3.270  13.436
63877W        W36203   8.664  12.828  14.793
63878W        W36204  21.521  44.985   2.754
63879W        W36205  43.893  21.156  10.594
63880W        W36206  15.105   1.735   3.154
63881W        W36207   3.943  38.038   3.175
63882W        W36208  29.967   4.934   4.129
63883W        W36209  38.868  26.085  13.896
63884W        W36210  11.181  12.762   2.358
63885W        W36211  42.431  35.480  12.920
63886W        W36212  30.603   4.934  12.010
63887W        W36213   3.320  33.980   0.281
63888W        W36214  40.969   8.385   0.835
63889W        W36215   5.925  16.206   4.672
63890W        W36216  35.889  19.080  13.489
63891W        W36217   8.687  36.512   4.180
63892W        W36218  10.347   6.345  14.498
63893W        W36219  32.395   5.812  14.869
63894W        W36220  38.453  24.683   4.290
63895W        W36221  41.337  12.664  10.543
63896W        W36222  11.738   3.327  10.551
63897W        W36223  38.921  26.634   3.810
63898W        W36224  20.704  17.303   3.852
63899W        W36225  37.483   3.437  12.402
63900W        W36226  22.061  21.668  12.540
63901W        W36227  22.210  25.015   4.656
63902W        W36228  41.414  11.777   0.917
63903W        W36229   0.771   3.856   1.764
63904W        W36230  36.077  28.963   0.731
63905W        W36231   2.804   7.708   3.305
63906W        W36232   4.718  17.297  13.022
63907W        W36233   9.875  33.539  14.025
63908W        W36234  40.459  30.423   4.343
63909W        W36235  17.100  39.822   4.283
63910W        W36236  28.537  14.705   3.191
63911W        W36237   9.864  15.697  11.090
63912W        W36238  38.435   3.456  13.432
63913W        W36239  22.519  19.619  14.849
63914W        W36240   9.689  14.332   2.391
63915W        W36241  11.825  16.296  12.081
63916W        W36242   0.893  14.291   3.176
63917W        W36243  41.930   9.823   2.809
63918W        W36244   7.317   6.281   1.785
63919W        W36245  32.485  43.892  13.501
63920W        W36246  12.147  13.113  10.567
63921W        W36247   5.354  44.943   2.277
63922W        W36248  16.152  15.196   3.206
63923W        W36249  35.982   5.318  14.761
63924W        W36250  40.356  37.863   1.762
63925W        W36251  23.092  40.421   5.679
63926W        W36252   3.343  44.305  13.008
63927W        W36253  20.662   0.416  14.942
63928W        W36254  44.846  21.046  13.833
63929W        W36255  31.477  16.073  11.392
63930W        W36256  18.136  32.495   0.411
63931W        W36257  22.203  36.372  13.906
63932W        W36258  18.109  36.972  13.504
63933W        W36259  11.816  44.947   1.304
63934W        W36260  16.701   0.889   3.720
63935W        W36261  23.699  33.951  10.930
63936W        W36262  39.985  20.575   3.280
63937W        W36263  44.297  15.652  13.969
63938W        W36264  18.050   2.438   3.807
63939W        W36265   8.363  33.076  14.019
63940W        W36266  33.625  25.983  13.421
63941W        W36267  22.550   2.874   3.785
63942W        W36268  32.011  31.583  14.763
63943W        W36269  20.717  26.658  11.371
63944W        W36270  21.633  37.962   2.382
63945W        W36271  36.442  33.419  11.923
63946W        W36272  24.642  41.443  12.433
63947W        W36273  31.521  19.765   3.851
63948W        W36274   2.813  44.761   2.871
63949W        W36275   2.733  16.119  13.011
63950W        W36276   8.176  37.964  14.023
63951W        W36277   1.355   3.770   1.315
63952W        W36278  23.148  36.928  13.532
63953W        W36279  26.052  23.221   2.304
63954W        W36280  44.756  19.605  11.556
63955W        W36281  33.394  41.515  12.832
63956W        W36282  32.951  31.536   1.819
63957W        W36283  12.240  26.495   4.723
63958W        W36284  10.158   7.860   5.143
63959W        W36285   7.781  40.450   3.341
63960W        W36286  28.092  39.356  11.414
63961W        W36287  39.425  25.615  12.452
63962W        W36288  29.108  23.657  10.611
63963W        W36289  12.852  13.192  11.613
63964W        W36290  22.668   8.163   1.441
63965W        W36291  38.434  44.487  10.405
63966W        W36292  25.510  26.091  10.409
63967W        W36293   7.338   8.286   4.135
63968W        W36294  22.681  18.691   4.178
63969W        W36295  10.277  29.582  13.442
63970W        W36296  36.419  33.580   0.311
63971W        W36297   8.888  14.208   4.300
63972W        W36298   2.271  32.939  13.315
63973W        W36299  25.974  16.654  12.456
63974W        W36300  42.840  10.821  10.975
63975W        W36301  32.632  15.750   4.206
63976W        W36302  34.040  33.561  14.310
63977W        W36303   4.758  10.692   0.794
63978W        W36304  43.915   6.907  10.641
63979W        W36305  24.155  33.609  12.527
63980W        W36306  25.016   0.836   4.135
63981W        W36307  33.584  12.166  12.528
63982W        W36308  39.434  17.291   1.284
63983W        W36309  26.564  30.445   4.730
63984W        W36310  31.008  13.105  12.478
63985W        W36311  32.893  16.185  14.875
63986W        W36312  27.665   9.339  12.024
63987W        W36313   0.485  31.419  11.887
63988W        W36314   9.226  27.463  10.964
63989W        W36315   9.328  34.878   0.446
63990W        W36316  43.331  22.013  12.573
63991W        W36317  43.309  28.527   4.801
63992W        W36318  23.235  23.539  14.845
63993W        W36319  39.049  19.631   1.371
63994W        W36320  30.630  33.887  10.952
63995W        W36321   8.685  42.988   4.824
63996W        W36322   4.407  10.684  10.977
63997W        W36323  25.555   6.754  12.886
63998W        W36324  10.713   2.448   2.760
63999W        W36325   3.358  29.607  11.059
64000W        W36326  13.773  44.406   1.306
64001W        W36327  44.327   7.667   1.810
64002W        W36328  29.459  41.885  11.086
64003W        W36329  36.080   8.264   2.771
64004W        W36330  40.993  33.565  13.381
64005W        W36331  20.136   1.742   1.735
64006W        W36332  24.505  43.009  12.895
64007W        W36333   5.327  14.158  11.562
64008W        W36334  39.034   0.269  13.430
64009W        W36335  25.630  22.673  10.076
64010W        W36336  10.640  36.014   1.793
64011W        W36337  30.470   5.214  12.414
64012W        W36338  11.198   1.430   4.350
64013W        W36339  35.502   6.264   2.404
64014W        W36340  39.340  23.009  13.480
64015W        W36341  35.860  12.260  11.932
64016W        W36342  44.792  17.687   3.177
64017W        W36343  38.956  41.832   4.605
64018W        W36344   8.297  40.474   3.297
64019W        W36345  16.668   9.735  12.014
64020W        W36346   0.466  16.308  11.069
64021W        W36347   4.737  24.686  13.860
64022W        W36348   6.908   1.875  11.505
64023W        W36349  20.602  32.511  12.527
64024W        W36350   3.884  31.504  11.998
64025W        W36351  41.844  42.780   5.087
64026W        W36352  18.236   7.350  11.576
64027W        W36353  37.413  35.999   1.774
64028W        W36354  42.945   7.858  14.276
64029W        W36355  26.457  16.168  11.091
64030W        W36356  24.990  23.203  11.442
64031W        W36357  39.554  12.335   3.225
64032W        W36358  23.152   4.208   1.317
64033W        W36359   0.772   9.345   3.799
64034W        W36360  19.141  32.403  13.475
64035W        W36361   3.253  40.846   0.362
64036W        W36362  26.657  11.180  13.972
64037W        W36363  32.005  17.143  10.623
64038W        W36364  41.448  33.550  13.363
64039W        W36365  32.126   0.474   2.377
64040W        W36366  10.167  11.278   1.935
64041W        W36367  26.043  25.701  13.534
64042W        W36368  44.865  42.963  11.049
64043W        W36369  28.624  30.036   4.169
64044W        W36370  19.709  21.122   1.739
64045W        W36371   5.430  12.781   1.839
64046W        W36372  29.966  12.188   3.364
64047W        W36373  35.872  21.622  11.375
64048W        W36374  37.834  23.212  12.078
64049W        W36375  34.954  21.549  11.932
64050W        W36376  24.660  40.807   1.250
64051W        W36377  12.615  35.461   1.872
64052W        W36378  12.184   8.357  11.506
64053W        W36379  17.624  44.760   2.819
64054W        W36380  21.171  22.698   2.723
64055W        W36381  15.815  20.034  10.407
64056W        W36382  41.819  33.982  11.604
64057W        W36383   7.321   0.972  14.345
64058W        W36384  21.252  44.286  14.303
64059W        W36385  28.031   6.270   0.382
64060W        W36386  32.486  21.567  12.358
64061W        W36387  28.625   2.757  13.362
64062W        W36388  39.489  38.455  14.778
64063W        W36389  27.961  36.887   1.845
64064W        W36390  11.364  24.229   0.893
64065W        W36391  28.961  10.216  11.480
64066W        W36392  14.307  11.641   1.890
64067W        W36393  35.026  37.553  13.054
64068W        W36394  21.516  11.162   4.249
64069W        W36395   6.883   4.793   1.835
64070W        W36396  35.923  42.827  14.399
64071W        W36397  33.557  42.936   2.191
64072W        W36398  36.554   3.381   2.786
64073W        W36399  33.449  35.366   1.831
64074W        W36400   1.746   6.883  10.520
64075W        W36401   4.212   9.187  12.095
64076W        W36402  39.490  16.162   0.272
64077W        W36403  26.004  18.166  10.508
64078W        W36404  24.127  28.117   4.691
64079W        W36405   1.385  42.978   2.897
64080W        W36406  34.008  20.149   3.279
64081W        W36407   6.688  35.075   4.697
64082W        W36408  12.295  15.293   2.237
64083W        W36409   9.833   3.315  13.803
64084W        W36410  16.806  14.117  11.389
64085W        W36411  37.012   7.206  13.395
64086W        W36412  27.626  18.651  11.894
64087W        W36413   0.488  37.442   3.805
64088W        W36414   7.324  23.068   0.318
64089W        W36415   4.359  38.437  11.564
64090W        W36416  14.685  14.184   2.195
64091W        W36417  10.655  34.398  11.872
64092W        W36418  14.216  35.487   1.340
64093W        W36419  36.437  15.753   2.380
64094W        W36420  38.529   5.300   1.407
64095W        W36421   2.240  30.067   0.788
64096W        W36422  25.197  30.605   3.764
64097W        W36423  12.235  35.854  13.858
64098W        W36424  40.422  32.439  12.996
64099W        W36425   0.382  42.490   2.780
64100W        W36426   0.965  33.555   5.163
64101W        W36427  22.740  29.662   2.306
64102W        W36428   6.376   8.382  13.362
64103W        W36429  19.733   1.285  13.466
64104W        W36430   7.700  32.491  13.878
64105W        W36431  15.256   8.207  11.914
64106W        W36432   3.302  19.267   2.723
64107W        W36433  27.018  13.696   2.692
64108W        W36434  31.088  10.288  11.897
64109W        W36435  29.644  24.542   4.798
64110W        W36436  36.898   0.384  14.501
64111W        W36437   1.732   9.777   2.402
64112W        W36438  37.357   4.733  11.448
64113W        W36439  15.733   9.788   0.801
64114W        W36440   0.925  43.019  13.339
64115W        W36441   2.753  21.032  11.990
64116W        W36442  40.375  13.142  13.855
64117W        W36443  15.242  24.569   1.791
64118W        W36444   5.756  32.077   2.790
64119W        W36445  19.595  16.295   4.257
64120W        W36446   2.753  18.140   3.631
64121W        W36447  38.043  36.089   4.781
64122W        W36448  21.218   0.808  10.552
64123W        W36449  23.037  26.177  12.989
64124W        W36450   4.751  15.096   0.462
64125W        W36451   3.954  31.059   4.714
64126W        W36452  20.140  39.933   1.215
64127W        W36453  34.933   9.341  11.598
64128W        W36454  15.307   9.843   2.758
64129W        W36455  12.123   7.770   3.271
64130W        W36456  23.562  13.242   0.890
64131W        W36457  24.654   3.280  14.942
64132W        W36458  20.246  33.490   1.910
64133W        W36459  27.598   1.332  13.954
64134W        W36460  36.384  23.131  11.072
64135W        W36461  25.544  44.939   4.310
64136W        W36462   8.344  40.354  12.420
64137W        W36463  12.693  17.786  11.521
64138W        W36464  28.085  28.008  12.960
64139W        W36465   2.402   8.374   2.790
64140W        W36466  43.927  25.542   3.159
64141W        W36467   7.890  38.927  13.329
64142W        W36468  44.445  32.981  14.827
64143W        W36469   7.230  23.605   2.240
64144W        W36470   2.302  20.167   0.449
64145W        W36471  10.804  22.552  11.126
64146W        W36472  18.556  23.167  11.107
64147W        W36473  22.122  14.171  10.530
64148W        W36474   5.784  42.930   1.294
64149W        W36475  43.893  37.338   1.394
64150W        W36476  38.377   7.898   0.333
64151W        W36477  23.618  22.694  10.909
64152W        W36478  19.608  19.068   0.814
64153W        W36479  16.152  10.287  14.492
64154W        W36480  39.889  20.060  13.397
64155W        W36481  16.234  10.811   3.222
64156W        W36482  14.719  35.915  12.576
64157W        W36483  37.033  36.474  11.441
64158W        W36484  18.649  28.047  12.980
64159W        W36485   1.790   2.917  14.899
64160W        W36486   4.238  22.158  14.854
64161W        W36487   6.882   5.298  13.449
64162W        W36488  10.181   7.210  12.975
64163W        W36489  10.806  39.351   4.774
64164W        W36490   6.201  38.000   0.301
64165W        W36491  21.531  25.141  10.582
64166W        W36492  38.358  26.167   3.816
64167W        W36493  12.288  39.976   3.320
64168W        W36494  40.032  39.932   3.655
64169W        W36495  36.435  32.997   1.777
64170W        W36496   4.382   6.901   1.714
64171W        W36497  32.553   8.297  13.822
64172W        W36498  17.103  19.114   4.726
64173W        W36499  18.285  41.427   3.298
64174W        W36500   1.252   4.224  13.434
64175W        W36501  12.281  33.883   5.721
64176W        W36502  19.115  29.510   4.813
64177W        W36503   9.760  21.158   0.407
64178W        W36504  13.698  42.869  12.829
64179W        W36505  30.500  43.432   4.264
64180W        W36506  18.071  39.032   2.684
64181W        W36507  21.234   9.332   4.115
64182W        W36508  40.925  40.972  13.346
64183W        W36509   1.895  33.388  12.461
64184W        W36510  18.210  35.950  14.997
64185W        W36511   1.337  17.774  14.427
64186W        W36512  30.646  23.551   3.218
64187W        W36513  18.281  31.909   2.345
64188W        W36514   4.291  11.683   5.268
64189W        W36515  29.144   6.214  14.849
64190W        W36516  17.656  25.077  14.997
64191W        W36517  39.321   2.463   0.414
64192W        W36518  20.141  22.610   4.169
64193W        W36519  38.516  30.944  14.502
64194W        W36520   3.344  23.124   2.774
64195W        W36521  36.477  33.939   3.346
64196W        W36522  44.382   4.370  11.522
64197W        W36523  12.723   6.352  12.856
64198W        W36524  18.743  35.522   2.199
64199W        W36525  42.393  17.622   1.347
64200W        W36526  27.174   2.857   4.709
64201W        W36527  20.684  26.506  10.579
64202W        W36528  42.787  13.153  14.030
64203W        W36529  31.530  42.441   4.796
64204W        W36530  19.642  37.995  10.981
64205W        W36531  18.178   0.971   3.850
64206W        W36532  12.767   9.661   2.685
64207W        W36533  27.581  22.010  12.046
64208W        W36534  13.152   7.864  14.954
64209W        W36535  10.750  29.484   1.789
64210W        W36536  30.980  33.439  14.973
64211W        W36537   6.202  19.581  10.480
64212W        W36538  22.058  12.288  12.440
64213W        W36539   9.288   3.732   4.668
64214W        W36540  11.631  29.442   1.850
64215W        W36541  34.602  10.854   1.768
64216W        W36542  39.888  36.020   2.263
64217W        W36543  31.548  34.466  11.472
64218W        W36544  42.803   1.848   2.849
64219W        W36545   3.426  13.717   2.276
64220W        W36546  36.476  26.531  10.494
64221W        W36547  39.961  33.387   1.262
64222W        W36548  15.169  22.046  10.946
64223W        W36549  40.974  35.969  11.079
64224W        W36550  31.429  27.624  13.529
64225W        W36551   9.195  28.084   0.302
64226W        W36552  15.288  14.615   1.292
64227W        W36553  35.499  18.758  14.500
64228W        W36554   8.166  35.411  14.867
64229W        W36555  29.997  13.326   3.250
64230W        W36556  29.544  10.311  12.930
64231W        W36557  43.291  13.312  13.445
64232W        W36558  27.136  22.040   0.278
64233W        W36559  22.586  44.453   2.893
64234W        W36560  24.653  27.068  11.871
64235W        W36561  16.687   0.472   3.258
64236W        W36562   7.311  20.184  13.311
64237W        W36563  26.030  10.747   2.676
64238W        W36564  33.986  37.003  14.896
64239W        W36565  10.337   9.651  14.783
64240W        W36566  12.753  17.700  10.592
64241W        W36567  38.368   7.307  10.639
64242W        W36568  39.525  28.036  14.806
64243W        W36569  30.995   2.402  13.534
64244W        W36570  17.217  30.111  11.047
64245W        W36571  11.801  27.119  13.497
64246W        W36572  13.270  30.129  13.421
64247W        W36573  24.685  25.689  12.536
64248W        W36574  38.530  41.955  12.921
64249W        W36575  15.815   2.859   2.371
64250W        W36576  31.519  35.367   1.843
64251W        W36577  20.113  35.434  14.793
64252W        W36578  43.276  40.034   3.253
64253W        W36579  32.038  25.051   2.882
64254W        W36580  38.494  40.465  12.030
64255W        W36581  34.517  20.261  14.319
64256W        W36582  29.027  31.132   4.326
64257W        W36583  13.639   1.967   3.793
64258W        W36584  11.295   4.817  10.450
64259W        W36585   1.899  24.537   0.323
64260W        W36586   3.725   9.764  13.495
64261W        W36587  13.166  43.288  11.583
64262W        W36588   2.779   7.376   1.848
64263W        W36589   3.953  12.342   3.201
64264W        W36590  29.664  43.800  10.987
64265W        W36591  17.229   3.810  12.873
64266W        W36592  41.875  11.217   3.322
64267W        W36593   0.982  30.497  12.945
64268W        W36594  20.093   2.922   2.897
64269W        W36595   1.886  25.629  14.814
64270W        W36596  24.095  15.171  12.936
64271W        W36597  33.980  40.009   2.393
64272W        W36598   9.795  41.884   0.281
64273W        W36599  29.452  16.745  10.462
64274W        W36600  12.128  33.975   2.238
64275W        W36601  42.937   9.714  10.129
64276W        W36602   5.870  28.953   0.319
64277W        W36603  34.063   2.435  11.491
64278W        W36604   8.820  36.423   4.703
64279W        W36605  27.550  42.407   4.635
64280W        W36606   6.243  40.972  12.982
64281W        W36607   5.705  23.610  13.432
64282W        W36608   4.298  27.002   3.305
64283W        W36609  40.487  18.616   2.201
64284W        W36610   3.758  19.171  11.393
64285W        W36611  24.178  29.512  13.364
64286W        W36612   8.796   3.940   3.199
64287W        W36613  42.801  23.560   9.970
64288W        W36614  44.759  43.820  14.828
64289W        W36615  21.245  38.570   2.383
64290W        W36616  15.790  26.071   2.674
64291W        W36617  27.514  16.719   3.846
64292W        W36618  10.689  32.914   0.788
64293W        W36619  29.640  23.709   2.387
64294W        W36620  27.034  27.028   0.337
64295W        W36621  40.519   1.870  11.954
64296W        W36622  23.995   8.882   4.738
64297W        W36623  11.264  15.740  13.484
64298W        W36624  18.669  20.029   1.780
64299W        W36625  17.156  31.617  10.952
64300W        W36626  19.257  44.478  14.293
64301W        W36627  10.633  43.405   1.876
64302W        W36628  31.959   7.266   2.825
64303W        W36629   0.893   9.877   2.872
64304W        W36630  23.063  44.966  14.782
64305W        W36631  40.306   2.250   2.853
64306W        W36632   3.835  38.325  11.003
64307W        W36633  22.214  11.735  11.030
64308W        W36634  26.692   1.431   2.721
64309W        W36635  15.139  32.559  13.061
64310W        W36636  13.125  15.698  12.882
64311W        W36637  17.725   3.849   3.671
64312W        W36638   3.291  11.253   4.637
64313W        W36639  38.019  17.209  13.400
64314W        W36640  17.680  10.152  13.055
64315W        W36641  21.219   2.745  14.762
64316W        W36642  44.879   8.842  14.919
64317W        W36643   8.176  16.712   1.818
64318W        W36644  13.347  20.059  12.953
64319W        W36645  16.632  14.221  11.023
64320W        W36646  34.910  31.555   4.624
64321W        W36647  10.221  42.964   4.228
64322W        W36648   7.373  36.402  13.378
64323W        W36649  21.219   2.250   1.386
64324W        W36650   6.792   5.403  12.576
64325W        W36651  35.369  19.165  10.991
64326W        W36652  40.909   7.332  12.855
64327W        W36653  26.184  38.365   1.794
64328W        W36654   5.277  10.651  13.404
64329W        W36655  35.976  28.177  11.564
64330W        W36656  22.697  15.819  14.421
64331W        W36657   6.287  34.477  11.479
64332W        W36658  28.145  19.150   2.678
64333W        W36659  27.600  19.591   4.345
64334W        W36660  10.871  42.482  13.936
64335W        W36661   9.294   2.768   1.809
64336W        W36662   9.835  17.085  13.797
64337W        W36663  40.398   4.819  11.023
64338W        W36664   8.169   1.467  14.901
64339W        W36665  32.489  19.192  14.942
64340W        W36666   7.211  17.784  10.507
64341W        W36667  28.452  30.478   3.161
64342W        W36668   0.836   2.469   0.966
64343W        W36669  16.123  20.230  14.909
64344W        W36670  36.968  31.021  12.913
64345W        W36671  17.628  40.048   1.739
64346W        W36672   4.259   2.724   1.272
64347W        W36673  29.669  11.650  11.967
64348W        W36674   0.369  14.264   2.826
64349W        W36675   9.249  24.168  13.041
64350W        W36676  41.504   4.222   2.779
64351W        W36677  30.499  34.575   1.825
64352W        W36678  35.080   4.402   0.791
64353W        W36679  11.220  21.566   4.340
64354W        W36680  41.878  38.849  12.418
64355W        W36681  24.974   4.744  13.912
64356W        W36682   0.880  40.516  12.933
64357W        W36683  31.566  33.077  10.573
64358W        W36684  43.955  14.276  12.040
64359W        W36685  27.023  22.557  10.456
64360W        W36686  31.897  35.014   1.772
64361W        W36687  41.497  13.659   1.416
64362W        W36688  16.669  31.052  10.467
64363W        W36689  28.929  29.593   3.725
64364W        W36690   2.864  32.438  11.566
64365W        W36691   2.731  13.657  14.311
64366W        W36692  42.485   2.903  10.629
64367W        W36693   1.361  39.909   0.940
64368W        W36694  24.525  29.670  14.769
64369W        W36695   3.220  23.605   5.768
64370W        W36696  31.111  23.645   5.303
64371W        W36697  14.286  30.551  12.543
64372W        W36698  23.029  39.457  12.350
64373W        W36699  40.914  33.078  10.520
64374W        W36700  13.843  17.073  12.914
64375W        W36701  30.542  31.506   2.187
64376W        W36702  37.939  43.910  10.964
64377W        W36703  12.827  34.078   9.601
64378W        W36704  19.575  11.747  14.292
64379W        W36705  33.525  10.787   3.264
64380W        W36706  16.670  37.989   4.769
64381W        W36707   0.958  23.113  10.031
64382W        W36708  11.243  12.317  12.367
64383W        W36709  32.402  42.496  10.626
64384W        W36710  19.744  38.380  13.501
64385W        W36711  17.288  33.952   0.907
64386W        W36712  20.566  43.433  11.476
64387W        W36713  38.905  39.489   2.262
64388W        W36714  36.875  28.021  10.899
64389W        W36715  18.788  10.162   0.325
64390W        W36716  21.049  22.194   3.854
64391W        W36717  12.703  19.040   3.210
64392W        W36718   5.312  25.166  14.993
64393W        W36719  21.681  29.174  14.953
64394W        W36720  30.056  28.066  12.054
64395W        W36721  21.610  10.207   2.840
64396W        W36722  39.870   3.837  11.043
64397W        W36723  44.383   7.813   3.192
64398W        W36724  30.992  10.753  11.389
64399W        W36725  15.268  16.157   2.212
64400W        W36726  27.176  37.923   1.408
64401W        W36727   3.947  43.011   3.754
64402W        W36728  24.602  10.296  10.931
64403W        W36729  12.168  35.092   2.840
64404W        W36730  43.908  18.728  12.996
64405W        W36731   7.748   9.299  12.351
64406W        W36732  30.521   0.415  12.552
64407W        W36733  33.455  17.613   2.364
64408W        W36734  17.765  28.037  11.060
64409W        W36735  21.259  22.592  14.016
64410W        W36736   5.254  26.074   0.245
64411W        W36737  32.391   6.696  12.081
64412W        W36738  44.905  37.444  10.541
64413W        W36739  19.141  19.618  11.018
64414W        W36740  18.767  41.292   4.187
64415W        W36741   2.901  12.356  11.057
64416W        W36742  37.507  15.621  14.450
64417W        W36743  16.265   3.295  13.931
64418W        W36744  28.939  20.631   3.761
64419W        W36745  10.694  22.615  11.871
64420W        W36746   2.958  32.019   3.269
64421W        W36747   0.808  14.215  12.055
64422W        W36748  34.540   5.428  12.435
64423W        W36749  33.128  27.105   2.412
64424W        W36750   9.676   3.264   2.364
64425W        W36751  19.269  12.835  12.046
64426W        W36752  12.638   4.776  14.892
64427W        W36753  22.081  16.112  13.546
64428W        W36754  35.387   7.266   0.290
64429W        W36755  11.640  41.022  13.354
64430W        W36756  26.979   8.192   3.714
64431W        W36757   2.890  16.675   0.451
64432W        W36758  25.494  32.886  10.514
64433W        W36759   0.759  21.035  11.389
64434W        W36760   4.879   6.311   0.242
64435W        W36761  41.887   1.280   0.919
64436W        W36762  44.374  33.897   4.641
64437W        W36763  37.572  21.689   2.705
64438W        W36764  24.031  13.297   1.816
64439W        W36765  28.632  18.239   3.251
64440W        W36766   9.386   7.703  14.321
64441W        W36767  13.778  44.757  13.902
64442W        W36768  44.267   3.351   5.286
64443W        W36769  42.374  32.404   4.141
64444W        W36770  39.044   6.894  11.443
64445W        W36771   5.333  24.656   3.366
64446W        W36772  10.839  25.999   2.332
64447W        W36773  12.813  22.523   2.741
64448W        W36774  25.628   3.420   2.214
64449W        W36775  41.992  40.483  13.934
64450W        W36776  37.575  20.541  13.902
64451W        W36777  35.448  32.622   4.767
64452W        W36778   9.838  40.361  10.418
64453W        W36779   6.184  44.501   5.237
64454W        W36780   7.719  41.888   1.843
64455W        W36781  35.399  11.199  10.031
64456W        W36782  24.091  27.643   3.668
64457W        W36783  22.595  41.317  10.546
64458W        W36784  44.856  35.536  13.845
64459W        W36785  39.017  34.551   0.327
64460W        W36786   9.798  30.643   1.316
64461W        W36787  13.674  12.323   3.791
64462W        W36788  15.674  26.551  14.387
64463W        W36789  11.271  13.649  11.601
64464W        W36790  37.902  36.509   4.599
64465W        W36791   6.254   8.796   4.684
64466W        W36792  35.103  10.727  13.867
64467W        W36793  25.215  39.482   3.703
64468W        W36794  41.443  33.411  10.034
64469W        W36795  23.521  17.651  14.515
64470W        W36796  23.011  17.697  14.275
64471W        W36797  29.144   9.743  10.528
64472W        W36798   2.945  38.548  13.838
64473W        W36799  35.074  44.416   1.713
64474W        W36800   4.300  23.693   4.818
64475W        W36801  24.036  17.782  13.979
64476W        W36802   9.693  37.906  12.848
64477W        W36803  36.891  11.687  14.887
64478W        W36804  26.170  20.764   3.821
64479W        W36805  12.248  17.793  12.903
64480W        W36806  23.165  11.243   4.684
64481W        W36807  20.578  30.655   1.303
64482W        W36808  12.135  20.537  10.612
64483W        W36809  17.801   0.966  12.491
64484W        W36810  30.128  29.101  13.450
64485W        W36811  36.036   3.263  11.935
64486W        W36812  40.493   9.810  13.007
64487W        W36813  15.728  33.941  14.868
64488W        W36814   8.332   5.767   3.832
64489W        W36815  21.088  20.087   4.133
64490W        W36816  16.639  23.196  13.050
64491W        W36817  19.618   8.728   3.646
64492W        W36818   8.294  29.042   0.787
64493W        W36819  43.507  34.590  12.081
64494W        W36820  14.610   1.301   4.159
64495W        W36821  25.147  18.164  12.852
64496W        W36822  43.343   6.920  11.916
64497W        W36823  27.565   3.728   1.366
64498W        W36824  18.679  21.258   2.761
64499W        W36825  39.908  16.669  14.379
64500W        W36826  37.452  33.956   3.212
64501W        W36827  23.155  29.431   0.768
64502W        W36828  27.642   4.232   1.719
64503W        W36829  26.583  37.983  10.898
64504W        W36830   1.825   7.377  13.493
64505W        W36831  10.745   6.864  14.014
64506W        W36832  12.626  23.995   1.891
64507W        W36833  10.684   4.860   2.809
64508W        W36834  37.480  22.119  10.631
64509W        W36835  41.295  35.960  14.436
64510W        W36836  43.925  32.043   3.335
64511W        W36837  12.613  21.211   0.359
64512W        W36838  10.150  33.080  14.938
64513W        W36839  36.027  20.527  11.611
64514W        W36840   7.280  19.586  11.076
64515W        W36841  20.270  44.437  12.510
64516W        W36842  40.926  44.788   3.337
64517W        W36843  38.973  32.495   2.885
64518W        W36844  42.372  40.880   2.342
64519W        W36845  13.288   4.381   0.896
64520W        W36846   1.433   8.793  12.921
64521W        W36847  31.473  35.895   0.928
64522W        W36848  40.503  13.348   4.239
64523W        W36849   4.368  18.079   2.356
64524W        W36850   9.238  20.228   4.137
64525W        W36851  36.536  17.792   3.283
64526W        W36852  11.218  20.768  13.051
64527W        W36853  18.786  36.909  11.376
64528W        W36854  26.622  37.004   3.789
64529W        W36855  40.924  24.520   3.710
64530W        W36856   4.861  18.074   3.230
64531W        W36857   6.395  18.569   2.378
64532W        W36858  21.044   3.740  12.920
64533W        W36859  42.422   4.798  12.051
64534W        W36860  44.428   7.872   4.144
64535W        W36861   6.706  36.037  13.416
64536W        W36862   0.829  29.053   3.712
64537W        W36863  44.353  39.404  13.433
64538W        W36864  35.439  23.174  14.882
64539W        W36865  19.663  27.612  11.001
64540W        W36866   0.455   5.802   2.224
64541W        W36867  31.942   8.830   4.195
64542W        W36868  43.933  33.982   2.376
64543W        W36869   5.901  20.660  13.836
64544W        W36870  21.186  14.168   3.301
64545W        W36871   3.776  43.503  14.402
64546W        W36872  33.493  38.835  14.311
64547W        W36873   7.788   5.769   9.962
64548W        W36874  21.743  10.268  14.492
64549W        W36875  25.014  21.138  10.064
64550W        W36876  27.507   4.428  12.835
64551W        W36877  21.719   9.839  13.834
64552W        W36878  30.951  26.158   0.730
64553W        W36879  21.618   4.318   0.874
64554W        W36880  22.646  17.204   5.207
64555W        W36881  42.014   2.837   3.338
64556W        W36882  20.742  35.103   0.759
64557W        W36883  32.969  42.319  11.033
64558W        W36884  30.132  37.366  14.830
64559W        W36885  15.654   0.928   0.782
64560W        W36886  13.665  25.548   4.300
64561W        W36887   0.878  10.299   2.236
64562W        W36888  40.948  20.642   2.285
64563W        W36889  27.513  40.470   1.855
64564W        W36890   7.189  28.613   0.393
64565W        W36891   3.826   7.791  12.971
64566W        W36892  27.952   3.743   0.278
64567W        W36893  24.537  29.158  11.077
64568W        W36894   8.217  37.038   0.452
64569W        W36895  20.042  11.807  10.496
64570W        W36896   9.251  10.182   0.898
64571W        W36897  42.284  11.708  13.457
64572W        W36898  21.162  41.927  13.849
64573W        W36899  28.467  28.590  11.861
64574W        W36900  44.354  15.636   0.362
64575W        W36901  10.342  19.534  12.409
64576W        W36902   1.967  39.342   0.731
64577W        W36903  21.194  39.060  11.072
64578W        W36904  21.054  38.373  10.046
64579W        W36905   9.695  10.363   2.259
64580W        W36906  24.664  30.416   0.262
64581W        W36907  26.194   7.401  11.002
64582W        W36908  14.717  38.495   0.295
64583W        W36909   0.772  35.039   4.292
64584W        W36910  19.671  44.920   2.878
64585W        W36911   6.427  34.920   1.392
64586W        W36912  21.257  27.567   3.159
64587W        W36913  12.144  15.699  14.982
64588W        W36914  39.001  13.712   3.381
64589W        W36915  11.173  33.489  12.941
64590W        W36916  28.558   8.727   2.214
64591W        W36917  38.385  30.419  13.015
64592W        W36918   4.209  33.989   1.807
64593W        W36919  27.588  10.147   3.237
64594W        W36920  13.217  11.295   4.792
64595W        W36921   1.298  37.514   4.286
64596W        W36922  21.638  34.864   2.679
64597W        W36923  25.651  43.824   0.445
64598W        W36924  22.543  43.433  11.038
64599W        W36925  44.881  11.651   2.388
64600W        W36926  20.057  39.348   1.372
64601W        W36927  16.107  41.862   0.746
64602W        W36928   6.918  41.508   3.664
64603W        W36929  36.429  14.099  12.374
64604W        W36930  15.280  25.713  11.474
64605W        W36931  25.582  23.094  13.031
64606W        W36932   4.330   8.177   2.818
64607W        W36933  39.436  11.842   4.633
64608W        W36934  15.654  31.978   1.766
64609W        W36935  22.636  12.850   4.703
64610W        W36936  37.018   7.854  12.975
64611W        W36937  13.195  12.731  13.058
64612W        W36938  13.266   5.694   2.214
64613W        W36939  39.047  27.165   3.757
64614W        W36940   6.211  10.874   2.727
64615W        W36941  44.891  35.075  13.451
64616W        W36942   4.715  32.415  11.992
64617W        W36943  29.516  10.316  10.496
64618W        W36944  24.164  16.248  11.885
64619W        W36945  10.697  28.549  13.481
64620W        W36946   8.380   4.807   3.764
64621W        W36947  22.227  13.114  14.498
64622W        W36948   7.288  12.796   4.611
64623W        W36949  31.430  12.278  14.906
64624W        W36950  11.638   1.261  13.503
64625W        W36951  41.975  27.050   0.295
64626W        W36952   4.408  15.824  13.001
64627W        W36953  42.991  29.569  13.945
64628W        W36954  11.217  26.989  13.986
64629W        W36955  31.486  32.960  11.573
64630W        W36956  16.139  13.336   0.895
64631W        W36957  43.411   0.805  13.918
64632W        W36958   9.334  11.138   3.169
64633W        W36959  21.174  32.094  13.345
64634W        W36960  30.934  24.507  12.889
64635W        W36961   1.266  21.716  12.463
64636W        W36962   1.900  38.924  13.477
64637W        W36963   9.215   0.959  13.334
64638W        W36964   7.242  20.680  14.373
64639W        W36965  43.925   4.798   4.267
64640W        W36966  25.002  17.089  14.366
64641W        W36967  11.725  16.102   4.260
64642W        W36968  22.703  15.327   5.672
64643W        W36969  32.952   9.167  13.792
64644W        W36970  35.053  35.957   5.712
64645W        W36971  44.888  13.825  14.987
64646W        W36972  40.905  43.347  14.374
64647W        W36973  39.335  40.017  13.307
64648W        W36974   2.295   8.322  10.900
64649W        W36975  13.313  25.182   0.328
64650W        W36976  27.034  20.256   3.209
64651W        W36977  20.039  26.190   3.167
64652W        W36978  29.933  35.537  13.025
64653W        W36979  16.626  22.611  10.955
64654W        W36980  40.398   8.684  11.485
64655W        W36981  39.880  31.006   0.382
64656W        W36982  16.306   5.233  14.018
64657W        W36983   8.189   1.247   2.313
64658W        W36984  21.638  14.702  13.438
64659W        W36985  33.465   6.905   0.435
64660W        W36986  30.061   2.370   1.840
64661W        W36987  16.136  19.724   2.315
64662W        W36988   6.846   7.822  12.993
64663W        W36989  36.914  12.126   4.750
64664W        W36990  23.687   6.824   3.690
64665W        W36991  21.230  21.646   3.320
64666W        W36992  24.081  27.659   2.314
64667W        W36993   0.792  20.737   0.864
64668W        W36994   9.393  19.283  10.489
64669W        W36995  15.734  21.049   5.294
64670W        W36996   2.403  12.158   2.822
64671W        W36997   7.345  27.653   1.906
64672W        W36998  44.279  43.334  11.900
64673W        W36999   6.773  12.291   2.674
64674W        W37000  36.568   3.261  13.405
64675W        W37001  44.889   3.914   1.448
64676W        W37002  28.636   2.366   4.715
64677W        W37003  26.186  22.211  14.499
64678W        W37004  23.730  10.830  13.385
64679W        W37005  30.123  28.525  14.926
64680W        W37006  39.000  15.724  10.538
64681W        W37007  22.015  18.641   0.326
64682W        W37008  13.804  31.052   0.936
64683W        W37009  23.724  39.898   4.810
64684W        W37010   4.880  32.034  14.977
64685W        W37011   2.867  27.135   0.849
64686W        W37012  38.070  33.387  10.993
64687W        W37013   2.227  10.817   3.323
64688W        W37014  44.882   3.738   2.361
64689W        W37015   2.899   3.310   4.802
64690W        W37016   2.878   2.861  11.107
64691W        W37017   2.852  19.602  10.557
64692W        W37018  36.001  23.223  11.605
64693W        W37019   4.204  27.479  14.015
64694W        W37020  37.012  16.095   4.124
64695W        W37021  23.621  22.612   0.794
64696W        W37022  38.527  14.206  14.499
64697W        W37023  21.260  36.411   2.791
64698W        W37024  26.115   9.886   0.313
64699W        W37025  42.896   6.752   3.848
64700W        W37026   4.758  24.574   1.323
64701W        W37027   1.388  12.313   9.587
64702W        W37028  26.040  44.890   3.363
64703W        W37029  38.430  28.492  11.489
64704W        W37030  27.495  29.566   0.409
64705W        W37031   4.727  20.059  10.943
64706W        W37032  22.217  36.067   3.699
64707W        W37033  16.640  10.249  14.780
64708W        W37034  29.444   0.442  10.937
64709W        W37035  27.065  27.037   4.291
64710W        W37036  32.440  32.410  13.993
64711W        W37037  13.713  23.673  14.275
64712W        W37038  12.645   8.169  12.386
64713W        W37039  44.378  39.029  13.016
64714W        W37040   8.281  42.321   3.764
64715W        W37041   9.845   5.919   0.729
64716W        W37042  39.455  17.151  12.354
64717W        W37043  22.039  32.087  13.971
64718W        W37044   4.420  11.276   3.794
64719W        W37045  28.666  36.959   4.340
64720W        W37046  28.008  39.913   3.247
64721W        W37047  18.732  14.181   2.688
64722W        W37048  21.234  10.865   4.250
64723W        W37049  18.125  12.280  11.399
64724W        W37050   4.392  32.471   4.122
64725W        W37051  41.372   9.309   1.817
64726W        W37052  16.776   9.281  11.990
64727W        W37053  22.046  16.285  12.479
64728W        W37054   6.315  22.112   1.423
64729W        W37055  12.271  30.483   0.901
64730W        W37056  34.910  36.090  14.809
64731W        W37057   0.814   5.761   3.160
64732W        W37058   5.431  41.867   2.230
64733W        W37059  43.013  39.899  12.916
64734W        W37060  26.552  36.062   2.891
64735W        W37061  14.833  14.591   1.248
64736W        W37062   9.775  44.841  12.044
64737W        W37063   2.437  24.192   3.697
64738W        W37064  35.495  26.546   2.845
64739W        W37065   9.359  43.022  12.346
64740W        W37066   5.930  35.489   2.349
64741W        W37067   9.858  23.734  10.985
64742W        W37068  17.175   8.835  12.504
64743W        W37069  16.173  33.504   1.843
64744W        W37070  33.053  44.383  11.000
64745W        W37071  13.690  31.140   0.246
64746W        W37072   9.354  20.768  11.422
64747W        W37073  42.813  29.582   4.303
64748W        W37074  37.949   0.770   3.244
64749W        W37075  20.565   4.874  11.029
64750W        W37076   1.269  10.832  12.986
64751W        W37077  22.701   4.283   4.689
64752W        W37078  20.163   4.331  13.343
64753W        W37079  25.615  15.139  12.874
64754W        W37080  10.817  39.821   0.371
64755W        W37081   0.298  23.610   1.440
64756W        W37082   8.762   0.985  11.579
64757W        W37083  28.051  12.618   5.282
64758W        W37084  30.051   5.327   3.361
64759W        W37085   2.773   9.317   0.281
64760W        W37086   4.425  36.926   4.714
64761W        W37087  35.468  26.106  11.091
64762W        W37088  41.831  17.134  11.125
64763W        W37089   2.258  14.338  12.495
64764W        W37090   6.284  10.653  13.841
64765W        W37091   5.235  38.543   2.382
64766W        W37092  13.117   0.960   1.357
64767W        W37093   5.880  25.017   2.855
64768W        W37094  30.638  14.213   0.841
64769W        W37095  12.825  42.478   4.143
64770W        W37096   2.815  44.480  11.574
64771W        W37097  13.811  26.549   3.286
64772W        W37098  37.014   6.365  13.410
64773W        W37099  43.445   4.344   1.891
64774W        W37100  14.641  41.424  12.826
64775W        W37101  25.084  43.849  10.404
64776W        W37102   8.229  31.009   0.780
64777W        W37103  16.220  14.688   1.297
64778W        W37104  14.626  35.444   5.588
64779W        W37105   9.191  27.971   2.195
64780W        W37106  24.502  18.295   3.348
64781W        W37107  20.143  20.193  12.069
64782W        W37108   2.754  42.400   3.304
64783W        W37109   8.713   6.354   3.655
64784W        W37110  37.417  43.331   2.404
64785W        W37111  15.759   6.201  12.083
64786W        W37112  39.505  44.465  14.771
64787W        W37113   6.876  34.891  11.982
64788W        W37114  30.523  37.909   2.690
64789W        W37115   4.392   6.829   3.771
64790W        W37116  24.622  10.372  10.605
64791W        W37117   0.801  19.059  12.958
64792W        W37118  14.094  35.451  12.003
64793W        W37119  23.677  20.226   1.448
64794W        W37120  17.285   9.724   0.407
64795W        W37121  11.708  35.393  12.417
64796W        W37122  14.670  13.634   0.795
64797W        W37123  10.364  40.455   3.793
64798W        W37124  23.603  27.500   4.207
64799W        W37125  37.035   1.972   4.230
64800W        W37126  21.040  28.019   5.105
64801W        W37127  42.476  41.039  13.917
64802W        W37128  36.037  10.833  10.989
64803W        W37129  23.113  15.312   2.687
64804W        W37130  26.548  16.773  14.323
64805W        W37131  20.672  44.266   4.116
64806W        W37132  31.132  28.131  11.951
64807W        W37133  15.577  37.064   4.617
64808W        W37134   1.305  29.085   0.359
64809W        W37135  36.080  41.367  11.397
64810W        W37136  13.185   7.364   2.360
64811W        W37137  25.129  34.030  14.985
64812W        W37138  27.120  30.484  11.503
64813W        W37139  42.842   4.853   4.769
64814W        W37140  37.398   6.353  14.788
64815W        W37141  44.360  33.945  10.945
64816W        W37142  37.924   7.676  13.448
64817W        W37143  37.950  39.910   3.266
64818W        W37144  40.847  31.481   3.817
64819W        W37145  34.925  42.028   1.346
64820W        W37146  19.601   2.327   3.365
64821W        W37147  27.973   7.785   3.714
64822W        W37148  21.575   7.723  10.467
64823W        W37149   1.415   6.762   2.229
64824W        W37150  22.248  37.506  12.940
64825W        W37151  20.088  29.452   5.256
64826W        W37152  22.011  15.684   2.277
64827W        W37153  25.614  23.132  12.574
64828W        W37154   0.930  35.037  14.016
64829W        W37155  28.117  19.082  12.930
64830W        W37156   4.337   3.255   1.880
64831W        W37157  13.150  29.162  13.424
64832W        W37158  19.680  31.497  10.950
64833W        W37159  23.600  28.475   2.887
64834W        W37160  17.722  14.804  12.073
64835W        W37161  33.889  35.940   3.205
64836W        W37162  40.361  29.136   0.451
64837W        W37163  38.048  40.052  13.377
64838W        W37164   9.227  44.439   1.852
64839W        W37165   7.790  24.540  10.625
64840W        W37166  29.532  16.233  14.925
64841W        W37167  16.241  23.091  13.526
64842W        W37168  29.920   6.696  14.349
64843W        W37169   3.379  38.557   0.940
64844W        W37170  19.115  11.317  10.595
64845W        W37171  17.654  39.509   0.934
64846W        W37172  44.300  14.708   3.198
64847W        W37173  39.357  22.601   4.238
64848W        W37174  14.098  36.878  11.393
64849W        W37175  40.847   5.745   2.416
64850W        W37176   6.212  37.377   2.399
64851W        W37177  38.570  26.132   0.457
64852W        W37178  34.042   6.415   0.382
64853W        W37179   1.905  17.226   2.683
64854W        W37180  38.422  19.098   0.332
64855W        W37181   4.819  42.974   0.809
64856W        W37182  35.098  17.624  11.989
64857W        W37183  37.523  37.848   4.310
64858W        W37184  36.393  25.568   2.870
64859W        W37185  33.468  12.219  12.861
64860W        W37186  26.051   1.774  14.021
64861W        W37187  15.593  21.736  10.049
64862W        W37188   2.427  34.462  11.064
64863W        W37189   9.778  31.059  11.408
64864W        W37190   6.302   2.869  10.588
64865W        W37191  14.231   1.732   3.704
64866W        W37192   0.286   2.382  12.020
64867W        W37193  28.124  32.000   1.875
64868W        W37194   5.842   7.402   2.317
64869W        W37195  27.182  42.473   2.812
64870W        W37196  23.005  25.170  14.941
64871W        W37197   2.241  18.776   1.877
64872W        W37198   2.244  36.459  13.427
64873W        W37199  13.131  31.452  11.484
64874W        W37200  33.459  13.659  12.034
64875W        W37201   6.875  31.068  14.768
64876W        W37202  41.362  34.117  10.417
64877W        W37203  24.516   0.480  13.351
64878W        W37204  13.647   4.738  14.434
64879W        W37205  31.582  16.621  14.981
64880W        W37206   6.731  28.120   1.801
64881W        W37207  37.438  41.526   0.406
64882W        W37208  24.602  10.336   3.310
64883W        W37209  42.489  31.430   4.315
64884W        W37210  41.501  10.148   2.324
64885W        W37211  16.103  11.294  12.041
64886W        W37212  32.538  11.331  13.026
64887W        W37213  37.914  14.612  13.526
64888W        W37214   6.262  16.251   0.960
64889W        W37215  36.458  11.742   4.221
64890W        W37216  30.592  40.375  12.003
64891W        W37217  21.514  21.073  14.383
64892W        W37218  25.702  17.308   2.268
64893W        W37219  39.001  36.585  13.059
64894W        W37220   0.960  43.487  11.468
64895W        W37221  31.936   4.900   3.765
64896W        W37222  41.858  23.150  13.953
64897W        W37223  34.489  25.030  11.041
64898W        W37224  31.517   6.711   1.839
64899W        W37225  20.549  28.992   4.726
64900W        W37226  16.129  44.300  13.006
64901W        W37227   3.220  15.242  12.471
64902W        W37228   9.384  25.099   5.304
64903W        W37229  10.171  17.562   4.659
64904W        W37230  42.510  19.611  11.869
64905W        W37231  32.105  20.537   2.186
64906W        W37232   3.461  43.968   4.286
64907W        W37233  42.368  20.540   0.850
64908W        W37234  10.326   8.889  10.095
64909W        W37235  25.595   8.398  11.953
64910W        W37236  27.116  11.332   3.209
64911W        W37237  26.096  13.809   1.339
64912W        W37238   7.404  22.171   2.843
64913W        W37239  43.405  23.006  13.007
64914W        W37240  43.937  11.641   0.825
64915W        W37241  15.203  15.641  14.764
64916W        W37242  12.310  42.918  13.798
64917W        W37243  25.139   7.669   4.275
64918W        W37244  21.564  20.714  12.556
64919W        W37245  10.713  22.096  12.013
64920W        W37246  33.050  41.390  12.976
64921W        W37247  28.048  43.377   0.781
64922W        W37248  32.050  21.227   4.607
64923W        W37249  31.514  11.135   3.383
64924W        W37250  27.617  36.972  13.993
64925W        W37251  33.892  15.676  10.643
64926W        W37252   6.891  15.734   1.318
64927W        W37253  30.924  27.568  13.413
64928W        W37254  26.178  28.065  13.816
64929W        W37255  28.541  36.896  10.995
64930W        W37256  14.746  16.611   0.409
64931W        W37257   8.241  28.009  12.030
64932W        W37258   9.385  27.128   3.184
64933W        W37259  32.470  36.048   2.800
64934W        W37260  39.379  34.611  12.351
64935W        W37261   2.311  22.527   2.758
64936W        W37262  10.771  37.395   0.826
64937W        W37263  22.238  32.092  11.072
64938W        W37264  23.061  30.110   3.145
64939W        W37265  32.118  12.838  12.937
64940W        W37266   4.833   8.666   3.751
64941W        W37267  41.814  32.076  10.617
64942W        W37268   8.258  22.598  14.368
64943W        W37269  17.696  31.026  11.888
64944W        W37270   5.356   1.321  10.539
64945W        W37271  11.746   9.797  13.795
64946W        W37272  31.431   7.309   3.168
64947W        W37273  23.075  33.053   4.772
64948W        W37274   1.953  26.664   3.692
64949W        W37275  42.987  31.105  13.032
64950W        W37276  31.898  34.374  13.833
64951W        W37277  37.494  21.053  13.795
64952W        W37278  13.647  10.696   1.908
64953W        W37279  21.119   1.775   4.704
64954W        W37280  13.124  14.171  14.866
64955W        W37281  37.348  18.578  13.884
64956W        W37282   9.738  27.157  12.563
64957W        W37283  21.053  20.224   3.761
64958W        W37284  13.346  39.976   4.273
64959W        W37285  24.544  34.074   3.826
64960W        W37286  11.187  41.012   1.261
64961W        W37287  22.708  27.026  12.893
64962W        W37288  12.256   3.338  11.441
64963W        W37289  11.340  31.950   0.949
64964W        W37290  37.413  37.448  11.023
64965W        W37291  35.458  15.678  11.001
64966W        W37292   1.942   5.743   0.437
64967W        W37293   1.879   0.347  14.949
64968W        W37294  23.621  11.204   1.852
64969W        W37295  36.420  32.092  11.013
64970W        W37296   5.914  17.217   2.273
64971W        W37297   3.238  36.973  12.564
64972W        W37298  13.674  25.622   2.179
64973W        W37299  28.067  23.198  13.869
64974W        W37300  33.118  27.575  14.994
64975W        W37301  16.165  40.997  14.333
64976W        W37302   0.259  41.989   0.386
64977W        W37303   9.283  25.700  11.526
64978W        W37304  24.055  26.086   0.801
64979W        W37305  33.402  42.977  13.877
64980W        W37306  38.473  10.192   0.320
64981W        W37307  16.188  37.995  14.764
64982W        W37308  40.849  18.077  10.527
64983W        W37309  42.526  26.122  12.861
64984W        W37310  11.711  35.874   1.701
64985W        W37311   2.830   2.854   3.220
64986W        W37312  30.106  16.100  14.492
64987W        W37313  37.075  36.520   0.278
64988W        W37314   3.327   8.767  10.470
64989W        W37315   0.972  10.325  12.464
64990W        W37316  38.325  19.589   1.924
64991W        W37317  43.807  38.871   0.370
64992W        W37318  39.346  41.868  13.884
64993W        W37319  35.883   0.788  12.409
64994W        W37320  13.290  18.647   4.835
64995W        W37321  18.218  38.560  13.495
64996W        W37322  17.160  27.182   4.676
64997W        W37323  43.391  13.637   0.385
64998W        W37324  18.608  18.790   4.645
64999W        W37325   0.478  31.987   2.412
65000W        W37326  35.389  22.089   2.259
65001W        W37327   7.398  16.696   3.188
65002W        W37328  29.079  44.985  11.990
65003W        W37329   5.271   0.894   1.824
65004W        W37330   2.283   8.742   1.256
65005W        W37331  14.605   6.342   0.765
65006W        W37332  43.289  21.749  11.446
65007W        W37333  17.601  21.645   0.378
65008W        W37334  33.399  12.723   4.320
65009W        W37335  21.556  30.061   1.275
65010W        W37336   4.836   6.885   1.373
65011W        W37337  38.361  25.701  10.563
65012W        W37338  13.320  10.148   2.383
65013W        W37339  35.467  20.230  11.374
65014W        W37340  35.983   6.806  12.040
65015W        W37341  40.396  10.683  13.800
65016W        W37342  42.293  26.055   4.682
65017W        W37343  28.557  13.627  11.608
65018W        W37344   9.808  42.494  11.998
65019W        W37345  38.033   2.462  10.565
65020W        W37346  14.665   2.353   3.670
65021W        W37347  26.557  12.746   1.279
65022W        W37348  26.686  27.139   2.800
65023W        W37349   4.873   3.368   2.705
65024W        W37350  43.940   5.795   2.178
65025W        W37351  36.073   7.392  13.806
65026W        W37352  21.696  12.165  13.037
65027W        W37353  19.270  36.036   3.796
65028W        W37354  10.810  20.733  11.049
65029W        W37355  25.627  44.809  12.036
65030W        W37356   8.872  25.696  13.810
65031W        W37357  25.565  25.035  13.539
65032W        W37358  17.167  37.985  14.783
65033W        W37359  21.038  43.825  10.909
65034W        W37360  33.940  19.126   3.367
65035W        W37361  42.523  23.088   1.212
65036W        W37362  42.829  11.831  13.837
65037W        W37363  40.458  23.986   3.345
65038W        W37364  12.638  23.568  11.019
65039W        W37365  33.597  20.054  11.865
65040W        W37366  32.546  10.342   9.970
65041W        W37367  40.330  34.485   5.217
65042W        W37368  15.202   6.291  14.287
65043W        W37369  21.120  20.238   1.821
65044W        W37370  17.065  35.464   4.809
65045W        W37371  26.609   2.885  10.528
65046W        W37372  11.692  30.048   0.388
65047W        W37373  21.736  24.079  10.586
65048W        W37374  15.783  39.846   1.410
65049W        W37375  36.566   3.409   4.649
65050W        W37376   7.297  43.866  11.073
65051W        W37377   0.422   5.856   0.779
65052W        W37378  13.352  22.533   3.227
65053W        W37379   5.224  42.796   0.808
65054W        W37380  43.964  44.883  13.388
65055W        W37381  38.908   4.760   1.317
65056W        W37382  15.757  11.341  14.768
65057W        W37383  24.064  38.409   4.325
65058W        W37384  30.015  35.855   2.402
65059W        W37385  42.318   3.219  10.918
65060W        W37386  42.838  42.823   3.676
65061W        W37387  36.505  40.329   3.210
65062W        W37388  16.184  43.417  14.293
65063W        W37389  18.078   5.778   1.868
65064W        W37390  19.571  16.604  10.500
65065W        W37391  32.045  42.015  13.341
65066W        W37392  40.981  21.588   4.114
65067W        W37393  21.535  44.938  13.827
65068W        W37394  19.040  33.049   2.720
65069W        W37395  18.661   5.331  13.862
65070W        W37396   9.366   2.330   1.928
65071W        W37397   6.779  11.243   2.733
65072W        W37398  26.650  43.321  12.037
65073W        W37399  42.343  30.439   4.301
65074W        W37400  27.488  39.381  11.883
65075W        W37401  22.541  43.284  12.519
65076W        W37402  18.184  20.159   4.312
65077W        W37403   4.924   3.833   2.321
65078W        W37404  19.570   7.404  13.057
65079W        W37405  20.629  24.492   2.772
65080W        W37406  17.290   8.311  12.566
65081W        W37407   7.716  36.846  11.470
65082W        W37408   9.847  36.079  11.858
65083W        W37409  24.490   5.197  11.980
65084W        W37410  35.927  24.020   0.398
65085W        W37411  43.837  30.990  11.606
65086W        W37412  24.135  20.249   3.720
65087W        W37413  33.583  24.621   3.238
65088W        W37414   2.779  37.505  13.495
65089W        W37415  19.621  36.499  12.481
65090W        W37416  41.294   4.220   4.806
65091W        W37417   1.367  28.171  12.021
65092W        W37418  29.999  15.744  13.445
65093W        W37419   4.432   7.785  10.502
65094W        W37420  29.587  17.069   1.742
65095W        W37421   0.491  16.733   3.824
65096W        W37422  11.197   9.179  13.449
65097W        W37423   0.381  41.532   2.735
65098W        W37424  10.329  23.210   4.613
65099W        W37425   4.862  37.427  11.413
65100W        W37426  40.368   3.451   1.310
65101W        W37427  27.959  12.230  12.881
65102W        W37428  17.213  35.362  13.032
65103W        W37429  30.465  17.672  10.916
65104W        W37430  29.128  33.542   2.827
65105W        W37431  26.617  14.189   1.736
65106W        W37432  18.286  28.002  14.888
65107W        W37433  25.540  44.488   0.276
65108W        W37434   3.448  18.647  11.502
65109W        W37435  12.134  25.008   1.298
65110W        W37436  42.030   1.375   1.288
65111W        W37437  32.534  28.137  10.144
65112W        W37438  34.573  37.065   1.295
65113W        W37439  40.491  18.708   1.341
65114W        W37440   1.897  21.081  11.881
65115W        W37441  26.178  12.797   0.407
65116W        W37442   2.400  16.699   1.426
65117W        W37443   6.921  20.640  13.417
65118W        W37444  17.679  11.216   3.213
65119W        W37445  37.972  32.515   0.788
65120W        W37446  40.962  28.991  12.927
65121W        W37447  26.187  23.106   1.829
65122W        W37448  29.072  39.539   3.292
65123W        W37449  28.549  15.686   1.705
65124W        W37450   2.296  42.009  13.992
65125W        W37451  43.020  21.240   4.733
65126W        W37452   4.764  24.548   0.467
65127W        W37453  16.076  23.143  14.763
65128W        W37454  39.453   5.884  12.945
65129W        W37455   0.465  19.536  13.844
65130W        W37456   7.342  24.619  13.984
65131W        W37457  32.018  24.083   4.674
65132W        W37458  25.490  31.926   3.821
65133W        W37459  11.649  23.085   1.352
65134W        W37460   0.884  27.663   0.417
65135W        W37461  34.950  11.262  11.454
65136W        W37462  22.507  19.280  13.464
65137W        W37463  33.604  37.026  10.628
65138W        W37464  31.995  21.040   5.185
65139W        W37465  23.984  12.212  11.083
65140W        W37466  34.530  24.520  10.890
65141W        W37467   0.296  33.987  14.869
65142W        W37468   5.832   6.745  13.036
65143W        W37469   1.958  14.150   0.750
65144W        W37470  16.786   3.436   0.766
65145W        W37471  40.429   5.868   0.464
65146W        W37472  26.554   2.952   4.615
65147W        W37473   2.734  10.361  11.575
65148W        W37474  38.404  33.511   3.846
65149W        W37475   2.394  22.130   5.164
65150W        W37476   1.269  13.749  13.795
65151W        W37477  18.221  24.502  11.413
65152W        W37478  19.683  24.089  11.032
65153W        W37479   3.252  33.101  12.424
65154W        W37480  14.765   1.861  12.996
65155W        W37481  40.911  41.915  12.463
65156W        W37482  36.045  35.596   0.901
65157W        W37483  21.206  12.136  11.404
65158W        W37484  43.786  23.013  10.440
65159W        W37485  15.107  22.599  12.579
65160W        W37486  36.426  41.809  11.393
65161W        W37487   8.163  41.527  11.039
65162W        W37488  22.700   5.278   3.853
65163W        W37489  12.611  12.617   2.870
65164W        W37490   7.677   8.245  11.432
65165W        W37491   2.361  20.046  15.000
65166W        W37492  41.889  11.807  10.618
65167W        W37493   0.308  23.535   0.443
65168W        W37494  19.723  21.736  12.416
65169W        W37495  15.641   4.923  13.358
65170W        W37496  13.327  20.062   3.694
65171W        W37497   3.914  36.038  13.884
65172W        W37498  44.397  28.618  11.911
65173W        W37499  43.878  35.596   0.343
65174W        W37500  40.480  34.382  14.984
65175W        W37501  14.751  43.778  13.473
65176W        W37502  22.566  21.032   2.860
65177W        W37503  30.108  26.028  12.427
65178W        W37504  42.868  10.381  12.404
65179W        W37505  33.501  32.003   2.903
65180W        W37506  15.686  14.769   4.813
65181W        W37507  11.802   9.360  13.926
65182W        W37508   8.377  27.563  14.465
65183W        W37509   2.404  23.522  12.512
65184W        W37510  13.285  19.741   2.209
65185W        W37511  31.021  31.628  13.411
65186W        W37512  28.164  35.985  14.001
65187W        W37513  21.073  15.149   1.261
65188W        W37514  33.980  40.009   1.224
65189W        W37515  12.158   2.800  14.837
65190W        W37516  40.439  42.439   3.344
65191W        W37517  18.145  16.578  14.846
65192W        W37518   1.810  16.662   2.742
65193W        W37519  41.406  11.136   1.387
65194W        W37520  28.439  35.439   4.679
65195W        W37521   5.882  15.736   0.338
65196W        W37522  29.528  33.411   4.271
65197W        W37523  33.549  39.982   1.407
65198W        W37524   0.458   3.281  11.046
65199W        W37525   9.731   5.386   4.615
65200W        W37526  29.660  26.960   1.731
65201W        W37527  34.585   0.822   3.377
65202W        W37528  33.568  13.818  14.369
65203W        W37529   0.258  44.358  11.866
65204W        W37530  23.510   8.812  11.420
65205W        W37531  34.034  22.046   3.271
65206W        W37532  23.606  17.693  13.483
65207W        W37533  18.715  35.562  13.349
65208W        W37534  32.607  41.911   0.943
65209W        W37535  26.026  32.462   1.267
65210W        W37536  12.168   5.782   1.401
65211W        W37537  15.689   8.309   2.666
65212W        W37538  34.384  18.193   0.802
65213W        W37539   9.194  39.820   2.846
65214W        W37540  40.324  31.031  13.531
65215W        W37541  34.436  19.571  11.385
65216W        W37542  38.416  18.693  10.435
65217W        W37543  40.962  38.900  11.611
65218W        W37544  43.512  17.205  13.988
65219W        W37545   0.288  17.793   1.727
65220W        W37546  20.124  34.593   2.419
65221W        W37547  31.560   8.814  10.444
65222W        W37548  18.749   2.323  13.521
65223W        W37549  34.982   3.878   2.262
65224W        W37550   2.444   4.941   5.691
65225W        W37551   6.357  17.624  14.032
65226W        W37552  14.210  18.189  11.958
65227W        W37553  14.798  23.577   1.783
65228W        W37554   5.235   6.388   1.237
65229W        W37555  18.098  29.666   0.921
65230W        W37556  20.271  43.807   2.232
65231W        W37557  14.120  20.618  11.547
65232W        W37558  40.049  42.020  12.066
65233W        W37559   0.904  22.226  12.466
65234W        W37560  41.535  30.131  12.075
65235W        W37561  11.743  31.506  11.014
65236W        W37562  20.606  27.670  10.519
65237W        W37563  26.464   0.972  11.898
65238W        W37564  18.079   3.346   0.793
65239W        W37565   1.338   8.829  14.925
65240W        W37566  23.020  25.218   3.304
65241W        W37567  23.629  28.472   1.799
65242W        W37568  16.703  24.032   4.349
65243W        W37569  28.618  27.597  10.556
65244W        W37570  25.042  23.193   3.711
65245W        W37571  43.305  22.596   1.445
65246W        W37572   2.893  31.500  12.042
65247W        W37573  31.947  12.195  10.930
65248W        W37574  17.802  11.190   1.873
65249W        W37575   1.923   9.367  12.086
65250W        W37576  22.115  35.864  10.455
65251W        W37577  44.857  34.007  12.945
65252W        W37578   6.870   2.848   0.457
65253W        W37579  31.088   3.742  13.871
65254W        W37580  26.628   2.452  12.500
65255W        W37581   5.835  33.999  11.442
65256W        W37582  41.820  12.266  14.002
65257W        W37583   0.315  13.348  13.910
65258W        W37584  17.722  11.244  13.949
65259W        W37585   4.773  14.645   2.321
65260W        W37586   8.692  36.902  13.955
65261W        W37587  39.456   0.770  13.015
65262W        W37588   2.265  11.669  10.938
65263W        W37589   0.432  13.639   2.852
65264W        W37590  11.803   8.703  10.628
65265W        W37591  24.994  34.067   0.858
65266W        W37592  24.564  18.766   3.748
65267W        W37593  33.577  31.629   0.870
65268W        W37594  32.033  43.924  12.456
65269W        W37595  39.452  21.545   2.280
65270W        W37596  14.308  42.777  14.856
65271W        W37597  41.836   2.434  10.459
65272W        W37598  36.440  36.472  12.491
65273W        W37599   1.742  11.204   1.215
65274W        W37600  32.982   7.329   1.736
65275W        W37601  13.845  13.826  13.453
65276W        W37602  23.204  25.125   3.844
65277W        W37603  13.841  33.050  11.492
65278W        W37604  39.842  32.536  13.396
65279W        W37605  43.407   9.646   2.858
65280W        W37606  38.544  15.319   3.717
65281W        W37607   7.270  33.474   0.289
65282W        W37608  20.235  32.422   2.219
65283W        W37609  31.498  27.629  11.861
65284W        W37610  35.433  15.226  12.875
65285W        W37611   9.299  33.024   3.682
65286W        W37612   7.775  28.168  14.293
65287W        W37613   7.861  44.802   4.216
65288W        W37614  15.177  31.524   2.249
65289W        W37615  12.760  44.804   4.725
65290W        W37616  40.854  15.629  12.005
65291W        W37617  10.154  37.462   2.851
65292W        W37618  17.557  12.299  10.549
65293W        W37619  34.004  30.559  10.527
65294W        W37620  34.428  43.972  10.635
65295W        W37621  22.052   1.380   2.824
65296W        W37622  34.936  24.197  12.972
65297W        W37623  21.243  39.910   4.755
65298W        W37624   8.696   7.903   0.891
65299W        W37625  33.600  28.056  10.509
65300W        W37626   1.791  32.056   0.394
65301W        W37627  15.686  25.189   3.156
65302W        W37628  38.894  19.553   1.737
65303W        W37629   1.907  37.050  13.334
65304W        W37630   7.414  23.671   1.923
65305W        W37631  43.951  29.530  13.518
65306W        W37632   5.706  11.814   3.241
65307W        W37633  11.344  19.734   1.753
65308W        W37634   1.275  35.475  11.129
65309W        W37635  17.262  32.924   4.769
65310W        W37636  41.400  25.504   0.474
65311W        W37637  14.291  34.992   0.412
65312W        W37638  40.884  22.541  11.488
65313W        W37639   0.285  19.701   1.820
65314W        W37640  26.530  39.552   4.773
65315W        W37641   6.191  21.083   2.330
65316W        W37642  27.512  38.834  10.523
65317W        W37643  41.322  38.460   3.847
65318W        W37644  10.142  42.394   0.912
65319W        W37645  34.563  14.109   2.699
65320W        W37646   3.340  12.144  12.387
65321W        W37647  13.793  23.722  11.408
65322W        W37648   4.376   1.471  14.022
65323W        W37649  40.039   8.161   1.374
65324W        W37650  43.928  29.942  12.862
65325W        W37651  44.767  33.915   1.925
65326W        W37652   3.224   6.846   1.779
65327W        W37653  43.516  27.062   1.745
65328W        W37654   9.724  15.147   0.740
65329W        W37655  37.568  33.890  14.769
65330W        W37656  33.078  15.135   3.681
65331W        W37657  25.568  12.252   2.260
65332W        W37658  11.366  18.101   3.264
65333W        W37659   1.251  41.017  10.953
65334W        W37660  21.745  31.469  12.966
65335W        W37661  44.267  32.501   3.699
65336W        W37662   3.339  32.106  10.616
65337W        W37663  11.833  35.991  11.070
65338W        W37664  38.016  11.308  12.371
65339W        W37665  17.593   4.316  14.397
65340W        W37666   1.797  17.751  14.826
65341W        W37667  32.629  10.253   2.330
65342W        W37668  33.488  30.510   3.339
65343W        W37669  44.503   4.704   0.827
65344W        W37670  35.466  35.503   5.269
65345W        W37671  13.257   8.715   3.315
65346W        W37672   6.278   4.894  12.857
65347W        W37673  18.160  32.035   3.712
65348W        W37674  38.825   2.794  13.320
65349W        W37675   5.714  30.655   0.753
65350W        W37676   2.842  17.105  10.983
65351W        W37677  24.142  33.897  12.517
65352W        W37678  27.976  12.633  10.437
65353W        W37679  36.486  15.215  13.837
65354W        W37680  27.036  35.991   0.964
65355W        W37681   6.187  43.885  11.485
65356W        W37682   1.451  16.080   4.307
65357W        W37683  34.450  37.853   2.207
65358W        W37684  44.973   0.452   0.905
65359W        W37685  28.186  11.683   0.804
65360W        W37686   0.746  43.332  14.365
65361W        W37687  27.561  12.784  11.582
65362W        W37688  27.991  23.606  13.415
65363W        W37689  34.917  28.115   0.255
65364W        W37690  42.383  10.848  13.885
65365W        W37691  39.042  17.725  14.469
65366W        W37692  28.025  22.610  11.535
65367W        W37693  33.036  31.073   4.248
65368W        W37694  20.563  28.666  11.905
65369W        W37695  35.597  11.784   1.346
65370W        W37696  33.419  15.273   0.899
65371W        W37697   1.858   6.269   3.211
65372W        W37698  24.643  34.118  14.797
65373W        W37699  42.963  28.540   4.302
65374W        W37700  18.133  29.588   4.815
65375W        W37701  33.118  14.277   3.209
65376W        W37702   4.302  42.808  12.477
65377W        W37703   5.388  17.108   3.826
65378W        W37704  34.871  37.836  11.373
65379W        W37705  29.947  42.951   1.914
65380W        W37706   3.845  21.181  13.343
65381W        W37707   2.318  12.291  12.539
65382W        W37708  43.852   1.465   4.692
65383W        W37709  11.756   5.745  11.924
65384W        W37710   6.701  39.379   2.403
65385W        W37711  30.430   3.913   5.266
65386W        W37712  13.674   7.780   2.371
65387W        W37713   7.866   5.794  13.794
65388W        W37714   4.923  40.346   5.283
65389W        W37715  40.331  40.035   0.345
65390W        W37716   3.377  20.727   0.770
65391W        W37717  26.162  43.440  12.902
65392W        W37718  26.132   6.920   4.727
65393W        W37719  10.147  44.968  13.964
65394W        W37720  20.539   3.890  11.540
65395W        W37721   4.942   9.321   3.675
65396W        W37722  21.025  25.135  14.866
65397W        W37723  31.512  12.642   1.766
65398W        W37724  19.163  21.091   0.295
65399W        W37725  33.884  31.536  11.025
65400W        W37726   6.723  14.733   1.279
65401W        W37727  28.071  37.357  12.350
65402W        W37728  12.232  11.741  10.469
65403W        W37729   9.386   5.896   0.297
65404W        W37730  39.009  26.692  13.547
65405W        W37731  15.707  29.442   2.769
65406W        W37732  43.856  18.764  11.036
65407W        W37733  27.671  38.835  12.839
65408W        W37734  33.584  37.520  10.024
65409W        W37735  19.224   4.740   1.857
65410W        W37736  34.073  11.129  10.919
65411W        W37737  11.830  41.934   0.370
65412W        W37738  40.485   0.816   3.770
65413W        W37739   4.271  38.560   3.809
65414W        W37740  19.735  43.994   3.353
65415W        W37741  35.101  17.802  12.988
65416W        W37742  13.772  32.572   2.419
65417W        W37743  15.100  17.141  12.075
65418W        W37744  38.521   5.395  12.401
65419W        W37745   2.922  37.479  11.490
65420W        W37746   4.243  23.175  14.480
65421W        W37747   7.228  17.674   0.878
65422W        W37748  40.377   2.393   0.860
65423W        W37749  44.781  23.044   3.847
65424W        W37750  42.874  21.098   4.346
65425W        W37751  30.059  40.001  10.537
65426W        W37752  14.101  21.094   0.872
65427W        W37753  23.554  38.363   2.287
65428W        W37754   6.870   4.292  12.998
65429W        W37755  41.017  16.305   4.762
65430W        W37756  26.207  23.085   4.634
65431W        W37757   3.337  35.425   1.737
65432W        W37758  34.962   8.244   1.344
65433W        W37759   4.890  18.620  10.971
65434W        W37760  33.436   3.825  12.471
65435W        W37761  21.554  38.008   3.175
65436W        W37762  40.991  14.620   3.827
65437W        W37763  29.062  15.148  10.549
65438W        W37764  36.367  32.036  13.461
65439W        W37765  31.935  20.707  12.426
65440W        W37766   2.737  31.601   0.930
65441W        W37767   6.184  22.130   3.808
65442W        W37768  31.978  23.647   1.421
65443W        W37769  26.523  18.186  14.492
65444W        W37770  20.638  30.921  11.373
65445W        W37771   5.405  38.562   3.295
65446W        W37772  40.832  40.982   4.270
65447W        W37773  12.220  42.987  12.936
65448W        W37774  37.058  13.659   4.247
65449W        W37775   7.739  41.803   3.691
65450W        W37776  44.428  30.419   2.239
65451W        W37777  17.794  32.974  10.506
65452W        W37778  41.359   3.435   3.822
65453W        W37779  33.121  15.217   2.393
65454W        W37780  28.514   8.400   3.810
65455W        W37781  32.545  41.824   1.808
65456W        W37782  38.047  35.375   3.288
65457W        W37783  11.686  20.621  12.462
65458W        W37784  26.481  35.460   0.870
65459W        W37785  19.250   4.391  10.481
65460W        W37786   7.282  36.064   3.737
65461W        W37787  30.933  35.878  11.528
65462W        W37788   7.764  20.064  10.480
65463W        W37789  36.555  15.712  13.823
65464W        W37790  43.402  39.976   4.802
65465W        W37791  17.219  28.105  13.884
65466W        W37792  26.571  43.451   0.407
65467W        W37793  10.648  33.502  12.575
65468W        W37794  19.152   1.740  12.564
65469W        W37795  27.117  20.648  13.319
65470W        W37796  10.337  16.777   4.219
65471W        W37797  35.939  38.836   2.414
65472W        W37798  39.502  26.049  11.949
65473W        W37799   1.330  13.695  12.412
65474W        W37800  24.671  26.020  12.827
65475W        W37801  34.563  32.081  11.125
65476W        W37802  33.908   8.717   0.872
65477W        W37803  41.969  22.643  12.885
65478W        W37804   6.348  19.136   1.758
65479W        W37805  41.894  15.608  13.952
65480W        W37806   7.762  26.972  13.515
65481W        W37807  32.125  37.401   3.385
65482W        W37808  39.818   9.230   2.254
65483W        W37809  34.369  12.338   2.744
65484W        W37810   0.745  24.192   0.806
65485W        W37811  23.174  25.979   1.740
65486W        W37812  13.727   5.727   3.656
65487W        W37813   0.416  36.465  13.822
65488W        W37814   1.748  24.508   3.690
65489W        W37815  38.869  21.208  14.489
65490W        W37816  23.526  19.085   2.693
65491W        W37817  36.096  15.680   2.879
65492W        W37818  37.964  37.515   2.710
65493W        W37819  34.558  19.565  11.902
65494W        W37820   9.710  25.622  12.016
65495W        W37821   0.404   2.365  12.892
65496W        W37822   5.212  19.575   4.354
65497W        W37823   7.345  40.871   0.788
65498W        W37824  39.422  44.925   0.279
65499W        W37825  32.634  19.720  12.974
65500W        W37826  38.870   7.801  10.613
65501W        W37827  32.577   4.825   0.967
65502W        W37828  28.931  18.677   4.320
65503W        W37829   6.341  23.545  10.073
65504W        W37830  25.473  28.956   0.411
65505W        W37831  34.864  15.638   4.604
65506W        W37832  29.070  34.546  13.415
65507W        W37833  18.101  26.634  13.438
65508W        W37834  43.837  34.478  10.407
65509W        W37835  32.488  30.022  10.922
65510W        W37836  30.008  25.141   0.837
65511W        W37837  29.925  28.561   0.881
65512W        W37838  16.188  40.919   3.734
65513W        W37839  33.130  42.883  12.938
65514W        W37840  36.540   6.722  12.533
65515W        W37841  19.099  21.067  14.506
65516W        W37842  15.242  10.186   2.702
65517W        W37843  10.361  19.182  13.017
65518W        W37844   7.797  13.676  12.842
65519W        W37845  25.514  35.378   3.788
65520W        W37846   3.235  35.054  11.536
65521W        W37847  34.885  35.020  10.916
65522W        W37848  21.743  22.178   2.679
65523W        W37849  43.927  24.102   3.820
65524W        W37850  31.644  10.364   1.319
65525W        W37851   2.382  13.298   2.409
65526W        W37852   4.748  33.456   4.202
65527W        W37853  38.484   9.287   2.799
65528W        W37854  37.484  42.449   3.680
65529W        W37855  16.262   5.207  14.361
65530W        W37856  30.638  41.418   2.307
65531W        W37857   2.736  33.972   4.720
65532W        W37858  13.149  16.642   3.225
65533W        W37859  34.443  34.882  11.919
65534W        W37860  40.373  10.351  14.945
65535W        W37861  10.336   5.346   1.735
65536W        W37862  35.375  41.456   0.323
65537W        W37863   4.915   2.923  11.376
65538W        W37864   7.895  13.790  13.890
65539W        W37865  38.990  33.483  11.525
65540W        W37866  14.744   3.338   0.315
65541W        W37867  31.646  33.385  12.518
65542W        W37868  13.291   1.383  14.919
65543W        W37869   7.813  42.801   0.274
65544W        W37870   5.831  12.772   1.848
65545W        W37871   0.375  33.585   2.377
65546W        W37872  29.116  14.200   0.378
65547W        W37873   5.833  13.691  11.461
65548W        W37874  42.508  28.149  10.585
65549W        W37875  26.176  16.648  10.486
65550W        W37876  26.604  16.684  13.381
65551W        W37877  21.709   5.829  10.433
65552W        W37878   8.404  33.398   4.115
65553W        W37879  22.006  20.215  13.842
65554W        W37880  41.511   8.748  12.346
65555W        W37881  24.669  26.517  10.922
65556W        W37882   8.750  33.936   1.254
65557W        W37883  32.136  40.044   3.163
65558W        W37884  31.014   5.819  12.019
65559W        W37885   8.759  28.993   3.351
65560W        W37886  40.532  31.608  14.511
65561W        W37887   6.191   2.783   4.829
65562W        W37888  14.259  39.840  11.410
65563W        W37889  23.216  41.371   1.234
65564W        W37890  27.574  21.152   4.297
65565W        W37891   4.807  13.281   1.271
65566W        W37892  35.560  32.993   1.356
65567W        W37893  21.626  16.782   1.804
65568W        W37894  11.701  29.062   2.860
65569W        W37895   5.783  42.437  12.007
65570W        W37896  10.798  11.624  11.886
65571W        W37897  21.095  42.874   0.285
65572W        W37898   9.814  12.270   1.786
65573W        W37899  11.738   1.441   4.125
65574W        W37900  39.547  31.018  13.531
65575W        W37901   0.862  30.494  14.887
65576W        W37902   9.267  29.491  14.474
65577W        W37903  35.510  41.499  13.378
65578W        W37904  18.749  30.143   4.781
65579W        W37905  30.592  13.737   2.379
65580W        W37906   9.287  21.686  12.429
65581W        W37907  39.349  40.515   1.424
65582W        W37908  29.632  10.771   0.377
65583W        W37909  40.396   4.730   1.229
65584W        W37910   1.309   9.852   2.298
65585W        W37911  18.619  35.957   0.465
65586W        W37912  15.612  25.061   2.337
65587W        W37913  31.452  23.719   2.357
65588W        W37914  10.723   4.751   3.364
65589W        W37915   9.698  41.505  14.447
65590W        W37916  28.086  30.643  13.061
65591W        W37917  39.341  12.693   4.185
65592W        W37918  19.606   8.377  13.867
65593W        W37919  36.357   2.345   3.801
65594W        W37920  33.006  14.262   2.224
65595W        W37921  14.725   4.309   3.217
65596W        W37922  15.807  21.635   5.301
65597W        W37923  44.764  36.002   4.291
65598W        W37924  42.938  22.142  14.889
65599W        W37925  16.623  16.772  13.008
65600W        W37926   3.777  17.214  11.426
65601W        W37927  40.964  26.684   4.187
65602W        W37928  18.175  36.549   2.756
65603W        W37929   6.842   6.205  13.433
65604W        W37930  13.111   1.886  10.640
65605W        W37931  15.184  39.992   3.709
65606W        W37932  25.686  25.141   5.173
65607W        W37933  35.884  22.054   2.838
65608W        W37934  21.693  37.545   5.201
65609W        W37935  42.929  39.042   1.404
65610W        W37936  32.562   3.315  13.425
65611W        W37937  27.447  38.408  13.928
65612W        W37938  42.285  37.509   4.667
65613W        W37939  44.979   8.335   1.389
65614W        W37940  24.986   7.685   3.706
65615W        W37941  36.953   1.470  14.869
65616W        W37942  25.516   4.699   0.774
65617W        W37943  10.234  31.474  12.864
65618W        W37944  19.620  44.922   0.915
65619W        W37945  23.033  32.520   4.797
65620W        W37946  39.905   1.828  14.345
65621W        W37947   1.845  31.053  14.906
65622W        W37948  35.560  25.508   3.644
65623W        W37949  30.569  13.181   3.840
65624W        W37950  17.301  39.374  10.442
65625W        W37951  25.092   4.300  11.475
65626W        W37952  18.107  33.993   3.840
65627W        W37953  40.843   2.889  12.343
65628W        W37954  34.589  14.148  13.431
65629W        W37955  27.108  33.496   4.754
65630W        W37956  40.367  10.856   4.212
65631W        W37957  19.278  30.440   4.244
65632W        W37958  15.111  42.325   4.353
65633W        W37959  26.516   0.413  11.912
65634W        W37960  30.561  22.121  12.038
65635W        W37961  32.077  17.121  11.894
65636W        W37962  24.090  41.857  14.352
65637W        W37963  27.543   0.456   4.751
65638W        W37964   7.754  36.930  12.507
65639W        W37965   5.351  21.548  14.338
65640W        W37966  39.952  19.557  14.479
65641W        W37967  39.909  41.456   3.822
65642W        W37968  27.468   9.657  12.430
65643W        W37969  17.261  10.318   4.657
65644W        W37970  13.291   0.742   0.413
65645W        W37971  41.935   0.320  13.464
65646W        W37972   0.253  22.693   2.219
65647W        W37973  23.079  23.594  11.554
65648W        W37974  42.797  25.211  13.525
65649W        W37975  31.075  39.059   4.236
65650W        W37976  30.001  33.605  10.443
65651W        W37977  24.679  43.867  12.977
65652W        W37978  16.699  29.538  10.622
65653W        W37979  35.075  30.623   2.723
65654W        W37980  21.741  27.514  14.343
65655W        W37981  42.414  16.156   0.331
65656W        W37982  26.623  34.937  11.061
65657W        W37983   9.825  19.147  12.904
65658W        W37984  41.034  32.944   0.916
65659W        W37985   2.250  15.674   2.743
65660W        W37986  41.292  23.159  13.474
65661W        W37987  16.726  13.735  12.904
65662W        W37988  25.997   6.792  14.457
65663W        W37989   1.298   3.255  14.403
65664W        W37990  20.540   4.756  14.364
65665W        W37991  38.348  24.601  11.446
65666W        W37992  21.739  41.829   0.255
65667W        W37993  23.526  28.953   2.688
65668W        W37994   3.750   1.781   2.208
65669W        W37995   9.149  27.482   1.880
65670W        W37996  33.464  14.129   4.731
65671W        W37997  42.912   8.891   1.443
65672W        W37998  18.693  19.710  14.469
65673W        W37999  11.258   7.366  11.462
65674W        W38000  35.511  31.111  13.539
65675W        W38001   9.264  33.575  10.909
65676W        W38002  42.790  11.249  10.591
65677W        W38003   3.865   3.251  11.073
65678W        W38004  42.000   3.380  11.536
65679W        W38005  10.198  39.543   2.229
65680W        W38006  12.665  11.668  12.545
65681W        W38007  23.527  19.194  12.539
65682W        W38008   8.876  42.975  11.053
65683W        W38009   0.441  37.371   2.715
65684W        W38010  42.306  10.202   1.257
65685W        W38011  10.826  39.031   2.793
65686W        W38012   5.293  13.738   3.718
65687W        W38013   7.272  22.169   3.702
65688W        W38014   1.911  33.613   4.321
65689W        W38015  41.340  34.415   1.270
65690W        W38016  10.839  39.329  11.445
65691W        W38017  25.675  32.553   4.694
65692W        W38018  13.155  38.465   3.818
65693W        W38019  42.804  12.293   4.614
65694W        W38020  26.983  43.825   1.802
65695W        W38021  11.832  15.765  12.424
65696W        W38022  39.942  31.109  13.448
65697W        W38023  35.898  17.213  13.834
65698W        W38024  42.520   0.369   0.413
65699W        W38025  19.147   2.848   3.280
65700W        W38026  10.805   7.264   0.925
65701W        W38027  32.091   2.235  12.412
65702W        W38028  31.622   9.762   2.182
65703W        W38029  13.208   3.775   4.283
65704W        W38030  18.649   5.360  11.077
65705W        W38031  43.932  12.671  13.485
65706W        W38032   9.319   6.869  14.396
65707W        W38033  35.064   3.290  13.022
65708W        W38034  17.275   0.457  10.540
65709W        W38035  41.866  44.492   3.673
65710W        W38036  39.872   0.933  11.086
65711W        W38037   0.796  16.090   1.917
65712W        W38038  10.775  43.945  14.387
65713W        W38039  29.025  38.031  11.919
65714W        W38040  33.417  40.808   4.772
65715W        W38041  39.024  12.138   2.669
65716W        W38042   6.800  24.217  12.444
65717W        W38043  28.524  39.986   2.339
65718W        W38044  22.565  30.629   0.915
65719W        W38045   8.354  30.437  14.394
65720W        W38046  10.142  13.604   2.242
65721W        W38047   7.765  17.797   1.251
65722W        W38048  21.690  20.101   3.279
65723W        W38049  12.201   0.320   0.305
65724W        W38050   5.250   4.707  14.819
65725W        W38051  31.087  32.621   3.176
65726W        W38052   7.303  14.267   2.686
65727W        W38053  25.027   5.779   4.125
65728W        W38054  33.556  17.752   0.356
65729W        W38055   1.925   7.705   2.321
65730W        W38056   9.317   2.382  13.367
65731W        W38057   3.812  16.747   2.738
65732W        W38058  40.331   1.450   1.294
65733W        W38059  13.730  38.073   3.366
65734W        W38060  35.510  36.059  14.471
65735W        W38061  20.217  41.941  12.471
65736W        W38062  14.832   5.201   4.288
65737W        W38063   4.207  43.886   2.714
65738W        W38064  19.198  27.190   2.889
65739W        W38065  12.741  19.136  14.311
65740W        W38066  22.550   2.440   3.790
65741W        W38067  40.382   2.396  12.899
65742W        W38068  37.335  27.164   3.354
65743W        W38069  17.646  39.941  12.406
65744W        W38070  10.293   9.290  10.504
65745W        W38071   0.864   0.879  10.599
65746W        W38072   6.253  40.400  13.405
65747W        W38073  12.738  13.171  14.447
65748W        W38074   8.743  22.667   0.300
65749W        W38075   2.331   7.301  14.791
65750W        W38076   1.914  36.014   1.304
65751W        W38077  30.953  25.561  13.482
65752W        W38078  27.537  30.456  10.963
65753W        W38079  18.251  26.184  13.507
65754W        W38080  18.174  35.857   3.829
65755W        W38081  26.537  16.764   4.124
65756W        W38082  12.301  12.754   1.729
65757W        W38083  21.201  18.267   4.773
65758W        W38084  39.461  41.522   4.247
65759W        W38085  39.974  34.474   4.239
65760W        W38086  18.226   5.871   4.186
65761W        W38087   2.415  23.612   3.653
65762W        W38088  26.173   1.421   1.277
65763W        W38089   4.250  18.065  10.449
65764W        W38090  15.773  25.588  10.628
65765W        W38091  23.109  21.680   1.274
65766W        W38092  17.137  44.883   0.782
65767W        W38093  27.999   5.434   3.752
65768W        W38094  31.429   8.316   2.225
65769W        W38095   2.962  12.281  14.318
65770W        W38096  39.846  19.682   2.184
65771W        W38097   4.304  32.991  10.489
65772W        W38098  29.649  24.209  11.488
65773W        W38099  15.195  26.175   2.238
65774W        W38100  22.689  41.491   3.737
65775W        W38101   4.907  14.602  12.403
65776W        W38102   5.289  42.008  11.470
65777W        W38103  34.042   2.794   1.728
65778W        W38104  26.049  21.144   3.322
65779W        W38105  24.548  18.132   1.258
65780W        W38106   5.367  18.175   4.717
65781W        W38107  15.797  24.096  13.829
65782W        W38108  16.654  39.451   1.333
65783W        W38109  26.578   8.832   1.872
65784W        W38110  39.827  37.076  11.967
65785W        W38111  43.413  10.156   1.841
65786W        W38112  11.346   0.309  14.914
65787W        W38113  11.734   8.795   5.084
65788W        W38114   9.855  36.876   4.671
65789W        W38115  16.243  35.956   4.612
65790W        W38116   4.797  31.117  12.443
65791W        W38117   4.880  21.137  11.869
65792W        W38118  30.140  14.218   2.189
65793W        W38119  42.339  23.235  11.389
65794W        W38120  34.954  42.819   4.828
65795W        W38121  42.447  39.352   2.219
65796W        W38122  40.433  43.879   1.417
65797W        W38123  29.667   2.932   3.341
65798W        W38124  35.466  39.833   2.801
65799W        W38125  37.941  32.112   3.848
65800W        W38126  39.373   3.842   3.634
65801W        W38127  17.288  40.531  11.611
65802W        W38128  16.687  31.408   4.158
65803W        W38129   0.825   7.380  14.366
65804W        W38130  37.559  16.086  13.328
65805W        W38131  16.178  32.559   1.310
65806W        W38132  18.673  36.573   2.200
65807W        W38133  41.925  35.943  12.364
65808W        W38134  25.087  24.720  13.824
65809W        W38135  22.162  13.804   0.775
65810W        W38136  27.191  26.138   0.340
65811W        W38137   5.283  40.900  10.405
65812W        W38138  22.231  18.095  13.867
65813W        W38139  40.914   8.678  11.906
65814W        W38140  13.319  24.025  12.566
65815W        W38141  14.195  33.933  13.853
65816W        W38142  17.783   8.685  13.793
65817W        W38143   2.259  37.443   1.336
65818W        W38144  40.850  13.146   2.683
65819W        W38145  28.016  25.965   1.713
65820W        W38146  35.485  44.894   4.695
65821W        W38147  14.253  33.560   1.883
65822W        W38148  15.617  10.748  14.469
65823W        W38149  37.520  29.556  14.510
65824W        W38150  13.346  40.971   1.309
65825W        W38151  35.460  11.175  12.894
65826W        W38152  39.862  15.273   0.885
65827W        W38153  25.191  35.057   4.757
65828W        W38154  26.058  20.537  13.350
65829W        W38155  43.900   8.862  14.879
65830W        W38156  37.392  10.295  14.350
65831W        W38157  31.927   7.277   2.342
65832W        W38158  20.182   4.390   3.789
65833W        W38159  22.131  24.151   4.241
65834W        W38160  35.041  35.047   0.733
65835W        W38161   2.276  12.206  11.512
65836W        W38162  28.027   0.256   4.211
65837W        W38163   6.352  41.396  10.033
65838W        W38164  25.540  10.355  10.059
65839W        W38165  31.029  33.445  13.991
65840W        W38166  35.907   6.777   2.411
65841W        W38167  36.465  33.595  13.896
65842W        W38168  32.056   7.674   4.170
65843W        W38169  42.498  10.343  14.779
65844W        W38170  27.495  14.271  14.860
65845W        W38171   3.313  24.128  14.495
65846W        W38172  30.000  23.602  11.005
65847W        W38173  30.466  37.031  14.283
65848W        W38174  39.477  22.179   0.300
65849W        W38175  40.939  19.077   1.363
65850W        W38176  15.123  13.118  12.424
65851W        W38177  41.951  40.012   4.333
65852W        W38178   7.311  37.881  14.969
65853W        W38179   9.684  29.495   1.243
65854W        W38180  36.443  24.485  14.971
65855W        W38181  44.834  30.505  10.954
65856W        W38182  35.497  25.963   2.338
65857W        W38183  32.947   3.781  11.603
65858W        W38184   4.860   3.433  13.413
65859W        W38185  19.136   0.486   3.726
65860W        W38186  40.381  25.128  11.524
65861W        W38187  40.972  44.893  14.790
65862W        W38188   1.946  41.408  14.459
65863W        W38189  28.034  24.209   2.733
65864W        W38190   4.932  39.475   3.239
65865W        W38191  44.817   4.433   1.395
65866W        W38192   2.373   7.395  11.004
65867W        W38193  39.364   9.874   4.749
65868W        W38194   5.734  42.445   2.324
65869W        W38195   6.781  27.678   0.340
65870W        W38196  27.665  27.621   1.251
65871W        W38197  41.307   8.381   1.747
65872W        W38198  19.624  12.256   1.702
65873W        W38199  26.651  20.619   0.757
65874W        W38200  37.555   0.307  13.966
65875W        W38201  12.203  21.137  12.064
65876W        W38202   5.293   9.681  14.792
65877W        W38203  18.717  39.405  13.341
65878W        W38204   5.837  44.843  11.395
65879W        W38205  28.512  38.031   1.427
65880W        W38206  41.319  11.675   4.191
65881W        W38207  13.828  17.637  12.374
65882W        W38208  44.943  25.179  13.949
65883W        W38209   4.825  43.856  11.565
65884W        W38210  40.364  34.509   4.308
65885W        W38211  26.077  32.995   2.795
65886W        W38212  31.581  19.272   0.923
65887W        W38213  22.531  40.966   1.819
65888W        W38214   9.324  39.912  13.312
65889W        W38215  29.136   4.255   0.393
65890W        W38216   2.928  38.909   3.157
65891W        W38217   5.773  39.954   1.251
65892W        W38218  19.650  41.312  14.492
65893W        W38219  17.560   8.361  14.479
65894W        W38220  14.319  28.060  10.615
65895W        W38221  32.119   2.229  11.999
65896W        W38222  41.443  31.588  14.009
65897W        W38223  22.693  29.537  11.859
65898W        W38224  26.654  27.977   3.715
65899W        W38225  24.135  26.532   3.701
65900W        W38226   1.950  36.977  14.438
65901W        W38227   5.746  41.019   1.776
65902W        W38228  30.977  26.151   4.145
65903W        W38229  29.070  30.547   3.654
65904W        W38230  31.452  43.391   4.785
65905W        W38231  26.073  16.766  11.437
65906W        W38232  10.358  43.971  11.587
65907W        W38233  41.342  27.050  11.416
65908W        W38234  33.579   1.254  11.013
65909W        W38235  32.470  32.116  12.875
65910W        W38236  25.184  21.244   0.267
65911W        W38237  19.155  14.681   4.171
65912W        W38238   7.194  36.467  11.901
65913W        W38239  40.963  30.549  10.411
65914W        W38240  18.249  22.017   0.754
65915W        W38241   4.364  22.237   0.957
65916W        W38242  43.803  13.613  10.633
65917W        W38243  31.978  37.448   1.416
65918W        W38244  28.612  37.927  14.001
65919W        W38245  19.200   1.346  10.512
65920W        W38246   0.484  26.542   3.643
65921W        W38247  19.573  17.558   1.279
65922W        W38248  22.708  43.415   1.258
65923W        W38249  33.875   5.723   4.724
65924W        W38250  25.468  14.824  13.459
65925W        W38251  44.795  44.372  10.430
65926W        W38252  17.581   0.311  10.569
65927W        W38253  14.770   0.925   9.925
65928W        W38254  39.447  39.422   1.709
65929W        W38255  27.003  43.328   0.261
65930W        W38256  39.361  12.759   0.317
65931W        W38257  31.976  20.663   3.809
65932W        W38258  33.397  32.592  12.956
65933W        W38259  33.436  12.205   3.351
65934W        W38260  43.357   4.902   3.154
65935W        W38261  34.511  37.995  11.558
65936W        W38262  12.297  13.316   4.684
65937W        W38263   4.420   2.392   5.243
65938W        W38264  26.961  23.515  11.006
65939W        W38265  24.016  25.091   2.299
65940W        W38266  27.669  23.611  14.367
65941W        W38267  24.659  14.805  11.107
65942W        W38268  41.347  21.609   0.935
65943W        W38269  32.912  29.468  13.454
65944W        W38270  19.173  40.046   2.705
65945W        W38271  26.078  44.448  11.478
65946W        W38272  31.068  13.697  13.496
65947W        W38273  26.643  12.253  13.944
65948W        W38274  40.935  26.952  12.526
65949W        W38275   3.394  16.585   1.784
65950W        W38276  15.668  22.211   5.290
65951W        W38277  13.823   3.242   1.290
65952W        W38278  15.157  36.456  14.943
65953W        W38279   2.404  37.382  13.378
65954W        W38280  36.488  40.945  10.585
65955W        W38281   5.438   4.371  14.313
65956W        W38282  36.353  36.443  13.047
65957W        W38283   9.280  39.318   3.238
65958W        W38284   7.726  23.508   4.754
65959W        W38285  21.088  20.254  10.581
65960W        W38286  13.783  36.860   0.351
65961W        W38287  25.538  30.649   1.305
65962W        W38288   5.886  11.233   1.437
65963W        W38289  33.995  19.155  14.845
65964W        W38290  20.080   9.296   1.413
65965W        W38291  22.213   6.224   4.720
65966W        W38292   4.706  23.159   2.275
65967W        W38293  10.862  10.689  10.933
65968W        W38294  26.006  14.631  14.773
65969W        W38295   6.847  31.010  12.341
65970W        W38296  22.027   1.774  11.475
65971W        W38297  14.193   7.414  12.091
65972W        W38298  36.900  12.340   3.215
65973W        W38299  33.497  12.232  11.583
65974W        W38300  36.942  38.336   3.174
65975W        W38301   3.898   3.320  12.430
65976W        W38302  24.680  26.544  13.889
65977W        W38303  13.281  19.259  14.993
65978W        W38304  27.102  15.263   3.175
65979W        W38305  16.234  10.242   3.340
65980W        W38306  44.988  14.202  11.588
65981W        W38307   1.482  21.044   4.716
65982W        W38308  17.594  14.175  14.482
65983W        W38309  21.595  11.152   1.704
65984W        W38310  33.127  39.812   3.191
65985W        W38311   4.273  22.066   3.782
65986W        W38312  16.111  30.990   0.810
65987W        W38313   6.752  37.061  12.483
65988W        W38314   7.753  22.117   3.745
65989W        W38315  43.864   0.911   0.333
65990W        W38316  43.465   4.897  11.473
65991W        W38317  10.273  23.035  13.979
65992W        W38318  26.638  42.884  13.976
65993W        W38319  13.274   3.319  14.981
65994W        W38320  13.756  16.617  13.523
65995W        W38321  31.102  36.589   4.827
65996W        W38322  44.882  10.185   4.152
65997W        W38323  34.430  40.914   4.114
65998W        W38324  14.598  16.194  13.392
65999W        W38325  19.574   5.418  11.120
66000W        W38326  22.722  14.793  13.017
66001W        W38327  18.133  37.940   4.134
66002W        W38328  20.709  14.819   0.828
66003W        W38329  28.640  44.951   4.158
66004W        W38330  33.126  41.531   0.359
66005W        W38331  37.350  24.507   4.115
66006W        W38332  25.137   4.895  11.973
66007W        W38333  28.451  29.924  13.887
66008W        W38334  11.747  27.504   4.838
66009W        W38335  22.655  30.967   0.266
66010W        W38336  10.170  31.428  11.030
66011W        W38337   0.962  39.850   4.819
66012W        W38338  32.531  35.045   2.191
66013W        W38339  36.397  31.946   5.101
66014W        W38340  35.854  16.144   4.697
66015W        W38341   7.688  39.360  13.994
66016W        W38342  44.991  22.516  12.947
66017W        W38343   4.810  33.933   1.221
66018W        W38344  35.562   2.309  14.775
66019W        W38345   4.891  12.646  11.382
66020W        W38346  12.811  25.507   3.348
66021W        W38347  32.555  25.684  11.000
66022W        W38348  34.514  42.354   4.838
66023W        W38349  15.659  27.147   3.815
66024W        W38350  15.753  15.591  13.418
66025W        W38351  15.749   1.849   3.719
66026W        W38352   5.377   3.443  10.903
66027W        W38353  30.945  20.037   4.173
66028W        W38354  27.017  15.796   3.742
66029W        W38355  34.928  21.526  11.416
66030W        W38356  36.408  15.705  14.848
66031W        W38357  36.372  36.071  11.062
66032W        W38358  27.089  44.787  13.501
66033W        W38359  44.394  43.947  10.149
66034W        W38360  34.871  20.723  11.456
66035W        W38361   1.879  13.684  13.038
66036W        W38362  17.214   4.304   1.903
66037W        W38363  11.777   2.786  11.864
66038W        W38364  14.589  16.168  14.449
66039W        W38365   6.812  31.017   1.772
66040W        W38366  35.916   2.316  12.344
66041W        W38367   1.301  30.053   4.223
66042W        W38368  20.624  29.468   0.894
66043W        W38369  26.536  35.861   5.181
66044W        W38370  43.850  38.040   4.144
66045W        W38371  17.201  37.069   1.888
66046W        W38372  37.934   7.225  10.919
66047W        W38373  23.022  33.967   3.681
66048W        W38374  14.739   2.465   2.317
66049W        W38375  20.052  24.659  14.922
66050W        W38376  18.594  12.786  11.425
66051W        W38377   1.771  33.442   2.213
66052W        W38378  21.639  16.283   0.283
66053W        W38379  16.571   0.474  13.335
66054W        W38380  12.258  44.358   2.666
66055W        W38381  29.057  10.310  14.415
66056W        W38382  18.245  42.417  11.933
66057W        W38383  30.462  24.596  14.462
66058W        W38384  24.573  28.475  12.016
66059W        W38385  38.422  41.816  13.809
66060W        W38386   6.418  33.114  13.975
66061W        W38387  21.569  20.704   4.266
66062W        W38388  12.227  34.108  10.134
66063W        W38389  32.035   9.347  13.831
66064W        W38390  15.763  30.944  14.307
66065W        W38391  25.666  36.023  13.011
66066W        W38392   1.844  23.549   3.349
66067W        W38393  18.127  36.012   4.669
66068W        W38394   5.377  42.846  13.828
66069W        W38395  36.485  16.678  14.380
66070W        W38396  26.668  32.610  14.843
66071W        W38397  43.486  10.845  14.001
66072W        W38398  26.624  16.661   3.686
66073W        W38399  13.324  35.961   0.742
66074W        W38400   6.901   6.799   3.756
66075W        W38401  21.706  18.770   0.830
66076W        W38402   5.377  20.072   3.805
66077W        W38403   6.794   8.818   0.951
66078W        W38404  32.037  21.203  13.976
66079W        W38405  36.882  10.156   2.336
66080W        W38406  23.653  14.799   9.617
66081W        W38407  14.112  31.098  12.965
66082W        W38408  24.174  40.494  11.084
66083W        W38409  39.016  36.892  12.977
66084W        W38410  11.289  20.587   1.814
66085W        W38411  37.457  29.513  12.876
66086W        W38412  16.241  36.512   0.311
66087W        W38413  35.424   4.734  11.457
66088W        W38414  35.093  26.606   0.244
66089W        W38415  29.004  22.210  11.095
66090W        W38416   3.732  30.646  14.352
66091W        W38417  25.169  13.165   3.775
66092W        W38418  15.204  31.425  11.921
66093W        W38419   0.887   3.353   0.398
66094W        W38420   4.357  28.538  11.963
66095W        W38421  32.546  40.502  10.966
66096W        W38422  23.168  35.911   2.236
66097W        W38423  15.291  14.331  12.398
66098W        W38424  31.491  41.906   0.440
66099W        W38425   5.209  10.872  11.584
66100W        W38426  15.100  28.546   0.300
66101W        W38427  16.262  28.046   3.376
66102W        W38428  41.496   3.872  13.015
66103W        W38429  32.526  24.036   4.164
66104W        W38430  14.769  25.079   1.886
66105W        W38431  44.460  34.439   4.661
66106W        W38432  26.074  34.882  11.374
66107W        W38433  14.798  30.977   3.206
66108W        W38434   5.875  23.034  10.927
66109W        W38435  44.278   6.299   1.878
66110W        W38436  44.411  19.552  10.644
66111W        W38437  38.330  24.509   3.749
66112W        W38438   7.373  29.984  10.613
66113W        W38439  36.921  32.495  12.366
66114W        W38440  23.670  32.889  12.541
66115W        W38441  31.896  41.918   2.401
66116W        W38442  34.610  39.939   0.851
66117W        W38443   9.182  33.461  12.080
66118W        W38444  11.310  44.816  13.329
66119W        W38445  21.714  32.116   4.703
66120W        W38446  36.485  36.939  14.336
66121W        W38447  24.134  25.005  11.524
66122W        W38448  27.068  36.909  14.361
66123W        W38449   7.205  17.228  14.970
66124W        W38450   6.267  35.602   0.373
66125W        W38451  25.004   8.829   0.838
66126W        W38452  35.604  34.966  13.526
66127W        W38453  28.503  43.797  11.528
66128W        W38454  22.071   5.206  11.507
66129W        W38455  30.600  11.734   1.700
66130W        W38456   4.359  35.074  12.343
66131W        W38457   1.850   3.904   0.457
66132W        W38458   4.431  37.520  10.109
66133W        W38459  29.651  12.684  13.472
66134W        W38460  36.386   3.406  12.368
66135W        W38461  29.045  37.839   2.840
66136W        W38462   0.769  28.578   2.672
66137W        W38463   3.918  35.382   3.765
66138W        W38464   8.735  37.083   3.195
66139W        W38465  12.186   8.812  10.479
66140W        W38466  35.097  39.035   2.665
66141W        W38467  14.821  34.108   1.855
66142W        W38468  41.879  35.103  14.812
66143W        W38469  22.039  24.540  12.433
66144W        W38470  23.716  38.924   1.243
66145W        W38471  17.645  40.483  13.479
66146W        W38472  14.657  32.544   0.848
66147W        W38473  26.010  14.272   3.685
66148W        W38474  43.489   1.244   2.898
66149W        W38475  28.132  23.646   1.805
66150W        W38476  40.414  31.148  14.935
66151W        W38477  24.170  16.627   1.798
66152W        W38478  34.424   1.862   4.354
66153W        W38479   5.218   6.206   3.369
66154W        W38480  18.280  10.193  11.611
66155W        W38481   1.459  22.166  10.892
66156W        W38482  28.519  11.237  12.881
66157W        W38483  21.670   0.464  11.398
66158W        W38484  25.047  40.322   0.335
66159W        W38485  39.553  25.637  11.413
66160W        W38486  19.046   4.915   1.373
66161W        W38487  16.619  14.177  12.085
66162W        W38488   3.359  24.022   0.922
66163W        W38489  36.866  13.777  11.985
66164W        W38490   0.409  35.479  14.015
66165W        W38491  26.119   1.926   2.218
66166W        W38492  25.192  17.075  11.114
66167W        W38493  22.055  37.086  14.939
66168W        W38494  13.757  33.958   0.962
66169W        W38495   0.877  17.714  11.474
66170W        W38496  28.568   3.433  10.461
66171W        W38497  13.176  30.084   2.725
66172W        W38498  40.801  19.741  12.919
66173W        W38499  27.600  21.575  12.573
66174W        W38500  24.518  27.565  14.300
66175W        W38501   6.220  31.539   4.246
66176W        W38502  18.601   5.369   2.199
66177W        W38503  29.521  20.189  12.388
66178W        W38504  37.349  33.446   0.410
66179W        W38505  32.975  16.786   1.396
66180W        W38506  23.114  12.149   0.743
66181W        W38507   6.389  38.370  10.078
66182W        W38508  20.675  14.165  13.532
66183W        W38509  16.265  29.970  11.506
66184W        W38510  17.701  41.313  11.439
66185W        W38511  19.048  14.311  12.580
66186W        W38512  33.582   0.293   0.331
66187W        W38513  34.905   9.887   0.256
66188W        W38514  40.309  40.385  11.081
66189W        W38515  30.105  25.051  14.450
66190W        W38516  19.599   0.971  14.445
66191W        W38517   2.299  10.275   0.819
66192W        W38518  39.822  44.833  10.452
66193W        W38519  13.643  20.099  14.780
66194W        W38520  20.250  25.706  11.026
66195W        W38521  42.798  15.787  13.019
66196W        W38522  22.700  24.136  14.427
66197W        W38523  24.027   4.275   3.186
66198W        W38524  25.077  29.065   2.683
66199W        W38525  30.938  14.282   1.249
66200W        W38526   1.817  10.199  10.921
66201W        W38527   2.272  13.635   2.235
66202W        W38528  12.674   2.938   0.853
66203W        W38529   7.315  10.303   0.449
66204W        W38530  15.782  11.128   2.793
66205W        W38531  19.687  23.653  11.575
66206W        W38532  37.467  35.363   3.314
66207W        W38533   7.787  42.990   1.269
66208W        W38534   9.395   9.363   2.816
66209W        W38535  16.255   5.899  12.843
66210W        W38536  40.952   6.757   3.163
66211W        W38537   6.783   6.750  12.462
66212W        W38538  11.682  28.061   5.168
66213W        W38539  31.540  15.697   4.678
66214W        W38540  13.298  14.771  14.789
66215W        W38541  34.896   3.407   2.320
66216W        W38542  42.419  33.891   2.863
66217W        W38543  37.471  12.336  10.076
66218W        W38544  44.968  10.332   2.861
66219W        W38545  25.109  21.633   2.190
66220W        W38546  32.128  14.231  10.580
66221W        W38547  26.049   1.950  14.333
66222W        W38548  31.608   7.283   0.337
66223W        W38549  20.166  10.171   0.437
66224W        W38550  38.380  32.631   2.889
66225W        W38551  23.020   1.916  11.037
66226W        W38552  43.780  30.586   3.211
66227W        W38553  17.636  38.398  13.062
66228W        W38554  20.123  15.633   5.132
66229W        W38555   3.870  31.025  11.924
66230W        W38556  14.727  38.026  14.820
66231W        W38557  19.101  20.761  14.885
66232W        W38558   2.802   1.464   3.275
66233W        W38559  41.978  34.565  12.965
66234W        W38560  42.457  32.119   4.225
66235W        W38561  36.453  12.624   1.245
66236W        W38562  29.552   7.401  11.105
66237W        W38563  12.746  35.011   4.760
66238W        W38564  27.681  27.494   3.147
66239W        W38565   2.457  10.244   3.850
66240W        W38566  37.995  37.449   2.353
66241W        W38567  10.222  18.647   1.820
66242W        W38568  25.532   4.211  13.929
66243W        W38569  30.529  32.559  14.926
66244W        W38570   3.325  37.947  14.796
66245W        W38571   0.343  12.161   1.763
66246W        W38572  32.128  12.733   0.930
66247W        W38573  11.735  30.055   4.660
66248W        W38574  44.259  12.340   0.403
66249W        W38575  20.762  10.635  13.968
66250W        W38576  40.923  32.141   0.872
66251W        W38577   3.885   2.882   4.687
66252W        W38578  29.027   2.426   0.768
66253W        W38579  15.104  41.966   0.750
66254W        W38580  16.166  16.108   1.926
66255W        W38581  38.853   2.458  12.977
66256W        W38582  34.055   7.722   1.219
66257W        W38583  41.020  30.624   1.343
66258W        W38584  33.963  19.254  13.514
66259W        W38585  41.023  43.847   2.215
66260W        W38586  27.495  18.165  12.378
66261W        W38587  33.498   1.423  12.404
66262W        W38588  21.574   5.307   0.326
66263W        W38589  38.346  32.571   4.316
66264W        W38590  43.376  33.998  11.418
66265W        W38591  36.021   3.438   0.409
66266W        W38592  12.222   0.836   0.265
66267W        W38593   0.433  26.076  14.814
66268W        W38594  41.523  10.762   3.334
66269W        W38595  15.136  44.348   2.714
66270W        W38596  22.157   7.337   2.757
66271W        W38597  13.708  39.539  12.935
66272W        W38598  15.326  26.608   1.757
66273W        W38599   0.252   8.356  12.478
66274W        W38600  36.077   5.244  11.097
66275W        W38601  39.347   9.820  13.347
66276W        W38602  10.361  16.641  12.351
66277W        W38603  36.587  16.723  12.853
66278W        W38604  38.862  31.547   5.159
66279W        W38605  22.699   0.440  14.355
66280W        W38606  23.193  33.074  13.497
66281W        W38607   1.920  19.646  13.013
66282W        W38608   9.717  39.954  12.349
66283W        W38609   5.439   8.787   3.766
66284W        W38610  16.285  18.772   4.279
66285W        W38611  43.967  30.474   1.230
66286W        W38612  41.906   1.935  13.923
66287W        W38613  37.421  14.244   3.803
66288W        W38614  31.135  11.223   4.187
66289W        W38615  21.581  42.489   1.894
66290W        W38616  32.567   4.915   0.425
66291W        W38617  39.481  41.004   4.751
66292W        W38618  10.849   5.711   1.785
66293W        W38619  32.582  23.115  11.000
66294W        W38620  35.575  19.201   2.765
66295W        W38621  43.290  18.640  13.811
66296W        W38622   4.381  29.972  12.375
66297W        W38623  32.941  37.470  10.008
66298W        W38624  41.840  16.645   0.935
66299W        W38625  16.636  12.728  12.425
66300W        W38626  36.034  38.925   4.294
66301W        W38627  35.990  32.417   3.183
66302W        W38628  24.571  35.382   4.198
66303W        W38629  37.512  17.092   0.762
66304W        W38630  16.612  13.805   3.775
66305W        W38631  39.893  10.646   2.310
66306W        W38632  10.859  30.113  12.458
66307W        W38633  31.001  33.442  12.414
66308W        W38634  18.057  27.449  11.454
66309W        W38635  18.070  26.603   3.172
66310W        W38636  34.450  32.903   5.297
66311W        W38637  32.137  44.831   2.691
66312W        W38638  16.612  18.144  14.952
66313W        W38639  15.587  28.168   2.368
66314W        W38640  20.254  16.138   2.697
66315W        W38641  37.460  31.081   4.623
66316W        W38642  23.673  20.554  10.586
66317W        W38643  31.500  12.677   3.252
66318W        W38644   3.248  20.059  11.119
66319W        W38645  20.747  26.140  12.546
66320W        W38646  32.420  37.422  13.054
66321W        W38647   4.314  12.618   1.757
66322W        W38648  40.547  39.481  10.409
66323W        W38649  16.687  39.430  11.436
66324W        W38650  29.594  22.621   4.250
66325W        W38651  34.041   1.270   2.258
66326W        W38652  27.955  30.015   4.792
66327W        W38653   4.243  29.636   2.388
66328W        W38654  21.056  10.297  12.560
66329W        W38655  22.245  34.921  13.952
66330W        W38656  44.281   7.303  14.959
66331W        W38657  21.588  14.674  14.984
66332W        W38658  37.995  38.014   0.742
66333W        W38659  36.469  16.270  11.464
66334W        W38660  30.544  35.553  14.781
66335W        W38661  37.905  19.714   5.245
66336W        W38662  30.574  12.637  10.970
66337W        W38663   5.397  41.420   3.266
66338W        W38664  36.892   1.829   4.702
66339W        W38665   3.303  26.207  14.807
66340W        W38666  12.230  18.210  14.787
66341W        W38667  43.469  36.860  13.837
66342W        W38668  27.133  43.467  13.048
66343W        W38669  33.927  21.151  12.903
66344W        W38670  40.858   9.184  11.555
66345W        W38671  11.774  39.534   2.867
66346W        W38672  19.231  30.950   4.306
66347W        W38673  37.944   8.251   3.275
66348W        W38674  39.843  13.197   0.887
66349W        W38675  10.758  10.156  12.341
66350W        W38676   2.934   9.721   4.129
66351W        W38677  34.070  25.672  11.109
66352W        W38678   0.759  26.615   0.451
66353W        W38679  42.314  41.880   4.694
66354W        W38680  27.633  36.996  11.550
66355W        W38681   6.799  10.246  12.883
66356W        W38682  21.721  37.903   4.283
66357W        W38683  13.167  41.986  12.461
66358W        W38684  12.709  25.561  11.911
66359W        W38685  27.092  42.909  10.604
66360W        W38686  16.204  12.225  13.389
66361W        W38687  12.752  39.483   0.956
66362W        W38688  16.279  34.390  13.000
66363W        W38689  14.122  13.158  14.295
66364W        W38690  14.198  10.744   3.700
66365W        W38691  18.161  12.152   4.804
66366W        W38692  30.650   1.458   2.303
66367W        W38693  17.150   2.748  14.437
66368W        W38694  17.748  10.827   1.868
66369W        W38695  36.058  12.130  11.573
66370W        W38696  27.464  30.441   1.400
66371W        W38697   1.870   1.379   4.252
66372W        W38698   2.963  18.651  10.921
66373W        W38699  13.297  11.196  12.840
66374W        W38700  31.500   8.745   0.853
66375W        W38701  29.433  15.669  14.319
66376W        W38702  37.937  37.842  12.861
66377W        W38703  10.833  37.944  12.913
66378W        W38704   8.296  17.168  14.975
66379W        W38705   5.256  17.721   3.315
66380W        W38706   9.844  39.498   0.779
66381W        W38707   4.757   4.752  14.401
66382W        W38708   5.272   9.202  13.041
66383W        W38709  21.201  35.400  13.943
66384W        W38710  24.571  26.110  14.812
66385W        W38711  26.487  32.626  12.437
66386W        W38712  10.280  22.049   1.302
66387W        W38713  42.314   7.174   0.366
66388W        W38714   6.818  39.456   2.666
66389W        W38715  26.458  37.474  12.481
66390W        W38716  11.805  34.989   4.193
66391W        W38717   2.414  33.564   0.421
66392W        W38718  28.179   3.785  14.809
66393W        W38719   8.873  39.900  11.551
66394W        W38720  42.383   1.755  11.949
66395W        W38721  16.744  38.063  14.385
66396W        W38722  28.158   3.813   0.744
66397W        W38723  37.363  14.261  14.847
66398W        W38724  44.988  22.593  10.928
66399W        W38725  28.458  40.472   2.244
66400W        W38726  21.105  42.787  12.576
66401W        W38727  11.228  37.449   2.701
66402W        W38728  16.709  17.717  12.963
66403W        W38729   4.435  16.113  13.548
66404W        W38730   3.257  29.469  10.580
66405W        W38731   7.410   0.304   4.165
66406W        W38732  41.951   2.252  12.983
66407W        W38733  33.970  40.922  13.044
66408W        W38734   1.422  43.791   4.319
66409W        W38735  43.786  35.857  11.129
66410W        W38736  30.073  35.914  14.983
66411W        W38737  26.686  42.286  13.485
66412W        W38738  40.327  26.570   4.744
66413W        W38739  21.158  38.547   4.836
66414W        W38740  39.808  41.439  12.519
66415W        W38741  38.483  26.988  12.879
66416W        W38742  40.022  27.030   2.237
66417W        W38743  43.507  26.647  13.000
66418W        W38744   5.729  11.831  12.373
66419W        W38745  41.318  37.050  11.970
66420W        W38746   0.442  33.590  10.494
66421W        W38747  14.286  42.965   3.202
66422W        W38748  26.198   7.898  11.375
66423W        W38749  15.215  39.830   2.755
66424W        W38750  14.206   9.666  11.557
66425W        W38751  22.745  40.349   0.311
66426W        W38752   9.210   6.275  13.530
66427W        W38753  34.422  15.118   4.349
66428W        W38754  40.798  14.723  13.847
66429W        W38755  31.944   1.831   0.286
66430W        W38756  10.858  11.806   2.840
66431W        W38757  26.490  42.011   4.131
66432W        W38758   1.384  38.353   0.289
66433W        W38759   7.407  40.519  10.991
66434W        W38760  37.509  11.755   9.656
66435W        W38761  31.051  41.879  13.517
66436W        W38762  27.611  17.695   2.330
66437W        W38763  24.718  19.669   1.354
66438W        W38764  44.007  27.628   1.287
66439W        W38765  43.796  37.397   4.610
66440W        W38766  31.436   5.326   2.405
66441W        W38767   6.850  27.962  13.390
66442W        W38768  42.512  36.353  10.488
66443W        W38769  37.975  29.510   3.211
66444W        W38770  27.499  27.629  14.921
66445W        W38771  36.461  11.732  14.386
66446W        W38772  14.739  35.476   3.265
66447W        W38773  35.088   4.741  10.579
66448W        W38774  40.310  29.984   4.606
66449W        W38775  31.415  18.249  14.375
66450W        W38776  35.519  17.208   2.208
66451W        W38777   8.375  12.834  13.402
66452W        W38778  36.433   5.390   3.793
66453W        W38779  22.097  12.142  14.901
66454W        W38780  22.595  12.735  10.403
66455W        W38781  21.637  35.103  12.967
66456W        W38782   9.237  43.341  14.908
66457W        W38783  19.612  29.168  13.046
66458W        W38784  39.490  43.407   0.325
66459W        W38785   1.940   4.311   1.215
66460W        W38786  24.721  23.665  13.356
66461W        W38787  28.166  31.055   0.919
66462W        W38788  20.107  35.523  13.458
66463W        W38789   8.706  23.540   1.871
66464W        W38790  38.989  30.564  11.915
66465W        W38791  16.766  39.890  14.401
66466W        W38792  23.173  36.016  14.912
66467W        W38793  21.747  22.713   2.296
66468W        W38794  28.166  26.464  10.464
66469W        W38795  38.892  11.819   3.215
66470W        W38796  36.456   1.250   0.833
66471W        W38797  35.600  17.588   1.852
66472W        W38798   5.874  24.606  11.939
66473W        W38799  34.040  38.997   0.937
66474W        W38800  34.605  23.507   3.670
66475W        W38801  29.937  16.597  13.054
66476W        W38802  27.950  15.298   4.649
66477W        W38803  14.175  26.154   5.738
66478W        W38804   6.903  43.356   1.328
66479W        W38805  25.471  26.134  10.927
66480W        W38806   5.355  18.636  14.878
66481W        W38807  20.219  41.504  10.915
66482W        W38808   7.816  26.632  12.577
66483W        W38809  32.432  38.325   2.244
66484W        W38810   9.789  13.241   1.883
66485W        W38811  12.210  43.768  14.490
66486W        W38812  44.849   8.881   3.158
66487W        W38813  37.066   4.910  12.486
66488W        W38814  41.340  22.584   3.860
66489W        W38815  43.797   5.790  14.865
66490W        W38816  27.118  21.669  13.019
66491W        W38817  14.600  30.958  13.045
66492W        W38818  14.754  38.829   0.393
66493W        W38819  43.391  21.035   0.806
66494W        W38820   2.936  14.301   2.861
66495W        W38821  36.058  17.745   3.638
66496W        W38822  12.242  25.497   2.827
66497W        W38823   0.359  39.916  14.360
66498W        W38824  40.487  31.917   3.814
66499W        W38825  43.885  20.542  11.903
66500W        W38826  26.531  34.478  12.870
66501W        W38827  14.654  25.551   5.603
66502W        W38828  35.072  25.102  11.606
66503W        W38829  30.920  23.035   3.366
66504W        W38830  26.166   9.684  14.493
66505W        W38831  31.140  43.322   0.397
66506W        W38832  26.074  27.618  12.531
66507W        W38833  42.475  39.951   0.295
66508W        W38834  21.695  17.578  14.314
66509W        W38835  19.266  25.012  13.957
66510W        W38836  32.618  42.953   2.780
66511W        W38837  27.453   0.982   2.359
66512W        W38838   5.809  38.011   4.244
66513W        W38839  27.061  18.700   2.276
66514W        W38840  31.043  38.427  14.326
66515W        W38841  30.139  24.101  12.568
66516W        W38842  38.485  29.986  14.426
66517W        W38843  13.106  14.814  11.476
66518W        W38844  40.884  44.417   3.846
66519W        W38845  43.937  25.179  13.350
66520W        W38846  29.627  10.261  13.330
66521W        W38847  30.137   8.246  13.387
66522W        W38848  38.959  11.242  10.528
66523W        W38849  33.523  24.991  13.002
66524W        W38850  28.073  16.673   1.702
66525W        W38851  44.387  43.450   0.870
66526W        W38852   9.818  43.935   3.688
66527W        W38853  29.984   5.924  10.987
66528W        W38854  32.996  25.036  14.485
66529W        W38855   5.379   2.727   0.747
66530W        W38856  32.438  33.603   4.719
66531W        W38857  20.226  30.418   0.850
66532W        W38858  41.405  42.840  10.594
66533W        W38859  24.674  32.006  12.472
66534W        W38860   4.427   9.302  10.901
66535W        W38861  27.071  35.089   2.736
66536W        W38862  22.166  36.447  10.554
66537W        W38863  29.925  44.385   3.204
66538W        W38864  14.134  24.205  13.026
66539W        W38865  33.000  14.822  13.484
66540W        W38866  29.623  40.036   4.767
66541W        W38867  42.812  31.918   0.349
66542W        W38868  25.660  34.586  12.515
66543W        W38869  39.458  36.385  12.998
66544W        W38870  29.089   1.811   4.632
66545W        W38871  20.610   6.286   2.870
66546W        W38872  14.177  24.020   5.090
66547W        W38873  35.587   1.347   1.394
66548W        W38874  19.238  40.826  10.517
66549W        W38875  17.689  16.709  14.384
66550W        W38876  43.349   7.861  14.771
66551W        W38877  18.171  24.649  12.868
66552W        W38878  28.169  30.623   0.265
66553W        W38879  26.479  33.094   4.671
66554W        W38880  18.137  43.489   3.688
66555W        W38881  15.144  43.876  11.603
66556W        W38882  15.282  39.483   0.746
66557W        W38883  19.239  20.601  12.018
66558W        W38884  11.173  37.052   1.419
66559W        W38885   8.388  42.490   0.741
66560W        W38886  32.565  27.530   2.221
66561W        W38887  44.301  19.650   2.343
66562W        W38888  12.707  13.694   0.922
66563W        W38889  44.482   4.925   0.288
66564W        W38890  23.207  19.768  10.413
66565W        W38891  28.112  29.433  11.924
66566W        W38892  35.569  25.651  14.850
66567W        W38893   5.378  41.999   0.321
66568W        W38894  13.732  26.182  12.014
66569W        W38895  10.240  31.121  10.493
66570W        W38896   3.797  40.900  10.524
66571W        W38897  13.740  14.124  11.539
66572W        W38898  27.121  31.642  10.944
66573W        W38899  43.889  30.050   4.328
66574W        W38900   7.893  32.057   2.207
66575W        W38901   6.319  20.029  14.922
66576W        W38902  13.664  36.396  12.899
66577W        W38903  42.801  24.607  11.569
66578W        W38904  25.583  32.437  11.984
66579W        W38905  22.564  40.421  11.525
66580W        W38906   3.868   7.735   2.398
66581W        W38907  17.254  24.651   3.263
66582W        W38908  35.997   2.938  14.858
66583W        W38909  13.107  13.646  13.538
66584W        W38910  18.278  43.503   4.338
66585W        W38911  30.533  43.006  11.546
66586W        W38912  22.504   9.222   2.265
66587W        W38913  42.015   1.843   0.800
66588W        W38914  20.627   7.849   2.387
66589W        W38915  21.560  17.798   0.384
66590W        W38916  22.651  20.062   1.216
66591W        W38917   0.480  21.586   4.808
66592W        W38918   3.727  16.711  13.907
66593W        W38919  35.444   8.160  13.039
66594W        W38920  37.040  34.952  10.562
66595W        W38921  33.570  22.706  14.901
66596W        W38922  37.365  15.780   0.382
66597W        W38923  42.479   8.401  11.073
66598W        W38924  41.444  17.247  11.386
66599W        W38925  12.256  42.509  14.312
66600W        W38926   2.369   5.301  13.967
66601W        W38927  21.533  19.739  14.310
66602W        W38928  35.436   3.883  12.881
66603W        W38929  44.273  42.393   3.187
66604W        W38930  11.678  44.836  12.952
66605W        W38931  32.037  13.685   3.776
66606W        W38932   5.715   7.686   0.464
66607W        W38933  40.964  39.433  13.517
66608W        W38934  25.518  31.503   4.836
66609W        W38935  10.281  34.458   1.817
66610W        W38936  17.232  34.405  11.535
66611W        W38937  14.632  32.438  11.577
66612W        W38938  11.816   6.323   0.731
66613W        W38939  23.174  41.855   3.166
66614W        W38940  30.581  12.237   3.813
66615W        W38941  26.975  39.036  13.964
66616W        W38942   4.929  43.490  11.979
66617W        W38943  24.187  33.003   3.289
66618W        W38944  29.984  14.145   3.842
66619W        W38945   7.736   8.190   3.294
66620W        W38946  18.156   6.918   0.456
66621W        W38947  17.599  19.575   2.791
66622W        W38948  14.766  41.924   1.857
66623W        W38949  35.094  29.091   4.620
66624W        W38950   1.438  26.536   0.773
66625W        W38951  44.912  16.627   0.842
66626W        W38952   6.263  15.793   1.416
66627W        W38953  29.997  10.335  14.789
66628W        W38954  42.426  16.203   0.779
66629W        W38955  19.682   4.441   0.253
66630W        W38956  23.554  28.577  13.338
66631W        W38957   0.391  21.517  11.015
66632W        W38958  20.174  29.084  10.003
66633W        W38959   4.276  35.965   0.867
66634W        W38960  37.520  33.447  13.320
66635W        W38961  33.435  30.124  13.918
66636W        W38962  27.104  27.943  11.049
66637W        W38963  31.635  31.916  11.606
66638W        W38964   0.283  36.387   4.271
66639W        W38965   0.469  40.978   2.724
66640W        W38966  40.922  33.615   1.259
66641W        W38967  37.510   6.347  13.893
66642W        W38968  23.624  38.412   0.857
66643W        W38969   0.248  32.417  14.510
66644W        W38970   4.906  43.960  13.824
66645W        W38971   8.162   1.816   1.398
66646W        W38972  39.997  23.155   3.778
66647W        W38973  35.999  35.407   2.266
66648W        W38974   8.831  32.479  13.461
66649W        W38975   2.378  36.932   2.324
66650W        W38976  41.034  14.304  12.399
66651W        W38977  19.126  22.552   4.200
66652W        W38978   5.357  15.590  10.953
66653W        W38979   1.812   1.809   3.833
66654W        W38980   7.755  23.654   3.649
66655W        W38981   2.828  19.278   0.398
66656W        W38982  29.578  32.581   1.870
66657W        W38983  37.418  22.081  12.404
66658W        W38984  27.024  15.203   2.335
66659W        W38985  43.316  32.567  14.021
66660W        W38986  37.855   4.754   0.266
66661W        W38987  14.788  16.217   4.155
66662W        W38988  11.755  39.474   4.610
66663W        W38989  30.158  21.221   4.670
66664W        W38990  30.034  34.594  11.429
66665W        W38991  16.640  38.042  12.525
66666W        W38992  21.716  37.969   0.289
66667W        W38993  15.657  26.629  11.431
66668W        W38994  43.005  36.378  11.944
66669W        W38995  30.533  39.838   4.749
66670W        W38996  39.381  33.989   3.318
66671W        W38997  43.354  16.799   4.290
66672W        W38998  38.416  43.010   1.768
66673W        W38999  43.354   9.392   1.746
66674W        W39000   5.331  34.566   2.749
66675W        W39001  20.686  12.653  14.761
66676W        W39002  33.476  29.138   2.851
66677W        W39003  39.396  41.960   1.877
66678W        W39004  14.228  37.412   3.739
66679W        W39005  35.518  13.670  12.572
66680W        W39006   7.313   7.411   2.221
66681W        W39007   7.790  44.277   2.775
66682W        W39008  41.867  26.478   4.300
66683W        W39009  27.611  14.134   0.854
66684W        W39010  24.147  22.223   4.349
66685W        W39011  11.363  38.914  12.970
66686W        W39012  23.036  32.919  12.406
66687W        W39013  22.110   1.439  13.912
66688W        W39014  10.336   4.401   0.748
66689W        W39015  31.047  33.091   3.798
66690W        W39016  28.626   6.303  10.015
66691W        W39017  35.896  39.808  14.417
66692W        W39018   3.264  14.323   3.864
66693W        W39019  36.572  12.616  13.852
66694W        W39020   8.173   1.312   0.928
66695W        W39021  30.653  39.423  13.982
66696W        W39022  31.024  38.341  13.468
66697W        W39023  17.712   1.860  14.762
66698W        W39024  26.009  13.600  14.309
66699W        W39025  31.904  14.330   1.356
66700W        W39026  33.584  36.496  10.644
66701W        W39027  44.314  41.027  11.553
66702W        W39028  10.642  18.635   0.805
66703W        W39029   1.814  13.333  12.040
66704W        W39030  21.040   5.391  14.787
66705W        W39031   6.343   1.274   2.309
66706W        W39032  17.676  18.705   1.216
66707W        W39033  26.508  31.939  11.091
66708W        W39034  25.072  12.833  12.934
66709W        W39035   6.699   9.746  11.529
66710W        W39036  22.068  15.315   4.184
66711W        W39037  15.595  34.093  12.345
66712W        W39038  39.489  34.988  12.455
66713W        W39039  13.130  43.766  12.527
66714W        W39040  17.648  18.625  11.541
66715W        W39041  28.997  42.898   3.309
66716W        W39042  26.609   6.387  13.038
66717W        W39043  12.852  39.831  10.508
66718W        W39044   4.405   2.831  14.995
66719W        W39045  27.055  28.172  12.881
66720W        W39046  40.328  23.066  13.466
66721W        W39047  23.561  25.099   4.317
66722W        W39048   6.804   9.247  12.880
66723W        W39049  34.061  36.948  11.004
66724W        W39050  26.010  11.776   3.317
66725W        W39051   0.380  44.966   2.213
66726W        W39052  35.974   9.303   4.627
66727W        W39053  37.061  37.007  11.070
66728W        W39054  32.437  15.176  12.365
66729W        W39055  20.557   4.829  12.048
66730W        W39056  41.524  36.406  12.063
66731W        W39057  29.951  27.150   4.208
66732W        W39058  28.958  21.656  12.464
66733W        W39059   8.779  10.185  13.805
66734W        W39060  12.792  28.132  13.517
66735W        W39061   8.167   2.294  13.942
66736W        W39062  20.689  18.735   0.313
66737W        W39063  25.498  27.667  12.382
66738W        W39064  44.488  43.969   4.671
66739W        W39065  29.509  10.307   0.939
66740W        W39066  16.148   7.777  13.442
66741W        W39067   7.176  12.151  10.633
66742W        W39068  29.157  14.832   2.816
66743W        W39069   1.373  10.271  13.400
66744W        W39070  38.877   4.783  11.531
66745W        W39071  38.565  29.490  13.516
66746W        W39072  14.670  12.616   4.685
66747W        W39073  43.801   7.336  10.643
66748W        W39074   9.313   7.891  12.880
66749W        W39075  17.178  39.851  13.822
66750W        W39076   7.291  23.166  13.425
66751W        W39077  17.610  26.079   0.940
66752W        W39078  17.159  12.776   4.811
66753W        W39079  42.993  11.690   0.409
66754W        W39080   3.436  15.592   4.260
66755W        W39081   7.672   9.739  14.946
66756W        W39082  35.873   5.224   4.654
66757W        W39083  24.115  25.511  12.067
66758W        W39084  19.607  17.690   2.818
66759W        W39085  25.001  18.582   2.758
66760W        W39086  10.358  14.095  14.786
66761W        W39087  22.232  27.945  12.466
66762W        W39088   0.896  41.394   1.879
66763W        W39089  25.671  31.997   2.290
66764W        W39090   2.784  21.107   0.401
66765W        W39091   9.253  16.772  11.516
66766W        W39092  11.261  44.460   1.321
66767W        W39093  40.394  22.035   0.957
66768W        W39094  34.911  20.154   3.714
66769W        W39095  13.300  15.637  11.964
66770W        W39096  34.929  23.731   3.320
66771W        W39097  28.468  21.520   4.275
66772W        W39098  43.952   1.402   4.271
66773W        W39099  40.029  34.889   4.169
66774W        W39100   3.839  12.771   5.085
66775W        W39101  35.042  30.111  13.932
66776W        W39102   2.266  28.045  13.338
66777W        W39103   3.221  35.860   3.684
66778W        W39104   6.714  24.978   0.302
66779W        W39105  14.272  29.146  12.044
66780W        W39106  33.524  32.042  12.504
66781W        W39107   0.397  30.533   2.271
66782W        W39108  21.249  30.100  10.578
66783W        W39109  26.489  31.899  13.998
66784W        W39110  22.660  42.484   0.877
66785W        W39111  25.034   9.172   0.770
66786W        W39112  37.360  41.505   1.288
66787W        W39113  18.164  16.297   0.928
66788W        W39114   0.466  23.104  11.865
66789W        W39115  32.427  39.441   1.264
66790W        W39116  27.960   7.294   2.342
66791W        W39117  17.089  26.490   0.250
66792W        W39118  36.922   5.275  12.888
66793W        W39119  10.750   5.717   4.620
66794W        W39120  28.099  35.583   0.253
66795W        W39121   6.276  17.649  13.460
66796W        W39122  16.074  11.146  12.571
66797W        W39123  15.759  32.061   0.868
66798W        W39124   8.314  15.677   2.196
66799W        W39125  40.847  44.786   1.359
66800W        W39126   7.204  11.152  13.968
66801W        W39127  34.384   5.926   3.162
66802W        W39128  25.598  17.575  13.033
66803W        W39129  11.708  25.490   5.119
66804W        W39130  16.718  40.944   2.838
66805W        W39131  16.267  29.574   1.287
66806W        W39132   8.682  29.131   9.939
66807W        W39133  13.317   4.704  12.957
66808W        W39134  30.065  15.607  12.497
66809W        W39135  21.066   0.746   5.288
66810W        W39136  41.388  31.074  12.883
66811W        W39137  22.571  17.258  14.828
66812W        W39138  25.562  10.183   1.407
66813W        W39139  40.406  14.786  13.509
66814W        W39140  23.149  33.436  14.816
66815W        W39141   9.643  32.631   2.363
66816W        W39142  38.334  44.263   1.367
66817W        W39143  15.627  22.140   4.217
66818W        W39144  10.634  40.860   2.784
66819W        W39145  43.428   4.352  13.513
66820W        W39146   0.287  14.737  11.395
66821W        W39147  17.798  40.519  13.912
66822W        W39148   1.413   2.878  13.445
66823W        W39149   0.831  35.553   4.303
66824W        W39150  30.062  26.458   2.255
66825W        W39151  27.184  12.233   2.241
66826W        W39152  41.894  35.359   0.306
66827W        W39153  19.594  20.588   2.787
66828W        W39154  44.950   6.231  13.791
66829W        W39155   3.459  21.594  11.856
66830W        W39156  43.468  14.230  14.492
66831W        W39157   9.676  26.108   0.256
66832W        W39158   2.391  29.573  12.570
66833W        W39159  34.468  26.182   0.910
66834W        W39160  36.013   0.781  13.857
66835W        W39161   0.821   3.391   1.751
66836W        W39162  38.060  36.592  12.449
66837W        W39163  19.633  10.715   1.257
66838W        W39164   3.886  32.997   3.330
66839W        W39165  43.855   3.403  13.364
66840W        W39166  15.809  16.716  12.513
66841W        W39167  44.961  40.825  14.965
66842W        W39168  40.336  42.912   4.769
66843W        W39169   4.753  37.375   1.777
66844W        W39170  18.068  11.830  11.886
66845W        W39171  22.239   7.328  14.500
66846W        W39172   4.417  43.791  13.809
66847W        W39173   8.797  33.455  12.989
66848W        W39174  44.412   5.395   4.209
66849W        W39175  13.619  21.716  13.936
66850W        W39176  26.206  39.547   1.282
66851W        W39177  29.604  36.852  12.392
66852W        W39178   6.803  25.530  13.943
66853W        W39179  24.001   3.410   4.742
66854W        W39180   0.769  18.055  13.346
66855W        W39181  21.042  18.602   2.386
66856W        W39182  16.175  32.073  14.464
66857W        W39183   9.182   5.251  12.549
66858W        W39184  44.944  19.211  13.821
66859W        W39185   5.395  44.383  13.398
66860W        W39186  33.447  38.051   4.155
66861W        W39187  28.531  17.141  12.932
66862W        W39188  10.682  41.856  11.056
66863W        W39189  22.501  39.050  11.525
66864W        W39190  24.224  43.916   2.243
66865W        W39191  17.719  27.983  13.406
66866W        W39192   5.314   2.879  14.294
66867W        W39193   4.802  19.193   2.743
66868W        W39194  12.309  31.971  11.946
66869W        W39195  15.093  15.625   3.358
66870W        W39196  39.488  20.094  10.614
66871W        W39197  34.113  34.377  12.877
66872W        W39198  44.360  34.925  13.940
66873W        W39199   6.812  15.660  14.780
66874W        W39200  44.277   6.893  12.537
66875W        W39201  35.569  38.859   0.944
66876W        W39202  36.934  15.613  11.888
66877W        W39203  15.601  35.470   3.780
66878W        W39204   8.696   0.804   2.746
66879W        W39205  37.574  32.103   0.456
66880W        W39206  28.673   0.466   2.232
66881W        W39207  13.183  20.228   4.804
66882W        W39208  40.929   1.355   1.429
66883W        W39209  19.700  16.611   4.291
66884W        W39210  12.312   2.950   0.894
66885W        W39211  13.759  24.987  12.863
66886W        W39212  36.411  34.071  10.914
66887W        W39213  43.506   5.725  13.916
66888W        W39214  15.308  32.581  10.890
66889W        W39215  28.486   8.743  11.444
66890W        W39216  31.477  28.529   0.274
66891W        W39217  38.831  18.609  13.327
66892W        W39218  26.123  34.937   2.787
66893W        W39219  37.966  27.140   1.894
66894W        W39220  14.262   1.450  13.921
66895W        W39221  27.196   7.254  14.292
66896W        W39222   2.421  33.986  11.521
66897W        W39223  37.906   6.398   1.379
66898W        W39224  30.039   7.799  14.941
66899W        W39225  43.971  13.305   3.246
66900W        W39226  28.482  30.594  14.765
66901W        W39227  20.161  38.422  14.478
66902W        W39228  35.381  16.631  12.060
66903W        W39229   4.406  36.976  12.944
66904W        W39230  34.558   2.413   4.294
66905W        W39231  11.334  25.610   4.299
66906W        W39232  32.499  19.540   5.102
66907W        W39233  18.776  34.933  13.471
66908W        W39234  10.153  19.779  14.762
66909W        W39235  17.650  19.726  11.110
66910W        W39236  23.080  12.786  13.846
66911W        W39237   3.739  40.976  11.882
66912W        W39238  34.094  17.278   2.354
66913W        W39239   9.268  14.158   0.336
66914W        W39240  21.149  37.019   3.299
66915W        W39241  26.150   0.758   4.758
66916W        W39242  36.395   6.274  10.905
66917W        W39243  44.904  29.932   4.307
66918W        W39244   3.280  44.445  14.015
66919W        W39245  29.501  23.182   2.275
66920W        W39246  22.551  11.147  14.493
66921W        W39247  24.067  33.004  12.923
66922W        W39248   5.422  32.012   4.281
66923W        W39249  27.513  13.638   3.333
66924W        W39250  20.233   8.324  14.392
66925W        W39251   0.920  44.838  13.497
66926W        W39252  10.693  13.209   4.242
66927W        W39253  41.379  36.970   1.707
66928W        W39254  24.501  40.976  10.434
66929W        W39255  15.307  10.692  14.366
66930W        W39256  15.127  38.868  12.996
66931W        W39257  11.784   0.300  10.456
66932W        W39258  39.369  20.204   1.858
66933W        W39259  39.845  27.964  11.075
66934W        W39260  44.293  18.783   2.828
66935W        W39261  11.235  14.162  14.879
66936W        W39262   4.762  42.410  10.452
66937W        W39263  35.397  19.126  11.947
66938W        W39264  25.603  12.330   3.868
66939W        W39265  29.927  10.879   0.333
66940W        W39266   1.443   8.197  12.032
66941W        W39267  42.783   6.228   4.633
66942W        W39268  27.060  39.876  10.898
66943W        W39269  31.625  44.952  13.501
66944W        W39270  21.027  20.556  13.058
66945W        W39271  22.203  17.226   3.277
66946W        W39272  17.800  33.602  13.871
66947W        W39273   4.897  14.652  11.449
66948W        W39274   5.367  44.474   2.246
66949W        W39275  37.872   9.776   4.701
66950W        W39276  43.490  40.473  14.983
66951W        W39277  28.442  16.658   4.181
66952W        W39278  23.154  19.124   1.728
66953W        W39279  37.388   3.843   0.349
66954W        W39280  40.949  11.761  14.353
66955W        W39281  14.156  34.006   2.242
66956W        W39282  42.455   4.703   3.812
66957W        W39283  14.679  29.126  12.421
66958W        W39284  28.474  39.518  14.990
66959W        W39285  36.584   2.851  12.056
66960W        W39286   0.904  19.539   1.888
66961W        W39287  43.491  13.199  14.448
66962W        W39288  14.622  35.999   2.276
66963W        W39289  21.676  30.562   3.809
66964W        W39290  16.634  28.450   3.710
66965W        W39291  26.988  10.838   1.419
66966W        W39292  32.117  28.125   3.212
66967W        W39293  11.360  15.202   2.890
66968W        W39294  33.023   5.353   3.665
66969W        W39295  24.146  25.659  14.285
66970W        W39296  39.403  12.726   1.888
66971W        W39297  20.648  17.672  13.470
66972W        W39298  31.935  18.757  13.486
66973W        W39299  34.925  11.819   2.243
66974W        W39300   9.648  32.933   1.252
66975W        W39301  34.515  12.352   3.777
66976W        W39302  33.456  21.649  14.961
66977W        W39303   1.738  32.107   3.672
66978W        W39304   2.428  11.695   0.754
66979W        W39305  33.588  44.437   2.883
66980W        W39306  17.721  33.943  13.798
66981W        W39307  40.995  28.978   0.895
66982W        W39308  16.725  25.176   2.799
66983W        W39309   9.330  35.526   1.861
66984W        W39310  12.156  29.171   4.291
66985W        W39311   0.383  18.089  14.473
66986W        W39312  31.977  21.597  10.986
66987W        W39313  34.477  39.868  14.315
66988W        W39314  29.055  39.881   4.284
66989W        W39315  33.996  29.551  11.517
66990W        W39316   6.768  38.965   1.893
66991W        W39317  18.577  17.640   4.814
66992W        W39318  12.723   8.754   3.197
66993W        W39319  10.816  40.470   3.805
66994W        W39320   7.815  34.481  13.818
66995W        W39321  23.993  37.938   0.966
66996W        W39322   3.353  11.174  11.391
66997W        W39323   6.717  17.114   1.428
66998W        W39324  28.609  10.321  13.002
66999W        W39325  35.474  14.120  13.952
67000W        W39326  40.324  14.759  14.318
67001W        W39327  19.774   6.328  13.458
67002W        W39328  22.060  43.465   0.418
67003W        W39329  24.009  32.440  12.929
67004W        W39330  31.640  16.744   0.799
67005W        W39331  21.732  12.794  12.385
67006W        W39332  19.546   1.814   2.335
67007W        W39333  34.964  25.695  14.917
67008W        W39334  18.098  30.045  11.463
67009W        W39335  27.002  10.218   1.730
67010W        W39336   6.703   3.767   0.891
67011W        W39337  23.534  35.381  13.054
67012W        W39338  43.896  24.112  14.958
67013W        W39339   5.727  37.376  12.054
67014W        W39340  17.697  30.633   3.740
67015W        W39341  13.773   0.795   3.212
67016W        W39342  27.573  21.633  12.013
67017W        W39343  12.165  26.081   1.328
67018W        W39344  25.025  41.044  14.996
67019W        W39345  40.822  13.119  12.557
67020W        W39346   1.868   8.821  13.892
67021W        W39347   0.907  42.475   4.807
67022W        W39348   6.890   6.201  12.414
67023W        W39349  25.120  25.131  14.423
67024W        W39350  41.416   3.418   1.314
67025W        W39351   7.774   4.707  14.491
67026W        W39352  34.961  31.410   1.818
67027W        W39353  27.666  20.266  11.379
67028W        W39354  37.378   4.932  11.923
67029W        W39355  19.561  23.992  12.860
67030W        W39356  37.049   8.873  10.538
67031W        W39357  30.013  28.461   1.750
67032W        W39358  10.153   4.399   2.780
67033W        W39359   0.333  40.041   0.811
67034W        W39360  35.547   3.218  11.492
67035W        W39361  40.034  34.960   1.929
67036W        W39362  16.640  29.921  12.465
67037W        W39363  34.614  41.798   2.774
67038W        W39364  27.669  24.555  12.996
67039W        W39365  11.230  18.596   0.896
67040W        W39366  21.162  40.974   3.870
67041W        W39367  42.518   9.368   0.326
67042W        W39368  36.564  38.856   2.848
67043W        W39369  20.665  44.990   1.705
67044W        W39370  36.967  44.364   0.959
67045W        W39371  28.185  31.453  10.584
67046W        W39372  40.547  41.467   2.315
67047W        W39373  30.417   8.218   4.809
67048W        W39374   2.289  35.945   2.406
67049W        W39375  43.922  19.077   1.379
67050W        W39376  38.830  30.543  11.077
67051W        W39377  19.595  37.506   2.669
67052W        W39378  36.992  39.493  10.977
67053W        W39379  13.725  23.643   4.604
67054W        W39380   5.310   2.401   2.699
67055W        W39381   0.389  26.086  11.560
67056W        W39382  22.512   7.752   0.759
67057W        W39383  21.032  41.443  10.426
67058W        W39384  14.276  16.772   4.115
67059W        W39385  41.795   2.752  12.091
67060W        W39386  27.606  33.519   2.357
67061W        W39387  43.899  40.453  12.561
67062W        W39388  34.578   9.345  13.887
67063W        W39389   9.794  40.025   3.785
67064W        W39390   4.349  36.069  12.978
67065W        W39391  11.193  13.822   1.766
67066W        W39392  22.040  11.642  13.813
67067W        W39393  25.553  30.500  13.512
67068W        W39394  36.024  44.973  12.388
67069W        W39395  39.940  30.471  13.038
67070W        W39396  31.556  17.210   1.337
67071W        W39397  14.321  29.149   0.456
67072W        W39398  15.677   4.733   3.276
67073W        W39399  31.060  39.937   0.882
67074W        W39400   7.311  28.012   1.839
67075W        W39401  26.007  37.929  14.302
67076W        W39402  37.876   2.957  12.057
67077W        W39403  43.282  37.962  11.556
67078W        W39404  14.610  25.035  12.484
67079W        W39405  32.614  33.395   0.265
67080W        W39406  21.614  30.013  11.978
67081W        W39407   2.254  34.112   0.425
67082W        W39408  27.076  40.876   3.776
67083W        W39409  37.981  24.165  10.617
67084W        W39410  38.061  19.554  13.962
67085W        W39411  20.530  30.035   4.278
67086W        W39412  23.034  27.602   1.701
67087W        W39413  29.581  32.089   1.850
67088W        W39414  34.894  13.607   3.851
67089W        W39415  28.504  41.367   4.296
67090W        W39416  10.311   2.283  13.460
67091W        W39417  25.481   4.772  13.330
67092W        W39418  13.656  17.652   4.296
67093W        W39419  24.014  44.828   2.817
67094W        W39420  39.324  24.105  12.068
67095W        W39421   2.762  17.189  14.371
67096W        W39422   7.241  30.446   0.311
67097W        W39423   7.833  37.057   2.352
67098W        W39424   8.691  12.127  14.868
67099W        W39425  15.596  21.207   0.954
67100W        W39426  22.538  29.433  11.380
67101W        W39427  22.669  36.403   2.295
67102W        W39428  32.910  30.048  14.837
67103W        W39429  34.023  20.637   2.187
67104W        W39430  17.237  19.094   3.176
67105W        W39431  15.628  14.198  13.861
67106W        W39432  25.149  18.720   3.300
67107W        W39433  24.655  38.480   5.296
67108W        W39434   7.288  22.216   3.352
67109W        W39435  20.768  39.889   4.150
67110W        W39436  28.117  22.623   5.306
67111W        W39437  43.393  10.698   4.284
67112W        W39438  20.719  18.199   3.308
67113W        W39439  43.391  12.123  14.474
67114W        W39440   4.292  12.826   0.469
67115W        W39441  13.834   9.195  14.015
67116W        W39442  33.885  10.192   1.383
67117W        W39443  40.378   1.299   0.329
67118W        W39444  21.740   3.755  12.093
67119W        W39445  37.494  29.072   4.334
67120W        W39446  28.118  11.367   3.711
67121W        W39447  11.234  12.636   1.734
67122W        W39448  16.128  14.174   0.461
67123W        W39449  13.228   2.754  13.312
67124W        W39450  13.310  10.274  11.963
67125W        W39451  41.304   0.934  10.643
67126W        W39452   2.925   4.302  12.958
67127W        W39453  34.930  38.008  13.822
67128W        W39454  34.068  12.142   3.827
67129W        W39455  40.417  17.558   2.683
67130W        W39456  39.028  31.503  14.949
67131W        W39457  15.757   1.773   4.745
67132W        W39458  14.636  12.821  13.538
67133W        W39459   1.959  10.274  12.946
67134W        W39460  23.993  37.982  11.584
67135W        W39461  32.092   8.356   1.698
67136W        W39462   0.306   5.383   4.657
67137W        W39463  19.729   0.492  11.384
67138W        W39464   0.375  24.679   0.908
67139W        W39465  16.747  42.854   0.824
67140W        W39466  43.998  40.512   2.418
67141W        W39467   7.368  39.924  14.988
67142W        W39468  24.094  31.525  12.372
67143W        W39469  41.885  32.453  13.441
67144W        W39470  36.459   3.878  12.430
67145W        W39471  15.747   9.728   0.394
67146W        W39472  19.676  13.777   1.254
67147W        W39473  41.794  28.618  12.088
67148W        W39474  19.124  28.452  11.910
67149W        W39475   2.432  44.383  11.561
67150W        W39476  28.016  18.214  13.795
67151W        W39477  34.574  44.776   1.264
67152W        W39478  19.244  18.581  12.922
67153W        W39479   0.803  28.174  10.085
67154W        W39480   8.667  39.528   2.805
67155W        W39481  22.693  40.524   1.225
67156W        W39482  38.982  36.952   3.289
67157W        W39483  18.736  28.641   0.455
67158W        W39484  37.443  16.135  14.285
67159W        W39485  23.996  33.426   2.264
67160W        W39486  32.923   0.839  11.383
67161W        W39487  37.530  38.536  13.403
67162W        W39488  21.643  27.459  13.513
67163W        W39489  10.283  38.991  10.155
67164W        W39490   0.281  26.108   4.751
67165W        W39491  30.502  28.065  13.312
67166W        W39492  11.129  25.526   2.874
67167W        W39493  44.832  14.777   2.794
67168W        W39494  13.837  23.134  11.421
67169W        W39495  28.653  26.982  14.007
67170W        W39496   6.363  38.552  11.889
67171W        W39497  27.508  27.618   0.807
67172W        W39498  29.955  11.743  12.014
67173W        W39499  33.557  12.260   1.253
67174W        W39500  16.253  12.664   0.840
67175W        W39501  40.514   7.778   1.424
67176W        W39502  23.172  39.999   3.860
67177W        W39503  22.211  18.294   1.273
67178W        W39504   7.365   5.420   3.678
67179W        W39505  25.008  30.033   1.389
67180W        W39506   0.820  41.318   0.475
67181W        W39507  13.809  31.916  12.031
67182W        W39508  25.118  35.535   2.683
67183W        W39509  29.085  16.084  14.954
67184W        W39510   0.911  35.516  12.542
67185W        W39511  21.025  25.667   4.235
67186W        W39512  12.163   8.795  14.878
67187W        W39513   4.728   7.766  11.872
67188W        W39514  21.526  34.574   3.689
67189W        W39515   1.852  12.153  11.915
67190W        W39516  12.351  19.177   0.834
67191W        W39517   2.303   9.225  14.497
67192W        W39518  30.506  40.392   3.386
67193W        W39519   7.862  16.095   4.608
67194W        W39520  17.131  16.179  11.575
67195W        W39521  11.360  19.658   2.733
67196W        W39522   4.821  34.381   4.775
67197W        W39523  37.402  39.368  10.544
67198W        W39524  17.720  17.691  11.492
67199W        W39525  37.445  18.570  13.473
67200W        W39526  25.145  10.781   1.248
67201W        W39527  31.957  16.787  10.604
67202W        W39528  32.936  24.622  13.950
67203W        W39529   8.691  12.307   0.931
67204W        W39530  37.555   3.770  14.391
67205W        W39531  40.442   6.842   2.319
67206W        W39532  11.859  35.472   4.673
67207W        W39533  33.949  37.022   2.863
67208W        W39534  39.506  38.341   1.856
67209W        W39535  24.005   2.797   1.818
67210W        W39536   5.925   7.409   4.191
67211W        W39537   5.920  41.295   4.815
67212W        W39538   7.322   2.281   2.337
67213W        W39539  11.662  30.157   3.307
67214W        W39540  20.663  21.226   1.759
67215W        W39541  29.064  15.668  12.925
67216W        W39542  32.584  21.079   0.293
67217W        W39543  12.752  37.026   1.810
67218W        W39544   9.865  18.557  11.967
67219W        W39545  35.597  38.924  13.462
67220W        W39546   6.324   8.405  10.513
67221W        W39547  19.595  40.801   0.456
67222W        W39548  17.212  17.271   2.852
67223W        W39549  13.128  15.766   5.200
67224W        W39550   4.925   9.888  11.405
67225W        W39551   4.724  39.039  10.899
67226W        W39552  43.450  12.805   9.957
67227W        W39553  28.586  35.974   4.157
67228W        W39554  17.212  24.558   1.734
67229W        W39555   1.842  44.815  14.459
67230W        W39556  27.479  44.814   4.136
67231W        W39557  27.494   3.392  11.923
67232W        W39558   2.798  40.488  13.441
67233W        W39559   6.860  30.116   3.632
67234W        W39560  31.938  38.889  10.632
67235W        W39561  21.215  21.677   2.274
67236W        W39562   0.753  17.082  13.509
67237W        W39563  11.161  28.457  11.443
67238W        W39564  39.847  12.705   4.670
67239W        W39565  29.588  43.338  13.831
67240W        W39566  37.974   7.671   2.280
67241W        W39567  42.335  40.880   0.736
67242W        W39568  20.590  38.404  13.448
67243W        W39569  21.735  11.778  13.480
67244W        W39570  21.566   4.357  12.848
67245W        W39571  36.057  10.877  14.352
67246W        W39572  14.813  17.765   2.268
67247W        W39573  14.171  40.533   1.269
67248W        W39574  19.638  29.519  13.335
67249W        W39575  32.084  40.980   0.261
67250W        W39576  32.129  25.060  11.084
67251W        W39577  20.099   6.827  12.022
67252W        W39578   2.952   8.354  11.449
67253W        W39579  23.021  28.448   2.234
67254W        W39580  11.678  23.132  13.451
67255W        W39581   5.317  39.899  12.982
67256W        W39582  32.498  21.218  11.948
67257W        W39583   4.403   1.824  13.338
67258W        W39584  11.858   7.693   0.373
67259W        W39585  43.411   3.854   2.879
67260W        W39586  44.932  22.073  11.086
67261W        W39587  25.655  15.323   5.592
67262W        W39588   2.269  29.519   9.922
67263W        W39589  33.514  38.512  14.924
67264W        W39590  10.161  42.018  13.532
67265W        W39591  31.449  26.667   4.777
67266W        W39592   7.233  29.596  13.456
67267W        W39593   1.351  36.084  12.535
67268W        W39594  19.706   7.901  10.461
67269W        W39595  28.435  38.484  11.433
67270W        W39596  27.172  43.864  11.074
67271W        W39597   2.854  21.682  10.026
67272W        W39598  17.753  19.041  14.330
67273W        W39599  28.577  30.453  14.014
67274W        W39600  34.022  36.482  13.421
67275W        W39601  11.280  42.373  12.038
67276W        W39602  31.419  32.469   0.940
67277W        W39603  16.603  27.604  14.872
67278W        W39604  27.974   6.406   1.360
67279W        W39605  42.947  43.849  12.021
67280W        W39606   5.267  19.282   1.224
67281W        W39607   8.314  34.061  11.549
67282W        W39608  31.490  34.989  13.933
67283W        W39609  37.991  32.090   0.882
67284W        W39610  22.715  38.882  12.922
67285W        W39611  36.047  15.604   0.924
67286W        W39612  29.494  36.405   0.841
67287W        W39613  27.180  13.212  14.857
67288W        W39614  39.922  32.477   2.737
67289W        W39615  39.900  27.013   0.746
67290W        W39616   0.473  40.454  12.460
67291W        W39617  28.547  23.131  10.900
67292W        W39618   6.191  36.099   0.269
67293W        W39619  35.889  30.062   0.813
67294W        W39620  34.394  19.283   2.224
67295W        W39621  16.808   9.688  13.529
67296W        W39622  32.897  37.418   1.344
67297W        W39623  19.184  15.682   0.401
67298W        W39624   9.729   3.351  14.352
67299W        W39625  25.971  37.044   0.288
67300W        W39626  34.971  15.798  10.593
67301W        W39627  25.677  26.567  14.402
67302W        W39628   9.278   6.392   2.671
67303W        W39629  19.546  28.575  12.344
67304W        W39630  12.215  29.972  13.897
67305W        W39631   6.686  10.823  14.434
67306W        W39632  35.486  15.121  11.386
67307W        W39633  27.519   1.406   4.738
67308W        W39634   3.939  32.470  14.789
67309W        W39635  17.211  11.367  13.420
67310W        W39636   3.263   4.232  12.839
67311W        W39637  20.763  43.991   1.927
67312W        W39638  16.760  38.035  13.890
67313W        W39639  18.147  13.751  13.997
67314W        W39640  20.034  20.562  11.471
67315W        W39641  34.542  16.317   1.268
67316W        W39642  20.090  32.124   4.765
67317W        W39643   5.277  28.544   3.662
67318W        W39644  17.652  37.936  12.893
67319W        W39645  10.647  11.306  11.892
67320W        W39646  17.745   6.402   0.766
67321W        W39647  44.874   1.418  13.536
67322W        W39648  34.896  11.731   1.230
67323W        W39649   8.685  39.920  11.075
67324W        W39650   2.766  35.428   0.926
67325W        W39651  11.270   7.670   3.807
67326W        W39652  37.340  26.035  12.375
67327W        W39653  33.056  12.828   4.206
67328W        W39654  34.483   6.830   2.364
67329W        W39655   3.312  44.867   1.351
67330W        W39656   6.862   8.672   1.722
67331W        W39657  27.658  29.072   5.217
67332W        W39658  11.806  44.847  11.021
67333W        W39659  40.006  19.651  11.519
67334W        W39660  29.607  19.041  14.809
67335W        W39661  32.083  14.683  13.379
67336W        W39662  12.309  18.209   3.170
67337W        W39663  15.616  36.566   4.222
67338W        W39664  20.713   7.300  11.041
67339W        W39665  42.780  24.589   0.404
67340W        W39666   2.816  11.686   0.244
67341W        W39667  29.475  20.574   4.802
67342W        W39668  17.175  42.885   0.852
67343W        W39669  13.828  42.346   4.221
67344W        W39670  23.516   5.306  12.989
67345W        W39671  28.019   4.739   0.375
67346W        W39672   5.791  42.870   0.916
67347W        W39673  20.605  27.454  11.126
67348W        W39674  40.820  20.546   4.695
67349W        W39675  16.226  41.514   1.424
67350W        W39676  43.789  44.368   4.646
67351W        W39677  19.777   5.831  12.897
67352W        W39678  26.109  33.048  10.498
67353W        W39679  42.966  29.960   3.250
67354W        W39680  24.132   3.737  11.443
67355W        W39681   3.345   8.205  14.510
67356W        W39682  28.454  10.141   2.887
67357W        W39683   9.781  27.542  14.980
67358W        W39684  15.319   2.840  13.512
67359W        W39685  11.727  36.920   4.822
67360W        W39686  41.985  31.442  10.557
67361W        W39687   3.247   5.316   3.670
67362W        W39688   2.782  12.175  12.474
67363W        W39689   8.371   8.783   2.223
67364W        W39690  32.505   9.308  10.583
67365W        W39691  13.746   9.703  13.986
67366W        W39692  22.138  44.001  12.971
67367W        W39693  19.104  38.059   0.454
67368W        W39694  13.635  14.313   2.332
67369W        W39695  41.485  20.675  11.967
67370W        W39696  14.801  26.124  10.914
67371W        W39697   8.803  39.933   0.755
67372W        W39698  26.133  42.390  14.939
67373W        W39699  21.027   6.414  10.478
67374W        W39700  42.301   9.805  13.834
67375W        W39701  34.954   1.243  11.563
67376W        W39702  29.976  38.932  13.959
67377W        W39703  11.678  10.241  14.294
67378W        W39704  18.172  21.561  11.971
67379W        W39705  32.985   3.257  14.334
67380W        W39706   8.754  22.062  11.901
67381W        W39707  33.520   7.370  11.123
67382W        W39708  16.780   4.255  13.013
67383W        W39709  33.399  12.622  14.347
67384W        W39710  36.983   5.336  11.093
67385W        W39711  43.001  36.565   3.766
67386W        W39712  38.347  13.672   4.264
67387W        W39713  17.216  13.337   3.268
67388W        W39714  21.227   1.473   1.927
67389W        W39715  34.964  37.832   3.644
67390W        W39716   2.416  43.844  11.909
67391W        W39717  31.139  39.886   4.712
67392W        W39718  19.667  34.570  13.048
67393W        W39719   3.745  35.566  12.044
67394W        W39720  44.401  12.272  12.538
67395W        W39721  17.143  23.566  11.490
67396W        W39722  44.397   9.866  12.364
67397W        W39723  26.046   1.443  11.538
67398W        W39724   3.752  19.681   3.185
67399W        W39725  24.228  16.711  13.050
67400W        W39726  24.698  42.321   4.633
67401W        W39727  40.398  10.328  11.911
67402W        W39728  42.339   3.340   5.295
67403W        W39729  30.091  10.723  12.831
67404W        W39730   4.415   8.254   3.703
67405W        W39731  30.054  32.076  11.404
67406W        W39732  34.580  19.270   4.618
67407W        W39733   6.773  13.203  12.030
67408W        W39734  31.558  38.884  11.950
67409W        W39735  38.403  32.458  11.383
67410W        W39736  31.082  23.669   0.344
67411W        W39737   9.349   2.246  11.412
67412W        W39738  43.013  32.544   2.206
67413W        W39739  22.075   8.274  14.885
67414W        W39740  40.820   4.921   4.296
67415W        W39741  44.761  40.382  10.565
67416W        W39742  17.289   0.303   1.364
67417W        W39743  31.539   3.909   2.677
67418W        W39744   6.782  23.206   0.480
67419W        W39745  34.053   2.323  12.391
67420W        W39746  40.420  22.665  14.981
67421W        W39747  27.608  44.952  11.068
67422W        W39748  18.087   3.905   4.174
67423W        W39749  21.641   7.732  14.781
67424W        W39750  17.620  29.974   3.701
67425W        W39751  34.911  38.393   0.910
67426W        W39752  16.262  12.342   0.827
67427W        W39753  17.724  17.157  14.817
67428W        W39754  42.365   6.754   1.703
67429W        W39755  14.095   4.915  14.450
67430W        W39756   6.886  27.167   0.273
67431W        W39757  17.639  21.091   4.232
67432W        W39758  27.959  33.420   1.364
67433W        W39759  40.408  42.961   3.270
67434W        W39760  22.570   0.772  14.278
67435W        W39761  14.163  27.468  13.491
67436W        W39762   1.237  13.256  14.380
67437W        W39763  44.814  36.519  13.802
67438W        W39764   3.822  25.541  11.522
67439W        W39765  15.272  39.057  12.533
67440W        W39766  10.217  35.878  13.802
67441W        W39767  21.531   5.265  10.462
67442W        W39768   2.834   4.924   2.827
67443W        W39769  26.182  17.094  11.397
67444W        W39770  31.973  33.480   3.669
67445W        W39771  17.635  37.976  10.532
67446W        W39772  22.118  32.061   3.734
67447W        W39773  33.019  16.272   3.285
67448W        W39774  29.541  15.684  12.037
67449W        W39775  42.383  16.158  14.005
67450W        W39776   7.823   7.866   0.736
67451W        W39777  14.790  23.529  12.427
67452W        W39778  16.157   0.920  11.439
67453W        W39779  40.928  24.560  10.591
67454W        W39780   4.387  43.379   4.269
67455W        W39781  37.449   0.834   1.797
67456W        W39782  33.894   4.920  12.972
67457W        W39783  10.794  10.200   2.736
67458W        W39784  19.672  37.936  12.976
67459W        W39785  35.418   9.660   1.915
67460W        W39786  41.860  27.571  13.318
67461W        W39787  30.971  20.031  12.434
67462W        W39788  13.724  44.976  12.558
67463W        W39789  29.938  32.114  13.357
67464W        W39790  14.102  18.206  10.985
67465W        W39791  24.676   7.760  11.887
67466W        W39792  31.135  40.007  12.094
67467W        W39793  10.675  17.581  13.042
67468W        W39794  35.074  38.418  14.939
67469W        W39795  16.762  21.754  12.019
67470W        W39796  37.949  41.989   3.339
67471W        W39797  13.183  22.742   0.738
67472W        W39798  34.066  28.041   2.726
67473W        W39799   5.930   5.884  13.823
67474W        W39800   8.332  27.595  10.995
67475W        W39801  20.644  44.856   2.298
67476W        W39802   1.865  10.196  11.954
67477W        W39803  15.819  43.005  14.766
67478W        W39804  33.052   8.894   2.366
67479W        W39805  39.866  30.092  12.065
67480W        W39806  32.616   3.254   2.898
67481W        W39807  11.760  15.216   1.264
67482W        W39808   9.828   0.789   2.874
67483W        W39809   0.431  40.977  13.513
67484W        W39810  15.668  11.703   3.238
67485W        W39811  41.511  37.072   3.860
67486W        W39812  37.449  20.691   4.830
67487W        W39813  39.551  37.541   4.749
67488W        W39814  13.688  30.426  13.987
67489W        W39815  16.767   9.385   3.761
67490W        W39816  30.614   5.728   0.734
67491W        W39817   7.214   4.736  12.075
67492W        W39818  11.342  17.710   1.307
67493W        W39819  10.384  22.019  10.530
67494W        W39820  25.562  40.351  13.987
67495W        W39821   3.770  25.541   4.790
67496W        W39822  42.327   0.384  11.387
67497W        W39823  36.387  28.436  12.497
67498W        W39824  30.599  12.826   3.216
67499W        W39825  27.061  37.926   2.722
67500W        W39826  16.299  42.917   2.331
67501W        W39827  31.440   0.968   2.696
67502W        W39828  34.943  15.308   4.790
67503W        W39829  29.430   5.777   3.281
67504W        W39830  16.726   8.884   5.294
67505W        W39831  30.933  35.890  14.481
67506W        W39832  22.579  23.521   4.702
67507W        W39833  29.504  39.538   2.189
67508W        W39834   4.343   6.285  13.819
67509W        W39835  25.103  29.460   4.300
67510W        W39836  15.170  33.453   1.297
67511W        W39837  10.151  10.842   1.386
67512W        W39838  25.992  34.117   4.340
67513W        W39839  42.016  43.771  12.448
67514W        W39840  41.938  29.946  14.800
67515W        W39841  15.641   6.708   1.248
67516W        W39842   5.214  30.620   3.713
67517W        W39843  34.423  44.908  12.963
67518W        W39844  18.239   1.950  14.971
67519W        W39845   7.183  33.934  10.973
67520W        W39846  40.850   5.377  13.425
67521W        W39847  43.279  43.000   4.610
67522W        W39848  18.642   5.779   4.258
67523W        W39849  34.528  32.562   2.304
67524W        W39850  32.520  34.955   4.342
67525W        W39851  39.047  42.837   4.775
67526W        W39852  33.102   4.876   4.684
67527W        W39853   5.812  35.360   3.296
67528W        W39854   9.770  15.770  10.420
67529W        W39855   6.365  22.188   4.233
67530W        W39856  10.298  12.148   5.193
67531W        W39857  29.950  14.793   1.908
67532W        W39858  23.555   1.826  13.340
67533W        W39859  41.533  16.225   3.808
67534W        W39860  35.528  16.266   2.324
67535W        W39861  43.347  27.681  10.888
67536W        W39862  37.529   6.855  13.870
67537W        W39863  26.052   7.866  14.783
67538W        W39864  11.206  17.242   2.409
67539W        W39865  32.545  26.597   0.770
67540W        W39866  24.218  33.905  13.330
67541W        W39867  39.935  12.332  10.507
67542W        W39868  11.158  38.428  14.462
67543W        W39869   4.363  15.304  14.508
67544W        W39870  28.122  21.108  12.866
67545W        W39871   9.214  24.678  14.446
67546W        W39872  24.024  15.192  14.769
67547W        W39873   0.881   5.434  11.935
67548W        W39874  13.678  29.563  13.395
67549W        W39875  34.466  19.779   4.785
67550W        W39876  31.475  29.475  13.341
67551W        W39877   5.892  34.548  13.060
67552W        W39878  29.444  26.607  12.012
67553W        W39879  33.385  12.628  12.890
67554W        W39880  37.468  17.629   1.722
67555W        W39881   5.859  20.066  11.030
67556W        W39882  21.242  32.589  12.537
67557W        W39883  18.719  32.417  14.343
67558W        W39884   9.799  14.660   2.866
67559W        W39885  37.003  34.589  11.918
67560W        W39886   9.238  18.239   4.238
67561W        W39887  34.119  33.467  12.054
67562W        W39888   4.860  22.666  11.457
67563W        W39889   4.415   8.764  14.031
67564W        W39890  22.505  41.536   0.955
67565W        W39891  42.782  42.498  11.594
67566W        W39892  39.005  18.693   4.211
67567W        W39893   2.950  27.638   4.609
67568W        W39894  10.689  24.544  13.408
67569W        W39895  44.836  31.082  10.637
67570W        W39896   4.707  31.572  12.056
67571W        W39897  37.982  10.297   2.807
67572W        W39898  31.057  28.058  10.145
67573W        W39899   2.893  43.309   3.701
67574W        W39900  34.564  40.844  12.889
67575W        W39901  33.895  43.897   3.659
67576W        W39902  33.389  41.898  14.765
67577W        W39903  42.490  21.657  13.829
67578W        W39904  21.109  30.631  13.409
67579W        W39905  35.446   5.732  14.344
67580W        W39906  14.304  41.811  12.457
67581W        W39907  35.539  40.910  11.980
67582W        W39908   2.277  20.564  11.476
67583W        W39909  37.553  30.460  12.397
67584W        W39910   4.708   9.330   1.395
67585W        W39911  24.094  20.679  13.377
67586W        W39912   2.963  12.721  13.872
67587W        W39913  42.287   6.205   4.248
67588W        W39914  36.539  37.895  12.490
67589W        W39915  33.998  27.681  13.024
67590W        W39916  32.426  14.335   1.434
67591W        W39917  26.071  37.438   0.888
67592W        W39918  15.275  32.045  12.377
67593W        W39919  14.734  27.146  13.519
67594W        W39920  27.001  17.153   2.417
67595W        W39921  40.306   6.878   1.832
67596W        W39922  13.341  11.753  14.284
67597W        W39923  30.959  35.073   1.760
67598W        W39924  20.065   5.371   2.729
67599W        W39925  22.736  20.721  14.443
67600W        W39926  37.409  22.652   4.646
67601W        W39927   5.863  17.798  14.931
67602W        W39928  44.852  28.123  12.373
67603W        W39929  14.336  37.369   2.396
67604W        W39930  44.329  29.081  12.511
67605W        W39931  35.050  38.334  11.904
67606W        W39932  42.329   7.905  11.445
67607W        W39933  29.104  33.573  12.494
67608W        W39934  27.997  36.012   4.219
67609W        W39935  43.938  41.456   2.363
67610W        W39936  10.682  30.975  11.505
67611W        W39937  23.698  19.274   3.705
67612W        W39938  15.653  37.000   1.879
67613W        W39939  42.783  14.732   5.252
67614W        W39940  38.849   5.925  12.517
67615W        W39941  27.016  22.221   2.318
67616W        W39942  35.852  22.207   3.190
67617W        W39943  41.827  15.755   1.768
67618W        W39944  27.635  19.658  14.942
67619W        W39945  17.140  13.336   1.231
67620W        W39946   0.384   7.884   0.945
67621W        W39947  13.639  35.089   4.824
67622W        W39948  32.953   2.822   0.271
67623W        W39949  34.431  42.952  11.439
67624W        W39950   3.308   4.835  11.057
67625W        W39951  18.631  36.897  14.009
67626W        W39952  37.859   2.961   4.725
67627W        W39953  11.757  23.677   2.703
67628W        W39954   1.891  32.893   3.846
67629W        W39955  25.487  19.068   2.668
67630W        W39956  40.884  34.513  12.884
67631W        W39957   6.790  11.744   0.736
67632W        W39958  34.951  21.524   0.760
67633W        W39959   6.273  28.052   0.461
67634W        W39960  16.136  33.510  10.987
67635W        W39961  22.142  39.969   0.247
67636W        W39962  26.631  40.467   2.274
67637W        W39963  18.246  25.026   1.842
67638W        W39964  25.688  14.687   3.289
67639W        W39965  42.343  25.472   3.671
67640W        W39966  36.459  18.073   3.769
67641W        W39967  26.138   7.348   2.889
67642W        W39968  31.549  39.488   0.922
67643W        W39969   6.800  23.002   3.716
67644W        W39970   2.775  25.530  14.030
67645W        W39971   6.289  26.054   2.762
67646W        W39972  25.189   9.711  13.400
67647W        W39973   5.394   5.806  13.912
67648W        W39974  43.376  27.620  11.410
67649W        W39975  43.997  33.573   1.717
67650W        W39976  34.535  14.106   2.222
67651W        W39977  29.556  23.024  11.499
67652W        W39978  35.957  39.808   1.261
67653W        W39979   6.702  39.382  11.926
67654W        W39980  10.829  19.270  14.942
67655W        W39981  24.099  42.289   3.287
67656W        W39982  28.639  12.719  13.439
67657W        W39983   1.960  21.606   3.797
67658W        W39984  38.047   3.224  13.511
67659W        W39985  20.741  36.041   4.135
67660W        W39986   2.460  21.148   4.270
67661W        W39987  43.432   7.672   1.350
67662W        W39988   8.659  33.967   3.835
67663W        W39989   8.891  13.824  14.783
67664W        W39990  42.527  31.123   3.319
67665W        W39991  37.879  39.495   2.385
67666W        W39992  29.577  44.875   3.288
67667W        W39993  41.832   7.178   5.150
67668W        W39994  23.497   2.948  12.070
67669W        W39995  18.768   2.382   3.354
67670W        W39996  26.555  26.555   1.874
67671W        W39997   3.763  33.903  13.384
67672W        W39998  43.831   1.427  14.835
67673W        W39999  29.057   5.286  14.323
67674W        W40000  18.574  18.164   3.780
67675W        W40001  26.969  12.623   4.310
67676W        W40002  18.743  35.489   4.722
67677W        W40003   3.408  12.201  10.520
67678W        W40004   3.365   6.814   4.665
67679W        W40005  33.985   9.649   2.745
67680W        W40006   9.210   7.741   0.266
67681W        W40007   0.812  33.924   2.772
67682W        W40008  43.317   5.930   4.120
67683W        W40009  42.349   3.450   0.814
67684W        W40010  14.176  38.984   1.766
67685W        W40011  33.088  39.972   1.821
67686W        W40012  26.975  12.716  12.449
67687W        W40013  29.092  42.290  12.830
67688W        W40014  40.946  34.584   1.749
67689W        W40015   4.713  10.732  11.099
67690W        W40016   9.314   4.208  12.953
67691W        W40017  39.520  15.327  10.485
67692W        W40018  14.806  10.315   2.365
67693W        W40019   4.710  31.966   5.216
67694W        W40020  36.060   1.352   2.355
67695W        W40021   9.818   2.415  11.431
67696W        W40022  13.776  44.835   4.247
67697W        W40023   3.296  12.117   4.725
67698W        W40024  39.393  37.951  13.956
67699W        W40025   5.741  16.697   4.189
67700W        W40026  31.903  35.105  11.116
67701W        W40027  14.252  20.147   3.645
67702W        W40028  15.256  25.568  13.804
67703W        W40029  13.336   9.810  14.485
67704W        W40030  35.097  27.101  11.069
67705W        W40031  31.630  13.834  14.342
67706W        W40032  40.938  16.699  11.491
67707W        W40033  16.302  35.504   4.626
67708W        W40034  15.184  37.477   4.714
67709W        W40035  15.663  28.154   5.246
67710W        W40036  31.545  18.713  12.933
67711W        W40037  34.026  33.048   9.560
67712W        W40038  17.666  16.126   1.781
67713W        W40039  10.785  38.553   4.606
67714W        W40040  36.967  37.461  14.982
67715W        W40041  23.622  27.641  14.344
67716W        W40042   8.711  22.128   3.789
67717W        W40043  28.091   6.677   4.726
67718W        W40044   5.221  19.070  11.888
67719W        W40045  43.839   6.840   3.763
67720W        W40046  29.140  10.359  12.362
67721W        W40047  22.591   5.849   0.929
67722W        W40048  18.213  33.109  11.936
67723W        W40049  26.619   3.219  14.317
67724W        W40050  33.488  26.013  14.792
67725W        W40051  37.546  43.994   1.840
67726W        W40052   7.673  44.878  12.536
67727W        W40053  44.784  19.637   5.222
67728W        W40054  23.212  10.854  14.871
67729W        W40055  42.877   6.318  11.608
67730W        W40056   6.860  23.992   2.743
67731W        W40057  41.491   2.946   3.828
67732W        W40058  30.495  32.122   4.608
67733W        W40059  37.920  44.395   0.268
67734W        W40060  18.199  15.152   4.198
67735W        W40061  35.367  24.012  10.573
67736W        W40062   7.841   2.783   4.681
67737W        W40063  18.561   0.938  11.407
67738W        W40064  42.493  40.409   1.319
67739W        W40065  17.108  43.298  11.511
67740W        W40066  37.545  15.088   1.433
67741W        W40067  13.130  36.578   1.755
67742W        W40068  13.266  34.020  12.521
67743W        W40069   8.761  36.937   1.360
67744W        W40070  18.589  26.076   4.200
67745W        W40071  18.716   9.698  11.927
67746W        W40072   6.855  13.712   0.925
67747W        W40073  33.048  10.683   3.633
67748W        W40074  10.375  21.114  11.395
67749W        W40075  36.901  31.955   4.226
67750W        W40076  18.284   7.222   2.754
67751W        W40077  43.279  14.635  10.427
67752W        W40078  19.215   9.806  11.006
67753W        W40079   8.857  10.867   2.754
67754W        W40080   7.195  43.493  12.502
67755W        W40081  27.995  18.062   2.835
67756W        W40082  18.789   9.669   3.703
67757W        W40083  18.670   6.289  12.543
67758W        W40084   4.391   0.937  14.874
67759W        W40085  10.245   2.311   2.824
67760W        W40086  23.591   8.404  14.321
67761W        W40087  28.143  36.949  11.102
67762W        W40088  10.205  21.179   4.122
67763W        W40089   3.826  15.149  12.027
67764W        W40090   1.350   2.855   5.104
67765W        W40091   2.749   6.385  13.830
67766W        W40092  40.495  26.984   3.308
67767W        W40093  28.137  26.463   5.194
67768W        W40094  18.219   7.225  13.444
67769W        W40095   9.352  33.623  11.471
67770W        W40096  13.808   1.272   4.271
67771W        W40097   5.829  25.621   1.375
67772W        W40098   7.909   6.290   0.403
67773W        W40099   7.710  11.742   2.751
67774W        W40100  22.639   1.253   4.760
67775W        W40101  16.240   5.800   3.647
67776W        W40102  14.697  21.619   2.868
67777W        W40103   2.357  43.512  12.540
67778W        W40104  44.968  26.155   3.866
67779W        W40105   4.731  26.070   4.150
67780W        W40106  38.348  11.861  12.841
67781W        W40107  25.633  19.714  12.470
67782W        W40108   9.843   2.447  14.851
67783W        W40109  30.050  31.994   2.696
67784W        W40110   1.964  37.899   0.895
67785W        W40111  43.299   1.409   1.905
67786W        W40112  44.267   2.466   0.267
67787W        W40113  16.262  28.653  13.505
67788W        W40114  37.344  11.259   0.899
67789W        W40115  27.014  42.493   1.347
67790W        W40116  13.650   9.851  14.920
67791W        W40117  25.582   0.395   4.646
67792W        W40118  37.403  33.538   3.201
67793W        W40119  18.124   8.343  12.561
67794W        W40120  37.878   9.823  12.002
67795W        W40121  13.248  41.526   2.776
67796W        W40122  23.492  23.693   2.261
67797W        W40123  12.627  29.940   0.835
67798W        W40124  24.134  21.513  13.056
67799W        W40125   6.839  34.418   3.207
67800W        W40126   3.941  41.336   2.378
67801W        W40127   0.885  43.500  13.340
67802W        W40128  10.222  34.065  10.081
67803W        W40129  31.114  14.270  10.039
67804W        W40130  24.182  22.198  10.642
67805W        W40131  16.717  23.241   3.817
67806W        W40132   3.338  25.980   3.298
67807W        W40133  31.493  29.521  10.417
67808W        W40134  41.925  35.461  13.891
67809W        W40135  30.602  21.195  14.858
67810W        W40136  32.091  16.168   4.689
67811W        W40137   1.885  44.312  14.928
67812W        W40138  33.596  23.088   0.358
67813W        W40139  12.722   8.685   3.847
67814W        W40140  21.573  44.313  11.016
67815W        W40141  18.777  14.198  13.367
67816W        W40142  41.301  27.155   1.839
67817W        W40143   3.825  35.471   0.882
67818W        W40144  36.397  38.521  10.602
67819W        W40145   5.358  31.066  14.431
67820W        W40146  12.235  37.554   3.706
67821W        W40147  19.050   0.432  11.596
67822W        W40148  28.995  30.074   4.610
67823W        W40149   1.885   0.826   1.845
67824W        W40150  42.030  17.108   5.211
67825W        W40151  32.572  37.527   0.315
67826W        W40152  38.489   4.253   0.902
67827W        W40153  30.942  26.169  11.543
67828W        W40154   7.201  19.700   2.375
67829W        W40155  18.765  16.799   1.725
67830W        W40156   1.863  35.557   0.340
67831W        W40157  20.053  15.085   4.657
67832W        W40158  25.633  33.420   1.347
67833W        W40159  28.160  39.366  10.475
67834W        W40160   5.762  26.068   1.246
67835W        W40161   6.373   7.354  14.414
67836W        W40162  39.491  30.090   4.303
67837W        W40163  36.075  44.423   0.424
67838W        W40164  19.593  39.532   3.850
67839W        W40165  42.901   1.475   1.696
67840W        W40166  12.676  39.497  10.934
67841W        W40167  21.105   3.390  11.579
67842W        W40168  22.700  21.050   1.315
67843W        W40169  31.421  37.363   3.232
67844W        W40170  24.030  23.165  11.457
67845W        W40171  43.904   0.965   4.346
67846W        W40172  27.195  34.112   4.648
67847W        W40173  35.452  36.075  12.503
67848W        W40174  37.894  25.495  12.013
67849W        W40175  24.575  30.534   0.929
67850W        W40176  14.605  23.236  10.602
67851W        W40177  12.185  10.707   0.954
67852W        W40178  19.688   5.932  10.622
67853W        W40179   9.784  34.424  13.378
67854W        W40180  11.846  39.916  14.498
67855W        W40181  29.016  42.492   4.623
67856W        W40182  24.171  29.112   2.386
67857W        W40183  40.433  37.357   1.896
67858W        W40184  17.658  41.007  10.418
67859W        W40185   8.659  37.842   1.738
67860W        W40186  42.473  22.521  14.358
67861W        W40187   1.364  11.711  14.352
67862W        W40188   9.162  30.567  11.439
67863W        W40189  41.434  16.144  13.348
67864W        W40190  34.064  20.238   1.876
67865W        W40191  25.561  21.531   0.779
67866W        W40192  26.548  19.689   0.414
67867W        W40193  35.468  16.198   0.827
67868W        W40194   1.285  21.221  13.895
67869W        W40195   7.759  12.829  13.009
67870W        W40196   0.333  37.990   1.281
67871W        W40197   7.297  18.150  14.941
67872W        W40198   7.890  22.696  13.870
67873W        W40199   3.920  12.304  11.924
67874W        W40200  24.111  18.619   0.874
67875W        W40201  31.074  25.642   4.183
67876W        W40202  21.162  22.220   1.352
67877W        W40203  11.664  31.992   4.197
67878W        W40204  13.349  18.292  13.409
67879W        W40205   7.407  42.994  12.354
67880W        W40206  22.531  11.807   2.181
67881W        W40207   2.786  27.082  12.342
67882W        W40208  38.848  38.971   3.840
67883W        W40209  30.140  21.156  12.512
67884W        W40210  16.083   8.246  10.406
67885W        W40211  21.519  44.322   4.292
67886W        W40212  19.696  17.104   1.278
67887W        W40213  15.606  41.009  11.905
67888W        W40214  18.236  14.770  11.061
67889W        W40215  43.351  16.736  14.793
67890W        W40216  43.455  34.557   3.175
67891W        W40217   3.355  44.306   2.184
67892W        W40218  29.522   8.334  12.567
67893W        W40219  20.126  43.434   3.355
67894W        W40220  38.409  44.370  14.366
67895W        W40221  22.682  42.398  13.513
67896W        W40222  38.016   9.880  10.087
67897W        W40223  19.652  26.036   0.786
67898W        W40224  25.642   1.774  11.014
67899W        W40225   2.790  24.527  13.474
67900W        W40226  22.665   4.401   0.760
67901W        W40227  17.795  11.856  10.409
67902W        W40228   9.220  22.603   0.948
67903W        W40229  19.706  22.529   4.308
67904W        W40230  33.568  12.154   4.750
67905W        W40231  40.901   6.898   4.195
67906W        W40232  44.797   9.282  12.019
67907W        W40233   3.743   9.353  11.381
67908W        W40234  23.662  17.162  14.516
67909W        W40235  22.149   0.322  10.404
67910W        W40236  43.285  33.382   4.616
67911W        W40237  23.667  11.246  13.351
67912W        W40238  38.896   2.409   0.449
67913W        W40239   1.407  28.529  12.027
67914W        W40240  11.678  12.643  11.893
67915W        W40241  33.045  40.922   3.201
67916W        W40242  32.589  24.686  11.412
67917W        W40243  28.974  10.748   2.779
67918W        W40244  24.074  44.443   9.943
67919W        W40245  31.032  42.404  10.891
67920W        W40246   7.409  26.512  12.431
67921W        W40247  44.828  42.426   3.264
67922W        W40248   8.324  43.795  11.402
67923W        W40249  30.549   1.743   4.664
67924W        W40250  42.526  11.351   1.698
67925W        W40251  14.143  26.147  13.356
67926W        W40252  23.003  26.192   4.724
67927W        W40253   7.838   2.879   2.413
67928W        W40254  39.816  32.490  14.392
67929W        W40255  30.648  16.634  13.963
67930W        W40256   2.228  15.594  10.899
67931W        W40257  17.632  18.722   2.342
67932W        W40258  43.297  44.266  10.100
67933W        W40259  17.240  25.519   4.679
67934W        W40260  44.891  32.932  11.437
67935W        W40261  31.982  11.773  14.317
67936W        W40262  25.203   7.765  13.368
67937W        W40263   1.263  25.669   4.769
67938W        W40264  24.551  16.301  11.489
67939W        W40265  30.565  32.507  10.928
67940W        W40266  40.488  13.120   0.899
67941W        W40267  17.576  16.705   3.770
67942W        W40268  36.060  17.069  14.309
67943W        W40269   9.705   5.358  11.045
67944W        W40270  29.138  13.338  13.797
67945W        W40271  19.590  42.434  14.928
67946W        W40272  35.026   7.687   3.210
67947W        W40273  40.356   1.250  12.437
67948W        W40274   8.732  19.584   2.823
67949W        W40275  44.939   4.756   3.788
67950W        W40276  21.574  17.220  11.935
67951W        W40277  28.609  29.995  11.061
67952W        W40278  23.707  16.302  14.804
67953W        W40279  41.300  34.918  14.380
67954W        W40280  32.525   9.885  10.447
67955W        W40281  16.315  13.131   1.378
67956W        W40282  12.348   8.381  10.963
67957W        W40283  22.115  19.649  14.440
67958W        W40284   5.725   0.417  10.476
67959W        W40285   4.803  39.809   3.709
67960W        W40286  15.172   4.734   0.946
67961W        W40287   4.832  36.005  14.495
67962W        W40288   9.806  41.460   4.325
67963W        W40289  40.453  43.973   4.178
67964W        W40290  38.443   3.778   0.942
67965W        W40291  34.563  27.523   2.419
67966W        W40292  32.974  11.671   2.220
67967W        W40293  27.025  32.569   3.794
67968W        W40294  28.462  20.530  13.058
67969W        W40295  18.074  16.806   1.302
67970W        W40296  21.528   2.762   3.700
67971W        W40297   4.308  41.942  13.008
67972W        W40298  42.505   1.787   3.222
67973W        W40299   1.826  41.805   0.364
67974W        W40300   4.944  34.427  10.891
67975W        W40301   3.745  44.910  10.479
67976W        W40302   7.287  42.898  11.940
67977W        W40303   7.326   9.720  14.426
67978W        W40304  29.600  26.023   2.743
67979W        W40305  37.564  14.271  12.346
67980W        W40306  20.761  40.883   0.783
67981W        W40307   5.411  42.868  10.493
67982W        W40308  38.824  38.411   0.330
67983W        W40309  38.442  22.116   3.298
67984W        W40310  23.635  26.116  14.833
67985W        W40311  42.504  43.468  12.081
67986W        W40312  28.473   1.447  10.629
67987W        W40313  44.958  30.950   4.191
67988W        W40314  39.435  34.059  12.443
67989W        W40315  32.952  30.922   4.644
67990W        W40316  34.460  27.554   3.821
67991W        W40317  30.081  35.102   3.222
67992W        W40318  17.093  37.072  10.436
67993W        W40319   7.781  30.019  12.559
67994W        W40320  29.002  32.035  10.983
67995W        W40321  12.239  12.639  10.964
67996W        W40322  32.991  22.072   2.257
67997W        W40323  23.712  17.569   0.426
67998W        W40324  22.715  32.550  13.363
67999W        W40325  18.266  35.927   3.352
68000W        W40326  16.706  23.683   2.740
68001W        W40327  21.095  40.311  12.569
68002W        W40328  32.619  26.660  11.953
68003W        W40329   0.752  25.092   2.852
68004W        W40330  11.707   7.201  11.510
68005W        W40331  17.722   7.695  13.415
68006W        W40332  37.445   0.796  12.530
68007W        W40333   7.885  25.690  14.502
68008W        W40334  41.887   4.924  10.017
68009W        W40335   6.322  30.445   9.984
68010W        W40336   7.787   8.750   3.789
68011W        W40337  21.670   9.282   4.206
68012W        W40338   5.398  32.537   3.849
68013W        W40339  22.140  27.132  10.973
68014W        W40340  39.461  13.836  13.971
68015W        W40341  10.213  18.547  14.895
68016W        W40342   2.913  43.794   2.664
68017W        W40343   0.837  26.071   3.762
68018W        W40344  41.486  18.740  12.502
68019W        W40345  13.344  29.128   0.439
68020W        W40346  43.885  31.441  11.901
68021W        W40347  11.171  25.696   2.214
68022W        W40348  40.820  40.869  10.633
68023W        W40349  29.474   4.337  14.996
68024W        W40350   8.202   2.755   1.779
68025W        W40351  34.426   3.852  11.490
68026W        W40352   3.844   5.882   2.822
68027W        W40353  26.978   5.773  12.018
68028W        W40354  42.455  40.044   3.709
68029W        W40355  25.164  16.751   9.992
68030W        W40356  43.923  14.765  11.076
68031W        W40357  40.042  43.298  11.992
68032W        W40358  18.701  12.255  14.376
68033W        W40359  30.142   8.683   2.854
68034W        W40360  15.276  18.295   3.259
68035W        W40361  40.505  37.043   3.221
68036W        W40362  13.141  28.652   3.789
68037W        W40363  43.875  20.743   2.237
68038W        W40364  37.901   4.739   3.639
68039W        W40365  44.393  29.470  11.382
68040W        W40366  20.125  37.397  11.568
68041W        W40367  40.876   7.895   1.841
68042W        W40368  44.796  25.112  13.493
68043W        W40369  13.222  30.414  13.543
68044W        W40370  27.082  28.620  10.915
68045W        W40371  32.618  34.494   1.361
68046W        W40372  26.561  41.041  14.469
68047W        W40373   1.864  12.669  12.844
68048W        W40374  21.193  24.053   2.670
68049W        W40375   3.821  17.592   1.729
68050W        W40376  34.896   2.300  14.478
68051W        W40377  23.074   8.662  13.385
68052W        W40378  35.992  29.573  12.961
68053W        W40379  30.577   4.407  13.502
68054W        W40380  11.779   2.933   2.830
68055W        W40381   9.683  16.719   2.355
68056W        W40382  37.410  36.095  11.875
68057W        W40383  19.653  23.047  11.973
68058W        W40384  37.003  35.862  14.900
68059W        W40385  15.136  21.055   4.303
68060W        W40386  43.497  21.085  12.364
68061W        W40387   3.719  37.014  11.405
68062W        W40388   5.364   9.764   3.730
68063W        W40389  18.245  28.998   4.838
68064W        W40390  24.508  20.057   0.953
68065W        W40391  16.575  41.988  13.815
68066W        W40392  11.316  29.566   3.373
68067W        W40393  18.686  19.140  11.923
68068W        W40394  11.371  35.015  11.593
68069W        W40395  38.074  33.563   3.179
68070W        W40396  10.267  32.927  12.382
68071W        W40397  29.085  10.204  13.802
68072W        W40398   9.194  34.386  11.525
68073W        W40399  12.671  30.557   0.889
68074W        W40400  12.316   9.828   3.672
68075W        W40401  14.769  21.688  12.406
68076W        W40402  20.063  34.117  12.879
68077W        W40403  21.180  23.182   1.875
68078W        W40404   2.298  12.848  12.942
68079W        W40405  23.684  13.149  13.913
68080W        W40406  33.962  42.473   0.258
68081W        W40407  12.700  13.715   0.370
68082W        W40408  24.128  19.167   0.307
68083W        W40409  21.658  14.724   3.282
68084W        W40410  21.753   1.252   0.863
68085W        W40411   1.902  41.973   4.730
68086W        W40412   9.392  11.198  11.560
68087W        W40413  10.718  33.430   0.297
68088W        W40414  11.787  18.164  12.991
68089W        W40415   2.316  11.294   0.906
68090W        W40416  12.201  40.931   2.199
68091W        W40417  31.537  34.886  12.564
68092W        W40418  18.120   6.904   3.306
68093W        W40419  16.739  42.910  10.421
68094W        W40420  20.090   8.665   2.419
68095W        W40421  10.813   3.819  11.555
68096W        W40422  38.892  39.358  12.416
68097W        W40423   2.737  12.791   1.927
68098W        W40424   3.715  11.639   1.266
68099W        W40425  41.418  44.992  12.862
68100W        W40426  14.164  20.528   1.748
68101W        W40427  23.223  18.660   0.337
68102W        W40428  23.089  41.495  14.784
68103W        W40429  30.438   9.740   0.863
68104W        W40430  11.349  16.137   1.866
68105W        W40431  23.678  14.662  14.933
68106W        W40432  16.750  32.109  10.917
68107W        W40433  15.808  32.083  10.049
68108W        W40434  29.939  14.673   1.388
68109W        W40435  39.985   4.746   0.732
68110W        W40436  28.080   8.334  13.356
68111W        W40437  24.167  17.290  12.043
68112W        W40438  37.907  30.936  14.410
68113W        W40439   1.277  38.854  12.948
68114W        W40440  40.049  36.550   2.400
68115W        W40441   4.337  40.383   4.296
68116W        W40442  13.691  33.417  10.546
68117W        W40443   3.723  40.012  12.427
68118W        W40444   6.341  13.232  13.840
68119W        W40445  12.174  16.208   2.878
68120W        W40446  14.743  18.239  12.918
68121W        W40447  30.544  42.372  11.115
68122W        W40448  15.767  35.426   1.429
68123W        W40449  41.521  27.978  14.892
68124W        W40450  34.931  38.509   2.842
68125W        W40451  27.975   6.340   0.932
68126W        W40452  35.573  20.081   2.389
68127W        W40453  33.614   1.277   3.740
68128W        W40454   0.306  12.658  13.396
68129W        W40455   7.888   6.821  11.438
68130W        W40456  22.995  26.036  10.440
68131W        W40457   4.307  37.959  11.413
68132W        W40458  24.708  31.420  11.913
68133W        W40459  23.669  22.204   2.387
68134W        W40460   1.359  43.396  13.415
68135W        W40461  21.730  22.200   0.892
68136W        W40462  17.753   2.770   2.869
68137W        W40463   7.401  41.430  14.277
68138W        W40464  43.937  24.670  13.033
68139W        W40465  21.091  38.968  12.358
68140W        W40466  16.707  12.298  12.400
68141W        W40467  12.202   2.879   4.283
68142W        W40468  36.898  14.290   4.205
68143W        W40469  11.790  24.176  12.974
68144W        W40470   8.763  14.675   3.719
68145W        W40471  14.719  22.090  14.474
68146W        W40472  11.187  18.096  11.945
68147W        W40473  16.283  15.129  11.430
68148W        W40474  42.324  15.290  12.845
68149W        W40475  23.637  35.069   1.310
68150W        W40476  32.893  37.372   3.257
68151W        W40477   1.253  42.996  12.920
68152W        W40478  38.020  20.135   1.352
68153W        W40479  19.058   6.341  11.381
68154W        W40480  39.341   4.762  11.448
68155W        W40481  37.434  36.879  13.794
68156W        W40482  44.802  28.158  10.463
68157W        W40483  33.094  17.559   1.830
68158W        W40484  39.453  13.283   4.324
68159W        W40485  10.227  19.549   3.771
68160W        W40486  19.538   5.341   4.225
68161W        W40487  21.730  18.129  12.960
68162W        W40488  11.835  43.929   2.742
68163W        W40489  24.596   0.346  13.866
68164W        W40490  16.123  10.698  12.084
68165W        W40491  35.947  27.477   2.186
68166W        W40492   5.375   3.773  14.463
68167W        W40493  19.044  41.838   3.792
68168W        W40494  35.853  31.913   1.227
68169W        W40495  44.848   7.778  10.964
68170W        W40496  24.580   2.391   2.860
68171W        W40497  29.550   9.862   1.775
68172W        W40498   2.840  40.383  14.427
68173W        W40499  29.155  35.368   1.731
68174W        W40500  14.759  15.178  10.542
68175W        W40501  33.068   5.734  11.989
68176W        W40502  35.538  32.568  11.562
68177W        W40503  40.892  29.596  14.443
68178W        W40504  18.759   1.734  11.577
68179W        W40505   6.365   8.825   4.121
68180W        W40506  31.072  26.964  11.070
68181W        W40507  30.979  29.970   4.796
68182W        W40508  40.409   7.206  14.929
68183W        W40509  36.561  38.890  10.063
68184W        W40510  13.156  41.538   3.326
68185W        W40511  13.745  27.086  12.974
68186W        W40512  42.973  31.465  13.046
68187W        W40513   6.326  35.543   1.210
68188W        W40514  13.288  34.401  12.942
68189W        W40515  42.998  41.367  13.471
68190W        W40516   2.409   2.360  11.572
68191W        W40517  11.652  25.596  11.479
68192W        W40518   5.745  30.908   3.781
68193W        W40519  12.266  17.567  12.346
68194W        W40520   5.324  28.656   2.886
68195W        W40521  18.209  29.109   2.295
68196W        W40522  21.577  25.089  14.023
68197W        W40523   8.657  28.003   0.918
68198W        W40524  27.024   8.772  12.907
68199W        W40525  29.060  11.199   4.290
68200W        W40526  11.802  40.392  10.572
68201W        W40527   1.830  25.121   5.301
68202W        W40528  18.596  36.572   3.766
68203W        W40529  22.557  16.098  11.948
68204W        W40530  14.304  17.571  13.870
68205W        W40531   2.407  28.948  14.916
68206W        W40532  17.283  24.017   0.826
68207W        W40533  26.074  27.949   4.244
68208W        W40534  34.497   7.755   4.117
68209W        W40535  13.170  17.238  13.792
68210W        W40536  37.458   8.202  12.826
68211W        W40537  32.632  27.996  14.467
68212W        W40538  40.309  10.281   3.272
68213W        W40539  40.475   1.357   4.160
68214W        W40540  29.660  43.447   3.839
68215W        W40541  30.487  14.206  13.353
68216W        W40542  23.075  16.296   2.674
68217W        W40543   3.735   1.289   1.367
68218W        W40544  18.292  19.778   1.805
68219W        W40545  44.893   5.924  13.957
68220W        W40546  27.037  11.142  11.403
68221W        W40547  22.563  10.789   3.249
68222W        W40548  17.724   5.363  13.409
68223W        W40549  36.982  11.293   3.724
68224W        W40550   4.782  30.525  13.804
68225W        W40551   5.864   0.356  13.474
68226W        W40552  13.211  25.625  11.433
68227W        W40553   8.185  22.174  14.768
68228W        W40554   8.390  34.034  14.390
68229W        W40555   3.298   5.867  13.956
68230W        W40556  13.335  35.977  11.860
68231W        W40557  14.252  11.858  10.474
68232W        W40558   6.330  39.477  11.613
68233W        W40559  44.454  38.347   4.667
68234W        W40560  30.549  12.629  13.354
68235W        W40561  13.284   4.424  10.477
68236W        W40562  38.458  42.358   1.256
68237W        W40563  33.510  17.249  14.918
68238W        W40564  28.564  21.164   3.278
68239W        W40565   1.962  29.977   3.171
68240W        W40566  38.518   2.468   2.751
68241W        W40567  27.185  39.894   0.413
68242W        W40568  28.929   2.813  11.941
68243W        W40569  37.896  35.953   0.771
68244W        W40570  16.761  23.496  11.434
68245W        W40571   0.939  19.103   2.716
68246W        W40572  35.460  27.069  11.483
68247W        W40573  25.176  40.851  12.845
68248W        W40574   2.376   8.704  12.924
68249W        W40575  10.702   6.210   1.220
68250W        W40576   1.959   3.297   1.728
68251W        W40577  13.331  11.627   0.832
68252W        W40578  13.774   7.788  10.585
68253W        W40579  42.848  42.963   2.885
68254W        W40580  11.634  18.642  13.820
68255W        W40581  18.628   7.850  12.511
68256W        W40582   1.962  16.098   0.758
68257W        W40583   0.934  32.109   2.872
68258W        W40584  44.320   4.883  13.965
68259W        W40585  36.974  41.880   1.433
68260W        W40586   1.460  38.867  11.547
68261W        W40587  14.169  23.230   4.173
68262W        W40588  42.416  34.964   1.882
68263W        W40589  27.945  17.247  10.534
68264W        W40590   4.903  20.260  13.883
68265W        W40591  29.662  21.652   1.443
68266W        W40592   1.811  30.129  14.288
68267W        W40593  16.275  20.191   1.751
68268W        W40594  41.424   1.306  14.423
68269W        W40595  11.713   8.397  12.393
68270W        W40596   4.734  20.257   2.339
68271W        W40597  29.945  22.585  11.979
68272W        W40598  39.846   7.191  10.462
68273W        W40599  37.475   0.765  12.984
68274W        W40600  23.007  15.744   2.668
68275W        W40601   7.865  12.613  13.403
68276W        W40602  42.400  26.615   4.293
68277W        W40603   6.207   1.316  12.569
68278W        W40604  31.463  27.940   2.380
68279W        W40605  14.750  13.310   3.209
68280W        W40606   2.788  21.190  13.980
68281W        W40607  44.765  16.169  14.317
68282W        W40608  35.586   5.304   0.333
68283W        W40609  37.056  40.943   2.215
68284W        W40610  37.484  42.439   4.269
68285W        W40611  36.008  38.542  10.954
68286W        W40612  30.581   9.875  13.822
68287W        W40613   7.410  24.157  13.052
68288W        W40614  21.221  14.333  14.379
68289W        W40615  27.009  13.621  13.989
68290W        W40616  43.283  11.697  11.592
68291W        W40617  20.244  22.036  11.517
68292W        W40618   9.346   0.941   4.792
68293W        W40619   4.275   3.845  13.024
68294W        W40620  38.325  24.000   0.916
68295W        W40621  34.974  28.520   0.308
68296W        W40622  40.015  29.941   4.307
68297W        W40623  19.644  10.740   0.777
68298W        W40624  22.695  19.579   4.155
68299W        W40625  35.029  15.759   0.415
68300W        W40626   4.799  13.189   2.791
68301W        W40627  31.067  15.793  10.586
68302W        W40628  14.334   7.287  14.445
68303W        W40629  23.672  33.934  12.371
68304W        W40630   8.693  15.249  13.000
68305W        W40631   3.725   3.430  14.436
68306W        W40632  31.634   9.326   0.263
68307W        W40633  19.628  17.142   4.257
68308W        W40634  25.510  11.188   9.930
68309W        W40635  12.653  23.090  11.874
68310W        W40636   4.205  29.174   3.308
68311W        W40637  23.094  34.422   2.339
68312W        W40638  20.130   6.396  10.043
68313W        W40639  21.219   0.385   0.424
68314W        W40640  43.494  17.636  13.989
68315W        W40641  20.555  44.883   2.692
68316W        W40642  19.144   0.444   0.961
68317W        W40643  22.569   0.766   5.260
68318W        W40644  23.647   3.861   1.882
68319W        W40645   1.847  12.319  12.874
68320W        W40646  38.001  29.489  13.800
68321W        W40647  26.622   7.701   3.349
68322W        W40648  42.488  40.972  11.470
68323W        W40649  14.306  19.629  10.962
68324W        W40650  24.544  24.179   2.213
68325W        W40651  35.994   4.921   4.758
68326W        W40652  20.121  28.165  12.876
68327W        W40653  13.229  28.603   4.826
68328W        W40654  26.574  27.159   1.391
68329W        W40655  19.603  34.499   2.325
68330W        W40656  19.240  28.003   1.250
68331W        W40657  21.734  30.449  14.832
68332W        W40658  29.430   5.789   0.256
68333W        W40659  22.730  42.389  11.472
68334W        W40660   9.805   5.716   1.335
68335W        W40661  18.698   7.787  13.426
68336W        W40662   8.797   0.784   0.334
68337W        W40663  31.992   2.434   4.740
68338W        W40664  38.376   8.874   4.668
68339W        W40665   7.676  37.086   1.355
68340W        W40666  40.871  17.613  11.439
68341W        W40667   4.829  30.948  13.474
68342W        W40668  27.167  39.983  14.941
68343W        W40669  39.551  23.634   4.709
68344W        W40670  44.951  14.766  11.578
68345W        W40671  15.700  14.620  12.346
68346W        W40672  42.865  25.584   4.337
68347W        W40673  14.799  35.511  12.830
68348W        W40674  14.219  26.664  14.766
68349W        W40675  13.166  39.894   3.812
68350W        W40676  27.180  32.459   0.801
68351W        W40677  25.548  26.461   1.297
68352W        W40678   5.788  29.979   2.893
68353W        W40679  27.572   6.777  13.334
68354W        W40680   9.341  30.095   1.299
68355W        W40681  15.195  19.129   1.354
68356W        W40682  29.446   1.973   9.993
68357W        W40683   1.336  30.496  13.307
68358W        W40684  19.632  27.977  14.863
68359W        W40685  10.364   9.797  10.932
68360W        W40686  36.883   1.978   1.837
68361W        W40687  24.228  41.848   0.799
68362W        W40688   9.374  27.022   3.811
68363W        W40689  31.520  12.247  11.405
68364W        W40690   1.422  16.813  14.347
68365W        W40691  13.199  39.417   4.193
68366W        W40692   2.778  36.361   4.255
68367W        W40693  37.022   1.286  11.554
68368W        W40694  42.337  28.638   0.298
68369W        W40695  13.811  23.627   1.268
68370W        W40696  34.376  36.071  12.015
68371W        W40697   9.384  17.182   1.802
68372W        W40698   6.775  33.968  12.916
68373W        W40699  12.633  17.282   0.375
68374W        W40700   7.400  32.456   1.309
68375W        W40701   5.773  18.676   2.382
68376W        W40702  43.849  16.206  11.503
68377W        W40703  28.156  17.662  12.037
68378W        W40704  29.534  43.338   0.298
68379W        W40705  13.210  35.878   3.375
68380W        W40706  25.010  12.184  14.491
68381W        W40707  28.450  42.411   3.344
68382W        W40708  28.043  27.971   4.322
68383W        W40709   7.883  39.444   4.820
68384W        W40710  43.937  15.709   2.192
68385W        W40711  40.321  25.964  11.933
68386W        W40712  32.588  40.448   3.178
68387W        W40713   3.313  30.161   2.844
68388W        W40714  31.471  25.469  11.518
68389W        W40715  24.125  13.254  14.782
68390W        W40716  20.570   1.960   1.268
68391W        W40717  43.301   9.169  11.607
68392W        W40718  27.489   3.424   2.384
68393W        W40719  21.066  31.064   3.377
68394W        W40720  21.735   7.411   2.841
68395W        W40721  34.392  21.018   5.140
68396W        W40722   8.661  34.116  14.469
68397W        W40723   0.430  10.813   2.345
68398W        W40724   4.846  24.111   4.186
68399W        W40725  43.328  32.442   2.198
68400W        W40726  32.527  41.847  11.411
68401W        W40727  25.963  36.439  13.908
68402W        W40728   9.286  29.117   3.315
68403W        W40729   2.760   1.969   5.674
68404W        W40730  14.746  10.642   4.311
68405W        W40731  12.753  42.286  14.354
68406W        W40732  11.848  37.473  11.926
68407W        W40733  44.263  38.982   0.778
68408W        W40734  14.713  44.376  14.313
68409W        W40735  29.021  28.966  11.553
68410W        W40736  32.549  44.321   0.336
68411W        W40737   3.412  43.344   2.730
68412W        W40738  17.576  21.030  14.779
68413W        W40739  13.668   0.877  13.987
68414W        W40740  18.224   1.475   4.611
68415W        W40741  21.199  11.866  12.825
68416W        W40742  27.166  10.299  10.118
68417W        W40743  13.266  17.681   0.868
68418W        W40744   7.323  33.582  12.026
68419W        W40745  34.009  41.414   2.823
68420W        W40746   7.284  35.091   1.287
68421W        W40747  29.107  19.538   2.892
68422W        W40748  20.156  14.152   4.749
68423W        W40749  31.914  30.518  10.978
68424W        W40750  28.560  33.950   2.366
68425W        W40751  29.160   2.230  11.416
68426W        W40752   3.893  10.878  12.478
68427W        W40753  39.321  16.113  13.055
68428W        W40754  37.476  19.096   3.375
68429W        W40755   5.394  44.463  11.886
68430W        W40756  32.108  40.879  13.401
68431W        W40757   2.954  31.614  12.517
68432W        W40758  39.337  43.513  14.422
68433W        W40759  11.865  30.561   4.169
68434W        W40760  33.127  32.938  14.405
68435W        W40761  34.093  14.600   1.914
68436W        W40762  22.020  35.067   1.840
68437W        W40763  28.537  20.069  14.337
68438W        W40764  41.457  20.082  11.114
68439W        W40765  20.761  20.222   1.258
68440W        W40766   0.916  36.029  10.042
68441W        W40767   3.935  11.196  12.863
68442W        W40768  12.212  36.557   2.223
68443W        W40769  39.014  37.992  10.993
68444W        W40770  23.713  44.911   2.193
68445W        W40771   4.331   5.928  10.937
68446W        W40772  34.562  40.401   2.223
68447W        W40773  26.013  37.503   4.314
68448W        W40774   2.301  22.106  13.061
68449W        W40775  20.234  35.590  11.050
68450W        W40776  34.538  23.162   1.350
68451W        W40777  24.004  17.265   4.224
68452W        W40778  17.205   8.715  11.019
68453W        W40779   4.227  35.426  13.530
68454W        W40780  15.307  31.466   2.793
68455W        W40781  20.727  24.049  10.505
68456W        W40782  17.637   8.255   3.864
68457W        W40783   2.307  32.411   3.201
68458W        W40784  16.688  11.730   3.745
68459W        W40785  35.477  21.134   1.281
68460W        W40786   1.736   5.809  14.310
68461W        W40787  31.542  40.455   1.823
68462W        W40788  26.110  19.107   3.731
68463W        W40789  21.659   4.772   1.439
68464W        W40790  29.652  11.706   0.867
68465W        W40791  11.707  42.389  12.048
68466W        W40792   6.817   8.831   5.245
68467W        W40793  39.883  38.515   1.847
68468W        W40794   7.399  26.188  14.875
68469W        W40795   7.236  28.660   2.383
68470W        W40796  41.808  43.883  14.843
68471W        W40797  26.565  43.830  13.377
68472W        W40798  21.590   7.887   4.285
68473W        W40799  31.984  30.506  13.392
68474W        W40800   8.724  37.440  13.913
68475W        W40801  15.723  24.681  12.541
68476W        W40802  43.320   2.242  12.532
68477W        W40803  36.514  27.451  13.360
68478W        W40804  25.173  35.543  11.857
68479W        W40805   7.237   9.770  12.854
68480W        W40806   7.909  33.986  13.465
68481W        W40807  13.208  22.669   4.233
68482W        W40808  15.269  34.479   3.704
68483W        W40809  17.183  12.661  14.974
68484W        W40810  18.717  37.413  11.574
68485W        W40811   6.323  16.732  12.987
68486W        W40812  34.901  19.733  12.504
68487W        W40813   3.915  25.488  11.030
68488W        W40814  13.261   8.895   1.345
68489W        W40815   3.749   2.796  14.010
68490W        W40816  33.390   0.910  11.006
68491W        W40817   9.189  42.994  13.391
68492W        W40818  42.345  37.994  11.550
68493W        W40819  30.435  31.138   1.785
68494W        W40820   2.839  15.704   1.295
68495W        W40821  32.521   9.761   1.387
68496W        W40822  31.531   0.841  14.386
68497W        W40823   8.700  26.620  13.800
68498W        W40824   5.760  32.470   1.242
68499W        W40825  25.581  13.191   2.834
68500W        W40826   5.366  16.314  14.983
68501W        W40827  22.617   8.248  14.022
68502W        W40828   3.356  11.799   1.800
68503W        W40829  16.783  30.474   2.289
68504W        W40830  33.452  39.418   2.865
68505W        W40831  41.432  12.798   3.332
68506W        W40832  44.426  30.579  14.964
68507W        W40833  39.936  20.266  13.818
68508W        W40834  11.298  31.915   1.377
68509W        W40835   4.754   9.832  10.102
68510W        W40836  10.240  40.488  14.852
68511W        W40837   5.743   2.275   1.312
68512W        W40838  36.505  42.413   0.734
68513W        W40839  26.602  33.391   4.637
68514W        W40840  30.943  23.176  14.490
68515W        W40841  15.250  22.694  13.456
68516W        W40842  20.187  15.658  13.017
68517W        W40843  42.387  10.208  11.958
68518W        W40844  17.299  16.164   0.469
68519W        W40845  17.250  13.698   0.937
68520W        W40846  10.308  21.045   1.812
68521W        W40847  17.667  37.937   0.455
68522W        W40848  34.906  32.450   0.729
68523W        W40849  33.575   1.891  12.496
68524W        W40850  10.873  21.624  11.008
68525W        W40851  38.906  37.549   3.822
68526W        W40852  11.712   3.225  13.813
68527W        W40853  37.882   9.840   2.777
68528W        W40854  29.164  43.379  14.417
68529W        W40855  33.465  23.051  12.045
68530W        W40856  30.025  32.631   2.757
68531W        W40857   1.434  36.388  13.387
68532W        W40858  39.819  16.809  14.998
68533W        W40859  29.558   8.260  12.068
68534W        W40860  16.767  24.041  11.974
68535W        W40861  30.025   3.461  13.521
68536W        W40862  41.375  19.122  13.890
68537W        W40863  38.529  41.383   1.345
68538W        W40864  28.085  30.589   1.441
68539W        W40865  20.060  22.184  13.419
68540W        W40866  39.893  15.193  13.493
68541W        W40867   7.724  33.920  12.077
68542W        W40868  26.598  16.236  11.502
68543W        W40869  36.593  17.249   2.377
68544W        W40870  22.721  16.712   3.743
68545W        W40871  32.558  32.960   0.323
68546W        W40872  14.203  29.604   1.928
68547W        W40873  12.823  35.380   2.243
68548W        W40874  22.079  16.776  13.873
68549W        W40875  41.957   8.686   1.300
68550W        W40876  27.003  29.100  10.930
68551W        W40877  10.221  22.571  10.609
68552W        W40878  38.452   9.742   1.262
68553W        W40879  12.170  18.711  14.928
68554W        W40880  35.101  37.515   0.261
68555W        W40881   6.910  24.693  12.001
68556W        W40882  12.130  30.569   4.679
68557W        W40883  43.806  35.546   2.299
68558W        W40884   1.844  15.211   0.373
68559W        W40885  23.723  16.244  10.643
68560W        W40886   9.660  37.842   3.211
68561W        W40887  37.501  35.992   2.827
68562W        W40888  30.438  21.111   4.224
68563W        W40889  29.140  39.859  10.570
68564W        W40890  42.790   8.257   4.786
68565W        W40891  39.381   9.313   1.713
68566W        W40892  12.216  14.641  11.028
68567W        W40893  37.881  22.035  12.370
68568W        W40894   0.454   4.823  14.302
68569W        W40895  42.958  38.495   3.723
68570W        W40896  20.261  11.728   1.435
68571W        W40897   5.382  39.951   2.868
68572W        W40898  20.225  30.012  10.609
68573W        W40899   1.282  32.588  12.999
68574W        W40900  20.158  30.055   1.377
68575W        W40901   6.850  25.140   1.391
68576W        W40902   8.312   9.851  11.092
68577W        W40903   1.465  44.944  11.894
68578W        W40904  37.343  12.190   1.394
68579W        W40905  25.134   9.698   0.907
68580W        W40906  13.764  10.355   0.372
68581W        W40907  36.022  25.992   1.916
68582W        W40908  39.535  38.942  14.760
68583W        W40909  31.965  37.922   0.249
68584W        W40910  28.532   4.714   4.676
68585W        W40911   2.808  39.409   0.801
68586W        W40912   3.427  35.552  11.577
68587W        W40913  17.302  37.536   3.779
68588W        W40914  27.614   5.276  14.996
68589W        W40915  30.977  34.462   4.685
68590W        W40916  32.485   8.878  14.797
68591W        W40917  22.550  36.532  12.474
68592W        W40918  12.243  13.285  12.837
68593W        W40919  22.073  39.367   1.295
68594W        W40920  18.052  15.610  11.601
68595W        W40921  20.080  32.395  11.537
68596W        W40922  24.127  11.799   2.207
68597W        W40923   1.361  26.683  13.858
68598W        W40924  40.985  44.355   4.298
68599W        W40925  41.472  19.700  13.043
68600W        W40926  25.621  25.480   4.767
68601W        W40927  36.564  29.523   1.294
68602W        W40928  16.205  26.519  13.454
68603W        W40929   1.423  33.412   4.293
68604W        W40930  43.797  16.183  12.962
68605W        W40931  13.803  37.457  10.485
68606W        W40932  23.194  26.466   4.117
68607W        W40933  22.242  15.190   0.868
68608W        W40934   4.231  26.532  14.935
68609W        W40935   6.819  38.462  10.963
68610W        W40936   5.740  24.573  13.532
68611W        W40937  29.501  44.901   0.468
68612W        W40938  20.641  35.983   3.374
68613W        W40939  21.111  19.751  11.017
68614W        W40940  10.297  20.182   2.388
68615W        W40941  19.254  18.080  13.984
68616W        W40942  21.614  27.583  11.379
68617W        W40943  27.051  26.176   0.733
68618W        W40944  33.489  16.665   1.845
68619W        W40945   7.235  31.409  11.018
68620W        W40946  41.370  28.558  12.481
68621W        W40947  14.322   3.753  11.488
68622W        W40948  20.537  23.626   0.931
68623W        W40949  34.047   0.797  11.892
68624W        W40950   4.763  35.874   1.843
68625W        W40951  12.649  31.465  10.624
68626W        W40952   3.745  19.283   0.903
68627W        W40953   8.780  27.674  10.585
68628W        W40954  43.474  36.423   1.269
68629W        W40955  22.143   0.354  14.293
68630W        W40956  15.111   6.876   3.168
68631W        W40957  34.529  30.465  14.786
68632W        W40958  12.659   7.768   2.895
68633W        W40959  38.429  15.293  11.037
68634W        W40960   0.267  14.656   2.707
68635W        W40961  14.656  38.855  11.987
68636W        W40962  34.464  30.420   5.293
68637W        W40963  12.819   2.951   3.171
68638W        W40964   9.387  41.484  12.423
68639W        W40965   4.904  31.051   1.269
68640W        W40966  28.595   7.691   4.144
68641W        W40967  30.489   9.258   2.377
68642W        W40968  28.597  12.295  11.052
68643W        W40969  18.614  42.876   3.299
68644W        W40970   4.705  27.021  12.890
68645W        W40971   1.764  12.353  14.474
68646W        W40972  19.207   6.852   1.325
68647W        W40973  19.588  39.527   0.343
68648W        W40974   8.331  31.127   2.894
68649W        W40975  14.682  29.492  10.987
68650W        W40976   8.251  20.235  14.452
68651W        W40977  20.702   3.409  12.569
68652W        W40978  20.637  24.679  14.977
68653W        W40979  10.729  26.605  12.857
68654W        W40980  18.209  44.485  13.445
68655W        W40981  14.669  33.926  10.462
68656W        W40982   8.265  13.770   0.424
68657W        W40983  44.370  32.923  11.433
68658W        W40984  15.741  40.440  13.465
68659W        W40985  43.362  29.106   3.355
68660W        W40986   6.809  20.690  12.927
68661W        W40987  28.468  43.794   4.726
68662W        W40988  32.060  24.140   2.878
68663W        W40989  29.103  13.253  12.044
68664W        W40990   8.286  26.469  11.895
68665W        W40991  21.550  13.842  13.404
68666W        W40992  14.799  22.082  13.436
68667W        W40993  31.461  37.370  12.036
68668W        W40994   8.359  24.156  13.794
68669W        W40995  17.214   6.912  13.845
68670W        W40996  42.356   5.781  12.470
68671W        W40997  32.607  24.137   2.729
68672W        W40998  22.733  43.277  14.458
68673W        W40999  26.678  18.238   1.753
68674W        W41000  12.755  20.584  13.499
68675W        W41001  19.625  22.704   5.127
68676W        W41002  38.845  14.178   0.850
68677W        W41003  25.171   1.342   3.285
68678W        W41004  10.803  28.047  11.978
68679W        W41005  17.119  39.894   4.828
68680W        W41006  37.834  40.533  12.843
68681W        W41007  18.169  43.931   3.158
68682W        W41008  18.147  34.380  11.611
68683W        W41009  14.248  10.877  13.328
68684W        W41010   0.269   0.477  12.942
68685W        W41011  41.952  24.717  12.896
68686W        W41012   7.361  12.852   0.417
68687W        W41013   6.229  40.355   2.822
68688W        W41014   4.812  16.689  10.906
68689W        W41015  15.212  26.045   3.372
68690W        W41016  25.644  44.959  13.059
68691W        W41017  22.995  41.526  12.906
68692W        W41018   2.232  11.778   1.324
68693W        W41019  25.511  33.441  14.951
68694W        W41020  40.823  42.475   4.817
68695W        W41021  20.632  44.368   1.320
68696W        W41022  41.443  18.210  14.342
68697W        W41023   0.419  30.137   1.813
68698W        W41024  34.979  40.470  13.428
68699W        W41025  34.054  31.911  14.873
68700W        W41026   1.793  29.993  13.815
68701W        W41027  39.558  41.369   2.198
68702W        W41028   3.218  20.036  11.457
68703W        W41029  28.170  16.255  13.547
68704W        W41030  26.493   6.253   2.851
68705W        W41031  17.759  25.524  10.441
68706W        W41032  31.571  41.416   0.416
68707W        W41033  17.112  33.459   3.860
68708W        W41034   8.682   6.324  11.058
68709W        W41035   8.295  27.124   1.445
68710W        W41036  14.779  20.155   2.737
68711W        W41037  21.748  21.259   1.739
68712W        W41038  29.139  40.956  12.010
68713W        W41039  30.470  10.788  12.855
68714W        W41040  17.720   9.643   1.733
68715W        W41041  22.675   3.931  14.934
68716W        W41042  29.574  43.781  10.533
68717W        W41043   5.828   3.779  14.456
68718W        W41044  37.077  17.095  14.788
68719W        W41045  11.133  29.566   3.814
68720W        W41046  16.176   2.372  11.049
68721W        W41047  23.658  13.126  12.447
68722W        W41048  23.592  12.835  11.540
68723W        W41049  14.691  26.108   4.189
68724W        W41050  38.376  17.282   1.757
68725W        W41051   5.374  26.692   0.843
68726W        W41052  29.039  26.091  12.495
68727W        W41053  11.630  34.544  10.454
68728W        W41054  39.350   1.381  10.495
68729W        W41055  30.571  13.245  14.442
68730W        W41056  28.020  10.811  13.940
68731W        W41057  32.399  31.135  14.481
68732W        W41058   8.688  20.573  13.332
68733W        W41059  12.740  19.663  14.823
68734W        W41060  22.056  44.490  13.524
68735W        W41061  24.110  13.787  13.402
68736W        W41062  38.325  14.221  13.405
68737W        W41063   5.701  27.564  11.910
68738W        W41064  40.873  11.163  14.773
68739W        W41065  14.129   7.779  14.811
68740W        W41066  29.048  32.996  12.408
68741W        W41067   4.936   1.886   1.324
68742W        W41068  22.679  11.856  13.999
68743W        W41069   4.382  38.032  12.398
68744W        W41070  43.002  16.630  12.844
68745W        W41071  18.755  14.179  10.933
68746W        W41072  31.502  25.475  13.479
68747W        W41073  15.774  44.789  10.915
68748W        W41074   3.455  22.045   0.941
68749W        W41075  10.771   6.791  10.448
68750W        W41076  31.925  33.615   4.660
68751W        W41077  40.305   5.300  13.936
68752W        W41078  41.364  41.923  14.299
68753W        W41079  13.659   9.756   0.961
68754W        W41080  34.474  42.299   1.318
68755W        W41081  40.532   5.901   3.314
68756W        W41082   7.249  30.487   3.192
68757W        W41083   6.264  25.549  12.085
68758W        W41084  27.581   9.383   2.205
68759W        W41085  19.632   9.667  13.048
68760W        W41086   1.839  28.154   0.885
68761W        W41087  35.594  20.763   0.865
68762W        W41088  35.900  13.213   0.765
68763W        W41089  28.075  34.606   4.264
68764W        W41090  18.094  18.172   0.926
68765W        W41091  21.731   1.952  13.332
68766W        W41092   7.210  39.974  13.802
68767W        W41093   7.676  41.991   3.288
68768W        W41094  15.327   1.316   2.277
68769W        W41095  35.550   3.803   3.721
68770W        W41096  37.335  25.583   1.755
68771W        W41097  37.535  23.989  14.352
68772W        W41098   9.778   4.224  10.545
68773W        W41099  27.092  24.076   0.768
68774W        W41100  34.540   7.389   2.205
68775W        W41101   0.407  30.983  14.332
68776W        W41102  38.037  31.596   0.412
68777W        W41103  11.248  21.675   4.758
68778W        W41104  31.404  15.282  12.905
68779W        W41105  27.621   6.287  11.864
68780W        W41106  20.154  21.205  10.484
68781W        W41107  17.222  11.247   2.891
68782W        W41108  11.279  21.205   1.737
68783W        W41109  39.973   8.702  14.853
68784W        W41110  37.018   8.341   3.321
68785W        W41111  19.683  32.610  11.082
68786W        W41112  11.767   9.328  14.423
68787W        W41113  20.214  38.866  11.487
68788W        W41114  40.441  35.035  13.039
68789W        W41115  25.994  12.760  14.010
68790W        W41116  33.894   9.358  10.526
68791W        W41117  21.724  38.931  10.142
68792W        W41118   7.273   7.384  10.457
68793W        W41119   6.327  14.284   5.229
68794W        W41120   2.956   7.847  10.415
68795W        W41121  11.833  17.699   3.354
68796W        W41122   5.355  42.388   4.762
68797W        W41123  18.680  10.246  12.951
68798W        W41124  10.872  28.943  14.789
68799W        W41125  33.523  33.103  12.506
68800W        W41126  26.649  40.519  14.869
68801W        W41127  40.333  28.510  14.403
68802W        W41128   4.743   1.963  10.489
68803W        W41129  35.902  17.101  14.827
68804W        W41130  37.991  22.085  14.487
68805W        W41131  17.637  17.246   3.727
68806W        W41132   5.720  25.518   2.797
68807W        W41133  15.812  21.112  13.948
68808W        W41134  15.133  26.692  11.496
68809W        W41135  18.671  27.188  14.945
68810W        W41136  32.609  29.025   4.640
68811W        W41137  26.539  42.878   1.782
68812W        W41138  37.550  14.728  11.549
68813W        W41139  35.876  39.499  13.057
68814W        W41140  13.748  40.970   2.204
68815W        W41141  37.830  30.087  11.375
68816W        W41142  37.524  32.034   4.116
68817W        W41143  41.381   7.178   2.824
68818W        W41144  23.523  41.310   2.272
68819W        W41145  22.174  10.180   3.811
68820W        W41146   0.876  41.008   1.397
68821W        W41147  11.633  24.694   4.265
68822W        W41148  43.989  33.494  12.899
68823W        W41149  29.518  33.580  12.566
68824W        W41150  24.973  17.162  11.460
68825W        W41151  33.419  14.834   1.827
68826W        W41152   4.837  10.235  11.485
68827W        W41153  25.126  35.888  14.987
68828W        W41154  21.620  15.737  13.381
68829W        W41155  27.158   0.797   4.307
68830W        W41156  25.611   5.205  12.938
68831W        W41157  35.902  10.177   3.765
68832W        W41158  38.388   0.798  14.376
68833W        W41159  27.668   4.431  12.373
68834W        W41160   0.331  39.396  10.423
68835W        W41161  16.646  44.463  10.542
68836W        W41162   3.416  29.962   4.259
68837W        W41163   8.347   6.199  10.425
68838W        W41164   9.287  42.861   1.389
68839W        W41165   5.236  27.686  13.984
68840W        W41166  24.022  15.614  10.420
68841W        W41167   3.285  44.417  13.454
68842W        W41168   2.445  16.667  10.947
68843W        W41169  15.249  20.658  12.853
68844W        W41170  20.098  43.389   0.248
68845W        W41171  19.247  34.530   3.730
68846W        W41172  28.536   8.379  10.607
68847W        W41173  12.199  43.443   3.681
68848W        W41174   3.844   2.770  10.429
68849W        W41175  34.926  42.338   4.328
68850W        W41176  37.032  39.964   1.815
68851W        W41177   2.260  19.248  11.902
68852W        W41178  25.684  43.966   4.776
68853W        W41179  25.024  30.973   3.384
68854W        W41180  10.677  15.292   2.666
68855W        W41181   5.285  41.303   4.759
68856W        W41182   9.299  20.733   4.237
68857W        W41183  17.250   6.739   2.300
68858W        W41184  39.393  34.908   3.856
68859W        W41185  11.647  16.161   0.477
68860W        W41186  14.188  32.468  13.031
68861W        W41187  17.140  11.811  13.794
68862W        W41188  34.100  12.711   0.898
68863W        W41189  11.833  39.467  11.440
68864W        W41190  21.659  40.806  12.394
68865W        W41191  43.011   6.755  10.613
68866W        W41192  16.089  38.560   3.738
68867W        W41193  43.453  32.893   4.347
68868W        W41194  41.343  29.547  10.433
68869W        W41195  36.969  34.521  10.924
68870W        W41196  11.634  27.167   1.298
68871W        W41197  44.331  12.781  13.483
68872W        W41198  20.058  15.301   4.206
68873W        W41199  24.556  30.638  12.444
68874W        W41200  40.527  27.096  11.895
68875W        W41201  20.561  43.921   4.120
68876W        W41202  11.664  38.397  12.405
68877W        W41203  44.271  30.438   2.716
68878W        W41204  17.264  17.280   0.445
68879W        W41205  15.166  27.487  11.438
68880W        W41206  26.183  35.023  14.406
68881W        W41207  39.515  42.866  10.456
68882W        W41208   7.773  14.689   2.360
68883W        W41209  18.135   2.763  10.918
68884W        W41210  16.241   1.305   4.748
68885W        W41211  22.242  10.218   1.831
68886W        W41212  14.739  31.405   3.784
68887W        W41213  24.211  26.105   2.866
68888W        W41214  43.394  22.249  10.607
68889W        W41215  21.170  15.796   3.215
68890W        W41216  19.558  16.152   1.303
68891W        W41217  12.223  21.042  11.474
68892W        W41218  38.036   6.792  13.881
68893W        W41219  36.355  27.001  14.923
68894W        W41220   7.309  16.153   1.829
68895W        W41221   2.374  38.070   0.862
68896W        W41222  15.608  18.613  12.505
68897W        W41223  28.506  44.483  11.929
68898W        W41224   8.715   8.196   3.196
68899W        W41225   4.874  20.033  11.882
68900W        W41226  22.204  28.977  13.492
68901W        W41227   4.938  17.251   0.285
68902W        W41228  28.621   9.198   3.633
68903W        W41229  18.240  23.217   3.687
68904W        W41230  37.053  34.969  13.822
68905W        W41231  18.787   8.254   1.739
68906W        W41232  28.542  15.627  12.578
68907W        W41233   1.295   3.949   0.730
68908W        W41234   2.328  16.791   2.702
68909W        W41235  43.373  13.167   1.339
68910W        W41236  21.084  40.877   4.138
68911W        W41237  40.847  29.119   4.715
68912W        W41238   5.912  36.098   2.837
68913W        W41239   7.716  25.027   2.193
68914W        W41240  23.177  21.708  13.351
68915W        W41241   0.861   4.893  12.431
68916W        W41242  39.838   1.429  10.593
68917W        W41243  36.586  35.536  13.360
68918W        W41244  10.166  34.932   4.332
68919W        W41245  20.274  13.832  13.435
68920W        W41246  19.570  23.663  11.968
68921W        W41247   7.407  16.223   3.376
68922W        W41248  39.921  36.021   2.901
68923W        W41249  35.405  38.839  11.936
68924W        W41250   6.723  24.694   2.704
68925W        W41251  11.738   5.803   3.367
68926W        W41252  11.244  42.002  10.505
68927W        W41253   6.826   9.743   2.316
68928W        W41254   3.762  33.577  12.368
68929W        W41255  42.469   4.705  12.990
68930W        W41256  22.135   5.864  12.388
68931W        W41257  15.593  36.021  14.353
68932W        W41258  26.581   9.781  13.467
68933W        W41259   8.308   6.898   1.762
68934W        W41260   2.770  41.528   1.355
68935W        W41261  21.538  43.004   0.856
68936W        W41262  33.874   6.326   2.714
68937W        W41263   7.813  10.237  13.903
68938W        W41264  34.488  10.796   0.737
68939W        W41265  20.050  38.944  13.793
68940W        W41266  32.420  17.246  10.995
68941W        W41267  16.105   8.196   2.707
68942W        W41268  29.439  19.112   4.266
68943W        W41269  36.482   5.396   2.321
68944W        W41270  38.029  14.112   3.152
68945W        W41271   1.401  37.063   2.699
68946W        W41272  29.469  21.246  14.943
68947W        W41273   8.160  15.152   4.290
68948W        W41274  38.534  31.481   2.794
68949W        W41275   4.336  33.048  12.835
68950W        W41276  43.288  19.648  14.446
68951W        W41277   6.921  22.582  12.405
68952W        W41278  33.506  28.061   3.317
68953W        W41279  30.487  18.578  10.906
68954W        W41280  40.875  21.188  10.406
68955W        W41281  41.523  31.490   4.296
68956W        W41282  14.633  26.589   4.294
68957W        W41283  40.801  10.733  12.095
68958W        W41284  32.081  43.480   2.749
68959W        W41285   2.361   0.482  14.427
68960W        W41286   1.761  31.026   0.861
68961W        W41287   2.282   5.422  11.914
68962W        W41288   0.435  27.074   2.190
68963W        W41289  23.110   3.858   0.746
68964W        W41290  26.048   2.826   1.225
68965W        W41291  31.015   8.286  14.436
68966W        W41292  28.568  36.875   1.787
68967W        W41293  20.536   1.483   2.776
68968W        W41294   8.660   3.300   0.303
68969W        W41295   5.291  26.151  12.556
68970W        W41296  21.547   2.375  14.831
68971W        W41297  37.422  25.714   4.202
68972W        W41298   1.786  22.175   0.351
68973W        W41299   0.920  27.945   4.657
68974W        W41300  13.703  29.615   0.254
68975W        W41301  37.961  12.340  14.436
68976W        W41302  41.817  30.138  11.609
68977W        W41303   8.845  14.171   2.227
68978W        W41304  42.934  29.109   4.232
68979W        W41305   8.324  19.603  14.762
68980W        W41306  38.551  24.659  10.934
68981W        W41307  13.144  23.524  14.508
68982W        W41308  13.235  24.702   9.520
68983W        W41309  26.981   1.447   2.717
68984W        W41310  13.153  44.289  12.427
68985W        W41311   2.836   0.265  10.448
68986W        W41312  26.954  36.080  13.329
68987W        W41313   3.826  38.338  10.429
68988W        W41314   1.367   7.856   0.837
68989W        W41315   6.272  18.579  12.986
68990W        W41316  25.194  44.987   4.254
68991W        W41317   7.381  43.418   4.152
68992W        W41318  44.383  35.931  12.409
68993W        W41319  41.853  17.307   0.769
68994W        W41320  39.324  11.173   0.272
68995W        W41321  41.384  23.554   1.344
68996W        W41322   3.860  26.589  14.346
68997W        W41323  32.441  44.985   0.303
68998W        W41324  17.113  20.232  12.563
68999W        W41325  12.768  36.572  13.318
69000W        W41326  39.342  22.167   0.777
69001W        W41327  28.532  38.869  14.294
69002W        W41328  44.446  13.680  11.592
69003W        W41329  21.230  16.687   9.931
69004W        W41330   6.357   7.415   4.129
69005W        W41331  20.725  23.613  13.351
69006W        W41332  24.553  37.542  12.067
69007W        W41333   5.918   4.851  13.466
69008W        W41334  40.394  28.172  13.005
69009W        W41335  41.918  27.505   3.354
69010W        W41336   8.855   3.809   4.663
69011W        W41337  24.521  27.004  14.768
69012W        W41338  23.533  44.260  11.022
69013W        W41339  35.432  18.094  14.819
69014W        W41340  33.905  28.955  12.089
69015W        W41341   6.322   2.295  13.307
69016W        W41342  16.567  11.335   0.295
69017W        W41343  10.158  38.065   4.119
69018W        W41344  37.565  27.095   1.399
69019W        W41345  32.044  21.695   2.274
69020W        W41346   7.870  32.921   0.408
69021W        W41347  17.715  23.724   0.930
69022W        W41348  12.710  21.112  13.343
69023W        W41349   4.398   0.308  11.547
69024W        W41350  15.578   9.156   4.622
69025W        W41351  29.999  17.586   3.743
69026W        W41352  19.212  17.664  10.410
69027W        W41353   4.846  16.665  10.075
69028W        W41354   6.293  40.346  14.845
69029W        W41355  28.182  31.480   2.307
69030W        W41356   5.194  34.579   3.853
69031W        W41357  23.725  18.250   2.320
69032W        W41358  39.364  30.908   1.891
69033W        W41359   1.734   8.761  10.593
69034W        W41360  44.817  36.477  11.539
69035W        W41361  40.907  27.536  11.971
69036W        W41362   4.389   2.434   0.786
69037W        W41363  12.815  26.040   2.301
69038W        W41364  24.211  26.122   0.415
69039W        W41365  14.802  36.006  10.464
69040W        W41366  23.087  20.091  11.902
69041W        W41367  22.119   1.782  11.002
69042W        W41368  34.518  37.405   3.228
69043W        W41369   9.801  38.399  11.602
69044W        W41370  44.334  35.385  11.488
69045W        W41371  16.133   0.269  13.893
69046W        W41372  12.801  25.192   0.749
69047W        W41373  37.470   1.481  13.455
69048W        W41374   1.971  23.010  12.881
69049W        W41375   7.254   9.364  13.443
69050W        W41376  42.818  42.463   3.340
69051W        W41377   6.298  31.437   3.640
69052W        W41378   6.702  14.778   2.850
69053W        W41379  10.877   0.928   0.742
69054W        W41380  33.930  36.481  10.966
69055W        W41381  29.128  14.261   1.440
69056W        W41382  19.611  39.547   1.448
69057W        W41383   3.798  17.685   1.211
69058W        W41384  39.054  43.485  11.046
69059W        W41385  36.497  21.052  13.870
69060W        W41386  21.556  25.019  12.841
69061W        W41387  10.287  39.842   0.406
69062W        W41388  41.320  26.981   0.340
69063W        W41389   8.797  29.562  13.548
69064W        W41390   1.373   1.896   1.874
69065W        W41391  21.521   0.467   2.671
69066W        W41392  23.642   4.244   0.475
69067W        W41393  19.621  13.640  13.962
69068W        W41394  11.687  43.960  14.848
69069W        W41395   0.416   0.819  12.471
69070W        W41396   3.771  33.039  12.984
69071W        W41397   1.936  13.709   2.404
69072W        W41398  44.902   9.306   1.433
69073W        W41399  32.416  10.727  11.501
69074W        W41400  16.648   0.446   1.735
69075W        W41401  27.148  16.762  13.882
69076W        W41402  22.576  10.678  13.002
69077W        W41403  11.320  19.184   4.622
69078W        W41404  15.320  10.876   0.838
69079W        W41405  11.207  16.575   2.680
69080W        W41406  39.386  13.678  12.540
69081W        W41407  19.634  40.499   1.848
69082W        W41408   0.812  40.486   3.809
69083W        W41409  34.117  24.214  14.311
69084W        W41410  29.953   4.345   4.763
69085W        W41411  39.050  14.703  14.456
69086W        W41412  35.445  12.163   3.737
69087W        W41413  34.093   3.324   1.355
69088W        W41414  25.103  34.865  13.841
69089W        W41415  26.655   6.245   1.869
69090W        W41416   7.791  14.769   4.160
69091W        W41417  11.647  10.677  10.643
69092W        W41418  17.182   2.936   4.125
69093W        W41419  19.063  28.948  12.976
69094W        W41420  15.155  29.664   2.869
69095W        W41421  40.360  11.642  10.051
69096W        W41422  33.007   8.193   2.752
69097W        W41423  32.895  24.654  12.922
69098W        W41424  35.459  26.081   0.889
69099W        W41425  23.687  11.286   2.308
69100W        W41426  37.467  12.200   0.441
69101W        W41427  10.784  26.200  14.760
69102W        W41428  41.801   1.857   4.639
69103W        W41429  35.500   9.183   4.660
69104W        W41430   1.350   6.887  13.824
69105W        W41431   3.231  35.577   0.385
69106W        W41432   7.227  20.622  12.835
69107W        W41433  11.625  40.431   5.163
69108W        W41434   7.881  33.034  12.474
69109W        W41435  42.509  22.105  14.927
69110W        W41436  39.832   7.243   0.838
69111W        W41437   0.986   7.246   3.671
69112W        W41438  11.327  39.929  12.921
69113W        W41439  37.504  31.554   4.325
69114W        W41440  31.422  44.818   1.414
69115W        W41441  27.084  26.096   1.232
69116W        W41442  31.958  26.208   2.357
69117W        W41443  35.572  28.570   1.760
69118W        W41444  38.512  24.017  12.088
69119W        W41445   3.942  21.623   4.135
69120W        W41446  32.544  15.260   2.286
69121W        W41447  34.517  38.854  11.470
69122W        W41448  19.688   3.768   0.869
69123W        W41449  29.988  13.222   4.344
69124W        W41450  32.596   2.838   1.424
69125W        W41451  41.969  41.347  13.484
69126W        W41452  43.787   4.781   3.375
69127W        W41453  19.773   7.852   1.757
69128W        W41454   0.384  44.486   1.299
69129W        W41455  22.631  40.447   3.843
69130W        W41456  15.725  20.114   3.290
69131W        W41457   4.390  29.615  14.838
69132W        W41458  19.770  43.798   1.856
69133W        W41459  12.772  39.442  13.941
69134W        W41460  18.623  19.189  14.397
69135W        W41461  42.825  11.788   1.284
69136W        W41462  35.437  44.356   4.772
69137W        W41463  24.602  27.140  10.944
69138W        W41464  42.889  17.754   3.831
69139W        W41465  16.700  10.828   1.318
69140W        W41466  28.044   3.217  10.516
69141W        W41467   0.426  35.497  14.960
69142W        W41468  33.602  42.956   4.124
69143W        W41469  21.080  38.029   0.359
69144W        W41470   0.988  17.284   3.303
69145W        W41471  29.627   2.397   2.376
69146W        W41472  32.428   7.225  12.988
69147W        W41473  15.820  20.685  13.989
69148W        W41474  39.918  25.514  13.479
69149W        W41475   6.316  16.274  14.408
69150W        W41476   9.178  35.418   2.851
69151W        W41477   0.934   4.306  14.436
69152W        W41478  33.066  26.577   2.778
69153W        W41479  23.518  32.518  12.381
69154W        W41480   1.895  41.423  13.992
69155W        W41481  21.234  24.052  11.513
69156W        W41482  15.188  43.465  14.944
69157W        W41483   7.760   9.361   4.653
69158W        W41484  43.017  37.471   1.418
69159W        W41485  19.219  24.484   2.270
69160W        W41486   5.245  12.167   0.907
69161W        W41487  31.643  16.602  13.462
69162W        W41488  42.413  25.023  13.792
69163W        W41489  35.092  15.590   1.446
69164W        W41490  28.654   7.301   4.838
69165W        W41491  10.332  28.999   2.205
69166W        W41492  26.672  22.024  12.520
69167W        W41493  30.115  31.106   3.152
69168W        W41494  39.928   7.813  12.949
69169W        W41495  10.346  36.992  14.963
69170W        W41496  39.907  41.441   0.742
69171W        W41497   1.963  15.300   3.719
69172W        W41498   7.671  33.618   4.755
69173W        W41499  31.588   0.253   3.223
69174W        W41500   6.292  29.059   1.220
69175W        W41501  41.505  23.125  11.468
69176W        W41502  24.158   9.661   4.757
69177W        W41503  14.303  21.023  14.857
69178W        W41504   0.451  12.852   4.623
69179W        W41505  25.183  35.951   1.431
69180W        W41506  15.152  14.800  10.891
69181W        W41507  28.115  13.319   0.902
69182W        W41508  38.431  26.198  10.925
69183W        W41509   5.742   4.713  11.083
69184W        W41510  39.390  18.668  12.066
69185W        W41511   7.353  44.932   0.341
69186W        W41512   3.245   7.787  13.401
69187W        W41513  39.321  15.245   4.653
69188W        W41514  12.120  12.699  12.352
69189W        W41515  14.338  15.667  12.012
69190W        W41516  15.617  26.523   3.662
69191W        W41517  13.266   3.845  14.884
69192W        W41518  33.403  23.221  13.878
69193W        W41519  30.062  33.545  14.996
69194W        W41520  33.506  27.149  10.517
69195W        W41521  42.823  27.449  13.892
69196W        W41522   3.907  12.251   4.807
69197W        W41523  14.333  25.517   5.276
69198W        W41524  22.674  24.528   2.185
69199W        W41525  41.865  21.655   4.801
69200W        W41526   7.256   9.830   0.746
69201W        W41527  19.671  15.718   0.762
69202W        W41528   3.425   3.393  10.011
69203W        W41529   8.744   9.790   2.247
69204W        W41530  29.622  17.280   4.769
69205W        W41531  26.127  39.515   4.720
69206W        W41532  39.468  44.357   3.679
69207W        W41533  24.074  16.622  11.865
69208W        W41534  13.828  23.202   0.358
69209W        W41535   4.238  17.192  13.998
69210W        W41536   8.736  40.515   3.863
69211W        W41537  44.282   9.860   2.870
69212W        W41538  12.353  18.759   3.739
69213W        W41539  11.755   9.655   4.657
69214W        W41540  38.897  43.949   4.271
69215W        W41541  21.041  35.024   2.879
69216W        W41542   4.911   3.939  13.379
69217W        W41543   3.381  36.449  12.946
69218W        W41544  22.243  21.183   1.785
69219W        W41545  23.200  11.763   3.300
69220W        W41546  26.655   0.988   5.135
69221W        W41547   1.375   9.856  11.501
69222W        W41548  11.201  35.378  11.563
69223W        W41549  29.925   5.352   4.170
69224W        W41550  40.960   0.958   3.316
69225W        W41551  15.161   2.937   1.766
69226W        W41552  13.124  11.282  10.073
69227W        W41553  24.190   1.884   0.833
69228W        W41554  37.862   3.224  11.025
69229W        W41555  36.871  19.236   0.905
69230W        W41556  27.539  20.677  14.806
69231W        W41557  14.724  23.586   4.207
69232W        W41558  22.109  20.724   0.376
69233W        W41559   8.701  20.270   0.242
69234W        W41560  32.580  19.118  10.478
69235W        W41561  28.574  37.366   0.951
69236W        W41562  44.952  39.503   2.867
69237W        W41563  16.756  12.217  14.472
69238W        W41564  36.038  30.041   3.733
69239W        W41565   5.331  22.608  13.917
69240W        W41566  38.330  44.971  10.448
69241W        W41567  30.138  35.983  12.047
69242W        W41568  35.373  16.579   3.750
69243W        W41569  13.705  11.831  12.409
69244W        W41570  35.101  23.111   4.763
69245W        W41571   2.300  17.251  13.012
69246W        W41572  27.549  32.104   4.615
69247W        W41573  14.246  39.541  13.533
69248W        W41574  26.537  12.772  12.459
69249W        W41575   7.730  28.070  10.994
69250W        W41576   7.825  12.284  14.767
69251W        W41577  28.180  38.346   3.796
69252W        W41578  13.804   2.773  13.508
69253W        W41579  12.760   1.239   4.718
69254W        W41580  34.487  21.182   0.410
69255W        W41581  25.684  21.634   2.189
69256W        W41582  35.041  27.943  14.019
69257W        W41583  33.973  38.923   3.654
69258W        W41584  11.212  18.753  12.453
69259W        W41585  40.393  11.772  14.866
69260W        W41586   7.412   5.421   2.665
69261W        W41587  22.179  43.509   3.830
69262W        W41588  15.621  26.548  12.537
69263W        W41589  22.170  41.022  14.462
69264W        W41590  18.621   8.199   4.151
69265W        W41591   9.348  14.654   2.711
69266W        W41592   9.266  15.193  11.464
69267W        W41593  43.301  34.494  14.808
69268W        W41594  11.816   8.837   1.697
69269W        W41595  16.119   2.795   4.818
69270W        W41596   0.795  38.496   4.808
69271W        W41597   3.279  28.652   4.795
69272W        W41598   2.887  12.247   2.275
69273W        W41599  19.230  16.160   1.256
69274W        W41600  35.903   1.334  12.487
69275W        W41601  16.811  23.587   4.744
69276W        W41602   2.856   9.792  10.518
69277W        W41603   6.340  13.275  13.371
69278W        W41604  26.994   7.332   0.938
69279W        W41605  41.998  40.490   5.231
69280W        W41606  39.314   3.750   4.234
69281W        W41607  33.049  18.557  14.865
69282W        W41608  17.087  40.306   4.630
69283W        W41609  28.468  44.918  10.619
69284W        W41610  39.860  38.048  11.857
69285W        W41611   1.881  28.091   1.898
69286W        W41612   3.372  36.894   4.621
69287W        W41613  14.108  37.573  10.101
69288W        W41614  26.565  11.790  12.896
69289W        W41615  19.576  43.010  10.535
69290W        W41616   6.870  27.658   1.230
69291W        W41617  29.552  20.177  14.434
69292W        W41618  18.254  10.654  10.435
69293W        W41619  32.016  29.005  11.943
69294W        W41620  24.229  44.794   4.120
69295W        W41621  30.471  41.474  13.429
69296W        W41622  42.453  12.734   1.751
69297W        W41623   4.365  40.367  13.460
69298W        W41624  10.804  26.964  12.853
69299W        W41625  42.408  40.426   2.184
69300W        W41626  10.711  33.428  14.275
69301W        W41627  28.963   2.296  13.512
69302W        W41628  33.091  39.509  13.335
69303W        W41629  44.798   8.757   2.781
69304W        W41630   9.721  23.656   2.286
69305W        W41631  33.047   4.879  12.077
69306W        W41632  19.271  19.552   4.287
69307W        W41633  12.181  15.244   2.850
69308W        W41634  23.049   5.302  14.407
69309W        W41635  19.185  25.548  13.349
69310W        W41636  25.075   5.374  11.995
69311W        W41637   1.956  38.879   3.183
69312W        W41638  40.997  19.241   3.355
69313W        W41639  15.248  13.151   3.748
69314W        W41640   4.367  23.687  13.823
69315W        W41641   6.323  12.675   3.646
69316W        W41642  10.371   5.867  11.911
69317W        W41643   0.483  39.509  14.431
69318W        W41644  37.469  20.573  11.008
69319W        W41645  28.069  22.127   2.759
69320W        W41646   6.753  44.428   4.188
69321W        W41647  23.240  22.192   2.706
69322W        W41648  38.427  44.844   0.290
69323W        W41649   2.943  30.927  12.874
69324W        W41650   8.664  17.712   3.868
69325W        W41651   2.763   5.272  10.958
69326W        W41652  25.534   1.380  10.909
69327W        W41653  30.594   0.747  10.925
69328W        W41654   3.840  42.455  10.541
69329W        W41655  13.655  12.209   2.821
69330W        W41656  44.433  39.894   3.214
69331W        W41657   1.770  37.027  10.889
69332W        W41658  42.908  42.916   4.762
69333W        W41659  24.511  16.662  12.934
69334W        W41660  28.440  18.256   3.774
69335W        W41661  24.199  26.629  13.895
69336W        W41662  30.091  19.255  12.451
69337W        W41663  16.286  19.759   0.801
69338W        W41664  36.906   4.739  13.354
69339W        W41665  37.034   1.954  12.040
69340W        W41666   3.301  42.785   2.828
69341W        W41667  31.463   7.794   2.734
69342W        W41668  24.066  30.001   3.213
69343W        W41669  37.479  11.836   2.312
69344W        W41670  34.610  24.620   2.220
69345W        W41671  29.457  12.746  11.525
69346W        W41672  22.171  39.433   2.374
69347W        W41673  34.990  38.009   2.301
69348W        W41674  30.116  23.119   3.793
69349W        W41675  23.233   7.295   1.368
69350W        W41676  19.628  11.302   2.799
69351W        W41677  22.216  16.802  13.056
69352W        W41678  27.452  17.760   1.259
69353W        W41679  10.656  22.744   2.211
69354W        W41680  21.198  12.164  14.406
69355W        W41681  35.003  37.519   1.716
69356W        W41682   2.264  31.980   3.809
69357W        W41683  44.305  19.129  14.866
69358W        W41684  20.700   3.397   0.801
69359W        W41685  28.437  25.571  14.425
69360W        W41686  37.869  32.404   0.307
69361W        W41687  38.380  21.531   1.865
69362W        W41688  43.331   1.904   3.758
69363W        W41689  29.667  40.819   0.344
69364W        W41690   7.806  26.667  12.973
69365W        W41691   5.334   3.435   1.262
69366W        W41692  43.767  32.633  11.396
69367W        W41693  33.422  13.109   4.233
69368W        W41694  31.985  13.137  13.472
69369W        W41695  17.607  13.300   2.416
69370W        W41696  37.894  41.499  10.595
69371W        W41697  18.625  16.718   3.336
69372W        W41698  15.780  15.151  12.579
69373W        W41699   5.706  25.125   3.700
69374W        W41700  11.830  41.963  11.376
69375W        W41701   8.798  42.419   3.285
69376W        W41702  35.956  39.505   0.957
69377W        W41703   8.848  16.107   1.802
69378W        W41704  18.634  17.130  10.572
69379W        W41705  27.152  24.602  12.859
69380W        W41706   3.367  23.491  10.610
69381W        W41707   5.732  33.572   4.272
69382W        W41708  28.070  14.229  11.925
69383W        W41709   6.741   6.292  14.793
69384W        W41710  41.928  22.723   2.705
69385W        W41711  37.562  39.860  11.550
69386W        W41712  42.928  12.342  13.983
69387W        W41713   3.907  27.990   9.923
69388W        W41714  24.122   1.916   3.796
69389W        W41715   5.394  43.004  12.985
69390W        W41716   1.481  23.140   3.267
69391W        W41717  16.646  36.416   3.244
69392W        W41718   1.351  15.301   0.435
69393W        W41719   0.837  34.071  15.000
69394W        W41720  11.131  25.599   1.257
69395W        W41721  40.363  21.212  13.401
69396W        W41722   1.371  31.576   2.664
69397W        W41723  35.960  19.088  11.606
69398W        W41724  26.614  43.975   4.695
69399W        W41725  10.845   4.222  10.642
69400W        W41726  24.685   7.862   3.219
69401W        W41727  42.507  36.978  13.534
69402W        W41728   4.353  11.656  11.997
69403W        W41729  38.540  10.354   1.751
69404W        W41730  26.701  26.504   5.229
69405W        W41731   4.872  26.636   5.221
69406W        W41732   3.931  37.870  13.476
69407W        W41733  39.954   3.298  12.386
69408W        W41734   8.263   0.925   3.706
69409W        W41735   0.828   6.253   5.262
69410W        W41736  42.791  33.015  11.485
69411W        W41737  32.560  27.460  14.995
69412W        W41738  40.390  21.217  13.014
69413W        W41739   8.186  42.492  11.457
69414W        W41740  26.087   1.791   4.175
69415W        W41741  30.445  17.136   2.303
69416W        W41742  26.625   8.380   1.877
69417W        W41743  21.257  16.661  13.403
69418W        W41744  19.145   7.257   3.241
69419W        W41745  11.795  42.881   0.254
69420W        W41746  32.404  31.113   3.194
69421W        W41747   5.881  20.207   1.905
69422W        W41748  35.060  14.808   1.924
69423W        W41749  25.970   9.281  12.388
69424W        W41750  24.981  36.354   0.275
69425W        W41751   0.313  34.966   3.639
69426W        W41752  19.596  16.596  14.852
69427W        W41753  40.407  32.396  14.435
69428W        W41754  27.663   2.837   1.267
69429W        W41755   4.818  10.189  13.476
69430W        W41756  27.688  44.004   2.883
69431W        W41757   3.454  18.705   4.193
69432W        W41758  36.572  35.064  10.151
69433W        W41759  38.400  26.569  11.519
69434W        W41760  12.775  17.706   2.371
69435W        W41761  22.542  17.210   0.363
69436W        W41762  22.517  11.159   2.179
69437W        W41763   2.345  25.090  13.497
69438W        W41764  37.559  23.678  14.412
69439W        W41765   5.930  44.984   4.768
69440W        W41766   0.915  30.081  13.972
69441W        W41767  16.801  11.697   1.848
69442W        W41768  34.385  43.970   2.209
69443W        W41769  12.612  30.574  11.898
69444W        W41770  39.545  21.114  14.889
69445W        W41771  27.512   0.341  12.952
69446W        W41772   5.884  12.768   3.724
69447W        W41773  30.062  33.541  11.602
69448W        W41774  16.282   8.790  11.400
69449W        W41775  38.827   3.229   4.737
69450W        W41776   2.242  15.734   0.397
69451W        W41777   3.366  28.042  14.947
69452W        W41778  37.494  19.258   2.669
69453W        W41779  23.587  23.133   2.884
69454W        W41780  34.998  41.362   0.332
69455W        W41781  28.628   6.358   4.791
69456W        W41782   6.896  34.390   1.386
69457W        W41783   0.391  42.350   0.343
69458W        W41784   2.333  32.472  13.940
69459W        W41785  26.543  33.952   3.201
69460W        W41786  26.644  15.288   4.225
69461W        W41787  12.857  29.947  11.013
69462W        W41788  25.621  23.166   2.802
69463W        W41789  41.313  22.244  13.379
69464W        W41790   7.887  35.047  10.899
69465W        W41791  22.081  26.667   1.322
69466W        W41792   6.421  22.163  13.409
69467W        W41793  27.116  23.087  10.999
69468W        W41794  31.594  41.786   3.300
69469W        W41795  33.517  19.046   0.902
69470W        W41796  42.026  37.860  11.917
69471W        W41797  18.572  34.469   3.690
69472W        W41798  17.635  22.654  12.573
69473W        W41799   7.907  24.158   1.318
69474W        W41800  18.639   4.343  13.388
69475W        W41801   0.485  31.950  13.513
69476W        W41802   9.858  16.593  14.984
69477W        W41803  38.548  13.272   0.877
69478W        W41804  16.634  24.570  12.972
69479W        W41805  26.494  14.247   3.651
69480W        W41806   2.294  31.540  11.066
69481W        W41807  26.033  13.106  14.482
69482W        W41808  14.117   7.815   2.710
69483W        W41809  23.703  22.523   4.682
69484W        W41810  20.743  38.002   3.800
69485W        W41811  17.676  25.645  14.851
69486W        W41812  23.203  35.874  12.050
69487W        W41813  27.062  44.765   3.347
69488W        W41814  40.945  35.386   4.742
69489W        W41815   8.278  33.013   0.479
69490W        W41816  39.014  15.806   2.674
69491W        W41817  14.199   7.686  11.479
69492W        W41818  43.800  33.974   0.810
69493W        W41819  22.077  27.593  12.492
69494W        W41820  15.280  13.236   0.343
69495W        W41821  13.203  29.469   2.770
69496W        W41822  44.934   0.434  12.841
69497W        W41823  36.557  41.442  13.807
69498W        W41824  38.822  24.975  10.160
69499W        W41825  13.821  37.353   4.692
69500W        W41826  20.580  34.974   3.310
69501W        W41827  22.051  33.893  13.389
69502W        W41828  42.014  31.030   1.296
69503W        W41829  23.649  31.128   1.752
69504W        W41830  35.039  11.709  12.837
69505W        W41831  38.548  25.088   1.787
69506W        W41832  34.556  26.199   3.698
69507W        W41833  10.310  19.123  13.937
69508W        W41834  35.010   9.795  13.835
69509W        W41835   0.310  12.343  13.901
69510W        W41836  40.868  22.035   0.269
69511W        W41837  27.185  23.038   0.809
69512W        W41838  24.670  26.156   4.303
69513W        W41839  14.782  29.651   2.355
69514W        W41840  23.018  42.855  11.414
69515W        W41841  25.128  20.740  10.461
69516W        W41842  29.990  14.156  13.057
69517W        W41843  22.741   1.794   0.364
69518W        W41844  15.158  35.886   0.378
69519W        W41845  40.813  33.560  14.770
69520W        W41846   5.811  23.080   3.670
69521W        W41847  21.163  38.887   5.184
69522W        W41848  21.512  32.523  11.918
69523W        W41849   5.332   1.385   3.329
69524W        W41850   8.784  30.148   4.810
69525W        W41851  31.126  19.778   2.231
69526W        W41852  30.547  36.378   4.640
69527W        W41853   0.250  24.131   0.882
69528W        W41854  18.646  20.254  13.867
69529W        W41855   3.221  28.638   2.216
69530W        W41856  14.729  42.416  13.855
69531W        W41857  14.701  32.993  14.857
69532W        W41858   3.892  21.714   1.771
69533W        W41859  40.041  29.042  10.468
69534W        W41860   8.175  26.034  13.401
69535W        W41861  40.882  31.925   2.385
69536W        W41862   2.250  24.092  10.039
69537W        W41863  14.283  35.453  10.522
69538W        W41864  26.679  42.451   3.183
69539W        W41865  17.191   2.402  11.376
69540W        W41866  44.474  25.570   2.780
69541W        W41867  31.466   0.316   0.422
69542W        W41868   7.847   1.420  11.473
69543W        W41869  18.768  41.454  12.553
69544W        W41870  44.866  12.187   0.736
69545W        W41871  40.869   7.803   4.760
69546W        W41872  10.184  16.666  14.360
69547W        W41873  42.332   2.382   2.872
69548W        W41874  29.002  40.906   3.723
69549W        W41875  22.650  38.399   1.392
69550W        W41876  26.045  33.394  13.479
69551W        W41877  13.107   7.773  10.554
69552W        W41878   6.341  30.907  14.291
69553W        W41879  33.411   1.343  11.921
69554W        W41880  24.090  43.434  11.022
69555W        W41881  35.460  28.150   3.292
69556W        W41882  28.992  30.045   0.276
69557W        W41883  30.580  39.838  12.472
69558W        W41884  34.584  26.469   4.807
69559W        W41885  41.522  38.515   1.233
69560W        W41886  33.951  40.387  11.086
69561W        W41887  13.789  31.085   3.198
69562W        W41888  29.628  16.161  14.406
69563W        W41889   2.954  13.287   3.633
69564W        W41890   9.646  43.010  12.940
69565W        W41891  27.551  35.592  11.462
69566W        W41892  43.797  35.510   4.813
69567W        W41893   1.359  35.867   1.808
69568W        W41894  12.201  14.164   3.764
69569W        W41895  27.584  20.667   3.674
69570W        W41896  24.591  36.040   0.913
69571W        W41897  30.152  35.036   2.902
69572W        W41898  20.062  27.978   4.669
69573W        W41899   5.234  31.542   1.437
69574W        W41900  36.582  44.859   3.799
69575W        W41901  35.107  13.812  10.504
69576W        W41902  37.038  35.997  12.479
69577W        W41903  17.091  13.195   4.682
69578W        W41904  39.405   2.889   1.772
69579W        W41905  20.052  13.304  11.571
69580W        W41906  20.097   3.955   2.743
69581W        W41907  23.201   2.951   3.794
69582W        W41908   3.407  33.409  11.418
69583W        W41909  33.485   9.216  11.570
69584W        W41910  39.913  10.865   0.925
69585W        W41911  26.975  17.116   0.384
69586W        W41912  18.658  22.662   5.322
69587W        W41913  27.109  39.853   2.363
69588W        W41914   3.944  35.046   4.838
69589W        W41915  36.021  42.300  12.985
69590W        W41916  39.455  19.278  14.788
69591W        W41917  38.539  33.884   3.298
69592W        W41918   9.188  24.181   1.711
69593W        W41919  28.002   4.797  10.574
69594W        W41920   4.733  22.150  11.459
69595W        W41921  18.143  40.335  14.822
69596W        W41922  16.220  14.335   1.385
69597W        W41923  40.457  25.537  10.485
69598W        W41924  10.695  23.986  13.347
69599W        W41925   7.909  44.456  14.360
69600W        W41926  30.493  34.936  13.994
69601W        W41927  32.535  37.342  14.361
69602W        W41928  33.480  16.571   9.930
69603W        W41929  41.460  37.013  13.367
69604W        W41930   0.903   2.436   0.342
69605W        W41931  12.734  19.248   1.342
69606W        W41932  11.272  13.608   0.339
69607W        W41933   5.336  10.255   2.254
69608W        W41934  32.015  36.087   4.237
69609W        W41935   3.450  44.266   0.942
69610W        W41936  11.722  24.976  12.414
69611W        W41937   2.742  16.170   1.801
69612W        W41938  23.709  15.609  11.494
69613W        W41939  40.863   7.832   2.743
69614W        W41940  22.207  19.759  11.449
69615W        W41941  38.470  14.332   2.879
69616W        W41942   5.765  41.537  11.124
69617W        W41943  18.632  19.597   1.917
69618W        W41944  43.966  18.549   3.651
69619W        W41945   7.778  43.007   5.217
69620W        W41946  10.329  42.831   3.652
69621W        W41947  20.669  20.571  10.974
69622W        W41948   8.235  11.280  10.644
69623W        W41949  35.917  11.714   1.787
69624W        W41950   6.685  42.424   4.819
69625W        W41951   3.425  17.238   4.178
69626W        W41952  27.024  29.519  11.891
69627W        W41953  29.598  35.472   3.245
69628W        W41954  43.863  25.667  11.913
69629W        W41955  42.032  26.619   3.239
69630W        W41956  41.419  35.378  11.124
69631W        W41957  37.417  13.275  11.104
69632W        W41958  23.032  39.862   9.470
69633W        W41959  14.589  32.036   2.184
69634W        W41960  23.006   5.738   4.715
69635W        W41961  42.796  18.157   0.321
69636W        W41962   0.365  38.477  10.578
69637W        W41963  29.148  39.395   2.817
69638W        W41964  31.524  14.665   3.162
69639W        W41965   5.231  40.909  13.421
69640W        W41966  30.056  22.036  13.514
69641W        W41967  17.244  33.614   0.933
69642W        W41968  12.241  20.250   3.862
69643W        W41969  19.067   5.827   4.300
69644W        W41970   7.231  19.106   2.664
69645W        W41971  43.019   7.288  13.545
69646W        W41972  10.175   6.794   1.403
69647W        W41973   7.738  29.135  11.508
69648W        W41974   2.934  34.946  12.537
69649W        W41975  11.720  13.274  11.568
69650W        W41976  27.092  13.147  11.068
69651W        W41977  12.731   0.966   3.343
69652W        W41978  26.667  33.093  12.025
69653W        W41979  32.564  11.753  11.538
69654W        W41980  18.688  20.585  12.343
69655W        W41981  40.919  42.886   0.475
69656W        W41982  36.905   8.801   0.396
69657W        W41983  21.072  20.030  13.952
69658W        W41984  41.484  20.548   4.836
69659W        W41985  29.106   8.674  11.911
69660W        W41986   4.823  15.269   1.901
69661W        W41987  27.962  12.185   3.274
69662W        W41988  14.737  10.736   0.760
69663W        W41989   2.322  15.190  14.348
69664W        W41990  43.296  36.045   2.359
69665W        W41991  30.538  22.532   2.744
69666W        W41992  15.247   8.369  14.836
69667W        W41993  27.157  37.079  11.438
69668W        W41994  14.816  21.144   0.744
69669W        W41995  20.197  26.521  14.817
69670W        W41996  21.666  14.764   2.366
69671W        W41997  41.886  11.254  13.488
69672W        W41998  43.381  30.949  10.532
69673W        W41999  35.004  25.061   2.327
69674W        W42000  28.651   0.396   1.262
69675W        W42001  16.654  33.036   1.830
69676W        W42002   3.317   2.362   4.310
69677W        W42003  10.709   3.841  14.945
69678W        W42004  10.362  33.001   3.797
69679W        W42005  27.447  36.030   2.701
69680W        W42006  19.599   8.875   4.179
69681W        W42007   9.740  15.290  12.351
69682W        W42008  17.074  40.459  14.432
69683W        W42009  10.711  13.686  12.370
69684W        W42010  29.523  34.081  14.996
69685W        W42011  38.395   7.853   2.820
69686W        W42012  21.549   0.383  12.417
69687W        W42013   4.769  23.136  14.392
69688W        W42014  25.094  34.389   2.896
69689W        W42015   1.417  27.037   3.331
69690W        W42016  41.861   0.758  12.837
69691W        W42017  41.316  44.956   1.300
69692W        W42018  14.596   3.262  13.514
69693W        W42019  11.155  24.685  14.895
69694W        W42020  37.876  32.085   1.734
69695W        W42021  28.180   2.862   4.721
69696W        W42022   7.707  34.882  13.461
69697W        W42023  39.996   2.237  14.944
69698W        W42024  32.436  38.827   0.840
69699W        W42025  14.247   2.442   2.379
69700W        W42026  38.549   1.264   0.274
69701W        W42027  14.680  21.613   1.892
69702W        W42028   8.710  27.037   0.833
69703W        W42029   7.854  41.949  14.438
69704W        W42030  16.681  32.093  11.946
69705W        W42031  22.185  34.556  12.878
69706W        W42032  44.769  36.364  14.888
69707W        W42033  13.657  43.414   3.265
69708W        W42034  20.220  35.886  10.503
69709W        W42035   3.907  28.026   1.253
69710W        W42036  10.337   2.934  14.781
69711W        W42037  38.937   6.882  10.446
69712W        W42038   4.351  32.410  13.840
69713W        W42039  42.432  18.283  11.100
69714W        W42040  18.086   4.291  12.076
69715W        W42041  16.642  39.382   3.322
69716W        W42042  19.577  15.108   2.376
69717W        W42043  43.465   5.305  12.949
69718W        W42044   3.844   1.257  13.380
69719W        W42045  17.171  25.670  14.449
69720W        W42046  22.053   2.758  14.298
69721W        W42047  13.799  32.043   2.691
69722W        W42048  12.173  35.525  14.988
69723W        W42049  32.967   8.684   3.729
69724W        W42050   5.735  16.763   0.388
69725W        W42051  31.966  10.336   3.170
69726W        W42052   7.368  37.984  12.554
69727W        W42053  14.742  18.109  14.981
69728W        W42054  43.455  37.383  14.355
69729W        W42055  10.750  14.269  14.508
69730W        W42056  24.042  27.157  10.560
69731W        W42057  31.608   7.871  13.496
69732W        W42058   0.930  20.699  12.350
69733W        W42059   3.270  15.246   4.169
69734W        W42060   9.799  40.895  11.031
69735W        W42061  27.169  36.986  10.898
69736W        W42062  31.445  11.716  12.966
69737W        W42063  40.934   3.750   1.900
69738W        W42064  28.094  24.084   4.182
69739W        W42065  15.284   9.347   2.246
69740W        W42066  15.309  29.976  12.475
69741W        W42067   8.383  37.931   4.719
69742W        W42068   1.859  16.091  14.828
69743W        W42069   2.790  24.048   5.638
69744W        W42070  44.968  17.758   2.240
69745W        W42071  32.997  15.699  13.438
69746W        W42072  15.821  24.149   2.903
69747W        W42073  21.108  41.292  12.881
69748W        W42074   2.741   4.862  10.969
69749W        W42075   1.772   2.818  12.410
69750W        W42076  43.411   9.184   0.431
69751W        W42077   8.741  38.517  14.876
69752W        W42078  33.526   8.767  10.467
69753W        W42079   6.713  28.522   0.727
69754W        W42080  21.154   0.348  10.128
69755W        W42081  43.429  20.107  13.037
69756W        W42082  36.369  29.651   4.216
69757W        W42083   6.857  43.891  11.509
69758W        W42084  14.243  43.298  12.072
69759W        W42085   1.962   4.429   4.270
69760W        W42086  42.846  25.173  12.079
69761W        W42087  21.530   8.316  11.599
69762W        W42088  30.606  41.441   0.368
69763W        W42089  27.098  41.899   4.732
69764W        W42090   4.305  42.372   1.859
69765W        W42091  26.014  28.584   1.272
69766W        W42092  32.988  43.348  13.533
69767W        W42093  10.181  18.763   3.767
69768W        W42094  29.553   5.299  11.997
69769W        W42095   1.870   5.433   0.792
69770W        W42096   4.786  38.911  11.394
69771W        W42097  19.758   1.459   2.834
69772W        W42098  38.963  44.422  12.537
69773W        W42099  19.126  24.082   3.188
69774W        W42100   1.824   2.910   0.395
69775W        W42101  26.171   5.746   1.858
69776W        W42102  33.011  15.814  14.280
69777W        W42103   0.354   7.239  11.053
69778W        W42104  36.361  35.427   9.605
69779W        W42105  16.171  37.967  10.953
69780W        W42106  43.965   2.298   1.887
69781W        W42107  35.411  23.526  11.075
69782W        W42108  26.978   9.316  14.370
69783W        W42109   5.763  12.848  12.471
69784W        W42110  11.349  31.525  13.801
69785W        W42111   5.390  23.546  12.077
69786W        W42112  42.031   6.361  12.517
69787W        W42113   5.285  44.807  14.453
69788W        W42114  40.023  44.473   2.795
69789W        W42115  37.427  35.085  12.437
69790W        W42116  17.076   6.388   5.320
69791W        W42117  13.623  16.316  13.521
69792W        W42118  14.200  42.860  11.983
69793W        W42119   6.270   6.894   4.813
69794W        W42120  15.110   2.237   3.306
69795W        W42121  11.221   8.232  11.013
69796W        W42122  14.097  23.174   0.801
69797W        W42123   4.876  21.722   3.648
69798W        W42124  37.401   9.864   0.842
69799W        W42125  42.932  10.845   4.118
69800W        W42126  24.529  22.581  12.390
69801W        W42127  18.262  33.889  13.888
69802W        W42128  13.189  27.941  10.104
69803W        W42129  35.055  28.599  11.091
69804W        W42130   4.776  12.334  13.476
69805W        W42131  24.133  37.845   3.332
69806W        W42132   2.382  16.201   3.684
69807W        W42133  14.709   2.794  13.510
69808W        W42134  42.346   4.711  11.121
69809W        W42135  11.722   0.845   0.732
69810W        W42136  17.264  21.170  13.851
69811W        W42137  36.368  26.692   0.476
69812W        W42138  33.091   3.461  11.431
69813W        W42139  15.207  31.488  13.023
69814W        W42140  26.092   1.459   4.324
69815W        W42141   6.845  40.312  12.931
69816W        W42142  38.950   8.678  11.955
69817W        W42143   3.844  20.558  13.892
69818W        W42144  24.111  30.501  13.947
69819W        W42145  11.195  34.403   3.242
69820W        W42146  38.991  25.061   4.269
69821W        W42147   7.230  15.311   3.260
69822W        W42148  27.594  24.035  14.905
69823W        W42149   9.264  27.578  12.949
69824W        W42150  39.833   7.843   1.906
69825W        W42151  36.999  36.061   3.693
69826W        W42152   3.891   2.265   1.268
69827W        W42153   6.909  25.663   3.723
69828W        W42154  36.894  33.562   4.296
69829W        W42155   2.953  43.827   4.717
69830W        W42156  34.514   9.798   2.332
69831W        W42157   7.867  18.595  13.352
69832W        W42158  31.950  33.901   3.368
69833W        W42159  33.946  22.581  11.576
69834W        W42160   2.471  19.563  13.398
69835W        W42161  12.710   3.720   4.240
69836W        W42162   1.756  21.139  13.476
69837W        W42163   4.815   3.417  14.497
69838W        W42164   9.341   1.411   0.255
69839W        W42165  39.881   2.959  13.993
69840W        W42166  38.904  27.672  13.984
69841W        W42167  25.210  38.820   0.291
69842W        W42168  29.582  43.334  12.524
69843W        W42169  11.311  10.156  11.535
69844W        W42170  21.189  25.585  14.801
69845W        W42171  23.040  36.019  10.543
69846W        W42172  26.592   8.761  10.475
69847W        W42173   1.353   6.845  14.277
69848W        W42174  22.627  29.938   0.752
69849W        W42175  19.234  34.571  12.461
69850W        W42176   4.805  35.545   3.830
69851W        W42177  43.513  16.770  11.996
69852W        W42178   8.683  11.191  13.919
69853W        W42179  19.120   1.358   1.715
69854W        W42180  42.281  28.640  11.857
69855W        W42181  38.987  32.636  14.806
69856W        W42182  24.030  21.593   2.386
69857W        W42183  26.088  41.830  14.289
69858W        W42184  14.272  29.615   4.633
69859W        W42185  20.627   0.374  13.316
69860W        W42186  23.072  26.989   3.747
69861W        W42187  27.965   8.704  13.508
69862W        W42188   8.725   7.274   4.692
69863W        W42189  28.633  26.694   4.215
69864W        W42190   5.750  31.506   2.260
69865W        W42191  26.634  14.639   1.903
69866W        W42192  40.973   8.210  10.928
69867W        W42193   7.287  26.037  11.916
69868W        W42194  21.648   7.225   4.199
69869W        W42195  44.981  21.639   4.192
69870W        W42196  44.432  19.063  12.035
69871W        W42197  35.928  14.315   5.104
69872W        W42198  38.520  11.230   2.357
69873W        W42199  41.039  11.372  14.371
69874W        W42200  30.999  43.329  14.319
69875W        W42201  14.780  42.348   1.792
69876W        W42202  21.230  18.177  12.982
69877W        W42203  27.525  19.190   2.376
69878W        W42204  26.092  19.625  11.598
69879W        W42205  33.447  20.550  14.381
69880W        W42206   0.408   5.903   4.635
69881W        W42207  34.434  27.665  13.360
69882W        W42208  10.144  25.108  10.970
69883W        W42209   4.439  16.624   3.191
69884W        W42210  15.254  11.805  10.973
69885W        W42211  35.482  31.086  14.432
69886W        W42212  10.789   3.931   1.784
69887W        W42213  20.211   8.255  11.414
69888W        W42214  33.060  22.511  10.932
69889W        W42215   3.836   1.258   4.752
69890W        W42216  34.392  21.743   4.690
69891W        W42217  25.596  26.603   3.166
69892W        W42218  20.614  30.471   4.666
69893W        W42219  11.837  11.644   5.173
69894W        W42220  14.825  39.378  14.974
69895W        W42221  24.209   9.361  12.409
69896W        W42222  28.465   1.768   1.774
69897W        W42223   3.907  33.080   4.289
69898W        W42224  22.163  16.140   1.929
69899W        W42225  37.420   0.313   3.245
69900W        W42226  10.213  37.032  11.414
69901W        W42227  26.554  15.582   0.771
69902W        W42228  15.291  35.954   2.812
69903W        W42229  24.225   4.738  10.003
69904W        W42230  22.721   8.711   4.259
69905W        W42231  37.969  15.114  11.948
69906W        W42232  44.448  11.769   3.282
69907W        W42233  21.685  21.029  10.997
69908W        W42234  16.222  38.041  13.890
69909W        W42235  17.183  37.854   1.243
69910W        W42236  33.520  23.116   2.375
69911W        W42237  40.346  35.389  10.928
69912W        W42238  23.216  33.402  12.044
69913W        W42239  28.514  26.075   1.872
69914W        W42240   4.862   8.403  14.866
69915W        W42241  37.383  12.723  14.461
69916W        W42242  43.481  31.507  12.483
69917W        W42243  38.878  41.947  11.122
69918W        W42244   2.894  37.366   2.741
69919W        W42245  24.064  42.344  13.041
69920W        W42246  31.408  24.704  14.804
69921W        W42247  19.622  12.296  12.040
69922W        W42248  38.893  23.672  14.779
69923W        W42249  42.795   4.825  13.362
69924W        W42250  30.537  20.124  12.386
69925W        W42251   8.381  13.240   4.806
69926W        W42252  12.270  39.484   1.366
69927W        W42253  21.177  18.781   5.175
69928W        W42254  11.335  21.152  14.390
69929W        W42255  18.605  21.540   4.704
69930W        W42256  20.060   6.860  13.491
69931W        W42257  11.172  42.943   2.814
69932W        W42258  20.586  32.586  11.529
69933W        W42259  39.424   2.450  14.409
69934W        W42260  30.987  21.092  11.374
69935W        W42261   8.341  15.774   3.153
69936W        W42262  13.301  35.549   4.604
69937W        W42263  17.253  30.977  11.126
69938W        W42264   8.885  33.074  10.558
69939W        W42265  19.669  17.558  13.898
69940W        W42266  25.606  24.721  12.456
69941W        W42267  37.843  10.719   3.673
69942W        W42268  19.239  24.133   0.824
69943W        W42269   8.732   1.319  13.900
69944W        W42270  40.880   3.755   3.850
69945W        W42271  21.092  19.261   2.802
69946W        W42272  42.021  40.531   1.839
69947W        W42273  28.593   1.792  13.996
69948W        W42274  29.999  34.552   3.290
69949W        W42275  28.680  40.391   4.776
69950W        W42276  37.374  39.909   1.797
69951W        W42277  42.876  26.486   5.205
69952W        W42278  19.625  26.985   4.259
69953W        W42279  16.630  15.616  13.501
69954W        W42280  33.586   6.816  11.473
69955W        W42281  36.865   9.384   0.940
69956W        W42282   8.706  34.992  12.997
69957W        W42283  10.244  36.407   1.315
69958W        W42284   9.881  23.007   1.712
69959W        W42285  19.667  35.097   1.805
69960W        W42286  28.017   3.830   2.346
69961W        W42287  39.918  20.602  12.427
69962W        W42288  12.773  30.415  11.567
69963W        W42289  14.632  36.421   3.684
69964W        W42290  27.975  26.954  14.943
69965W        W42291  28.460  19.039   1.417
69966W        W42292  34.995  33.941  10.087
69967W        W42293   8.715  25.013  13.027
69968W        W42294   9.336  32.530  13.822
69969W        W42295  44.010  38.909   2.392
69970W        W42296  36.529  27.034   4.625
69971W        W42297  33.605  18.279  14.311
69972W        W42298   3.901   9.725  10.616
69973W        W42299  29.955   4.883  12.480
69974W        W42300  25.976  39.478  10.410
69975W        W42301   6.344  33.506   0.784
69976W        W42302  12.788   6.293  13.320
69977W        W42303  43.935  14.126   2.840
69978W        W42304  15.302   3.417   0.737
69979W        W42305  22.020  28.964  10.521
69980W        W42306  26.476  34.514  12.428
69981W        W42307  13.115  30.110   0.742
69982W        W42308  36.898  35.991   0.387
69983W        W42309  20.768  36.509  14.795
69984W        W42310  41.534   8.660   0.805
69985W        W42311  41.405  31.908   1.777
69986W        W42312  38.014  32.913   2.884
69987W        W42313  38.959  30.612   2.791
69988W        W42314  23.023   4.390  14.973
69989W        W42315  29.544  31.506  14.808
69990W        W42316  14.222   2.327   0.417
69991W        W42317  19.687  16.694  11.445
69992W        W42318  15.824  43.449   0.255
69993W        W42319  14.278   0.471   4.830
69994W        W42320   5.862  42.814  11.487
69995W        W42321   5.918   3.877  11.011
69996W        W42322  33.076  39.359   2.818
69997W        W42323  15.299  41.455  12.899
69998W        W42324  27.589  13.154   2.781
69999W        W42325  23.660  31.025  10.626
70000W        W42326  18.627  40.902   3.647
70001W        W42327  19.183  42.867  11.451
70002W        W42328  17.239   5.385   0.885
70003W        W42329  18.102   7.331  11.963
70004W        W42330  40.528   6.919   1.429
70005W        W42331  16.253  39.839  11.412
70006W        W42332  15.789  34.908   4.822
70007W        W42333  16.204  31.977   1.744
70008W        W42334  43.789   5.439  13.440
70009W        W42335  13.289  11.826  14.828
70010W        W42336   0.358  20.743  13.049
70011W        W42337  29.664  23.688  14.507
70012W        W42338  32.501  24.623  14.511
70013W        W42339  14.786  25.164   9.446
70014W        W42340   9.230  18.627   1.850
70015W        W42341   2.731  14.286   3.780
70016W        W42342  11.144  23.633   3.236
70017W        W42343   8.370  40.912  12.858
70018W        W42344  12.811   5.823  11.456
70019W        W42345  42.369  27.180   2.809
70020W        W42346   2.754  15.150   2.356
70021W        W42347  14.762  38.012  10.639
70022W        W42348   3.854  41.876   3.832
70023W        W42349  42.344   1.332  10.599
70024W        W42350  19.242  42.283  11.965
70025W        W42351  24.159   9.149   3.213
70026W        W42352  17.107  32.037  13.334
70027W        W42353   3.779   0.272   2.301
70028W        W42354  14.156  22.090  10.596
70029W        W42355  43.354  37.057  11.474
70030W        W42356  25.672  43.881   1.731
70031W        W42357  41.891  10.139  14.965
70032W        W42358   8.859  10.859   2.386
70033W        W42359   2.245  34.871  13.843
70034W        W42360  33.080  29.104  12.963
70035W        W42361  24.591  19.715   0.868
70036W        W42362   2.330  40.432   4.701
70037W        W42363  11.188  18.751  11.078
70038W        W42364  28.524   3.941  11.935
70039W        W42365  42.022   1.901  10.408
70040W        W42366  41.485  19.699   3.354
70041W        W42367  30.999  18.084  14.396
70042W        W42368  20.655   1.477   0.341
70043W        W42369  40.333  19.567  14.841
70044W        W42370  30.506  38.984  14.897
70045W        W42371  32.063  20.753  13.316
70046W        W42372  36.386  30.081  13.318
70047W        W42373  40.863  33.401   4.312
70048W        W42374  11.852  10.351  11.450
70049W        W42375  34.058  15.595   4.149
70050W        W42376  11.764  18.078   4.280
70051W        W42377   5.843  22.075  11.995
70052W        W42378  14.330   3.287  10.596
70053W        W42379  26.624  40.861  11.007
70054W        W42380  21.215  22.685   1.279
70055W        W42381   8.722   2.430   4.286
70056W        W42382  23.590  29.455  11.560
70057W        W42383  22.634  31.595   0.419
70058W        W42384  44.811  25.575   3.831
70059W        W42385  21.671  30.428   3.221
70060W        W42386  11.642  22.676   0.443
70061W        W42387  28.562  15.188   4.724
70062W        W42388  16.744  14.613  13.466
70063W        W42389  20.102  26.605   2.871
70064W        W42390   4.387  13.198  14.335
70065W        W42391   3.849  34.871  14.832
70066W        W42392  41.476   5.740   2.742
70067W        W42393  39.362  17.648   4.148
70068W        W42394  36.952  24.114   1.694
70069W        W42395  26.534   0.332  14.956
70070W        W42396  16.141   9.672  13.055
70071W        W42397  23.089  14.130  13.039
70072W        W42398  11.260  15.789  14.833
70073W        W42399  14.706  35.888   9.437
70074W        W42400   8.747  31.962   5.164
70075W        W42401  21.571   4.728  10.895
70076W        W42402  25.705   7.303   5.143
70077W        W42403  21.210   6.309  12.009
70078W        W42404  12.247  31.635  11.565
70079W        W42405   2.841   3.395  12.833
70080W        W42406  44.763  18.160   0.266
70081W        W42407   0.785   8.789   3.752
70082W        W42408   8.857  23.730  13.544
70083W        W42409  30.440  33.931   3.353
70084W        W42410  29.068  25.051   1.298
70085W        W42411  29.631  30.932  12.460
70086W        W42412  39.553  26.466  12.461
70087W        W42413   8.290  41.314   3.689
70088W        W42414  15.685   1.279  14.277
70089W        W42415  34.602   3.312  12.930
70090W        W42416  24.611  33.523  12.095
70091W        W42417  27.069  21.227   1.296
70092W        W42418  15.126  25.082  12.849
70093W        W42419  20.589  26.500   3.256
70094W        W42420  13.802   3.291  10.451
70095W        W42421  24.652  21.719   0.965
70096W        W42422   4.843  25.643  10.469
70097W        W42423  44.430   4.935  14.499
70098W        W42424  20.553  22.698   4.742
70099W        W42425  20.647  10.876   1.802
70100W        W42426  28.113   6.720   2.182
70101W        W42427  27.196   3.267   1.784
70102W        W42428  39.906  19.129   0.429
70103W        W42429  24.006  43.371   0.962
70104W        W42430  14.714  11.683  13.963
70105W        W42431  42.297   1.295   3.846
70106W        W42432   6.339  33.888   1.366
70107W        W42433  21.224  36.388  12.497
70108W        W42434  22.246   1.948   3.801
70109W        W42435  17.570  24.642  13.997
70110W        W42436   3.315  28.982  11.866
70111W        W42437   3.930  36.443  13.401
70112W        W42438  26.622  42.793   1.282
70113W        W42439  44.269   0.868  13.516
70114W        W42440  33.080   4.308   0.856
70115W        W42441  43.281  25.211  11.472
70116W        W42442   6.217   8.355   1.752
70117W        W42443  34.087  31.499   0.766
70118W        W42444  18.099  14.096   3.845
70119W        W42445  21.680  14.114   2.853
70120W        W42446  31.428  38.343  14.352
70121W        W42447  34.012  43.778  11.103
70122W        W42448  20.101  36.364   1.881
70123W        W42449  19.280  38.051  10.959
70124W        W42450  29.667  44.962   0.758
70125W        W42451  19.071  44.853   1.434
70126W        W42452   1.792   0.941  10.559
70127W        W42453  41.927  40.452   3.822
70128W        W42454  24.583  18.052   9.932
70129W        W42455  36.378  44.315  14.854
70130W        W42456  23.697  20.045  13.385
70131W        W42457   7.322  15.632   1.320
70132W        W42458  18.119  11.786   3.767
70133W        W42459  35.566  40.524  13.385
70134W        W42460  35.395  16.103   1.359
70135W        W42461  24.979  33.615   0.377
70136W        W42462  33.519   5.727  13.367
70137W        W42463  44.295   5.930  11.939
70138W        W42464   4.937  15.639  11.541
70139W        W42465  37.475  27.105   4.634
70140W        W42466  34.980  15.779  10.079
70141W        W42467  31.511  30.100  14.002
70142W        W42468   8.658   4.407   3.810
70143W        W42469  38.549   8.789  14.802
70144W        W42470  34.526  43.416  11.475
70145W        W42471  30.025  25.469  11.373
70146W        W42472  29.046  42.989  11.005
70147W        W42473  11.834   9.356  14.873
70148W        W42474   3.374  29.080  13.881
70149W        W42475  31.929  37.008   4.810
70150W        W42476  27.578  16.751   0.798
70151W        W42477  11.671  13.744  14.826
70152W        W42478  32.001   8.662   2.288
70153W        W42479   3.331   2.824  11.482
70154W        W42480  41.970  12.356  12.847
70155W        W42481  24.676  10.852   1.256
70156W        W42482  19.199   5.749  14.908
70157W        W42483  14.333  21.210   5.207
70158W        W42484  13.197  39.058   4.285
70159W        W42485  21.519  41.884   3.283
70160W        W42486  25.071  32.528  12.459
70161W        W42487   9.322   6.697  11.400
70162W        W42488   6.246  13.256   2.291
70163W        W42489  40.852   9.342  12.353
70164W        W42490  10.351  32.622   1.214
70165W        W42491   6.219  30.611  14.493
70166W        W42492  24.582  42.437   4.254
70167W        W42493  24.208  15.263   4.196
70168W        W42494  29.171  44.315   4.354
70169W        W42495  31.532  37.393  11.565
70170W        W42496  22.007  11.723  11.457
70171W        W42497  40.493  11.648  11.892
70172W        W42498  24.037  17.226   1.367
70173W        W42499  25.041  34.074   1.878
70174W        W42500  11.201  15.617   2.292
70175W        W42501   7.399  32.011   1.711
70176W        W42502   1.877  21.226   4.353
70177W        W42503  38.883  29.101  10.059
70178W        W42504   1.271  29.930   3.183
70179W        W42505   2.758  16.289   4.229
70180W        W42506  19.146  34.944  13.380
70181W        W42507  10.758  21.137  14.953
70182W        W42508  38.987  24.009   0.871
70183W        W42509  30.962   8.745  13.002
70184W        W42510  35.887  26.561  13.051
70185W        W42511  25.627   6.187   2.190
70186W        W42512  10.714  16.682   1.760
70187W        W42513  14.704   9.650   4.803
70188W        W42514  10.191   1.823  13.438
70189W        W42515  37.475  19.614   3.354
70190W        W42516  17.759  29.086   0.731
70191W        W42517  39.852  18.701   1.920
70192W        W42518  42.362  27.581  12.516
70193W        W42519  42.443  41.434   0.893
70194W        W42520  42.406  37.833  13.369
70195W        W42521  26.978  15.299   4.134
70196W        W42522   9.725  20.244  12.894
70197W        W42523   3.806  29.154  10.133
70198W        W42524  32.470  13.784   0.931
70199W        W42525  23.489   9.305   3.765
70200W        W42526  31.967  23.724   3.182
70201W        W42527   7.672   9.157   1.904
70202W        W42528  25.547  34.525   2.769
70203W        W42529  26.472  23.122  12.859
70204W        W42530  37.356  38.350  12.824
70205W        W42531  21.126  33.891  14.901
70206W        W42532  17.753  35.904   3.768
70207W        W42533  22.503  22.165  13.433
70208W        W42534   7.187  39.335   2.850
70209W        W42535  14.810  29.590  10.547
70210W        W42536   1.937  29.651   3.831
70211W        W42537  16.799  15.759   4.233
70212W        W42538   4.858  18.172   1.255
70213W        W42539  12.791  34.059  13.337
70214W        W42540  24.074  44.366  11.884
70215W        W42541  22.031   5.933   4.289
70216W        W42542  20.634  30.908   1.718
70217W        W42543   6.314  24.647  12.459
70218W        W42544  16.156  20.698   3.760
70219W        W42545  44.941  13.700   4.658
70220W        W42546  44.990  19.728   4.265
70221W        W42547  27.963   1.892  12.879
70222W        W42548  32.419   7.750   3.162
70223W        W42549  34.524  38.527  13.341
70224W        W42550  44.822  31.598  11.889
70225W        W42551  42.010  32.581   3.167
70226W        W42552  13.655  20.131  11.099
70227W        W42553  27.056   3.333  12.927
70228W        W42554  21.020  10.262  10.138
70229W        W42555   7.315  15.594   0.945
70230W        W42556   3.804  31.554   0.395
70231W        W42557   2.857  39.958  12.091
70232W        W42558  12.326  19.113  12.424
70233W        W42559  28.640  17.201  11.574
70234W        W42560  31.901  34.081  12.340
70235W        W42561  19.253  36.440  12.487
70236W        W42562  15.161  28.631  11.501
70237W        W42563   5.859   9.681   2.669
70238W        W42564  25.040  43.780   3.721
70239W        W42565  43.772   9.800   3.732
70240W        W42566  35.587  14.814  10.556
70241W        W42567  43.485  14.596  14.362
70242W        W42568  41.336   3.235  13.357
70243W        W42569  43.885  25.177  14.315
70244W        W42570   6.208  24.607   3.223
70245W        W42571  19.164  16.623   3.815
70246W        W42572  36.535   2.828   0.825
70247W        W42573   0.971  21.166   4.184
70248W        W42574  35.381  11.650   2.336
70249W        W42575  42.785  27.479   4.744
70250W        W42576  25.704  43.289   1.717
70251W        W42577  30.425  27.143  12.469
70252W        W42578  12.158  35.474  13.002
70253W        W42579   3.854   0.758   1.443
70254W        W42580  33.994  20.185  11.519
70255W        W42581  36.077  43.798  11.126
70256W        W42582  18.574  21.646   2.759
70257W        W42583  41.537   6.815  14.012
70258W        W42584  30.541  12.760  12.008
70259W        W42585  39.358   2.864   2.350
70260W        W42586  18.579  25.674   1.291
70261W        W42587  29.425  18.127   0.919
70262W        W42588  33.124  21.601   1.213
70263W        W42589  43.936  29.551   1.361
70264W        W42590  12.707   1.889   1.927
70265W        W42591  36.845   2.271   4.601
70266W        W42592  36.902   8.753  12.075
70267W        W42593  37.832  36.395  11.401
70268W        W42594   7.786  32.441   0.904
70269W        W42595  42.523  10.240  12.372
70270W        W42596  14.698  28.521   2.820
70271W        W42597  14.160  11.151  13.480
70272W        W42598  40.414   6.755   4.687
70273W        W42599  32.895   2.457  12.374
70274W        W42600  22.090  38.039   4.344
70275W        W42601  43.375   5.228   4.803
70276W        W42602   4.313   9.795  10.531
70277W        W42603   1.773  28.095   2.795
70278W        W42604  25.683   9.762   2.415
70279W        W42605   7.795  40.532  11.532
70280W        W42606   8.897  28.029  10.635
70281W        W42607  33.564  11.631  14.513
70282W        W42608   1.944  36.403  11.053
70283W        W42609  34.097  42.026   1.390
70284W        W42610  21.137  41.841   2.281
70285W        W42611  24.182   3.926   3.161
70286W        W42612  32.126  13.239  11.597
70287W        W42613  29.066  40.419  14.996
70288W        W42614   1.792   9.680   0.825
70289W        W42615   7.823   5.297   0.865
70290W        W42616  26.093  39.061   1.420
70291W        W42617  11.722  37.848  14.902
70292W        W42618  13.212  13.244   2.395
70293W        W42619   8.313  38.986   0.844
70294W        W42620  14.153  24.175  12.377
70295W        W42621  34.110  35.877  14.842
70296W        W42622   7.807   7.270   2.180
70297W        W42623  10.138   2.930  11.076
70298W        W42624  34.900   1.760   0.343
70299W        W42625   9.728  21.588  12.054
70300W        W42626  17.738  34.084  10.944
70301W        W42627  39.969  14.314  12.074
70302W        W42628  36.563  16.085  12.944
70303W        W42629  39.408  27.117   0.395
70304W        W42630  27.552  30.924   4.328
70305W        W42631  14.656   6.759  10.410
70306W        W42632  14.772  23.635   0.766
70307W        W42633  28.990  12.276  13.402
70308W        W42634  44.293  43.993   0.349
70309W        W42635  28.603   0.814   4.318
70310W        W42636   3.319   6.309   5.210
70311W        W42637  32.022  41.835   2.817
70312W        W42638  20.698  38.410   0.371
70313W        W42639  17.714  42.318  14.316
70314W        W42640  42.898  23.215  13.965
70315W        W42641  27.450  21.199   0.443
70316W        W42642  24.162  44.845   2.266
70317W        W42643  35.516  10.315   4.778
70318W        W42644  14.323   6.226  11.926
70319W        W42645  34.036   2.961   2.762
70320W        W42646  25.117  31.112   3.689
70321W        W42647   1.402  11.861  12.544
70322W        W42648  16.106  15.094   3.750
70323W        W42649   2.897  43.774   3.252
70324W        W42650  43.867  31.141  13.334
70325W        W42651  35.451  21.183  14.902
70326W        W42652  43.994  31.948  14.503
70327W        W42653  17.220  34.406   2.684
70328W        W42654   1.467  43.818  14.973
70329W        W42655  44.811  16.250   4.829
70330W        W42656  36.926  13.312   4.640
70331W        W42657  32.516  36.975  14.895
70332W        W42658  33.524   4.937  13.487
70333W        W42659  26.062  26.206   1.212
70334W        W42660  12.125  30.640  11.876
70335W        W42661   9.679  12.237  11.600
70336W        W42662  37.931  22.172  11.129
70337W        W42663  29.983  16.081  10.579
70338W        W42664   0.915  41.882   1.290
70339W        W42665  41.487   2.721  11.549
70340W        W42666  25.999   8.248   3.197
70341W        W42667   3.813  18.619   0.421
70342W        W42668   8.681  41.464  11.059
70343W        W42669  10.831  34.890  12.902
70344W        W42670  23.118   5.364  11.871
70345W        W42671  35.031  34.443   4.236
70346W        W42672  15.190  24.024   4.307
70347W        W42673  38.894  19.750  13.034
70348W        W42674  33.459  31.491  14.423
70349W        W42675  35.572  24.557   0.916
70350W        W42676  43.829  24.019   4.118
70351W        W42677  24.553  37.915   2.257
70352W        W42678  34.086  30.161   3.864
70353W        W42679   1.404  38.820  11.123
70354W        W42680  33.918  39.016  11.892
70355W        W42681  23.106  36.575  12.350
70356W        W42682   6.216   3.757  14.434
70357W        W42683  28.622  28.036   5.125
70358W        W42684   0.874  17.219   1.904
70359W        W42685   4.779  43.848  12.837
70360W        W42686   0.794  15.634   2.218
70361W        W42687  28.627  38.486  12.536
70362W        W42688  23.222  31.614  11.465
70363W        W42689  14.831  39.553  13.471
70364W        W42690   5.321  36.996   0.967
70365W        W42691   4.228  28.178  12.395
70366W        W42692  21.128  35.042  13.851
70367W        W42693  40.383  28.446  11.439
70368W        W42694  31.899   3.447  13.797
70369W        W42695   1.890  27.631   1.880
70370W        W42696  43.778   0.885  12.974
70371W        W42697  12.773   8.361   0.917
70372W        W42698   0.466  23.492   4.699
70373W        W42699  11.193  39.063  12.367
70374W        W42700  33.544  31.148   3.357
70375W        W42701  28.182  29.068   2.248
70376W        W42702  25.594  26.195   4.301
70377W        W42703  11.165  37.383  14.021
70378W        W42704   3.798   9.327  12.877
70379W        W42705   5.240  41.007   0.288
70380W        W42706   4.784   8.230   5.121
70381W        W42707  33.097   4.849  12.495
70382W        W42708   6.698   1.350  10.431
70383W        W42709  43.848  28.067  13.939
70384W        W42710   6.716  23.684  11.100
70385W        W42711   7.888   7.323  13.003
70386W        W42712  40.440  14.192  13.307
70387W        W42713  41.941  44.505  11.880
70388W        W42714  15.288  28.104   1.419
70389W        W42715  44.389  29.452  10.617
70390W        W42716  28.662  39.375   4.633
70391W        W42717  24.137  28.613  14.373
70392W        W42718  38.889  17.566  11.502
70393W        W42719  36.561  35.048   4.323
70394W        W42720   8.362   6.218   1.775
70395W        W42721   0.902  14.671  11.399
70396W        W42722  22.079   9.321   4.742
70397W        W42723   8.797  21.259   0.342
70398W        W42724  33.119  12.653   0.390
70399W        W42725  37.424  24.058   4.685
70400W        W42726   9.395  13.197  10.099
70401W        W42727  16.243  17.753   4.754
70402W        W42728  32.441  27.642   3.661
70403W        W42729  41.912  15.101  11.915
70404W        W42730  18.726  39.035  14.773
70405W        W42731   7.777  40.023  13.450
70406W        W42732  43.956  17.250   4.835
70407W        W42733  22.107  15.327  11.611
70408W        W42734   2.925   6.896   0.934
70409W        W42735  35.527  25.083  11.917
70410W        W42736  34.118  14.282   3.820
70411W        W42737  17.080  28.545  10.970
70412W        W42738  39.321   5.853   3.799
70413W        W42739  33.542  34.421   5.765
70414W        W42740  40.439  34.405   1.390
70415W        W42741  32.905  28.639   1.364
70416W        W42742  22.675   1.781   1.356
70417W        W42743  13.839  13.160  11.547
70418W        W42744  26.548  25.992  13.407
70419W        W42745   6.722  17.302  13.957
70420W        W42746  10.817  10.737  13.339
70421W        W42747  31.611  20.185   0.737
70422W        W42748  35.443  36.421   2.331
70423W        W42749   8.191  33.035  12.981
70424W        W42750  22.212  22.177  13.319
70425W        W42751  41.838  13.834   4.321
70426W        W42752  31.456  20.046  10.632
70427W        W42753  39.548  37.003  12.473
70428W        W42754  28.987  33.547   2.227
70429W        W42755  43.506   0.919   4.712
70430W        W42756  17.692  17.609  13.539
70431W        W42757  28.559  24.002  13.981
70432W        W42758  19.615  10.300   5.287
70433W        W42759  44.960  14.715  10.466
70434W        W42760  44.892  27.140  11.869
70435W        W42761   7.820  29.166  11.120
70436W        W42762  26.622  33.586  14.812
70437W        W42763  17.585  24.687   1.715
70438W        W42764  24.542  30.011  11.402
70439W        W42765  24.063  37.532   0.472
70440W        W42766  34.883  36.366   5.224
70441W        W42767   4.833  14.322   3.197
70442W        W42768  38.881  38.329   2.271
70443W        W42769  15.707   3.912   2.751
70444W        W42770   7.676  20.103   4.293
70445W        W42771   5.221  42.777  14.351
70446W        W42772  39.480  33.969   4.672
70447W        W42773  39.839   6.266   2.371
70448W        W42774   5.352  27.681   2.881
70449W        W42775   2.369  38.559  11.525
70450W        W42776   2.346  41.384   5.262
70451W        W42777  34.439  36.511   1.230
70452W        W42778  26.631  28.182   4.832
70453W        W42779  22.726  34.086  10.457
70454W        W42780  42.859  25.063   3.265
70455W        W42781   8.281  13.330  14.789
70456W        W42782  28.077  28.563   5.203
70457W        W42783   6.707  24.683   1.909
70458W        W42784   3.225  24.024  14.898
70459W        W42785   2.873  21.242  13.430
70460W        W42786  37.035  20.606  13.887
70461W        W42787  18.168  31.494  12.919
70462W        W42788  39.876   4.796  12.883
70463W        W42789  44.929  14.680  13.532
70464W        W42790  14.312  25.050  11.970
70465W        W42791  35.017  13.226   2.746
70466W        W42792   3.220  44.490  12.003
70467W        W42793   1.914  27.985  14.965
70468W        W42794   5.376  40.973  14.507
70469W        W42795   7.231  41.353   1.812
70470W        W42796  38.449  12.617   4.798
70471W        W42797  25.623  11.144   0.352
70472W        W42798  20.083  19.687   1.881
70473W        W42799   0.413  10.685  14.946
70474W        W42800   7.712  22.648  11.372
70475W        W42801  29.537  22.059   3.376
70476W        W42802  11.166  16.315   3.252
70477W        W42803  20.240  11.720  14.333
70478W        W42804  30.034   6.900  13.528
70479W        W42805   1.434  20.183   2.877
70480W        W42806  44.798  13.290   1.317
70481W        W42807  40.934  26.976   4.354
70482W        W42808  17.226   3.409  13.541
70483W        W42809  32.522  28.445   0.338
70484W        W42810  40.389  39.318  13.528
70485W        W42811   2.959   2.244  11.455
70486W        W42812  25.056  27.582   4.348
70487W        W42813  44.879  30.046   1.725
70488W        W42814  31.961   9.212   0.429
70489W        W42815  32.473   0.476   0.733
70490W        W42816  25.515   8.716   1.245
70491W        W42817   0.489   4.390   0.892
70492W        W42818   7.684   1.409  12.870
70493W        W42819   0.840  12.702   3.837
70494W        W42820  18.085  25.971  14.877
70495W        W42821  31.631  19.129  10.631
70496W        W42822  24.087  33.567   4.650
70497W        W42823  39.550  29.585   3.791
70498W        W42824  10.663   2.257   2.260
70499W        W42825  24.529  20.552   4.179
70500W        W42826  21.239  25.636  13.457
70501W        W42827  43.945   9.283  14.318
70502W        W42828  27.687  22.182   0.843
70503W        W42829  13.148   3.836  11.048
70504W        W42830  42.845  20.569  14.327
70505W        W42831  15.228  12.725  11.970
70506W        W42832  10.147   4.786  13.008
70507W        W42833  13.777  18.676  10.466
70508W        W42834  40.324  26.583   0.818
70509W        W42835  31.421   6.794   2.725
70510W        W42836  10.766  34.577  13.906
70511W        W42837  42.456  25.978   0.961
70512W        W42838  10.247   4.415   3.380
70513W        W42839  44.275  11.186  11.494
70514W        W42840  38.333  40.398  14.937
70515W        W42841  15.743   0.360  12.090
70516W        W42842  43.958   9.162   1.836
70517W        W42843  42.929  20.610   1.717
70518W        W42844  32.078  35.004  14.384
70519W        W42845  17.605   6.763   3.816
70520W        W42846  34.524  34.070   2.796
70521W        W42847  12.126  37.974   0.326
70522W        W42848  10.240  42.294   1.414
70523W        W42849  28.436  35.075  11.565
70524W        W42850  41.790  13.175   1.317
70525W        W42851  18.182  44.871  13.841
70526W        W42852   0.774  44.829   0.405
70527W        W42853  19.662  33.523   2.362
70528W        W42854  24.536  13.652   0.422
70529W        W42855  17.256  24.149   1.777
70530W        W42856  32.390  43.437  12.563
70531W        W42857   7.856  43.003  10.157
70532W        W42858  44.449  32.495  13.813
70533W        W42859  28.667  11.239   2.897
70534W        W42860   0.294   2.907   4.729
70535W        W42861   9.234   4.386  10.576
70536W        W42862  15.321   9.329   4.837
70537W        W42863  38.035  28.660   2.289
70538W        W42864  34.375  28.642  13.511
70539W        W42865  35.986  29.476   5.272
70540W        W42866  15.791   2.403   3.174
70541W        W42867  34.455  17.100   0.411
70542W        W42868  26.118   3.346   1.874
70543W        W42869   8.280  15.183   2.302
70544W        W42870  28.619  15.591  13.864
70545W        W42871  35.990   0.833   4.664
70546W        W42872  43.394  29.937  10.930
70547W        W42873  14.809  32.533  10.558
70548W        W42874  29.133  20.131  13.842
70549W        W42875  29.940  39.383  10.900
70550W        W42876  16.207  18.654   1.775
70551W        W42877  25.137  16.706   1.228
70552W        W42878  16.734  35.451  13.338
70553W        W42879  29.454  23.165   0.892
70554W        W42880  15.791   3.713  13.033
70555W        W42881  44.965  11.360   0.839
70556W        W42882  39.002   1.754  14.455
70557W        W42883  28.107  44.775  13.475
70558W        W42884  44.377  11.197   0.291
70559W        W42885   7.200  13.203  11.877
70560W        W42886   4.378   7.357  14.953
70561W        W42887  39.555  11.299  12.892
70562W        W42888  19.220  35.896  12.550
70563W        W42889  24.100   3.435   0.937
70564W        W42890  20.618   3.773   4.210
70565W        W42891  33.417  30.499  14.489
70566W        W42892  37.540  23.109  11.397
70567W        W42893  42.013  25.161  11.027
70568W        W42894   8.679  43.950  14.875
70569W        W42895  22.527  38.355  12.041
70570W        W42896  23.153  14.776   1.261
70571W        W42897  27.139  40.433  11.501
70572W        W42898   2.328   4.792  11.437
70573W        W42899  24.706  29.021   3.857
70574W        W42900  16.086  19.231  12.373
70575W        W42901   3.802  32.034   3.242
70576W        W42902  19.670  14.618   4.829
70577W        W42903  38.011  41.044  10.426
70578W        W42904  25.669  20.159  12.043
70579W        W42905  23.194  22.680   2.820
70580W        W42906  25.663   3.927  14.835
70581W        W42907   8.262  39.368   1.451
70582W        W42908  36.521  30.981   1.290
70583W        W42909  41.798  38.874  14.464
70584W        W42910  39.046  23.490   0.915
70585W        W42911   2.415   7.325   0.323
70586W        W42912  22.012  18.234   2.744
70587W        W42913  27.562  41.528   2.389
70588W        W42914  20.661  36.456   0.318
70589W        W42915   6.728  39.463   1.256
70590W        W42916  33.571  23.528  14.885
70591W        W42917  33.048  38.000   4.658
70592W        W42918  36.518  35.949   0.819
70593W        W42919  44.913  44.773  11.536
70594W        W42920  35.383  27.480  14.979
70595W        W42921  26.651  26.132   4.315
70596W        W42922  34.934  12.826  11.045
70597W        W42923  31.931  34.098  11.960
70598W        W42924  36.555  15.769   5.152
70599W        W42925   1.399  41.323  10.580
70600W        W42926  39.939  23.171   2.795
70601W        W42927  19.722  20.169  14.977
70602W        W42928  11.704  41.900  13.870
70603W        W42929  39.400  12.613  12.356
70604W        W42930  17.233  37.962  11.908
70605W        W42931   9.298  30.122  12.866
70606W        W42932  23.634  10.826  14.917
70607W        W42933  25.083   4.361   4.333
70608W        W42934  18.728  44.428   5.313
70609W        W42935   5.843   2.930  13.513
70610W        W42936  21.159  18.562   1.786
70611W        W42937  37.023   9.189   0.288
70612W        W42938   1.952  35.931  12.021
70613W        W42939  15.694   3.456   3.261
70614W        W42940  14.749   4.816  13.047
70615W        W42941  15.690  24.055   1.810
70616W        W42942  39.931  12.189   1.368
70617W        W42943  24.691  11.271   2.276
70618W        W42944   4.300  16.283  11.098
70619W        W42945  30.412   8.406  14.504
70620W        W42946  16.208  11.249   4.147
70621W        W42947   0.418  43.905  13.312
70622W        W42948  34.959  23.714  14.911
70623W        W42949   1.237   3.245   2.294
70624W        W42950   8.809  22.545  12.496
70625W        W42951   1.399  15.324  10.506
70626W        W42952  18.222  21.127  10.643
70627W        W42953  14.209  31.968   3.789
70628W        W42954  40.054  30.484   3.865
70629W        W42955   3.324   5.725   2.678
70630W        W42956  19.250  23.112   3.632
70631W        W42957  40.468  37.379  11.003
70632W        W42958  31.529  31.978   2.779
70633W        W42959  24.019  18.206   0.313
70634W        W42960  15.612  28.986   4.683
70635W        W42961  34.487  18.659   4.825
70636W        W42962  39.906   5.203  14.294
70637W        W42963  15.821  20.679  10.923
70638W        W42964  37.562  29.139  13.064
70639W        W42965  32.003  42.891   0.256
70640W        W42966   3.359  10.271  11.373
70641W        W42967  34.449  36.958   4.258
70642W        W42968  41.943   3.396  14.498
70643W        W42969  42.309  32.552   2.746
70644W        W42970  18.226  18.546  12.411
70645W        W42971  23.727  14.184   3.833
70646W        W42972  36.065   3.888  13.920
70647W        W42973  44.831  42.325  11.904
70648W        W42974  17.652  34.970  12.964
70649W        W42975  20.626  28.977   0.348
70650W        W42976  24.552  35.527  10.904
70651W        W42977  13.728   5.419  11.894
70652W        W42978  12.753  33.121  14.418
70653W        W42979  34.905  21.550   3.750
70654W        W42980  27.034   7.731  11.381
70655W        W42981   0.943  11.750  12.364
70656W        W42982  32.077  22.068   3.781
70657W        W42983  30.450  18.201  12.498
70658W        W42984   0.759  14.743   3.630
70659W        W42985  29.528   8.694   1.822
70660W        W42986  32.613  23.643  12.030
70661W        W42987  30.547  13.621  13.953
70662W        W42988  27.522  14.606   4.141
70663W        W42989  24.604   9.310   0.732
70664W        W42990  10.660  44.335  13.872
70665W        W42991  19.708  28.513  11.071
70666W        W42992  38.568   1.383  11.969
70667W        W42993  35.416   0.970   0.403
70668W        W42994  21.578  41.820  11.960
70669W        W42995  10.236  19.655   1.318
70670W        W42996  17.754  18.772   4.702
70671W        W42997   2.723  30.067  13.423
70672W        W42998   4.856   2.747  14.436
70673W        W42999  28.504  35.379  10.629
70674W        W43000  27.949  41.506   0.386
70675W        W43001  17.191  10.310   3.178
70676W        W43002   0.440  35.515   0.942
70677W        W43003   2.940  25.139   4.140
70678W        W43004  31.122   3.813   3.363
70679W        W43005  18.159  14.803  13.839
70680W        W43006  16.156  41.298  10.593
70681W        W43007   1.952  23.134   3.680
70682W        W43008  41.921  29.054  10.948
70683W        W43009  21.109   8.888   2.179
70684W        W43010  27.088  39.431   1.428
70685W        W43011   1.347   3.281   0.907
70686W        W43012  24.512  34.977  12.025
70687W        W43013  12.623  10.815  12.526
70688W        W43014  22.063  21.256   4.834
70689W        W43015   4.713  28.652   1.339
70690W        W43016  13.237  32.973  12.835
70691W        W43017  25.162   1.940   4.322
70692W        W43018  11.743   6.725   2.306
70693W        W43019  23.513  19.179   3.294
70694W        W43020  24.536  37.477  13.522
70695W        W43021  23.234  39.960   1.438
70696W        W43022  22.505  15.104  11.404
70697W        W43023  15.200   5.855   4.805
70698W        W43024   9.281   8.406   1.386
70699W        W43025  12.243  20.664   3.230
70700W        W43026  42.886  26.544  12.418
70701W        W43027  20.212  30.935   3.239
70702W        W43028  16.282  27.970  14.943
70703W        W43029   3.241  22.570   4.330
70704W        W43030  26.458  15.613   0.406
70705W        W43031  20.627   4.927   1.264
70706W        W43032  23.024  43.303   0.936
70707W        W43033  40.330  19.695   1.378
70708W        W43034  15.241  28.612  13.418
70709W        W43035   9.676  28.642   1.383
70710W        W43036  17.717  40.007  11.896
70711W        W43037  11.792  41.512   3.834
70712W        W43038  20.236  21.595  12.563
70713W        W43039  23.996  13.123  13.365
70714W        W43040  17.232  36.932  13.418
70715W        W43041  44.419  14.758  13.873
70716W        W43042   0.431  25.567  13.031
70717W        W43043  42.919  24.687  11.081
70718W        W43044  34.599   4.372   3.676
70719W        W43045  15.707   1.466  13.406
70720W        W43046  44.370  29.596  10.049
70721W        W43047  17.588  29.031  11.394
70722W        W43048  32.519   5.437  14.839
70723W        W43049   3.278  30.421  12.577
70724W        W43050   8.742  32.473   2.310
70725W        W43051  31.988  34.050   3.670
70726W        W43052  13.674   0.385   3.674
70727W        W43053  16.153   7.911  11.400
70728W        W43054  31.025  32.885   0.456
70729W        W43055   9.740  26.176   3.782
70730W        W43056  25.646  29.024   2.707
70731W        W43057  42.292   0.453  14.484
70732W        W43058  42.433   6.401  12.578
70733W        W43059   0.470  33.881   1.787
70734W        W43060  41.027  39.459   4.177
70735W        W43061  26.643  43.836  12.373
70736W        W43062  24.615  19.062   4.732
70737W        W43063  15.710  25.121  10.931
70738W        W43064  23.543  14.190  11.056
70739W        W43065  17.272  42.865  14.462
70740W        W43066  33.009  10.645   4.282
70741W        W43067  28.157  17.302   3.804
70742W        W43068  20.717  13.109   4.273
70743W        W43069  17.188  20.215   3.271
70744W        W43070  13.299  14.644   1.913
70745W        W43071  13.126   4.729  14.502
70746W        W43072   3.320   6.779   0.358
70747W        W43073  16.618   6.289  14.505
70748W        W43074  40.483  23.984   1.376
70749W        W43075  15.705  21.219  12.914
70750W        W43076  15.691  19.056   4.638
70751W        W43077  16.241  25.184   0.778
70752W        W43078  12.754  38.421   3.733
70753W        W43079  33.420  36.052   0.408
70754W        W43080  29.049  17.669  12.356
70755W        W43081  43.986  24.608  12.059
70756W        W43082   8.320  31.492  11.916
70757W        W43083  20.162   9.289  12.083
70758W        W43084  24.621  28.153   3.360
70759W        W43085  29.043  26.570   2.205
70760W        W43086  16.740  24.110   3.683
70761W        W43087  20.607  24.214  14.473
70762W        W43088   5.214  17.790   3.701
70763W        W43089  42.400  27.548   2.254
70764W        W43090  35.603  20.247  12.838
70765W        W43091  42.382   4.279   3.148
70766W        W43092  40.487  36.978  14.472
70767W        W43093  22.519  35.086   1.244
70768W        W43094  24.517  43.425   0.842
70769W        W43095  22.027  11.676  14.964
70770W        W43096   5.903  31.097  11.428
70771W        W43097  36.352   9.645  13.885
70772W        W43098  17.284  27.978  10.978
70773W        W43099  10.295  41.018  14.898
70774W        W43100  44.262  38.448  10.021
70775W        W43101   8.403  11.184   4.672
70776W        W43102  22.098   0.492  11.111
70777W        W43103   4.900  16.260   4.751
70778W        W43104   1.749  30.517  12.924
70779W        W43105   1.767   3.774  12.366
70780W        W43106  35.014  32.019   2.845
70781W        W43107  43.411  41.876   1.745
70782W        W43108  33.586  14.690   2.375
70783W        W43109  21.595  19.237   3.184
70784W        W43110   7.766  14.139   1.385
70785W        W43111  23.028  16.728   1.439
70786W        W43112  43.953   7.877  14.277
70787W        W43113  25.601  36.026  12.454
70788W        W43114  23.503  37.944  12.908
70789W        W43115  41.885  44.774  14.286
70790W        W43116  30.102  18.595   4.311
70791W        W43117  27.473  29.165   4.164
70792W        W43118  44.334  13.328  14.971
70793W        W43119  32.489  34.374   3.157
70794W        W43120   9.826   0.422   2.786
70795W        W43121  28.618  33.604   4.326
70796W        W43122  41.799  34.904   2.846
70797W        W43123  26.693  12.128   4.729
70798W        W43124  38.842   4.372   3.214
70799W        W43125   3.394  23.704   1.303
70800W        W43126  21.113  26.521   4.722
70801W        W43127  35.533  15.099   2.679
70802W        W43128  15.130  19.047   3.809
70803W        W43129  23.165  37.959   3.821
70804W        W43130  17.724  31.463  12.997
70805W        W43131  13.292   5.882   0.881
70806W        W43132  11.274  40.466  10.582
70807W        W43133  29.079   5.900  10.994
70808W        W43134  28.444   4.872  11.046
70809W        W43135  30.621  33.421   4.271
70810W        W43136  42.404  19.235  12.982
70811W        W43137   6.329  42.512   3.764
70812W        W43138  16.625  27.614  11.867
70813W        W43139  44.889  12.651   2.718
70814W        W43140   8.281   8.789  11.540
70815W        W43141   7.778  27.124   2.373
70816W        W43142   9.842   7.811  13.359
70817W        W43143  43.974  26.529   0.803
70818W        W43144  38.531  13.827  14.468
70819W        W43145  34.038  35.528  13.479
70820W        W43146  11.282  13.208  13.833
70821W        W43147   9.344  17.263  13.857
70822W        W43148  21.646  14.332  11.037
70823W        W43149  35.489  41.404   2.216
70824W        W43150   7.360  30.520  14.758
70825W        W43151  26.477  40.923   1.859
70826W        W43152   1.367  42.470  12.935
70827W        W43153  27.662  10.797  14.473
70828W        W43154  24.610  12.721   3.145
70829W        W43155  12.774   5.911   1.743
70830W        W43156  30.010  35.916   2.665
70831W        W43157   3.295  25.544  11.886
70832W        W43158  31.046  16.688  13.006
70833W        W43159  38.395  34.055  11.424
70834W        W43160   5.362  36.483  12.085
70835W        W43161   5.224  43.815   1.872
70836W        W43162  20.660  38.998   1.784
70837W        W43163  20.730  28.655  13.536
70838W        W43164  37.930  42.013  13.951
70839W        W43165  41.927  30.547  11.557
70840W        W43166  22.603   9.234  10.620
70841W        W43167  37.039  15.802  13.794
70842W        W43168  20.547   6.806   4.828
70843W        W43169  32.923  11.183   2.665
70844W        W43170  28.514  24.977   3.330
70845W        W43171  32.907  25.029  13.914
70846W        W43172   0.965  24.224  11.408
70847W        W43173  10.817  14.317  11.920
70848W        W43174   6.375  24.665  14.371
70849W        W43175   6.365  42.858   1.821
70850W        W43176  33.897   5.915   3.869
70851W        W43177  32.106   4.911   0.806
70852W        W43178  16.681   2.834  13.825
70853W        W43179  22.686  43.284   1.858
70854W        W43180  13.321   8.161   3.348
70855W        W43181  14.608  11.787   2.768
70856W        W43182  44.457  29.125  11.447
70857W        W43183  22.570  42.867   3.160
70858W        W43184  15.649  26.189  11.455
70859W        W43185  12.823  22.239   2.407
70860W        W43186  36.846   4.441  10.622
70861W        W43187   1.972  29.999   1.300
70862W        W43188   1.823  15.715  11.604
70863W        W43189  18.092  39.045   3.713
70864W        W43190  43.298  39.037  11.492
70865W        W43191  21.018  10.659   1.891
70866W        W43192  36.351  25.971  13.345
70867W        W43193   1.916  31.110   2.705
70868W        W43194  31.643  31.023   3.774
70869W        W43195  18.088  19.539   2.852
70870W        W43196  21.662  26.078   1.226
70871W        W43197  28.101  18.198  10.573
70872W        W43198   4.939  27.531   4.749
70873W        W43199  26.631   1.371  13.494
70874W        W43200  37.431  44.269   3.359
70875W        W43201  15.181  25.003   4.250
70876W        W43202  35.907  13.279   2.759
70877W        W43203  12.652   3.331  14.019
70878W        W43204   2.357  28.451   2.885
70879W        W43205  22.635  40.473   5.243
70880W        W43206  24.522  25.097  14.862
70881W        W43207   0.452  38.430   3.836
70882W        W43208   1.318  38.525  13.394
70883W        W43209  17.619  44.770   2.380
70884W        W43210   5.331  31.463  10.996
70885W        W43211  29.001   4.867  12.089
70886W        W43212  33.059  21.667  12.355
70887W        W43213  34.945   0.911  12.398
70888W        W43214  12.153  41.464  11.077
70889W        W43215  31.447  24.126   1.225
70890W        W43216  22.090  30.940  11.125
70891W        W43217   6.790  34.981  11.527
70892W        W43218  26.981  32.499   1.834
70893W        W43219  19.690   9.806   3.221
70894W        W43220  43.409  18.223  11.944
70895W        W43221  11.670  23.593   5.236
70896W        W43222   4.383  13.719  11.594
70897W        W43223  43.433  37.034  12.565
70898W        W43224  37.438   2.405  10.533
70899W        W43225  16.314  33.536  14.868
70900W        W43226  39.982  36.456   3.161
70901W        W43227  19.052  31.137   2.672
70902W        W43228   6.896  13.825  13.026
70903W        W43229   8.876  24.195   3.810
70904W        W43230  26.466  27.653   3.661
70905W        W43231  39.503   4.424  14.399
70906W        W43232   8.745  33.580  11.577
70907W        W43233  11.802   2.809   1.798
70908W        W43234  37.363   2.431  14.903
70909W        W43235  23.639  22.607  10.517
70910W        W43236  14.118  29.601  12.005
70911W        W43237  22.199  27.158  14.323
70912W        W43238  29.132  33.404   9.999
70913W        W43239  31.602   9.229  14.383
70914W        W43240  27.043   9.709   0.314
70915W        W43241   7.876  28.112   3.218
70916W        W43242  21.025  41.958   4.342
70917W        W43243  41.342  25.207  12.573
70918W        W43244  42.971   2.279   4.735
70919W        W43245  35.438   0.951   2.408
70920W        W43246  37.566  34.575  12.514
70921W        W43247  35.958  23.133   3.241
70922W        W43248   1.862  13.838   3.239
70923W        W43249  15.265  24.600  12.554
70924W        W43250  41.980   6.246  14.377
70925W        W43251  19.117  34.395  13.529
70926W        W43252  35.068  44.835  12.062
70927W        W43253  30.546  11.244  14.357
70928W        W43254  23.171  30.987  11.908
70929W        W43255  21.561   2.329   3.750
70930W        W43256   1.291  27.538   0.442
70931W        W43257   6.388  36.432  12.576
70932W        W43258   4.722   0.828  14.339
70933W        W43259  17.178  28.621  10.413
70934W        W43260  12.691  36.842  10.159
70935W        W43261  10.760  40.800   4.713
70936W        W43262  25.210  30.986  14.281
70937W        W43263  28.675  27.635   2.392
70938W        W43264  34.090  26.636   5.119
70939W        W43265  26.954  13.144   2.752
70940W        W43266  17.709  27.671  10.915
70941W        W43267  13.272   2.355   2.851
70942W        W43268  43.360  34.017  12.577
70943W        W43269  42.914  13.254   2.794
70944W        W43270  29.125  35.079  10.559
70945W        W43271   9.683  39.854  13.992
70946W        W43272  20.089  27.654   0.476
70947W        W43273  42.893  18.714   1.786
70948W        W43274  31.471  32.516   4.687
70949W        W43275  17.628  10.153  14.392
70950W        W43276  13.253  13.692  12.904
70951W        W43277  44.947   5.354  12.906
70952W        W43278  43.957   2.732  10.901
70953W        W43279  22.084  16.638  13.344
70954W        W43280  31.133  14.200  14.301
70955W        W43281  23.659  38.355  10.545
70956W        W43282  17.630  44.842  11.517
70957W        W43283  28.111  25.199   5.117
70958W        W43284  25.531  11.319   3.209
70959W        W43285  27.053   0.893   4.648
70960W        W43286  17.784  24.546  11.902
70961W        W43287  19.669  10.865  13.537
70962W        W43288  12.733   9.268  11.874
70963W        W43289  43.868   5.739  10.961
70964W        W43290   9.764   1.733  13.338
70965W        W43291  26.962  41.484  10.473
70966W        W43292  15.141  29.112   4.180
70967W        W43293  16.632  29.925   1.932
70968W        W43294  40.454  33.036   4.160
70969W        W43295  29.132  24.062  13.010
70970W        W43296  30.596   8.719   0.839
70971W        W43297   5.284  15.707   1.275
70972W        W43298  21.091  33.963   4.608
70973W        W43299  22.565  34.464   2.719
70974W        W43300   1.338  32.590   1.259
70975W        W43301  14.181   9.861  10.495
70976W        W43302  35.092  37.487   2.205
70977W        W43303  39.935  40.329  13.473
70978W        W43304  37.393  44.971   4.778
70979W        W43305  11.170  22.719   0.957
70980W        W43306  21.153  41.913   2.778
70981W        W43307  22.689  18.554  10.443
70982W        W43308  25.701   3.277  12.546
70983W        W43309  10.229  26.652  10.435
70984W        W43310  26.656  16.181   2.306
70985W        W43311  10.853  35.537  13.930
70986W        W43312  30.915  37.580   4.717
70987W        W43313  42.354  23.594  11.391
70988W        W43314   8.367  39.872   4.628
70989W        W43315  10.262  36.539   2.811
70990W        W43316   2.910  18.118   1.840
70991W        W43317  31.128  15.803  12.533
70992W        W43318  35.075  23.222   3.198
70993W        W43319  13.629  33.116  10.590
70994W        W43320  30.044  43.364  14.892
70995W        W43321  30.147   1.410  14.023
70996W        W43322  24.636  38.471   0.735
70997W        W43323  15.819   7.729  12.439
70998W        W43324  39.058  33.621  11.044
70999W        W43325   2.911  37.426   5.162
71000W        W43326  18.054  41.921  10.412
71001W        W43327   2.349  36.405  12.380
71002W        W43328  23.012   4.780   2.878
71003W        W43329  30.016  38.054   2.243
71004W        W43330  39.402   3.250   2.351
71005W        W43331   0.909  12.189   1.753
71006W        W43332  12.819  17.208   3.199
71007W        W43333   8.867   1.243  13.359
71008W        W43334   6.887  39.974   4.123
71009W        W43335  11.319  41.331   2.372
71010W        W43336  30.129  15.802   3.325
71011W        W43337  20.600  38.344   9.948
71012W        W43338  19.739  34.452  14.409
71013W        W43339   0.780  36.432  11.980
71014W        W43340   7.764  16.114   2.766
71015W        W43341  18.701  15.745  11.005
71016W        W43342   6.860   1.450  14.334
71017W        W43343   8.785  30.968   0.858
71018W        W43344  24.618  37.577   0.909
71019W        W43345  41.023  35.425   4.250
71020W        W43346  24.040  44.874  11.426
71021W        W43347   9.889  28.533   2.734
71022W        W43348  15.186  30.068  13.510
71023W        W43349  24.085   5.692   4.273
71024W        W43350  35.063  10.842   2.664
71025W        W43351   9.671  32.034   2.304
71026W        W43352  39.535  11.727  13.432
71027W        W43353  32.083  30.562   3.751
71028W        W43354  12.240  10.377  14.905
71029W        W43355  31.420   3.397  12.908
71030W        W43356  12.136  24.026   2.901
71031W        W43357  32.989  36.933   2.868
71032W        W43358  20.258   0.765   2.809
71033W        W43359  18.555  41.336  11.494
71034W        W43360  19.252  30.600  12.353
71035W        W43361  16.591  36.856  11.611
71036W        W43362  28.952   0.387  10.602
71037W        W43363   5.330  28.947  14.782
71038W        W43364  29.153   6.901  13.842
71039W        W43365  40.802  14.332   4.229
71040W        W43366  28.964  41.370  11.531
71041W        W43367   2.404  29.161   2.389
71042W        W43368  36.394   1.913  11.570
71043W        W43369  24.155  38.029  12.915
71044W        W43370   2.367  21.169  10.095
71045W        W43371  17.700  12.815  13.458
71046W        W43372   2.311   8.261   4.742
71047W        W43373  41.915  38.425  13.836
71048W        W43374  24.086  23.109  14.371
71049W        W43375  18.078  32.087   3.155
71050W        W43376  36.035  15.703  12.921
71051W        W43377  34.523   4.291  11.594
71052W        W43378   8.833  35.474  13.808
71053W        W43379  13.824  18.278   0.952
71054W        W43380  44.299   6.794   3.858
71055W        W43381  39.466  25.692   2.292
71056W        W43382   1.478  43.943  11.436
71057W        W43383   4.404  44.958  11.056
71058W        W43384  38.873  26.474   5.288
71059W        W43385  21.172  35.072   0.396
71060W        W43386   4.444  42.358   1.328
71061W        W43387  44.962  13.116   3.647
71062W        W43388  15.227  29.624  14.494
71063W        W43389  21.556  11.867  13.875
71064W        W43390  42.838  11.343   1.263
71065W        W43391   9.358  15.794   3.859
71066W        W43392  18.267  17.781   4.282
71067W        W43393   0.894  10.171   0.434
71068W        W43394  14.293   3.415   4.300
71069W        W43395  16.252  43.965   4.607
71070W        W43396  17.222   7.870   1.906
71071W        W43397  27.015  26.614   3.770
71072W        W43398  19.211  22.158  11.955
71073W        W43399   2.741  23.090  11.601
71074W        W43400  17.571  26.974   1.278
71075W        W43401   6.799  16.158  12.376
71076W        W43402  40.490  21.663   3.363
71077W        W43403  26.158  10.653  12.433
71078W        W43404  12.616  41.292   3.714
71079W        W43405  22.708  28.060   2.805
71080W        W43406  37.568  11.219  13.832
71081W        W43407  14.650  21.713  13.882
71082W        W43408  19.717  42.937   4.174
71083W        W43409   7.291  12.127   3.210
71084W        W43410  22.063  10.861   1.349
71085W        W43411  44.004  19.076   0.409
71086W        W43412   0.886  17.641   0.341
71087W        W43413  31.525  24.040   2.324
71088W        W43414   7.841  41.905  13.394
71089W        W43415   9.869  33.911  13.534
71090W        W43416  40.443   9.751   1.705
71091W        W43417  26.518  19.587  14.367
71092W        W43418  43.275  38.032   3.676
71093W        W43419  12.844   2.795   0.361
71094W        W43420   0.381  42.357   3.644
71095W        W43421  24.177  13.758  13.022
71096W        W43422   4.363  34.863   3.720
71097W        W43423  17.081  35.473   0.803
71098W        W43424  32.107  24.624   1.829
71099W        W43425  36.852  42.868   3.749
71100W        W43426  11.703  11.152  11.415
71101W        W43427  34.538   6.762  13.851
71102W        W43428   4.785  14.662   3.203
71103W        W43429  14.789  25.019  13.935
71104W        W43430   5.829   9.330   3.638
71105W        W43431  13.739  12.330  10.536
71106W        W43432  41.943  35.855   0.840
71107W        W43433  11.258   7.183   0.362
71108W        W43434  25.622  10.337  13.533
71109W        W43435  43.860  14.314   1.927
71110W        W43436  25.155  28.601   3.169
71111W        W43437  24.697  41.437  13.950
71112W        W43438  12.175  28.661  13.928
71113W        W43439  22.189  38.020  11.393
71114W        W43440  23.504  30.981   0.412
71115W        W43441  27.641  42.000  13.016
71116W        W43442   1.337  44.504  12.528
71117W        W43443  25.118  30.656  11.573
71118W        W43444  19.272  41.953   0.441
71119W        W43445   6.228   1.765   1.871
71120W        W43446   1.438  14.253   3.215
71121W        W43447  12.360   2.409  10.990
71122W        W43448  33.451  30.959   4.297
71123W        W43449  16.226   4.233  14.467
71124W        W43450  12.318  38.017   4.116
71125W        W43451   8.207   9.786  12.345
71126W        W43452  18.593  12.229  11.990
71127W        W43453   0.431  27.489   3.853
71128W        W43454  32.142  34.389   4.219
71129W        W43455   6.296  42.312   4.801
71130W        W43456  28.031  14.671   1.345
71131W        W43457  13.266  17.619   3.272
71132W        W43458  39.818  26.190   4.251
71133W        W43459   8.282  31.522   1.922
71134W        W43460  22.203  40.464   2.357
71135W        W43461   3.434   9.785  14.318
71136W        W43462  22.513   9.249  11.405
71137W        W43463  35.880  15.809  14.488
71138W        W43464  13.787  17.589   3.323
71139W        W43465  25.013   1.738  13.475
71140W        W43466  41.824  28.167   2.311
71141W        W43467  42.807   7.764  13.385
71142W        W43468  16.714  18.140   1.809
71143W        W43469   8.292   5.786  11.579
71144W        W43470  36.366  12.299   1.707
71145W        W43471  16.733  33.035   4.834
71146W        W43472  12.242  41.452  14.843
71147W        W43473  22.110   6.697   0.949
71148W        W43474  38.953  21.692   0.400
71149W        W43475   1.288  38.843  14.293
71150W        W43476  15.123  18.781   1.834
71151W        W43477  39.357  44.934  10.413
71152W        W43478  35.857  19.187  10.489
71153W        W43479  27.038  44.354   3.677
71154W        W43480  26.042   5.225  14.844
71155W        W43481  24.030   7.898  12.827
71156W        W43482  12.799  43.421   3.752
71157W        W43483  31.458  18.115  10.608
71158W        W43484  22.216  43.978  11.952
71159W        W43485  39.534  32.979   0.405
71160W        W43486   5.342  34.055   3.174
71161W        W43487  12.145  12.314   4.329
71162W        W43488  20.552   0.754   2.891
71163W        W43489  21.591  23.191   0.426
71164W        W43490  19.082  13.832   4.212
71165W        W43491  37.472   5.762  13.482
71166W        W43492  26.016  29.532   2.218
71167W        W43493   6.212  29.607  12.857
71168W        W43494   7.722  19.765   4.332
71169W        W43495   8.321  44.461   2.902
71170W        W43496  40.960  13.256   3.824
71171W        W43497  37.877   5.745   4.626
71172W        W43498  34.114   4.227  11.547
71173W        W43499  19.570  20.690   4.334
71174W        W43500   7.720  24.502   3.810
71175W        W43501   2.447  25.094   1.825
71176W        W43502  43.439   6.313  10.907
71177W        W43503  41.483  36.915  12.552
71178W        W43504  27.079  43.513   4.680
71179W        W43505   2.849  24.073  11.072
71180W        W43506  38.445  11.354  13.533
71181W        W43507   6.783  20.229  13.949
71182W        W43508   3.942   0.463   3.249
71183W        W43509   1.460   6.311  10.894
71184W        W43510   2.910  19.123   3.299
71185W        W43511  27.470  11.280   4.121
71186W        W43512  39.382  30.431  13.415
71187W        W43513  30.529   0.468   1.353
71188W        W43514  20.071   1.939   1.319
71189W        W43515  32.926  16.764  11.398
71190W        W43516  12.678  41.866  14.484
71191W        W43517  37.364  44.884  10.465
71192W        W43518  24.984  14.305  14.833
71193W        W43519  38.546  25.624   0.379
71194W        W43520   6.211  31.044   2.407
71195W        W43521  25.667   8.691   2.252
71196W        W43522  24.992  44.290   3.169
71197W        W43523   2.898  16.774   2.240
71198W        W43524   7.228  14.182  11.472
71199W        W43525  31.552  18.597  11.097
71200W        W43526  26.460   2.428   3.769
71201W        W43527  12.647  41.516  12.011
71202W        W43528  36.852  28.540   3.661
71203W        W43529  22.654  32.129   4.615
71204W        W43530   6.292   0.447   1.232
71205W        W43531  23.567  16.122  13.876
71206W        W43532  36.454  10.816   1.269
71207W        W43533  30.502  28.559   2.386
71208W        W43534  17.733  43.916  11.020
71209W        W43535  31.640  42.823   0.910
71210W        W43536  31.144  18.782   3.177
71211W        W43537  44.476  39.861  12.893
71212W        W43538  33.465  28.534   3.753
71213W        W43539  36.861  43.310  12.570
71214W        W43540  12.221   6.694  12.388
71215W        W43541   4.751  19.597  13.891
71216W        W43542   6.896  20.061  10.438
71217W        W43543   1.831  36.572   0.871
71218W        W43544  35.589  44.426  11.888
71219W        W43545  34.003  23.050  10.574
71220W        W43546  34.890  16.271  14.850
71221W        W43547  14.590  21.020  11.052
71222W        W43548  42.844  26.953   1.740
71223W        W43549  22.109  32.518   1.768
71224W        W43550   6.322  17.297  14.300
71225W        W43551   5.314  35.533  14.914
71226W        W43552  22.188  19.580   1.748
71227W        W43553   6.401  27.073  14.821
71228W        W43554  13.832  14.107   0.465
71229W        W43555  40.973  24.105   4.297
71230W        W43556  15.672  28.475   4.802
71231W        W43557  42.389  30.984  12.510
71232W        W43558   5.759  44.480  12.386
71233W        W43559  24.610  33.053  11.864
71234W        W43560   9.810  24.601   4.198
71235W        W43561  43.910  24.490   4.658
71236W        W43562  30.145  30.589  14.303
71237W        W43563  26.051  43.419   4.704
71238W        W43564  27.566  21.054   1.284
71239W        W43565   0.921  24.647  11.474
71240W        W43566   6.780  14.631  11.109
71241W        W43567  40.338  44.282  12.569
71242W        W43568  22.154  41.498   1.747
71243W        W43569  31.972  20.261  14.015
71244W        W43570   2.885  24.556   4.699
71245W        W43571   2.744  28.036  14.447
71246W        W43572  21.118  39.057   4.821
71247W        W43573   5.309  28.161   4.355
71248W        W43574   1.324  33.023   2.770
71249W        W43575  43.392  35.391   2.388
71250W        W43576  35.052  18.279  12.379
71251W        W43577  39.323  27.522  11.405
71252W        W43578   7.709  43.963  13.341
71253W        W43579  43.398  29.088  12.415
71254W        W43580  10.334   6.684  14.951
71255W        W43581  43.310  21.607   1.246
71256W        W43582  31.630   2.897   4.192
71257W        W43583  27.080  32.533  13.998
71258W        W43584  19.665  25.123  14.003
71259W        W43585   0.902  32.995  14.318
71260W        W43586  16.213  41.796   0.306
71261W        W43587  25.041  23.063   0.923
71262W        W43588  42.377  18.747   4.627
71263W        W43589  28.494  35.537  11.898
71264W        W43590  13.803  36.911  12.430
71265W        W43591  38.825  37.952   0.295
71266W        W43592   0.287   3.270   9.985
71267W        W43593  41.964  13.636   3.861
71268W        W43594  30.089  15.595   2.412
71269W        W43595  21.602  18.665  10.524
71270W        W43596   0.253   3.777  14.795
71271W        W43597  19.133  30.135   2.205
71272W        W43598  17.154  14.680  12.367
71273W        W43599  16.133  17.228   1.758
71274W        W43600  36.929   0.751   1.761
71275W        W43601  35.085  42.866  10.028
71276W        W43602  43.443   2.770   2.219
71277W        W43603  39.030  19.745   3.635
71278W        W43604  18.734  30.590  11.076
71279W        W43605   6.868   3.240   3.693
71280W        W43606  30.989  39.524  14.970
71281W        W43607  29.462  29.553   5.124
71282W        W43608   9.783  18.659  12.937
71283W        W43609  44.299  43.498   3.319
71284W        W43610  28.615  43.003  10.029
71285W        W43611  40.386  16.710   0.365
71286W        W43612  21.650   6.186   1.302
71287W        W43613  31.596   9.314   2.694
71288W        W43614  31.500  39.476  13.906
71289W        W43615   4.712  39.541  12.844
71290W        W43616  39.925  16.682   2.829
71291W        W43617  34.069  25.203   0.953
71292W        W43618  39.372  42.930   1.349
71293W        W43619  17.642  27.949   0.775
71294W        W43620  11.237  44.877  14.902
71295W        W43621  42.969  17.163  13.502
71296W        W43622  13.820   5.309  12.493
71297W        W43623  36.050  27.528   0.756
71298W        W43624  33.930  10.748  12.991
71299W        W43625  25.000  11.265   0.817
71300W        W43626   9.799  34.029  11.058
71301W        W43627   0.985  36.955  14.395
71302W        W43628  15.780  19.699   3.257
71303W        W43629  14.309   4.343   0.792
71304W        W43630  29.009   5.272   1.326
71305W        W43631  20.202   5.792  13.539
71306W        W43632  26.997  41.830   1.805
71307W        W43633  32.069  11.242  12.885
71308W        W43634  25.568  17.307   0.440
71309W        W43635  44.753  22.139  13.466
71310W        W43636  34.495  24.057  14.030
71311W        W43637  29.465  16.102  11.077
71312W        W43638  40.485  40.311  13.909
71313W        W43639  35.896  37.008   3.258
71314W        W43640  34.915  10.841   0.433
71315W        W43641  40.468   6.791  10.932
71316W        W43642   6.711  12.641   4.152
71317W        W43643  37.564  32.097  13.318
71318W        W43644  17.598  42.450   3.340
71319W        W43645   7.339   0.743   2.785
71320W        W43646  34.959   4.403  10.480
71321W        W43647  25.639   1.317   1.237
71322W        W43648  11.308   7.382  13.307
71323W        W43649  25.677  15.198  11.548
71324W        W43650  29.137  11.770   0.749
71325W        W43651  19.103  25.967   2.261
71326W        W43652  34.415  29.160  13.428
71327W        W43653  35.368  25.209  12.875
71328W        W43654  35.588  29.534   3.692
71329W        W43655  34.484  31.485   3.343
71330W        W43656  32.437  39.411  13.058
71331W        W43657  31.006  22.180  12.900
71332W        W43658   0.816  33.510   4.803
71333W        W43659   1.461  10.679   5.715
71334W        W43660  31.539  10.167   2.206
71335W        W43661  27.482   8.382  12.878
71336W        W43662  40.974   1.459  12.959
71337W        W43663  19.222   9.234   0.740
71338W        W43664  10.311  23.012   5.320
71339W        W43665  44.813  38.551   0.890
71340W        W43666  12.744  32.456   1.236
71341W        W43667  43.890   1.318   3.366
71342W        W43668  16.118  32.466  12.965
71343W        W43669   7.695   4.854   4.263
71344W        W43670   4.922   9.814  10.928
71345W        W43671  24.029  33.024   0.849
71346W        W43672   6.273   9.352   3.845
71347W        W43673  23.644  40.048  14.481
71348W        W43674  21.049  42.902   4.317
71349W        W43675  43.503  37.846  13.957
71350W        W43676  44.445   4.392   2.190
71351W        W43677   9.825   6.830  14.017
71352W        W43678  29.666   9.169   1.766
71353W        W43679   7.878  21.105   3.754
71354W        W43680  38.058  28.942  10.498
71355W        W43681  16.806  37.996   3.819
71356W        W43682   9.204  33.920   2.725
71357W        W43683  20.739  32.924   0.449
71358W        W43684  20.183   8.712   4.768
71359W        W43685   8.208  11.647  11.027
71360W        W43686  37.562  29.468   3.173
71361W        W43687  28.558  36.365   3.220
71362W        W43688  15.796  12.726  10.958
71363W        W43689  38.895  14.246  11.965
71364W        W43690   0.973   1.850   1.708
71365W        W43691  26.031  17.791   2.354
71366W        W43692  10.288   1.816  11.978
71367W        W43693  23.061  21.102   4.683
71368W        W43694  35.861  25.554  13.997
71369W        W43695   0.838   6.723   3.636
71370W        W43696  26.477  41.807   5.152
71371W        W43697  37.950   6.358   1.841
71372W        W43698  32.013  11.194   1.319
71373W        W43699  15.089   3.841  10.902
71374W        W43700  30.469   4.928  10.495
71375W        W43701  23.222  40.396  11.444
71376W        W43702  18.670  18.767   0.755
71377W        W43703   6.763  35.476   1.701
71378W        W43704   9.841  31.637  12.532
71379W        W43705  34.993  32.433  10.609
71380W        W43706  23.992  32.548   2.310
71381W        W43707   9.366  19.678   4.289
71382W        W43708   3.351   7.887  12.885
71383W        W43709  15.089  17.719  14.834
71384W        W43710  36.351   7.904  13.886
71385W        W43711  16.792  38.001  12.980
71386W        W43712   8.664  31.449   4.158
71387W        W43713  18.613   9.730   1.309
71388W        W43714  37.396  24.066  13.452
71389W        W43715  27.107  38.552   1.734
71390W        W43716   2.282  23.516  13.374
71391W        W43717  28.554  27.110  11.979
71392W        W43718   5.786  12.181   1.313
71393W        W43719  26.138  20.079  14.881
71394W        W43720  17.081  24.145  12.919
71395W        W43721  37.976  44.919   3.869
71396W        W43722   5.773  31.470  10.622
71397W        W43723  19.568  14.639  13.020
71398W        W43724  44.809  18.589   0.293
71399W        W43725  38.494   2.414  12.940
71400W        W43726  28.680   7.891   3.231
71401W        W43727   2.791   4.389   2.664
71402W        W43728  12.767  15.718  14.974
71403W        W43729  12.138   3.801   4.709
71404W        W43730  34.012  34.381   3.841
71405W        W43731  26.065   0.870  11.860
71406W        W43732  25.038  13.140   2.832
71407W        W43733  43.805  38.327  12.508
71408W        W43734  41.435  13.819  14.977
71409W        W43735  44.887  16.152   0.765
71410W        W43736  29.102  32.111   3.332
71411W        W43737   3.902  35.422   1.242
71412W        W43738  25.151  33.000   3.815
71413W        W43739  44.480  41.829  11.106
71414W        W43740  30.930  37.558  14.287
71415W        W43741   6.193  39.314   2.221
71416W        W43742   4.374  39.056   4.127
71417W        W43743  16.628  34.496  12.090
71418W        W43744  37.340  40.516   5.204
71419W        W43745   1.308  42.514   4.353
71420W        W43746  11.352  34.413   0.364
71421W        W43747   1.779  28.978   0.444
71422W        W43748   1.899   7.883  14.508
71423W        W43749  10.281   7.719  14.306
71424W        W43750  35.928  27.144   1.373
71425W        W43751  26.019  33.604  11.491
71426W        W43752  16.277  24.698  11.538
71427W        W43753   5.436  42.439   3.665
71428W        W43754   3.771  27.673  14.494
71429W        W43755  13.313  16.267   2.303
71430W        W43756  14.718   9.325  12.863
71431W        W43757  36.347  12.228  14.026
71432W        W43758  37.369  44.380   0.964
71433W        W43759  42.030  10.832  11.878
71434W        W43760   1.942   6.394  13.841
71435W        W43761  15.085  14.102  11.547
71436W        W43762  29.433  31.143   2.200
71437W        W43763  39.936  34.584   1.745
71438W        W43764  26.678  12.799  12.966
71439W        W43765  21.203   7.665   1.756
71440W        W43766   3.780  12.287   3.797
71441W        W43767  37.427  43.003   4.120
71442W        W43768  21.041  16.777   3.691
71443W        W43769  25.002   8.733  12.493
71444W        W43770   5.200  14.698   3.812
71445W        W43771   4.359  37.874  14.986
71446W        W43772  28.031  40.940  11.987
71447W        W43773  35.386  15.105  13.902
71448W        W43774  34.608  13.646   2.254
71449W        W43775  38.908  35.034  14.495
71450W        W43776  28.962  15.214   2.735
71451W        W43777  37.059  31.414  11.007
71452W        W43778   2.910  31.053   2.873
71453W        W43779  32.921  41.841  13.422
71454W        W43780  29.504   8.358   3.722
71455W        W43781  31.633   0.844  11.055
71456W        W43782  27.941  40.328   4.223
71457W        W43783  29.630  42.932   0.751
71458W        W43784  40.835  30.595  12.891
71459W        W43785  33.606  10.354  12.034
71460W        W43786  25.004   0.918   0.740
71461W        W43787  43.499  12.132   4.333
71462W        W43788   7.746  21.245  11.864
71463W        W43789  11.781  20.572  14.315
71464W        W43790  43.288  27.158   2.395
71465W        W43791   5.854   4.326  11.868
71466W        W43792  39.064   9.238  10.132
71467W        W43793  38.893   0.864  14.007
71468W        W43794  37.533  32.508  12.441
71469W        W43795  34.408  13.771  10.557
71470W        W43796   8.837  34.445  13.310
71471W        W43797  18.655  28.979  11.933
71472W        W43798  31.567  17.230   2.281
71473W        W43799  32.538  35.363  13.349
71474W        W43800  36.909   1.346   1.281
71475W        W43801  36.382  12.347   2.857
71476W        W43802  29.082   8.248  11.542
71477W        W43803  39.522  18.139   0.254
71478W        W43804  22.657  20.213  14.023
71479W        W43805   3.916  16.614  14.891
71480W        W43806  21.711  21.738   4.724
71481W        W43807  31.514  31.487   3.325
71482W        W43808  25.538  16.123   4.709
71483W        W43809  34.056   5.289  14.821
71484W        W43810  10.851  37.862  13.488
71485W        W43811  35.458  22.160  12.999
71486W        W43812  32.508  12.253  11.087
71487W        W43813  27.489  40.320  12.421
71488W        W43814  21.176  41.812   1.913
71489W        W43815  34.002  21.126  11.468
71490W        W43816  12.235  24.024   0.320
71491W        W43817  23.071  22.155   3.197
71492W        W43818  39.875  41.002   4.236
71493W        W43819  16.689  41.003   3.188
71494W        W43820  18.745   4.251   3.702
71495W        W43821  42.989  35.516   3.310
71496W        W43822  24.088  10.317   4.751
71497W        W43823  36.570  26.679   4.258
71498W        W43824  15.674  17.200  11.983
71499W        W43825  43.886  21.180   4.679
71500W        W43826  22.179  43.016  11.385
71501W        W43827  14.108  29.136  13.399
71502W        W43828  20.617  11.166   0.453
71503W        W43829   1.810  26.174   2.378
71504W        W43830  10.789  31.584  11.515
71505W        W43831   6.423  10.807   3.290
71506W        W43832  23.613  32.998   1.421
71507W        W43833   4.756   5.311  13.018
71508W        W43834  25.129  33.969  11.864
71509W        W43835  20.133   3.369   0.347
71510W        W43836  25.657  23.564   1.793
71511W        W43837  34.460   6.798  12.007
71512W        W43838   6.772   1.284   0.959
71513W        W43839  10.383  32.518   2.694
71514W        W43840  39.533  26.697  11.051
71515W        W43841  10.364  15.248   1.809
71516W        W43842  30.563  32.402   3.700
71517W        W43843   6.223   2.324   2.346
71518W        W43844   7.698  21.259  14.327
71519W        W43845  18.646  29.495   5.212
71520W        W43846   2.289  17.234  11.446
71521W        W43847  13.647  42.015  11.994
71522W        W43848   9.766  35.016   2.328
71523W        W43849   6.813   3.296   3.264
71524W        W43850  14.125  27.683   1.325
71525W        W43851  24.982  36.357   3.866
71526W        W43852  34.471  44.358   0.439
71527W        W43853   9.883  37.439  11.610
71528W        W43854  28.484  40.478   4.140
71529W        W43855  32.992   3.267  12.495
71530W        W43856  22.064  42.344   3.345
71531W        W43857  41.514  40.025   3.829
71532W        W43858  40.046  22.653   4.256
71533W        W43859  31.055  35.437   1.873
71534W        W43860  32.571  14.166   2.414
71535W        W43861   3.761  43.331   0.885
71536W        W43862   9.261  42.815   0.442
71537W        W43863  44.786  28.604   1.326
71538W        W43864  39.825  18.700   0.435
71539W        W43865  35.853  28.571  10.474
71540W        W43866   0.471  19.263   1.856
71541W        W43867  11.178  22.241  10.891
71542W        W43868  36.866   2.920   0.769
71543W        W43869  29.161  37.410   4.299
71544W        W43870  18.159  18.075  12.443
71545W        W43871  44.383  25.175   3.732
71546W        W43872  22.556  41.431   1.396
71547W        W43873  24.612  12.303   1.223
71548W        W43874  26.671  31.582  10.630
71549W        W43875  40.047  13.115  11.080
71550W        W43876  38.371   9.185   2.278
71551W        W43877  18.091  12.746  13.464
71552W        W43878  26.988   2.280  13.500
71553W        W43879  28.471   2.327   3.188
71554W        W43880  39.401   5.399  12.967
71555W        W43881  41.926  30.582   0.853
71556W        W43882   2.428  10.652  14.795
71557W        W43883  19.130  36.390   3.864
71558W        W43884  33.392  44.302  11.585
71559W        W43885  19.097  20.084   4.703
71560W        W43886  43.946  15.314   2.202
71561W        W43887  21.026  42.963   5.230
71562W        W43888  43.447  29.469   2.807
71563W        W43889   6.887   5.229   2.723
71564W        W43890  41.044  36.464   3.734
71565W        W43891  16.139  16.153   0.245
71566W        W43892   9.690   2.382   1.731
71567W        W43893   9.705   8.252  13.456
71568W        W43894  23.048  36.389  14.356
71569W        W43895  19.561  12.257   1.442
71570W        W43896  10.671   4.895   2.360
71571W        W43897  39.335   4.844   3.667
71572W        W43898  43.499  16.719   3.151
71573W        W43899  37.029   0.854  12.838
71574W        W43900  34.557  44.900  13.454
71575W        W43901  11.200  41.863  14.945
71576W        W43902   5.399  42.028   4.623
71577W        W43903  13.801  25.023   1.701
71578W        W43904  31.488  35.512   0.830
71579W        W43905  35.107  21.574  10.526
71580W        W43906   6.228  19.185  13.002
71581W        W43907  39.977   8.749  13.035
71582W        W43908  39.335  27.497  12.898
71583W        W43909  17.120   9.655   1.422
71584W        W43910  18.149  32.094  13.520
71585W        W43911  42.019  14.664   3.351
71586W        W43912  14.833  18.261   4.773
71587W        W43913  18.786  31.587  10.967
71588W        W43914  42.885  36.002   2.740
71589W        W43915  29.077   3.423  13.340
71590W        W43916  31.932  43.299   4.329
71591W        W43917  18.664  20.119  11.520
71592W        W43918  37.073  13.213   3.654
71593W        W43919  18.259  19.106  12.448
71594W        W43920   7.776  13.119   4.334
71595W        W43921   1.274   8.233  14.339
71596W        W43922   1.838  13.670   4.158
71597W        W43923  23.100  44.830   2.378
71598W        W43924  17.176   1.959   5.204
71599W        W43925  37.556  27.080   3.657
71600W        W43926  39.053   8.305  12.024
71601W        W43927  19.730  15.198  12.870
71602W        W43928  14.811  28.530   0.326
71603W        W43929   4.263   2.319   4.754
71604W        W43930  20.580  16.234   0.338
71605W        W43931  15.142  35.476  11.053
71606W        W43932  19.729  38.846   1.801
71607W        W43933  36.470  43.942  14.299
71608W        W43934  24.542  33.613   0.820
71609W        W43935   4.394  24.227  12.408
71610W        W43936  24.511  19.251  12.829
71611W        W43937  13.633  18.680   4.725
71612W        W43938  40.899  13.723  13.910
71613W        W43939   1.325   7.371   1.269
71614W        W43940  24.126  27.141  14.285
71615W        W43941  12.186  41.811   1.775
71616W        W43942  41.306  24.995  10.517
71617W        W43943  34.545  26.574   1.755
71618W        W43944   8.287   2.956   2.184
71619W        W43945  39.375  38.502  14.503
71620W        W43946  32.591  34.911  11.865
71621W        W43947  28.478  26.652   3.688
71622W        W43948  44.306   5.297  14.276
71623W        W43949  36.572  26.649   4.604
71624W        W43950  43.342  29.929  11.543
71625W        W43951  32.100   9.230  14.331
71626W        W43952  23.501  43.833  11.457
71627W        W43953  13.296   8.829  11.905
71628W        W43954  25.975  35.524   4.235
71629W        W43955   5.370  42.017   3.766
71630W        W43956   0.792  44.340   1.325
71631W        W43957   3.356  14.122   4.810
71632W        W43958  23.161  32.932  14.766
71633W        W43959   2.908   3.781   1.769
71634W        W43960  19.764  32.978  13.948
71635W        W43961  29.425  20.531  11.083
71636W        W43962  13.233  22.088  14.404
71637W        W43963  41.329  21.247  13.045
71638W        W43964  13.161  18.170   5.177
71639W        W43965  37.923   2.736  11.603
71640W        W43966   0.372  44.405   3.820
71641W        W43967  33.492  26.996   4.656
71642W        W43968  39.354  38.433  14.014
71643W        W43969  22.128  19.730  12.374
71644W        W43970  19.771   1.444   3.812
71645W        W43971  37.530  32.910   4.346
71646W        W43972   2.898  18.053  12.536
71647W        W43973  11.180  18.666  11.600
71648W        W43974  41.010   8.313  10.437
71649W        W43975  38.540  30.044  13.021
71650W        W43976  13.684  22.711   0.761
71651W        W43977  21.748  37.582   0.884
71652W        W43978  40.968  17.131  11.392
71653W        W43979  27.546  29.547   5.129
71654W        W43980  29.615   6.887  13.057
71655W        W43981  30.033  22.635   2.903
71656W        W43982  18.208  37.832  11.417
71657W        W43983  28.475  43.005   0.365
71658W        W43984  39.382  44.392  10.915
71659W        W43985  18.559   5.301  14.308
71660W        W43986   2.450  40.542  14.981
71661W        W43987   0.368  20.616  10.642
71662W        W43988  29.065  22.674  12.470
71663W        W43989  28.965   5.816   1.785
71664W        W43990   7.346  12.201   1.334
71665W        W43991   8.363  37.444   4.214
71666W        W43992  44.376   9.794  11.456
71667W        W43993  18.707  18.149   4.716
71668W        W43994  25.214  34.449  11.459
71669W        W43995  23.162  38.510  11.869
71670W        W43996  34.589   8.751  10.556
71671W        W43997  19.554  13.191  10.974
71672W        W43998  12.691  18.554   0.402
71673W        W43999  23.549  22.075  12.857
71674W        W44000  32.958  18.229  13.318
71675W        W44001   2.794  20.709   4.753
71676W        W44002   6.872  10.379  11.962
71677W        W44003  27.546  25.067  14.290
71678W        W44004   2.297  18.066  13.441
71679W        W44005   3.367  14.254   0.452
71680W        W44006  37.995  25.513  13.819
71681W        W44007  34.472  26.592   2.256
71682W        W44008  32.441  14.768   4.166
71683W        W44009  33.621  14.679   0.383
71684W        W44010   9.847  40.926  12.922
71685W        W44011   0.918   8.311  11.593
71686W        W44012  41.499  39.990   0.750
71687W        W44013  15.264  16.671   1.900
71688W        W44014  33.952  30.473  14.375
71689W        W44015  27.161  38.420   4.135
71690W        W44016  11.740  36.509  12.573
71691W        W44017  29.944  34.428   3.857
71692W        W44018  44.915  31.978   2.216
71693W        W44019  14.166  41.904  11.128
71694W        W44020  41.373  11.687  13.411
71695W        W44021  28.005  25.182  10.465
71696W        W44022  15.325   3.846   2.192
71697W        W44023  31.587  36.074   1.766
71698W        W44024   7.244   7.909  13.941
71699W        W44025   8.727  28.970   2.184
71700W        W44026  36.979   5.394  13.942
71701W        W44027   0.392  32.593   2.804
71702W        W44028   6.320  16.790   4.222
71703W        W44029  21.758  15.614   2.781
71704W        W44030  42.837   1.929   3.735
71705W        W44031  33.607  16.138   0.263
71706W        W44032  30.423  16.294   4.334
71707W        W44033   7.883  28.106  10.531
71708W        W44034  37.442  18.179   4.288
71709W        W44035  34.040  41.787  12.074
71710W        W44036  25.150  27.670   1.800
71711W        W44037  13.788   6.428   3.258
71712W        W44038  20.540  42.294  14.354
71713W        W44039  41.007   5.282  11.473
71714W        W44040  14.739   7.232  10.594
71715W        W44041  20.208   7.853   4.669
71716W        W44042  39.533  32.597   2.679
71717W        W44043  29.507  22.127  13.318
71718W        W44044   0.261   7.224   3.376
71719W        W44045  21.261  43.824   4.727
71720W        W44046   7.737  23.625  12.042
71721W        W44047  39.348  10.718  12.094
71722W        W44048  23.700  18.158   0.757
71723W        W44049  40.534  24.572  13.875
71724W        W44050  10.182  44.458  14.484
71725W        W44051   0.396   7.702   3.302
71726W        W44052  34.563  22.033   1.403
71727W        W44053   7.381  11.633   2.881
71728W        W44054   7.251  43.945  13.525
71729W        W44055   3.819  13.329  13.890
71730W        W44056  25.148   4.417  10.416
71731W        W44057  40.498  40.479  10.537
71732W        W44058   6.197  44.900   1.257
71733W        W44059  38.020  42.819  14.814
71734W        W44060  33.618  12.616   2.302
71735W        W44061  27.670   8.853  13.491
71736W        W44062  33.999  16.148   4.329
71737W        W44063  37.864  33.970  14.030
71738W        W44064   3.802  18.160   0.446
71739W        W44065   7.184  22.654  14.930
71740W        W44066  36.495  36.465   0.397
71741W        W44067   5.704  12.158   1.935
71742W        W44068  27.500   0.441  13.362
71743W        W44069   4.879  31.477   2.327
71744W        W44070  33.917  17.726  14.278
71745W        W44071  13.131  36.845  11.534
71746W        W44072  27.470  27.186   0.922
71747W        W44073  40.963  22.098  12.407
71748W        W44074   3.257  20.765   3.860
71749W        W44075  15.658  41.030  12.469
71750W        W44076  29.558  23.022  12.538
71751W        W44077  26.951   3.879  13.892
71752W        W44078   4.346   9.820   4.816
71753W        W44079  19.112  37.414   3.177
71754W        W44080  44.833  29.108   0.949
71755W        W44081  13.185  16.164   4.821
71756W        W44082   6.317  14.826  12.383
71757W        W44083  20.035  42.842  13.061
71758W        W44084  33.608  39.412  13.931
71759W        W44085   5.224   7.203   3.155
71760W        W44086  31.427  10.815  11.522
71761W        W44087  39.939   4.206  14.777
71762W        W44088  24.641  30.567   1.267
71763W        W44089  38.385  15.674  13.925
71764W        W44090  30.908   0.340  14.840
71765W        W44091  27.478   4.786   0.377
71766W        W44092  44.323  30.983   0.858
71767W        W44093  27.996  10.232  14.025
71768W        W44094   4.764  13.266  13.892
71769W        W44095  34.903  44.780  13.523
71770W        W44096  35.445  32.088  14.323
71771W        W44097  40.369  25.703  11.511
71772W        W44098  23.716  28.468   0.336
71773W        W44099  34.452   6.726   1.274
71774W        W44100  23.580  17.079  13.007
71775W        W44101  40.518   3.355  13.855
71776W        W44102  29.503  21.068  13.918
71777W        W44103  16.742  37.002   3.363
71778W        W44104   8.321  25.518   2.229
71779W        W44105  32.921  22.644  12.571
71780W        W44106  34.076   3.383   1.809
71781W        W44107  15.663  26.025   4.785
71782W        W44108   1.803  20.240  13.873
71783W        W44109  36.864  36.845   3.170
71784W        W44110   3.875   8.339   3.210
71785W        W44111  15.303  41.532   2.690
71786W        W44112  44.976  40.041   0.471
71787W        W44113   1.456  44.412   3.659
71788W        W44114  22.711  43.475   4.598
71789W        W44115  13.625  14.735   0.866
71790W        W44116  21.631   9.362  12.351
71791W        W44117  33.990  15.088   0.342
71792W        W44118   5.205  24.652  10.433
71793W        W44119  27.970  21.533  13.524
71794W        W44120   1.368  20.555  14.483
71795W        W44121  24.616  21.056  13.398
71796W        W44122   9.660  15.579   0.417
71797W        W44123   0.874  26.992   1.813
71798W        W44124  25.194  41.000  10.594
71799W        W44125   9.793  30.913  13.794
71800W        W44126  19.762  11.707  12.351
71801W        W44127  32.031  39.409  13.542
71802W        W44128  12.781   1.381  14.300
71803W        W44129   6.304  40.982  10.997
71804W        W44130  33.427  11.641  12.864
71805W        W44131  43.370  11.214  13.977
71806W        W44132  19.098  29.642  13.014
71807W        W44133   0.466  43.796   0.407
71808W        W44134   5.283  28.457  12.380
71809W        W44135   8.350  17.668  11.041
71810W        W44136  23.559  32.513   0.931
71811W        W44137  28.464  26.623  11.522
71812W        W44138  19.143  21.144  10.499
71813W        W44139   8.264  17.674   3.185
71814W        W44140   2.952  13.714   3.705
71815W        W44141  24.095  44.356   2.274
71816W        W44142  43.357   6.697   4.733
71817W        W44143  25.642   3.814  10.501
71818W        W44144   1.940  15.747  10.967
71819W        W44145  27.023  22.199  11.943
71820W        W44146  37.047  44.887  12.418
71821W        W44147  23.034  28.001  13.867
71822W        W44148  15.726  43.888   3.677
71823W        W44149  41.480   3.774  13.459
71824W        W44150  32.887   5.876  11.097
71825W        W44151  24.704  36.369   0.881
71826W        W44152  30.480  12.620   3.753
71827W        W44153   6.400   5.765  12.992
71828W        W44154  37.528  32.075  11.381
71829W        W44155   7.188   4.366  14.354
71830W        W44156  38.989  20.620   3.319
71831W        W44157  32.455  35.944  11.611
71832W        W44158  24.110  27.685  11.912
71833W        W44159  40.952  22.745  13.041
71834W        W44160  15.226  42.970  13.902
71835W        W44161  13.307  44.394  14.276
71836W        W44162  40.957   4.866   0.429
71837W        W44163  19.182  24.568   0.875
71838W        W44164  42.921   6.203   0.462
71839W        W44165  38.062   6.340   0.937
71840W        W44166   7.302  40.311  12.504
71841W        W44167   7.747   0.392  10.989
71842W        W44168   9.836   6.222   2.220
71843W        W44169  21.605  32.043  13.825
71844W        W44170  24.205  42.953  10.507
71845W        W44171  31.452  25.498  11.943
71846W        W44172  13.145  24.501   5.707
71847W        W44173  17.086  12.692  10.455
71848W        W44174  44.363  41.505   5.283
71849W        W44175  33.924  10.678   1.718
71850W        W44176  36.441  40.411   3.696
71851W        W44177  36.931  24.691  12.444
71852W        W44178  17.177  41.464   1.806
71853W        W44179  15.192  43.484  11.415
71854W        W44180  37.074  39.054   2.863
71855W        W44181   1.798  18.605  12.358
71856W        W44182  14.118  28.463   2.672
71857W        W44183  17.064  22.064   1.250
71858W        W44184  24.716  20.166  11.913
71859W        W44185  27.601  21.249  13.794
71860W        W44186   3.282  37.018  13.414
71861W        W44187  35.417   0.379   1.412
71862W        W44188  34.961  15.801  11.451
71863W        W44189  27.177   1.976  13.810
71864W        W44190  28.593   9.824   3.644
71865W        W44191  35.970   3.924   2.784
71866W        W44192  33.619  39.350  13.532
71867W        W44193  10.701   1.889  14.835
71868W        W44194  20.086  23.165  14.824
71869W        W44195  26.102  44.476   3.811
71870W        W44196  44.406  30.921  11.015
71871W        W44197  18.295   1.331   3.345
71872W        W44198   2.769  44.316   2.719
71873W        W44199  38.382  39.453  11.596
71874W        W44200  23.176  11.647   0.421
71875W        W44201  13.766  14.331  10.537
71876W        W44202  11.716  13.142  10.540
71877W        W44203  34.956  43.010   3.360
71878W        W44204   3.290   8.383   4.280
71879W        W44205  39.030  38.833  14.385
71880W        W44206  11.759  40.330   1.240
71881W        W44207  37.413  29.494  11.119
71882W        W44208  39.003  21.514   4.784
71883W        W44209  26.490   7.742  14.471
71884W        W44210  31.591  25.474   1.798
71885W        W44211   1.477   9.250  12.398
71886W        W44212   8.278  11.244  12.414
71887W        W44213  25.165  37.832   3.259
71888W        W44214  44.450  24.662   0.387
71889W        W44215   8.347  23.152   0.824
71890W        W44216  29.617  31.010   4.163
71891W        W44217  32.138  25.195   3.763
71892W        W44218  10.745  39.980   1.731
71893W        W44219  17.193   3.326   0.861
71894W        W44220  41.380   2.248  12.517
71895W        W44221  22.622  36.528   3.736
71896W        W44222   8.209  25.214   0.912
71897W        W44223  30.127  20.073  11.067
71898W        W44224  42.437  15.706   1.294
71899W        W44225   9.161  22.101   2.316
71900W        W44226   0.921  36.903  13.062
71901W        W44227  21.646  27.958   1.340
71902W        W44228  17.799  29.154   0.264
71903W        W44229  17.796  38.003   2.184
71904W        W44230  15.604   6.782  14.275
71905W        W44231  11.183   1.420   3.211
71906W        W44232  38.409  39.826  14.491
71907W        W44233  37.369  27.479  10.440
71908W        W44234  44.301  27.670  10.076
71909W        W44235   3.881  35.938  14.372
71910W        W44236  36.479  24.603   3.851
71911W        W44237   3.419   1.748   4.700
71912W        W44238  11.738  27.098   4.633
71913W        W44239  15.188  30.511  13.001
71914W        W44240  36.887  35.593   4.281
71915W        W44241  11.163  40.851  12.938
71916W        W44242  17.219  25.180   1.329
71917W        W44243  40.510   5.813   2.811
71918W        W44244  29.668  44.485   5.139
71919W        W44245  40.949  11.290  10.489
71920W        W44246   1.740  39.527   4.155
71921W        W44247  40.335   7.849  14.018
71922W        W44248  11.318  32.896   0.358
71923W        W44249  12.302   5.254  11.972
71924W        W44250  28.615  15.626   4.161
71925W        W44251  13.726  40.337   2.736
71926W        W44252   3.840  19.280  11.014
71927W        W44253   1.945   7.799  14.916
71928W        W44254  43.487  10.849   0.858
71929W        W44255  13.798   5.737  14.889
71930W        W44256  28.512  36.577   4.694
71931W        W44257  27.018  16.650  14.355
71932W        W44258   3.313  15.794   4.668
71933W        W44259  29.162  23.656   1.392
71934W        W44260  42.291  31.906   3.250
71935W        W44261  20.768  31.986  11.604
71936W        W44262   9.736  33.024   4.647
71937W        W44263  43.895   8.719   1.331
71938W        W44264  28.128  20.553  12.407
71939W        W44265  11.690   1.756  14.469
71940W        W44266   3.400  34.435  10.421
71941W        W44267  18.057  36.437  10.976
71942W        W44268  43.880  23.680   3.236
71943W        W44269  36.978   4.313  13.944
71944W        W44270  41.790  37.393   4.141
71945W        W44271  18.161  44.402   0.323
71946W        W44272   9.839  37.539  10.927
71947W        W44273  26.081  25.006  13.324
71948W        W44274  20.180  41.932  13.977
71949W        W44275   3.244  34.875  13.859
71950W        W44276  31.538  37.342   2.776
71951W        W44277   8.754  29.062  13.983
71952W        W44278   1.888  43.805   3.356
71953W        W44279   5.803  41.036  11.082
71954W        W44280   8.363  37.421  14.939
71955W        W44281   4.409  32.952   4.769
71956W        W44282  44.370  15.184  13.438
71957W        W44283  41.043   7.210   2.838
71958W        W44284  17.654  31.632   0.400
71959W        W44285  27.026   1.738   2.801
71960W        W44286   3.235  26.625   2.287
71961W        W44287  34.423  19.689   2.321
71962W        W44288  11.753   2.767  10.601
71963W        W44289  29.522  28.975   3.697
71964W        W44290  37.865   3.899   0.426
71965W        W44291  42.469   1.862   4.624
71966W        W44292  11.743  39.513  10.571
71967W        W44293  33.056  34.527  12.893
71968W        W44294  31.647   8.780  12.995
71969W        W44295  44.774  14.801   0.375
71970W        W44296  10.754   5.328   4.148
71971W        W44297  17.733  30.576   0.429
71972W        W44298   6.258  15.622   2.684
71973W        W44299  39.001  36.446  12.555
71974W        W44300  23.657  18.118  13.032
71975W        W44301  38.063   3.902  14.332
71976W        W44302  42.826  35.856   0.802
71977W        W44303  25.174  19.751  12.516
71978W        W44304  38.067   0.772  10.014
71979W        W44305  43.850  14.271  10.481
71980W        W44306  21.247  42.452  13.376
71981W        W44307  43.506  25.538   2.191
71982W        W44308  29.479   9.682  11.380
71983W        W44309  41.475  37.529   0.443
71984W        W44310  10.145  43.994  10.540
71985W        W44311  39.923  17.279  12.483
71986W        W44312   5.328  28.675  14.421
71987W        W44313  11.714  40.493   4.657
71988W        W44314  16.194  11.718  13.846
71989W        W44315  36.354  41.400   5.305
71990W        W44316   5.410  14.289   4.162
71991W        W44317  33.988  32.912   1.400
71992W        W44318  36.016  10.142   2.854
71993W        W44319   0.777  12.691   4.785
71994W        W44320  16.143  36.574  10.509
71995W        W44321  15.206  33.909   4.255
71996W        W44322  24.664  37.931   4.736
71997W        W44323  43.296  14.106  10.435
71998W        W44324   7.266  43.844  10.452
71999W        W44325  24.116  22.072  11.579
72000W        W44326  41.480   9.329  12.998
72001W        W44327  42.520  23.069  10.569
72002W        W44328  32.543  10.377  14.032
72003W        W44329  28.661  40.014  12.522
72004W        W44330   0.973  10.781  14.336
72005W        W44331   5.886  32.481   1.704
72006W        W44332  25.688   5.421   2.842
72007W        W44333  13.131  43.344  12.982
72008W        W44334  29.009  33.091   2.339
72009W        W44335  37.353  11.770  14.885
72010W        W44336  12.296  20.714  12.344
72011W        W44337  16.746   9.660  11.020
72012W        W44338  26.955  43.430  12.514
72013W        W44339  44.402   8.169   4.760
72014W        W44340  10.296  23.545   0.396
72015W        W44341  18.250  24.120  14.974
72016W        W44342   3.280  26.469   4.614
72017W        W44343  19.630   3.823   2.693
72018W        W44344  25.160  11.167   3.728
72019W        W44345  44.439  23.672   0.348
72020W        W44346  17.722   7.322  12.078
72021W        W44347  39.392  12.613   2.695
72022W        W44348  16.799  42.969  13.924
72023W        W44349  12.254  23.180  10.495
72024W        W44350   5.272  25.664  13.047
72025W        W44351  36.396  16.659   2.341
72026W        W44352  27.682   6.266  10.964
72027W        W44353  10.271  33.107   4.807
72028W        W44354  13.233  43.293   0.861
72029W        W44355  21.025  16.805  12.383
72030W        W44356  42.975  42.363   1.731
72031W        W44357  41.520  13.617   3.737
72032W        W44358   3.771  16.265  13.010
72033W        W44359  38.473   7.752  10.424
72034W        W44360  41.947   2.820  11.500
72035W        W44361  13.786   2.824  14.948
72036W        W44362  31.060   0.756   2.354
72037W        W44363  16.211  32.010   5.290
72038W        W44364  13.733  15.657   0.809
72039W        W44365  11.759  16.629   2.898
72040W        W44366  37.427   8.404  11.928
72041W        W44367  15.617   0.752  12.342
72042W        W44368  13.127  42.879   1.255
72043W        W44369  29.105   2.799   3.807
72044W        W44370  19.780  43.346   1.328
72045W        W44371   7.316  22.996   1.902
72046W        W44372   2.967   4.410  12.436
72047W        W44373   7.872   6.852   4.316
72048W        W44374   9.758  15.721   4.794
72049W        W44375  12.256  43.390   0.430
72050W        W44376  38.506  28.041  14.860
72051W        W44377  33.529  23.220   3.386
72052W        W44378  13.127  12.253   2.306
72053W        W44379  13.163  41.019  10.961
72054W        W44380   4.774  13.216  12.342
72055W        W44381   2.414  27.593   0.443
72056W        W44382  39.865  36.934  13.031
72057W        W44383  17.159  27.042  11.039
72058W        W44384  41.830  32.607   4.780
72059W        W44385  34.556   6.714   3.636
72060W        W44386  15.615  40.960  11.466
72061W        W44387   0.299  27.132  13.818
72062W        W44388  10.232  37.417  10.581
72063W        W44389  18.248  37.506  12.847
72064W        W44390  14.283  27.056  13.873
72065W        W44391  42.896  15.236  14.817
72066W        W44392  41.016  32.021   4.668
72067W        W44393  11.332  29.477  12.442
72068W        W44394  30.430  15.716   0.904
72069W        W44395  28.635  14.162   4.255
72070W        W44396  27.481  35.544  11.032
72071W        W44397  27.503  39.347  12.847
72072W        W44398   5.219  27.017  13.880
72073W        W44399  32.902  12.704  12.546
72074W        W44400  20.066   4.219  13.935
72075W        W44401  26.024  44.822   0.443
72076W        W44402  17.069  13.685   1.417
72077W        W44403   5.697  20.589  11.387
72078W        W44404   2.379  26.569  12.498
72079W        W44405  12.695  25.483   4.799
72080W        W44406  25.629  10.279  10.514
72081W        W44407  32.959  11.791   3.264
72082W        W44408  32.926  41.967  10.535
72083W        W44409   9.293  27.196   0.774
72084W        W44410  23.591  26.504   2.338
72085W        W44411  13.242  10.159  14.484
72086W        W44412  21.145  23.736   2.417
72087W        W44413   0.396  17.776   2.338
72088W        W44414   2.331   6.754   3.660
72089W        W44415  24.030  28.531   0.794
72090W        W44416  42.454  12.811  13.419
72091W        W44417  34.463  41.813   0.789
72092W        W44418  35.364  28.039  12.357
72093W        W44419  33.391  36.414  12.381
72094W        W44420   8.161   2.362  11.894
72095W        W44421   1.258  24.711   3.344
72096W        W44422  33.125   1.431   2.352
72097W        W44423  26.638  40.038   2.322
72098W        W44424  13.772  37.898   0.746
72099W        W44425  19.747  36.922  14.913
72100W        W44426  14.787  33.010  14.488
72101W        W44427  34.039  40.043   3.785
72102W        W44428  43.402   3.779  11.020
72103W        W44429  32.086  10.325  11.399
72104W        W44430  37.468  11.328  14.434
72105W        W44431  34.939   2.361  11.491
72106W        W44432  39.821  37.531   1.212
72107W        W44433  11.636  39.860   2.799
72108W        W44434   0.471  32.899  14.823
72109W        W44435  41.969  36.553   4.786
72110W        W44436   2.750  44.280  12.000
72111W        W44437   1.745   5.398   3.300
72112W        W44438  30.625   9.358   0.245
72113W        W44439  11.278  43.923   4.140
72114W        W44440  13.272   4.212  12.968
72115W        W44441  33.131  33.463  12.520
72116W        W44442  30.479   8.900  10.923
72117W        W44443  15.137  44.306   2.297
72118W        W44444  10.152   7.335   2.340
72119W        W44445  39.411  25.103   1.216
72120W        W44446   8.788  36.021  14.992
72121W        W44447  15.146   6.767  13.891
72122W        W44448  39.921   1.295  14.997
72123W        W44449   7.325  24.498  11.547
72124W        W44450  23.030  20.537  13.030
72125W        W44451  42.016  36.032  11.925
72126W        W44452  19.211  43.450   1.801
72127W        W44453  34.079  22.569   3.196
72128W        W44454   0.883   7.682  13.457
72129W        W44455  14.769   2.794  14.401
72130W        W44456  19.572  22.066  13.809
72131W        W44457  22.060  29.446  13.971
72132W        W44458  12.767  18.743  12.036
72133W        W44459  39.972  27.107  13.017
72134W        W44460  28.030  26.151   1.439
72135W        W44461  40.022  30.962  13.833
72136W        W44462  34.580  31.930   4.628
72137W        W44463  11.819  34.464   4.132
72138W        W44464  14.793  36.874   3.364
72139W        W44465   3.851   8.400   4.198
72140W        W44466  22.500  35.945   1.264
72141W        W44467   2.454  12.619  10.137
72142W        W44468   4.362  43.372  13.464
72143W        W44469  15.759   5.918  14.783
72144W        W44470   3.763   3.441   0.371
72145W        W44471  29.102  37.072  12.548
72146W        W44472  15.789  11.317  11.964
72147W        W44473   2.900  30.554   3.708
72148W        W44474  25.526  37.543   2.729
72149W        W44475  34.011  29.967  13.900
72150W        W44476   0.302   8.723   2.314
72151W        W44477  16.089   7.365  11.906
72152W        W44478  23.059  16.620  12.894
72153W        W44479  44.896  11.159  11.394
72154W        W44480  21.748  25.547  10.976
72155W        W44481   3.395   2.418   2.783
72156W        W44482  40.525  39.327   2.674
72157W        W44483  18.294  11.762   1.765
72158W        W44484  27.983   8.692   2.243
72159W        W44485  28.612  15.181   1.717
72160W        W44486  22.117  44.317  10.417
72161W        W44487  13.698  36.971   5.225
72162W        W44488   5.889   8.678  12.009
72163W        W44489   5.239  39.433   2.672
72164W        W44490  24.974  31.455  13.932
72165W        W44491   6.394  23.122   1.330
72166W        W44492  17.174   7.249  14.774
72167W        W44493  21.237  19.153  13.021
72168W        W44494  18.272  37.370   4.294
72169W        W44495  35.579  17.669  11.595
72170W        W44496   4.318  33.415   4.676
72171W        W44497  39.991   3.757   0.370
72172W        W44498   7.332  44.446   1.324
72173W        W44499  33.544   4.358   4.799
72174W        W44500  16.165  20.623   2.669
72175W        W44501  18.066   7.745  13.028
72176W        W44502  42.462  12.662   0.257
72177W        W44503   7.246  26.026  13.849
72178W        W44504  11.805   4.446   1.710
72179W        W44505  23.008  34.371   4.622
72180W        W44506  33.500  18.630   3.227
72181W        W44507  41.408  26.033   1.236
72182W        W44508  13.193  27.109   0.391
72183W        W44509  28.558  43.370   2.865
72184W        W44510  20.547  43.009  12.040
72185W        W44511   9.737  38.058  12.083
72186W        W44512  22.711  42.322  10.926
72187W        W44513  24.153  26.637   4.249
72188W        W44514  40.390   8.358   3.172
72189W        W44515  30.540  15.584   0.301
72190W        W44516  26.686  19.548  13.912
72191W        W44517  24.973  21.139   0.731
72192W        W44518  44.363  26.002   9.978
72193W        W44519   3.738  11.691  11.861
72194W        W44520  18.624  40.513   4.786
72195W        W44521  34.525  31.495   2.728
72196W        W44522  30.606  31.501   0.295
72197W        W44523  22.179  41.344  13.339
72198W        W44524  37.036  12.762  11.609
72199W        W44525  13.151  26.121   4.313
72200W        W44526  33.960  42.787  13.815
72201W        W44527  39.856  18.124   2.703
72202W        W44528  42.366  19.086   1.934
72203W        W44529  33.414  17.664  14.382
72204W        W44530  14.713   5.692  14.780
72205W        W44531  35.364  14.170   3.209
72206W        W44532   9.728  33.973  14.947
72207W        W44533  25.607  20.212  13.021
72208W        W44534  19.167  29.011  12.438
72209W        W44535  44.959   3.254  10.644
72210W        W44536  42.960  37.058  13.813
72211W        W44537  13.844  20.765   0.245
72212W        W44538  29.663  23.532   1.812
72213W        W44539   0.978  30.606  11.882
72214W        W44540   3.416  24.586  13.055
72215W        W44541  43.829  34.588  11.520
72216W        W44542  27.461  11.838  13.390
72217W        W44543  35.961  11.166   1.721
72218W        W44544  17.723  42.970  14.322
72219W        W44545  18.215   0.327   4.698
72220W        W44546  12.161  13.282   3.362
72221W        W44547  33.116  20.036   2.851
72222W        W44548  21.255  44.306  13.962
72223W        W44549  32.034  33.476  11.028
72224W        W44550  30.093  43.945   4.324
72225W        W44551  19.569  27.165  11.561
72226W        W44552  42.515  43.869  11.609
72227W        W44553   8.381  42.908  12.454
72228W        W44554   7.844  25.493   3.324
72229W        W44555  42.793  16.316   1.317
72230W        W44556  24.101  12.685   0.767
72231W        W44557  41.520   6.869  11.102
72232W        W44558  10.327   2.848  13.930
72233W        W44559   4.399  22.595  10.102
72234W        W44560  31.495  25.091   0.351
72235W        W44561  13.179  39.973  10.542
72236W        W44562   0.288   2.291   0.864
72237W        W44563  39.050  38.493   1.853
72238W        W44564  27.674  11.824   0.897
72239W        W44565  44.889  28.121  10.905
72240W        W44566  33.613  10.797  11.855
72241W        W44567  18.118   0.938  13.886
72242W        W44568  26.200   8.659   3.832
72243W        W44569  27.088   8.764   3.804
72244W        W44570  12.254  10.268   4.281
72245W        W44571   6.351   6.421  12.040
72246W        W44572  42.334  37.882  12.496
72247W        W44573   8.771  33.547  13.493
72248W        W44574  23.994   3.869  10.615
72249W        W44575   7.709  25.651  14.853
72250W        W44576  16.252  13.709   0.748
72251W        W44577  26.596   7.750  10.985
72252W        W44578   7.717  20.031   1.219
72253W        W44579   1.820   1.761   2.244
72254W        W44580   2.939  26.655   5.087
72255W        W44581  38.054   7.265   4.260
72256W        W44582  36.525   1.317   1.915
72257W        W44583  31.453  11.715   0.818
72258W        W44584   1.883  34.612   4.183
72259W        W44585  14.129  35.544  12.966
72260W        W44586  18.701  34.015   2.181
72261W        W44587  22.129  18.631   4.804
72262W        W44588  30.493  33.410   0.363
72263W        W44589   4.403  27.985   0.808
72264W        W44590  42.855  15.800   0.762
72265W        W44591  18.574  27.509   3.288
72266W        W44592  11.809  24.220  14.784
72267W        W44593  44.442  30.598   0.439
72268W        W44594  21.737  23.659  14.869
72269W        W44595  17.294  25.018   5.232
72270W        W44596   8.274  11.226   1.776
72271W        W44597  14.255  13.639   0.338
72272W        W44598  31.151  12.204  12.890
72273W        W44599  18.139  14.763  11.455
72274W        W44600  15.643   1.831  13.034
72275W        W44601  42.330   2.957   1.823
72276W        W44602  16.141  22.710   0.908
72277W        W44603   4.319  13.169  11.557
72278W        W44604   0.250  39.924   2.901
72279W        W44605   7.232  27.014   0.430
72280W        W44606   8.204  30.547   1.398
72281W        W44607   8.827  34.484   4.707
72282W        W44608  17.103  39.320  12.029
72283W        W44609  38.892   8.290  10.496
72284W        W44610  33.458  23.223   1.921
72285W        W44611  40.848   3.456   3.357
72286W        W44612  42.008   8.697   2.696
72287W        W44613  24.480  10.368   3.701
72288W        W44614  36.068   7.255  12.885
72289W        W44615  16.581  22.031  11.944
72290W        W44616  39.930   3.817   1.873
72291W        W44617  25.155  39.497  12.891
72292W        W44618  26.137   9.314   3.306
72293W        W44619  27.647  38.472  11.884
72294W        W44620  21.619   3.790   3.671
72295W        W44621   0.855  13.345   3.776
72296W        W44622  14.611   7.337   1.779
72297W        W44623  43.368   5.427   1.317
72298W        W44624  36.480   7.797   1.314
72299W        W44625  28.505   4.294   2.697
72300W        W44626  44.392  14.281   4.177
72301W        W44627  19.285  11.732  11.452
72302W        W44628  32.624  44.805  14.442
72303W        W44629  23.120  43.455   1.896
72304W        W44630   5.827  40.917   0.857
72305W        W44631  13.733  11.349   3.232
72306W        W44632   1.329  41.876  13.528
72307W        W44633  28.041  34.549   2.754
72308W        W44634  28.617  13.237  14.870
72309W        W44635  20.219  15.219   0.847
72310W        W44636  13.681  20.687  14.828
72311W        W44637  36.994  32.127  12.356
72312W        W44638  18.732  27.979  10.948
72313W        W44639  18.211  17.756  11.954
72314W        W44640   6.229  19.061   3.182
72315W        W44641   5.267   3.793  11.542
72316W        W44642   9.278   0.301  10.949
72317W        W44643  16.800  28.625   2.384
72318W        W44644   5.439  44.944  14.993
72319W        W44645  34.070  33.126  10.050
72320W        W44646  11.660  28.964   3.375
72321W        W44647   9.861  24.059  13.317
72322W        W44648   2.929  13.752   4.201
72323W        W44649   8.262  26.668  13.843
72324W        W44650   0.466  10.788  13.867
72325W        W44651  19.706  38.477   0.835
72326W        W44652  34.092  22.168  12.439
72327W        W44653  28.996  18.644  12.836
72328W        W44654  16.658  43.883   0.866
72329W        W44655   0.370  30.611  12.836
72330W        W44656  17.256   9.354  12.359
72331W        W44657  33.079  32.590  14.310
72332W        W44658  29.515  40.438   3.775
72333W        W44659  40.842  39.020   4.684
72334W        W44660  12.141  14.163  12.352
72335W        W44661  31.972  11.664  13.526
72336W        W44662   0.432  17.069   1.228
72337W        W44663   8.655  20.046   1.344
72338W        W44664  41.818  27.118  11.422
72339W        W44665   6.713  17.092  14.391
72340W        W44666  33.550  37.370   2.257
72341W        W44667  20.154  20.122   1.413
72342W        W44668  15.724  10.854   1.264
72343W        W44669  17.064  31.491  13.828
72344W        W44670  15.790  40.800   0.269
72345W        W44671  23.723  24.041   4.167
72346W        W44672   3.901   4.822  12.096
72347W        W44673   0.416  15.118   2.814
72348W        W44674  11.623  26.153  10.900
72349W        W44675  36.549  23.730  10.960
72350W        W44676  29.585  23.090  14.021
72351W        W44677  28.497  28.172   1.304
72352W        W44678  43.842   7.389  12.913
72353W        W44679  41.003  14.229  13.052
72354W        W44680  13.167  33.131   1.814
72355W        W44681  19.187  40.908  12.449
72356W        W44682  20.222  12.643  12.538
72357W        W44683  44.457  23.050  14.943
72358W        W44684  43.491   1.399   2.217
72359W        W44685  40.304  35.885  10.968
72360W        W44686  23.504  29.523   0.277
72361W        W44687  28.046   9.278   3.801
72362W        W44688  19.239  17.187  13.426
72363W        W44689  37.478  35.935  10.932
72364W        W44690  12.348  29.930  12.446
72365W        W44691  33.499  12.242  13.420
72366W        W44692  15.715  35.871  11.452
72367W        W44693  36.081  19.166  10.963
72368W        W44694  16.205  38.884   3.313
72369W        W44695   2.297  22.131  14.445
72370W        W44696  11.785  15.279   0.754
72371W        W44697  20.707  36.421  14.287
72372W        W44698  18.122  44.994  11.452
72373W        W44699  25.534  24.610  10.562
72374W        W44700  21.093   9.715   1.342
72375W        W44701  29.527  32.528  10.446
72376W        W44702  21.589  28.629   2.259
72377W        W44703  38.466   7.308  13.027
72378W        W44704  31.594  27.184   3.223
72379W        W44705  26.120  40.982  12.023
72380W        W44706   1.377  41.024   2.402
72381W        W44707  16.117  27.587   0.863
72382W        W44708  40.979  23.115   4.205
72383W        W44709  24.130   7.231   3.242
72384W        W44710  21.222  30.429   4.686
72385W        W44711  43.454  33.553  14.834
72386W        W44712  15.208   3.385  14.412
72387W        W44713  36.577   6.320  14.284
72388W        W44714  44.490   5.758   0.860
72389W        W44715  38.870  41.984  14.773
72390W        W44716  11.816  44.356  10.607
72391W        W44717  25.092  34.609  11.881
72392W        W44718  42.998  36.926   4.724
72393W        W44719   2.804  17.146  14.835
72394W        W44720  30.984   0.969   0.920
72395W        W44721  29.474  37.526   4.740
72396W        W44722  13.724  30.082  13.362
72397W        W44723  13.822  36.523   9.947
72398W        W44724  20.759  24.697  11.473
72399W        W44725  40.950  29.668   3.694
72400W        W44726  37.907  15.247   3.834
72401W        W44727  28.931   8.356  13.927
72402W        W44728  42.794  35.582   2.768
72403W        W44729  27.001  29.951  11.398
72404W        W44730  37.907  18.233  11.523
72405W        W44731  32.981  33.442  12.093
72406W        W44732  12.282   8.733   1.716
72407W        W44733  40.451  44.287   0.282
72408W        W44734  36.933  27.516  11.944
72409W        W44735  34.884  37.544  11.608
72410W        W44736  39.479   0.845  13.914
72411W        W44737   1.849  43.791   2.313
72412W        W44738  39.512  28.586   0.884
72413W        W44739  22.587  35.972  11.432
72414W        W44740  32.463   4.323  14.917
72415W        W44741  40.840   9.157  10.897
72416W        W44742  41.367   4.752   2.768
72417W        W44743  29.007  24.556  14.913
72418W        W44744  30.461  15.591  11.525
72419W        W44745  40.351  36.384   0.323
72420W        W44746  43.377  14.715  11.422
72421W        W44747   5.907   1.847   3.849
72422W        W44748  37.441  32.888   3.281
72423W        W44749  37.065   8.792  10.028
72424W        W44750  14.833  32.933  10.974
72425W        W44751  33.056  32.892  10.979
72426W        W44752  27.018  37.406   4.265
72427W        W44753   2.388  18.114   0.880
72428W        W44754  28.177  17.671  13.846
72429W        W44755  10.691  39.010   1.707
72430W        W44756  23.524  24.104   3.271
72431W        W44757  16.110  43.888  12.530
72432W        W44758  16.624   3.856   1.441
72433W        W44759  19.248  30.980  14.501
72434W        W44760  40.822   8.240  12.988
72435W        W44761   4.885  11.184  12.382
72436W        W44762  38.055  21.653  13.860
72437W        W44763  17.748  26.001  13.966
72438W        W44764  15.167  10.649  11.440
72439W        W44765  10.639  40.864   3.792
72440W        W44766  26.688  43.503  13.794
72441W        W44767  16.592  35.865   0.894
72442W        W44768  14.816   7.354   2.380
72443W        W44769  21.129  42.463   3.155
72444W        W44770  37.432  44.860  12.508
72445W        W44771  29.133  21.590   3.179
72446W        W44772   9.868  10.876   1.311
72447W        W44773  40.010  15.167   4.639
72448W        W44774  19.057  26.653  11.549
72449W        W44775   5.802   5.700  10.542
72450W        W44776   8.890  27.022   2.893
72451W        W44777  40.989  30.535   3.865
72452W        W44778  34.482  23.203  14.277
72453W        W44779  16.671  25.701  13.969
72454W        W44780  32.591   6.236  13.826
72455W        W44781  27.631  37.007   1.734
72456W        W44782  13.713  16.282   1.885
72457W        W44783   8.673  39.347  12.407
72458W        W44784  11.847   8.686  10.967
72459W        W44785   2.468   8.860  14.411
72460W        W44786  37.460   8.297   2.312
72461W        W44787  11.180   4.877  14.913
72462W        W44788  29.511  21.678   4.717
72463W        W44789  27.961   8.240   1.793
72464W        W44790   9.302  34.110  14.026
72465W        W44791  23.214  33.408  10.599
72466W        W44792  42.347  10.738  12.832
72467W        W44793  26.599  41.537   1.802
72468W        W44794  17.675  22.585   4.301
72469W        W44795  15.709  18.754   3.653
72470W        W44796  41.519  16.183   1.753
72471W        W44797  24.700   6.836   2.332
72472W        W44798  18.700   0.455  14.449
72473W        W44799  43.943   4.254  13.465
72474W        W44800  19.141  24.541  11.412
72475W        W44801  27.665  23.672  13.013
72476W        W44802  20.258  38.961   4.674
72477W        W44803  21.702  40.899   3.362
72478W        W44804  14.668  27.620   4.240
72479W        W44805  27.490   8.829  14.999
72480W        W44806   6.193   1.419  11.041
72481W        W44807  37.559   5.347  13.976
72482W        W44808  32.521   2.845   0.917
72483W        W44809   2.952  11.330   3.708
72484W        W44810  41.313   9.716  14.998
72485W        W44811  28.510  42.337   0.397
72486W        W44812  20.650  41.326   1.863
72487W        W44813  30.947  33.583   4.223
72488W        W44814  26.658  24.715   4.319
72489W        W44815  22.553  26.976  13.436
72490W        W44816   7.779  25.980   2.289
72491W        W44817   5.800  28.553   3.684
72492W        W44818  14.792  10.711  12.892
72493W        W44819  35.075  27.467   4.822
72494W        W44820  16.626  25.073  13.322
72495W        W44821  33.381  35.566   4.175
72496W        W44822  22.656  42.799  13.803
72497W        W44823  38.983  15.204  14.799
72498W        W44824  35.993  27.604   4.292
72499W        W44825  31.453  36.546   0.310
72500W        W44826  26.195  35.897  10.482
72501W        W44827  33.954   6.426  13.342
72502W        W44828  25.656  35.914  11.392
72503W        W44829  28.512  27.080  10.927
72504W        W44830  24.179  42.923   3.254
72505W        W44831  29.001  27.052   2.901
72506W        W44832  34.378  12.770  11.584
72507W        W44833  35.444  36.902  12.450
72508W        W44834   6.801  16.584  12.566
72509W        W44835  29.047  32.986   4.779
72510W        W44836  44.312   4.911   3.227
72511W        W44837  19.041   3.393  11.439
72512W        W44838  10.270  17.209   2.307
72513W        W44839   0.399   1.796   2.760
72514W        W44840  19.643   9.279  11.577
72515W        W44841  12.840  24.639  12.845
72516W        W44842   3.833  36.046   1.348
72517W        W44843  35.553  19.749   4.807
72518W        W44844   2.318  34.585   2.724
72519W        W44845   8.887  17.726   1.934
72520W        W44846  34.527   0.482   2.268
72521W        W44847   5.193  23.181   3.192
72522W        W44848  14.186  26.144  10.634
72523W        W44849  35.950  31.942  12.984
72524W        W44850  20.642  18.720  11.509
72525W        W44851  27.471  26.999  12.962
72526W        W44852  18.070  16.628   3.649
72527W        W44853  37.087  12.208   1.867
72528W        W44854  31.969   8.682  12.566
72529W        W44855   2.247  31.037   1.704
72530W        W44856  33.059   8.778  13.908
72531W        W44857  33.521  39.440   1.390
72532W        W44858  37.571  36.532   3.786
72533W        W44859  20.718   7.819  13.449
72534W        W44860   1.248  15.733  10.963
72535W        W44861  15.778  40.481   0.402
72536W        W44862   2.347  21.120  12.977
72537W        W44863  36.043  26.030  11.038
72538W        W44864  21.114  20.242   1.226
72539W        W44865  37.838  43.769  10.462
72540W        W44866   5.693  22.642   0.336
72541W        W44867   2.464  23.632   2.281
72542W        W44868  17.084  40.967  14.486
72543W        W44869   7.186  21.603  11.981
72544W        W44870  14.728  39.006   4.761
72545W        W44871  12.264  23.631   4.726
72546W        W44872   1.255  31.976   1.875
72547W        W44873  23.593  37.345   2.308
72548W        W44874  10.731  26.179  10.899
72549W        W44875  24.016  37.469  10.476
72550W        W44876  12.262  44.343  13.318
72551W        W44877   6.423  21.681   3.307
72552W        W44878  25.988  37.362   1.210
72553W        W44879  34.087  12.827  14.455
72554W        W44880  36.471  39.417  12.052
72555W        W44881  34.475   0.813   1.715
72556W        W44882   8.781  44.444   2.884
72557W        W44883  20.748  27.075  11.053
72558W        W44884  13.238  18.745   1.223
72559W        W44885  36.851   9.761   3.644
72560W        W44886  44.491   0.453   3.762
72561W        W44887   4.358  19.189  14.447
72562W        W44888  44.379   7.378  13.917
72563W        W44889  10.202  18.710  11.007
72564W        W44890  22.676  12.268  12.964
72565W        W44891  23.169  44.975   0.281
72566W        W44892  22.138  33.054   0.741
72567W        W44893  29.104  15.291  11.378
72568W        W44894  32.932   8.294   3.779
72569W        W44895  43.773  28.506  11.047
72570W        W44896  22.689  30.482  10.627
72571W        W44897   8.196   5.797  14.391
72572W        W44898  28.102  15.661  14.869
72573W        W44899  25.555  12.230   1.224
72574W        W44900  13.828  40.878  13.352
72575W        W44901  10.260  23.205  12.042
72576W        W44902  19.742   4.715  11.443
72577W        W44903  13.731   9.737  13.458
72578W        W44904  13.156  13.760  11.867
72579W        W44905   1.787  32.939   1.325
72580W        W44906  22.155  44.914   1.399
72581W        W44907  36.471  28.937  11.417
72582W        W44908  10.701  38.072   3.713
72583W        W44909   3.384  21.724   5.205
72584W        W44910  20.229  21.714  13.926
72585W        W44911  20.087  42.785   0.304
72586W        W44912  21.177  42.869  13.878
72587W        W44913   7.171   6.328   1.398
72588W        W44914  37.002  24.621  10.621
72589W        W44915  12.711   5.436  12.077
72590W        W44916  36.486   2.782   4.221
72591W        W44917   4.310  31.986  13.444
72592W        W44918  34.872  20.098  13.332
72593W        W44919  15.721   3.863   3.836
72594W        W44920  40.404  28.144  13.499
72595W        W44921  15.697  12.720  11.560
72596W        W44922   1.817  35.089  13.834
72597W        W44923   7.266  31.042   0.910
72598W        W44924   9.794   6.375  12.995
72599W        W44925   1.785  29.926   0.821
72600W        W44926  26.581   7.414   1.423
72601W        W44927  39.471  29.133  10.598
72602W        W44928  38.972  18.652  11.499
72603W        W44929  43.495  21.017   4.293
72604W        W44930  30.022   9.724   2.230
72605W        W44931  40.855  22.631   4.756
72606W        W44932  44.411  31.552   3.190
72607W        W44933  42.418   1.766   4.339
72608W        W44934  33.457  40.458   1.779
72609W        W44935  29.501   0.493   0.951
72610W        W44936  30.559  31.043  12.883
72611W        W44937   9.746  25.611  13.901
72612W        W44938  32.142   9.695   3.281
72613W        W44939  40.922   1.409   4.246
72614W        W44940  24.040  23.228   0.392
72615W        W44941   4.254   0.846   2.737
72616W        W44942  11.649  30.517   3.836
72617W        W44943  23.535  17.218  11.984
72618W        W44944   0.268   7.829  10.637
72619W        W44945  12.249  22.727   2.407
72620W        W44946   4.383  40.800   0.957
72621W        W44947  18.115  31.976  10.446
72622W        W44948  11.626  28.600   2.303
72623W        W44949  37.461  41.876   1.826
72624W        W44950  43.415  19.778  11.876
72625W        W44951   1.393  11.858  12.976
72626W        W44952  31.619   8.788  11.441
72627W        W44953  14.627  33.496   4.275
72628W        W44954  36.452  14.157  13.338
72629W        W44955  25.708  17.085   5.676
72630W        W44956  38.410  27.479  13.946
72631W        W44957   0.321   0.386   1.246
72632W        W44958   0.904  17.644  12.484
72633W        W44959  35.864   4.863  13.499
72634W        W44960  44.822  15.171  14.979
72635W        W44961  15.641  33.613   1.803
72636W        W44962  44.407  30.655   4.176
72637W        W44963  23.554  42.925  11.896
72638W        W44964  23.499  14.694  12.398
72639W        W44965  12.638  40.999  12.881
72640W        W44966   6.856  33.894   0.399
72641W        W44967   1.740   3.322   2.748
72642W        W44968  36.457  26.589  12.096
72643W        W44969   1.434  25.114  10.635
72644W        W44970  32.499   2.886   3.227
72645W        W44971   5.775  43.301   1.281
72646W        W44972  27.689   0.906   2.811
72647W        W44973  39.423   6.782  14.982
72648W        W44974   0.453   9.237  13.822
72649W        W44975  32.985  43.998  11.898
72650W        W44976  10.730  38.525   4.339
72651W        W44977   7.183  25.126   4.209
72652W        W44978  23.058  42.854   3.207
72653W        W44979  27.163  15.596   2.332
72654W        W44980   0.442   7.218   1.720
72655W        W44981  36.487  23.595  10.540
72656W        W44982  27.177   9.336   0.303
72657W        W44983   6.342  16.274  14.014
72658W        W44984  26.494  22.516   3.649
72659W        W44985  20.067  44.475  13.358
72660W        W44986  14.170  36.075   1.920
72661W        W44987  12.309   8.737  11.856
72662W        W44988   1.825  25.054   2.359
72663W        W44989  24.223  14.094   2.308
72664W        W44990  18.096  35.583   0.437
72665W        W44991  22.536   5.829  12.546
72666W        W44992  11.268  18.259   1.927
72667W        W44993   0.746  26.457   4.833
72668W        W44994  31.409  14.829   1.719
72669W        W44995  33.021  23.683  13.506
72670W        W44996  33.091  14.272  14.994
72671W        W44997  41.819  43.930  11.067
72672W        W44998  40.804  17.614   2.686
72673W        W44999  16.783  21.734   0.751
72674W        W45000  35.415  32.946   2.194
72675W        W45001   5.329  44.296  14.858
72676W        W45002  24.979  12.159   0.815
72677W        W45003   6.345  37.938   0.857
72678W        W45004  16.300  22.230  10.478
72679W        W45005   5.770   2.346   1.852
72680W        W45006   0.363  18.273  11.005
72681W        W45007  18.779  38.569   1.388
72682W        W45008   6.891  14.189  13.019
72683W        W45009  18.767   9.176  10.918
72684W        W45010  17.655  31.976   3.733
72685W        W45011  44.792  30.424   2.229
72686W        W45012  25.180   9.775  11.444
72687W        W45013  32.443  41.462  14.029
72688W        W45014   1.918  43.905  14.317
72689W        W45015  34.373  35.409  12.039
72690W        W45016  35.570  12.816   2.193
72691W        W45017  22.249  32.612   2.733
72692W        W45018   0.801   6.785  12.544
72693W        W45019  17.569  13.843  10.929
72694W        W45020   3.265  29.949  10.517
72695W        W45021   7.238  21.047   1.860
72696W        W45022   5.770  37.561   0.281
72697W        W45023   8.881  28.066  13.536
72698W        W45024  40.369  33.913  13.969
72699W        W45025  43.450  12.638   1.382
72700W        W45026  20.644  16.214  14.846
72701W        W45027   3.750  19.170   3.329
72702W        W45028   1.251  32.524  14.481
72703W        W45029  20.065  32.573   4.341
72704W        W45030  18.761  21.251  10.457
72705W        W45031  18.672  36.084  11.582
72706W        W45032  29.596  28.008   4.602
72707W        W45033  30.605  41.876   0.848
72708W        W45034  16.179  13.803  11.399
72709W        W45035  42.298  43.799  14.459
72710W        W45036  11.790   0.419  10.911
72711W        W45037  26.594  26.491  13.409
72712W        W45038  13.349  17.599   1.794
72713W        W45039  37.004  40.496   2.746
72714W        W45040  30.992  31.899   4.813
72715W        W45041   1.426  12.144   5.087
72716W        W45042  33.397  39.979  11.893
72717W        W45043  17.271   0.948  12.406
72718W        W45044  24.498  17.234   4.675
72719W        W45045  17.778   7.784  12.497
72720W        W45046  39.991  35.945   3.642
72721NA+    NA+45047   9.196  11.173  14.332
72722NA+    NA+45048  23.001   0.762  14.995
72723NA+    NA+45049  22.635  43.507  13.507
72724NA+    NA+45050  21.045  16.109  10.639
72725NA+    NA+45051  32.131  41.533   0.461
72726NA+    NA+45052  14.191  32.503   3.205
72727NA+    NA+45053  18.053  19.269  10.522
72728NA+    NA+45054  39.939  34.886   1.258
72729NA+    NA+45055  19.555   5.817  14.998
72730NA+    NA+45056  24.197  18.555   2.870
72731NA+    NA+45057  42.954  21.191  13.344
72732NA+    NA+45058  19.059  31.070   0.781
72733NA+    NA+45059   2.804  43.959  10.609
72734NA+    NA+45060   5.829  12.827   4.750
72735NA+    NA+45061  42.368  21.145   5.093
72736NA+    NA+45062  19.743  29.113   3.687
72737NA+    NA+45063  37.882   1.295  11.030
72738NA+    NA+45064  43.514  44.008  10.928
72739NA+    NA+45065   2.760   8.166   2.707
72740NA+    NA+45066   7.242  29.123  13.001
72741NA+    NA+45067  17.738  44.435  11.378
72742NA+    NA+45068  37.936  37.437   0.807
72743NA+    NA+45069  21.039   9.651  13.989
72744NA+    NA+45070   1.862   8.763  11.094
72745NA+    NA+45071   2.295   5.211   0.269
72746NA+    NA+45072  31.481   0.950  11.521
72747NA+    NA+45073   7.197  34.010   2.336
72748NA+    NA+45074  40.531  19.561  14.450
72749NA+    NA+45075   8.263  32.524   2.766
72750NA+    NA+45076  40.316   2.899  14.316
72751NA+    NA+45077  14.315  12.631   9.999
72752NA+    NA+45078  38.903  10.638  12.469
72753NA+    NA+45079  21.549  10.841  11.374
72754NA+    NA+45080  36.512  43.440  10.537
72755NA+    NA+45081  43.893  15.733   3.793
72756NA+    NA+45082   1.411   2.305  10.117
72757NA+    NA+45083   4.883  10.236  10.013
72758NA+    NA+45084  26.198  18.167   1.335
72759NA+    NA+45085  18.279  31.601  13.916
72760NA+    NA+45086  21.587   0.797  10.591
72761NA+    NA+45087  22.228  40.841  12.419
72762NA+    NA+45088  20.536  16.153  14.336
72763NA+    NA+45089   6.421  19.679   2.225
72764NA+    NA+45090  14.775  36.916  11.430
72765NA+    NA+45091  14.288  11.857  14.907
72766NA+    NA+45092   7.322  31.506  11.409
72767NA+    NA+45093  42.930  22.747  14.853
72768NA+    NA+45094   8.833  26.203  14.384
72769NA+    NA+45095  30.909   7.727   0.347
72770NA+    NA+45096   3.836  40.031  10.932
72771NA+    NA+45097   6.355  21.588  13.373
72772NA+    NA+45098   1.797  42.867   3.300
72773NA+    NA+45099  11.783   2.908   2.418
72774NA+    NA+45100  23.551  36.524  14.372
72775NA+    NA+45101  33.497  14.804   4.149
72776NA+    NA+45102   1.354  43.793   3.659
72777NA+    NA+45103  20.670  13.291   4.621
72778NA+    NA+45104  28.642   1.805  10.426
72779NA+    NA+45105  15.610  24.230  13.400
72780NA+    NA+45106   4.700  13.622   1.755
72781NA+    NA+45107  30.018  21.757   2.734
72782NA+    NA+45108  10.805  23.073  11.037
72783NA+    NA+45109  17.703  31.537   3.819
72784NA+    NA+45110   7.192   1.368   2.261
72785NA+    NA+45111  28.470  36.347   3.823
72786NA+    NA+45112   0.356  15.672   0.867
72787NA+    NA+45113  28.054  34.870  11.566
72788NA+    NA+45114  25.478  19.608   2.254
72789NA+    NA+45115  33.085  23.055  12.840
72790NA+    NA+45116  15.256  38.327  11.480
72791NA+    NA+45117  31.947  13.771  14.337
72792NA+    NA+45118  43.878  41.312  12.071
72793NA+    NA+45119  10.354  37.371   5.287
72794NA+    NA+45120  32.955  34.444  13.848
72795NA+    NA+45121  16.140   0.485   2.280
72796NA+    NA+45122   4.760  29.479   1.813
72797NA+    NA+45123  30.085  26.190  14.394
72798NA+    NA+45124  14.744   8.814  13.905
72799NA+    NA+45125  39.986   6.918   2.812
72800NA+    NA+45126  23.556  43.896  14.931
72801NA+    NA+45127  39.857   1.949   0.807
72802NA+    NA+45128  25.551  13.722  11.969
72803NA+    NA+45129  42.930  24.225   4.354
72804NA+    NA+45130  29.118  28.969  12.027
72805NA+    NA+45131  16.303   1.451  14.279
72806NA+    NA+45132  13.804  10.271  12.025
72807NA+    NA+45133   9.328  34.914   3.339
72808NA+    NA+45134  37.421  29.103   3.714
72809NA+    NA+45135  16.224  16.222   2.902
72810NA+    NA+45136  29.665   5.273   4.341
72811NA+    NA+45137  13.126  30.973   0.377
72812NA+    NA+45138  10.649  28.183  11.481
72813NA+    NA+45139  26.996  17.161  13.010
72814NA+    NA+45140  22.144  31.623   3.235
72815NA+    NA+45141  20.607  10.871   3.173
72816NA+    NA+45142  41.358  16.720   4.353
72817NA+    NA+45143   8.855  23.643  13.986
72818NA+    NA+45144  24.976   1.777   2.333
72819NA+    NA+45145  10.711  39.860   1.230
72820NA+    NA+45146   9.672  38.957   0.873
72821NA+    NA+45147   7.177  12.624   3.327
72822NA+    NA+45148  20.591  35.521  11.543
72823NA+    NA+45149  25.168   3.826   4.336
72824NA+    NA+45150  29.098  39.040  13.488
72825NA+    NA+45151  40.506   9.328  14.832
72826NA+    NA+45152  36.424  19.737   1.297
72827NA+    NA+45153  43.506  25.551  11.858
72828NA+    NA+45154  17.755  21.606   1.747
72829NA+    NA+45155  20.047  30.165  14.289
72830NA+    NA+45156  12.363  31.148  10.635
72831NA+    NA+45157  33.499  32.033   1.839
72832NA+    NA+45158  15.582  21.584  14.391
72833NA+    NA+45159  44.472  32.089   4.349
72834NA+    NA+45160   1.475  22.603   5.275
72835NA+    NA+45161  44.809  16.574  11.116
72836NA+    NA+45162   5.910  25.671   0.734
72837NA+    NA+45163  23.642  27.975  11.576
72838NA+    NA+45164   9.762  40.478  13.862
72839NA+    NA+45165  41.433  36.569   1.391
72840NA+    NA+45166   6.293  17.716  14.284
72841NA+    NA+45167   4.796  31.904   4.734
72842NA+    NA+45168  18.215  18.229   3.153
72843NA+    NA+45169  34.908  33.022   5.739
72844NA+    NA+45170  36.858  17.748  14.414
72845NA+    NA+45171  11.310  37.931   4.616
72846NA+    NA+45172  33.960   5.875  13.814
72847NA+    NA+45173   7.196  23.615   0.859
72848NA+    NA+45174   5.728   5.735   0.849
72849NA+    NA+45175  35.411  30.049   4.182
72850NA+    NA+45176  23.683  31.117  13.335
72851NA+    NA+45177   8.725  33.007   3.383
72852NA+    NA+45178  31.499   1.801   4.748
72853NA+    NA+45179   1.289  41.798  14.810
72854NA+    NA+45180  37.488   9.179  10.585
72855NA+    NA+45181  21.746   9.248  13.820
72856NA+    NA+45182  30.413   9.367  12.923
72857NA+    NA+45183  19.582   5.372   1.345
72858NA+    NA+45184  20.656  17.575  12.978
72859NA+    NA+45185  21.058   8.320  13.320
72860NA+    NA+45186  44.409  20.573  12.056
72861NA+    NA+45187  20.189   2.779  10.489
72862NA+    NA+45188   0.969  18.135  14.014
72863NA+    NA+45189  11.287  17.704  12.552
72864NA+    NA+45190  22.658  15.190  12.391
72865NA+    NA+45191  39.952  35.911  14.871
72866NA+    NA+45192  26.557   1.257   4.245
72867NA+    NA+45193  20.648   2.965  14.890
72868NA+    NA+45194  18.113  12.177   0.387
72869NA+    NA+45195  11.781   4.363   4.280
72870NA+    NA+45196  27.632  28.440  13.981
72871NA+    NA+45197  22.618  27.090  11.396
72872NA+    NA+45198  32.466  10.275  11.527
72873NA+    NA+45199  10.714   7.806   4.263
72874NA+    NA+45200  22.505  23.501  11.076
72875NA+    NA+45201  25.049  32.010  11.934
72876NA+    NA+45202  38.996  16.259   2.357
72877NA+    NA+45203  39.057  14.286  13.807
72878NA+    NA+45204  10.377  14.230  13.511
72879NA+    NA+45205  42.336   3.248  12.893
72880NA+    NA+45206  30.429  28.478   4.697
72881NA+    NA+45207  25.661  21.152  13.374
72882NA+    NA+45208  39.374   9.694  14.488
72883NA+    NA+45209  13.349   8.230   2.701
72884NA+    NA+45210  22.551   9.323   4.664
72885NA+    NA+45211  13.188  15.223   4.704
72886NA+    NA+45212   6.324  44.897  14.012
72887NA+    NA+45213   0.370  22.156   4.119
72888NA+    NA+45214  24.030  32.948  14.495
72889NA+    NA+45215   7.709  12.208  10.544
72890NA+    NA+45216  11.726   4.266  14.318
72891NA+    NA+45217  28.005  12.158  12.473
72892NA+    NA+45218  34.451  26.060   3.248
72893NA+    NA+45219  34.869  28.670  10.533
72894NA+    NA+45220  31.048  11.311   2.823
72895NA+    NA+45221   4.840   7.365  13.949
72896NA+    NA+45222  20.135  43.929   4.122
72897NA+    NA+45223   0.931   0.480  14.490
72898NA+    NA+45224  25.472  29.642  14.888
72899NA+    NA+45225   7.401  29.120   4.299
72900NA+    NA+45226  30.558  28.052   1.899
72901NA+    NA+45227  41.302  39.457  14.493
72902NA+    NA+45228  40.391  43.817   1.753
72903NA+    NA+45229   0.364   4.714  11.019
72904NA+    NA+45230  11.693  10.649   2.303
72905NA+    NA+45231  34.035  26.685  14.512
72906NA+    NA+45232  39.030  10.827  12.890
72907NA+    NA+45233  24.168  36.512   2.685
72908NA+    NA+45234  18.691  24.069   3.291
72909NA+    NA+45235  40.484   3.949  12.926
72910NA+    NA+45236   9.312  14.283   3.223
72911NA+    NA+45237  30.028  23.105  10.907
72912NA+    NA+45238  12.313  27.683  13.964
72913NA+    NA+45239   6.376  27.184   4.742
72914NA+    NA+45240  44.477   4.261  12.049
72915NA+    NA+45241   1.392  34.057  14.455
72916NA+    NA+45242  10.777  32.004   4.345
72917NA+    NA+45243  43.864  37.376   2.357
72918NA+    NA+45244  24.182  18.163  11.479
72919NA+    NA+45245  28.500  36.993   0.902
72920NA+    NA+45246   8.783  31.080  10.605
72921NA+    NA+45247  30.147  35.101   1.425
72922NA+    NA+45248  11.373  21.725   2.394
72923NA+    NA+45249  14.638  31.146   2.227
72924NA+    NA+45250  22.126  32.631  14.370
72925NA+    NA+45251  44.471   8.165  12.982
72926NA+    NA+45252  21.566  20.135   0.397
72927NA+    NA+45253   5.923  41.404   4.170
72928NA+    NA+45254  17.165  44.383   0.301
72929NA+    NA+45255  21.553  40.826  14.354
72930NA+    NA+45256  21.254   4.831   4.326
72931NA+    NA+45257  38.017  37.869   3.154
72932NA+    NA+45258   2.415  13.149  11.571
72933NA+    NA+45259  23.198   6.357  12.534
72934NA+    NA+45260   0.260  23.595   3.631
72935NA+    NA+45261  43.926  28.599   3.711
72936NA+    NA+45262  37.419  12.750  14.902
72937NA+    NA+45263  29.017  36.872  14.971
72938NA+    NA+45264  19.661  41.007   2.696
72939NA+    NA+45265  10.840  44.916  12.513
72940NA+    NA+45266  40.000  40.956  10.434
72941NA+    NA+45267  37.941  34.535   3.254
72942NA+    NA+45268  34.459   6.747   0.403
72943NA+    NA+45269  38.525  38.971  10.611
72944NA+    NA+45270   5.310  19.213  13.997
72945NA+    NA+45271  29.165   1.829   3.271
72946NA+    NA+45272   9.190  40.331  14.937
72947NA+    NA+45273  35.046  26.188   3.822
72948NA+    NA+45274  16.676  10.814   2.857
72949NA+    NA+45275  33.541  17.622   1.704
72950NA+    NA+45276   3.844  18.720  14.451
72951NA+    NA+45277  24.984   9.706  14.323
72952NA+    NA+45278   9.717   4.318  14.444
72953NA+    NA+45279  23.702  31.423   4.739
72954NA+    NA+45280  12.851  38.837  13.373
72955NA+    NA+45281  28.510   0.964  11.113
72956NA+    NA+45282  15.270   4.238  12.501
72957NA+    NA+45283  39.051  23.043  12.400
72958NA+    NA+45284  26.663   1.785  13.487
72959NA+    NA+45285   9.351  33.479  13.008
72960NA+    NA+45286  27.978  28.555   0.367
72961NA+    NA+45287   5.842  16.228   1.217
72962NA+    NA+45288  40.515   4.911  14.906
72963NA+    NA+45289  27.127   6.320  11.563
72964NA+    NA+45290  39.852  37.899   4.187
72965NA+    NA+45291   6.241  39.549  13.443
72966NA+    NA+45292   4.868  16.293   3.163
72967NA+    NA+45293   0.468  16.743  10.590
72968NA+    NA+45294  26.667  16.106   0.430
72969NA+    NA+45295  38.432  28.640   0.898
72970NA+    NA+45296   7.276  37.046   0.400
72971NA+    NA+45297  35.414  23.986   1.732
72972NA+    NA+45298  14.689  32.058   1.375
72973NA+    NA+45299   7.402  20.726  12.092
72974NA+    NA+45300  43.282  16.622  12.566
72975NA+    NA+45301  39.424  22.688   2.843
72976NA+    NA+45302  15.171  39.478  10.583
72977NA+    NA+45303  16.599   4.856   1.876
72978NA+    NA+45304  25.137  31.576   0.843
72979NA+    NA+45305  21.607  38.450   3.147
72980NA+    NA+45306  24.576  44.419   0.480
72981NA+    NA+45307  13.740  31.046  14.506
72982NA+    NA+45308  18.135  37.022   3.216
72983NA+    NA+45309  25.147  20.273   4.639
72984NA+    NA+45310  25.502  26.521  13.456
72985NA+    NA+45311   5.770   3.810   4.307
72986NA+    NA+45312  43.390  24.088   4.307
72987NA+    NA+45313  13.692  23.997  11.552
72988NA+    NA+45314   0.788  37.001  13.922
72989NA+    NA+45315   4.392  23.734  10.623
72990NA+    NA+45316   2.724   6.891   3.356
72991NA+    NA+45317  30.027  27.990  12.357
72992NA+    NA+45318  20.650  42.439  13.517
72993NA+    NA+45319  14.300  17.764  10.967
72994NA+    NA+45320   5.791  33.126  10.490
72995NA+    NA+45321   4.863  40.380   3.210
72996NA+    NA+45322  21.053  10.381  12.842
72997NA+    NA+45323  32.425  11.654   4.801
72998NA+    NA+45324   0.905  33.471  12.998
72999NA+    NA+45325  24.590  10.816   1.875
73000NA+    NA+45326  23.658  19.719  12.438
73001NA+    NA+45327  18.766  25.625  12.011
73002NA+    NA+45328   3.313   1.914   9.926
73003NA+    NA+45329  33.902  34.104  14.372
73004NA+    NA+45330  11.704  38.393   4.127
73005NA+    NA+45331   8.715  29.981   3.751
73006NA+    NA+45332   2.425   3.933   4.801
73007NA+    NA+45333  38.540  34.870  12.047
73008NA+    NA+45334  17.266  20.651   3.676
73009NA+    NA+45335  23.240  38.868   0.460
73010NA+    NA+45336  28.076  43.482   3.272
73011NA+    NA+45337  22.125  37.485   4.787
73012NA+    NA+45338  26.116  25.541  10.488
73013NA+    NA+45339  36.354  19.705  13.542
73014NA+    NA+45340  13.626  39.427   0.889
73015NA+    NA+45341  39.492  42.349   3.288
73016NA+    NA+45342  22.621  24.568  11.040
73017NA+    NA+45343  42.823  11.353   9.944
73018NA+    NA+45344  24.015   8.300   0.377
73019NA+    NA+45345  38.022  42.008   2.787
73020NA+    NA+45346  13.696   6.259   3.690
73021NA+    NA+45347   9.843  14.759   1.363
73022NA+    NA+45348   7.309  11.359   2.286
73023NA+    NA+45349   8.716  34.968  11.939
73024NA+    NA+45350  22.023  14.171   2.408
73025NA+    NA+45351   3.785  20.223   3.303
73026NA+    NA+45352   6.425  34.573  14.761
73027NA+    NA+45353  29.002  38.077   1.747
73028NA+    NA+45354   9.647  11.217   1.931
73029NA+    NA+45355  25.158  16.726   4.642
73030NA+    NA+45356  36.373  29.428   2.294
73031NA+    NA+45357  20.739  21.632  11.440
73032NA+    NA+45358  24.487  32.500   3.186
73033NA+    NA+45359   8.288  22.533  10.895
73034NA+    NA+45360   4.796   5.397   3.193
73035NA+    NA+45361   0.359  19.751   2.308
73036NA+    NA+45362  29.968   9.297  10.598
73037NA+    NA+45363  30.501  23.004   1.707
73038NA+    NA+45364  24.546  43.783   4.259
73039NA+    NA+45365  22.040  44.867   2.873
73040NA+    NA+45366  14.768  18.770  14.325
73041NA+    NA+45367   4.445  37.544  12.856
73042NA+    NA+45368  30.531  17.208   3.748
73043NA+    NA+45369   0.971  39.957  12.885
73044NA+    NA+45370  13.221  24.553  10.019
73045NA+    NA+45371  19.594  31.620  14.487
73046NA+    NA+45372  24.484  35.388   0.280
73047NA+    NA+45373  11.716  24.610  11.601
73048NA+    NA+45374  36.457  33.961   4.819
73049NA+    NA+45375   1.805  38.398   0.780
73050NA+    NA+45376   8.326  37.937   2.185
73051NA+    NA+45377  10.314   8.357  13.991
73052NA+    NA+45378  42.391  43.004  11.027
73053NA+    NA+45379  29.514  44.756  10.642
73054NA+    NA+45380  40.821   7.906  10.560
73055NA+    NA+45381  18.115  25.092   4.814
73056NA+    NA+45382  34.995  14.635  11.866
73057NA+    NA+45383   3.733  21.750  13.413
73058NA+    NA+45384  26.603  41.984  13.479
73059NA+    NA+45385   0.276  11.342  12.864
73060NA+    NA+45386  26.084  39.505  10.920
73061NA+    NA+45387  44.964   7.819   0.784
73062NA+    NA+45388  33.993  28.103  14.344
73063NA+    NA+45389  25.689  30.097  11.977
73064NA+    NA+45390  19.717  16.215   4.825
73065NA+    NA+45391  19.189  13.792  13.802
73066NA+    NA+45392  34.100  27.639  10.472
73067NA+    NA+45393  27.040  14.778   4.611
73068NA+    NA+45394  12.133   1.918   4.233
73069NA+    NA+45395  42.858  44.861   1.303
73070NA+    NA+45396   7.360  33.556  10.515
73071NA+    NA+45397  10.310  26.538   0.847
73072NA+    NA+45398  10.770  37.855   4.237
73073NA+    NA+45399  24.130  10.317   3.655
73074NA+    NA+45400  32.631  17.073   1.340
73075NA+    NA+45401  27.959  30.543   2.783
73076NA+    NA+45402   7.785  36.454  10.547
73077NA+    NA+45403  29.962  10.823  10.429
73078NA+    NA+45404  21.552   4.380  12.367
73079NA+    NA+45405  25.697  11.808   1.266
73080NA+    NA+45406  15.718  22.659   5.091
73081NA+    NA+45407  17.113  20.135   1.325
73082NA+    NA+45408  19.566  39.354   4.341
73083NA+    NA+45409  43.936  21.624  11.038
73084NA+    NA+45410  27.196  24.684  13.944
73085NA+    NA+45411  43.355   8.850  13.055
73086NA+    NA+45412  36.433  40.471  14.293
73087NA+    NA+45413  23.736  34.016  11.989
73088NA+    NA+45414  31.447  29.919  10.513
73089NA+    NA+45415   2.863   0.744   1.220
73090NA+    NA+45416  41.453  40.412   2.364
73091NA+    NA+45417   7.793  33.519  12.494
73092NA+    NA+45418  27.052  16.640  11.025
73093NA+    NA+45419  20.178  17.204  11.439
73094NA+    NA+45420  35.435  10.246  11.530
73095NA+    NA+45421   2.806   6.311   0.471
73096NA+    NA+45422  17.225  43.439  10.568
73097NA+    NA+45423  31.469  25.004   2.700
73098NA+    NA+45424  19.607   4.761   5.166
73099NA+    NA+45425  34.421   6.689  11.553
73100NA+    NA+45426  23.496  37.550  11.072
73101NA+    NA+45427  26.616   1.748  11.864
73102NA+    NA+45428  17.558  27.594  14.968
73103NA+    NA+45429  11.748  25.069  10.616
73104NA+    NA+45430  30.126  30.501   4.263
73105NA+    NA+45431  10.288  29.484   2.278
73106NA+    NA+45432  40.419  11.273   4.621
73107NA+    NA+45433  29.126  10.376  14.788
73108NA+    NA+45434  21.165  33.987   0.268
73109NA+    NA+45435  10.847  23.638  14.897
73110NA+    NA+45436   6.714  18.271   3.741
73111NA+    NA+45437  38.027  38.390   3.165
73112NA+    NA+45438  18.174  17.305   2.889
73113NA+    NA+45439  40.966  24.077  11.423
73114NA+    NA+45440   3.837   3.390  11.388
73115NA+    NA+45441  41.803  23.986   4.597
73116NA+    NA+45442   9.184   8.856  10.478
73117NA+    NA+45443  39.050  13.770  13.950
73118NA+    NA+45444  31.501  38.823   4.185
73119NA+    NA+45445  24.479  40.438   3.148
73120NA+    NA+45446  14.614  17.131   2.291
73121NA+    NA+45447  26.018   9.180   3.810
73122NA+    NA+45448  40.990  12.674   0.444
73123NA+    NA+45449  41.461  26.143   2.264
73124NA+    NA+45450   3.263  11.337   0.476
73125NA+    NA+45451   5.873  39.049  11.905
73126NA+    NA+45452   8.362  25.640  11.920
73127NA+    NA+45453  37.484  40.814  12.925
73128NA+    NA+45454  15.590   5.350  13.917
73129NA+    NA+45455  12.687  26.100   4.673
73130NA+    NA+45456  27.998  16.802  12.480
73131NA+    NA+45457   8.706   9.166   2.793
73132NA+    NA+45458  28.623  33.992   3.147
73133NA+    NA+45459  35.479   3.414  12.917
73134NA+    NA+45460  38.410   3.946  12.980
73135NA+    NA+45461  27.463  15.251  11.375
73136NA+    NA+45462   2.297  13.759  10.432
73137NA+    NA+45463  11.786  17.733  12.436
73138NA+    NA+45464  11.785   4.747   3.870
73139NA+    NA+45465   5.313  41.000   1.854
73140NA+    NA+45466  41.917  11.857   5.184
73141NA+    NA+45467   2.775  17.693   0.343
73142NA+    NA+45468  34.901  20.137   0.804
73143NA+    NA+45469  32.495   0.944   1.325
73144NA+    NA+45470  43.799  22.728  12.572
73145NA+    NA+45471  29.496  25.103  11.541
73146NA+    NA+45472  31.032  20.119  14.486
73147NA+    NA+45473  36.021   0.473  13.546
73148NA+    NA+45474  22.250   2.878   3.644
73149NA+    NA+45475  30.571  14.825   4.672
73150NA+    NA+45476   3.913  19.602   0.948
73151NA+    NA+45477  19.756  21.626  10.946
73152NA+    NA+45478  16.306   1.364  10.503
73153NA+    NA+45479   1.393   4.838   1.927
73154NA+    NA+45480  14.745   0.314   2.353
73155NA+    NA+45481  37.349  11.291   2.784
73156NA+    NA+45482  29.545  16.253  11.505
73157NA+    NA+45483   6.193   9.753  11.978
73158NA+    NA+45484  40.811  14.317   1.701
73159NA+    NA+45485  19.614   3.907   4.778
73160NA+    NA+45486  26.078   6.914  14.967
73161NA+    NA+45487   4.886  27.649  14.320
73162NA+    NA+45488  43.902  14.639   3.336
73163NA+    NA+45489  12.336  28.673   2.258
73164NA+    NA+45490  43.357  39.048  10.027
73165NA+    NA+45491  27.651   7.377  10.568
73166NA+    NA+45492  41.881  19.642   5.278
73167NA+    NA+45493  16.688  42.397  12.521
73168NA+    NA+45494   9.355  27.032  14.845
73169NA+    NA+45495  26.007  23.584   1.247
73170NA+    NA+45496  17.145  22.117  11.105
73171NA+    NA+45497  24.644   2.236   1.435
73172NA+    NA+45498  17.706  35.442   3.836
73173NA+    NA+45499  37.869  43.380  13.465
73174NA+    NA+45500   7.760  35.034   2.205
73175NA+    NA+45501  13.792   9.831  10.626
73176NA+    NA+45502  27.975  42.478  13.831
73177NA+    NA+45503  13.135  18.089   2.301
73178NA+    NA+45504  10.701  42.395   3.766
73179NA+    NA+45505  24.643  16.780   2.266
73180NA+    NA+45506  42.340  10.788  11.482
73181NA+    NA+45507   6.870  32.913   4.670
73182NA+    NA+45508   7.858  22.159  14.310
73183NA+    NA+45509  25.978  15.753   4.626
73184NA+    NA+45510  38.420  32.585  13.057
73185NA+    NA+45511  26.507   6.377   5.083
73186NA+    NA+45512  16.716  42.829   3.284
73187NA+    NA+45513  35.057  43.375  13.027
73188NA+    NA+45514   0.845  37.959  12.425
73189NA+    NA+45515  29.488  44.370  14.356
73190NA+    NA+45516  30.959   3.921  11.537
73191NA+    NA+45517  11.668   2.760  12.831
73192NA+    NA+45518   5.732  21.654  13.396
73193NA+    NA+45519  14.098   5.220   1.339
73194NA+    NA+45520  32.399  13.763  11.480
73195NA+    NA+45521  43.886  27.462  13.940
73196NA+    NA+45522   4.424  24.603   0.907
73197NA+    NA+45523  40.368   0.914  12.528
73198NA+    NA+45524  33.085  32.111  10.504
73199NA+    NA+45525  25.530  16.143   4.329
73200NA+    NA+45526  35.069  41.921  14.469
73201NA+    NA+45527  30.029  42.334   1.730
73202NA+    NA+45528  18.573  30.545  11.598
73203NA+    NA+45529  42.472  44.766   3.654
73204NA+    NA+45530   8.719  32.082   3.805
73205NA+    NA+45531  23.124  19.182   0.801
73206NA+    NA+45532   0.299  42.463  11.882
73207NA+    NA+45533  30.957  32.948  13.893
73208NA+    NA+45534  37.413   9.323   2.186
73209NA+    NA+45535  30.498   2.909  14.417
73210NA+    NA+45536   9.274  24.035  13.458
73211NA+    NA+45537   9.683   4.301   1.789
73212NA+    NA+45538  16.607  30.595   0.290
73213NA+    NA+45539  40.924   4.339  12.468
73214NA+    NA+45540  23.580   0.464   3.163
73215NA+    NA+45541   4.439  29.477  11.913
73216NA+    NA+45542  26.161  24.684   1.715
73217NA+    NA+45543  30.133  10.359   4.305
73218NA+    NA+45544  37.530  41.400  11.890
73219NA+    NA+45545  19.056  24.124  14.909
73220NA+    NA+45546  38.350   6.404  11.448
73221NA+    NA+45547  35.031  34.434  14.495
73222NA+    NA+45548  13.613  13.213  14.936
73223NA+    NA+45549  39.873  43.294   2.205
73224NA+    NA+45550  20.528  16.617   2.743
73225NA+    NA+45551  42.327  37.515   4.280
73226NA+    NA+45552  12.325  32.437  10.955
73227NA+    NA+45553  18.754   3.727   0.763
73228NA+    NA+45554  39.508  21.719   1.791
73229NA+    NA+45555  44.388  11.666   2.746
73230NA+    NA+45556   0.877  11.699   1.374
73231NA+    NA+45557  27.048  36.921   0.806
73232NA+    NA+45558  29.439  32.062  10.489
73233NA+    NA+45559   8.368   2.933   0.925
73234NA+    NA+45560  39.359  12.210  10.141
73235NA+    NA+45561  41.865  12.275  14.835
73236NA+    NA+45562   6.766   5.776   3.186
73237NA+    NA+45563  40.429  12.820   1.919
73238NA+    NA+45564   3.770   1.292  14.358
73239NA+    NA+45565  36.407  31.480   1.297
73240NA+    NA+45566  32.975  16.604  11.954
73241NA+    NA+45567  40.314  18.093   3.654
73242NA+    NA+45568  34.985  17.290   4.326
73243NA+    NA+45569   3.853  39.370  12.061
73244NA+    NA+45570  21.076  37.534  10.447
73245NA+    NA+45571   9.760  44.392   1.853
73246NA+    NA+45572  35.422   2.403  10.504
73247NA+    NA+45573  16.794  22.208   1.359
73248NA+    NA+45574  44.884   8.238   0.290
73249NA+    NA+45575  30.008  33.922   4.736
73250NA+    NA+45576  33.442  37.950  14.989
73251NA+    NA+45577  20.562  37.036   3.846
73252NA+    NA+45578  31.513  12.194   1.444
73253NA+    NA+45579  26.502  32.601  13.915
73254NA+    NA+45580  14.720  12.347   4.214
73255NA+    NA+45581   0.896  28.523   0.814
73256NA+    NA+45582  24.580  11.245  10.404
73257NA+    NA+45583   2.284  24.482  11.481
73258NA+    NA+45584  27.513  37.047  13.393
73259NA+    NA+45585   6.906  32.940  12.825
73260NA+    NA+45586  40.928  31.402  10.472
73261NA+    NA+45587   3.379  34.956  12.015
73262NA+    NA+45588   1.972   2.960   0.927
73263NA+    NA+45589   2.251  42.479  14.413
73264NA+    NA+45590  12.289   1.419  13.389
73265NA+    NA+45591  30.559   3.780   3.210
73266NA+    NA+45592  36.442  26.561  14.762
73267NA+    NA+45593  14.225  21.598   1.236
73268NA+    NA+45594  13.194  41.395  13.006
73269NA+    NA+45595  10.336  26.508  13.389
73270NA+    NA+45596  23.203   8.779   1.814
73271NA+    NA+45597  29.140   5.886  12.521
73272NA+    NA+45598  40.358  23.001  14.444
73273NA+    NA+45599  21.157  33.616  12.995
73274NA+    NA+45600  34.989  18.751  14.827
73275NA+    NA+45601  39.947   3.393   4.616
73276NA+    NA+45602  24.684   2.773  12.569
73277NA+    NA+45603  16.106   0.911   0.950
73278NA+    NA+45604  18.670   5.232   2.740
73279NA+    NA+45605  36.858  25.502  11.068
73280NA+    NA+45606  41.951   5.316   0.244
73281NA+    NA+45607  33.034   3.784   4.241
73282NA+    NA+45608  21.093  20.731   0.948
73283NA+    NA+45609  21.730  21.060  11.962
73284NA+    NA+45610  39.986  42.023   0.261
73285NA+    NA+45611  14.271  11.264   1.450
73286NA+    NA+45612  13.325  40.014   0.965
73287NA+    NA+45613  14.097  41.449   3.250
73288NA+    NA+45614  27.676  13.259  13.026
73289NA+    NA+45615  43.358  40.351   0.742
73290NA+    NA+45616   9.242  35.027  14.776
73291NA+    NA+45617  35.934  11.329  10.504
73292NA+    NA+45618  23.734  25.475  10.553
73293NA+    NA+45619  12.333  25.644   4.317
73294NA+    NA+45620   4.864  11.166  12.056
73295NA+    NA+45621  34.015  27.627   1.865
73296NA+    NA+45622   2.797  41.329   2.710
73297NA+    NA+45623   5.212   7.811   2.849
73298NA+    NA+45624  12.689  36.591  13.827
73299NA+    NA+45625  41.423  24.168   4.747
73300NA+    NA+45626  34.441  41.939  13.351
73301NA+    NA+45627  39.904  30.017  12.369
73302NA+    NA+45628  44.921   3.880   3.746
73303NA+    NA+45629  26.632  24.160   3.705
73304NA+    NA+45630  21.714  12.327   1.754
73305NA+    NA+45631  44.301  11.660   4.114
73306NA+    NA+45632   8.287   1.839   0.902
73307NA+    NA+45633  14.674  28.512  13.801
73308NA+    NA+45634  42.510  28.162  14.936
73309NA+    NA+45635  20.614  28.965  12.825
73310NA+    NA+45636  19.051  23.159  13.934
73311NA+    NA+45637   3.237  16.172  13.333
73312NA+    NA+45638  18.597  10.773  10.436
73313NA+    NA+45639  43.305  34.091  14.383
73314NA+    NA+45640   6.302  30.910   4.692
73315NA+    NA+45641  15.596  35.878   2.331
73316NA+    NA+45642  23.240  38.333   3.802
73317NA+    NA+45643  14.820   7.873   0.329
73318NA+    NA+45644  40.309  30.955   2.729
73319NA+    NA+45645   0.756   4.830  11.052
73320NA+    NA+45646  32.083  36.555  12.941
73321NA+    NA+45647  28.978   4.886   3.795
73322NA+    NA+45648  11.200  24.555   2.262
73323NA+    NA+45649  21.560  31.046  10.989
73324NA+    NA+45650  14.773  24.228  12.935
73325NA+    NA+45651   8.759  14.311  11.504
73326NA+    NA+45652  42.346  14.643  12.386
73327NA+    NA+45653  29.169   2.386   2.410
73328NA+    NA+45654  14.237  23.007   0.385
73329NA+    NA+45655   3.388   5.798   4.637
73330NA+    NA+45656  21.593  27.055   3.863
73331NA+    NA+45657  11.198  42.906   0.849
73332NA+    NA+45658   7.293  38.472   2.236
73333NA+    NA+45659  40.412  12.195  13.530
73334NA+    NA+45660  15.604  24.631  13.991
73335NA+    NA+45661  16.576   4.771   0.396
73336NA+    NA+45662  13.838   1.950  11.897
73337NA+    NA+45663   4.230  44.950  12.397
73338NA+    NA+45664   1.880   9.804   0.455
73339NA+    NA+45665  11.740  24.493  13.460
73340NA+    NA+45666  38.823  23.601  10.035
73341NA+    NA+45667  29.506  23.032   4.316
73342NA+    NA+45668  41.895  33.029   2.295
73343NA+    NA+45669  21.640  39.555   2.303
73344NA+    NA+45670   2.372  17.297   0.923
73345NA+    NA+45671  37.873   8.882   4.265
73346NA+    NA+45672  36.094  17.737   1.829
73347NA+    NA+45673  25.000  10.260  10.128
73348NA+    NA+45674  43.423   6.707  13.529
73349NA+    NA+45675  18.612  16.244   3.779
73350NA+    NA+45676  41.032  43.900   2.847
73351NA+    NA+45677  40.029   7.822  12.083
73352NA+    NA+45678  44.477   7.286  12.340
73353NA+    NA+45679  31.061   9.261   4.748
73354NA+    NA+45680   2.817  44.309   0.777
73355NA+    NA+45681  18.148  41.794   3.339
73356NA+    NA+45682  23.175  21.572   4.787
73357NA+    NA+45683   0.760  11.155   2.248
73358NA+    NA+45684  36.505  42.422   1.777
73359NA+    NA+45685  30.525  38.016   3.631
73360NA+    NA+45686   1.886   8.768  13.433
73361NA+    NA+45687   1.877   7.695   0.247
73362NA+    NA+45688  42.480   8.390   0.428
73363NA+    NA+45689   2.260  41.862  12.395
73364NA+    NA+45690  26.987   5.883  11.402
73365NA+    NA+45691  31.493  20.732  11.876
73366NA+    NA+45692  41.039  27.485   3.789
73367NA+    NA+45693  23.149  18.174  13.898
73368NA+    NA+45694  42.859  32.450   4.811
73369NA+    NA+45695  20.079  14.259   1.799
73370NA+    NA+45696  42.320  16.258  12.462
73371NA+    NA+45697  13.806  30.458  11.480
73372NA+    NA+45698  22.114  15.245  13.064
73373NA+    NA+45699  15.104  43.784   4.678
73374NA+    NA+45700  39.444  37.545   2.729
73375NA+    NA+45701   3.953  26.672   0.421
73376NA+    NA+45702  32.439  35.972   1.809
73377NA+    NA+45703  25.174  15.177   3.839
73378NA+    NA+45704   0.427  29.175  14.792
73379NA+    NA+45705   9.198  10.331   1.402
73380NA+    NA+45706  27.604  41.804   1.219
73381NA+    NA+45707  27.043  35.886  11.937
73382NA+    NA+45708  43.459  13.662  10.501
73383NA+    NA+45709  32.539  19.282   3.787
73384NA+    NA+45710  30.065   5.840   4.155
73385NA+    NA+45711  12.761  22.007  12.361
73386NA+    NA+45712  30.074   9.688  13.455
73387NA+    NA+45713  43.405  29.573   4.748
73388NA+    NA+45714  35.088  23.190  11.000
73389NA+    NA+45715  31.077  39.830  13.041
73390NA+    NA+45716  30.601  42.905  10.092
73391NA+    NA+45717  40.009   5.434  11.987
73392NA+    NA+45718   4.921   2.943  10.635
73393NA+    NA+45719  18.567  36.488   1.404
73394NA+    NA+45720  35.465  36.409   4.702
73395NA+    NA+45721  14.680  24.163  14.321
73396NA+    NA+45722  28.538   4.935   4.317
73397NA+    NA+45723  22.591  40.012   3.170
73398NA+    NA+45724  41.923  35.950   3.186
73399NA+    NA+45725   4.319  31.989   3.715
73400NA+    NA+45726   0.746  22.621  12.578
73401NA+    NA+45727  12.796  43.979   2.684
73402NA+    NA+45728  20.046   8.261  13.395
73403NA+    NA+45729   9.229  20.082  14.930
73404NA+    NA+45730  10.739  21.197   2.184
73405NA+    NA+45731  17.230  33.977   0.356
73406NA+    NA+45732  32.920  12.706   2.184
73407NA+    NA+45733  26.629   4.716  10.937
73408NA+    NA+45734  37.547  12.701   2.389
73409NA+    NA+45735  16.076  11.660   0.395
73410NA+    NA+45736  33.410  20.649  13.334
73411NA+    NA+45737   3.952  31.927  14.321
73412NA+    NA+45738   3.854  29.122   4.648
73413NA+    NA+45739  44.425  15.715   2.185
73414NA+    NA+45740  43.865   4.885   0.828
73415NA+    NA+45741  29.460  42.481   4.127
73416NA+    NA+45742  27.141  23.509  14.766
73417NA+    NA+45743  16.598  44.424  14.372
73418NA+    NA+45744  11.800   2.742   1.371
73419NA+    NA+45745   1.253  39.497   2.891
73420NA+    NA+45746  25.656  28.524  13.057
73421NA+    NA+45747  27.082  24.124   3.259
73422NA+    NA+45748   2.346   7.849   4.813
73423NA+    NA+45749  15.232  17.288   3.841
73424NA+    NA+45750  30.034  36.557   1.779
73425NA+    NA+45751  28.938   3.859   4.669
73426NA+    NA+45752  39.885   6.183   1.730
73427NA+    NA+45753   5.361  21.745  11.022
73428NA+    NA+45754  31.908  21.141  14.922
73429NA+    NA+45755  40.889  16.750   4.621
73430NA+    NA+45756  25.088  18.194  13.949
73431NA+    NA+45757  19.764  37.367   2.375
73432NA+    NA+45758  42.941   7.845  11.597
73433NA+    NA+45759  36.062  30.435  12.930
73434NA+    NA+45760  25.519  14.243   0.356
73435NA+    NA+45761   2.828  28.534  13.448
73436NA+    NA+45762  35.399  21.562  11.018
73437NA+    NA+45763  21.598  28.043   3.317
73438NA+    NA+45764  33.897  27.596  13.991
73439NA+    NA+45765  13.690  18.561  13.005
73440NA+    NA+45766  39.915   0.317   0.761
73441NA+    NA+45767  13.258  37.965   4.797
73442NA+    NA+45768  18.141   7.276  14.458
73443NA+    NA+45769  35.053  36.400  12.828
73444NA+    NA+45770   8.804  24.977  10.121
73445NA+    NA+45771  31.016  16.630   0.413
73446NA+    NA+45772  35.390   2.288   1.216
73447NA+    NA+45773  38.458  11.128  14.998
73448NA+    NA+45774  34.369  17.163   3.802
73449NA+    NA+45775   6.715   0.969   2.674
73450NA+    NA+45776   2.389  18.201  12.567
73451NA+    NA+45777  11.715  36.890  13.807
73452NA+    NA+45778   6.865  21.666   1.376
73453NA+    NA+45779  15.219  41.890  12.373
73454NA+    NA+45780  16.309  16.579   3.314
73455NA+    NA+45781   3.843  41.038  11.371
73456NA+    NA+45782  14.633  21.132   2.692
73457NA+    NA+45783  31.422  14.782  14.286
73458NA+    NA+45784  40.047  38.048   0.968
73459NA+    NA+45785   4.846  20.656  13.886
73460NA+    NA+45786  19.550   6.717   3.284
73461NA+    NA+45787  42.482  32.571  13.018
73462NA+    NA+45788  18.672  44.381  13.835
73463NA+    NA+45789  22.112   3.342   4.790
73464NA+    NA+45790  42.405   9.881  11.579
73465NA+    NA+45791  17.678  22.154   2.806
73466NA+    NA+45792   1.913  14.200  11.439
73467NA+    NA+45793  41.950  19.141   2.719
73468NA+    NA+45794  40.535  25.620  10.991
73469NA+    NA+45795  25.178  25.532  11.091
73470NA+    NA+45796  10.831   0.388  12.925
73471NA+    NA+45797  25.163  42.827   4.319
73472NA+    NA+45798  24.132  22.581  11.905
73473NA+    NA+45799  41.301  26.168   1.713
73474NA+    NA+45800  33.442  10.183  11.566
73475NA+    NA+45801  22.607  12.307  12.524
73476NA+    NA+45802  42.929  14.276   2.224
73477NA+    NA+45803  18.772  28.544  12.485
73478NA+    NA+45804  33.504  14.656  13.433
73479NA+    NA+45805  16.078  18.582  12.925
73480NA+    NA+45806  34.605  15.115  12.042
73481NA+    NA+45807  15.174  30.452  12.351
73482NA+    NA+45808   8.175  38.891   2.671
73483NA+    NA+45809  10.201   9.338   0.370
73484NA+    NA+45810  27.537  20.157   0.956
73485NA+    NA+45811  32.004  35.590   1.352
73486NA+    NA+45812   1.318  23.098   4.125
73487NA+    NA+45813  12.845  16.675  11.596
73488NA+    NA+45814  22.520  18.236   9.994
73489NA+    NA+45815  32.083  14.759  14.331
73490NA+    NA+45816  33.999  38.346   2.833
73491NA+    NA+45817  15.175  44.961  13.866
73492NA+    NA+45818   1.241  19.552   3.263
73493NA+    NA+45819   7.196  17.217   3.194
73494NA+    NA+45820  43.395  34.377   4.832
73495NA+    NA+45821  31.909  43.317  10.539
73496NA+    NA+45822  19.247  36.002   2.309
73497NA+    NA+45823   6.779  15.758  10.540
73498NA+    NA+45824  17.277  12.333   2.894
73499NA+    NA+45825  32.506  34.527   4.282
73500NA+    NA+45826  10.691   2.445  10.558
73501NA+    NA+45827   9.373  38.487  12.340
73502NA+    NA+45828  39.460  38.880  13.419
73503NA+    NA+45829  15.731  24.103   4.227
73504NA+    NA+45830   3.831  26.613   0.862
73505NA+    NA+45831  27.471   0.973   3.214
73506NA+    NA+45832   6.294   6.414   5.124
73507NA+    NA+45833  37.579  18.708  14.388
73508NA+    NA+45834  21.128  20.702  10.618
73509NA+    NA+45835  38.380  23.559  11.561
73510NA+    NA+45836  24.109  42.359   2.228
73511NA+    NA+45837  11.638  31.403  11.919
73512NA+    NA+45838   9.706  11.657  13.442
73513NA+    NA+45839   5.781  36.583  11.543
73514NA+    NA+45840  16.196   3.274  12.000
73515NA+    NA+45841  37.970  11.652   4.350
73516NA+    NA+45842  25.050  17.743  12.903
73517NA+    NA+45843  41.304  31.049  10.893
73518NA+    NA+45844  31.430  42.993  13.351
73519NA+    NA+45845  20.653  41.879  10.536
73520NA+    NA+45846  28.163  35.055  12.344
73521NA+    NA+45847  32.505   3.813   0.264
73522NA+    NA+45848  26.461  18.147   2.235
73523NA+    NA+45849   6.905   2.404   3.174
73524NA+    NA+45850  25.996   8.377   0.381
73525NA+    NA+45851  18.287  19.676  14.292
73526NA+    NA+45852  26.060  38.543  11.048
73527NA+    NA+45853  10.328  43.956  12.528
73528NA+    NA+45854  35.417  37.462   0.266
73529NA+    NA+45855  13.626  31.940  14.773
73530NA+    NA+45856  24.478   7.679  13.339
73531NA+    NA+45857   3.741  11.694  11.107
73532NA+    NA+45858   5.368   1.339   3.825
73533NA+    NA+45859  38.841   5.287   3.308
73534NA+    NA+45860  24.613   8.184   4.165
73535NA+    NA+45861   9.791  12.781   0.842
73536NA+    NA+45862   6.420  24.138   0.267
73537NA+    NA+45863  16.225  36.908   1.376
73538NA+    NA+45864  37.341  24.600  13.337
73539NA+    NA+45865   7.198  37.505   1.418
73540NA+    NA+45866  43.893   0.889  11.413
73541NA+    NA+45867  14.321  27.514   0.774
73542NA+    NA+45868   5.196  39.008  13.792
73543NA+    NA+45869  41.949  15.592  11.963
73544NA+    NA+45870  14.806  38.064   0.816
73545NA+    NA+45871  26.658  43.426   3.152
73546NA+    NA+45872  24.554  15.322   1.718
73547NA+    NA+45873  20.111  13.845   3.273
73548NA+    NA+45874  34.015  27.517  11.612
73549NA+    NA+45875  39.892  33.461  13.932
73550NA+    NA+45876  23.049  37.569  14.955
73551NA+    NA+45877  12.208  37.423   0.286
73552NA+    NA+45878  32.057   7.251   4.809
73553NA+    NA+45879  28.521   8.289   4.601
73554NA+    NA+45880  42.790   8.720  13.014
73555NA+    NA+45881  13.267  26.583   9.961
73556NA+    NA+45882  42.910  16.774  14.004
73557NA+    NA+45883  34.015  29.611   0.268
73558NA+    NA+45884   4.394  43.919  12.039
73559NA+    NA+45885  42.912  21.637  10.446
73560NA+    NA+45886   3.432  22.022   1.396
73561NA+    NA+45887  33.583  43.997   0.795
73562NA+    NA+45888  44.433  36.854   3.829
73563NA+    NA+45889  23.490  20.254  13.941
73564NA+    NA+45890  15.637  41.037  14.764
73565NA+    NA+45891  31.025  23.492   3.635
73566NA+    NA+45892   3.265  42.490   0.356
73567NA+    NA+45893  43.282   9.701  13.811
73568NA+    NA+45894  23.588  17.670   3.199
73569NA+    NA+45895  24.140  34.587   1.854
73570NA+    NA+45896  18.158  43.770  12.972
73571NA+    NA+45897   8.292  26.092   3.341
73572NA+    NA+45898  34.502  23.079  13.485
73573NA+    NA+45899  26.661   1.319  14.370
73574NA+    NA+45900   3.874  33.450  14.427
73575NA+    NA+45901  27.940  26.155  11.972
73576NA+    NA+45902  41.468  26.617  10.983
73577NA+    NA+45903  41.315   2.315   0.449
73578NA+    NA+45904  40.901  35.932   4.727
73579NA+    NA+45905  39.042  31.632   0.966
73580NA+    NA+45906   7.417  13.154   0.847
73581NA+    NA+45907  26.095  33.544  13.858
73582NA+    NA+45908  42.023  35.421   1.897
73583NA+    NA+45909  20.663  19.258  12.861
73584NA+    NA+45910  14.159   8.893  13.025
73585NA+    NA+45911  16.567  21.535  14.293
73586NA+    NA+45912  38.455  15.319   0.450
73587NA+    NA+45913  38.910  24.004   1.894
73588NA+    NA+45914  36.905  20.533   4.749
73589NA+    NA+45915   4.422   0.281  13.951
73590NA+    NA+45916  33.072  21.660  13.856
73591NA+    NA+45917  20.596  43.810   0.944
73592NA+    NA+45918  35.439   6.366   2.894
73593NA+    NA+45919   8.263   2.797   2.767
73594NA+    NA+45920  13.712  37.555  10.946
73595NA+    NA+45921  18.191  28.644   2.196
73596NA+    NA+45922  42.983   0.330  10.625
73597NA+    NA+45923  22.234  16.756  12.441
73598NA+    NA+45924   7.869  38.003   1.244
73599NA+    NA+45925  29.491  32.034  12.502
73600NA+    NA+45926   2.319   8.211   1.377
73601NA+    NA+45927   9.742  10.842  14.978
73602NA+    NA+45928   8.333   1.410   0.395
73603NA+    NA+45929  19.157   2.343  14.000
73604NA+    NA+45930  29.547   3.879  10.946
73605NA+    NA+45931   4.206  36.885   3.671
73606NA+    NA+45932  28.976  28.153  13.917
73607NA+    NA+45933   0.770  31.904  12.014
73608NA+    NA+45934  29.497  38.554   1.436
73609NA+    NA+45935  39.848   3.449  12.004
73610NA+    NA+45936  38.028  44.420   3.789
73611NA+    NA+45937  39.993  24.121   1.424
73612NA+    NA+45938  35.512  40.979  12.903
73613NA+    NA+45939   0.925  21.699  11.003
73614NA+    NA+45940  19.154  26.059   1.828
73615NA+    NA+45941  33.430   2.470   4.720
73616NA+    NA+45942  10.335  42.778  14.390
73617NA+    NA+45943  38.403  13.327   3.278
73618NA+    NA+45944   9.836  11.839   3.847
73619NA+    NA+45945   2.898  29.475   3.261
73620NA+    NA+45946  34.024  13.109   3.317
73621NA+    NA+45947   0.389  44.788   0.451
73622NA+    NA+45948  35.431  24.204   4.722
73623NA+    NA+45949   9.734   5.431  10.438
73624NA+    NA+45950  43.766  20.153   3.804
73625NA+    NA+45951   8.691  36.348   0.739
73626NA+    NA+45952   5.358  16.695   3.273
73627NA+    NA+45953  36.441  34.435  11.084
73628NA+    NA+45954  34.459  21.226   2.183
73629NA+    NA+45955  30.602  34.946   1.711
73630NA+    NA+45956  35.579  30.135  13.030
73631NA+    NA+45957  26.070  42.505  11.948
73632NA+    NA+45958  40.311  22.599   1.310
73633NA+    NA+45959   1.804  10.250  14.505
73634NA+    NA+45960  12.856  42.022  10.542
73635NA+    NA+45961  41.857  31.152   1.769
73636NA+    NA+45962  25.690  17.597  10.524
73637NA+    NA+45963   2.413  43.780   2.672
73638NA+    NA+45964  20.527  12.298   4.332
73639NA+    NA+45965   6.384  28.941  14.429
73640NA+    NA+45966  26.084  36.536   1.255
73641NA+    NA+45967  13.712  21.706   0.873
73642NA+    NA+45968   0.374  40.893  10.499
73643NA+    NA+45969  22.239  20.086   3.326
73644NA+    NA+45970  25.004  43.001  11.037
73645NA+    NA+45971  37.555  17.257  14.784
73646NA+    NA+45972  39.917  28.611   0.439
73647NA+    NA+45973   4.304  39.966  14.438
73648NA+    NA+45974  40.966  42.832   1.243
73649NA+    NA+45975   4.264  35.372  11.568
73650NA+    NA+45976  24.193  10.203  14.909
73651NA+    NA+45977  32.899  34.936  14.995
73652NA+    NA+45978  33.042   6.857  11.870
73653NA+    NA+45979  39.389  23.706  11.413
73654NA+    NA+45980   8.206  31.002   1.212
73655NA+    NA+45981  26.096   2.388  12.901
73656NA+    NA+45982  14.759  31.503  14.028
73657NA+    NA+45983  17.210   6.374  12.574
73658NA+    NA+45984  35.074  41.927  14.891
73659NA+    NA+45985  28.117   9.201   1.858
73660NA+    NA+45986  33.574  27.497  10.923
73661NA+    NA+45987  21.700  11.709  14.505
73662NA+    NA+45988  41.520  18.253  12.381
73663NA+    NA+45989  19.570  28.041  10.920
73664NA+    NA+45990  42.800  23.996   1.789
73665NA+    NA+45991  38.003  41.010   1.294
73666NA+    NA+45992  29.435  21.702   2.697
73667NA+    NA+45993  36.061  41.870   3.251
73668NA+    NA+45994  19.081  41.820  13.523
73669NA+    NA+45995  17.768   9.828   0.885
73670NA+    NA+45996  10.353  22.619  11.916
73671NA+    NA+45997  25.677  32.073  12.021
73672NA+    NA+45998  42.932  31.525  11.030
73673NA+    NA+45999  23.686  21.675   2.687
73674NA+    NA+46000  17.802  26.650  11.095
73675NA+    NA+46001  26.042   0.405   0.387
73676NA+    NA+46002  40.807  18.231   0.305
73677NA+    NA+46003  36.018  30.067   4.640
73678NA+    NA+46004  15.719  41.376   3.165
73679NA+    NA+46005  19.126   5.726   3.354
73680NA+    NA+46006  22.050  43.384   4.154
73681NA+    NA+46007  43.483  37.080   1.886
73682NA+    NA+46008  23.139  23.556   0.456
73683NA+    NA+46009   5.226  40.919  13.850
73684NA+    NA+46010  23.671   8.207  10.508
73685NA+    NA+46011  13.721   8.373   1.794
73686NA+    NA+46012  21.701  36.896   4.138
73687NA+    NA+46013  33.009  14.321  13.417
73688NA+    NA+46014   5.832  20.729  14.894
73689NA+    NA+46015  37.990  40.505  12.515
73690NA+    NA+46016  21.090   3.946  12.547
73691NA+    NA+46017  31.927  44.760  10.967
73692NA+    NA+46018  34.042  32.408  12.525
73693NA+    NA+46019  36.455  36.857  12.095
73694NA+    NA+46020  13.227  43.857   1.376
73695NA+    NA+46021  24.066  21.625  12.036
73696NA+    NA+46022  30.073   9.762  11.013
73697NA+    NA+46023   1.285   5.912   2.305
73698NA+    NA+46024  30.516  33.094  13.408
73699NA+    NA+46025   3.922  19.571  12.026
73700NA+    NA+46026  44.951  41.367   1.276
73701NA+    NA+46027  27.966  14.179  11.436
73702NA+    NA+46028  14.824  27.093   1.361
73703NA+    NA+46029   0.398  42.945   5.193
73704NA+    NA+46030  17.747  26.143  10.517
73705NA+    NA+46031  22.058  43.020  12.441
73706NA+    NA+46032   7.269   0.919  14.792
73707NA+    NA+46033  27.671  10.298   2.758
73708NA+    NA+46034  23.616  33.123  12.063
73709NA+    NA+46035  15.803  15.091  14.903
73710NA+    NA+46036  11.132   9.209  14.308
73711NA+    NA+46037  33.595  39.939   0.433
73712NA+    NA+46038  12.310  29.154   3.166
73713NA+    NA+46039  15.299   8.770  11.909
73714NA+    NA+46040  43.787  10.789   1.359
73715NA+    NA+46041  29.590  25.650   2.755
73716NA+    NA+46042  18.686   7.228   4.225
73717NA+    NA+46043  30.574  41.811   4.732
73718NA+    NA+46044   9.338  27.953   3.764
73719NA+    NA+46045  38.342  12.246   3.307
73720NA+    NA+46046  18.189  35.020   3.359
73721NA+    NA+46047  37.062   9.226   1.364
73722NA+    NA+46048  25.971  42.477   4.220
73723NA+    NA+46049   9.665  25.617  11.475
73724NA+    NA+46050  42.933  17.230  11.924
73725NA+    NA+46051  30.489  10.150  12.854
73726NA+    NA+46052  21.017  26.537   0.892
73727NA+    NA+46053  44.406  12.617   2.779
73728NA+    NA+46054  26.105  26.697   4.249
73729NA+    NA+46055   1.380   4.322  12.386
73730NA+    NA+46056  34.598  16.075   2.187
73731NA+    NA+46057  20.116  12.830  11.501
73732NA+    NA+46058   6.690  18.281  11.440
73733NA+    NA+46059  44.836   3.388  11.959
73734NA+    NA+46060  10.258  21.038  13.465
73735NA+    NA+46061   3.847   0.920  14.450
73736NA+    NA+46062  13.171  36.844  10.452
73737NA+    NA+46063   3.864  12.822  13.414
73738NA+    NA+46064  28.090   2.343   3.326
73739NA+    NA+46065  32.616  12.238   0.359
73740NA+    NA+46066  10.812  20.547  14.381
73741NA+    NA+46067  41.875  13.270  14.796
73742NA+    NA+46068   6.310  22.712  13.049
73743NA+    NA+46069  31.498   9.878   1.862
73744NA+    NA+46070  17.105   6.742  13.526
73745NA+    NA+46071  38.372  44.421   1.882
73746NA+    NA+46072   2.775  33.117  11.479
73747NA+    NA+46073   7.746  33.887   3.775
73748NA+    NA+46074  26.549  24.637  12.922
73749NA+    NA+46075  18.552  19.711   3.660
73750NA+    NA+46076  10.284  15.809  14.882
73751NA+    NA+46077  41.794  13.325  14.300
73752NA+    NA+46078  38.966   8.862   2.392
73753NA+    NA+46079  38.553  37.046  14.389
73754NA+    NA+46080  12.350  11.269   0.348
73755NA+    NA+46081   1.261   7.762   4.222
73756NA+    NA+46082   4.717   1.301   5.225
73757NA+    NA+46083   5.223  17.777   4.222
73758NA+    NA+46084   8.381  19.078   3.186
73759NA+    NA+46085  30.057  32.596  11.005
73760NA+    NA+46086   7.905   0.969  11.125
73761NA+    NA+46087   4.793  39.872  13.821
73762NA+    NA+46088  42.496  32.404   0.772
73763NA+    NA+46089  30.571  23.124  10.586
73764NA+    NA+46090  17.176   2.286   2.280
73765NA+    NA+46091  24.628   8.397  12.409
73766NA+    NA+46092  25.606  33.909   0.347
73767NA+    NA+46093  14.771  39.930  12.487
73768NA+    NA+46094  19.207  21.182   2.295
73769NA+    NA+46095   1.750  17.227   3.816
73770NA+    NA+46096  24.560  36.973  14.453
73771NA+    NA+46097  20.177  44.992   3.721
73772NA+    NA+46098  18.156  17.295  13.014
73773NA+    NA+46099  25.148  13.750   2.354
73774NA+    NA+46100  18.790   6.894  10.454
73775NA+    NA+46101   0.961  18.748  14.494
73776NA+    NA+46102  42.355  26.145  10.532
73777NA+    NA+46103  43.826  39.910   1.263
73778NA+    NA+46104  17.721  43.783  14.477
73779NA+    NA+46105   8.821  24.185   0.306
73780NA+    NA+46106   5.383  37.468   0.382
73781NA+    NA+46107  42.458   0.347  11.872
73782NA+    NA+46108   0.373   9.671   0.829
73783NA+    NA+46109   2.788  33.589  13.511
73784NA+    NA+46110  24.188  28.624  10.453
73785NA+    NA+46111  21.541  15.760  12.339
73786NA+    NA+46112  18.706  21.249   0.436
73787NA+    NA+46113  14.196   9.730   2.808
73788NA+    NA+46114  44.356  42.803   4.828
73789NA+    NA+46115  44.875  39.917  10.905
73790NA+    NA+46116  17.302   1.918   4.180
73791NA+    NA+46117  43.388  26.209   4.300
73792NA+    NA+46118  11.765  35.412   0.273
73793NA+    NA+46119  35.582  26.097   4.132
73794NA+    NA+46120  16.124  25.199   0.371
73795NA+    NA+46121   4.420   6.922  12.448
73796NA+    NA+46122  32.021  11.218  13.950
73797NA+    NA+46123  38.460   8.895  12.838
73798NA+    NA+46124  26.980  17.135   1.442
73799NA+    NA+46125  12.802  12.789  11.531
73800NA+    NA+46126   1.401  21.718  11.602
73801NA+    NA+46127  16.085  11.134  14.365
73802NA+    NA+46128  12.824  18.706   3.230
73803NA+    NA+46129  12.765  40.525  12.951
73804NA+    NA+46130  26.205  27.029   5.787
73805NA+    NA+46131  41.464  43.921   2.742
73806NA+    NA+46132  12.826  37.992  12.087
73807NA+    NA+46133  32.938  13.712   0.386
73808NA+    NA+46134  27.107  37.412   2.889
73809NA+    NA+46135  32.002  15.776  12.038
73810NA+    NA+46136  26.112  28.588   0.736
73811NA+    NA+46137  31.140   1.972   3.807
73812NA+    NA+46138  21.071  20.589   1.307
73813NA+    NA+46139  23.570   4.720  11.486
73814NA+    NA+46140  11.267  28.140   1.251
73815NA+    NA+46141  15.084  41.931  14.485
73816NA+    NA+46142  26.634  41.330  13.965
73817NA+    NA+46143  43.462   7.892   2.833
73818NA+    NA+46144  36.016  19.621  10.621
73819NA+    NA+46145   2.378  11.776   5.317
73820NA+    NA+46146   4.838   5.770   1.446
73821NA+    NA+46147  32.540  39.406  10.547
73822NA+    NA+46148  20.547   3.351  14.937
73823NA+    NA+46149  16.743  20.060   0.274
73824NA+    NA+46150  23.506  10.873   2.194
73825NA+    NA+46151  16.179  28.451  11.058
73826NA+    NA+46152   3.785  28.120   4.268
73827NA+    NA+46153  40.488  19.712  12.845
73828NA+    NA+46154  42.842  11.797  11.869
73829NA+    NA+46155  32.900  31.914   1.214
73830NA+    NA+46156  26.585   5.708   2.298
73831NA+    NA+46157  33.110  12.248  11.093
73832NA+    NA+46158  14.696   5.838   4.119
73833NA+    NA+46159  38.873  18.675  11.924
73834NA+    NA+46160  41.362  13.766  11.007
73835NA+    NA+46161  37.837   3.274   3.811
73836NA+    NA+46162  21.195  22.610   3.275
73837NA+    NA+46163  33.010  32.995   4.814
73838NA+    NA+46164  25.690   3.858  14.437
73839NA+    NA+46165  27.526  12.221   1.753
73840NA+    NA+46166  25.564  35.597   0.833
73841NA+    NA+46167  34.553  40.318  12.060
73842NA+    NA+46168  43.893  40.006   2.882
73843NA+    NA+46169  15.137  14.235  11.116
73844NA+    NA+46170  28.562  42.013   1.309
73845NA+    NA+46171  25.669  20.106  11.403
73846NA+    NA+46172  30.508  44.444  12.858
73847NA+    NA+46173  44.328  11.353   3.369
73848NA+    NA+46174  27.591   6.916   4.809
73849NA+    NA+46175  30.584  29.532  14.417
73850NA+    NA+46176   2.235   2.881   2.226
73851NA+    NA+46177  25.612  42.372   4.771
73852NA+    NA+46178  20.151  38.990   0.458
73853NA+    NA+46179  17.295  39.970   0.763
73854NA+    NA+46180  28.064  14.148   2.256
73855NA+    NA+46181  31.046  40.530  12.569
73856NA+    NA+46182   7.203  12.827   3.786
73857NA+    NA+46183  25.964  16.136   1.351
73858NA+    NA+46184  22.166  13.708   3.158
73859NA+    NA+46185   7.238  12.196  12.416
73860NA+    NA+46186  28.169  24.043   3.687
73861NA+    NA+46187  44.311  42.963  12.352
73862NA+    NA+46188  21.532  37.387  11.375
73863NA+    NA+46189  18.133  10.745   2.768
73864NA+    NA+46190  15.628  17.177  14.488
73865NA+    NA+46191  27.188   5.929  12.849
73866NA+    NA+46192  28.033  29.125   3.323
73867NA+    NA+46193   2.427  39.040   3.670
73868NA+    NA+46194  20.600  21.704   2.348
73869NA+    NA+46195  12.706  34.584   0.947
73870NA+    NA+46196  15.230   0.333  14.897
73871NA+    NA+46197  17.724  15.620  11.943
73872NA+    NA+46198  42.866  40.341   3.199
73873NA+    NA+46199  27.648  22.571   0.367
73874NA+    NA+46200  17.766   5.889  11.878
73875NA+    NA+46201  44.919  24.033  13.355
73876NA+    NA+46202  20.561  14.594   3.667
73877NA+    NA+46203  32.567  20.767  12.381
73878NA+    NA+46204  42.329   8.270   1.240
73879NA+    NA+46205   8.887  43.987   0.483
73880NA+    NA+46206  38.979  17.295   2.809
73881NA+    NA+46207  13.241  28.550  12.579
73882NA+    NA+46208   3.296  14.682  14.389
73883NA+    NA+46209  10.209  37.488  12.491
73884NA+    NA+46210  41.837  38.352   2.731
73885NA+    NA+46211  37.446  39.448   0.937
73886NA+    NA+46212  33.087  42.388  12.565
73887NA+    NA+46213  18.094  23.139  11.125
73888NA+    NA+46214  43.970  33.443  10.436
73889NA+    NA+46215   0.372  13.718   3.367
73890NA+    NA+46216  26.987   2.472  14.466
73891NA+    NA+46217  37.403  32.493   3.867
73892NA+    NA+46218  25.630   0.294   0.731
73893NA+    NA+46219  38.491  30.991   4.754
73894NA+    NA+46220  10.256  40.341  13.307
73895NA+    NA+46221  39.883   9.676   4.725
73896NA+    NA+46222  11.663  12.310  12.425
73897NA+    NA+46223   5.428  30.428   0.794
73898NA+    NA+46224   1.898  21.058   4.732
73899NA+    NA+46225   3.884  42.410  10.978
73900NA+    NA+46226  15.624  38.018   3.714
73901NA+    NA+46227  33.099  43.851   0.277
73902NA+    NA+46228  18.086  32.481  10.967
73903NA+    NA+46229  21.541  16.128  12.554
73904NA+    NA+46230  37.499  26.570   0.842
73905NA+    NA+46231  24.600  25.707  14.001
73906NA+    NA+46232  38.997  17.741   4.231
73907NA+    NA+46233  39.902   5.373  12.427
73908NA+    NA+46234  16.087  19.642   2.813
73909NA+    NA+46235  43.414  38.964  12.466
73910NA+    NA+46236  26.561  29.535  13.350
73911NA+    NA+46237   7.261   6.426  11.587
73912NA+    NA+46238   8.867  35.567  14.470
73913NA+    NA+46239   0.838  18.689  11.380
73914NA+    NA+46240  44.297  10.667   5.158
73915NA+    NA+46241  33.440  15.191   3.738
73916NA+    NA+46242  23.067   0.797   1.736
73917NA+    NA+46243  43.380   1.294  14.485
73918NA+    NA+46244  31.068  14.788   4.289
73919NA+    NA+46245  30.610   2.877  10.466
73920NA+    NA+46246  40.527  27.111  12.339
73921NA+    NA+46247  34.009   6.368  14.838
73922NA+    NA+46248  32.924  24.712  11.462
73923NA+    NA+46249   8.677  40.950  11.612
73924NA+    NA+46250  34.079   2.418   2.901
73925NA+    NA+46251  43.458   0.340  14.917
73926NA+    NA+46252  11.354  23.621  10.950
73927NA+    NA+46253  24.479   2.415  11.419
73928NA+    NA+46254  16.757  20.125  12.465
73929NA+    NA+46255   1.263  26.684  11.054
73930NA+    NA+46256  22.702  36.041  11.910
73931NA+    NA+46257  29.606   0.809   2.901
73932NA+    NA+46258   7.818  26.487   1.935
73933NA+    NA+46259  42.852   2.300   0.416
73934NA+    NA+46260  14.108  38.430  14.856
73935NA+    NA+46261  12.237  33.599   3.217
73936NA+    NA+46262   8.266   6.728   4.293
73937NA+    NA+46263  31.405  23.116   4.714
73938NA+    NA+46264   3.894  27.954  13.325
73939NA+    NA+46265   9.381  19.583  14.830
73940NA+    NA+46266  22.020  36.054  14.986
73941NA+    NA+46267  20.130  36.914  12.046
73942NA+    NA+46268  18.692   4.829  13.874
73943NA+    NA+46269  17.665  44.362  12.888
73944NA+    NA+46270  27.035   7.870  12.398
73945NA+    NA+46271  42.883  16.253  10.577
73946NA+    NA+46272  21.085  17.723   1.913
73947NA+    NA+46273  15.607  23.686   2.825
73948NA+    NA+46274  10.824   7.185  13.938
73949NA+    NA+46275  43.446   3.450   0.252
73950NA+    NA+46276  24.670  39.421   9.618
73951NA+    NA+46277  39.889  20.176  10.935
73952NA+    NA+46278  30.115  22.554   1.757
73953NA+    NA+46279   0.836  43.486  13.896
73954NA+    NA+46280  43.513  29.668   3.244
73955NA+    NA+46281  27.058  28.637  14.405
73956NA+    NA+46282  19.675  34.558  11.569
73957NA+    NA+46283   8.820   5.837  11.912
73958NA+    NA+46284  23.542  40.971  11.937
73959NA+    NA+46285  35.890  19.667  11.108
73960NA+    NA+46286  38.964   7.837  12.567
73961NA+    NA+46287  36.845   2.267  11.079
73962NA+    NA+46288  21.075  27.506  11.113
73963NA+    NA+46289  29.016  27.544  10.024
73964NA+    NA+46290  20.172   1.413  13.424
73965NA+    NA+46291  38.962  18.276  14.355
73966NA+    NA+46292  28.468  28.135   0.786
73967NA+    NA+46293  13.635  17.104   3.338
73968NA+    NA+46294   8.370  18.143  12.342
73969NA+    NA+46295  23.033  11.663   2.327
73970NA+    NA+46296  17.655  39.419  11.382
73971NA+    NA+46297  18.133  41.924  11.027
73972NA+    NA+46298  19.221   9.799  13.507
73973NA+    NA+46299   3.318  20.143  10.601
73974NA+    NA+46300  18.084  10.284   4.334
73975NA+    NA+46301  25.962  18.154   4.606
73976NA+    NA+46302  10.345   6.910  10.508
73977NA+    NA+46303  11.759  33.517  12.054
73978NA+    NA+46304  26.652  34.382   2.900
73979NA+    NA+46305   2.279   3.899  13.538
73980NA+    NA+46306  36.042  33.384   4.200
73981NA+    NA+46307   4.283  42.307  13.913
73982NA+    NA+46308  24.149  15.679  12.878
73983NA+    NA+46309  43.512  44.385   0.823
73984NA+    NA+46310   1.248  24.497  11.949
73985NA+    NA+46311  18.217  44.793  13.334
73986NA+    NA+46312   6.366  25.604   1.384
73987NA+    NA+46313  35.369  35.075  12.556
73988NA+    NA+46314  40.543  10.758  10.487
73989NA+    NA+46315   8.230  37.071  10.615
73990NA+    NA+46316   6.825  11.234  13.850
73991NA+    NA+46317  14.251  29.106  12.379
73992NA+    NA+46318  13.264   2.379  11.447
73993NA+    NA+46319  13.608  29.469   2.268
73994NA+    NA+46320   9.310   2.888  12.961
73995NA+    NA+46321  10.813  43.472  12.409
73996NA+    NA+46322  13.715  38.548  14.960
73997NA+    NA+46323   4.727  18.147  14.876
73998NA+    NA+46324  11.250  20.055   3.287
73999NA+    NA+46325  22.582  27.643  13.868
74000NA+    NA+46326  26.526  16.751   0.791
74001NA+    NA+46327   0.484   4.929   4.607
74002NA+    NA+46328  12.127   6.920  10.929
74003NA+    NA+46329  35.500  20.549  12.467
74004NA+    NA+46330  43.279   3.817  11.582
74005NA+    NA+46331  38.464  19.160   1.738
74006NA+    NA+46332  24.621  41.407  13.025
74007NA+    NA+46333   8.271  31.129  10.625
74008NA+    NA+46334  39.404  26.670  11.901
74009NA+    NA+46335  19.733  23.505  14.294
74010NA+    NA+46336   2.422   0.470   4.820
74011NA+    NA+46337  20.630   0.314   4.688
74012NA+    NA+46338   0.865  35.099  10.964
74013NA+    NA+46339  20.166   7.310   5.221
74014NA+    NA+46340  16.268  32.421   1.780
74015NA+    NA+46341  34.371   7.210  13.539
74016NA+    NA+46342   9.888   2.400   0.361
74017NA+    NA+46343   2.951   4.328   4.118
74018NA+    NA+46344  18.155  29.644  11.470
74019NA+    NA+46345   2.850  33.908  10.947
74020NA+    NA+46346  14.752  16.718   2.408
74021NA+    NA+46347  26.094   5.278   4.686
74022NA+    NA+46348  39.409  14.730  11.963
74023NA+    NA+46349  38.454  28.565   1.322
74024NA+    NA+46350  11.249   0.822   1.898
74025NA+    NA+46351   8.322  10.240   4.667
74026NA+    NA+46352  34.892  23.120  13.969
74027NA+    NA+46353  17.697   4.364   3.841
74028NA+    NA+46354   8.346  41.901  11.607
74029NA+    NA+46355  16.225  36.970   4.799
74030NA+    NA+46356   2.902  23.119  14.490
74031NA+    NA+46357  26.565  10.200   2.790
74032NA+    NA+46358  34.572  15.742  11.485
74033NA+    NA+46359  26.477  17.177  11.463
74034NA+    NA+46360  33.015  40.522  11.527
74035NA+    NA+46361  11.216  20.583   0.293
74036NA+    NA+46362  26.529  24.116  12.913
74037NA+    NA+46363  29.438  26.076  10.055
74038NA+    NA+46364  36.013  32.429  13.956
74039NA+    NA+46365  43.008  29.153  13.485
74040NA+    NA+46366  35.055  24.625  13.889
74041NA+    NA+46367  19.630  33.515   4.130
74042NA+    NA+46368   2.774  36.988  13.933
74043NA+    NA+46369  17.287  33.066  10.534
74044NA+    NA+46370  16.225  12.162  11.931
74045NA+    NA+46371  22.239   7.366   4.685
74046NA+    NA+46372  17.787   7.365  11.602
74047NA+    NA+46373  24.690  26.982  13.036
74048NA+    NA+46374  26.981  31.151   1.391
74049NA+    NA+46375  43.954  10.759   2.771
74050NA+    NA+46376  26.112  27.481  11.552
74051NA+    NA+46377   1.909   9.221  12.973
74052NA+    NA+46378  37.865   4.330   3.662
74053NA+    NA+46379  30.065  24.720  11.100
74054NA+    NA+46380  29.112   1.292   0.468
74055NA+    NA+46381  24.027  37.832   4.821
74056NA+    NA+46382   0.910  27.448   3.302
74057NA+    NA+46383  13.694  41.982  13.846
74058NA+    NA+46384  18.205   2.953  13.332
74059NA+    NA+46385  28.471   8.751  14.953
74060NA+    NA+46386   0.376   9.836  11.110
74061NA+    NA+46387   1.327  34.917   3.832
74062NA+    NA+46388   0.756  42.903  13.021
74063NA+    NA+46389  28.592  13.809  10.973
74064NA+    NA+46390  20.217  21.701  11.572
74065NA+    NA+46391  41.015  25.704  11.048
74066NA+    NA+46392  11.172  24.178   4.726
74067NA+    NA+46393  19.071  30.056  14.353
74068NA+    NA+46394  27.142  39.362   4.146
74069NA+    NA+46395  12.268  15.137   4.630
74070NA+    NA+46396  22.651  27.658  14.903
74071NA+    NA+46397  34.904  35.563  14.423
74072NA+    NA+46398  39.945  27.978  13.346
74073NA+    NA+46399  17.207  32.501  12.926
74074NA+    NA+46400  11.154  40.429   3.847
74075NA+    NA+46401  20.090  21.541  10.924
74076NA+    NA+46402  37.940  13.106   5.585
74077NA+    NA+46403  26.512  16.295  12.001
74078NA+    NA+46404  18.696  37.007   0.433
74079NA+    NA+46405  24.512   4.828  14.879
74080NA+    NA+46406  15.606   3.442  10.957
74081NA+    NA+46407  38.978  44.787   4.348
74082NA+    NA+46408   9.394  14.150   3.712
74083NA+    NA+46409   7.283   4.901   4.332
74084NA+    NA+46410  39.846  11.302   3.690
74085NA+    NA+46411   0.926  42.782  11.082
74086NA+    NA+46412  34.608   5.358  11.080
74087NA+    NA+46413  18.209  39.522  12.391
74088NA+    NA+46414  21.243  24.621   0.738
74089NA+    NA+46415  37.532  41.933  10.464
74090NA+    NA+46416  38.853  15.722  11.111
74091NA+    NA+46417  26.650   6.715   0.435
74092NA+    NA+46418   7.307  28.950   3.200
74093NA+    NA+46419  26.007  20.604  12.839
74094NA+    NA+46420  25.026  21.148  11.932
74095NA+    NA+46421  23.698  19.146  10.460
74096NA+    NA+46422  40.416  19.717   4.717
74097NA+    NA+46423  31.616   3.303  11.897
74098NA+    NA+46424  42.807  36.922   4.198
74099NA+    NA+46425  32.948  38.466   3.370
74100NA+    NA+46426  10.359   9.666  14.310
74101NA+    NA+46427  38.837  33.890  14.849
74102NA+    NA+46428   6.714   2.941   3.305
74103NA+    NA+46429  27.080  27.941   3.810
74104NA+    NA+46430  38.825  43.975  14.804
74105NA+    NA+46431   4.250   1.326   2.902
74106NA+    NA+46432  37.452  13.188   1.234
74107NA+    NA+46433   1.848   6.707   0.800
74108NA+    NA+46434  19.065  39.906   3.856
74109NA+    NA+46435  38.462  23.585   4.633
74110NA+    NA+46436  14.800  13.609   4.717
74111NA+    NA+46437  34.086   9.774   2.295
74112NA+    NA+46438  44.954  24.580  14.987
74113NA+    NA+46439   6.827  12.169  14.009
74114NA+    NA+46440  41.823  17.744  11.125
74115NA+    NA+46441  15.259  18.662   0.441
74116NA+    NA+46442  12.830  22.243  10.921
74117NA+    NA+46443  37.040  32.532  13.885
74118NA+    NA+46444  13.316  41.331   4.776
74119NA+    NA+46445  41.920  32.539   0.277
74120NA+    NA+46446  10.712   5.259  13.506
74121NA+    NA+46447   4.313   7.788  12.850
74122NA+    NA+46448  36.477  12.187   4.746
74123NA+    NA+46449  40.440   7.229  11.086
74124NA+    NA+46450  13.674   3.423   4.316
74125NA+    NA+46451  40.457  35.370  12.088
74126NA+    NA+46452  25.097  16.087   4.736
74127NA+    NA+46453   0.914   0.260  11.075
74128NA+    NA+46454   6.729   6.748  10.417
74129NA+    NA+46455  40.484  44.450  14.331
74130NA+    NA+46456  36.047  12.344   2.259
74131NA+    NA+46457  23.580   8.795   3.708
74132NA+    NA+46458  36.925  37.420  10.530
74133NA+    NA+46459   2.413   1.237  13.465
74134NA+    NA+46460  24.021  34.952   2.219
74135NA+    NA+46461   6.700  16.314   0.823
74136NA+    NA+46462  25.540  44.904   0.283
74137NA+    NA+46463  14.153  29.174   3.638
74138NA+    NA+46464  42.859   7.674   0.354
74139NA+    NA+46465  30.625  21.205  10.426
74140NA+    NA+46466  32.123  38.843  14.500
74141NA+    NA+46467  26.471   9.809   1.903
74142NA+    NA+46468   1.771  16.569   4.266
74143NA+    NA+46469  38.076  43.384   3.381
74144NA+    NA+46470   9.344   2.232   2.687
74145NA+    NA+46471  25.012  37.924  14.496
74146NA+    NA+46472  17.125  15.256  10.590
74147NA+    NA+46473  25.711  25.583   1.885
74148NA+    NA+46474  33.547  33.934   0.277
74149NA+    NA+46475  17.783  31.491   1.344
74150NA+    NA+46476  35.437  28.981  13.867
74151NA+    NA+46477  30.563  27.505   3.292
74152NA+    NA+46478   9.850  17.300  10.466
74153NA+    NA+46479  18.198  13.833   2.378
74154NA+    NA+46480   1.306  42.853  14.336
74155NA+    NA+46481  23.213   4.755   0.255
74156NA+    NA+46482  34.934   2.281   3.855
74157NA+    NA+46483  11.138  43.446  14.333
74158NA+    NA+46484  42.516  44.465  14.322
74159NA+    NA+46485  42.328  10.794   3.662
74160NA+    NA+46486   9.728  21.645  11.396
74161NA+    NA+46487  19.133  16.743  10.509
74162NA+    NA+46488  36.475  12.305  11.391
74163NA+    NA+46489   9.284  20.619  11.902
74164NA+    NA+46490  37.838  23.512   2.833
74165NA+    NA+46491  38.943  10.683  11.916
74166NA+    NA+46492  35.088  29.541   3.812
74167NA+    NA+46493  26.080  11.745   0.272
74168NA+    NA+46494  32.085   7.823   0.913
74169NA+    NA+46495  29.597  13.817  11.545
74170NA+    NA+46496  34.919  28.081  11.613
74171NA+    NA+46497  18.173  30.543   2.195
74172NA+    NA+46498  40.443  13.194  14.371
74173NA+    NA+46499   4.420  42.898   3.814
74174NA+    NA+46500  34.601   5.209  14.006
74175NA+    NA+46501   5.836  38.895   4.721
74176NA+    NA+46502  23.211  37.856  11.024
74177NA+    NA+46503  37.927  14.321   4.833
74178NA+    NA+46504  12.262  44.355  12.073
74179NA+    NA+46505  25.095  42.497  14.936
74180NA+    NA+46506  38.883  33.973  12.085
74181NA+    NA+46507  29.660  34.097  11.126
74182NA+    NA+46508  33.992  36.093   0.479
74183NA+    NA+46509  26.543   5.851   1.918
74184NA+    NA+46510  13.349  25.058  10.421
74185NA+    NA+46511  23.724  37.015   0.796
74186NA+    NA+46512  18.682  28.653   4.241
74187NA+    NA+46513  26.659   5.228  14.010
74188NA+    NA+46514   4.375  31.640   1.695
74189NA+    NA+46515   4.721  39.933   4.692
74190NA+    NA+46516  23.202   4.943  13.993
74191NA+    NA+46517  40.482  16.783  12.912
74192NA+    NA+46518  37.877  22.037   0.433
74193NA+    NA+46519  30.971  27.015   3.634
74194NA+    NA+46520  44.293  13.303   3.722
74195NA+    NA+46521   3.791  21.717  12.449
74196NA+    NA+46522  10.323  36.032   2.704
74197NA+    NA+46523  34.467  24.602   3.357
74198NA+    NA+46524  16.270  35.010  11.030
74199NA+    NA+46525  23.625   5.297  14.839
74200NA+    NA+46526   8.887  17.305   2.799
74201NA+    NA+46527  17.142  42.357  12.548
74202NA+    NA+46528  34.423  11.358  11.421
74203NA+    NA+46529   1.898  15.649  14.772
74204NA+    NA+46530  11.272  34.003  13.523
74205NA+    NA+46531  30.055   5.303  12.441
74206NA+    NA+46532   8.855  19.284   1.356
74207NA+    NA+46533  28.168  11.765  13.314
74208NA+    NA+46534   3.919  40.517   0.726
74209NA+    NA+46535   2.887  29.434   1.811
74210NA+    NA+46536  44.802   9.228   3.869
74211NA+    NA+46537  10.727  16.611  10.912
74212NA+    NA+46538  33.404  13.240  13.995
74213NA+    NA+46539  31.513  26.181  11.018
74214NA+    NA+46540  41.358  28.076   4.272
74215NA+    NA+46541  13.231   4.229  11.105
74216NA+    NA+46542  14.727  36.557   2.263
74217NA+    NA+46543  28.979   3.236   2.732
74218NA+    NA+46544   0.378  16.721  14.903
74219NA+    NA+46545   2.904  37.839   1.323
74220NA+    NA+46546  17.623  29.063  14.851
74221NA+    NA+46547   9.335  38.330  11.082
74222NA+    NA+46548  38.987  34.070  11.549
74223NA+    NA+46549   1.791  41.414  11.982
74224NA+    NA+46550  18.075  40.837   4.179
74225NA+    NA+46551  43.863  32.562   0.430
74226NA+    NA+46552  23.146  31.946  14.472
74227NA+    NA+46553  25.492   5.268   1.848
74228NA+    NA+46554  21.610   2.307  12.838
74229NA+    NA+46555  36.434  21.221   3.145
74230NA+    NA+46556  23.545   5.818   2.304
74231NA+    NA+46557   8.862  38.055  13.468
74232NA+    NA+46558   5.260  20.149  11.127
74233NA+    NA+46559  26.030  27.457   0.386
74234NA+    NA+46560   5.277   1.359   1.879
74235NA+    NA+46561  19.543  28.075   0.908
74236NA+    NA+46562  40.333   1.393  12.995
74237NA+    NA+46563  31.966  12.834   1.257
74238NA+    NA+46564  26.964  44.898  10.919
74239NA+    NA+46565   0.937  39.838   4.278
74240NA+    NA+46566  41.786  35.573   2.716
74241NA+    NA+46567  43.484  32.131  10.923
74242NA+    NA+46568  20.547   1.293   0.949
74243NA+    NA+46569  37.086  37.581  13.909
74244NA+    NA+46570  17.665   8.791  11.957
74245NA+    NA+46571  37.968  24.539  12.045
74246NA+    NA+46572   7.894  25.522   0.372
74247NA+    NA+46573   6.780  25.551  14.373
74248NA+    NA+46574  20.579  26.132  11.929
74249NA+    NA+46575  19.664  40.924   4.254
74250NA+    NA+46576  21.155   7.672  10.534
74251NA+    NA+46577  33.102   6.880   3.176
74252NA+    NA+46578   9.782  11.217  11.414
74253NA+    NA+46579  15.630  42.522  12.931
74254NA+    NA+46580  41.009  34.556  13.494
74255NA+    NA+46581  22.708  32.590  13.988
74256NA+    NA+46582  37.024  22.140   0.383
74257NA+    NA+46583   3.870   4.945   4.808
74258NA+    NA+46584  13.124  28.045   4.311
74259NA+    NA+46585   3.713  43.947  10.889
74260NA+    NA+46586  24.522  34.472   4.121
74261NA+    NA+46587  16.185  34.990   0.307
74262NA+    NA+46588  27.569  34.403  11.092
74263NA+    NA+46589  11.689  34.962   0.887
74264NA+    NA+46590  15.718  11.805   2.873
74265NA+    NA+46591  12.303   7.821   0.732
74266NA+    NA+46592  40.401   8.855  11.857
74267NA+    NA+46593  29.615  34.910   1.886
74268NA+    NA+46594  32.050   2.910  14.330
74269NA+    NA+46595   8.378  20.046   0.429
74270NA+    NA+46596   7.205   3.456  14.797
74271NA+    NA+46597  32.985  22.198   0.758
74272NA+    NA+46598  18.722   0.445  14.835
74273NA+    NA+46599  23.098  10.799  11.106
74274NA+    NA+46600  19.587  26.489  12.827
74275NA+    NA+46601   7.312  43.335  13.912
74276NA+    NA+46602   1.463  32.090  14.870
74277NA+    NA+46603  15.669  35.864   1.243
74278NA+    NA+46604   3.853   2.778   3.637
74279NA+    NA+46605  41.381  23.140   0.282
74280NA+    NA+46606   5.325  32.108  11.098
74281NA+    NA+46607   7.202  26.490  10.904
74282NA+    NA+46608  31.970  19.680  10.888
74283NA+    NA+46609  27.144  35.106  12.379
74284NA+    NA+46610  41.445  13.137   2.231
74285NA+    NA+46611   0.466  40.861  12.565
74286NA+    NA+46612  38.418  17.679   3.711
74287NA+    NA+46613   7.321  14.256  13.793
74288NA+    NA+46614  19.603  39.915  13.827
74289NA+    NA+46615  27.094  26.678  13.970
74290NA+    NA+46616  31.129  26.595   3.384
74291NA+    NA+46617  36.027   1.943  10.638
74292NA+    NA+46618   8.195   3.861  11.035
74293NA+    NA+46619   5.206  26.679   1.449
74294NA+    NA+46620  21.728  20.627  11.116
74295NA+    NA+46621   4.723  33.590   2.724
74296NA+    NA+46622  40.514  44.279   1.699
74297NA+    NA+46623  30.543  39.002  12.444
74298NA+    NA+46624   1.403  28.133  11.098
74299NA+    NA+46625   7.414  26.112  12.343
74300NA+    NA+46626  27.079  26.057  11.061
74301NA+    NA+46627  34.975   8.837  11.121
74302NA+    NA+46628  40.967   9.864  13.351
74303NA+    NA+46629  30.129  30.919  11.602
74304NA+    NA+46630  23.025  16.244  12.509
74305NA+    NA+46631  19.563  22.714   0.314
74306NA+    NA+46632  13.634   3.838   4.169
74307NA+    NA+46633  24.719  17.070  11.101
74308NA+    NA+46634  42.365  38.892  11.934
74309NA+    NA+46635  39.042  14.712   1.799
74310NA+    NA+46636  42.904   7.713   4.669
74311NA+    NA+46637  40.054  31.518   4.650
74312NA+    NA+46638  28.080  29.489  13.518
74313NA+    NA+46639  18.184  12.781  13.825
74314NA+    NA+46640  33.934  33.458   0.249
74315NA+    NA+46641  41.486  42.518   1.813
74316NA+    NA+46642  20.567  25.053  14.847
74317NA+    NA+46643  37.871   7.215   0.796
74318NA+    NA+46644  36.891  41.376   3.833
74319NA+    NA+46645  29.154  29.147   0.379
74320NA+    NA+46646  37.861  36.858  11.953
74321NA+    NA+46647  10.379   4.699   5.116
74322NA+    NA+46648  26.695  18.722  12.509
74323NA+    NA+46649  22.223  34.093   0.864
74324NA+    NA+46650  21.062   8.722   4.192
74325NA+    NA+46651  15.100  37.337  12.831
74326NA+    NA+46652  18.564   3.402  13.318
74327NA+    NA+46653  39.456  33.558   2.277
74328NA+    NA+46654  20.586   1.324  11.903
74329NA+    NA+46655  36.866   5.376  14.426
74330NA+    NA+46656  38.414   3.440  13.797
74331NA+    NA+46657  19.657  28.527  10.566
74332NA+    NA+46658  10.830  38.022  10.461
74333NA+    NA+46659  30.609  31.996  11.391
74334NA+    NA+46660  40.836  42.945  14.497
74335NA+    NA+46661   7.675  29.425  13.383
74336NA+    NA+46662  23.099  34.550  10.893
74337NA+    NA+46663  43.424  26.076   1.216
74338NA+    NA+46664  23.023  21.225  13.470
74339NA+    NA+46665  20.525  30.095  13.467
74340NA+    NA+46666  35.571  22.552  13.803
74341NA+    NA+46667  29.028  25.192   3.808
74342NA+    NA+46668  37.386   5.293  13.461
74343NA+    NA+46669  14.822  43.848   3.379
74344NA+    NA+46670   2.355  25.206  12.568
74345NA+    NA+46671   4.812   6.862  12.989
74346NA+    NA+46672  36.428  27.134   0.318
74347NA+    NA+46673   8.352  11.627  11.983
74348NA+    NA+46674  34.438   4.924  11.879
74349NA+    NA+46675  44.945  40.026   3.696
74350NA+    NA+46676   4.744  22.643  13.063
74351NA+    NA+46677  25.983   1.448  14.967
74352NA+    NA+46678  23.517   6.899  13.023
74353NA+    NA+46679  15.625  44.468   2.824
74354NA+    NA+46680  13.328  38.423  11.915
74355NA+    NA+46681  25.706  11.285  14.010
74356NA+    NA+46682  40.496  21.043   4.695
74357NA+    NA+46683  11.707  10.154   3.361
74358NA+    NA+46684   1.922  41.357   1.797
74359NA+    NA+46685  13.624   8.240   2.382
74360NA+    NA+46686  35.876  29.626  13.942
74361NA+    NA+46687  42.959   0.973   4.767
74362NA+    NA+46688   0.351  26.584  13.366
74363NA+    NA+46689  31.576  38.496   1.292
74364NA+    NA+46690  28.986  11.840   4.722
74365NA+    NA+46691  23.013  19.552   3.150
74366NA+    NA+46692  36.085  39.479   0.413
74367NA+    NA+46693  33.421  18.231  13.865
74368NA+    NA+46694  11.798  24.669   9.975
74369NA+    NA+46695  37.046  43.506   4.311
74370NA+    NA+46696  17.751  26.566   0.318
74371NA+    NA+46697  30.998  10.829  13.801
74372NA+    NA+46698  13.814  30.521  10.573
74373NA+    NA+46699  29.437  31.138   1.701
74374NA+    NA+46700   8.695   9.886  10.572
74375NA+    NA+46701  33.554  36.394  11.937
74376NA+    NA+46702  14.673   7.775   2.851
74377NA+    NA+46703  34.067  18.676  12.942
74378NA+    NA+46704  11.704  19.671   0.261
74379NA+    NA+46705  15.321   7.386   0.754
74380NA+    NA+46706  20.141  38.452  11.103
74381NA+    NA+46707  37.946  38.467   1.275
74382NA+    NA+46708  38.567  38.035  14.508
74383NA+    NA+46709  30.939   6.259  12.947
74384NA+    NA+46710   9.847  15.138  10.462
74385NA+    NA+46711  33.914  29.668   0.819
74386NA+    NA+46712  25.091  23.612   0.250
74387NA+    NA+46713  23.034  29.035  13.837
74388NA+    NA+46714   1.740  43.461  11.572
74389NA+    NA+46715   0.397  35.992   4.156
74390NA+    NA+46716  11.348   8.254   0.258
74391NA+    NA+46717  36.374  37.835  10.455
74392NA+    NA+46718  42.795  10.146   5.298
74393NA+    NA+46719  12.658  29.131  11.411
74394NA+    NA+46720  40.549  15.132   0.266
74395NA+    NA+46721  20.129  44.910   3.220
74396NA+    NA+46722  41.787  40.053   9.958
74397NA+    NA+46723  16.731  18.586  12.075
74398NA+    NA+46724  25.630  16.754   9.922
74399NA+    NA+46725  41.504  34.056   1.294
74400NA+    NA+46726  19.572  30.502  14.436
74401NA+    NA+46727  37.915  23.575   0.438
74402NA+    NA+46728   9.156  31.055  13.922
74403NA+    NA+46729  34.928  30.414  13.515
74404NA+    NA+46730  36.512   7.216  14.766
74405NA+    NA+46731  41.393   5.898  13.999
74406NA+    NA+46732  12.191   4.383   1.869
74407NA+    NA+46733  16.158  29.536   1.713
74408NA+    NA+46734  22.194  35.032  11.084
74409NA+    NA+46735  35.853  44.449  13.307
74410NA+    NA+46736   3.825   1.888  13.473
74411NA+    NA+46737  43.419  14.205   2.823
74412NA+    NA+46738  33.419  39.853   9.945
74413NA+    NA+46739  20.676  44.290   4.712
74414NA+    NA+46740  40.912  17.112   0.386
74415NA+    NA+46741   5.385  10.698   0.792
74416NA+    NA+46742  21.204  14.323  10.454
74417NA+    NA+46743  13.670  36.399   2.850
74418NA+    NA+46744  27.674  29.616   0.853
74419NA+    NA+46745  30.590  24.557   1.847
74420NA+    NA+46746  44.848  36.430  10.524
74421NA+    NA+46747  22.223  42.881   0.451
74422NA+    NA+46748  12.153  24.487   5.803
74423NA+    NA+46749  44.828   2.764   1.882
74424NA+    NA+46750  22.656   0.873   1.746
74425NA+    NA+46751  33.417   3.294  14.453
74426NA+    NA+46752  42.377  30.067  13.477
74427NA+    NA+46753  39.314  37.495   3.241
74428NA+    NA+46754  24.523   8.861   2.256
74429NA+    NA+46755  11.252   7.876   1.834
74430NA+    NA+46756  28.150  39.865   2.337
74431NA+    NA+46757  13.219  27.061  14.514
74432NA+    NA+46758  19.746  12.725  11.505
74433NA+    NA+46759   0.445  43.852   3.150
74434NA+    NA+46760  34.967  41.487  10.521
74435NA+    NA+46761  36.583  22.606  11.422
74436NA+    NA+46762   0.827   4.916  11.383
74437NA+    NA+46763   3.897  32.408   2.898
74438NA+    NA+46764  40.026   1.380   2.209
74439NA+    NA+46765  44.303   2.904   1.409
74440NA+    NA+46766  30.598  26.467  10.511
74441NA+    NA+46767   7.692   9.681   0.479
74442NA+    NA+46768   9.379  18.215   0.769
74443NA+    NA+46769  19.780  38.032  13.328
74444NA+    NA+46770  13.801  32.933   0.424
74445NA+    NA+46771  44.480   5.881  14.913
74446NA+    NA+46772  44.964  17.703   1.327
74447NA+    NA+46773  22.177  14.676   2.705
74448NA+    NA+46774  26.495   1.388  14.794
74449NA+    NA+46775  35.031  21.118   5.227
74450NA+    NA+46776  26.172  42.845  12.457
74451NA+    NA+46777  38.501  16.290  12.863
74452NA+    NA+46778   3.727  29.626  11.934
74453NA+    NA+46779  28.651  10.731  13.017
74454NA+    NA+46780  44.784  20.227  10.595
74455NA+    NA+46781  30.560   3.742   0.289
74456NA+    NA+46782  12.302  36.451  13.886
74457NA+    NA+46783  32.068  24.690   0.423
74458NA+    NA+46784  34.459  36.856   2.750
74459NA+    NA+46785   9.653   7.904  10.407
74460NA+    NA+46786  37.567   2.791  12.355
74461NA+    NA+46787  15.260  44.283  10.894
74462NA+    NA+46788  16.783  34.007  14.823
74463NA+    NA+46789  23.585   2.862   2.880
74464NA+    NA+46790  25.987  17.271   0.325
74465NA+    NA+46791  10.326  15.642  11.493
74466NA+    NA+46792   0.821  23.728   1.806
74467NA+    NA+46793  16.769  16.783  13.860
74468NA+    NA+46794  19.706  11.773  10.519
74469NA+    NA+46795   3.800  24.494   4.270
74470NA+    NA+46796   0.818  16.275   4.188
74471NA+    NA+46797  12.776  27.970  10.493
74472NA+    NA+46798   9.316   1.960  12.094
74473NA+    NA+46799  21.542  26.009  14.382
74474NA+    NA+46800  38.345  43.006  12.938
74475NA+    NA+46801  23.569  32.958   0.734
74476NA+    NA+46802  35.583  30.521   1.730
74477NA+    NA+46803  22.677  19.593   0.267
74478NA+    NA+46804   1.377  26.657  11.881
74479NA+    NA+46805  17.784  20.097   4.617
74480NA+    NA+46806  14.209  19.647  13.529
74481NA+    NA+46807   3.738  28.602  13.450
74482NA+    NA+46808  12.726  24.598   5.770
74483NA+    NA+46809  38.440  33.586   2.228
74484NA+    NA+46810  34.875  42.461  10.970
74485NA+    NA+46811  19.116  13.172   1.305
74486NA+    NA+46812  17.613  34.077   2.314
74487NA+    NA+46813  42.982  33.513  13.992
74488NA+    NA+46814   7.700  13.203  11.417
74489NA+    NA+46815   4.918  24.059  11.039
74490NA+    NA+46816   3.919  33.475  12.064
74491NA+    NA+46817  20.110  16.278  11.473
74492NA+    NA+46818  39.999  35.521  10.629
74493NA+    NA+46819  35.437   3.307   4.755
74494NA+    NA+46820  18.191  19.205  13.854
74495NA+    NA+46821  39.064   8.798  12.824
74496NA+    NA+46822  14.603  35.598   3.759
74497NA+    NA+46823  12.303  21.634   3.677
74498NA+    NA+46824  15.618  27.591   4.164
74499NA+    NA+46825  33.996   6.257   3.175
74500NA+    NA+46826  43.849  24.495  14.886
74501NA+    NA+46827   1.759  15.200  13.505
74502NA+    NA+46828  22.626   3.934   2.844
74503NA+    NA+46829  36.872   5.765   3.868
74504NA+    NA+46830   1.774   2.941   9.939
74505NA+    NA+46831  20.067  44.922   4.329
74506NA+    NA+46832  26.500   9.856   0.333
74507NA+    NA+46833   9.689  38.345   2.318
74508NA+    NA+46834  37.423  29.056   9.943
74509NA+    NA+46835   1.399   7.718  12.360
74510NA+    NA+46836  14.134  44.477   3.642
74511NA+    NA+46837  13.261  25.167   4.751
74512NA+    NA+46838  10.703  10.313   1.868
74513NA+    NA+46839   9.303   4.827   3.252
74514NA+    NA+46840  39.042  10.303   4.764
74515NA+    NA+46841  10.775   6.312  11.114
74516NA+    NA+46842  21.609  16.809   4.249
74517NA+    NA+46843  36.084  24.215   1.295
74518NA+    NA+46844  24.138  20.272  13.050
74519NA+    NA+46845   7.408  11.281   1.344
74520NA+    NA+46846   4.865  38.921  10.604
74521NA+    NA+46847  42.894  31.498   1.256
74522NA+    NA+46848  41.331  39.525   2.416
74523NA+    NA+46849  18.671  23.108  14.276
74524NA+    NA+46850  40.350  16.801  11.054
74525NA+    NA+46851  42.469  19.078   0.838
74526NA+    NA+46852  40.364  37.842   0.769
74527NA+    NA+46853   4.444  21.052  14.916
74528NA+    NA+46854  19.098   8.267  13.394
74529NA+    NA+46855   9.750  32.446  12.960
74530NA+    NA+46856  35.455  32.018   4.659
74531NA+    NA+46857   8.217  12.856  12.480
74532NA+    NA+46858  23.699  15.108   5.127
74533NA+    NA+46859  28.635   4.230  14.418
74534NA+    NA+46860  35.384  37.878  10.901
74535NA+    NA+46861  21.532   6.184   0.472
74536NA+    NA+46862  18.127   6.781   1.245
74537NA+    NA+46863   9.725   5.854   2.710
74538NA+    NA+46864  36.467  39.919   3.838
74539NA+    NA+46865   8.312  10.658  11.911
74540NA+    NA+46866  35.589  36.415   1.408
74541NA+    NA+46867  44.772   4.811  12.881
74542NA+    NA+46868  39.416  33.049   2.738
74543NA+    NA+46869  21.046  20.705  12.575
74544NA+    NA+46870  14.105  25.117  10.577
74545NA+    NA+46871  19.570  34.927  13.846
74546NA+    NA+46872  34.563  17.603   1.713
74547NA+    NA+46873  42.366  12.309   0.837
74548NA+    NA+46874  13.277  29.531   4.116
74549NA+    NA+46875   8.176  21.516  12.885
74550NA+    NA+46876   6.757  28.468   3.349
74551NA+    NA+46877  29.535   4.388   2.788
74552NA+    NA+46878  17.295   1.863  10.638
74553NA+    NA+46879  21.650   0.973  10.906
74554CL-    CL-46880  14.290  30.462   1.216
74555CL-    CL-46881  25.668   2.294   4.140
74556CL-    CL-46882  24.681  13.822   1.411
74557CL-    CL-46883   1.905  13.823   0.462
74558CL-    CL-46884  17.671  22.167  13.529
74559CL-    CL-46885  20.209  33.510   3.321
74560CL-    CL-46886  12.278  12.684   1.270
74561CL-    CL-46887  41.954  27.090  14.470
74562CL-    CL-46888  38.439  21.165  11.461
74563CL-    CL-46889  21.640  18.084  13.318
74564CL-    CL-46890  16.162  41.351   5.309
74565CL-    CL-46891  36.949   1.303   2.311
74566CL-    CL-46892  30.150  32.546   1.256
74567CL-    CL-46893  18.775  27.169   0.356
74568CL-    CL-46894  38.329  26.611  12.886
74569CL-    CL-46895  43.837   9.659  11.535
74570CL-    CL-46896  44.951  38.894   1.368
74571CL-    CL-46897  32.397  21.750  14.026
74572CL-    CL-46898  19.081  41.811  10.483
74573CL-    CL-46899  42.308   0.775  11.401
74574CL-    CL-46900  12.346   6.299   1.317
74575CL-    CL-46901  38.967  15.628  12.994
74576CL-    CL-46902   9.647  36.484   4.121
74577CL-    CL-46903  40.886  23.503  14.794
74578CL-    CL-46904   6.247  17.621   1.830
74579CL-    CL-46905   8.867  20.730   2.785
74580CL-    CL-46906  11.149  29.453   1.213
74581CL-    CL-46907   0.763   2.894   5.568
74582CL-    CL-46908  26.573  21.172  10.029
74583CL-    CL-46909  37.444  44.970   2.339
74584CL-    CL-46910  38.924  40.852   4.245
74585CL-    CL-46911  15.174  25.670   1.273
74586CL-    CL-46912  34.595  26.159  14.362
74587CL-    CL-46913  10.216  16.627   9.963
74588CL-    CL-46914  37.444   0.410  12.886
74589CL-    CL-46915  31.911  41.863  11.405
74590CL-    CL-46916  32.628  17.661   4.713
74591CL-    CL-46917  24.156  30.977  11.612
74592CL-    CL-46918   8.802   9.676   2.758
74593CL-    CL-46919  26.173  27.083   1.919
74594CL-    CL-46920  42.459  25.658  11.073
74595CL-    CL-46921  43.865  28.570   0.337
74596CL-    CL-46922  37.340  17.560  11.613
74597CL-    CL-46923  11.243  42.841   1.337
74598CL-    CL-46924  22.573  14.778   1.313
74599CL-    CL-46925  44.957   0.347  12.022
74600CL-    CL-46926   3.735  13.737  11.980
74601CL-    CL-46927  18.206  33.097   4.182
74602CL-    CL-46928  36.407  14.760   2.714
74603CL-    CL-46929  31.411  37.416   2.357
74604CL-    CL-46930  11.842  20.093   2.313
74605CL-    CL-46931   0.775  21.549  12.063
74606CL-    CL-46932   9.820  24.654   4.667
74607CL-    CL-46933  10.366  17.256  14.793
74608CL-    CL-46934   3.308  18.118  13.437
74609CL-    CL-46935  15.111  33.132  13.520
74610CL-    CL-46936  26.187  11.262   1.336
74611CL-    CL-46937  17.216   6.334   4.656
74612CL-    CL-46938  21.744  26.146   3.241
74613CL-    CL-46939   1.738  16.759  12.993
74614CL-    CL-46940  35.534  38.878   1.702
74615CL-    CL-46941  44.400   2.426  14.450
74616CL-    CL-46942   9.694  26.114   2.216
74617CL-    CL-46943  11.241  33.457  11.069
74618CL-    CL-46944  32.943   8.720   2.830
74619CL-    CL-46945  10.740  34.892   0.332
74620CL-    CL-46946  15.156  37.845  11.587
74621CL-    CL-46947   0.321  44.823  14.469
74622CL-    CL-46948   8.259  22.022   2.811
74623CL-    CL-46949  26.555  31.518   1.424
74624CL-    CL-46950  43.385  18.697  13.039
74625CL-    CL-46951   5.283  33.103  14.336
74626CL-    CL-46952  11.626   6.734   4.775
74627CL-    CL-46953  27.570  11.728  12.824
74628CL-    CL-46954  22.139  39.036   3.249
74629CL-    CL-46955  43.437  23.519   0.393
74630CL-    CL-46956  18.562   7.851   2.280
74631CL-    CL-46957  41.497  44.754   1.749
74632CL-    CL-46958   0.930   8.279  12.827
74633CL-    CL-46959  24.127  29.134   1.249
74634CL-    CL-46960  38.450   8.693  13.360
74635CL-    CL-46961   7.277  23.516   3.727
74636CL-    CL-46962  15.751   6.212   3.161
74637CL-    CL-46963   8.866  14.685   4.744
74638CL-    CL-46964   3.419   8.273   0.865
74639CL-    CL-46965   7.852  22.542  14.955
74640CL-    CL-46966  22.647  32.962  12.405
74641CL-    CL-46967   1.471  21.046   2.782
74642CL-    CL-46968  30.908   9.259  14.984
74643CL-    CL-46969  36.096   2.926   1.922
74644CL-    CL-46970  26.980  19.729  11.447
74645CL-    CL-46971  11.658  29.529   3.840
74646CL-    CL-46972  36.436  26.074  12.485
74647CL-    CL-46973  44.947  33.551  11.022
74648CL-    CL-46974  38.002   4.377  10.599
74649CL-    CL-46975  12.726  38.878   1.392
74650CL-    CL-46976  11.698  18.739   4.304
74651CL-    CL-46977   0.480  10.689   3.667
74652CL-    CL-46978  40.973  41.433   4.143
74653CL-    CL-46979  35.939  34.039   4.215
74654CL-    CL-46980  32.931  15.810   0.776
74655CL-    CL-46981  32.460  11.659  10.942
74656CL-    CL-46982  24.191  30.434   5.272
74657CL-    CL-46983   9.190  30.138  11.978
74658CL-    CL-46984  25.467  44.292  12.465
74659CL-    CL-46985   8.337  24.499  10.592
74660CL-    CL-46986  30.632  43.793   4.703
74661CL-    CL-46987  39.064  18.631  12.865
74662CL-    CL-46988   1.921  42.302  11.388
74663CL-    CL-46989  16.642  41.302  10.573
74664CL-    CL-46990  14.681   7.268  11.003
74665CL-    CL-46991  44.949   6.741  13.453
74666CL-    CL-46992  30.082  10.164   1.920
74667CL-    CL-46993  31.506  19.042  11.600
74668CL-    CL-46994  17.638  39.029  11.033
74669CL-    CL-46995  39.443  24.580  12.532
74670CL-    CL-46996   0.393  15.305   3.643
74671CL-    CL-46997   2.350  39.030   0.925
74672CL-    CL-46998  42.824  26.503  14.877
74673CL-    CL-46999  27.495  28.932   0.729
74674CL-    CL-47000  24.178  10.320   4.171
74675CL-    CL-47001  23.201  38.454  12.357
74676CL-    CL-47002   6.198  19.581  11.118
74677CL-    CL-47003  26.616  22.213   3.669
74678CL-    CL-47004   5.872  43.437   3.841
74679CL-    CL-47005  36.902  33.084  13.419
74680CL-    CL-47006  25.993  14.709   0.899
74681CL-    CL-47007  14.146  37.866   4.618
74682CL-    CL-47008  14.233  44.922   4.195
74683CL-    CL-47009   3.776  41.978   1.735
74684CL-    CL-47010   5.285  27.173   4.275
74685CL-    CL-47011  20.248  17.135   4.777
74686CL-    CL-47012  21.258  40.522   2.682
74687CL-    CL-47013  19.258  24.719   3.269
74688CL-    CL-47014  32.941  41.027   2.665
74689CL-    CL-47015   0.882  27.448  14.383
74690CL-    CL-47016  44.313  14.268   2.814
74691CL-    CL-47017  22.247  21.068  11.549
74692CL-    CL-47018  31.905  24.042   1.709
74693CL-    CL-47019  26.585  22.100  14.276
74694CL-    CL-47020  32.926  36.477   3.857
74695CL-    CL-47021   2.857   1.472   2.807
74696CL-    CL-47022  41.350  23.537  13.450
74697CL-    CL-47023  44.936   3.721  11.583
74698CL-    CL-47024  11.742   5.918   2.408
74699CL-    CL-47025   6.378  31.993  12.436
74700CL-    CL-47026  42.353  26.625   5.252
74701CL-    CL-47027  29.028  16.745  13.333
74702CL-    CL-47028  38.036  25.081   2.802
74703CL-    CL-47029  16.298  40.542  12.540
74704CL-    CL-47030   9.817  28.547  10.625
74705CL-    CL-47031  43.022  16.581   4.137
74706CL-    CL-47032  44.901  41.314   1.788
74707CL-    CL-47033  14.798  35.451  11.501
74708CL-    CL-47034  39.349   2.945  13.529
74709CL-    CL-47035  19.170  41.026   0.468
74710CL-    CL-47036  23.543  20.566  12.939
74711CL-    CL-47037  27.073  37.880  14.010
74712CL-    CL-47038  24.049  28.955  10.417
74713CL-    CL-47039   0.369   5.222  14.953
74714CL-    CL-47040  42.995  13.274  13.386
74715CL-    CL-47041   0.465  37.916   1.810
74716CL-    CL-47042  24.986  17.133   1.866
74717CL-    CL-47043  36.915  19.543   2.415
74718CL-    CL-47044  16.733   2.915  12.885
74719CL-    CL-47045  17.126  12.646   1.334
74720CL-    CL-47046  31.113  35.102  11.440
74721CL-    CL-47047   3.316  20.165  13.987
74722CL-    CL-47048  40.901  40.928   0.326
74723CL-    CL-47049  23.102  41.019  10.465
74724CL-    CL-47050  42.481  17.745  11.381
74725CL-    CL-47051   7.239  36.354  12.896
74726CL-    CL-47052   3.787  24.520   0.391
74727CL-    CL-47053   9.218   6.858   2.758
74728CL-    CL-47054  21.136   0.299  11.091
74729CL-    CL-47055  35.484  27.958  11.096
74730CL-    CL-47056  23.725   9.874  11.970
74731CL-    CL-47057  13.179  18.285   3.723
74732CL-    CL-47058  35.978  19.263   1.429
74733CL-    CL-47059  10.332  33.030   3.367
74734CL-    CL-47060  36.077   6.877  12.433
74735CL-    CL-47061   8.309  35.070  13.830
74736CL-    CL-47062  40.005  12.306  14.823
74737CL-    CL-47063  28.000   0.448   3.839
74738CL-    CL-47064  15.710  40.027  11.511
74739CL-    CL-47065  35.378  44.352   2.753
74740CL-    CL-47066   9.241  34.387   5.093
74741CL-    CL-47067  37.837  15.588   0.790
74742CL-    CL-47068   0.447  36.879  13.042
74743CL-    CL-47069   8.753   1.777   3.302
74744CL-    CL-47070  20.064  29.661   1.867
74745CL-    CL-47071  39.458   6.388   4.818
74746CL-    CL-47072   7.314  32.432  13.837
74747CL-    CL-47073  31.965  12.781  11.469
74748CL-    CL-47074  19.089  37.073  11.093
74749CL-    CL-47075  22.173  16.616  10.135
74750CL-    CL-47076  28.982  19.539   1.740
74751CL-    CL-47077  14.794   1.408   2.751
74752CL-    CL-47078   3.762  16.679   1.932
74753CL-    CL-47079  10.205  11.837  11.008
74754CL-    CL-47080   5.740  39.496   4.829
74755CL-    CL-47081  39.015  25.009   2.720
74756CL-    CL-47082   5.272  23.045  13.364
74757CL-    CL-47083  18.292  11.155  11.502
74758CL-    CL-47084  15.591   7.382  14.854
74759CL-    CL-47085  41.435  17.792  13.320
74760CL-    CL-47086  16.290  33.902   0.863
74761CL-    CL-47087  42.466  31.434  13.355
74762CL-    CL-47088  35.967  16.581  14.768
74763CL-    CL-47089  14.125   0.792   4.294
74764CL-    CL-47090  36.581   4.722   5.137
74765CL-    CL-47091  25.565   9.229   4.268
74766CL-    CL-47092  14.213   3.435  14.411
74767CL-    CL-47093   5.880   3.935  12.393
74768CL-    CL-47094   9.201  34.597  14.374
74769CL-    CL-47095  34.959   1.879   0.922
74770CL-    CL-47096  26.459  11.216  12.552
74771CL-    CL-47097  28.939  35.429  11.469
74772CL-    CL-47098  22.650  17.264  11.585
74773CL-    CL-47099   2.365  13.282  12.499
74774CL-    CL-47100  24.716  40.419  14.502
74775CL-    CL-47101  39.040  14.632   4.117
74776CL-    CL-47102  28.543  39.498  11.920
74777CL-    CL-47103   9.295   2.771  13.514
74778CL-    CL-47104  37.496   0.743   5.134
74779CL-    CL-47105  17.556  11.654   2.881
74780CL-    CL-47106  43.938  36.516   3.814
74781CL-    CL-47107  24.573  43.891  11.528
74782CL-    CL-47108  36.043  37.491  12.063
74783CL-    CL-47109  26.682  19.204  11.373
74784CL-    CL-47110  14.798  39.983   2.416
74785CL-    CL-47111  28.146   9.207   2.254
74786CL-    CL-47112   4.365  18.701  13.931
74787CL-    CL-47113  35.524  30.646   4.809
74788CL-    CL-47114  13.719  30.075  11.499
74789CL-    CL-47115   8.343   6.859   1.324
74790CL-    CL-47116  40.356   1.254  13.804
74791CL-    CL-47117  41.380   8.374   2.874
74792CL-    CL-47118  11.219  40.835  10.426
74793CL-    CL-47119   0.460  22.669  11.432
74794CL-    CL-47120  40.469  14.718  11.942
74795CL-    CL-47121  30.655  20.134  12.951
74796CL-    CL-47122  18.701  19.717  12.974
74797CL-    CL-47123  44.894  19.262  14.294
74798CL-    CL-47124   9.322  11.841   0.299
74799CL-    CL-47125  10.846  38.905  10.635
74800CL-    CL-47126   1.922   1.331   2.744
74801CL-    CL-47127  39.343   8.345   1.770
74802CL-    CL-47128  19.055   9.647  12.011
74803CL-    CL-47129   2.455   1.383   4.164
74804CL-    CL-47130  22.111  31.467  12.392
74805CL-    CL-47131  14.671   2.775  11.072
74806CL-    CL-47132  30.935  22.672  13.430
74807CL-    CL-47133  43.938  28.159  12.393
74808CL-    CL-47134  10.806  13.193   0.308
74809CL-    CL-47135  36.500   6.335  14.841
74810CL-    CL-47136  35.578  15.742  13.827
74811CL-    CL-47137  19.076  39.517   3.316
74812CL-    CL-47138  26.990  38.998   2.795
74813CL-    CL-47139  39.401  11.258  14.961
74814CL-    CL-47140  23.602  34.920   4.819
74815CL-    CL-47141  44.813  42.920  12.899
74816CL-    CL-47142  10.867  30.580  12.916
74817CL-    CL-47143   2.282  42.869   2.330
74818CL-    CL-47144  39.855  19.224   1.251
74819CL-    CL-47145  35.452  33.025   3.740
74820CL-    CL-47146  21.160  16.750  11.389
74821CL-    CL-47147   3.740  25.495  14.909
74822CL-    CL-47148   9.232  36.593  11.006
74823CL-    CL-47149   3.783  40.952   3.239
74824CL-    CL-47150  18.612   0.931  13.944
74825CL-    CL-47151  27.499  14.198  14.320
74826CL-    CL-47152  12.159  38.986   3.291
74827CL-    CL-47153   1.470  24.721  12.397
74828CL-    CL-47154  21.179  34.941  12.007
74829CL-    CL-47155  17.093  27.190   3.704
74830CL-    CL-47156   5.296  28.463  13.404
74831CL-    CL-47157  44.398  19.584   0.806
74832CL-    CL-47158   2.254   5.203   1.325
74833CL-    CL-47159  23.029  36.974   2.662
74834CL-    CL-47160  36.356  15.115   0.890
74835CL-    CL-47161  30.622  18.587  11.509
74836CL-    CL-47162  10.150   4.236  11.064
74837CL-    CL-47163  33.953  35.475  11.480
74838CL-    CL-47164  33.438  11.638   3.721
74839CL-    CL-47165  43.773  19.682   2.886
74840CL-    CL-47166  11.724  31.618   3.759
74841CL-    CL-47167  19.686  28.577   0.312
74842CL-    CL-47168   1.298  23.695   1.289
74843CL-    CL-47169  21.626  44.781  10.644
74844CL-    CL-47170  23.085   5.873  10.556
74845CL-    CL-47171  29.668   7.288  14.973
74846CL-    CL-47172   0.828  41.007   3.862
74847CL-    CL-47173  16.812  44.404   2.399
74848CL-    CL-47174  29.601  30.536  12.914
74849CL-    CL-47175  41.368   0.807  13.482
74850CL-    CL-47176  18.631  37.881   4.349
74851CL-    CL-47177  43.912  17.562  11.873
74852CL-    CL-47178  11.288  27.590   3.359
74853CL-    CL-47179   1.430  13.269  12.079
74854CL-    CL-47180  13.685   4.218   4.225
74855CL-    CL-47181  36.035  34.975  12.834
74856CL-    CL-47182  28.152   5.701   4.823
74857CL-    CL-47183  13.831  14.286  13.545
74858CL-    CL-47184   2.323  34.536  12.044
74859CL-    CL-47185  39.479   2.424  12.453
74860CL-    CL-47186  22.643  25.472   1.750
74861CL-    CL-47187   5.764  39.051   0.285
74862CL-    CL-47188  37.452  37.918  14.777
74863CL-    CL-47189  19.768  12.790   4.752
74864CL-    CL-47190  22.505  33.436  12.572
74865CL-    CL-47191   7.893  16.615  14.887
74866CL-    CL-47192  19.726  18.557  12.939
74867CL-    CL-47193  17.743  18.263  11.403
74868CL-    CL-47194  12.341   4.776   2.399
74869CL-    CL-47195   3.811  23.641   4.779
74870CL-    CL-47196  21.168   7.791  12.933
74871CL-    CL-47197  16.241  37.384   0.739
74872CL-    CL-47198  24.708  39.994   3.159
74873CL-    CL-47199   8.270  16.085   1.909
74874CL-    CL-47200   4.365  28.107   1.766
74875CL-    CL-47201   7.906  37.010   2.748
74876CL-    CL-47202  34.456   2.915  11.558
74877CL-    CL-47203  42.017  24.705  12.076
74878CL-    CL-47204   1.389  30.616  11.475
74879CL-    CL-47205  31.524   7.796   0.252
74880CL-    CL-47206   7.748  14.230   0.736
74881CL-    CL-47207  30.051   6.347   1.386
74882CL-    CL-47208  27.004   2.291   1.714
74883CL-    CL-47209  15.263  16.609   0.849
74884CL-    CL-47210  37.541  33.575   0.921
74885CL-    CL-47211  33.439  17.146   1.756
74886CL-    CL-47212  40.313  12.774   4.341
74887CL-    CL-47213   7.873  37.886  10.998
74888CL-    CL-47214   3.785  38.004   1.281
74889CL-    CL-47215   4.804   2.437  13.427
74890CL-    CL-47216  34.406   5.348  12.929
74891CL-    CL-47217   0.862   9.191  13.850
74892CL-    CL-47218  38.369  19.150   3.275
74893CL-    CL-47219  33.550  43.314   3.732
74894CL-    CL-47220  21.645  31.481   3.345
74895CL-    CL-47221  28.670  37.886  11.905
74896CL-    CL-47222  44.007  14.636  14.957
74897CL-    CL-47223  34.085   0.428  11.383
74898CL-    CL-47224   0.283   1.249  10.494
74899CL-    CL-47225  13.773  41.506   3.644
74900CL-    CL-47226  23.673  33.897   3.766
74901CL-    CL-47227  10.372  23.610  11.416
74902CL-    CL-47228  39.483  44.406   4.620
74903CL-    CL-47229  13.252  27.570   0.465
74904CL-    CL-47230  15.734  40.392   1.267
74905CL-    CL-47231  27.946  20.219  10.566
74906CL-    CL-47232  35.979  11.230   2.401
74907CL-    CL-47233   5.224  33.576   0.412
74908CL-    CL-47234  33.597  37.958  10.471
74909CL-    CL-47235   6.686  33.961   4.195
74910CL-    CL-47236  26.675  23.985   4.296
74911CL-    CL-47237  23.620  13.189  14.874
74912CL-    CL-47238   0.963  23.237  14.019
74913CL-    CL-47239  15.718   6.325   4.672
74914CL-    CL-47240  41.427  38.889  11.100
74915CL-    CL-47241  25.531  27.973  14.931
74916CL-    CL-47242  19.236  24.725   4.786
74917CL-    CL-47243  40.875   5.223  10.924
74918CL-    CL-47244  41.908  41.347   3.776
74919CL-    CL-47245  19.677   7.800   5.194
74920CL-    CL-47246   8.726  13.815  13.951
74921CL-    CL-47247  38.424  19.149  10.944
74922CL-    CL-47248  34.974  32.585  14.377
74923CL-    CL-47249  33.446  39.517   0.348
74924CL-    CL-47250  40.310   4.239  14.031
74925CL-    CL-47251  18.644  36.364   4.724
74926CL-    CL-47252  42.287  44.984  14.430
74927CL-    CL-47253   3.215   8.336   0.299
74928CL-    CL-47254  23.077  27.978  11.436
74929CL-    CL-47255  16.189  21.158  11.446
74930CL-    CL-47256   8.766  44.846   1.741
74931CL-    CL-47257  25.525  42.845  12.903
74932CL-    CL-47258  17.233  33.944   3.750
74933CL-    CL-47259  18.684  27.514   4.722
74934CL-    CL-47260  44.442  23.164  13.436
74935CL-    CL-47261  40.331  31.457   3.861
74936CL-    CL-47262  22.526  29.653   2.728
74937CL-    CL-47263  25.060  23.017   2.741
74938CL-    CL-47264  40.905  44.308  13.994
74939CL-    CL-47265  38.059  18.704   0.925
74940CL-    CL-47266  31.407  11.803   4.228
74941CL-    CL-47267  32.511  34.080   4.173
74942CL-    CL-47268   4.253  25.220   2.832
74943CL-    CL-47269   9.276  12.198   1.857
74944CL-    CL-47270  39.342  28.978  14.279
74945CL-    CL-47271  16.152  43.853   2.252
74946CL-    CL-47272   3.952  38.026  13.022
74947CL-    CL-47273  10.237  20.240   0.796
74948CL-    CL-47274  40.839  44.384  11.383
74949CL-    CL-47275   9.311   9.379   3.195
74950CL-    CL-47276  24.584  13.137   3.767
74951CL-    CL-47277  31.444  12.836  10.554
74952CL-    CL-47278  11.290  33.512  10.462
74953CL-    CL-47279  20.151  22.721   0.854
74954CL-    CL-47280   2.804  25.667   0.918
74955CL-    CL-47281  30.003  18.107   1.374
74956CL-    CL-47282  39.877  36.490  14.913
74957CL-    CL-47283  31.097  31.628   4.599
74958CL-    CL-47284  22.692  16.141   1.333
74959CL-    CL-47285   4.349  24.209  13.329
74960CL-    CL-47286  19.560  26.082   1.872
74961CL-    CL-47287  33.401   4.330  14.502
74962CL-    CL-47288  22.227   5.366   1.446
74963CL-    CL-47289  40.482  33.475  10.637
74964CL-    CL-47290  28.067   0.280   1.298
74965CL-    CL-47291  30.016  41.805   3.311
74966CL-    CL-47292   1.802  22.640  11.877
74967CL-    CL-47293  12.689  32.124   2.377
74968CL-    CL-47294   6.727  43.294  13.050
74969CL-    CL-47295  43.355  44.762   0.322
74970CL-    CL-47296  19.261   7.384   3.663
74971CL-    CL-47297  27.128   9.792   2.669
74972CL-    CL-47298  33.880  25.469  13.059
74973CL-    CL-47299  40.044  16.777   2.271
74974CL-    CL-47300  41.491  24.980  13.045
74975CL-    CL-47301  37.557  30.607  13.815
74976CL-    CL-47302  40.312  28.524  11.038
74977CL-    CL-47303   2.788   2.313  10.156
74978CL-    CL-47304  26.608  21.600  12.000
74979CL-    CL-47305   3.913  16.092  11.927
74980CL-    CL-47306  11.182  17.605   1.885
74981CL-    CL-47307  44.414  19.124  12.550
74982CL-    CL-47308  12.715  42.813   2.838
74983CL-    CL-47309   5.858  26.117  12.989
74984CL-    CL-47310  21.203  38.844  11.505
74985CL-    CL-47311  37.918  40.055  11.486
74986CL-    CL-47312  42.346  20.733   2.720
74987CL-    CL-47313  15.220  19.149   3.238
74988CL-    CL-47314  22.141  14.331  12.418
74989CL-    CL-47315  27.176  31.451   1.354
74990CL-    CL-47316  38.033  12.197   2.237
74991CL-    CL-47317   6.777  40.946   3.171
74992CL-    CL-47318  10.232   0.325   3.684
74993CL-    CL-47319   5.828  31.583  14.478
74994CL-    CL-47320  26.666  10.355   5.161
74995CL-    CL-47321  12.629   3.913  13.404
74996CL-    CL-47322  23.729  12.274  12.942
74997CL-    CL-47323  20.536  37.031   1.862
74998CL-    CL-47324  37.025  21.699  14.940
74999CL-    CL-47325  17.098  42.296   0.429
75000CL-    CL-47326  44.328  12.833  14.866
75001CL-    CL-47327  27.055  41.451   4.679
75002CL-    CL-47328   0.807   8.681   0.265
75003CL-    CL-47329  29.993  27.157  14.405
75004CL-    CL-47330  43.509  36.070   1.212
75005CL-    CL-47331  31.619   3.222   2.747
75006CL-    CL-47332  26.105  15.120   1.327
75007CL-    CL-47333  35.394  25.522   1.229
75008CL-    CL-47334  34.380   6.407  14.479
75009CL-    CL-47335  16.749  25.696   4.248
75010CL-    CL-47336   0.828  23.490  12.563
75011CL-    CL-47337  35.971  10.791   2.828
75012CL-    CL-47338  16.111  22.045   3.317
75013CL-    CL-47339  43.862  19.100   1.734
75014CL-    CL-47340   7.334   7.171  11.082
75015CL-    CL-47341  14.125   3.878  13.402
75016CL-    CL-47342   2.816  33.933  13.940
75017CL-    CL-47343   2.946   8.291   0.948
75018CL-    CL-47344  25.041  32.508   2.229
75019CL-    CL-47345  38.006  10.857   4.779
75020CL-    CL-47346  10.636  33.516   1.913
75021CL-    CL-47347  29.645   2.808   1.379
75022CL-    CL-47348  28.680  26.053   3.375
75023CL-    CL-47349   4.370  41.968   2.750
75024CL-    CL-47350   1.957  44.759   0.758
75025CL-    CL-47351  38.466  39.037   3.850
75026CL-    CL-47352  13.277  13.797  14.385
75027CL-    CL-47353  35.513  31.439   3.212
75028CL-    CL-47354  25.207  37.941   4.634
75029CL-    CL-47355  13.742  17.166   2.818
75030CL-    CL-47356  32.905  20.192  13.809
75031CL-    CL-47357  35.933  18.779   1.882
75032CL-    CL-47358  11.173  22.072  12.482
75033CL-    CL-47359  38.410  44.290   4.784
75034CL-    CL-47360  43.278   3.923   3.368
75035CL-    CL-47361  38.397  41.023   1.904
75036CL-    CL-47362  37.501  34.492  13.438
75037CL-    CL-47363  24.508  12.652  12.078
75038CL-    CL-47364  27.946  33.620  11.583
75039CL-    CL-47365   8.242  36.381  12.553
75040CL-    CL-47366  16.156  42.918  12.447
75041CL-    CL-47367  11.227  14.611   4.762
75042CL-    CL-47368  39.815  21.214  13.375
75043CL-    CL-47369   0.317   7.747   2.251
75044CL-    CL-47370  23.140  25.493   1.310
75045CL-    CL-47371  14.120  25.066   4.734
75046CL-    CL-47372   1.316  18.272  10.471
75047CL-    CL-47373  37.958  16.223  12.900
75048CL-    CL-47374  36.509  11.818  14.974
75049CL-    CL-47375  37.522  36.911  11.902
75050CL-    CL-47376   7.899   7.298   1.784
75051CL-    CL-47377  29.430  21.636   3.219
75052CL-    CL-47378  14.677  32.409   1.925
75053CL-    CL-47379  26.597  32.611   1.322
75054CL-    CL-47380   2.921  36.578  11.403
75055CL-    CL-47381  22.044   4.391   3.773
75056CL-    CL-47382  39.465  43.290   1.438
75057CL-    CL-47383  34.077  14.292  12.930
75058CL-    CL-47384  40.806  21.037   0.841
75059CL-    CL-47385  16.572  22.674   0.333
75060CL-    CL-47386  25.665  18.592   0.774
75061CL-    CL-47387  34.420  42.867   0.254
75062CL-    CL-47388  14.699  30.527  14.001
75063CL-    CL-47389  23.593  39.869  10.442
75064CL-    CL-47390   9.667   6.321  11.127
75065CL-    CL-47391  29.982  10.672   3.778
75066CL-    CL-47392  29.958  23.217  13.876
75067CL-    CL-47393   5.768   1.765  10.444
75068CL-    CL-47394   1.872  42.809  13.064
75069CL-    CL-47395   6.351  10.820  12.871
75070CL-    CL-47396  21.074  40.442   1.814
75071CL-    CL-47397   5.689   1.309   3.157
75072CL-    CL-47398  21.190  30.982  12.049
75073CL-    CL-47399  20.115   5.863  12.074
75074CL-    CL-47400  31.080  31.592   0.959
75075CL-    CL-47401  33.925  16.566  10.955
75076CL-    CL-47402   0.282  19.565  13.434
75077CL-    CL-47403  35.590   5.878  11.996
75078CL-    CL-47404  15.790  17.642   4.809
75079CL-    CL-47405   8.341  36.959  11.387
75080CL-    CL-47406  40.384   0.854   1.732
75081CL-    CL-47407  39.978  30.465  11.470
75082CL-    CL-47408  16.274  13.692   1.429
75083CL-    CL-47409  28.523  15.084   1.372
75084CL-    CL-47410   6.270   4.414   2.843
75085CL-    CL-47411  37.970  10.233  14.485
75086CL-    CL-47412  15.774  38.473  14.956
75087CL-    CL-47413  39.831  21.171   2.217
75088CL-    CL-47414  42.953   9.205  10.526
75089CL-    CL-47415  40.325   8.757   0.925
75090CL-    CL-47416   3.453  25.040  10.035
75091CL-    CL-47417  39.860   1.845  10.981
75092CL-    CL-47418  15.660  39.937  12.521
75093CL-    CL-47419  40.497  31.999   0.786
75094CL-    CL-47420   4.223   7.318  10.500
75095CL-    CL-47421  27.554  31.509  10.603
75096CL-    CL-47422   0.950   2.368   5.264
75097CL-    CL-47423  15.599  14.827   1.383
75098CL-    CL-47424  44.763  33.079  12.461
75099CL-    CL-47425  32.927  22.079  13.356
75100CL-    CL-47426  41.803  36.851   1.245
75101CL-    CL-47427   8.198  29.169   3.722
75102CL-    CL-47428  41.413  37.413   3.248
75103CL-    CL-47429   1.424  19.698  12.979
75104CL-    CL-47430   2.824  32.099  10.981
75105CL-    CL-47431   2.334   1.441   2.410
75106CL-    CL-47432  31.108  10.711  12.474
75107CL-    CL-47433  14.646  24.056  14.998
75108CL-    CL-47434  14.185   0.249  12.933
75109CL-    CL-47435   0.412   6.370   3.227
75110CL-    CL-47436  17.067   1.472  13.973
75111CL-    CL-47437  28.569  17.745   2.765
75112CL-    CL-47438  11.252  29.992   2.410
75113CL-    CL-47439  24.126  19.672   1.842
75114CL-    CL-47440  38.482  36.457  13.809
75115CL-    CL-47441   3.425  24.486   3.170
75116CL-    CL-47442  29.981  10.348  12.961
75117CL-    CL-47443  29.523   0.852  12.447
75118CL-    CL-47444  41.393  41.896   1.777
75119CL-    CL-47445  21.563   6.905  13.932
75120CL-    CL-47446  35.380  16.112  12.405
75121CL-    CL-47447  24.039  14.717  13.959
75122CL-    CL-47448   3.456  40.336  11.509
75123CL-    CL-47449  19.245  28.555  13.313
75124CL-    CL-47450  12.615  43.387   3.322
75125CL-    CL-47451  31.553  22.234  10.998
75126CL-    CL-47452  37.955  37.012   1.760
75127CL-    CL-47453  23.577   0.391  14.850
75128CL-    CL-47454  36.088  10.705   1.746
75129CL-    CL-47455  36.052  25.194   2.766
75130CL-    CL-47456  11.318  13.307   0.395
75131CL-    CL-47457  20.166  41.999  10.443
75132CL-    CL-47458  41.533  33.534  13.922
75133CL-    CL-47459  20.094  38.840   3.226
75134CL-    CL-47460  11.739  12.619  14.482
75135CL-    CL-47461  31.608  43.982  10.585
75136CL-    CL-47462  17.656  25.625   4.139
75137CL-    CL-47463  27.645  22.614   0.939
75138CL-    CL-47464  10.686   6.836   4.650
75139CL-    CL-47465  27.086  10.650  14.320
75140CL-    CL-47466  26.971  25.497  10.633
75141CL-    CL-47467  32.933  19.179   2.888
75142CL-    CL-47468   8.804   8.385   3.709
75143CL-    CL-47469  16.301  38.966  10.409
75144CL-    CL-47470  21.055  43.394  14.319
75145CL-    CL-47471  21.541   1.388  11.882
75146CL-    CL-47472  32.026   5.322  10.544
75147CL-    CL-47473  40.326  15.818  11.460
75148CL-    CL-47474   1.317  23.535   2.723
75149CL-    CL-47475   7.751  34.094  12.418
75150CL-    CL-47476   2.236  12.172  14.489
75151CL-    CL-47477  40.502   1.247  14.796
75152CL-    CL-47478   6.835  18.743   1.228
75153CL-    CL-47479  29.549  35.505   4.247
75154CL-    CL-47480  15.175  25.146  13.494
75155CL-    CL-47481  41.370   3.937   2.768
75156CL-    CL-47482  35.401  40.036   3.734
75157CL-    CL-47483  29.464  35.407  11.942
75158CL-    CL-47484  44.362   4.235  14.985
75159CL-    CL-47485  31.592  44.991   3.166
75160CL-    CL-47486  39.883  40.448   3.331
75161CL-    CL-47487  35.591   1.453  13.050
75162CL-    CL-47488  17.720  28.139  13.856
75163CL-    CL-47489   9.754  23.139   2.711
75164CL-    CL-47490  19.126  14.658  14.971
75165CL-    CL-47491  26.513  27.464  13.358
75166CL-    CL-47492   2.406  10.643   0.477
75167CL-    CL-47493  41.305  43.441  10.895
75168CL-    CL-47494  29.461  24.645  14.406
75169CL-    CL-47495  13.837  44.410   0.796
75170CL-    CL-47496  43.818  13.800  12.878
75171CL-    CL-47497  28.013  22.136  10.448
75172CL-    CL-47498  32.514  35.058  11.025
75173CL-    CL-47499  27.018  35.547  11.531
75174CL-    CL-47500  19.717  19.652   0.466
75175CL-    CL-47501  22.168   7.210  11.910
75176CL-    CL-47502   5.360  15.607   5.310
75177CL-    CL-47503  41.444  37.020   2.268
75178CL-    CL-47504  24.057  22.558   0.246
75179CL-    CL-47505  15.583  31.104  12.065
75180CL-    CL-47506  14.656   1.873   5.234
75181CL-    CL-47507  29.001  25.584  14.505
75182CL-    CL-47508  14.653  36.095   4.688
75183CL-    CL-47509  28.633  38.824  13.919
75184CL-    CL-47510  25.045  24.158   2.388
75185CL-    CL-47511  36.987  31.499  14.791
75186CL-    CL-47512  14.330  29.523  14.287
75187CL-    CL-47513  13.324  39.341   2.219
75188CL-    CL-47514   8.661   4.275  12.470
75189CL-    CL-47515  40.549  38.049   3.339
75190CL-    CL-47516  34.380  15.305  11.009
75191CL-    CL-47517  16.133  40.511  11.992
75192CL-    CL-47518  38.840  15.664   5.145
75193CL-    CL-47519  18.200  11.807   2.302
75194CL-    CL-47520  33.600  14.240   5.227
75195CL-    CL-47521  31.101  17.116   0.284
75196CL-    CL-47522   5.353  22.685  14.464
75197CL-    CL-47523   6.865   6.811  13.999
75198CL-    CL-47524  22.996  40.396   5.239
75199CL-    CL-47525  32.130   5.930   4.259
75200CL-    CL-47526  12.774   4.744   2.414
75201CL-    CL-47527  11.775  41.293   3.155
75202CL-    CL-47528  37.085  44.494  10.428
75203CL-    CL-47529   3.791  19.074   4.188
75204CL-    CL-47530  27.175   3.245   3.728
75205CL-    CL-47531  19.249  33.611  11.914
75206CL-    CL-47532  14.639  26.515   3.173
75207CL-    CL-47533   4.217  23.191  13.354
75208CL-    CL-47534  41.029  31.486   4.598
75209CL-    CL-47535   9.835  16.787  12.998
75210CL-    CL-47536   3.755  44.371  12.508
75211CL-    CL-47537   7.685  27.446  13.929
75212CL-    CL-47538  18.709   1.377  14.938
75213CL-    CL-47539  27.052  25.220   2.196
75214CL-    CL-47540  18.204  29.986   1.742
75215CL-    CL-47541  31.076  25.713  11.438
75216CL-    CL-47542  12.716  34.450   1.249
75217CL-    CL-47543  44.440  17.564  12.903
75218CL-    CL-47544  22.103  38.503   3.792
75219CL-    CL-47545   5.341  10.380  11.398
75220CL-    CL-47546  42.964  24.672   3.216
75221CL-    CL-47547  32.429  25.534   3.154
75222CL-    CL-47548  17.588  41.892   3.792
75223CL-    CL-47549  28.015  29.475   1.859
75224CL-    CL-47550   0.338  12.754  11.503
75225CL-    CL-47551  26.477  17.583  12.462
75226CL-    CL-47552   7.302   9.391   0.941
75227CL-    CL-47553  23.597  13.684  12.932
75228CL-    CL-47554  18.622  19.228   1.256
75229CL-    CL-47555  14.326  42.808   3.706
75230CL-    CL-47556  42.818  40.462   2.408
75231CL-    CL-47557  23.536  22.215  12.532
75232CL-    CL-47558  44.284  38.418   3.818
75233CL-    CL-47559   7.789  11.269   0.423
75234CL-    CL-47560  22.056  34.401   3.163
75235CL-    CL-47561  42.942  10.158   3.647
75236CL-    CL-47562  32.521   6.313  14.795
75237CL-    CL-47563  24.578  40.908   0.808
75238CL-    CL-47564   3.909  18.733  10.599
75239CL-    CL-47565  40.901  37.978   4.796
75240CL-    CL-47566  38.071   9.888  14.384
75241CL-    CL-47567  22.995  35.062  11.522
75242CL-    CL-47568   5.266  33.456  12.853
75243CL-    CL-47569   6.715  34.997  12.441
75244CL-    CL-47570  29.638  15.268   0.252
75245CL-    CL-47571  16.795  32.468  13.879
75246CL-    CL-47572   1.927  27.975   0.414
75247CL-    CL-47573  17.101  11.625   1.805
75248CL-    CL-47574  25.105  22.047  12.077
75249CL-    CL-47575   5.435  11.133   4.186
75250CL-    CL-47576  36.520   3.421   9.971
75251CL-    CL-47577   9.305  39.931   3.665
75252CL-    CL-47578  17.218  34.551   2.367
75253CL-    CL-47579  16.770  21.512  14.001
75254CL-    CL-47580  29.168  43.017  12.498
75255CL-    CL-47581  31.108  29.069  12.062
75256CL-    CL-47582  30.020  34.522   2.301
75257CL-    CL-47583  25.966  14.720   3.362
75258CL-    CL-47584  21.720  42.525  10.495
75259CL-    CL-47585  36.951  20.762  11.014
75260CL-    CL-47586  14.098  36.087   3.181
75261CL-    CL-47587  38.068  20.559  11.592
75262CL-    CL-47588  29.467  23.988   5.144
75263CL-    CL-47589  29.431  38.069  10.939
75264CL-    CL-47590   1.468   2.965  13.041
75265CL-    CL-47591  10.327  11.344   2.796
75266CL-    CL-47592  14.759   0.801  11.871
75267CL-    CL-47593  29.971   2.423   0.350
75268CL-    CL-47594  12.683  39.857   3.824
75269CL-    CL-47595  27.637  37.927  13.372
75270CL-    CL-47596  13.668  42.815  14.292
75271CL-    CL-47597   1.449  42.779  13.846
75272CL-    CL-47598   8.252  10.726  12.555
75273CL-    CL-47599   0.878  29.480   5.174
75274CL-    CL-47600   7.882   3.307   1.919
75275CL-    CL-47601  23.033   5.909   3.802
75276CL-    CL-47602  22.247  37.983   0.461
75277CL-    CL-47603  24.108  36.958  14.906
75278CL-    CL-47604  11.824  13.770   1.860
75279CL-    CL-47605   1.955   5.744  13.357
75280CL-    CL-47606  30.148  16.251  13.441
75281CL-    CL-47607  18.715  12.152  11.401
75282CL-    CL-47608   9.241   0.887   0.959
75283CL-    CL-47609   2.741   7.845  11.090
75284CL-    CL-47610  23.607  29.966   4.643
75285CL-    CL-47611   2.244   7.252  12.032
75286CL-    CL-47612   4.248   3.802  14.440
75287CL-    CL-47613   2.745  26.560   4.352
75288CL-    CL-47614   8.837  37.369   5.238
75289CL-    CL-47615  14.710  43.879   1.420
75290CL-    CL-47616   7.791   7.182   0.828
75291CL-    CL-47617  41.969   1.747  14.813
75292CL-    CL-47618  36.038   9.890  10.917
75293CL-    CL-47619  21.647  26.066  11.960
75294CL-    CL-47620   7.408   5.780   0.260
75295CL-    CL-47621   8.237  42.911   0.959
75296CL-    CL-47622  15.687  41.979  11.427
75297CL-    CL-47623  16.120  29.443  12.849
75298CL-    CL-47624   7.378  13.706   3.251
75299CL-    CL-47625  34.398  15.174   2.678
75300CL-    CL-47626   1.283  15.322   0.734
75301CL-    CL-47627  42.508  36.519   3.683
75302CL-    CL-47628  27.058  34.523   2.332
75303CL-    CL-47629  27.998  43.998   4.752
75304CL-    CL-47630  35.442  28.673   0.479
75305CL-    CL-47631  10.662  39.538  14.335
75306CL-    CL-47632  43.313  41.520   3.375
75307CL-    CL-47633  34.421  26.526   0.453
75308CL-    CL-47634  24.498  31.550   1.336
75309CL-    CL-47635  18.591  34.102   0.478
75310CL-    CL-47636  39.897  36.385   3.681
75311CL-    CL-47637  38.529   5.871   2.390
75312CL-    CL-47638  36.551  31.936   9.927
75313CL-    CL-47639  39.501  23.175   2.416
75314CL-    CL-47640  13.817  21.219  14.777
75315CL-    CL-47641  34.487   0.801   0.754
75316CL-    CL-47642   5.855  37.875  10.451
75317CL-    CL-47643  44.967   5.435  11.917
75318CL-    CL-47644   8.769  15.114  13.975
75319CL-    CL-47645  25.486  29.527   0.940
75320CL-    CL-47646  32.923  40.512   0.284
75321CL-    CL-47647  20.042  26.105  12.958
75322CL-    CL-47648  33.048   3.954   2.707
75323CL-    CL-47649  12.689  15.316   4.804
75324CL-    CL-47650  16.202   8.275   2.216
75325CL-    CL-47651  41.894  43.365  11.097
75326CL-    CL-47652   0.363  36.937  14.382
75327CL-    CL-47653  34.025  21.597   4.776
75328CL-    CL-47654  40.977  36.586  12.935
75329CL-    CL-47655   6.310   9.657  11.442
75330CL-    CL-47656   7.680  34.889  12.545
75331CL-    CL-47657   1.327  26.092  14.458
75332CL-    CL-47658   3.356  21.193   1.225
75333CL-    CL-47659  28.117  27.029   1.900
75334CL-    CL-47660  18.660   1.244  11.588
75335CL-    CL-47661  27.029  34.577   4.198
75336CL-    CL-47662  39.402  31.145  14.006
75337CL-    CL-47663  16.141  14.097   3.696
75338CL-    CL-47664  30.139  11.227   3.635
75339CL-    CL-47665  17.096  29.625   3.732
75340CL-    CL-47666   2.851  28.646  11.420
75341CL-    CL-47667  36.379  13.323   9.493
75342CL-    CL-47668   8.772   1.930   2.408
75343CL-    CL-47669  20.238  15.694  11.919
75344CL-    CL-47670   0.469  22.536   0.372
75345CL-    CL-47671   2.267  31.988   3.244
75346CL-    CL-47672  29.541  11.850  10.414
75347CL-    CL-47673  41.385  21.633   1.422
75348CL-    CL-47674  36.092  17.567   0.769
75349CL-    CL-47675  26.633  17.187   2.190
75350CL-    CL-47676  25.052  20.110  12.577
75351CL-    CL-47677  13.687  22.049  11.465
75352CL-    CL-47678   1.832  30.976   3.718
75353CL-    CL-47679  15.651  24.661  14.430
75354CL-    CL-47680  14.707  43.512   0.802
75355CL-    CL-47681  16.800  39.461  12.562
75356CL-    CL-47682  44.869  17.782   0.427
75357CL-    CL-47683   6.898  19.679  13.011
75358CL-    CL-47684  24.644   5.698   0.885
75359CL-    CL-47685   0.492  16.765  11.450
75360CL-    CL-47686  13.127  37.576  13.837
75361CL-    CL-47687  35.522  33.403   4.151
75362CL-    CL-47688   8.831  17.165   3.229
75363CL-    CL-47689  43.414   1.937  11.389
75364CL-    CL-47690   8.180  15.710   2.890
75365CL-    CL-47691  15.721   2.944  11.081
75366CL-    CL-47692  13.637  24.530   0.896
75367CL-    CL-47693  25.142  33.623   1.417
75368CL-    CL-47694  10.202  18.165  11.952
75369CL-    CL-47695   3.393  28.544  11.446
75370CL-    CL-47696   2.779  40.922  14.348
75371CL-    CL-47697   3.217  20.533  14.816
75372CL-    CL-47698  20.730   0.311  10.526
75373CL-    CL-47699  44.852  34.459   2.681
75374CL-    CL-47700  27.087  43.483   4.299
75375CL-    CL-47701  29.487   6.761   3.305
75376CL-    CL-47702  22.722  37.064   0.917
75377CL-    CL-47703  28.479  40.878  11.565
75378CL-    CL-47704  23.078   3.453   2.195
75379CL-    CL-47705  34.477  11.254   2.394
75380CL-    CL-47706   5.249  19.673   2.796
75381CL-    CL-47707  38.915   6.717   3.267
75382CL-    CL-47708   5.837  23.543  12.484
75383CL-    CL-47709  21.566   9.366  13.396
75384CL-    CL-47710  26.106  10.288  12.517
75385CL-    CL-47711   8.293  13.832  13.953
75386CL-    CL-47712  15.161   1.331   3.742
75387CL-    CL-47713  22.662   9.652  11.918
75388CL-    CL-47714  13.108  39.388   2.792
75389CL-    CL-47715  39.499  11.749   1.923
75390CL-    CL-47716  13.133  12.716   9.991
75391CL-    CL-47717  23.169   9.353  12.527
75392CL-    CL-47718  34.589  18.106  14.467
75393CL-    CL-47719  27.122  11.765   4.296
75394CL-    CL-47720  18.669  30.924  11.383
75395CL-    CL-47721  39.560  22.682   3.378
75396CL-    CL-47722  34.900  29.113   1.376
75397CL-    CL-47723  10.190   4.934  12.033
75398CL-    CL-47724  29.663  25.544   2.406
75399CL-    CL-47725  11.693  38.057  11.121
75400CL-    CL-47726  43.303  10.309  13.940
75401CL-    CL-47727  17.661  35.967  11.495
75402CL-    CL-47728   9.280  14.126  12.519
75403CL-    CL-47729  29.502   8.882  12.407
75404CL-    CL-47730   3.277  41.991  12.384
75405CL-    CL-47731  13.274   0.483   3.642
75406CL-    CL-47732  25.100  10.158  14.009
75407CL-    CL-47733  34.863  23.600  13.036
75408CL-    CL-47734  15.291  28.020   0.458
75409CL-    CL-47735   8.264   8.875  13.434
75410CL-    CL-47736  43.425   2.873  14.907
75411CL-    CL-47737   1.423   4.312   2.776
75412CL-    CL-47738   6.285  14.257  13.807
75413CL-    CL-47739  33.074   6.884  11.384
75414CL-    CL-47740  20.098  36.373  13.428
75415CL-    CL-47741   6.336  15.642  13.517
75416CL-    CL-47742  23.045  23.012  11.554
75417CL-    CL-47743  31.087  30.659   3.795
75418CL-    CL-47744  15.164  35.074   5.718
75419CL-    CL-47745  44.812  16.240  13.968
75420CL-    CL-47746   5.275  25.067  12.568
75421CL-    CL-47747  11.624  30.557  10.494
75422CL-    CL-47748   7.706  29.952  14.875
75423CL-    CL-47749  19.248  21.758   2.264
75424CL-    CL-47750  30.488  28.029  12.470
75425CL-    CL-47751   4.393  13.122  13.505
75426CL-    CL-47752  41.984  11.230   3.813
75427CL-    CL-47753  32.074   9.346  12.883
75428CL-    CL-47754   3.765   7.293  14.774
75429CL-    CL-47755  20.086  18.263   3.247
75430CL-    CL-47756  18.189  40.435  10.466
75431CL-    CL-47757  13.754  33.990  10.077
75432CL-    CL-47758  10.837  33.572  10.052
75433CL-    CL-47759  14.312  17.607  13.061
75434CL-    CL-47760   1.959  34.566   4.644
75435CL-    CL-47761  24.130  22.559  13.926
75436CL-    CL-47762  10.771   6.874  11.470
75437CL-    CL-47763  31.575  34.605   4.638
75438CL-    CL-47764  36.851  12.333   2.408
75439CL-    CL-47765  31.991   4.801  11.974
75440CL-    CL-47766  35.601  24.053   3.248
75441CL-    CL-47767  37.054  19.719   0.823
75442CL-    CL-47768  10.199  35.042  14.371
75443CL-    CL-47769  34.894  41.007  12.539
75444CL-    CL-47770  38.950  41.792  13.910
75445CL-    CL-47771   3.792  22.621  12.058
75446CL-    CL-47772  35.542  22.554  12.009
75447CL-    CL-47773   4.365  26.012   0.735
75448CL-    CL-47774   8.256  44.367   4.834
75449CL-    CL-47775  38.953  26.657   0.481
75450CL-    CL-47776  35.567  28.964  11.068
75451CL-    CL-47777  22.103  17.090  12.351
75452CL-    CL-47778  20.206  30.162  13.792
75453CL-    CL-47779  21.217   2.359   2.277
75454CL-    CL-47780  29.517  40.378  11.939
75455CL-    CL-47781  42.495  23.174  13.827
75456CL-    CL-47782  16.575  16.652  14.321
75457CL-    CL-47783  38.381  13.782  12.849
75458CL-    CL-47784  12.301   6.875   3.217
75459CL-    CL-47785  32.053  32.595  14.345
75460CL-    CL-47786  10.719  37.396   9.944
75461CL-    CL-47787  13.696   5.430  13.445
75462CL-    CL-47788  23.723  41.944   3.344
75463CL-    CL-47789  19.169  37.067   0.825
75464CL-    CL-47790  38.430   0.268   3.230
75465CL-    CL-47791  11.648  39.058  11.916
75466CL-    CL-47792  33.017  32.123  11.969
75467CL-    CL-47793  39.017  28.526   2.276
75468CL-    CL-47794  35.041  44.458  11.049
75469CL-    CL-47795  11.701  17.569  12.034
75470CL-    CL-47796   4.729  34.877  13.429
75471CL-    CL-47797   4.718   1.356   3.320
75472CL-    CL-47798   5.289  38.827  13.330
75473CL-    CL-47799   4.250   5.717   0.321
75474CL-    CL-47800  10.217  18.288  10.036
75475CL-    CL-47801   2.268  13.259   3.798
75476CL-    CL-47802  40.500  35.554   4.302
75477CL-    CL-47803  24.653  12.630   0.442
75478CL-    CL-47804   6.773  36.851   0.449
75479CL-    CL-47805  27.627  15.746  12.458
75480CL-    CL-47806  24.499  44.261   4.608
75481CL-    CL-47807  35.899  36.527   1.242
75482CL-    CL-47808  28.139  43.478  13.850
75483CL-    CL-47809  36.426  44.771  14.287
75484CL-    CL-47810  26.163  27.028  11.391
75485CL-    CL-47811  10.659  12.348  13.425
75486CL-    CL-47812  18.668   4.247   1.234
75487CL-    CL-47813   7.265  36.417   0.758
75488CL-    CL-47814  42.364  16.111   2.250
75489CL-    CL-47815  38.970  35.941  13.478
75490CL-    CL-47816  14.323   6.871   0.833
75491CL-    CL-47817  23.990  13.252   4.130
75492CL-    CL-47818  23.049  16.652  11.936
75493CL-    CL-47819  40.974  44.997   4.745
75494CL-    CL-47820  13.759   9.320   1.326
75495CL-    CL-47821  37.423  35.869  14.818
75496CL-    CL-47822   9.740  24.647  13.378
75497CL-    CL-47823  38.564   2.365  13.993
75498CL-    CL-47824  37.401  44.489  13.333
75499CL-    CL-47825  26.087  27.470  10.585
75500CL-    CL-47826  27.491  32.126  13.419
75501CL-    CL-47827  21.163  40.039  12.931
75502CL-    CL-47828  34.591   9.248   4.269
75503CL-    CL-47829  33.569   5.258  11.451
75504CL-    CL-47830  25.027  38.073  13.890
75505CL-    CL-47831  29.985  29.436  11.069
75506CL-    CL-47832   9.790  20.732   1.331
75507CL-    CL-47833   6.285   5.420  12.552
75508CL-    CL-47834  37.033  44.330   1.267
75509CL-    CL-47835  23.166  17.691   3.214
75510CL-    CL-47836   8.746  24.091  10.634
75511CL-    CL-47837  40.852   8.681  12.993
75512CL-    CL-47838  42.421   2.459   3.382
75513CL-    CL-47839  18.685  30.914   4.161
75514CL-    CL-47840  25.575  43.389   4.597
75515CL-    CL-47841  20.132  40.028  13.056
75516CL-    CL-47842  19.199  12.237   2.207
75517CL-    CL-47843  44.457  44.972   0.422
75518CL-    CL-47844  28.517  14.670  14.379
75519CL-    CL-47845  28.116  32.490  10.573
75520CL-    CL-47846  18.748  29.596   2.893
75521CL-    CL-47847  20.708  19.046   3.713
75522CL-    CL-47848  42.365  29.997   4.342
75523CL-    CL-47849  20.646  15.205   3.847
75524CL-    CL-47850  12.276  12.129  12.442
75525CL-    CL-47851  33.119   7.310  10.901
75526CL-    CL-47852   4.722   1.465   0.362
75527CL-    CL-47853   8.830  27.168  10.898
75528CL-    CL-47854  11.329   0.421   1.369
75529CL-    CL-47855  32.632  43.481  10.925
75530CL-    CL-47856  20.571  11.697  11.003
75531CL-    CL-47857  21.040  23.106   0.910
75532CL-    CL-47858  10.233  40.493  12.018
75533CL-    CL-47859  34.894   1.365  10.556
75534CL-    CL-47860  18.689  42.795  12.875
75535CL-    CL-47861  34.420  44.760   3.831
75536CL-    CL-47862   6.236  36.041   3.666
75537CL-    CL-47863  42.860  17.235  12.951
75538CL-    CL-47864  13.787  28.142  14.940
75539CL-    CL-47865  23.535  40.362   3.656
75540CL-    CL-47866  14.154  19.675  12.574
75541CL-    CL-47867  24.630   3.296  10.972
75542CL-    CL-47868  36.901  19.174   2.303
75543CL-    CL-47869   0.841  44.797  11.044
75544CL-    CL-47870  28.562  39.369   2.792
75545CL-    CL-47871   8.377  20.149  13.508
75546CL-    CL-47872   4.298  11.819  11.030
75547CL-    CL-47873  29.644  30.454   0.735
75548CL-    CL-47874  20.046  41.421  12.384
75549CL-    CL-47875   8.783   1.333  12.536
75550CL-    CL-47876  38.378  29.552  10.504
75551CL-    CL-47877  30.002  25.538  13.918
75552CL-    CL-47878  10.773  34.933   4.332
75553CL-    CL-47879  35.892  29.624   2.866
75554CL-    CL-47880  41.394   6.304   3.795
75555CL-    CL-47881   2.803  24.684   1.758
75556CL-    CL-47882  40.544  43.328   0.794
75557CL-    CL-47883   9.159  36.397   4.741
75558CL-    CL-47884  26.012   7.402  11.451
75559CL-    CL-47885   4.319  35.905  13.814
75560CL-    CL-47886  12.289   0.411   1.805
75561CL-    CL-47887  42.320  27.189   1.800
75562CL-    CL-47888  24.101  15.278   2.857
75563CL-    CL-47889  10.380  12.161  10.569
75564CL-    CL-47890   4.920  11.261   3.174
75565CL-    CL-47891  10.199  11.237   4.629
75566CL-    CL-47892  36.584  31.004  12.037
75567CL-    CL-47893  28.129  44.900  13.003
75568CL-    CL-47894  15.318  29.099  12.971
75569CL-    CL-47895  39.938  18.062   1.740
75570CL-    CL-47896   9.248  36.957  14.345
75571CL-    CL-47897  32.508  30.973   4.256
75572CL-    CL-47898   3.437  43.869   2.668
75573CL-    CL-47899  11.675   5.757   4.725
75574CL-    CL-47900  13.807  36.440   5.613
75575CL-    CL-47901  17.236   5.310  11.494
75576CL-    CL-47902  23.178  32.493   2.234
75577CL-    CL-47903  28.460  35.598  13.008
75578CL-    CL-47904  11.721  32.605   3.723
75579CL-    CL-47905  22.689  38.528   0.825
75580CL-    CL-47906  13.173  24.087   4.318
75581CL-    CL-47907   1.889  14.714  12.532
75582CL-    CL-47908  30.629   9.236   3.829
75583CL-    CL-47909   3.882  44.499   1.240
75584CL-    CL-47910  15.268  11.813  12.849
75585CL-    CL-47911  44.377  24.518   3.706
75586CL-    CL-47912  23.677  42.524  10.606
75587CL-    CL-47913  32.949  28.012  11.003
75588CL-    CL-47914   2.902   1.312  14.890
75589CL-    CL-47915   8.366  29.038   2.348
75590CL-    CL-47916  25.673   7.326   2.396
75591CL-    CL-47917  24.599  18.781  10.589
75592CL-    CL-47918  33.921   2.363  14.302
75593CL-    CL-47919  30.492  34.069  14.446
75594CL-    CL-47920   7.671  16.771  13.483
75595CL-    CL-47921   7.313  25.050  11.983
75596CL-    CL-47922   9.316  27.175  13.361
75597CL-    CL-47923  13.164   9.359  11.113
75598CL-    CL-47924  35.988  40.487   3.322
75599CL-    CL-47925   8.347  35.048   1.847
75600CL-    CL-47926  37.441  39.026   0.913
75601CL-    CL-47927  37.371  39.859  14.442
75602CL-    CL-47928  30.581  33.454  13.413
75603CL-    CL-47929  34.595  38.032  14.878
75604CL-    CL-47930  19.657  22.627   2.801
75605CL-    CL-47931  14.674  34.010   2.764
75606CL-    CL-47932  35.909  10.634   4.635
75607CL-    CL-47933  10.209  11.370  14.419
75608CL-    CL-47934  40.398  30.435  10.067
75609CL-    CL-47935  39.398   0.914  12.371
75610CL-    CL-47936  33.605  31.089  12.056
75611CL-    CL-47937   8.798  34.368   1.935
75612CL-    CL-47938  27.136  10.362   3.693
75613CL-    CL-47939  32.908  35.580  11.378
75614CL-    CL-47940   7.384   0.760   4.129
75615CL-    CL-47941  13.216  15.279   3.355
75616CL-    CL-47942  39.511   9.338  11.593
75617CL-    CL-47943  37.983  16.316  11.381
75618CL-    CL-47944  41.318  40.523  12.459
75619CL-    CL-47945  33.004  28.603   3.146
75620CL-    CL-47946  17.660  36.011   0.805
75621CL-    CL-47947   8.283  32.509   1.253
75622CL-    CL-47948  13.715   5.334   0.390
75623CL-    CL-47949  38.859  22.111  13.947
75624CL-    CL-47950  10.820  24.146  13.000
75625CL-    CL-47951  38.063  41.973  12.085
75626CL-    CL-47952   4.319  12.632   1.291
75627CL-    CL-47953   5.406  24.215  10.924
75628CL-    CL-47954  28.608  43.453  14.374
75629CL-    CL-47955  21.747  17.145  13.462
75630CL-    CL-47956  19.070   1.277  11.118
75631CL-    CL-47957   9.201  28.525  14.858
75632CL-    CL-47958   4.422  34.935  10.468
75633CL-    CL-47959  20.575  36.424   4.352
75634CL-    CL-47960  33.006  29.973   3.657
75635CL-    CL-47961  25.499  10.774  11.063
75636CL-    CL-47962  27.985  42.284   2.218
75637CL-    CL-47963  19.243  33.397   2.767
75638CL-    CL-47964   4.722   1.824   3.665
75639CL-    CL-47965  41.336   8.654   2.832
75640CL-    CL-47966  13.843  38.531  10.916
75641CL-    CL-47967  22.508   3.773  12.031
75642CL-    CL-47968  28.584  17.238   3.725
75643CL-    CL-47969  18.771  37.547  13.820
75644CL-    CL-47970  44.832   7.780  12.976
75645CL-    CL-47971  16.684  39.840   2.777
75646CL-    CL-47972   8.781  31.640  11.406
75647CL-    CL-47973  13.674  31.574  14.298
75648CL-    CL-47974  36.519  13.838  12.500
75649CL-    CL-47975   8.272  30.076  14.486
75650CL-    CL-47976  14.595  29.970   2.376
75651CL-    CL-47977  12.685  35.033   0.460
75652CL-    CL-47978  17.780  25.186  12.855
75653CL-    CL-47979  33.072  34.016  12.070
75654CL-    CL-47980   7.300   9.382  11.578
75655CL-    CL-47981   4.242   9.714   5.763
75656CL-    CL-47982  40.851  16.213  13.404
75657CL-    CL-47983  12.247  22.651  11.523
75658CL-    CL-47984   0.857  41.417  14.865
75659CL-    CL-47985  33.581  34.401   1.290
75660CL-    CL-47986   4.429  10.232   0.349
75661CL-    CL-47987  43.931  37.363  13.007
75662CL-    CL-47988  40.328  18.604   4.222
75663CL-    CL-47989   3.367  11.660  12.375
75664CL-    CL-47990   5.803  33.545  12.854
75665CL-    CL-47991  10.651  24.532  13.825
75666CL-    CL-47992  11.652  31.915  10.914
75667CL-    CL-47993  10.753  14.763   3.670
75668CL-    CL-47994  30.568   3.246  13.890
75669CL-    CL-47995  42.838   2.433  14.891
75670CL-    CL-47996  30.068   7.906  13.045
75671CL-    CL-47997  33.400  29.004   0.814
75672CL-    CL-47998  41.904  31.424  12.958
75673CL-    CL-47999  26.041  41.946   0.963
75674CL-    CL-48000  31.153  42.327   1.740
75675CL-    CL-48001  21.692  43.991   1.236
75676CL-    CL-48002   8.757  39.526  14.468
75677CL-    CL-48003   0.815  31.466  12.984
75678CL-    CL-48004  12.241   2.313   2.674
75679CL-    CL-48005  10.377  10.746  11.612
75680CL-    CL-48006  25.085   0.860  12.064
75681CL-    CL-48007  13.218  30.499  11.542
75682CL-    CL-48008  14.099  40.879  13.029
75683CL-    CL-48009  44.311   1.321   3.354
75684CL-    CL-48010  35.028  28.115  13.372
75685CL-    CL-48011   3.324   8.328  13.905
75686CL-    CL-48012  21.097  17.251  13.476
75687CL-    CL-48013   0.926  35.975   2.310
75688CL-    CL-48014   9.182  39.897  10.944
75689CL-    CL-48015  16.174  44.432  11.562
75690CL-    CL-48016  33.623  42.418  10.962
75691CL-    CL-48017  19.689   4.699  13.481
75692CL-    CL-48018  43.935  24.982   4.350
75693CL-    CL-48019   2.278  37.948   4.733
75694CL-    CL-48020  40.489   4.881  12.416
75695CL-    CL-48021   9.759   9.235   2.393
75696CL-    CL-48022  13.235  24.591  13.850
75697CL-    CL-48023  18.168  20.647   1.817
75698CL-    CL-48024  37.373  30.578   3.210
75699CL-    CL-48025  34.871  11.347   3.646
75700CL-    CL-48026  42.886  20.154  13.501
75701CL-    CL-48027  12.178  17.204  12.473
75702CL-    CL-48028  15.234   6.901  12.464
75703CL-    CL-48029  18.785  25.215   2.395
75704CL-    CL-48030  42.499   1.770   1.788
75705CL-    CL-48031  39.381   4.219   1.896
75706CL-    CL-48032  10.282  22.229   2.270
75707CL-    CL-48033  24.082  12.240  12.525
75708CL-    CL-48034   2.906  40.436   0.928
75709CL-    CL-48035  31.058  43.782  12.868
75710CL-    CL-48036   1.962   5.792  13.890
75711CL-    CL-48037  33.002  26.013  10.590
75712CL-    CL-48038  34.560  14.195   4.625
75713CL-    CL-48039  30.612  42.910  13.949
75714CL-    CL-48040  35.599  20.032   0.477
75715CL-    CL-48041  32.511  15.639   9.976
75716CL-    CL-48042  38.831  18.600  12.340
75717CL-    CL-48043   5.901  23.179   0.862
75718CL-    CL-48044  31.978   9.657  14.771
75719CL-    CL-48045  37.566  28.045   1.754
75720CL-    CL-48046  25.036  27.941  10.405
75721CL-    CL-48047  42.836  35.586  11.472
75722CL-    CL-48048   2.748   9.706   1.820
75723CL-    CL-48049  32.912  39.489  13.832
75724CL-    CL-48050   2.931  17.782  13.472
75725CL-    CL-48051  13.608  39.967  14.989
75726CL-    CL-48052   2.227  28.023  11.391
75727CL-    CL-48053  18.250  32.407   4.744
75728CL-    CL-48054  26.054   6.210   4.216
75729CL-    CL-48055  11.156  33.609  13.414
75730CL-    CL-48056  34.509  32.041   1.389
75731CL-    CL-48057   5.698  15.202  13.394
75732CL-    CL-48058  16.139  36.577   4.805
75733CL-    CL-48059  36.491  27.562   4.639
75734CL-    CL-48060  36.476  38.467  11.565
75735CL-    CL-48061   3.288  26.494  12.872
75736CL-    CL-48062  23.186  36.567   1.928
75737CL-    CL-48063  17.620  23.184  11.076
75738CL-    CL-48064  41.477  24.137   1.707
75739CL-    CL-48065  21.623  38.478   5.087
75740CL-    CL-48066   9.794  30.937   1.298
75741CL-    CL-48067  24.598  35.920   3.699
75742CL-    CL-48068  16.612  21.221   3.301
75743CL-    CL-48069  14.614  27.000   2.730
75744CL-    CL-48070  10.864  17.263   4.291
75745CL-    CL-48071  31.433   5.425  13.030
75746CL-    CL-48072   2.755  35.394   2.198
75747CL-    CL-48073  17.275   5.194  12.433
75748CL-    CL-48074   2.870  39.509  12.037
75749CL-    CL-48075  33.050  13.326   1.230
75750CL-    CL-48076  24.483  13.705   2.719
75751CL-    CL-48077   9.357  27.019  11.068
75752CL-    CL-48078   8.793   2.305   4.644
75753CL-    CL-48079  23.071  10.756  14.289
75754CL-    CL-48080   4.260  39.418  11.417
75755CL-    CL-48081   5.690  17.788   2.775
75756CL-    CL-48082  23.722  21.703   4.755
75757CL-    CL-48083  10.277  28.659   2.347
75758CL-    CL-48084  32.409  37.362   2.889
75759CL-    CL-48085  24.577  12.764  14.391
75760CL-    CL-48086  19.188   3.218   4.192
75761CL-    CL-48087  21.137  21.048   4.730
75762CL-    CL-48088  33.525  10.823   0.834
75763CL-    CL-48089  15.151  18.198  14.326
75764CL-    CL-48090  22.518  27.143   0.779
75765CL-    CL-48091  41.317  30.095   4.602
75766CL-    CL-48092  35.927   2.373   2.877
75767CL-    CL-48093  34.384   8.827  13.846
75768CL-    CL-48094  10.140  33.897  10.606
75769CL-    CL-48095   0.442  32.541   2.390
75770CL-    CL-48096  33.897   7.692  13.013
75771CL-    CL-48097  18.286  30.556  11.031
75772CL-    CL-48098  32.141  34.038   4.793
75773CL-    CL-48099  43.940  32.010  14.801
75774CL-    CL-48100  28.934   4.248   1.730
75775CL-    CL-48101   5.836  28.602  11.513
75776CL-    CL-48102   4.832  21.085  12.840
75777CL-    CL-48103  20.723  12.815   1.351
75778CL-    CL-48104  28.494   7.184   1.405
75779CL-    CL-48105  28.979  39.808   4.755
75780CL-    CL-48106  29.020  34.412  14.862
75781CL-    CL-48107  35.479   9.765  10.938
75782CL-    CL-48108   4.880  27.080   1.257
75783CL-    CL-48109  28.436  28.546   2.699
75784CL-    CL-48110   1.291  41.341  11.969
75785CL-    CL-48111   1.761  31.015  12.433
75786CL-    CL-48112  10.774   9.167   4.804
75787CL-    CL-48113  13.289   5.703  14.008
75788CL-    CL-48114  28.975  10.253   0.741
75789CL-    CL-48115  33.887  37.919   3.861
75790CL-    CL-48116   1.340  43.774   0.407
75791CL-    CL-48117  12.773  32.907  11.409
75792CL-    CL-48118  25.086  31.069  12.471
75793CL-    CL-48119   1.898  44.465   1.343
75794CL-    CL-48120  34.058   1.842   3.677
75795CL-    CL-48121  29.013  44.464   3.341
75796CL-    CL-48122  14.683  14.190   4.743
75797CL-    CL-48123  41.297  34.884  13.434
75798CL-    CL-48124   3.399  11.149   3.325
75799CL-    CL-48125  29.104  32.595   4.656
75800CL-    CL-48126  15.604  41.408   2.732
75801CL-    CL-48127   2.732  40.343   4.834
75802CL-    CL-48128  19.647  23.119  14.006
75803CL-    CL-48129   3.269   3.388   3.235
75804CL-    CL-48130  41.852  13.752   3.230
75805CL-    CL-48131  12.334  27.083   1.299
75806CL-    CL-48132  23.567  40.927  11.459
75807CL-    CL-48133   8.746  33.593  11.070
75808CL-    CL-48134  38.941   3.765  12.073
75809CL-    CL-48135  22.075  34.063  11.424
75810CL-    CL-48136  10.174  34.987   3.687
75811CL-    CL-48137  15.183  18.255   4.776
75812CL-    CL-48138  19.675  13.126   3.858
75813CL-    CL-48139  42.465  31.140  11.574
75814CL-    CL-48140  26.596  22.729  12.067
75815CL-    CL-48141  40.849  40.028  12.416
75816CL-    CL-48142  38.532   5.814  12.479
75817CL-    CL-48143   2.317  41.337   2.788
75818CL-    CL-48144  37.476  44.425  12.032
75819CL-    CL-48145  26.648  26.597  12.562
75820CL-    CL-48146   8.806  44.453   0.296
75821CL-    CL-48147   6.264  43.404  14.883
75822CL-    CL-48148  32.568   2.853   2.710
75823CL-    CL-48149  27.684  30.138  12.533
75824CL-    CL-48150  13.724  30.063  14.810
75825CL-    CL-48151  22.152   1.459   4.781
75826CL-    CL-48152  22.013   7.713   4.598
75827CL-    CL-48153  24.497  19.563  10.972
75828CL-    CL-48154  39.423  10.340   9.966
75829CL-    CL-48155  13.278  26.566  10.901
75830CL-    CL-48156  20.738  40.861  11.494
75831CL-    CL-48157  16.734  38.991   1.335
75832CL-    CL-48158  30.603  36.388   2.325
75833CL-    CL-48159  35.429  28.506   4.269
75834CL-    CL-48160  30.109   1.894  10.964
75835CL-    CL-48161  13.142   0.364  10.420
75836CL-    CL-48162  18.698  38.023  13.872
75837CL-    CL-48163   3.226  27.094  10.443
75838CL-    CL-48164   8.358  37.074   4.163
75839CL-    CL-48165  16.129  38.425  13.891
75840CL-    CL-48166  22.624  15.665   0.865
75841CL-    CL-48167  42.871  32.953  11.907
75842CL-    CL-48168  16.678  28.106  10.434
75843CL-    CL-48169  40.863  28.088  12.968
75844CL-    CL-48170   1.367  17.212  12.982
75845CL-    CL-48171  40.865  36.872   1.913
75846CL-    CL-48172  13.691  31.066  11.007
75847CL-    CL-48173   8.206  25.670   1.728
75848CL-    CL-48174  29.657  28.140  11.986
75849CL-    CL-48175  44.760  15.715  12.570
75850CL-    CL-48176  17.094  24.684  13.807
75851CL-    CL-48177  38.460  24.130  13.358
75852CL-    CL-48178   1.276  29.929  10.528
75853CL-    CL-48179  22.097   3.819  13.019
75854CL-    CL-48180  41.401  21.191   3.851
75855CL-    CL-48181  35.600  23.056  14.328
75856CL-    CL-48182  13.161  28.486  14.928
75857CL-    CL-48183   1.362   8.776  14.492
75858CL-    CL-48184  24.182   8.317  11.416
75859CL-    CL-48185  30.480  19.189   3.784
75860CL-    CL-48186   2.745   9.332   5.716
75861CL-    CL-48187  34.452  27.079   3.251
75862CL-    CL-48188  24.628   5.812   4.670
75863CL-    CL-48189   1.969  15.249   4.822
75864CL-    CL-48190  16.640  37.000   1.848
75865CL-    CL-48191  20.110  26.554  13.795
75866CL-    CL-48192  18.568   4.720   2.202
75867CL-    CL-48193  16.314  14.786   1.743
75868CL-    CL-48194  19.197   7.761   2.333
75869CL-    CL-48195  43.457  15.746  12.958
75870CL-    CL-48196  26.961  37.939  14.914
75871CL-    CL-48197   6.268  17.279   2.866
75872CL-    CL-48198  13.235  27.510   9.931
75873CL-    CL-48199  38.848  34.412   1.338
75874CL-    CL-48200  41.819   1.910   1.409
75875CL-    CL-48201  19.262  16.576  13.793
75876CL-    CL-48202  36.054  33.074   0.932
75877CL-    CL-48203  18.717  15.185  11.896
75878CL-    CL-48204   2.357   9.264   0.372
75879CL-    CL-48205  41.845   1.869  13.029
75880CL-    CL-48206  33.523  10.651  12.340
75881CL-    CL-48207  15.727  24.165  11.968
75882CL-    CL-48208  41.347   2.313  14.312
75883CL-    CL-48209  13.809   7.721  12.941
75884CL-    CL-48210   5.343   6.919   3.291
75885CL-    CL-48211  25.194  11.626   0.886
75886CL-    CL-48212  28.516  16.222   3.699
75887CL-    CL-48213  20.267   2.273   4.268
75888CL-    CL-48214   0.744  40.492   3.152
75889CL-    CL-48215   1.796  44.945  13.533
75890CL-    CL-48216  32.043  35.080   1.388
75891CL-    CL-48217  39.062  29.484   2.889
75892CL-    CL-48218  20.585  37.430  10.554
75893CL-    CL-48219  37.015   0.973  12.375
75894CL-    CL-48220  38.533  25.002  13.894
75895CL-    CL-48221  11.267  33.471   4.644
75896CL-    CL-48222   0.869  26.030  14.479
75897CL-    CL-48223   0.364  17.250   3.709
75898CL-    CL-48224  32.412  17.251  13.366
75899CL-    CL-48225  32.916  44.762   2.401
75900CL-    CL-48226  36.504  13.197   4.807
75901CL-    CL-48227  19.173  26.145  13.970
75902CL-    CL-48228  21.731   6.336  12.912
75903CL-    CL-48229  42.850  43.504   2.663
75904CL-    CL-48230  17.699  17.086   4.696
75905CL-    CL-48231  18.729  30.569  11.953
75906CL-    CL-48232  36.964  36.843  13.519
75907CL-    CL-48233  37.031   0.336  12.499
75908CL-    CL-48234  34.470  44.311   4.601
75909CL-    CL-48235  18.275  44.936   0.864
75910CL-    CL-48236  16.144  38.991  14.019
75911CL-    CL-48237   4.424  33.438  14.307
75912CL-    CL-48238  33.918  36.505   3.293
75913CL-    CL-48239  37.914  38.858   2.815
75914CL-    CL-48240   1.279  18.634  12.339
75915CL-    CL-48241  44.933  42.839   3.765
75916CL-    CL-48242   5.420   1.374  11.407
75917CL-    CL-48243  19.662  21.677   2.845
75918CL-    CL-48244  24.230  24.174  12.049
75919CL-    CL-48245  33.457  29.597   3.655
75920CL-    CL-48246   4.702  13.141  10.440
75921CL-    CL-48247  28.038  11.190  14.995
75922CL-    CL-48248  44.830  31.573  13.844
75923CL-    CL-48249  28.539  11.794   0.299
75924CL-    CL-48250  27.486  39.379   2.185
75925CL-    CL-48251  10.284  25.966   4.118
75926CL-    CL-48252   6.185  14.198  14.775
75927CL-    CL-48253  12.658   0.824  12.466
75928CL-    CL-48254  11.793  33.592   3.331
75929CL-    CL-48255  27.670  41.011  12.861
75930CL-    CL-48256  16.718   4.261  12.097
75931CL-    CL-48257   1.957  28.079  12.860
75932CL-    CL-48258   2.879  19.552  13.928
75933CL-    CL-48259   5.417  32.131  13.525
75934CL-    CL-48260  17.099  17.611  12.860
75935CL-    CL-48261  40.421  29.442  13.857
75936CL-    CL-48262  27.986  31.970  12.492
75937CL-    CL-48263  36.466  21.093   4.328
75938CL-    CL-48264  11.237  22.180   3.673
75939CL-    CL-48265  41.424  22.172   1.249
75940CL-    CL-48266   4.823  38.039  13.401
75941CL-    CL-48267  28.593  26.155  13.515
75942CL-    CL-48268  17.644  33.458  14.785
75943CL-    CL-48269  20.041  34.593  10.957
75944CL-    CL-48270   1.862  36.473   2.282
75945CL-    CL-48271  25.618   3.821   0.890
75946CL-    CL-48272  16.686   5.361  13.878
75947CL-    CL-48273  39.914  29.513  12.092
75948CL-    CL-48274  42.362  31.939  10.639
75949CL-    CL-48275  28.628  27.533  12.094
75950CL-    CL-48276  23.123  17.292   4.704
75951CL-    CL-48277  25.154  12.828  12.041
75952CL-    CL-48278  40.966  40.548  14.493
75953CL-    CL-48279  28.077  26.184  13.521
75954CL-    CL-48280  38.994  34.880   1.698
75955CL-    CL-48281  12.263  28.121   1.285
75956CL-    CL-48282  35.399   7.258  10.893
75957CL-    CL-48283  23.023  16.199  13.472
75958CL-    CL-48284  29.445  41.829   0.364
75959CL-    CL-48285  36.447  38.435   4.229
75960CL-    CL-48286   3.234   4.274  13.351
75961CL-    CL-48287   1.380  44.798   3.789
75962CL-    CL-48288  38.436   5.810   4.181
75963CL-    CL-48289   4.855   3.450   0.751
75964CL-    CL-48290  33.585   8.710  11.073
75965CL-    CL-48291  40.893  42.333   4.332
75966CL-    CL-48292  27.943  16.179   1.935
75967CL-    CL-48293  15.605  28.565   2.867
75968CL-    CL-48294  21.566  44.857   4.776
75969CL-    CL-48295  18.236  26.566   3.723
75970CL-    CL-48296  28.610   0.461  14.416
75971CL-    CL-48297  37.571  41.500  14.955
75972CL-    CL-48298  36.076  14.335  12.493
75973CL-    CL-48299  33.600  44.953   4.755
75974CL-    CL-48300  34.488  38.365   2.803
75975CL-    CL-48301  32.511  22.676   1.851
75976CL-    CL-48302  19.265  42.024  12.028
75977CL-    CL-48303  18.556  11.294  10.608
75978CL-    CL-48304   4.303  39.400  12.913
75979CL-    CL-48305  43.805   8.844  14.280
75980CL-    CL-48306  38.335   3.882   3.723
75981CL-    CL-48307   4.381  18.255   3.276
75982CL-    CL-48308  35.039  33.013  11.065
75983CL-    CL-48309   7.304   5.930  11.882
75984CL-    CL-48310  22.503   4.937  14.783
75985CL-    CL-48311   5.249   1.401  14.017
75986CL-    CL-48312  30.045  29.539   2.251
75987CL-    CL-48313  12.763   6.756  14.396
75988CL-    CL-48314  24.679  33.449  14.304
75989CL-    CL-48315  43.789  43.909  14.300
75990CL-    CL-48316  44.331   3.298  14.882
75991CL-    CL-48317  12.190  41.973  12.069
75992CL-    CL-48318  10.798  36.574   2.293
75993CL-    CL-48319   0.369  10.219   0.244
75994CL-    CL-48320  31.598   3.265   3.823
75995CL-    CL-48321  23.076   9.813  12.519
75996CL-    CL-48322  42.814  18.272  13.061
75997CL-    CL-48323  33.102   0.359   2.733
75998CL-    CL-48324  10.877  25.213   0.372
75999CL-    CL-48325  40.870  29.986  13.838
76000CL-    CL-48326  25.510  27.955   2.357
76001CL-    CL-48327  27.687  12.119  13.835
76002CL-    CL-48328   2.892  13.222   5.199
76003CL-    CL-48329  27.038  23.218   1.933
76004CL-    CL-48330  33.064  17.182   1.859
76005CL-    CL-48331   1.894  26.486  12.339
76006CL-    CL-48332  13.771  24.641  12.541
76007CL-    CL-48333  21.673  25.566  14.314
76008CL-    CL-48334  43.505  37.997  10.586
76009CL-    CL-48335  44.349  10.170   3.766
76010CL-    CL-48336   6.727  34.372   0.907
76011CL-    CL-48337  26.117  13.637  14.859
76012CL-    CL-48338   0.938  42.871   3.190
76013CL-    CL-48339  23.699  20.767  12.029
76014CL-    CL-48340  23.507  35.099  12.013
76015CL-    CL-48341   4.861  26.025   2.246
76016CL-    CL-48342   3.420  31.540   0.374
76017CL-    CL-48343  14.704  15.305  14.931
76018CL-    CL-48344   2.458   0.366  13.430
76019CL-    CL-48345  16.812   4.436   1.386
76020CL-    CL-48346   2.443  22.245   4.812
76021CL-    CL-48347  43.823  29.980   4.612
76022CL-    CL-48348  34.462  42.843   4.194
76023CL-    CL-48349  20.649  19.648  11.558
76024CL-    CL-48350   4.406  13.642   4.722
76025CL-    CL-48351  41.035   2.823  13.397
76026CL-    CL-48352  44.944  23.088  11.972
76027CL-    CL-48353  22.519   2.383  11.872
76028CL-    CL-48354  27.180  25.106   3.195
76029CL-    CL-48355  18.709  36.560   0.776
76030CL-    CL-48356  30.084   4.376  12.388
76031CL-    CL-48357  39.040  33.083   2.859
76032CL-    CL-48358  17.752  27.150   3.291
76033CL-    CL-48359  43.926  25.684  14.408
76034CL-    CL-48360   7.794  12.120  11.516
76035CL-    CL-48361  37.893  26.688   1.817
76036CL-    CL-48362  40.005   4.857   0.310
76037CL-    CL-48363  26.049  24.997   2.379
76038CL-    CL-48364   8.685  34.500  12.001
76039CL-    CL-48365  13.119  19.156  11.547
76040CL-    CL-48366  36.018  19.109  11.897
76041CL-    CL-48367   8.724  29.647   5.182
76042CL-    CL-48368  22.051   7.833   3.257
76043CL-    CL-48369  15.253  24.551   3.328
76044CL-    CL-48370   7.409  15.711  13.452
76045CL-    CL-48371  12.195  20.192  14.772
76046CL-    CL-48372  37.882  22.702  10.518
76047CL-    CL-48373  35.092  12.228   2.178
76048CL-    CL-48374  10.834  30.618  10.471
76049CL-    CL-48375  25.623  28.959   1.222
76050CL-    CL-48376  43.944  39.413  12.094
76051CL-    CL-48377  24.669  28.620  13.971
76052CL-    CL-48378  12.180  39.850  12.431
76053CL-    CL-48379  41.508  15.232   4.654
76054CL-    CL-48380  24.720   7.811  11.533
76055CL-    CL-48381  35.079  29.577   2.365
76056CL-    CL-48382  24.552  38.529  14.395
76057CL-    CL-48383  22.669  10.860   4.272
76058CL-    CL-48384   2.420  12.341   4.328
76059CL-    CL-48385  33.504  28.511  10.593
76060CL-    CL-48386  14.692   7.808  10.567
76061CL-    CL-48387  24.142  19.209  11.934
76062CL-    CL-48388  41.002   5.886   3.327
76063CL-    CL-48389  25.482   2.806   2.844
76064CL-    CL-48390  30.478   1.786   1.366
76065CL-    CL-48391   2.856  37.079   2.769
76066CL-    CL-48392  43.827  34.094  11.049
76067CL-    CL-48393  29.479  41.793  12.967
76068CL-    CL-48394   8.766  21.672   1.816
76069CL-    CL-48395  10.304  19.596   3.267
76070CL-    CL-48396   6.244  22.121  13.831
76071CL-    CL-48397   5.730   4.760   4.265
76072CL-    CL-48398  20.667   2.912  14.425
76073CL-    CL-48399  19.178  39.895  11.104
76074CL-    CL-48400  42.370  19.681   3.212
76075CL-    CL-48401  44.473   4.788   4.183
76076CL-    CL-48402  37.894  11.809  10.582
76077CL-    CL-48403  39.873  39.544  11.570
76078CL-    CL-48404   8.891  10.843   0.901
76079CL-    CL-48405  43.323  27.963  13.460
76080CL-    CL-48406  39.518  10.761   1.749
76081CL-    CL-48407  35.001  25.970  11.539
76082CL-    CL-48408   1.344  12.766  14.511
76083CL-    CL-48409  40.346  31.057   4.241
76084CL-    CL-48410  17.118  25.212   1.767
76085CL-    CL-48411  19.705  19.686   2.417
76086CL-    CL-48412   9.669  26.088  12.572
76087CL-    CL-48413  33.544  12.748   4.672
76088CL-    CL-48414  43.457  34.084  14.018
76089CL-    CL-48415  31.048  37.903  10.456
76090CL-    CL-48416  41.797  22.075   3.638
76091CL-    CL-48417  44.478  25.043  13.940
76092CL-    CL-48418   7.822   0.938   2.233
76093CL-    CL-48419  36.879  10.804   2.846
76094CL-    CL-48420  30.597  32.491   1.367
76095CL-    CL-48421  17.609  27.567   4.150
76096CL-    CL-48422  37.569  23.220  14.938
76097CL-    CL-48423  33.487   4.219  12.051
76098CL-    CL-48424  33.548  42.895  10.535
76099CL-    CL-48425   0.951  19.673  11.113
76100CL-    CL-48426  12.222  11.690   3.675
76101CL-    CL-48427  23.547  31.449  14.968
76102CL-    CL-48428  32.101  12.278  13.434
76103CL-    CL-48429   8.710  12.189  10.928
76104CL-    CL-48430  17.154  33.115   0.330
76105CL-    CL-48431   0.855  26.005  11.445
76106CL-    CL-48432  34.500  31.107  14.964
76107CL-    CL-48433  28.503  34.384  12.457
76108CL-    CL-48434  12.719  22.996  14.761
76109CL-    CL-48435   2.933  37.408   0.465
76110CL-    CL-48436   3.360  38.483   3.351
76111CL-    CL-48437   0.369  37.902   0.334
76112CL-    CL-48438  12.823  30.470  11.069
76113CL-    CL-48439  28.610  14.320  14.490
76114CL-    CL-48440  27.161  17.067   3.356
76115CL-    CL-48441  35.050  32.923  12.986
76116CL-    CL-48442   7.394   6.891   1.309
76117CL-    CL-48443  27.488   3.734   3.648
76118CL-    CL-48444  28.593  41.806   4.710
76119CL-    CL-48445   9.342  28.165   2.822
76120CL-    CL-48446  17.685   2.722   4.745
76121CL-    CL-48447  27.465   3.309  14.907
76122CL-    CL-48448  34.379   5.800   1.728
76123CL-    CL-48449  43.957   7.802   4.177
76124CL-    CL-48450  12.703  44.920   0.451
76125CL-    CL-48451  44.268  23.584  11.456
76126CL-    CL-48452   2.800  30.023  14.458
76127CL-    CL-48453  35.011   5.344  14.392
76128CL-    CL-48454  36.919  40.928   4.130
76129CL-    CL-48455  30.150  26.151   3.308
76130CL-    CL-48456   2.262  41.015   3.168
76131CL-    CL-48457  12.696   7.699   3.759
76132CL-    CL-48458  18.769  16.072   0.743
76133CL-    CL-48459   3.381   5.889   1.371
76134CL-    CL-48460   2.364  10.838  11.989
76135CL-    CL-48461  17.711   0.357   4.683
76136CL-    CL-48462  33.973  38.385  13.525
76137CL-    CL-48463   9.665  26.504   4.655
76138CL-    CL-48464   8.233  33.109  14.442
76139CL-    CL-48465   9.370  29.476  12.580
76140CL-    CL-48466  11.692  36.848  10.550
76141CL-    CL-48467  30.440  27.647  10.922
76142CL-    CL-48468   4.900  35.549  11.557
76143CL-    CL-48469  28.513  37.414  12.881
76144CL-    CL-48470  39.057  14.124   3.175
76145CL-    CL-48471  11.218  26.073   3.824
76146CL-    CL-48472  16.173  17.644  10.512
76147CL-    CL-48473  16.315  30.621   1.706
76148CL-    CL-48474  21.565  25.051   3.661
76149CL-    CL-48475  33.120  13.622  13.976
76150CL-    CL-48476  17.786  33.079   1.261
76151CL-    CL-48477  33.462  43.299  14.339
76152CL-    CL-48478  25.667  20.739  14.433
76153CL-    CL-48479  39.852   1.299  13.850
76154CL-    CL-48480  24.029  15.316  12.479
76155CL-    CL-48481   7.824   7.843  13.936
76156CL-    CL-48482  35.418  11.219  10.636
76157CL-    CL-48483   0.267   5.375   0.345
76158CL-    CL-48484   1.838  40.931   3.173
76159CL-    CL-48485  31.951   9.781  13.049
76160CL-    CL-48486   4.791  21.226   2.874
76161CL-    CL-48487   1.359  40.039  11.433
76162CL-    CL-48488  28.010  35.087  13.844
76163CL-    CL-48489   0.758  36.872  10.427
76164CL-    CL-48490  17.608  12.273  10.951
76165CL-    CL-48491   5.270  13.172  10.618
76166CL-    CL-48492  24.214  25.990   3.166
76167CL-    CL-48493  26.584  25.180  12.526
76168CL-    CL-48494   3.872  41.891  12.061
76169CL-    CL-48495  25.031  28.174   2.298
76170CL-    CL-48496  42.873   8.350  13.886
76171CL-    CL-48497  17.751  23.713  14.792
76172CL-    CL-48498  21.256  16.628  10.476
76173CL-    CL-48499  14.741  12.162  14.505
76174CL-    CL-48500  23.068  33.898  14.834
76175CL-    CL-48501  13.150  23.499  11.609
76176CL-    CL-48502  37.495  30.553   1.842
76177CL-    CL-48503  43.477  44.340   1.706
76178CL-    CL-48504   5.758  22.536  12.904
76179CL-    CL-48505  31.552  13.343   4.601
76180CL-    CL-48506   7.782   0.820   0.339
76181CL-    CL-48507  41.983   3.349   3.224
76182CL-    CL-48508   9.392  43.386  11.383
76183CL-    CL-48509  38.929  32.005   0.937
76184CL-    CL-48510  13.149  18.628   3.159
76185CL-    CL-48511  15.277  35.601  14.415
76186CL-    CL-48512  18.598  24.051   0.726
76187CL-    CL-48513  17.706  43.397  11.931
76188CL-    CL-48514   0.856  10.780  13.823
76189CL-    CL-48515  14.234   5.332  11.969
76190CL-    CL-48516  34.513   4.863  11.542
76191CL-    CL-48517  43.350  42.522  12.840
76192CL-    CL-48518  27.447  20.227   4.742
76193CL-    CL-48519   3.914  19.641  11.503
76194CL-    CL-48520  27.483  41.377  13.370
76195CL-    CL-48521  18.658  14.323   0.726
76196CL-    CL-48522  16.117  25.098  12.883
76197CL-    CL-48523  44.441  44.870  11.015
76198CL-    CL-48524  18.202  28.016  11.100
76199CL-    CL-48525  43.993   3.923   3.708
76200CL-    CL-48526  24.113  28.952  14.859
76201CL-    CL-48527   9.669  17.074   0.443
76202CL-    CL-48528  41.840  24.173  14.887
76203CL-    CL-48529  34.936  23.596  10.160
76204CL-    CL-48530  38.363  39.913  11.101
76205CL-    CL-48531  17.558  43.427   0.463
76206CL-    CL-48532  11.372  14.743   1.887
76207CL-    CL-48533  10.785   7.394   4.180
76208CL-    CL-48534   1.734  21.122  14.768
76209CL-    CL-48535  17.659   3.256   2.235
76210CL-    CL-48536  29.577  35.587  12.445
76211CL-    CL-48537  21.555  32.623   3.707
76212CL-    CL-48538  27.564  11.679   3.186
76213CL-    CL-48539  24.996   3.772  13.343
76214CL-    CL-48540  20.716   8.390  14.832
76215CL-    CL-48541  21.714  24.044  12.829
76216CL-    CL-48542  15.604  25.526  12.087
76217CL-    CL-48543  37.942  15.163   2.803
76218CL-    CL-48544  32.038   5.421  14.871
76219CL-    CL-48545  27.136  43.311  13.975
76220CL-    CL-48546   9.653  26.588  10.491
76221CL-    CL-48547  26.053  39.998  12.033
76222CL-    CL-48548  22.126  32.885   1.289
76223CL-    CL-48549   0.384  20.744  11.406
76224CL-    CL-48550  30.618  31.916  14.434
76225CL-    CL-48551  13.166   1.299  14.019
76226CL-    CL-48552  35.469  24.192   0.954
76227CL-    CL-48553  13.232  13.301   2.791
76228CL-    CL-48554   3.308   0.793   5.121
76229CL-    CL-48555   8.743  25.695  12.387
76230CL-    CL-48556   6.862  37.910  11.896
76231CL-    CL-48557  12.638  36.963   3.646
76232CL-    CL-48558   3.932   0.455  12.913
76233CL-    CL-48559   2.806  12.826   5.752
76234CL-    CL-48560  23.051   6.854  10.495
76235CL-    CL-48561  20.767  31.558  11.385
76236CL-    CL-48562   4.345  41.465  13.917
76237CL-    CL-48563   5.260  36.865   4.217
76238CL-    CL-48564   8.207  17.159  13.443
76239CL-    CL-48565  32.064   2.352  12.858
76240CL-    CL-48566  31.603   6.748   1.374
76241CL-    CL-48567  23.568   7.798  10.562
76242CL-    CL-48568  37.395   5.867  11.885
76243CL-    CL-48569  44.989  15.715  10.641
76244CL-    CL-48570  19.655  17.208  14.909
76245CL-    CL-48571   9.698  37.414   0.899
76246CL-    CL-48572  14.238   7.239  13.875
76247CL-    CL-48573  37.902   1.364  14.363
76248CL-    CL-48574   0.816  28.514  14.781
76249CL-    CL-48575  37.511   9.718   1.387
76250CL-    CL-48576   9.868   7.871   1.802
76251CL-    CL-48577  34.545  40.905  10.443
76252CL-    CL-48578  33.119   9.716   3.868
76253CL-    CL-48579  24.224  16.615  14.987
76254CL-    CL-48580   4.344   2.760  14.291
76255CL-    CL-48581  10.855  24.057  14.480
76256CL-    CL-48582  11.311   3.452  10.039
76257CL-    CL-48583  35.974  40.331   4.604
76258CL-    CL-48584  43.798  43.431  11.524
76259CL-    CL-48585   7.846  40.496   2.727
76260CL-    CL-48586   0.939  38.512  11.123
76261CL-    CL-48587   5.420  44.969  13.402
76262CL-    CL-48588  17.615  40.378   0.740
76263CL-    CL-48589   0.277  23.544   1.805
76264CL-    CL-48590  10.696  29.646   4.320
76265CL-    CL-48591  23.574  14.142  14.847
76266CL-    CL-48592  27.678  23.704   0.346
76267CL-    CL-48593   5.862   6.720   4.240
76268CL-    CL-48594  42.983  43.828   1.770
76269CL-    CL-48595  18.715  16.637   4.697
76270CL-    CL-48596  17.671  34.548  13.058
76271CL-    CL-48597  13.664  17.623  14.972
76272CL-    CL-48598  31.599   0.308  12.946
76273CL-    CL-48599  31.906  23.203   2.183
76274CL-    CL-48600   2.410  43.416  10.974
76275CL-    CL-48601  40.013   7.826   2.363
76276CL-    CL-48602  16.665   6.740   2.842
76277CL-    CL-48603   2.824  32.414  14.762
76278CL-    CL-48604  28.939  30.123   2.893
76279CL-    CL-48605  35.057  43.924  12.498
76280CL-    CL-48606   9.229  13.717  12.887
76281CL-    CL-48607  27.606   6.732  12.036
76282CL-    CL-48608  41.822   0.789  13.881
76283CL-    CL-48609  19.762  38.984   3.153
76284CL-    CL-48610  42.781  19.280  13.525
76285CL-    CL-48611  42.796  26.494  11.608
76286CL-    CL-48612  24.703   2.783   1.822
76287CL-    CL-48613  16.751  26.061   4.784
76288CL-    CL-48614  11.643  11.754  12.975
76289CL-    CL-48615  44.946  31.152  14.331
76290CL-    CL-48616  11.762  43.013   3.365
76291CL-    CL-48617  13.249  22.529  10.601
76292CL-    CL-48618  13.338   1.901   4.814
76293CL-    CL-48619  28.528  33.498   4.807
76294CL-    CL-48620  14.788  26.656  12.846
76295CL-    CL-48621  34.541  26.668  12.065
76296CL-    CL-48622  16.093  42.478  14.799
76297CL-    CL-48623  39.348   2.827  10.640
76298CL-    CL-48624   0.959   2.269  13.395
76299CL-    CL-48625  35.031  27.622   0.806
76300CL-    CL-48626  29.601  25.469   0.480
76301CL-    CL-48627  27.141  40.528   3.263
76302CL-    CL-48628  42.429   4.349  14.794
76303CL-    CL-48629  24.524  41.901  11.394
76304CL-    CL-48630  21.041  11.325   3.755
76305CL-    CL-48631  22.602   4.755  12.016
76306CL-    CL-48632  20.031  19.776  10.996
76307CL-    CL-48633   4.307  30.508  11.085
76308CL-    CL-48634   2.832   5.695  13.011
76309CL-    CL-48635  26.042  25.590   0.826
76310CL-    CL-48636  17.708   5.240   0.382
76311CL-    CL-48637  22.017  18.086   1.748
76312CL-    CL-48638  23.555   2.420  14.943
76313CL-    CL-48639  44.296  22.603   1.314
76314CL-    CL-48640  13.299  34.907  12.500
76315CL-    CL-48641   5.335  21.095  14.460
76316CL-    CL-48642  18.554  26.154   0.738
76317CL-    CL-48643  14.258  37.952  12.348
76318CL-    CL-48644  25.701   6.813   3.150
76319CL-    CL-48645  31.908  40.815   2.259
76320CL-    CL-48646  12.802   7.315   0.344
76321CL-    CL-48647  31.905  25.060   4.836
76322CL-    CL-48648  11.137  19.533  14.338
76323CL-    CL-48649  40.306  19.548   3.184
76324CL-    CL-48650  18.791  32.110   3.797
76325CL-    CL-48651   5.732  10.169   3.697
76326CL-    CL-48652  43.446  15.699   9.932
76327CL-    CL-48653   8.355   0.417  13.791
76328CL-    CL-48654  29.436   0.306  13.392
76329CL-    CL-48655  24.699  43.500   4.300
76330CL-    CL-48656   6.772   4.846   4.216
76331CL-    CL-48657  41.993  43.438  13.394
76332CL-    CL-48658  13.811  33.454   5.752
76333CL-    CL-48659   5.316  34.062   0.936
76334CL-    CL-48660  43.975  13.804   1.446
76335CL-    CL-48661   2.318  44.338  14.463
76336CL-    CL-48662  39.856  18.586  10.991
76337CL-    CL-48663  24.489  30.994   0.922
76338CL-    CL-48664   7.694  35.593   2.371
76339CL-    CL-48665  14.324  21.196  13.393
76340CL-    CL-48666  42.359  35.450   1.326
76341CL-    CL-48667   7.273   2.461   0.255
76342CL-    CL-48668   3.799  17.582  11.466
76343CL-    CL-48669   0.353  21.057   3.217
76344CL-    CL-48670   7.786  14.771  10.899
76345CL-    CL-48671  21.253  40.516   2.412
76346CL-    CL-48672   0.921  27.635   0.880
76347CL-    CL-48673  13.834  13.704   2.715
76348CL-    CL-48674   5.711  22.230   3.712
76349CL-    CL-48675  19.129  14.254   1.324
76350CL-    CL-48676  31.616  36.439  14.005
76351CL-    CL-48677   0.827  16.314  13.338
76352CL-    CL-48678   6.398  19.165  11.089
76353CL-    CL-48679   9.869  44.886   4.317
76354CL-    CL-48680  27.066   6.787   0.311
76355CL-    CL-48681   4.811  42.438   0.338
76356CL-    CL-48682  28.991  20.112   0.345
76357CL-    CL-48683  29.175  27.069  11.125
76358CL-    CL-48684   7.689  13.825   4.219
76359CL-    CL-48685  41.330  26.965   0.802
76360CL-    CL-48686   1.828  42.015  10.923
76361CL-    CL-48687  40.349  15.101   2.320
76362CL-    CL-48688  42.833  34.996  14.835
76363CL-    CL-48689  11.659  24.096  14.014
76364CL-    CL-48690   7.360  21.158   4.260
76365CL-    CL-48691  25.102  22.537   2.890
76366CL-    CL-48692   7.261  11.840   4.708
76367CL-    CL-48693  17.648  34.067  13.483
76368CL-    CL-48694   8.760  14.180  12.885
76369CL-    CL-48695  24.036   1.395  13.418
76370CL-    CL-48696  36.445   1.297   3.172
76371CL-    CL-48697   5.241  21.522   3.756
76372CL-    CL-48698   2.264  43.017  10.937
76373CL-    CL-48699   4.762  43.946   0.286
76374CL-    CL-48700  28.950  21.048  14.990
76375CL-    CL-48701  40.444  33.414  14.427
76376CL-    CL-48702   8.308  29.017   2.709
76377CL-    CL-48703  10.143   7.844   0.768
76378CL-    CL-48704  15.686   5.768   0.422
76379CL-    CL-48705  39.433  21.125  14.479
76380CL-    CL-48706  23.670  27.061   2.841
76381CL-    CL-48707  28.504  16.266  12.356
76382CL-    CL-48708  17.298  25.658  10.584
76383CL-    CL-48709  38.983  35.896   5.091
76384CL-    CL-48710  29.926  21.603  14.788
76385CL-    CL-48711  39.504  32.433   4.164
76386CL-    CL-48712  12.228  28.012  14.003
  45.00000  45.00000  15.00000   0.00000   0.00000   0.00000   0.00000   0.00000   0.00000

